<event>
 4    1  0.6122885E-004  0.2305569E+03  0.7818608E-02  0.1126248E+00
         -2   -1    0    0    0  501 -0.00000000000E+00  0.00000000000E+00  0.36322422053E+02  0.36322422142E+02  0.25500000000E-02 0. -1.
          2   -1    0    0  501    0  0.00000000000E+00 -0.00000000000E+00 -0.36586545894E+03  0.36586545895E+03  0.25500000000E-02 0.  1.
    5000001    1    1    2    0    0  0.25211663868E+02 -0.77232868847E+02 -0.11669462647E+03  0.16170089633E+03  0.77000000000E+02 0.  0.
   -5000001    1    1    2    0    0 -0.25211663868E+02  0.77232868847E+02 -0.21284841042E+03  0.24048698477E+03  0.77000000000E+02 0.  0.
<mgrwt>
<rscale>  0 0.23055689E+03</rscale>
<asrwt>0</asrwt>
<pdfrwt beam="1">  1        2 0.56286991E-01 0.23055689E+03</pdfrwt>
<pdfrwt beam="2">  1       -2 0.55880652E-02 0.23055689E+03</pdfrwt>
<totfact> 0.14258825E+04</totfact>
</mgrwt>
</event>
<event>
 4    1  0.6122885E-004  0.3795222E+03  0.7818608E-02  0.1051111E+00
         -2   -1    0    0    0  501 -0.00000000000E+00  0.00000000000E+00  0.15569554867E+02  0.15569555075E+02  0.25500000000E-02 0. -1.
          2   -1    0    0  501    0  0.00000000000E+00 -0.00000000000E+00 -0.23128000060E+04  0.23128000060E+04  0.25500000000E-02 0.  1.
    5000001    1    1    2    0    0 -0.16045720938E+03 -0.63232173839E+02 -0.12609784342E+04  0.12750452680E+04  0.77000000000E+02 0.  0.
   -5000001    1    1    2    0    0  0.16045720938E+03  0.63232173839E+02 -0.10362520169E+04  0.10533242931E+04  0.77000000000E+02 0.  0.
<mgrwt>
<rscale>  0 0.37952216E+03</rscale>
<asrwt>0</asrwt>
<pdfrwt beam="1">  1        2 0.35581511E+00 0.37952216E+03</pdfrwt>
<pdfrwt beam="2">  1       -2 0.23953180E-02 0.37952216E+03</pdfrwt>
<totfact> 0.29823774E+03</totfact>
</mgrwt>
</event>
<event>
 4    1  0.6122885E-004  0.2353537E+03  0.7818608E-02  0.1122927E+00
         -2   -1    0    0    0  501 -0.00000000000E+00  0.00000000000E+00  0.40786186631E+01  0.40786194602E+01  0.25500000000E-02 0. -1.
          2   -1    0    0  501    0  0.00000000000E+00 -0.00000000000E+00 -0.33952271644E+04  0.33952271644E+04  0.25500000000E-02 0.  1.
    5000001    1    1    2    0    0 -0.69065952690E+02 -0.55734443176E+02 -0.17896275599E+04  0.17934804813E+04  0.77000000000E+02 0.  0.
   -5000001    1    1    2    0    0  0.69065952690E+02  0.55734443176E+02 -0.16015209859E+04  0.16058253025E+04  0.77000000000E+02 0.  0.
<mgrwt>
<rscale>  0 0.23535368E+03</rscale>
<asrwt>0</asrwt>
<pdfrwt beam="1">  1        2 0.52234038E+00 0.23535368E+03</pdfrwt>
<pdfrwt beam="2">  1       -2 0.62748257E-03 0.23535368E+03</pdfrwt>
<totfact> 0.49886563E+03</totfact>
</mgrwt>
</event>
<event>
 4    1  0.6122885E-004  0.2336814E+03  0.7818608E-02  0.1124075E+00
          2   -1    0    0  501    0  0.00000000000E+00  0.00000000000E+00  0.26122239091E+04  0.26122239091E+04  0.25500000000E-02 0.  1.
         -2   -1    0    0    0  501 -0.00000000000E+00 -0.00000000000E+00 -0.52261023512E+01  0.52261029733E+01  0.25500000000E-02 0. -1.
    5000001    1    1    2    0    0 -0.13250443635E+02 -0.36965458215E+02  0.42290808614E+03  0.43165063266E+03  0.77000000000E+02 0.  0.
   -5000001    1    1    2    0    0  0.13250443635E+02  0.36965458215E+02  0.21840897206E+04  0.21857993794E+04  0.77000000000E+02 0.  0.
<mgrwt>
<rscale>  0 0.23368141E+03</rscale>
<asrwt>0</asrwt>
<pdfrwt beam="1">  1        2 0.40187974E+00 0.23368141E+03</pdfrwt>
<pdfrwt beam="2">  1       -2 0.80401752E-03 0.23368141E+03</pdfrwt>
<totfact> 0.10162291E+04</totfact>
</mgrwt>
</event>
<event>
 4    1  0.6122885E-004  0.2248072E+03  0.7818608E-02  0.1130349E+00
         -2   -1    0    0    0  501 -0.00000000000E+00  0.00000000000E+00  0.13950526758E+02  0.13950526991E+02  0.25500000000E-02 0. -1.
          2   -1    0    0  501    0  0.00000000000E+00 -0.00000000000E+00 -0.90567004253E+03  0.90567004253E+03  0.25500000000E-02 0.  1.
    5000001    1    1    2    0    0  0.54398096885E+02 -0.59930792011E+02 -0.39497664166E+03  0.41047094931E+03  0.77000000000E+02 0.  0.
   -5000001    1    1    2    0    0 -0.54398096885E+02  0.59930792011E+02 -0.49674287411E+03  0.50914962021E+03  0.77000000000E+02 0.  0.
<mgrwt>
<rscale>  0 0.22480724E+03</rscale>
<asrwt>0</asrwt>
<pdfrwt beam="1">  1        2 0.13933381E+00 0.22480724E+03</pdfrwt>
<pdfrwt beam="2">  1       -2 0.21462356E-02 0.22480724E+03</pdfrwt>
<totfact> 0.20673049E+04</totfact>
</mgrwt>
</event>
<event>
 4    1  0.6122885E-004  0.2227012E+03  0.7818608E-02  0.1131885E+00
         -2   -1    0    0    0  501 -0.00000000000E+00  0.00000000000E+00  0.29907396531E+02  0.29907396640E+02  0.25500000000E-02 0. -1.
          2   -1    0    0  501    0  0.00000000000E+00 -0.00000000000E+00 -0.41457809321E+03  0.41457809322E+03  0.25500000000E-02 0.  1.
    5000001    1    1    2    0    0  0.40651117887E+02 -0.63081772168E+02 -0.13455364900E+03  0.17223677837E+03  0.77000000000E+02 0.  0.
   -5000001    1    1    2    0    0 -0.40651117887E+02  0.63081772168E+02 -0.25011704768E+03  0.27224871149E+03  0.77000000000E+02 0.  0.
<mgrwt>
<rscale>  0 0.22270116E+03</rscale>
<asrwt>0</asrwt>
<pdfrwt beam="1">  1        2 0.63781241E-01 0.22270116E+03</pdfrwt>
<pdfrwt beam="2">  1       -2 0.46011382E-02 0.22270116E+03</pdfrwt>
<totfact> 0.16690228E+04</totfact>
</mgrwt>
</event>
<event>
 4    1  0.6122885E-004  0.2109578E+03  0.7818608E-02  0.1140810E+00
          2   -1    0    0  501    0  0.00000000000E+00  0.00000000000E+00  0.15920156900E+02  0.15920157104E+02  0.25500000000E-02 0.  1.
         -2   -1    0    0    0  501 -0.00000000000E+00 -0.00000000000E+00 -0.69884945743E+03  0.69884945744E+03  0.25500000000E-02 0. -1.
    5000001    1    1    2    0    0  0.36524736829E+02  0.53939114842E+02 -0.44607805743E+03  0.45733807827E+03  0.77000000000E+02 0.  0.
   -5000001    1    1    2    0    0 -0.36524736829E+02 -0.53939114842E+02 -0.23685124310E+03  0.25743153628E+03  0.77000000000E+02 0.  0.
<mgrwt>
<rscale>  0 0.21095775E+03</rscale>
<asrwt>0</asrwt>
<pdfrwt beam="1">  1        2 0.24492555E-02 0.21095775E+03</pdfrwt>
<pdfrwt beam="2">  1       -2 0.10751528E+00 0.21095775E+03</pdfrwt>
<totfact> 0.29439466E+03</totfact>
</mgrwt>
</event>
<event>
 4    1  0.6122885E-004  0.3707938E+03  0.7818608E-02  0.1054390E+00
          2   -1    0    0  501    0  0.00000000000E+00  0.00000000000E+00  0.59634909497E+03  0.59634909497E+03  0.25500000000E-02 0.  1.
         -2   -1    0    0    0  501 -0.00000000000E+00 -0.00000000000E+00 -0.57637406770E+02  0.57637406827E+02  0.25500000000E-02 0. -1.
    5000001    1    1    2    0    0  0.16116138097E+03 -0.42321823452E+02  0.22340057297E+03  0.28913827740E+03  0.77000000000E+02 0.  0.
   -5000001    1    1    2    0    0 -0.16116138097E+03  0.42321823452E+02  0.31531111523E+03  0.36484822440E+03  0.77000000000E+02 0.  0.
<mgrwt>
<rscale>  0 0.37079383E+03</rscale>
<asrwt>0</asrwt>
<pdfrwt beam="1">  1        2 0.91746017E-01 0.37079383E+03</pdfrwt>
<pdfrwt beam="2">  1       -2 0.88672931E-02 0.37079383E+03</pdfrwt>
<totfact> 0.41046896E+03</totfact>
</mgrwt>
</event>
<event>
 4    1  0.6122885E-004  0.2976890E+03  0.7818608E-02  0.1086402E+00
          2   -1    0    0  501    0  0.00000000000E+00  0.00000000000E+00  0.45846419817E+03  0.45846419817E+03  0.25500000000E-02 0.  1.
         -2   -1    0    0    0  501 -0.00000000000E+00 -0.00000000000E+00 -0.48323696164E+02  0.48323696232E+02  0.25500000000E-02 0. -1.
    5000001    1    1    2    0    0  0.29098680217E+02  0.11052770991E+03  0.30080817145E+03  0.33087409065E+03  0.77000000000E+02 0.  0.
   -5000001    1    1    2    0    0 -0.29098680217E+02 -0.11052770991E+03  0.10933233055E+03  0.17591380376E+03  0.77000000000E+02 0.  0.
<mgrwt>
<rscale>  0 0.29768900E+03</rscale>
<asrwt>0</asrwt>
<pdfrwt beam="1">  1        2 0.70532952E-01 0.29768900E+03</pdfrwt>
<pdfrwt beam="2">  1       -2 0.74344150E-02 0.29768900E+03</pdfrwt>
<totfact> 0.72643914E+03</totfact>
</mgrwt>
</event>
<event>
 4    1  0.6122885E-004  0.3080799E+03  0.7818608E-02  0.1081270E+00
         -2   -1    0    0    0  501 -0.00000000000E+00  0.00000000000E+00  0.47250015979E+02  0.47250016048E+02  0.25500000000E-02 0. -1.
          2   -1    0    0  501    0  0.00000000000E+00 -0.00000000000E+00 -0.50218621142E+03  0.50218621143E+03  0.25500000000E-02 0.  1.
    5000001    1    1    2    0    0  0.20775369691E+02  0.12988143693E+03 -0.18764933472E+03  0.24174796063E+03  0.77000000000E+02 0.  0.
   -5000001    1    1    2    0    0 -0.20775369691E+02 -0.12988143693E+03 -0.26728686072E+03  0.30768826685E+03  0.77000000000E+02 0.  0.
<mgrwt>
<rscale>  0 0.30807990E+03</rscale>
<asrwt>0</asrwt>
<pdfrwt beam="1">  1        2 0.77259414E-01 0.30807990E+03</pdfrwt>
<pdfrwt beam="2">  1       -2 0.72692336E-02 0.30807990E+03</pdfrwt>
<totfact> 0.68032558E+03</totfact>
</mgrwt>
</event>
<event>
 4    1  0.6122885E-004  0.2227828E+03  0.7818608E-02  0.1131825E+00
          2   -1    0    0  501    0  0.00000000000E+00  0.00000000000E+00  0.42569228868E+02  0.42569228944E+02  0.25500000000E-02 0.  1.
         -2   -1    0    0    0  501 -0.00000000000E+00 -0.00000000000E+00 -0.29147912703E+03  0.29147912704E+03  0.25500000000E-02 0. -1.
    5000001    1    1    2    0    0  0.66150601554E+02  0.28244386758E+02 -0.17862990454E+03  0.20739163499E+03  0.77000000000E+02 0.  0.
   -5000001    1    1    2    0    0 -0.66150601554E+02 -0.28244386758E+02 -0.70279993627E+02  0.12665672100E+03  0.77000000000E+02 0.  0.
<mgrwt>
<rscale>  0 0.22278278E+03</rscale>
<asrwt>0</asrwt>
<pdfrwt beam="1">  1        2 0.65491123E-02 0.22278278E+03</pdfrwt>
<pdfrwt beam="2">  1       -2 0.44842941E-01 0.22278278E+03</pdfrwt>
<totfact> 0.51606707E+03</totfact>
</mgrwt>
</event>
<event>
 4    1  0.6122885E-004  0.1789138E+03  0.7818608E-02  0.1168858E+00
         -2   -1    0    0    0  501 -0.00000000000E+00  0.00000000000E+00  0.51938485428E+02  0.51938485490E+02  0.25500000000E-02 0. -1.
          2   -1    0    0  501    0  0.00000000000E+00 -0.00000000000E+00 -0.15407726273E+03  0.15407726275E+03  0.25500000000E-02 0.  1.
    5000001    1    1    2    0    0 -0.77327196255E+01  0.43949082449E+02 -0.40628130583E+02  0.97831292517E+02  0.77000000000E+02 0.  0.
   -5000001    1    1    2    0    0  0.77327196255E+01 -0.43949082449E+02 -0.61510646723E+02  0.10818445573E+03  0.77000000000E+02 0.  0.
<mgrwt>
<rscale>  0 0.17891383E+03</rscale>
<asrwt>0</asrwt>
<pdfrwt beam="1">  1        2 0.23704194E-01 0.17891383E+03</pdfrwt>
<pdfrwt beam="2">  1       -2 0.79905363E-02 0.17891383E+03</pdfrwt>
<totfact> 0.20627832E+04</totfact>
</mgrwt>
</event>
<event>
 4    1  0.6122885E-004  0.2643055E+03  0.7818608E-02  0.1104584E+00
          2   -1    0    0  501    0  0.00000000000E+00  0.00000000000E+00  0.70682319039E+03  0.70682319040E+03  0.25500000000E-02 0.  1.
         -2   -1    0    0    0  501 -0.00000000000E+00 -0.00000000000E+00 -0.24708223825E+02  0.24708223957E+02  0.25500000000E-02 0. -1.
    5000001    1    1    2    0    0 -0.94330301572E+02 -0.19085351713E+02  0.20910548896E+03  0.24272734077E+03  0.77000000000E+02 0.  0.
   -5000001    1    1    2    0    0  0.94330301572E+02  0.19085351713E+02  0.47300947761E+03  0.48880407359E+03  0.77000000000E+02 0.  0.
<mgrwt>
<rscale>  0 0.26430547E+03</rscale>
<asrwt>0</asrwt>
<pdfrwt beam="1">  1        2 0.10874204E+00 0.26430547E+03</pdfrwt>
<pdfrwt beam="2">  1       -2 0.38012649E-02 0.26430547E+03</pdfrwt>
<totfact> 0.12226861E+04</totfact>
</mgrwt>
</event>
<event>
 4    1  0.6122885E-004  0.2395624E+03  0.7818608E-02  0.1120085E+00
          2   -1    0    0  501    0  0.00000000000E+00  0.00000000000E+00  0.89306396557E+03  0.89306396558E+03  0.25500000000E-02 0.  1.
         -2   -1    0    0    0  501 -0.00000000000E+00 -0.00000000000E+00 -0.16065515839E+02  0.16065516041E+02  0.25500000000E-02 0. -1.
    5000001    1    1    2    0    0  0.81242130882E+02  0.38754073906E+02  0.37099893071E+03  0.38945008494E+03  0.77000000000E+02 0.  0.
   -5000001    1    1    2    0    0 -0.81242130882E+02 -0.38754073906E+02  0.50599951903E+03  0.51967939668E+03  0.77000000000E+02 0.  0.
<mgrwt>
<rscale>  0 0.23956238E+03</rscale>
<asrwt>0</asrwt>
<pdfrwt beam="1">  1        2 0.13739452E+00 0.23956238E+03</pdfrwt>
<pdfrwt beam="2">  1       -2 0.24716166E-02 0.23956238E+03</pdfrwt>
<totfact> 0.17166830E+04</totfact>
</mgrwt>
</event>
<event>
 4    1  0.6122885E-004  0.2815874E+03  0.7818608E-02  0.1094825E+00
         -2   -1    0    0    0  501 -0.00000000000E+00  0.00000000000E+00  0.20751142756E+02  0.20751142913E+02  0.25500000000E-02 0. -1.
          2   -1    0    0  501    0  0.00000000000E+00 -0.00000000000E+00 -0.95526631798E+03  0.95526631798E+03  0.25500000000E-02 0.  1.
    5000001    1    1    2    0    0 -0.17373338442E+02  0.11121310176E+03 -0.58850666521E+03  0.60410204592E+03  0.77000000000E+02 0.  0.
   -5000001    1    1    2    0    0  0.17373338442E+02 -0.11121310176E+03 -0.34600851002E+03  0.37191541497E+03  0.77000000000E+02 0.  0.
<mgrwt>
<rscale>  0 0.28158741E+03</rscale>
<asrwt>0</asrwt>
<pdfrwt beam="1">  1        2 0.14696402E+00 0.28158741E+03</pdfrwt>
<pdfrwt beam="2">  1       -2 0.31924842E-02 0.28158741E+03</pdfrwt>
<totfact> 0.10787784E+04</totfact>
</mgrwt>
</event>
<event>
 4    1  0.6122885E-004  0.2281795E+03  0.7818608E-02  0.1127928E+00
          2   -1    0    0  501    0  0.00000000000E+00  0.00000000000E+00  0.22975424565E+04  0.22975424565E+04  0.25500000000E-02 0.  1.
         -2   -1    0    0    0  501 -0.00000000000E+00 -0.00000000000E+00 -0.56653859332E+01  0.56653865071E+01  0.25500000000E-02 0. -1.
    5000001    1    1    2    0    0 -0.35081924505E+02  0.70448919732E+02  0.84418936835E+03  0.85133922814E+03  0.77000000000E+02 0.  0.
   -5000001    1    1    2    0    0  0.35081924505E+02 -0.70448919732E+02  0.14476877022E+04  0.14518686149E+04  0.77000000000E+02 0.  0.
<mgrwt>
<rscale>  0 0.22817945E+03</rscale>
<asrwt>0</asrwt>
<pdfrwt beam="1">  1        2 0.35346819E+00 0.22817945E+03</pdfrwt>
<pdfrwt beam="2">  1       -2 0.87159758E-03 0.22817945E+03</pdfrwt>
<totfact> 0.13393597E+04</totfact>
</mgrwt>
</event>
<event>
 4    1  0.6122885E-004  0.1824328E+03  0.7818608E-02  0.1165469E+00
          2   -1    0    0  501    0  0.00000000000E+00  0.00000000000E+00  0.16388173849E+04  0.16388173849E+04  0.25500000000E-02 0.  1.
         -2   -1    0    0    0  501 -0.00000000000E+00 -0.00000000000E+00 -0.50770926569E+01  0.50770932973E+01  0.25500000000E-02 0. -1.
    5000001    1    1    2    0    0  0.39831655788E+02  0.17968307090E+02  0.10147027848E+04  0.10185578836E+04  0.77000000000E+02 0.  0.
   -5000001    1    1    2    0    0 -0.39831655788E+02 -0.17968307090E+02  0.61903750746E+03  0.62533659457E+03  0.77000000000E+02 0.  0.
<mgrwt>
<rscale>  0 0.18243276E+03</rscale>
<asrwt>0</asrwt>
<pdfrwt beam="1">  1        2 0.25212574E+00 0.18243276E+03</pdfrwt>
<pdfrwt beam="2">  1       -2 0.78109127E-03 0.18243276E+03</pdfrwt>
<totfact> 0.34317764E+04</totfact>
</mgrwt>
</event>
<event>
 4    1  0.6122885E-004  0.1752567E+03  0.7818608E-02  0.1172474E+00
          2   -1    0    0  501    0  0.00000000000E+00  0.00000000000E+00  0.93755282522E+02  0.93755282557E+02  0.25500000000E-02 0.  1.
         -2   -1    0    0    0  501 -0.00000000000E+00 -0.00000000000E+00 -0.81901778846E+02  0.81901778886E+02  0.25500000000E-02 0. -1.
    5000001    1    1    2    0    0  0.40422620418E+02  0.66061015710E+01 -0.25835597783E+01  0.87254246891E+02  0.77000000000E+02 0.  0.
   -5000001    1    1    2    0    0 -0.40422620418E+02 -0.66061015710E+01  0.14437063455E+02  0.88402814552E+02  0.77000000000E+02 0.  0.
<mgrwt>
<rscale>  0 0.17525666E+03</rscale>
<asrwt>0</asrwt>
<pdfrwt beam="1">  1        2 0.14423890E-01 0.17525666E+03</pdfrwt>
<pdfrwt beam="2">  1       -2 0.12600274E-01 0.17525666E+03</pdfrwt>
<totfact> 0.17736036E+04</totfact>
</mgrwt>
</event>
<event>
 4    1  0.6122885E-004  0.1756536E+03  0.7818608E-02  0.1172077E+00
         -2   -1    0    0    0  501 -0.00000000000E+00  0.00000000000E+00  0.16170700918E+02  0.16170701119E+02  0.25500000000E-02 0. -1.
          2   -1    0    0  501    0  0.00000000000E+00 -0.00000000000E+00 -0.47700783335E+03  0.47700783335E+03  0.25500000000E-02 0.  1.
    5000001    1    1    2    0    0  0.22568872074E+02 -0.11713984984E+02 -0.13570455394E+03  0.15808636054E+03  0.77000000000E+02 0.  0.
   -5000001    1    1    2    0    0 -0.22568872074E+02  0.11713984984E+02 -0.32513257849E+03  0.33509217393E+03  0.77000000000E+02 0.  0.
<mgrwt>
<rscale>  0 0.17565365E+03</rscale>
<asrwt>0</asrwt>
<pdfrwt beam="1">  1        2 0.73385810E-01 0.17565365E+03</pdfrwt>
<pdfrwt beam="2">  1       -2 0.24878005E-02 0.17565365E+03</pdfrwt>
<totfact> 0.35098910E+04</totfact>
</mgrwt>
</event>
<event>
 4    1  0.6122885E-004  0.1989742E+03  0.7818608E-02  0.1150607E+00
          2   -1    0    0  501    0  0.00000000000E+00  0.00000000000E+00  0.23775640900E+04  0.23775640900E+04  0.25500000000E-02 0.  1.
         -2   -1    0    0    0  501 -0.00000000000E+00 -0.00000000000E+00 -0.41629526467E+01  0.41629534277E+01  0.25500000000E-02 0. -1.
    5000001    1    1    2    0    0 -0.31927812110E+02 -0.48113494379E+02  0.88520932980E+03  0.89042621878E+03  0.77000000000E+02 0.  0.
   -5000001    1    1    2    0    0  0.31927812110E+02  0.48113494379E+02  0.14881918075E+04  0.14913008246E+04  0.77000000000E+02 0.  0.
<mgrwt>
<rscale>  0 0.19897425E+03</rscale>
<asrwt>0</asrwt>
<pdfrwt beam="1">  1        2 0.36577952E+00 0.19897425E+03</pdfrwt>
<pdfrwt beam="2">  1       -2 0.64045356E-03 0.19897425E+03</pdfrwt>
<totfact> 0.18846966E+04</totfact>
</mgrwt>
</event>
<event>
 4    1  0.6122885E-004  0.1938665E+03  0.7818608E-02  0.1155020E+00
         -2   -1    0    0    0  501 -0.00000000000E+00  0.00000000000E+00  0.39124881252E+02  0.39124881335E+02  0.25500000000E-02 0. -1.
          2   -1    0    0  501    0  0.00000000000E+00 -0.00000000000E+00 -0.24015542533E+03  0.24015542535E+03  0.25500000000E-02 0.  1.
    5000001    1    1    2    0    0 -0.33503225439E+02  0.42384663305E+02 -0.66788243232E+02  0.11536288499E+03  0.77000000000E+02 0.  0.
   -5000001    1    1    2    0    0  0.33503225439E+02 -0.42384663305E+02 -0.13424230085E+03  0.16391742170E+03  0.77000000000E+02 0.  0.
<mgrwt>
<rscale>  0 0.19386647E+03</rscale>
<asrwt>0</asrwt>
<pdfrwt beam="1">  1        2 0.36946987E-01 0.19386647E+03</pdfrwt>
<pdfrwt beam="2">  1       -2 0.60192127E-02 0.19386647E+03</pdfrwt>
<totfact> 0.19764346E+04</totfact>
</mgrwt>
</event>
<event>
 4    1  0.6122885E-004  0.3549614E+03  0.7818608E-02  0.1060597E+00
         -2   -1    0    0    0  501 -0.00000000000E+00  0.00000000000E+00  0.67770446202E+02  0.67770446250E+02  0.25500000000E-02 0. -1.
          2   -1    0    0  501    0  0.00000000000E+00 -0.00000000000E+00 -0.46479548018E+03  0.46479548019E+03  0.25500000000E-02 0.  1.
    5000001    1    1    2    0    0 -0.15889514811E+03  0.16942212115E+02 -0.18954920939E+03  0.25960086561E+03  0.77000000000E+02 0.  0.
   -5000001    1    1    2    0    0  0.15889514811E+03 -0.16942212115E+02 -0.20747582459E+03  0.27296506083E+03  0.77000000000E+02 0.  0.
<mgrwt>
<rscale>  0 0.35496139E+03</rscale>
<asrwt>0</asrwt>
<pdfrwt beam="1">  1        2 0.71506995E-01 0.35496139E+03</pdfrwt>
<pdfrwt beam="2">  1       -2 0.10426223E-01 0.35496139E+03</pdfrwt>
<totfact> 0.42109517E+03</totfact>
</mgrwt>
</event>
<event>
 4    1  0.6122885E-004  0.2372957E+03  0.7818608E-02  0.1121608E+00
          2   -1    0    0  501    0  0.00000000000E+00  0.00000000000E+00  0.39108172843E+03  0.39108172844E+03  0.25500000000E-02 0.  1.
         -2   -1    0    0    0  501 -0.00000000000E+00 -0.00000000000E+00 -0.35995823346E+02  0.35995823436E+02  0.25500000000E-02 0. -1.
    5000001    1    1    2    0    0  0.58957631887E+02 -0.68176799165E+02  0.18640223156E+03  0.22090466322E+03  0.77000000000E+02 0.  0.
   -5000001    1    1    2    0    0 -0.58957631887E+02  0.68176799165E+02  0.16868367353E+03  0.20617288865E+03  0.77000000000E+02 0.  0.
<mgrwt>
<rscale>  0 0.23729567E+03</rscale>
<asrwt>0</asrwt>
<pdfrwt beam="1">  1        2 0.60166416E-01 0.23729567E+03</pdfrwt>
<pdfrwt beam="2">  1       -2 0.55378193E-02 0.23729567E+03</pdfrwt>
<totfact> 0.13474637E+04</totfact>
</mgrwt>
</event>
<event>
 4    1  0.6122885E-004  0.2491013E+03  0.7818608E-02  0.1113874E+00
          2   -1    0    0  501    0  0.00000000000E+00  0.00000000000E+00  0.41867756389E+03  0.41867756389E+03  0.25500000000E-02 0.  1.
         -2   -1    0    0    0  501 -0.00000000000E+00 -0.00000000000E+00 -0.37052059657E+02  0.37052059744E+02  0.25500000000E-02 0. -1.
    5000001    1    1    2    0    0 -0.88031651352E+02 -0.24237975321E+02  0.25541271269E+03  0.28196046689E+03  0.77000000000E+02 0.  0.
   -5000001    1    1    2    0    0  0.88031651352E+02  0.24237975321E+02  0.12621279154E+03  0.17376915675E+03  0.77000000000E+02 0.  0.
<mgrwt>
<rscale>  0 0.24910131E+03</rscale>
<asrwt>0</asrwt>
<pdfrwt beam="1">  1        2 0.64411935E-01 0.24910131E+03</pdfrwt>
<pdfrwt beam="2">  1       -2 0.57003167E-02 0.24910131E+03</pdfrwt>
<totfact> 0.12002754E+04</totfact>
</mgrwt>
</event>
<event>
 4    1  0.6122885E-004  0.6245591E+03  0.7818608E-02  0.9855724E-01
         -2   -1    0    0    0  501 -0.00000000000E+00  0.00000000000E+00  0.51166490803E+02  0.51166490867E+02  0.25500000000E-02 0. -1.
          2   -1    0    0  501    0  0.00000000000E+00 -0.00000000000E+00 -0.19059057533E+04  0.19059057533E+04  0.25500000000E-02 0.  1.
    5000001    1    1    2    0    0  0.25165523770E+03 -0.12311022815E+03 -0.56867979100E+03  0.63860174728E+03  0.77000000000E+02 0.  0.
   -5000001    1    1    2    0    0 -0.25165523770E+03  0.12311022815E+03 -0.12860594715E+04  0.13184704969E+04  0.77000000000E+02 0.  0.
<mgrwt>
<rscale>  0 0.62455907E+03</rscale>
<asrwt>0</asrwt>
<pdfrwt beam="1">  1        2 0.29321621E+00 0.62455907E+03</pdfrwt>
<pdfrwt beam="2">  1       -2 0.78717693E-02 0.62455907E+03</pdfrwt>
<totfact> 0.78305601E+02</totfact>
</mgrwt>
</event>
<event>
 4    1  0.6122885E-004  0.2344006E+03  0.7818608E-02  0.1123580E+00
          2   -1    0    0  501    0  0.00000000000E+00  0.00000000000E+00  0.15703393041E+04  0.15703393041E+04  0.25500000000E-02 0.  1.
         -2   -1    0    0    0  501 -0.00000000000E+00 -0.00000000000E+00 -0.87470931684E+01  0.87470935401E+01  0.25500000000E-02 0. -1.
    5000001    1    1    2    0    0  0.40988722283E+02 -0.77059233127E+02  0.68825439818E+03  0.69802673114E+03  0.77000000000E+02 0.  0.
   -5000001    1    1    2    0    0 -0.40988722283E+02  0.77059233127E+02  0.87333781273E+03  0.88105966649E+03  0.77000000000E+02 0.  0.
<mgrwt>
<rscale>  0 0.23440055E+03</rscale>
<asrwt>0</asrwt>
<pdfrwt beam="1">  1        2 0.24159038E+00 0.23440055E+03</pdfrwt>
<pdfrwt beam="2">  1       -2 0.13457082E-02 0.23440055E+03</pdfrwt>
<totfact> 0.17200135E+04</totfact>
</mgrwt>
</event>
<event>
 4    1  0.6122885E-004  0.2458535E+03  0.7818608E-02  0.1115954E+00
         -2   -1    0    0    0  501 -0.00000000000E+00  0.00000000000E+00  0.21235977813E+03  0.21235977814E+03  0.25500000000E-02 0. -1.
          2   -1    0    0  501    0  0.00000000000E+00 -0.00000000000E+00 -0.71157450628E+02  0.71157450674E+02  0.25500000000E-02 0.  1.
    5000001    1    1    2    0    0  0.92307401259E+02 -0.25707407117E+02  0.71377606575E+02  0.14214531237E+03  0.77000000000E+02 0.  0.
   -5000001    1    1    2    0    0 -0.92307401259E+02  0.25707407117E+02  0.69824720923E+02  0.14137191645E+03  0.77000000000E+02 0.  0.
<mgrwt>
<rscale>  0 0.24585346E+03</rscale>
<asrwt>0</asrwt>
<pdfrwt beam="1">  1        2 0.10947300E-01 0.24585346E+03</pdfrwt>
<pdfrwt beam="2">  1       -2 0.32670735E-01 0.24585346E+03</pdfrwt>
<totfact> 0.49392656E+03</totfact>
</mgrwt>
</event>
<event>
 4    1  0.6122885E-004  0.2110426E+03  0.7818608E-02  0.1140743E+00
          2   -1    0    0  501    0  0.00000000000E+00  0.00000000000E+00  0.14640028049E+04  0.14640028049E+04  0.25500000000E-02 0.  1.
         -2   -1    0    0    0  501 -0.00000000000E+00 -0.00000000000E+00 -0.76056856051E+01  0.76056860326E+01  0.25500000000E-02 0. -1.
    5000001    1    1    2    0    0 -0.68995746315E+02 -0.18357759676E+02  0.80077347609E+03  0.80762898683E+03  0.77000000000E+02 0.  0.
   -5000001    1    1    2    0    0  0.68995746315E+02  0.18357759676E+02  0.65562364322E+03  0.66397950413E+03  0.77000000000E+02 0.  0.
<mgrwt>
<rscale>  0 0.21104261E+03</rscale>
<asrwt>0</asrwt>
<pdfrwt beam="1">  1        2 0.22523112E+00 0.21104261E+03</pdfrwt>
<pdfrwt beam="2">  1       -2 0.11701059E-02 0.21104261E+03</pdfrwt>
<totfact> 0.23882683E+04</totfact>
</mgrwt>
</event>
<event>
 4    1  0.6122885E-004  0.8233325E+03  0.7818608E-02  0.9526845E-01
         -2   -1    0    0    0  501 -0.00000000000E+00  0.00000000000E+00  0.15545545354E+03  0.15545545356E+03  0.25500000000E-02 0.  1.
          2   -1    0    0  501    0  0.00000000000E+00 -0.00000000000E+00 -0.10901457957E+04  0.10901457957E+04  0.25500000000E-02 0. -1.
    5000001    1    1    2    0    0  0.40927948842E+02 -0.36062384704E+03 -0.19749492258E+03  0.42030691226E+03  0.77000000000E+02 0.  0.
   -5000001    1    1    2    0    0 -0.40927948842E+02  0.36062384704E+03 -0.73719541961E+03  0.82529433704E+03  0.77000000000E+02 0.  0.
<mgrwt>
<rscale>  0 0.82333252E+03</rscale>
<asrwt>0</asrwt>
<pdfrwt beam="1">  1        2 0.16771473E+00 0.82333252E+03</pdfrwt>
<pdfrwt beam="2">  1       -2 0.23916224E-01 0.82333252E+03</pdfrwt>
<totfact> 0.34458013E+02</totfact>
</mgrwt>
</event>
<event>
 4    1  0.6122885E-004  0.2620655E+03  0.7818608E-02  0.1105909E+00
          2   -1    0    0  501    0  0.00000000000E+00  0.00000000000E+00  0.38142278701E+03  0.38142278702E+03  0.25500000000E-02 0.  1.
         -2   -1    0    0    0  501 -0.00000000000E+00 -0.00000000000E+00 -0.45014572364E+02  0.45014572436E+02  0.25500000000E-02 0. -1.
    5000001    1    1    2    0    0  0.62819647413E+01  0.10554810025E+03  0.15552443323E+03  0.20321592920E+03  0.77000000000E+02 0.  0.
   -5000001    1    1    2    0    0 -0.62819647413E+01 -0.10554810025E+03  0.18088378141E+03  0.22322143026E+03  0.77000000000E+02 0.  0.
<mgrwt>
<rscale>  0 0.26206552E+03</rscale>
<asrwt>0</asrwt>
<pdfrwt beam="1">  1        2 0.58680430E-01 0.26206552E+03</pdfrwt>
<pdfrwt beam="2">  1       -2 0.69253186E-02 0.26206552E+03</pdfrwt>
<totfact> 0.98695550E+03</totfact>
</mgrwt>
</event>
<event>
 4    1  0.6122885E-004  0.3248942E+03  0.7818608E-02  0.1073419E+00
         -2   -1    0    0    0  501 -0.00000000000E+00  0.00000000000E+00  0.10970080933E+03  0.10970080936E+03  0.25500000000E-02 0. -1.
          2   -1    0    0  501    0  0.00000000000E+00 -0.00000000000E+00 -0.24055477708E+03  0.24055477709E+03  0.25500000000E-02 0.  1.
    5000001    1    1    2    0    0  0.57236998187E+02  0.12576807977E+03 -0.10527689048E+03  0.19001554547E+03  0.77000000000E+02 0.  0.
   -5000001    1    1    2    0    0 -0.57236998187E+02 -0.12576807977E+03 -0.25577077268E+02  0.16024004098E+03  0.77000000000E+02 0.  0.
<mgrwt>
<rscale>  0 0.32489416E+03</rscale>
<asrwt>0</asrwt>
<pdfrwt beam="1">  1        2 0.37008427E-01 0.32489416E+03</pdfrwt>
<pdfrwt beam="2">  1       -2 0.16877048E-01 0.32489416E+03</pdfrwt>
<totfact> 0.39116671E+03</totfact>
</mgrwt>
</event>
<event>
 4    1  0.6122885E-004  0.2412754E+03  0.7818608E-02  0.1118946E+00
          2   -1    0    0  501    0  0.00000000000E+00  0.00000000000E+00  0.28973129204E+03  0.28973129206E+03  0.25500000000E-02 0.  1.
         -2   -1    0    0    0  501 -0.00000000000E+00 -0.00000000000E+00 -0.50230885710E+02  0.50230885775E+02  0.25500000000E-02 0. -1.
    5000001    1    1    2    0    0  0.82647721194E+01 -0.69339283342E+02  0.20601425164E+03  0.23075336304E+03  0.77000000000E+02 0.  0.
   -5000001    1    1    2    0    0 -0.82647721194E+01  0.69339283342E+02  0.33486154691E+02  0.10920881479E+03  0.77000000000E+02 0.  0.
<mgrwt>
<rscale>  0 0.24127544E+03</rscale>
<asrwt>0</asrwt>
<pdfrwt beam="1">  1        2 0.44574045E-01 0.24127544E+03</pdfrwt>
<pdfrwt beam="2">  1       -2 0.77278285E-02 0.24127544E+03</pdfrwt>
<totfact> 0.11149756E+04</totfact>
</mgrwt>
</event>
<event>
 4    1  0.6122885E-004  0.2021408E+03  0.7818608E-02  0.1147945E+00
          2   -1    0    0  501    0  0.00000000000E+00  0.00000000000E+00  0.39542453614E+03  0.39542453615E+03  0.25500000000E-02 0.  1.
         -2   -1    0    0    0  501 -0.00000000000E+00 -0.00000000000E+00 -0.25833578083E+02  0.25833578209E+02  0.25500000000E-02 0. -1.
    5000001    1    1    2    0    0  0.96218410369E+01  0.60828307955E+02  0.23109405122E+03  0.25124912613E+03  0.77000000000E+02 0.  0.
   -5000001    1    1    2    0    0 -0.96218410369E+01 -0.60828307955E+02  0.13849690684E+03  0.17000898822E+03  0.77000000000E+02 0.  0.
<mgrwt>
<rscale>  0 0.20214085E+03</rscale>
<asrwt>0</asrwt>
<pdfrwt beam="1">  1        2 0.60834545E-01 0.20214085E+03</pdfrwt>
<pdfrwt beam="2">  1       -2 0.39743966E-02 0.20214085E+03</pdfrwt>
<totfact> 0.21747590E+04</totfact>
</mgrwt>
</event>
<event>
 4    1  0.6122885E-004  0.1705102E+03  0.7818608E-02  0.1177317E+00
          2   -1    0    0  501    0  0.00000000000E+00  0.00000000000E+00  0.12360967664E+04  0.12360967664E+04  0.25500000000E-02 0. -1.
         -2   -1    0    0    0  501 -0.00000000000E+00 -0.00000000000E+00 -0.58801445659E+01  0.58801451188E+01  0.25500000000E-02 0.  1.
    5000001    1    1    2    0    0 -0.27291923806E+02 -0.10025982594E+01  0.43764825584E+03  0.44520877142E+03  0.77000000000E+02 0.  0.
   -5000001    1    1    2    0    0  0.27291923806E+02  0.10025982594E+01  0.79256836599E+03  0.79676814010E+03  0.77000000000E+02 0.  0.
<mgrwt>
<rscale>  0 0.17051015E+03</rscale>
<asrwt>0</asrwt>
<pdfrwt beam="1">  1        2 0.19016895E+00 0.17051015E+03</pdfrwt>
<pdfrwt beam="2">  1       -2 0.90463663E-03 0.17051015E+03</pdfrwt>
<totfact> 0.45356224E+04</totfact>
</mgrwt>
</event>
<event>
 4    1  0.6122885E-004  0.2279670E+03  0.7818608E-02  0.1128079E+00
         -2   -1    0    0    0  501 -0.00000000000E+00  0.00000000000E+00  0.18312564155E+03  0.18312564157E+03  0.25500000000E-02 0. -1.
          2   -1    0    0  501    0  0.00000000000E+00 -0.00000000000E+00 -0.70947107043E+02  0.70947107089E+02  0.25500000000E-02 0.  1.
    5000001    1    1    2    0    0 -0.59211887546E+02  0.49279587852E+02  0.93532831069E+02  0.14356850592E+03  0.77000000000E+02 0.  0.
   -5000001    1    1    2    0    0  0.59211887546E+02 -0.49279587852E+02  0.18645703440E+02  0.11050424273E+03  0.77000000000E+02 0.  0.
<mgrwt>
<rscale>  0 0.22796697E+03</rscale>
<asrwt>0</asrwt>
<pdfrwt beam="1">  1        2 0.10914940E-01 0.22796697E+03</pdfrwt>
<pdfrwt beam="2">  1       -2 0.28173175E-01 0.22796697E+03</pdfrwt>
<totfact> 0.64646374E+03</totfact>
</mgrwt>
</event>
<event>
 4    1  0.6122885E-004  0.1907820E+03  0.7818608E-02  0.1157758E+00
          2   -1    0    0  501    0  0.00000000000E+00  0.00000000000E+00  0.34189757020E+04  0.34189757021E+04  0.25500000000E-02 0.  1.
         -2   -1    0    0    0  501 -0.00000000000E+00 -0.00000000000E+00 -0.26614509445E+01  0.26614521661E+01  0.25500000000E-02 0. -1.
    5000001    1    1    2    0    0 -0.52622956509E+02 -0.15232622082E+02  0.19414681096E+04  0.19437666086E+04  0.77000000000E+02 0.  0.
   -5000001    1    1    2    0    0  0.52622956509E+02  0.15232622082E+02  0.14748461415E+04  0.14778705456E+04  0.77000000000E+02 0.  0.
<mgrwt>
<rscale>  0 0.19078195E+03</rscale>
<asrwt>0</asrwt>
<pdfrwt beam="1">  1        2 0.52599639E+00 0.19078195E+03</pdfrwt>
<pdfrwt beam="2">  1       -2 0.40945398E-03 0.19078195E+03</pdfrwt>
<totfact> 0.88939242E+03</totfact>
</mgrwt>
</event>
<event>
 4    1  0.6122885E-004  0.2827994E+03  0.7818608E-02  0.1094170E+00
          2   -1    0    0  501    0  0.00000000000E+00  0.00000000000E+00  0.21176776922E+03  0.21176776924E+03  0.25500000000E-02 0. -1.
         -2   -1    0    0    0  501 -0.00000000000E+00 -0.00000000000E+00 -0.94414158679E+02  0.94414158714E+02  0.25500000000E-02 0.  1.
    5000001    1    1    2    0    0  0.60136967935E+02 -0.11049087025E+02 -0.51343853842E+02  0.11092217345E+03  0.77000000000E+02 0.  0.
   -5000001    1    1    2    0    0 -0.60136967935E+02  0.11049087025E+02  0.16869746439E+03  0.19525975450E+03  0.77000000000E+02 0.  0.
<mgrwt>
<rscale>  0 0.28279940E+03</rscale>
<asrwt>0</asrwt>
<pdfrwt beam="1">  1        2 0.32579657E-01 0.28279940E+03</pdfrwt>
<pdfrwt beam="2">  1       -2 0.14525255E-01 0.28279940E+03</pdfrwt>
<totfact> 0.57467296E+03</totfact>
</mgrwt>
</event>
<event>
 4    1  0.6122885E-004  0.1986831E+03  0.7818608E-02  0.1150855E+00
         -2   -1    0    0    0  501 -0.00000000000E+00  0.00000000000E+00  0.34652440002E+02  0.34652440096E+02  0.25500000000E-02 0. -1.
          2   -1    0    0  501    0  0.00000000000E+00 -0.00000000000E+00 -0.28479213856E+03  0.28479213857E+03  0.25500000000E-02 0.  1.
    5000001    1    1    2    0    0 -0.47842415032E+02 -0.38420555311E+02 -0.10381835472E+03  0.14308139824E+03  0.77000000000E+02 0.  0.
   -5000001    1    1    2    0    0  0.47842415032E+02  0.38420555311E+02 -0.14632134384E+03  0.17636318042E+03  0.77000000000E+02 0.  0.
<mgrwt>
<rscale>  0 0.19868309E+03</rscale>
<asrwt>0</asrwt>
<pdfrwt beam="1">  1        2 0.43814174E-01 0.19868309E+03</pdfrwt>
<pdfrwt beam="2">  1       -2 0.53311448E-02 0.19868309E+03</pdfrwt>
<totfact> 0.19839173E+04</totfact>
</mgrwt>
</event>
<event>
 4    1  0.6122885E-004  0.4362685E+03  0.7818608E-02  0.1031898E+00
          2   -1    0    0  501    0  0.00000000000E+00  0.00000000000E+00  0.19970440081E+03  0.19970440083E+03  0.25500000000E-02 0.  1.
         -2   -1    0    0    0  501 -0.00000000000E+00 -0.00000000000E+00 -0.23826495119E+03  0.23826495121E+03  0.25500000000E-02 0. -1.
    5000001    1    1    2    0    0  0.38307335425E+02  0.16149877363E+03  0.99944051540E+02  0.20848769573E+03  0.77000000000E+02 0.  0.
   -5000001    1    1    2    0    0 -0.38307335425E+02 -0.16149877363E+03 -0.13850460192E+03  0.22948165631E+03  0.77000000000E+02 0.  0.
<mgrwt>
<rscale>  0 0.43626854E+03</rscale>
<asrwt>0</asrwt>
<pdfrwt beam="1">  1        2 0.30723754E-01 0.43626854E+03</pdfrwt>
<pdfrwt beam="2">  1       -2 0.36656146E-01 0.43626854E+03</pdfrwt>
<totfact> 0.12111923E+03</totfact>
</mgrwt>
</event>
<event>
 4    1  0.6122885E-004  0.7984381E+03  0.7818608E-02  0.9562281E-01
         -2   -1    0    0    0  501 -0.00000000000E+00  0.00000000000E+00  0.10405846029E+03  0.10405846032E+03  0.25500000000E-02 0. -1.
          2   -1    0    0  501    0  0.00000000000E+00 -0.00000000000E+00 -0.15315992141E+04  0.15315992141E+04  0.25500000000E-02 0.  1.
    5000001    1    1    2    0    0  0.28867003543E+03  0.58456890962E+02 -0.18470217788E+03  0.35607792963E+03  0.77000000000E+02 0.  0.
   -5000001    1    1    2    0    0 -0.28867003543E+03 -0.58456890962E+02 -0.12428385759E+04  0.12795797448E+04  0.77000000000E+02 0.  0.
<mgrwt>
<rscale>  0 0.79843812E+03</rscale>
<asrwt>0</asrwt>
<pdfrwt beam="1">  1        2 0.23563063E+00 0.79843812E+03</pdfrwt>
<pdfrwt beam="2">  1       -2 0.16008995E-01 0.79843812E+03</pdfrwt>
<totfact> 0.38607985E+02</totfact>
</mgrwt>
</event>
<event>
 4    1  0.6122885E-004  0.4356135E+03  0.7818608E-02  0.1032101E+00
         -2   -1    0    0    0  501 -0.00000000000E+00  0.00000000000E+00  0.17532898470E+02  0.17532898655E+02  0.25500000000E-02 0. -1.
          2   -1    0    0  501    0  0.00000000000E+00 -0.00000000000E+00 -0.27057586084E+04  0.27057586084E+04  0.25500000000E-02 0.  1.
    5000001    1    1    2    0    0 -0.20167280847E+03  0.18767397624E+02 -0.12062005401E+04  0.12255092329E+04  0.77000000000E+02 0.  0.
   -5000001    1    1    2    0    0  0.20167280847E+03 -0.18767397624E+02 -0.14820251699E+04  0.14977822742E+04  0.77000000000E+02 0.  0.
<mgrwt>
<rscale>  0 0.43561355E+03</rscale>
<asrwt>0</asrwt>
<pdfrwt beam="1">  1        2 0.41627022E+00 0.43561355E+03</pdfrwt>
<pdfrwt beam="2">  1       -2 0.26973712E-02 0.43561355E+03</pdfrwt>
<totfact> 0.15017604E+03</totfact>
</mgrwt>
</event>
<event>
 4    1  0.6122885E-004  0.2720174E+03  0.7818608E-02  0.1100131E+00
          2   -1    0    0  501    0  0.00000000000E+00  0.00000000000E+00  0.24567381831E+04  0.24567381831E+04  0.25500000000E-02 0.  1.
         -2   -1    0    0    0  501 -0.00000000000E+00 -0.00000000000E+00 -0.75296448432E+01  0.75296452750E+01  0.25500000000E-02 0. -1.
    5000001    1    1    2    0    0 -0.14120043897E+01  0.97093172857E+02  0.71694069909E+03  0.72757270701E+03  0.77000000000E+02 0.  0.
   -5000001    1    1    2    0    0  0.14120043897E+01 -0.97093172857E+02  0.17322678392E+04  0.17366951214E+04  0.77000000000E+02 0.  0.
<mgrwt>
<rscale>  0 0.27201740E+03</rscale>
<asrwt>0</asrwt>
<pdfrwt beam="1">  1        2 0.37795904E+00 0.27201740E+03</pdfrwt>
<pdfrwt beam="2">  1       -2 0.11584090E-02 0.27201740E+03</pdfrwt>
<totfact> 0.72896271E+03</totfact>
</mgrwt>
</event>
<event>
 4    1  0.6122885E-004  0.2493811E+03  0.7818608E-02  0.1113697E+00
         -2   -1    0    0    0  501 -0.00000000000E+00  0.00000000000E+00  0.63609676200E+02  0.63609676251E+02  0.25500000000E-02 0. -1.
          2   -1    0    0  501    0  0.00000000000E+00 -0.00000000000E+00 -0.24442398531E+03  0.24442398532E+03  0.25500000000E-02 0.  1.
    5000001    1    1    2    0    0  0.79431072538E+01 -0.88996652143E+02 -0.14035589841E+03  0.18333650827E+03  0.77000000000E+02 0.  0.
   -5000001    1    1    2    0    0 -0.79431072538E+01  0.88996652143E+02 -0.40458410693E+02  0.12469715330E+03  0.77000000000E+02 0.  0.
<mgrwt>
<rscale>  0 0.24938108E+03</rscale>
<asrwt>0</asrwt>
<pdfrwt beam="1">  1        2 0.37603689E-01 0.24938108E+03</pdfrwt>
<pdfrwt beam="2">  1       -2 0.97861042E-02 0.24938108E+03</pdfrwt>
<totfact> 0.92563100E+03</totfact>
</mgrwt>
</event>
<event>
 4    1  0.6122885E-004  0.2642860E+03  0.7818608E-02  0.1104595E+00
          2   -1    0    0  501    0  0.00000000000E+00  0.00000000000E+00  0.21892311576E+04  0.21892311576E+04  0.25500000000E-02 0.  1.
         -2   -1    0    0    0  501 -0.00000000000E+00 -0.00000000000E+00 -0.79762114674E+01  0.79762118750E+01  0.25500000000E-02 0. -1.
    5000001    1    1    2    0    0 -0.31444402789E+02 -0.72353121398E+02  0.48486108925E+03  0.49723535726E+03  0.77000000000E+02 0.  0.
   -5000001    1    1    2    0    0  0.31444402789E+02  0.72353121398E+02  0.16963938569E+04  0.16999720122E+04  0.77000000000E+02 0.  0.
<mgrwt>
<rscale>  0 0.26428599E+03</rscale>
<asrwt>0</asrwt>
<pdfrwt beam="1">  1        2 0.33680448E+00 0.26428599E+03</pdfrwt>
<pdfrwt beam="2">  1       -2 0.12271106E-02 0.26428599E+03</pdfrwt>
<totfact> 0.93321410E+03</totfact>
</mgrwt>
</event>
<event>
 4    1  0.6122885E-004  0.2754294E+03  0.7818608E-02  0.1098212E+00
          2   -1    0    0  501    0  0.00000000000E+00  0.00000000000E+00  0.12303942227E+02  0.12303942491E+02  0.25500000000E-02 0.  1.
         -2   -1    0    0    0  501 -0.00000000000E+00 -0.00000000000E+00 -0.15414030753E+04  0.15414030753E+04  0.25500000000E-02 0. -1.
    5000001    1    1    2    0    0 -0.45753587447E+02  0.71493872880E+02 -0.11953256889E+04  0.12008069233E+04  0.77000000000E+02 0.  0.
   -5000001    1    1    2    0    0  0.45753587447E+02 -0.71493872880E+02 -0.33377344421E+03  0.35290009448E+03  0.77000000000E+02 0.  0.
<mgrwt>
<rscale>  0 0.27542937E+03</rscale>
<asrwt>0</asrwt>
<pdfrwt beam="1">  1        2 0.18929154E-02 0.27542937E+03</pdfrwt>
<pdfrwt beam="2">  1       -2 0.23713878E+00 0.27542937E+03</pdfrwt>
<totfact> 0.50519101E+02</totfact>
</mgrwt>
</event>
<event>
 4    1  0.6122885E-004  0.2837279E+03  0.7818608E-02  0.1093670E+00
          2   -1    0    0  501    0  0.00000000000E+00  0.00000000000E+00  0.40563654541E+03  0.40563654541E+03  0.25500000000E-02 0.  1.
         -2   -1    0    0    0  501 -0.00000000000E+00 -0.00000000000E+00 -0.49614303881E+02  0.49614303946E+02  0.25500000000E-02 0. -1.
    5000001    1    1    2    0    0  0.58576330081E+02 -0.98671149454E+02  0.12653602998E+03  0.18737008583E+03  0.77000000000E+02 0.  0.
   -5000001    1    1    2    0    0 -0.58576330081E+02  0.98671149454E+02  0.22948621155E+03  0.26788076353E+03  0.77000000000E+02 0.  0.
<mgrwt>
<rscale>  0 0.28372786E+03</rscale>
<asrwt>0</asrwt>
<pdfrwt beam="1">  1        2 0.62405621E-01 0.28372786E+03</pdfrwt>
<pdfrwt beam="2">  1       -2 0.76329700E-02 0.28372786E+03</pdfrwt>
<totfact> 0.79625793E+03</totfact>
</mgrwt>
</event>
<event>
 4    1  0.6122885E-004  0.1867652E+03  0.7818608E-02  0.1161412E+00
         -2   -1    0    0    0  501 -0.00000000000E+00  0.00000000000E+00  0.82569216351E+01  0.82569220289E+01  0.25500000000E-02 0. -1.
          2   -1    0    0  501    0  0.00000000000E+00 -0.00000000000E+00 -0.10561208353E+04  0.10561208353E+04  0.25500000000E-02 0.  1.
    5000001    1    1    2    0    0  0.84497713549E+01  0.44028265132E+02 -0.68324167910E+03  0.68902690718E+03  0.77000000000E+02 0.  0.
   -5000001    1    1    2    0    0 -0.84497713549E+01 -0.44028265132E+02 -0.36462223457E+03  0.37535085015E+03  0.77000000000E+02 0.  0.
<mgrwt>
<rscale>  0 0.18676517E+03</rscale>
<asrwt>0</asrwt>
<pdfrwt beam="1">  1        2 0.16248002E+00 0.18676517E+03</pdfrwt>
<pdfrwt beam="2">  1       -2 0.12702965E-02 0.18676517E+03</pdfrwt>
<totfact> 0.35467418E+04</totfact>
</mgrwt>
</event>
<event>
 4    1  0.6122885E-004  0.3084818E+03  0.7818608E-02  0.1081076E+00
          2   -1    0    0  501    0  0.00000000000E+00  0.00000000000E+00  0.90600275050E+03  0.90600275050E+03  0.25500000000E-02 0.  1.
         -2   -1    0    0    0  501 -0.00000000000E+00 -0.00000000000E+00 -0.26258485691E+02  0.26258485814E+02  0.25500000000E-02 0. -1.
    5000001    1    1    2    0    0  0.10145507342E+03  0.17663989027E+02  0.69730264365E+03  0.70905932422E+03  0.77000000000E+02 0.  0.
   -5000001    1    1    2    0    0 -0.10145507342E+03 -0.17663989027E+02  0.18244162116E+03  0.22320191210E+03  0.77000000000E+02 0.  0.
<mgrwt>
<rscale>  0 0.30848183E+03</rscale>
<asrwt>0</asrwt>
<pdfrwt beam="1">  1        2 0.13938502E+00 0.30848183E+03</pdfrwt>
<pdfrwt beam="2">  1       -2 0.40397676E-02 0.30848183E+03</pdfrwt>
<totfact> 0.81645549E+03</totfact>
</mgrwt>
</event>
<event>
 4    1  0.6122885E-004  0.2471167E+03  0.7818608E-02  0.1115141E+00
         -2   -1    0    0    0  501 -0.00000000000E+00  0.00000000000E+00  0.20007000555E+02  0.20007000717E+02  0.25500000000E-02 0. -1.
          2   -1    0    0  501    0  0.00000000000E+00 -0.00000000000E+00 -0.76306628247E+03  0.76306628247E+03  0.25500000000E-02 0.  1.
    5000001    1    1    2    0    0 -0.92108395247E+02 -0.12453546603E+02 -0.45528659750E+03  0.47101372927E+03  0.77000000000E+02 0.  0.
   -5000001    1    1    2    0    0  0.92108395247E+02  0.12453546603E+02 -0.28777268441E+03  0.31205955392E+03  0.77000000000E+02 0.  0.
<mgrwt>
<rscale>  0 0.24711671E+03</rscale>
<asrwt>0</asrwt>
<pdfrwt beam="1">  1        2 0.11739479E+00 0.24711671E+03</pdfrwt>
<pdfrwt beam="2">  1       -2 0.30780007E-02 0.24711671E+03</pdfrwt>
<totfact> 0.15205868E+04</totfact>
</mgrwt>
</event>
<event>
 4    1  0.6122885E-004  0.5787921E+03  0.7818608E-02  0.9950409E-01
          2   -1    0    0  501    0  0.00000000000E+00  0.00000000000E+00  0.38865314922E+03  0.38865314923E+03  0.25500000000E-02 0.  1.
         -2   -1    0    0    0  501 -0.00000000000E+00 -0.00000000000E+00 -0.21548796975E+03  0.21548796976E+03  0.25500000000E-02 0. -1.
    5000001    1    1    2    0    0  0.27652331133E+03  0.36752443008E+02  0.88961505210E+02  0.30275242886E+03  0.77000000000E+02 0.  0.
   -5000001    1    1    2    0    0 -0.27652331133E+03 -0.36752443008E+02  0.84203674261E+02  0.30138869012E+03  0.77000000000E+02 0.  0.
<mgrwt>
<rscale>  0 0.57879211E+03</rscale>
<asrwt>0</asrwt>
<pdfrwt beam="1">  1        2 0.59792792E-01 0.57879211E+03</pdfrwt>
<pdfrwt beam="2">  1       -2 0.33151995E-01 0.57879211E+03</pdfrwt>
<totfact> 0.70175912E+02</totfact>
</mgrwt>
</event>
<event>
 4    1  0.6122885E-004  0.2967897E+03  0.7818608E-02  0.1086857E+00
         -2   -1    0    0    0  501 -0.00000000000E+00  0.00000000000E+00  0.20284168093E+02  0.20284168253E+02  0.25500000000E-02 0. -1.
          2   -1    0    0  501    0  0.00000000000E+00 -0.00000000000E+00 -0.10856264511E+04  0.10856264511E+04  0.25500000000E-02 0.  1.
    5000001    1    1    2    0    0 -0.86721585239E+02 -0.84231475188E+02 -0.67585079077E+03  0.69088267177E+03  0.77000000000E+02 0.  0.
   -5000001    1    1    2    0    0  0.86721585239E+02  0.84231475188E+02 -0.38949149225E+03  0.41502794760E+03  0.77000000000E+02 0.  0.
<mgrwt>
<rscale>  0 0.29678969E+03</rscale>
<asrwt>0</asrwt>
<pdfrwt beam="1">  1        2 0.16701941E+00 0.29678969E+03</pdfrwt>
<pdfrwt beam="2">  1       -2 0.31206421E-02 0.29678969E+03</pdfrwt>
<totfact> 0.93099418E+03</totfact>
</mgrwt>
</event>
<event>
 4    1  0.6122885E-004  0.3047423E+03  0.7818608E-02  0.1082894E+00
          2   -1    0    0  501    0  0.00000000000E+00  0.00000000000E+00  0.24859108065E+03  0.24859108066E+03  0.25500000000E-02 0.  1.
         -2   -1    0    0    0  501 -0.00000000000E+00 -0.00000000000E+00 -0.93394198546E+02  0.93394198581E+02  0.25500000000E-02 0. -1.
    5000001    1    1    2    0    0  0.11979015581E+03  0.44070954953E+02  0.11301544600E+03  0.18706528683E+03  0.77000000000E+02 0.  0.
   -5000001    1    1    2    0    0 -0.11979015581E+03 -0.44070954953E+02  0.42181436101E+02  0.15491999242E+03  0.77000000000E+02 0.  0.
<mgrwt>
<rscale>  0 0.30474228E+03</rscale>
<asrwt>0</asrwt>
<pdfrwt beam="1">  1        2 0.38244781E-01 0.30474228E+03</pdfrwt>
<pdfrwt beam="2">  1       -2 0.14368338E-01 0.30474228E+03</pdfrwt>
<totfact> 0.49253436E+03</totfact>
</mgrwt>
</event>
<event>
 4    1  0.6122885E-004  0.9045657E+03  0.7818608E-02  0.9419892E-01
         -2   -1    0    0    0  501 -0.00000000000E+00  0.00000000000E+00  0.64539109924E+03  0.64539109924E+03  0.25500000000E-02 0. -1.
          2   -1    0    0  501    0  0.00000000000E+00 -0.00000000000E+00 -0.31695471913E+03  0.31695471914E+03  0.25500000000E-02 0.  1.
    5000001    1    1    2    0    0 -0.42764483688E+03  0.56960002314E+02  0.28319268331E+03  0.52177738956E+03  0.77000000000E+02 0.  0.
   -5000001    1    1    2    0    0  0.42764483688E+03 -0.56960002314E+02  0.45243696791E+02  0.44056842882E+03  0.77000000000E+02 0.  0.
<mgrwt>
<rscale>  0 0.90456565E+03</rscale>
<asrwt>0</asrwt>
<pdfrwt beam="1">  1        2 0.48762264E-01 0.90456565E+03</pdfrwt>
<pdfrwt beam="2">  1       -2 0.99290939E-01 0.90456565E+03</pdfrwt>
<totfact> 0.87016349E+01</totfact>
</mgrwt>
</event>
<event>
 4    1  0.6122885E-004  0.3754359E+03  0.7818608E-02  0.1052634E+00
          2   -1    0    0  501    0  0.00000000000E+00  0.00000000000E+00  0.22305803125E+03  0.22305803126E+03  0.25500000000E-02 0. -1.
         -2   -1    0    0    0  501 -0.00000000000E+00 -0.00000000000E+00 -0.15797696736E+03  0.15797696738E+03  0.25500000000E-02 0.  1.
    5000001    1    1    2    0    0 -0.74897700927E+02  0.10911315157E+03 -0.77677799452E+02  0.17169212555E+03  0.77000000000E+02 0.  0.
   -5000001    1    1    2    0    0  0.74897700927E+02 -0.10911315157E+03  0.14275886334E+03  0.20934287309E+03  0.77000000000E+02 0.  0.
<mgrwt>
<rscale>  0 0.37543591E+03</rscale>
<asrwt>0</asrwt>
<pdfrwt beam="1">  1        2 0.34316620E-01 0.37543591E+03</pdfrwt>
<pdfrwt beam="2">  1       -2 0.24304149E-01 0.37543591E+03</pdfrwt>
<totfact> 0.22720482E+03</totfact>
</mgrwt>
</event>
<event>
 4    1  0.6122885E-004  0.1848207E+03  0.7818608E-02  0.1163217E+00
         -2   -1    0    0    0  501 -0.00000000000E+00  0.00000000000E+00  0.27582028490E+01  0.27582040278E+01  0.25500000000E-02 0. -1.
          2   -1    0    0  501    0  0.00000000000E+00 -0.00000000000E+00 -0.30960988347E+04  0.30960988347E+04  0.25500000000E-02 0.  1.
    5000001    1    1    2    0    0 -0.27242383390E+02 -0.41975001316E+02 -0.17198013587E+04  0.17222513642E+04  0.77000000000E+02 0.  0.
   -5000001    1    1    2    0    0  0.27242383390E+02  0.41975001316E+02 -0.13735392732E+04  0.13766056745E+04  0.77000000000E+02 0.  0.
<mgrwt>
<rscale>  0 0.18482067E+03</rscale>
<asrwt>0</asrwt>
<pdfrwt beam="1">  1        2 0.47632012E+00 0.18482067E+03</pdfrwt>
<pdfrwt beam="2">  1       -2 0.42434147E-03 0.18482067E+03</pdfrwt>
<totfact> 0.13382059E+04</totfact>
</mgrwt>
</event>
<event>
 4    1  0.6122885E-004  0.1814761E+03  0.7818608E-02  0.1166382E+00
         -2   -1    0    0    0  501 -0.00000000000E+00  0.00000000000E+00  0.15712041706E+02  0.15712041913E+02  0.25500000000E-02 0. -1.
          2   -1    0    0  501    0  0.00000000000E+00 -0.00000000000E+00 -0.52401803161E+03  0.52401803161E+03  0.25500000000E-02 0.  1.
    5000001    1    1    2    0    0 -0.62802178691E+01  0.23328648410E+02 -0.13078199491E+03  0.15367692464E+03  0.77000000000E+02 0.  0.
   -5000001    1    1    2    0    0  0.62802178691E+01 -0.23328648410E+02 -0.37752399499E+03  0.38605314889E+03  0.77000000000E+02 0.  0.
<mgrwt>
<rscale>  0 0.18147609E+03</rscale>
<asrwt>0</asrwt>
<pdfrwt beam="1">  1        2 0.80618145E-01 0.18147609E+03</pdfrwt>
<pdfrwt beam="2">  1       -2 0.24172376E-02 0.18147609E+03</pdfrwt>
<totfact> 0.33088672E+04</totfact>
</mgrwt>
</event>
<event>
 4    1  0.6122885E-004  0.1918753E+03  0.7818608E-02  0.1156781E+00
          2   -1    0    0  501    0  0.00000000000E+00  0.00000000000E+00  0.10948604303E+04  0.10948604303E+04  0.25500000000E-02 0.  1.
         -2   -1    0    0    0  501 -0.00000000000E+00 -0.00000000000E+00 -0.84065816779E+01  0.84065820646E+01  0.25500000000E-02 0. -1.
    5000001    1    1    2    0    0  0.39267048332E+02 -0.41630849316E+02  0.54281434376E+03  0.55122721313E+03  0.77000000000E+02 0.  0.
   -5000001    1    1    2    0    0 -0.39267048332E+02  0.41630849316E+02  0.54363950485E+03  0.55203979923E+03  0.77000000000E+02 0.  0.
<mgrwt>
<rscale>  0 0.19187531E+03</rscale>
<asrwt>0</asrwt>
<pdfrwt beam="1">  1        2 0.16843998E+00 0.19187531E+03</pdfrwt>
<pdfrwt beam="2">  1       -2 0.12933210E-02 0.19187531E+03</pdfrwt>
<totfact> 0.32862155E+04</totfact>
</mgrwt>
</event>
<event>
 4    1  0.6122885E-004  0.3047145E+03  0.7818608E-02  0.1082907E+00
          2   -1    0    0  501    0  0.00000000000E+00  0.00000000000E+00  0.77305591033E+02  0.77305591075E+02  0.25500000000E-02 0.  1.
         -2   -1    0    0    0  501 -0.00000000000E+00 -0.00000000000E+00 -0.30027240255E+03  0.30027240256E+03  0.25500000000E-02 0. -1.
    5000001    1    1    2    0    0  0.11727302907E+03  0.39837676981E+00 -0.37856151311E+02  0.14531073685E+03  0.77000000000E+02 0.  0.
   -5000001    1    1    2    0    0 -0.11727302907E+03 -0.39837676981E+00 -0.18511066021E+03  0.23226725679E+03  0.77000000000E+02 0.  0.
<mgrwt>
<rscale>  0 0.30471453E+03</rscale>
<asrwt>0</asrwt>
<pdfrwt beam="1">  1        2 0.11893168E-01 0.30471453E+03</pdfrwt>
<pdfrwt beam="2">  1       -2 0.46195754E-01 0.30471453E+03</pdfrwt>
<totfact> 0.23253433E+03</totfact>
</mgrwt>
</event>
<event>
 4    1  0.6122885E-004  0.1786278E+03  0.7818608E-02  0.1169138E+00
         -2   -1    0    0    0  501 -0.00000000000E+00  0.00000000000E+00  0.57734141746E+01  0.57734147377E+01  0.25500000000E-02 0. -1.
          2   -1    0    0  501    0  0.00000000000E+00 -0.00000000000E+00 -0.13816731824E+04  0.13816731824E+04  0.25500000000E-02 0.  1.
    5000001    1    1    2    0    0  0.32351117191E+01 -0.44288456078E+02 -0.62021936332E+03  0.62655645549E+03  0.77000000000E+02 0.  0.
   -5000001    1    1    2    0    0 -0.32351117191E+01  0.44288456078E+02 -0.75568040493E+03  0.76089014166E+03  0.77000000000E+02 0.  0.
<mgrwt>
<rscale>  0 0.17862779E+03</rscale>
<asrwt>0</asrwt>
<pdfrwt beam="1">  1        2 0.21256484E+00 0.17862779E+03</pdfrwt>
<pdfrwt beam="2">  1       -2 0.88821871E-03 0.17862779E+03</pdfrwt>
<totfact> 0.38936518E+04</totfact>
</mgrwt>
</event>
<event>
 4    1  0.6122885E-004  0.1797124E+03  0.7818608E-02  0.1168082E+00
          2   -1    0    0  501    0  0.00000000000E+00  0.00000000000E+00  0.19952692562E+04  0.19952692562E+04  0.25500000000E-02 0.  1.
         -2   -1    0    0    0  501 -0.00000000000E+00 -0.00000000000E+00 -0.40466415397E+01  0.40466423431E+01  0.25500000000E-02 0. -1.
    5000001    1    1    2    0    0 -0.42262015609E+02 -0.14127345451E+02  0.11361050385E+04  0.11395829581E+04  0.77000000000E+02 0.  0.
   -5000001    1    1    2    0    0  0.42262015609E+02  0.14127345451E+02  0.85511757611E+03  0.85973294041E+03  0.77000000000E+02 0.  0.
<mgrwt>
<rscale>  0 0.17971244E+03</rscale>
<asrwt>0</asrwt>
<pdfrwt beam="1">  1        2 0.30696486E+00 0.17971244E+03</pdfrwt>
<pdfrwt beam="2">  1       -2 0.62255957E-03 0.17971244E+03</pdfrwt>
<totfact> 0.31024714E+04</totfact>
</mgrwt>
</event>
<event>
 4    1  0.6122885E-004  0.3016574E+03  0.7818608E-02  0.1084415E+00
          2   -1    0    0  501    0  0.00000000000E+00  0.00000000000E+00  0.24436522844E+03  0.24436522845E+03  0.25500000000E-02 0.  1.
         -2   -1    0    0    0  501 -0.00000000000E+00 -0.00000000000E+00 -0.93095444333E+02  0.93095444368E+02  0.25500000000E-02 0. -1.
    5000001    1    1    2    0    0 -0.12375518251E+03  0.15393220698E+02  0.35799628361E+02  0.15087382090E+03  0.77000000000E+02 0.  0.
   -5000001    1    1    2    0    0  0.12375518251E+03 -0.15393220698E+02  0.11547015574E+03  0.18658685192E+03  0.77000000000E+02 0.  0.
<mgrwt>
<rscale>  0 0.30165735E+03</rscale>
<asrwt>0</asrwt>
<pdfrwt beam="1">  1        2 0.37594650E-01 0.30165735E+03</pdfrwt>
<pdfrwt beam="2">  1       -2 0.14322376E-01 0.30165735E+03</pdfrwt>
<totfact> 0.50429151E+03</totfact>
</mgrwt>
</event>
<event>
 4    1  0.6122885E-004  0.4404915E+03  0.7818608E-02  0.1030596E+00
          2   -1    0    0  501    0  0.00000000000E+00  0.00000000000E+00  0.34531606878E+03  0.34531606879E+03  0.25500000000E-02 0.  1.
         -2   -1    0    0    0  501 -0.00000000000E+00 -0.00000000000E+00 -0.14047475551E+03  0.14047475554E+03  0.25500000000E-02 0. -1.
    5000001    1    1    2    0    0  0.27347824231E+02  0.20375282343E+03  0.12202742530E+03  0.25116291340E+03  0.77000000000E+02 0.  0.
   -5000001    1    1    2    0    0 -0.27347824231E+02 -0.20375282343E+03  0.82813887966E+02  0.23462791092E+03  0.77000000000E+02 0.  0.
<mgrwt>
<rscale>  0 0.44049150E+03</rscale>
<asrwt>0</asrwt>
<pdfrwt beam="1">  1        2 0.53125548E-01 0.44049150E+03</pdfrwt>
<pdfrwt beam="2">  1       -2 0.21611501E-01 0.44049150E+03</pdfrwt>
<totfact> 0.17351735E+03</totfact>
</mgrwt>
</event>
<event>
 4    1  0.6122885E-004  0.3305035E+03  0.7818608E-02  0.1070914E+00
          2   -1    0    0  501    0  0.00000000000E+00  0.00000000000E+00  0.21161801557E+03  0.21161801559E+03  0.25500000000E-02 0.  1.
         -2   -1    0    0    0  501 -0.00000000000E+00 -0.00000000000E+00 -0.12904453633E+03  0.12904453635E+03  0.25500000000E-02 0. -1.
    5000001    1    1    2    0    0 -0.99295770384E+02  0.11123335653E+01 -0.69335318805E+02  0.14351750324E+03  0.77000000000E+02 0.  0.
   -5000001    1    1    2    0    0  0.99295770384E+02 -0.11123335653E+01  0.15190879805E+03  0.19714504870E+03  0.77000000000E+02 0.  0.
<mgrwt>
<rscale>  0 0.33050355E+03</rscale>
<asrwt>0</asrwt>
<pdfrwt beam="1">  1        2 0.32556617E-01 0.33050355E+03</pdfrwt>
<pdfrwt beam="2">  1       -2 0.19853006E-01 0.33050355E+03</pdfrwt>
<totfact> 0.34166545E+03</totfact>
</mgrwt>
</event>
<event>
 4    1  0.6122885E-004  0.2078249E+03  0.7818608E-02  0.1143300E+00
          2   -1    0    0  501    0  0.00000000000E+00  0.00000000000E+00  0.16994868552E+04  0.16994868552E+04  0.25500000000E-02 0.  1.
         -2   -1    0    0    0  501 -0.00000000000E+00 -0.00000000000E+00 -0.63535602650E+01  0.63535607768E+01  0.25500000000E-02 0. -1.
    5000001    1    1    2    0    0 -0.41578032919E+02 -0.32612625635E+02  0.47253838872E+03  0.48167815498E+03  0.77000000000E+02 0.  0.
   -5000001    1    1    2    0    0  0.41578032919E+02  0.32612625635E+02  0.12205949062E+04  0.12241622610E+04  0.77000000000E+02 0.  0.
<mgrwt>
<rscale>  0 0.20782486E+03</rscale>
<asrwt>0</asrwt>
<pdfrwt beam="1">  1        2 0.26146001E+00 0.20782486E+03</pdfrwt>
<pdfrwt beam="2">  1       -2 0.97746899E-03 0.20782486E+03</pdfrwt>
<totfact> 0.23270077E+04</totfact>
</mgrwt>
</event>
<event>
 4    1  0.6122885E-004  0.2239984E+03  0.7818608E-02  0.1130937E+00
         -2   -1    0    0    0  501 -0.00000000000E+00  0.00000000000E+00  0.41404642592E+02  0.41404642671E+02  0.25500000000E-02 0. -1.
          2   -1    0    0  501    0  0.00000000000E+00 -0.00000000000E+00 -0.30295677622E+03  0.30295677623E+03  0.25500000000E-02 0.  1.
    5000001    1    1    2    0    0  0.79196642301E+02 -0.18215908522E+02 -0.13584918774E+03  0.17603388675E+03  0.77000000000E+02 0.  0.
   -5000001    1    1    2    0    0 -0.79196642301E+02  0.18215908522E+02 -0.12570294589E+03  0.16832753215E+03  0.77000000000E+02 0.  0.
<mgrwt>
<rscale>  0 0.22399837E+03</rscale>
<asrwt>0</asrwt>
<pdfrwt beam="1">  1        2 0.46608733E-01 0.22399837E+03</pdfrwt>
<pdfrwt beam="2">  1       -2 0.63699452E-02 0.22399837E+03</pdfrwt>
<totfact> 0.14267225E+04</totfact>
</mgrwt>
</event>
<event>
 4    1  0.6122885E-004  0.1810204E+03  0.7818608E-02  0.1166819E+00
         -2   -1    0    0    0  501 -0.00000000000E+00  0.00000000000E+00  0.21809973781E+01  0.21809988688E+01  0.25500000000E-02 0. -1.
          2   -1    0    0  501    0  0.00000000000E+00 -0.00000000000E+00 -0.37561225405E+04  0.37561225405E+04  0.25500000000E-02 0.  1.
    5000001    1    1    2    0    0  0.13325668036E+02 -0.11418539845E+02 -0.95894846055E+03  0.96219494203E+03  0.77000000000E+02 0.  0.
   -5000001    1    1    2    0    0 -0.13325668036E+02  0.11418539845E+02 -0.27949930826E+04  0.27961085974E+04  0.77000000000E+02 0.  0.
<mgrwt>
<rscale>  0 0.18102040E+03</rscale>
<asrwt>0</asrwt>
<pdfrwt beam="1">  1        2 0.57785983E+00 0.18102040E+03</pdfrwt>
<pdfrwt beam="2">  1       -2 0.33554118E-03 0.18102040E+03</pdfrwt>
<totfact> 0.70192118E+03</totfact>
</mgrwt>
</event>
<event>
 4    1  0.6122885E-004  0.3785189E+03  0.7818608E-02  0.1051483E+00
         -2   -1    0    0    0  501 -0.00000000000E+00  0.00000000000E+00  0.38265015328E+02  0.38265015413E+02  0.25500000000E-02 0. -1.
          2   -1    0    0  501    0  0.00000000000E+00 -0.00000000000E+00 -0.93608050129E+03  0.93608050130E+03  0.25500000000E-02 0.  1.
    5000001    1    1    2    0    0  0.16079583422E+03 -0.10838221898E+02 -0.28779770375E+03  0.33871711743E+03  0.77000000000E+02 0.  0.
   -5000001    1    1    2    0    0 -0.16079583422E+03  0.10838221898E+02 -0.61001778222E+03  0.63562839928E+03  0.77000000000E+02 0.  0.
<mgrwt>
<rscale>  0 0.37851888E+03</rscale>
<asrwt>0</asrwt>
<pdfrwt beam="1">  1        2 0.14401237E+00 0.37851888E+03</pdfrwt>
<pdfrwt beam="2">  1       -2 0.58869262E-02 0.37851888E+03</pdfrwt>
<totfact> 0.44090660E+03</totfact>
</mgrwt>
</event>
<event>
 4    1  0.6122885E-004  0.1993649E+03  0.7818608E-02  0.1150276E+00
         -2   -1    0    0    0  501 -0.00000000000E+00  0.00000000000E+00  0.22691536856E+02  0.22691537000E+02  0.25500000000E-02 0. -1.
          2   -1    0    0  501    0  0.00000000000E+00 -0.00000000000E+00 -0.43789845190E+03  0.43789845191E+03  0.25500000000E-02 0.  1.
    5000001    1    1    2    0    0  0.31166524467E+02  0.45369415913E+02 -0.13535932716E+03  0.16516925742E+03  0.77000000000E+02 0.  0.
   -5000001    1    1    2    0    0 -0.31166524467E+02 -0.45369415913E+02 -0.27984758789E+03  0.29542073149E+03  0.77000000000E+02 0.  0.
<mgrwt>
<rscale>  0 0.19936488E+03</rscale>
<asrwt>0</asrwt>
<pdfrwt beam="1">  1        2 0.67368987E-01 0.19936488E+03</pdfrwt>
<pdfrwt beam="2">  1       -2 0.34910060E-02 0.19936488E+03</pdfrwt>
<totfact> 0.23604630E+04</totfact>
</mgrwt>
</event>
<event>
 4    1  0.6122885E-004  0.3645962E+03  0.7818608E-02  0.1056779E+00
          2   -1    0    0  501    0  0.00000000000E+00  0.00000000000E+00  0.84501684971E+03  0.84501684971E+03  0.25500000000E-02 0. -1.
         -2   -1    0    0    0  501 -0.00000000000E+00 -0.00000000000E+00 -0.39327736284E+02  0.39327736366E+02  0.25500000000E-02 0.  1.
    5000001    1    1    2    0    0 -0.16254379991E+03 -0.15571288899E+02  0.34145152488E+03  0.38623968695E+03  0.77000000000E+02 0.  0.
   -5000001    1    1    2    0    0  0.16254379991E+03  0.15571288899E+02  0.46423758854E+03  0.49810489913E+03  0.77000000000E+02 0.  0.
<mgrwt>
<rscale>  0 0.36459621E+03</rscale>
<asrwt>0</asrwt>
<pdfrwt beam="1">  1        2 0.13000259E+00 0.36459621E+03</pdfrwt>
<pdfrwt beam="2">  1       -2 0.60504213E-02 0.36459621E+03</pdfrwt>
<totfact> 0.48497196E+03</totfact>
</mgrwt>
</event>
<event>
 4    1  0.6122885E-004  0.2268687E+03  0.7818608E-02  0.1128863E+00
         -2   -1    0    0    0  501 -0.00000000000E+00  0.00000000000E+00  0.23510076555E+02  0.23510076693E+02  0.25500000000E-02 0. -1.
          2   -1    0    0  501    0  0.00000000000E+00 -0.00000000000E+00 -0.54731219236E+03  0.54731219237E+03  0.25500000000E-02 0.  1.
    5000001    1    1    2    0    0  0.24899656170E+02  0.71197670006E+02 -0.35083163131E+03  0.36701625933E+03  0.77000000000E+02 0.  0.
   -5000001    1    1    2    0    0 -0.24899656170E+02 -0.71197670006E+02 -0.17297048450E+03  0.20380600972E+03  0.77000000000E+02 0.  0.
<mgrwt>
<rscale>  0 0.22686870E+03</rscale>
<asrwt>0</asrwt>
<pdfrwt beam="1">  1        2 0.84201866E-01 0.22686870E+03</pdfrwt>
<pdfrwt beam="2">  1       -2 0.36169353E-02 0.22686870E+03</pdfrwt>
<totfact> 0.17634734E+04</totfact>
</mgrwt>
</event>
<event>
 4    1  0.6122885E-004  0.2491014E+03  0.7818608E-02  0.1113874E+00
         -2   -1    0    0    0  501 -0.00000000000E+00  0.00000000000E+00  0.32770188592E+02  0.32770188691E+02  0.25500000000E-02 0. -1.
          2   -1    0    0  501    0  0.00000000000E+00 -0.00000000000E+00 -0.47338363624E+03  0.47338363624E+03  0.25500000000E-02 0.  1.
    5000001    1    1    2    0    0  0.64320695569E+02 -0.49360803980E+02 -0.33178911911E+03  0.35012377870E+03  0.77000000000E+02 0.  0.
   -5000001    1    1    2    0    0 -0.64320695569E+02  0.49360803980E+02 -0.10882432853E+03  0.15603004623E+03  0.77000000000E+02 0.  0.
<mgrwt>
<rscale>  0 0.24910135E+03</rscale>
<asrwt>0</asrwt>
<pdfrwt beam="1">  1        2 0.72828247E-01 0.24910135E+03</pdfrwt>
<pdfrwt beam="2">  1       -2 0.50415678E-02 0.24910135E+03</pdfrwt>
<totfact> 0.12645992E+04</totfact>
</mgrwt>
</event>
<event>
 4    1  0.6122885E-004  0.1841017E+03  0.7818608E-02  0.1163891E+00
          2   -1    0    0  501    0  0.00000000000E+00  0.00000000000E+00  0.10776196856E+04  0.10776196856E+04  0.25500000000E-02 0.  1.
         -2   -1    0    0    0  501 -0.00000000000E+00 -0.00000000000E+00 -0.78630355612E+01  0.78630359747E+01  0.25500000000E-02 0. -1.
    5000001    1    1    2    0    0  0.49610755596E+02 -0.80346325681E+01  0.50946363028E+03  0.51769486474E+03  0.77000000000E+02 0.  0.
   -5000001    1    1    2    0    0 -0.49610755596E+02  0.80346325681E+01  0.56029301975E+03  0.56778785683E+03  0.77000000000E+02 0.  0.
<mgrwt>
<rscale>  0 0.18410173E+03</rscale>
<asrwt>0</asrwt>
<pdfrwt beam="1">  1        2 0.16578749E+00 0.18410173E+03</pdfrwt>
<pdfrwt beam="2">  1       -2 0.12096990E-02 0.18410173E+03</pdfrwt>
<totfact> 0.36934273E+04</totfact>
</mgrwt>
</event>
<event>
 4    1  0.6122885E-004  0.4020913E+03  0.7818608E-02  0.1043058E+00
         -2   -1    0    0    0  501 -0.00000000000E+00  0.00000000000E+00  0.14704725167E+04  0.14704725167E+04  0.25500000000E-02 0. -1.
          2   -1    0    0  501    0  0.00000000000E+00 -0.00000000000E+00 -0.27487319319E+02  0.27487319437E+02  0.25500000000E-02 0.  1.
    5000001    1    1    2    0    0 -0.15066943254E+03  0.83510536687E+02  0.98000202134E+03  0.99800212899E+03  0.77000000000E+02 0.  0.
   -5000001    1    1    2    0    0  0.15066943254E+03 -0.83510536687E+02  0.46298317603E+03  0.49995770714E+03  0.77000000000E+02 0.  0.
<mgrwt>
<rscale>  0 0.40209127E+03</rscale>
<asrwt>0</asrwt>
<pdfrwt beam="1">  1        2 0.42288181E-02 0.40209127E+03</pdfrwt>
<pdfrwt beam="2">  1       -2 0.22622655E+00 0.40209127E+03</pdfrwt>
<totfact> 0.19463258E+02</totfact>
</mgrwt>
</event>
<event>
 4    1  0.6122885E-004  0.2867169E+03  0.7818608E-02  0.1092076E+00
         -2   -1    0    0    0  501 -0.00000000000E+00  0.00000000000E+00  0.12966524882E+03  0.12966524885E+03  0.25500000000E-02 0. -1.
          2   -1    0    0  501    0  0.00000000000E+00 -0.00000000000E+00 -0.15849772746E+03  0.15849772748E+03  0.25500000000E-02 0.  1.
    5000001    1    1    2    0    0  0.12017009764E+03 -0.85286918527E+01 -0.39205662875E+01  0.14303133150E+03  0.77000000000E+02 0.  0.
   -5000001    1    1    2    0    0 -0.12017009764E+03  0.85286918527E+01 -0.24911912344E+02  0.14513164482E+03  0.77000000000E+02 0.  0.
<mgrwt>
<rscale>  0 0.28671691E+03</rscale>
<asrwt>0</asrwt>
<pdfrwt beam="1">  1        2 0.24384266E-01 0.28671691E+03</pdfrwt>
<pdfrwt beam="2">  1       -2 0.19948500E-01 0.28671691E+03</pdfrwt>
<totfact> 0.46507282E+03</totfact>
</mgrwt>
</event>
<event>
 4    1  0.6122885E-004  0.3469661E+03  0.7818608E-02  0.1063867E+00
         -2   -1    0    0    0  501 -0.00000000000E+00  0.00000000000E+00  0.30436910351E+02  0.30436910457E+02  0.25500000000E-02 0. -1.
          2   -1    0    0  501    0  0.00000000000E+00 -0.00000000000E+00 -0.98881157596E+03  0.98881157596E+03  0.25500000000E-02 0.  1.
    5000001    1    1    2    0    0  0.14548318453E+03  0.35777666819E+02 -0.35728670773E+03  0.39500403789E+03  0.77000000000E+02 0.  0.
   -5000001    1    1    2    0    0 -0.14548318453E+03 -0.35777666819E+02 -0.60108795787E+03  0.62424444853E+03  0.77000000000E+02 0.  0.
<mgrwt>
<rscale>  0 0.34696610E+03</rscale>
<asrwt>0</asrwt>
<pdfrwt beam="1">  1        2 0.15212483E+00 0.34696610E+03</pdfrwt>
<pdfrwt beam="2">  1       -2 0.46826024E-02 0.34696610E+03</pdfrwt>
<totfact> 0.57963516E+03</totfact>
</mgrwt>
</event>
<event>
 4    1  0.6122885E-004  0.2256311E+03  0.7818608E-02  0.1129753E+00
         -2   -1    0    0    0  501 -0.00000000000E+00  0.00000000000E+00  0.17921793443E+03  0.17921793445E+03  0.25500000000E-02 0. -1.
          2   -1    0    0  501    0  0.00000000000E+00 -0.00000000000E+00 -0.71016059713E+02  0.71016059759E+02  0.25500000000E-02 0.  1.
    5000001    1    1    2    0    0  0.58436312353E+01  0.80909066221E+02  0.37728914856E+02  0.11803768906E+03  0.77000000000E+02 0.  0.
   -5000001    1    1    2    0    0 -0.58436312353E+01 -0.80909066221E+02  0.70472959862E+02  0.13219630515E+03  0.77000000000E+02 0.  0.
<mgrwt>
<rscale>  0 0.22563113E+03</rscale>
<asrwt>0</asrwt>
<pdfrwt beam="1">  1        2 0.10925548E-01 0.22563113E+03</pdfrwt>
<pdfrwt beam="2">  1       -2 0.27571990E-01 0.22563113E+03</pdfrwt>
<totfact> 0.67074933E+03</totfact>
</mgrwt>
</event>
<event>
 4    1  0.6122885E-004  0.4513357E+03  0.7818608E-02  0.1027324E+00
         -2   -1    0    0    0  501 -0.00000000000E+00  0.00000000000E+00  0.43111842994E+02  0.43111843070E+02  0.25500000000E-02 0. -1.
          2   -1    0    0  501    0  0.00000000000E+00 -0.00000000000E+00 -0.11812527322E+04  0.11812527322E+04  0.25500000000E-02 0.  1.
    5000001    1    1    2    0    0 -0.14846457580E+03 -0.13963615044E+03 -0.40957047997E+03  0.46391482283E+03  0.77000000000E+02 0.  0.
   -5000001    1    1    2    0    0  0.14846457580E+03  0.13963615044E+03 -0.72857040922E+03  0.76044975242E+03  0.77000000000E+02 0.  0.
<mgrwt>
<rscale>  0 0.45133572E+03</rscale>
<asrwt>0</asrwt>
<pdfrwt beam="1">  1        2 0.18173117E+00 0.45133572E+03</pdfrwt>
<pdfrwt beam="2">  1       -2 0.66325921E-02 0.45133572E+03</pdfrwt>
<totfact> 0.25981058E+03</totfact>
</mgrwt>
</event>
<event>
 4    1  0.6122885E-004  0.2300349E+03  0.7818608E-02  0.1126615E+00
         -2   -1    0    0    0  501 -0.00000000000E+00  0.00000000000E+00  0.10731444440E+03  0.10731444443E+03  0.25500000000E-02 0. -1.
          2   -1    0    0  501    0  0.00000000000E+00 -0.00000000000E+00 -0.12327335224E+03  0.12327335226E+03  0.25500000000E-02 0.  1.
    5000001    1    1    2    0    0  0.19137268653E+02  0.43463880047E+02 -0.79175995604E+02  0.12022138828E+03  0.77000000000E+02 0.  0.
   -5000001    1    1    2    0    0 -0.19137268653E+02 -0.43463880047E+02  0.63217087765E+02  0.11036640841E+03  0.77000000000E+02 0.  0.
<mgrwt>
<rscale>  0 0.23003488E+03</rscale>
<asrwt>0</asrwt>
<pdfrwt beam="1">  1        2 0.18965131E-01 0.23003488E+03</pdfrwt>
<pdfrwt beam="2">  1       -2 0.16509914E-01 0.23003488E+03</pdfrwt>
<totfact> 0.84353848E+03</totfact>
</mgrwt>
</event>
<event>
 4    1  0.6122885E-004  0.6480108E+03  0.7818608E-02  0.9810519E-01
         -2   -1    0    0    0  501 -0.00000000000E+00  0.00000000000E+00  0.71048150962E+02  0.71048151008E+02  0.25500000000E-02 0. -1.
          2   -1    0    0  501    0  0.00000000000E+00 -0.00000000000E+00 -0.14775824385E+04  0.14775824385E+04  0.25500000000E-02 0.  1.
    5000001    1    1    2    0    0  0.26216593968E+03 -0.92540705153E+02 -0.35077251886E+03  0.45416420161E+03  0.77000000000E+02 0.  0.
   -5000001    1    1    2    0    0 -0.26216593968E+03  0.92540705153E+02 -0.10557617686E+04  0.10944663879E+04  0.77000000000E+02 0.  0.
<mgrwt>
<rscale>  0 0.64801080E+03</rscale>
<asrwt>0</asrwt>
<pdfrwt beam="1">  1        2 0.22732035E+00 0.64801080E+03</pdfrwt>
<pdfrwt beam="2">  1       -2 0.10930486E-01 0.64801080E+03</pdfrwt>
<totfact> 0.78865128E+02</totfact>
</mgrwt>
</event>
<event>
 4    1  0.6122885E-004  0.1837410E+03  0.7818608E-02  0.1164231E+00
          2   -1    0    0  501    0  0.00000000000E+00  0.00000000000E+00  0.93463068486E+03  0.93463068487E+03  0.25500000000E-02 0.  1.
         -2   -1    0    0    0  501 -0.00000000000E+00 -0.00000000000E+00 -0.90305075155E+01  0.90305078755E+01  0.25500000000E-02 0. -1.
    5000001    1    1    2    0    0  0.35082884535E+02 -0.24711254274E+02  0.32988894176E+03  0.34146327588E+03  0.77000000000E+02 0.  0.
   -5000001    1    1    2    0    0 -0.35082884535E+02  0.24711254274E+02  0.59571123558E+03  0.60219791686E+03  0.77000000000E+02 0.  0.
<mgrwt>
<rscale>  0 0.18374101E+03</rscale>
<asrwt>0</asrwt>
<pdfrwt beam="1">  1        2 0.14378926E+00 0.18374101E+03</pdfrwt>
<pdfrwt beam="2">  1       -2 0.13893096E-02 0.18374101E+03</pdfrwt>
<totfact> 0.36870960E+04</totfact>
</mgrwt>
</event>
<event>
 4    1  0.6122885E-004  0.2432156E+03  0.7818608E-02  0.1117669E+00
         -2   -1    0    0    0  501 -0.00000000000E+00  0.00000000000E+00  0.43512654917E+03  0.43512654918E+03  0.25500000000E-02 0. -1.
          2   -1    0    0  501    0  0.00000000000E+00 -0.00000000000E+00 -0.33986570926E+02  0.33986571021E+02  0.25500000000E-02 0.  1.
    5000001    1    1    2    0    0  0.67343669092E+02 -0.62933636232E+02  0.16378876913E+03  0.20310483310E+03  0.77000000000E+02 0.  0.
   -5000001    1    1    2    0    0 -0.67343669092E+02  0.62933636232E+02  0.23735120911E+03  0.26600828710E+03  0.77000000000E+02 0.  0.
<mgrwt>
<rscale>  0 0.24321562E+03</rscale>
<asrwt>0</asrwt>
<pdfrwt beam="1">  1        2 0.52287036E-02 0.24321562E+03</pdfrwt>
<pdfrwt beam="2">  1       -2 0.66942541E-01 0.24321562E+03</pdfrwt>
<totfact> 0.30809614E+03</totfact>
</mgrwt>
</event>
<event>
 4    1  0.6122885E-004  0.1723170E+03  0.7818608E-02  0.1175453E+00
          2   -1    0    0  501    0  0.00000000000E+00  0.00000000000E+00  0.26889551586E+04  0.26889551586E+04  0.25500000000E-02 0.  1.
         -2   -1    0    0    0  501 -0.00000000000E+00 -0.00000000000E+00 -0.27606565716E+01  0.27606577493E+01  0.25500000000E-02 0. -1.
    5000001    1    1    2    0    0 -0.21395859165E+02  0.21902904595E+02  0.17116812618E+04  0.17136858703E+04  0.77000000000E+02 0.  0.
   -5000001    1    1    2    0    0  0.21395859165E+02 -0.21902904595E+02  0.97451324020E+03  0.97802994604E+03  0.77000000000E+02 0.  0.
<mgrwt>
<rscale>  0 0.17231696E+03</rscale>
<asrwt>0</asrwt>
<pdfrwt beam="1">  1        2 0.41368452E+00 0.17231696E+03</pdfrwt>
<pdfrwt beam="2">  1       -2 0.42471740E-03 0.17231696E+03</pdfrwt>
<totfact> 0.22843680E+04</totfact>
</mgrwt>
</event>
<event>
 4    1  0.6122885E-004  0.2120180E+03  0.7818608E-02  0.1139978E+00
          2   -1    0    0  501    0  0.00000000000E+00  0.00000000000E+00  0.10377267445E+04  0.10377267445E+04  0.25500000000E-02 0.  1.
         -2   -1    0    0    0  501 -0.00000000000E+00 -0.00000000000E+00 -0.10829348941E+02  0.10829349241E+02  0.25500000000E-02 0. -1.
    5000001    1    1    2    0    0  0.39809501850E+02  0.41880806242E+02  0.29393386185E+03  0.30929745151E+03  0.77000000000E+02 0.  0.
   -5000001    1    1    2    0    0 -0.39809501850E+02 -0.41880806242E+02  0.73296353366E+03  0.73925864219E+03  0.77000000000E+02 0.  0.
<mgrwt>
<rscale>  0 0.21201797E+03</rscale>
<asrwt>0</asrwt>
<pdfrwt beam="1">  1        2 0.15965025E+00 0.21201797E+03</pdfrwt>
<pdfrwt beam="2">  1       -2 0.16660539E-02 0.21201797E+03</pdfrwt>
<totfact> 0.24737362E+04</totfact>
</mgrwt>
</event>
<event>
 4    1  0.6122885E-004  0.2450797E+03  0.7818608E-02  0.1116454E+00
          2   -1    0    0  501    0  0.00000000000E+00  0.00000000000E+00  0.19112137150E+03  0.19112137152E+03  0.25500000000E-02 0.  1.
         -2   -1    0    0    0  501 -0.00000000000E+00 -0.00000000000E+00 -0.78567944265E+02  0.78567944306E+02  0.25500000000E-02 0. -1.
    5000001    1    1    2    0    0  0.10909474278E+02  0.90650366453E+02  0.86423012570E+02  0.14742605831E+03  0.77000000000E+02 0.  0.
   -5000001    1    1    2    0    0 -0.10909474278E+02 -0.90650366453E+02  0.26130414665E+02  0.12226325751E+03  0.77000000000E+02 0.  0.
<mgrwt>
<rscale>  0 0.24507969E+03</rscale>
<asrwt>0</asrwt>
<pdfrwt beam="1">  1        2 0.29403288E-01 0.24507969E+03</pdfrwt>
<pdfrwt beam="2">  1       -2 0.12087376E-01 0.24507969E+03</pdfrwt>
<totfact> 0.86236749E+03</totfact>
</mgrwt>
</event>
<event>
 4    1  0.6122885E-004  0.3126071E+03  0.7818608E-02  0.1079103E+00
         -2   -1    0    0    0  501 -0.00000000000E+00  0.00000000000E+00  0.77013312460E+02  0.77013312503E+02  0.25500000000E-02 0. -1.
          2   -1    0    0  501    0  0.00000000000E+00 -0.00000000000E+00 -0.31722818109E+03  0.31722818110E+03  0.25500000000E-02 0.  1.
    5000001    1    1    2    0    0 -0.90113960673E+02  0.89581934445E+02 -0.18132596674E+03  0.23442174622E+03  0.77000000000E+02 0.  0.
   -5000001    1    1    2    0    0  0.90113960673E+02 -0.89581934445E+02 -0.58888901886E+02  0.15981974738E+03  0.77000000000E+02 0.  0.
<mgrwt>
<rscale>  0 0.31260706E+03</rscale>
<asrwt>0</asrwt>
<pdfrwt beam="1">  1        2 0.48804335E-01 0.31260706E+03</pdfrwt>
<pdfrwt beam="2">  1       -2 0.11848202E-01 0.31260706E+03</pdfrwt>
<totfact> 0.51889267E+03</totfact>
</mgrwt>
</event>
<event>
 4    1  0.6122885E-004  0.2397780E+03  0.7818608E-02  0.1119941E+00
          2   -1    0    0  501    0  0.00000000000E+00  0.00000000000E+00  0.30494291086E+03  0.30494291087E+03  0.25500000000E-02 0.  1.
         -2   -1    0    0    0  501 -0.00000000000E+00 -0.00000000000E+00 -0.47134636167E+02  0.47134636236E+02  0.25500000000E-02 0. -1.
    5000001    1    1    2    0    0  0.49126636267E+02 -0.76751265981E+02  0.14628964682E+03  0.18876928772E+03  0.77000000000E+02 0.  0.
   -5000001    1    1    2    0    0 -0.49126636267E+02  0.76751265981E+02  0.11151862787E+03  0.16330825938E+03  0.77000000000E+02 0.  0.
<mgrwt>
<rscale>  0 0.23977801E+03</rscale>
<asrwt>0</asrwt>
<pdfrwt beam="1">  1        2 0.46914293E-01 0.23977801E+03</pdfrwt>
<pdfrwt beam="2">  1       -2 0.72514826E-02 0.23977801E+03</pdfrwt>
<totfact> 0.11646036E+04</totfact>
</mgrwt>
</event>
<event>
 4    1  0.6122885E-004  0.2381399E+03  0.7818608E-02  0.1121038E+00
         -2   -1    0    0    0  501 -0.00000000000E+00  0.00000000000E+00  0.75981411798E+02  0.75981411841E+02  0.25500000000E-02 0. -1.
          2   -1    0    0  501    0  0.00000000000E+00 -0.00000000000E+00 -0.18659377495E+03  0.18659377497E+03  0.25500000000E-02 0.  1.
    5000001    1    1    2    0    0 -0.53986255502E+02 -0.39406651827E+02 -0.12310773041E+03  0.15984965836E+03  0.77000000000E+02 0.  0.
   -5000001    1    1    2    0    0  0.53986255502E+02  0.39406651827E+02  0.12495367261E+02  0.10272552845E+03  0.77000000000E+02 0.  0.
<mgrwt>
<rscale>  0 0.23813995E+03</rscale>
<asrwt>0</asrwt>
<pdfrwt beam="1">  1        2 0.28706735E-01 0.23813995E+03</pdfrwt>
<pdfrwt beam="2">  1       -2 0.11689448E-01 0.23813995E+03</pdfrwt>
<totfact> 0.93310885E+03</totfact>
</mgrwt>
</event>
<event>
 4    1  0.6122885E-004  0.2914242E+03  0.7818608E-02  0.1089608E+00
         -2   -1    0    0    0  501 -0.00000000000E+00  0.00000000000E+00  0.42408519967E+02  0.42408520044E+02  0.25500000000E-02 0. -1.
          2   -1    0    0  501    0  0.00000000000E+00 -0.00000000000E+00 -0.50065460302E+03  0.50065460303E+03  0.25500000000E-02 0.  1.
    5000001    1    1    2    0    0 -0.11096265773E+03  0.14458299328E+02 -0.13084737737E+03  0.18860485146E+03  0.77000000000E+02 0.  0.
   -5000001    1    1    2    0    0  0.11096265773E+03 -0.14458299328E+02 -0.32739870569E+03  0.35445827161E+03  0.77000000000E+02 0.  0.
<mgrwt>
<rscale>  0 0.29142423E+03</rscale>
<asrwt>0</asrwt>
<pdfrwt beam="1">  1        2 0.77023781E-01 0.29142423E+03</pdfrwt>
<pdfrwt beam="2">  1       -2 0.65243880E-02 0.29142423E+03</pdfrwt>
<totfact> 0.80586279E+03</totfact>
</mgrwt>
</event>
<event>
 4    1  0.6122885E-004  0.2562042E+03  0.7818608E-02  0.1109445E+00
          2   -1    0    0  501    0  0.00000000000E+00  0.00000000000E+00  0.18865530821E+03  0.18865530823E+03  0.25500000000E-02 0.  1.
         -2   -1    0    0    0  501 -0.00000000000E+00 -0.00000000000E+00 -0.86984843742E+02  0.86984843780E+02  0.25500000000E-02 0. -1.
    5000001    1    1    2    0    0  0.89132389932E+02  0.15893684491E+02 -0.58102487007E+00  0.11885507869E+03  0.77000000000E+02 0.  0.
   -5000001    1    1    2    0    0 -0.89132389932E+02 -0.15893684491E+02  0.10225148934E+03  0.15678507331E+03  0.77000000000E+02 0.  0.
<mgrwt>
<rscale>  0 0.25620424E+03</rscale>
<asrwt>0</asrwt>
<pdfrwt beam="1">  1        2 0.29023893E-01 0.25620424E+03</pdfrwt>
<pdfrwt beam="2">  1       -2 0.13382284E-01 0.25620424E+03</pdfrwt>
<totfact> 0.74314485E+03</totfact>
</mgrwt>
</event>
<event>
 4    1  0.6122885E-004  0.3582430E+03  0.7818608E-02  0.1059282E+00
         -2   -1    0    0    0  501 -0.00000000000E+00  0.00000000000E+00  0.16905263954E+03  0.16905263956E+03  0.25500000000E-02 0. -1.
          2   -1    0    0  501    0  0.00000000000E+00 -0.00000000000E+00 -0.18979006964E+03  0.18979006966E+03  0.25500000000E-02 0.  1.
    5000001    1    1    2    0    0  0.15985203158E+03 -0.23494142952E+02 -0.32247715890E+01  0.17900850791E+03  0.77000000000E+02 0.  0.
   -5000001    1    1    2    0    0 -0.15985203158E+03  0.23494142952E+02 -0.17512658512E+02  0.17983420131E+03  0.77000000000E+02 0.  0.
<mgrwt>
<rscale>  0 0.35824300E+03</rscale>
<asrwt>0</asrwt>
<pdfrwt beam="1">  1        2 0.29198472E-01 0.35824300E+03</pdfrwt>
<pdfrwt beam="2">  1       -2 0.26008099E-01 0.35824300E+03</pdfrwt>
<totfact> 0.24054317E+03</totfact>
</mgrwt>
</event>
<event>
 4    1  0.6122885E-004  0.2284266E+03  0.7818608E-02  0.1127752E+00
         -2   -1    0    0    0  501 -0.00000000000E+00  0.00000000000E+00  0.55814977019E+01  0.55814982844E+01  0.25500000000E-02 0. -1.
          2   -1    0    0  501    0  0.00000000000E+00 -0.00000000000E+00 -0.23371276262E+04  0.23371276262E+04  0.25500000000E-02 0.  1.
    5000001    1    1    2    0    0  0.28674441496E+02 -0.78209666831E+02 -0.10294444343E+04  0.10356755375E+04  0.77000000000E+02 0.  0.
   -5000001    1    1    2    0    0 -0.28674441496E+02  0.78209666831E+02 -0.13021016941E+04  0.13070335869E+04  0.77000000000E+02 0.  0.
<mgrwt>
<rscale>  0 0.22842656E+03</rscale>
<asrwt>0</asrwt>
<pdfrwt beam="1">  1        2 0.35955732E+00 0.22842656E+03</pdfrwt>
<pdfrwt beam="2">  1       -2 0.85869386E-03 0.22842656E+03</pdfrwt>
<totfact> 0.13035559E+04</totfact>
</mgrwt>
</event>
<event>
 4    1  0.6122885E-004  0.3382594E+03  0.7818608E-02  0.1067540E+00
         -2   -1    0    0    0  501 -0.00000000000E+00  0.00000000000E+00  0.43955118831E+02  0.43955118905E+02  0.25500000000E-02 0. -1.
          2   -1    0    0  501    0  0.00000000000E+00 -0.00000000000E+00 -0.65077400016E+03  0.65077400017E+03  0.25500000000E-02 0.  1.
    5000001    1    1    2    0    0  0.93474694782E+02  0.10839149885E+03 -0.39951518727E+03  0.43130919355E+03  0.77000000000E+02 0.  0.
   -5000001    1    1    2    0    0 -0.93474694782E+02 -0.10839149885E+03 -0.20730369407E+03  0.26341992552E+03  0.77000000000E+02 0.  0.
<mgrwt>
<rscale>  0 0.33825936E+03</rscale>
<asrwt>0</asrwt>
<pdfrwt beam="1">  1        2 0.10011907E+00 0.33825936E+03</pdfrwt>
<pdfrwt beam="2">  1       -2 0.67623264E-02 0.33825936E+03</pdfrwt>
<totfact> 0.56535276E+03</totfact>
</mgrwt>
</event>
<event>
 4    1  0.6122885E-004  0.2290898E+03  0.7818608E-02  0.1127282E+00
          2   -1    0    0  501    0  0.00000000000E+00  0.00000000000E+00  0.49568217510E+03  0.49568217510E+03  0.25500000000E-02 0.  1.
         -2   -1    0    0    0  501 -0.00000000000E+00 -0.00000000000E+00 -0.26469660231E+02  0.26469660354E+02  0.25500000000E-02 0. -1.
    5000001    1    1    2    0    0  0.68638102222E+02 -0.24593596813E+02  0.13589877889E+03  0.17237607776E+03  0.77000000000E+02 0.  0.
   -5000001    1    1    2    0    0 -0.68638102222E+02  0.24593596813E+02  0.33331373598E+03  0.34977575770E+03  0.77000000000E+02 0.  0.
<mgrwt>
<rscale>  0 0.22908984E+03</rscale>
<asrwt>0</asrwt>
<pdfrwt beam="1">  1        2 0.76258802E-01 0.22908984E+03</pdfrwt>
<pdfrwt beam="2">  1       -2 0.40722551E-02 0.22908984E+03</pdfrwt>
<totfact> 0.16512347E+04</totfact>
</mgrwt>
</event>
<event>
 4    1  0.6122885E-004  0.2908293E+03  0.7818608E-02  0.1089917E+00
         -2   -1    0    0    0  501 -0.00000000000E+00  0.00000000000E+00  0.64668106225E+02  0.64668106275E+02  0.25500000000E-02 0. -1.
          2   -1    0    0  501    0  0.00000000000E+00 -0.00000000000E+00 -0.32698370591E+03  0.32698370592E+03  0.25500000000E-02 0.  1.
    5000001    1    1    2    0    0  0.94861590468E+02  0.36676303453E+02 -0.22516041210E+03  0.25878578740E+03  0.77000000000E+02 0.  0.
   -5000001    1    1    2    0    0 -0.94861590468E+02 -0.36676303453E+02 -0.37155187584E+02  0.13286602480E+03  0.77000000000E+02 0.  0.
<mgrwt>
<rscale>  0 0.29082928E+03</rscale>
<asrwt>0</asrwt>
<pdfrwt beam="1">  1        2 0.50305185E-01 0.29082928E+03</pdfrwt>
<pdfrwt beam="2">  1       -2 0.99489396E-02 0.29082928E+03</pdfrwt>
<totfact> 0.66320461E+03</totfact>
</mgrwt>
</event>
<event>
 4    1  0.6122885E-004  0.1752647E+03  0.7818608E-02  0.1172466E+00
         -2   -1    0    0    0  501 -0.00000000000E+00  0.00000000000E+00  0.69954147131E+01  0.69954151778E+01  0.25500000000E-02 0. -1.
          2   -1    0    0  501    0  0.00000000000E+00 -0.00000000000E+00 -0.10977807975E+04  0.10977807975E+04  0.25500000000E-02 0.  1.
    5000001    1    1    2    0    0 -0.39899603133E+02 -0.11973658271E+02 -0.56987531006E+03  0.57656067837E+03  0.77000000000E+02 0.  0.
   -5000001    1    1    2    0    0  0.39899603133E+02  0.11973658271E+02 -0.52091007273E+03  0.52821553432E+03  0.77000000000E+02 0.  0.
<mgrwt>
<rscale>  0 0.17526474E+03</rscale>
<asrwt>0</asrwt>
<pdfrwt beam="1">  1        2 0.16888922E+00 0.17526474E+03</pdfrwt>
<pdfrwt beam="2">  1       -2 0.10762186E-02 0.17526474E+03</pdfrwt>
<totfact> 0.42393914E+04</totfact>
</mgrwt>
</event>
<event>
 4    1  0.6122885E-004  0.2452717E+03  0.7818608E-02  0.1116330E+00
         -2   -1    0    0    0  501 -0.00000000000E+00  0.00000000000E+00  0.54327236498E+01  0.54327242482E+01  0.25500000000E-02 0. -1.
          2   -1    0    0  501    0  0.00000000000E+00 -0.00000000000E+00 -0.27683266590E+04  0.27683266590E+04  0.25500000000E-02 0.  1.
    5000001    1    1    2    0    0 -0.33565055834E+02 -0.71034034387E+02 -0.76845448992E+03  0.77628844516E+03  0.77000000000E+02 0.  0.
   -5000001    1    1    2    0    0  0.33565055834E+02  0.71034034387E+02 -0.19944394455E+04  0.19974709381E+04  0.77000000000E+02 0.  0.
<mgrwt>
<rscale>  0 0.24527172E+03</rscale>
<asrwt>0</asrwt>
<pdfrwt beam="1">  1        2 0.42589528E+00 0.24527172E+03</pdfrwt>
<pdfrwt beam="2">  1       -2 0.83580589E-03 0.24527172E+03</pdfrwt>
<totfact> 0.78586885E+03</totfact>
</mgrwt>
</event>
<event>
 4    1  0.6122885E-004  0.3019014E+03  0.7818608E-02  0.1084294E+00
         -2   -1    0    0    0  501 -0.00000000000E+00  0.00000000000E+00  0.13162756952E+03  0.13162756955E+03  0.25500000000E-02 0. -1.
          2   -1    0    0  501    0  0.00000000000E+00 -0.00000000000E+00 -0.17311047286E+03  0.17311047288E+03  0.25500000000E-02 0.  1.
    5000001    1    1    2    0    0 -0.66066809079E+02 -0.70470608906E+02 -0.10831015108E+03  0.16428943609E+03  0.77000000000E+02 0.  0.
   -5000001    1    1    2    0    0  0.66066809079E+02  0.70470608906E+02  0.66827247746E+02  0.14044860634E+03  0.77000000000E+02 0.  0.
<mgrwt>
<rscale>  0 0.30190138E+03</rscale>
<asrwt>0</asrwt>
<pdfrwt beam="1">  1        2 0.26632380E-01 0.30190138E+03</pdfrwt>
<pdfrwt beam="2">  1       -2 0.20250395E-01 0.30190138E+03</pdfrwt>
<totfact> 0.41131113E+03</totfact>
</mgrwt>
</event>
<event>
 4    1  0.6122885E-004  0.2528973E+03  0.7818608E-02  0.1111487E+00
          2   -1    0    0  501    0  0.00000000000E+00  0.00000000000E+00  0.79675382479E+03  0.79675382480E+03  0.25500000000E-02 0.  1.
         -2   -1    0    0    0  501 -0.00000000000E+00 -0.00000000000E+00 -0.20068010034E+02  0.20068010196E+02  0.25500000000E-02 0. -1.
    5000001    1    1    2    0    0 -0.82750014742E+02 -0.43561264618E+02  0.50547205737E+03  0.51978471457E+03  0.77000000000E+02 0.  0.
   -5000001    1    1    2    0    0  0.82750014742E+02  0.43561264618E+02  0.27121375739E+03  0.29703712043E+03  0.77000000000E+02 0.  0.
<mgrwt>
<rscale>  0 0.25289732E+03</rscale>
<asrwt>0</asrwt>
<pdfrwt beam="1">  1        2 0.12257749E+00 0.25289732E+03</pdfrwt>
<pdfrwt beam="2">  1       -2 0.30873868E-02 0.25289732E+03</pdfrwt>
<totfact> 0.14352006E+04</totfact>
</mgrwt>
</event>
<event>
 4    1  0.6122885E-004  0.3110879E+03  0.7818608E-02  0.1079826E+00
          2   -1    0    0  501    0  0.00000000000E+00  0.00000000000E+00  0.24463806161E+03  0.24463806162E+03  0.25500000000E-02 0.  1.
         -2   -1    0    0    0  501 -0.00000000000E+00 -0.00000000000E+00 -0.98896800840E+02  0.98896800873E+02  0.25500000000E-02 0. -1.
    5000001    1    1    2    0    0  0.11458518337E+03  0.56638618637E+01 -0.60160703029E+01  0.13830053030E+03  0.77000000000E+02 0.  0.
   -5000001    1    1    2    0    0 -0.11458518337E+03 -0.56638618637E+01  0.15175733107E+03  0.20523433220E+03  0.77000000000E+02 0.  0.
<mgrwt>
<rscale>  0 0.31108791E+03</rscale>
<asrwt>0</asrwt>
<pdfrwt beam="1">  1        2 0.37636625E-01 0.31108791E+03</pdfrwt>
<pdfrwt beam="2">  1       -2 0.15214892E-01 0.31108791E+03</pdfrwt>
<totfact> 0.45616217E+03</totfact>
</mgrwt>
</event>
<event>
 4    1  0.6122885E-004  0.2261341E+03  0.7818608E-02  0.1129391E+00
          2   -1    0    0  501    0  0.00000000000E+00  0.00000000000E+00  0.67574867873E+02  0.67574867921E+02  0.25500000000E-02 0.  1.
         -2   -1    0    0    0  501 -0.00000000000E+00 -0.00000000000E+00 -0.18918509348E+03  0.18918509349E+03  0.25500000000E-02 0. -1.
    5000001    1    1    2    0    0 -0.66051129981E+02  0.49859995097E+02 -0.63674595492E+02  0.12973906503E+03  0.77000000000E+02 0.  0.
   -5000001    1    1    2    0    0  0.66051129981E+02 -0.49859995097E+02 -0.57935630111E+02  0.12702089639E+03  0.77000000000E+02 0.  0.
<mgrwt>
<rscale>  0 0.22613410E+03</rscale>
<asrwt>0</asrwt>
<pdfrwt beam="1">  1        2 0.10396134E-01 0.22613410E+03</pdfrwt>
<pdfrwt beam="2">  1       -2 0.29105399E-01 0.22613410E+03</pdfrwt>
<totfact> 0.64707812E+03</totfact>
</mgrwt>
</event>
<event>
 4    1  0.6122885E-004  0.2481657E+03  0.7818608E-02  0.1114470E+00
         -2   -1    0    0    0  501 -0.00000000000E+00  0.00000000000E+00  0.10775927218E+02  0.10775927520E+02  0.25500000000E-02 0. -1.
          2   -1    0    0  501    0  0.00000000000E+00 -0.00000000000E+00 -0.14287920675E+04  0.14287920675E+04  0.25500000000E-02 0.  1.
    5000001    1    1    2    0    0  0.22798039751E+02 -0.94466904795E+02 -0.73731520098E+03  0.74766734068E+03  0.77000000000E+02 0.  0.
   -5000001    1    1    2    0    0 -0.22798039751E+02  0.94466904795E+02 -0.68070093930E+03  0.69190065435E+03  0.77000000000E+02 0.  0.
<mgrwt>
<rscale>  0 0.24816575E+03</rscale>
<asrwt>0</asrwt>
<pdfrwt beam="1">  1        2 0.21981401E+00 0.24816575E+03</pdfrwt>
<pdfrwt beam="2">  1       -2 0.16578361E-02 0.24816575E+03</pdfrwt>
<totfact> 0.15126515E+04</totfact>
</mgrwt>
</event>
<event>
 4    1  0.6122885E-004  0.1645801E+03  0.7818608E-02  0.1183621E+00
          2   -1    0    0  501    0  0.00000000000E+00  0.00000000000E+00  0.18437932409E+03  0.18437932411E+03  0.25500000000E-02 0.  1.
         -2   -1    0    0    0  501 -0.00000000000E+00 -0.00000000000E+00 -0.36726747587E+02  0.36726747676E+02  0.25500000000E-02 0. -1.
    5000001    1    1    2    0    0 -0.89706159384E+01  0.14173616946E+02  0.10565483451E+03  0.13180784279E+03  0.77000000000E+02 0.  0.
   -5000001    1    1    2    0    0  0.89706159384E+01 -0.14173616946E+02  0.41997741995E+02  0.89298228988E+02  0.77000000000E+02 0.  0.
<mgrwt>
<rscale>  0 0.16458011E+03</rscale>
<asrwt>0</asrwt>
<pdfrwt beam="1">  1        2 0.28366049E-01 0.16458011E+03</pdfrwt>
<pdfrwt beam="2">  1       -2 0.56502690E-02 0.16458011E+03</pdfrwt>
<totfact> 0.28571567E+04</totfact>
</mgrwt>
</event>
<event>
 4    1  0.6122885E-004  0.2120651E+03  0.7818608E-02  0.1139941E+00
         -2   -1    0    0    0  501 -0.00000000000E+00  0.00000000000E+00  0.12530762046E+02  0.12530762306E+02  0.25500000000E-02 0. -1.
          2   -1    0    0  501    0  0.00000000000E+00 -0.00000000000E+00 -0.89722389230E+03  0.89722389231E+03  0.25500000000E-02 0.  1.
    5000001    1    1    2    0    0 -0.24353648611E+02 -0.66861152663E+02 -0.51022933091E+03  0.52089008827E+03  0.77000000000E+02 0.  0.
   -5000001    1    1    2    0    0  0.24353648611E+02  0.66861152663E+02 -0.37446379935E+03  0.38886456635E+03  0.77000000000E+02 0.  0.
<mgrwt>
<rscale>  0 0.21206508E+03</rscale>
<asrwt>0</asrwt>
<pdfrwt beam="1">  1        2 0.13803439E+00 0.21206508E+03</pdfrwt>
<pdfrwt beam="2">  1       -2 0.19278103E-02 0.21206508E+03</pdfrwt>
<totfact> 0.24414475E+04</totfact>
</mgrwt>
</event>
<event>
 4    1  0.6122885E-004  0.3235511E+03  0.7818608E-02  0.1074026E+00
         -2   -1    0    0    0  501 -0.00000000000E+00  0.00000000000E+00  0.18658735322E+02  0.18658735497E+02  0.25500000000E-02 0. -1.
          2   -1    0    0  501    0  0.00000000000E+00 -0.00000000000E+00 -0.14026313113E+04  0.14026313113E+04  0.25500000000E-02 0.  1.
    5000001    1    1    2    0    0  0.76402408163E+02  0.89311271325E+02 -0.10441904782E+04  0.10536017208E+04  0.77000000000E+02 0.  0.
   -5000001    1    1    2    0    0 -0.76402408163E+02 -0.89311271325E+02 -0.33978209779E+03  0.36768832608E+03  0.77000000000E+02 0.  0.
<mgrwt>
<rscale>  0 0.32355109E+03</rscale>
<asrwt>0</asrwt>
<pdfrwt beam="1">  1        2 0.21578935E+00 0.32355109E+03</pdfrwt>
<pdfrwt beam="2">  1       -2 0.28705758E-02 0.32355109E+03</pdfrwt>
<totfact> 0.69879071E+03</totfact>
</mgrwt>
</event>
<event>
 4    1  0.6122885E-004  0.2974307E+03  0.7818608E-02  0.1086532E+00
         -2   -1    0    0    0  501 -0.00000000000E+00  0.00000000000E+00  0.79110229987E+02  0.79110230028E+02  0.25500000000E-02 0. -1.
          2   -1    0    0  501    0  0.00000000000E+00 -0.00000000000E+00 -0.27956254235E+03  0.27956254236E+03  0.25500000000E-02 0.  1.
    5000001    1    1    2    0    0 -0.25994443435E+02  0.23167795985E+02 -0.24779446600E+03  0.26180824136E+03  0.77000000000E+02 0.  0.
   -5000001    1    1    2    0    0  0.25994443435E+02 -0.23167795985E+02  0.47342153643E+02  0.96864531031E+02  0.77000000000E+02 0.  0.
<mgrwt>
<rscale>  0 0.29743071E+03</rscale>
<asrwt>0</asrwt>
<pdfrwt beam="1">  1        2 0.43009621E-01 0.29743071E+03</pdfrwt>
<pdfrwt beam="2">  1       -2 0.12170805E-01 0.29743071E+03</pdfrwt>
<totfact> 0.56859417E+03</totfact>
</mgrwt>
</event>
<event>
 4    1  0.6122885E-004  0.2180400E+03  0.7818608E-02  0.1135353E+00
          2   -1    0    0  501    0  0.00000000000E+00  0.00000000000E+00  0.15290463014E+04  0.15290463014E+04  0.25500000000E-02 0.  1.
         -2   -1    0    0    0  501 -0.00000000000E+00 -0.00000000000E+00 -0.77730545682E+01  0.77730549865E+01  0.25500000000E-02 0. -1.
    5000001    1    1    2    0    0 -0.23891143124E+02  0.72328720526E+02  0.84814112865E+03  0.85502900807E+03  0.77000000000E+02 0.  0.
   -5000001    1    1    2    0    0  0.23891143124E+02 -0.72328720526E+02  0.67313211817E+03  0.68179034830E+03  0.77000000000E+02 0.  0.
<mgrwt>
<rscale>  0 0.21804000E+03</rscale>
<asrwt>0</asrwt>
<pdfrwt beam="1">  1        2 0.23523803E+00 0.21804000E+03</pdfrwt>
<pdfrwt beam="2">  1       -2 0.11958539E-02 0.21804000E+03</pdfrwt>
<totfact> 0.21405794E+04</totfact>
</mgrwt>
</event>
<event>
 4    1  0.6122885E-004  0.2722257E+03  0.7818608E-02  0.1100012E+00
          2   -1    0    0  501    0  0.00000000000E+00  0.00000000000E+00  0.19390563164E+03  0.19390563165E+03  0.25500000000E-02 0.  1.
         -2   -1    0    0    0  501 -0.00000000000E+00 -0.00000000000E+00 -0.95544970890E+02  0.95544970924E+02  0.25500000000E-02 0. -1.
    5000001    1    1    2    0    0 -0.10613114108E+03  0.16596490599E+02  0.14588021471E+02  0.13297019582E+03  0.77000000000E+02 0.  0.
   -5000001    1    1    2    0    0  0.10613114108E+03 -0.16596490599E+02  0.83772639276E+02  0.15648040675E+03  0.77000000000E+02 0.  0.
<mgrwt>
<rscale>  0 0.27222570E+03</rscale>
<asrwt>0</asrwt>
<pdfrwt beam="1">  1        2 0.29831635E-01 0.27222570E+03</pdfrwt>
<pdfrwt beam="2">  1       -2 0.14699226E-01 0.27222570E+03</pdfrwt>
<totfact> 0.61972713E+03</totfact>
</mgrwt>
</event>
<event>
 4    1  0.6122885E-004  0.2659543E+03  0.7818608E-02  0.1103618E+00
         -2   -1    0    0    0  501 -0.00000000000E+00  0.00000000000E+00  0.13152253700E+02  0.13152253947E+02  0.25500000000E-02 0. -1.
          2   -1    0    0  501    0  0.00000000000E+00 -0.00000000000E+00 -0.13444786841E+04  0.13444786841E+04  0.25500000000E-02 0.  1.
    5000001    1    1    2    0    0  0.10579266056E+03 -0.23045402949E+02 -0.69396918971E+03  0.70657300677E+03  0.77000000000E+02 0.  0.
   -5000001    1    1    2    0    0 -0.10579266056E+03  0.23045402949E+02 -0.63735724073E+03  0.65105793132E+03  0.77000000000E+02 0.  0.
<mgrwt>
<rscale>  0 0.26595432E+03</rscale>
<asrwt>0</asrwt>
<pdfrwt beam="1">  1        2 0.20684277E+00 0.26595432E+03</pdfrwt>
<pdfrwt beam="2">  1       -2 0.20234247E-02 0.26595432E+03</pdfrwt>
<totfact> 0.12576160E+04</totfact>
</mgrwt>
</event>
<event>
 4    1  0.6122885E-004  0.6252245E+03  0.7818608E-02  0.9854412E-01
          2   -1    0    0  501    0  0.00000000000E+00  0.00000000000E+00  0.28261549206E+04  0.28261549206E+04  0.25500000000E-02 0.  1.
         -2   -1    0    0    0  501 -0.00000000000E+00 -0.00000000000E+00 -0.34579288866E+02  0.34579288960E+02  0.25500000000E-02 0. -1.
    5000001    1    1    2    0    0  0.21498102241E+03 -0.19598364349E+03  0.17832517943E+04  0.18084640970E+04  0.77000000000E+02 0.  0.
   -5000001    1    1    2    0    0 -0.21498102241E+03  0.19598364349E+03  0.10083238375E+04  0.10522701125E+04  0.77000000000E+02 0.  0.
<mgrwt>
<rscale>  0 0.62522453E+03</rscale>
<asrwt>0</asrwt>
<pdfrwt beam="1">  1        2 0.43479309E+00 0.62522453E+03</pdfrwt>
<pdfrwt beam="2">  1       -2 0.53198902E-02 0.62522453E+03</pdfrwt>
<totfact> 0.44390243E+02</totfact>
</mgrwt>
</event>
<event>
 4    1  0.6122885E-004  0.2481238E+03  0.7818608E-02  0.1114496E+00
          2   -1    0    0  501    0  0.00000000000E+00  0.00000000000E+00  0.23108664578E+03  0.23108664580E+03  0.25500000000E-02 0.  1.
         -2   -1    0    0    0  501 -0.00000000000E+00 -0.00000000000E+00 -0.66604278181E+02  0.66604278230E+02  0.25500000000E-02 0. -1.
    5000001    1    1    2    0    0  0.38120750724E+02  0.88239998076E+02  0.10015232515E+03  0.15874185689E+03  0.77000000000E+02 0.  0.
   -5000001    1    1    2    0    0 -0.38120750724E+02 -0.88239998076E+02  0.64330042450E+02  0.13894906714E+03  0.77000000000E+02 0.  0.
<mgrwt>
<rscale>  0 0.24812383E+03</rscale>
<asrwt>0</asrwt>
<pdfrwt beam="1">  1        2 0.35551792E-01 0.24812383E+03</pdfrwt>
<pdfrwt beam="2">  1       -2 0.10246812E-01 0.24812383E+03</pdfrwt>
<totfact> 0.91407052E+03</totfact>
</mgrwt>
</event>
<event>
 4    1  0.6122885E-004  0.3188870E+03  0.7818608E-02  0.1076163E+00
         -2   -1    0    0    0  501 -0.00000000000E+00  0.00000000000E+00  0.79629338725E+03  0.79629338726E+03  0.25500000000E-02 0. -1.
          2   -1    0    0  501    0  0.00000000000E+00 -0.00000000000E+00 -0.31925708824E+02  0.31925708926E+02  0.25500000000E-02 0.  1.
    5000001    1    1    2    0    0 -0.11808057546E+03 -0.13717772357E+02  0.57236744918E+03  0.58963098329E+03  0.77000000000E+02 0.  0.
   -5000001    1    1    2    0    0  0.11808057546E+03  0.13717772357E+02  0.19200022926E+03  0.23858811289E+03  0.77000000000E+02 0.  0.
<mgrwt>
<rscale>  0 0.31888701E+03</rscale>
<asrwt>0</asrwt>
<pdfrwt beam="1">  1        2 0.49116481E-02 0.31888701E+03</pdfrwt>
<pdfrwt beam="2">  1       -2 0.12250666E+00 0.31888701E+03</pdfrwt>
<totfact> 0.85316961E+02</totfact>
</mgrwt>
</event>
<event>
 4    1  0.6122885E-004  0.2109377E+03  0.7818608E-02  0.1140826E+00
         -2   -1    0    0    0  501 -0.00000000000E+00  0.00000000000E+00  0.13986012105E+02  0.13986012337E+02  0.25500000000E-02 0. -1.
          2   -1    0    0  501    0  0.00000000000E+00 -0.00000000000E+00 -0.79534318971E+03  0.79534318971E+03  0.25500000000E-02 0.  1.
    5000001    1    1    2    0    0 -0.57810371361E+02  0.42438648153E+02 -0.36311708540E+03  0.37805567791E+03  0.77000000000E+02 0.  0.
   -5000001    1    1    2    0    0  0.57810371361E+02 -0.42438648153E+02 -0.41824009221E+03  0.43127352414E+03  0.77000000000E+02 0.  0.
<mgrwt>
<rscale>  0 0.21093771E+03</rscale>
<asrwt>0</asrwt>
<pdfrwt beam="1">  1        2 0.12236046E+00 0.21093771E+03</pdfrwt>
<pdfrwt beam="2">  1       -2 0.21516948E-02 0.21093771E+03</pdfrwt>
<totfact> 0.24279005E+04</totfact>
</mgrwt>
</event>
<event>
 4    1  0.6122885E-004  0.1800624E+03  0.7818608E-02  0.1167743E+00
          2   -1    0    0  501    0  0.00000000000E+00  0.00000000000E+00  0.20435515564E+04  0.20435515564E+04  0.25500000000E-02 0.  1.
         -2   -1    0    0    0  501 -0.00000000000E+00 -0.00000000000E+00 -0.39664373444E+01  0.39664381641E+01  0.25500000000E-02 0. -1.
    5000001    1    1    2    0    0  0.32640313328E+02 -0.23959816879E+02  0.75624724526E+03  0.76123475935E+03  0.77000000000E+02 0.  0.
   -5000001    1    1    2    0    0 -0.32640313328E+02  0.23959816879E+02  0.12833378738E+04  0.12862832352E+04  0.77000000000E+02 0.  0.
<mgrwt>
<rscale>  0 0.18006243E+03</rscale>
<asrwt>0</asrwt>
<pdfrwt beam="1">  1        2 0.31439401E+00 0.18006243E+03</pdfrwt>
<pdfrwt beam="2">  1       -2 0.61021835E-03 0.18006243E+03</pdfrwt>
<totfact> 0.30140439E+04</totfact>
</mgrwt>
</event>
<event>
 4    1  0.6122885E-004  0.1957910E+03  0.7818608E-02  0.1153339E+00
         -2   -1    0    0    0  501 -0.00000000000E+00  0.00000000000E+00  0.11812177661E+04  0.11812177661E+04  0.25500000000E-02 0. -1.
          2   -1    0    0  501    0  0.00000000000E+00 -0.00000000000E+00 -0.81132636157E+01  0.81132640164E+01  0.25500000000E-02 0.  1.
    5000001    1    1    2    0    0  0.21217234439E+02 -0.51971249385E+02  0.45026826803E+03  0.46024090973E+03  0.77000000000E+02 0.  0.
   -5000001    1    1    2    0    0 -0.21217234439E+02  0.51971249385E+02  0.72283623442E+03  0.72909012035E+03  0.77000000000E+02 0.  0.
<mgrwt>
<rscale>  0 0.19579102E+03</rscale>
<asrwt>0</asrwt>
<pdfrwt beam="1">  1        2 0.12481950E-02 0.19579102E+03</pdfrwt>
<pdfrwt beam="2">  1       -2 0.18172572E+00 0.19579102E+03</pdfrwt>
<totfact> 0.19676256E+03</totfact>
</mgrwt>
</event>
<event>
 4    1  0.6122885E-004  0.3471403E+03  0.7818608E-02  0.1063795E+00
          2   -1    0    0  501    0  0.00000000000E+00  0.00000000000E+00  0.10379248138E+03  0.10379248141E+03  0.25500000000E-02 0. -1.
         -2   -1    0    0    0  501 -0.00000000000E+00 -0.00000000000E+00 -0.29025799251E+03  0.29025799253E+03  0.25500000000E-02 0.  1.
    5000001    1    1    2    0    0 -0.92928578233E+01  0.14386502146E+03 -0.26906624961E+02  0.16563957279E+03  0.77000000000E+02 0.  0.
   -5000001    1    1    2    0    0  0.92928578233E+01 -0.14386502146E+03 -0.15955888617E+03  0.22841090115E+03  0.77000000000E+02 0.  0.
<mgrwt>
<rscale>  0 0.34714030E+03</rscale>
<asrwt>0</asrwt>
<pdfrwt beam="1">  1        2 0.15968074E-01 0.34714030E+03</pdfrwt>
<pdfrwt beam="2">  1       -2 0.44655076E-01 0.34714030E+03</pdfrwt>
<totfact> 0.17477978E+03</totfact>
</mgrwt>
</event>
<event>
 4    1  0.6122885E-004  0.3284110E+03  0.7818608E-02  0.1071842E+00
          2   -1    0    0  501    0  0.00000000000E+00  0.00000000000E+00  0.18708133417E+04  0.18708133417E+04  0.25500000000E-02 0.  1.
         -2   -1    0    0    0  501 -0.00000000000E+00 -0.00000000000E+00 -0.14412683146E+02  0.14412683372E+02  0.25500000000E-02 0. -1.
    5000001    1    1    2    0    0  0.13580870891E+03  0.38224214867E+02  0.73528847002E+03  0.75265080227E+03  0.77000000000E+02 0.  0.
   -5000001    1    1    2    0    0 -0.13580870891E+03 -0.38224214867E+02  0.11211121885E+04  0.11325752228E+04  0.77000000000E+02 0.  0.
<mgrwt>
<rscale>  0 0.32841096E+03</rscale>
<asrwt>0</asrwt>
<pdfrwt beam="1">  1        2 0.28781737E+00 0.32841096E+03</pdfrwt>
<pdfrwt beam="2">  1       -2 0.22173364E-02 0.32841096E+03</pdfrwt>
<totfact> 0.57707171E+03</totfact>
</mgrwt>
</event>
<event>
 4    1  0.6122885E-004  0.1935657E+03  0.7818608E-02  0.1155284E+00
         -2   -1    0    0    0  501 -0.00000000000E+00  0.00000000000E+00  0.47224861343E+03  0.47224861344E+03  0.25500000000E-02 0. -1.
          2   -1    0    0  501    0  0.00000000000E+00 -0.00000000000E+00 -0.19834714735E+02  0.19834714899E+02  0.25500000000E-02 0.  1.
    5000001    1    1    2    0    0 -0.53710466497E+02  0.22939222083E+02  0.21302311669E+03  0.23392064972E+03  0.77000000000E+02 0.  0.
   -5000001    1    1    2    0    0  0.53710466497E+02 -0.22939222083E+02  0.23939078201E+03  0.25816267862E+03  0.77000000000E+02 0.  0.
<mgrwt>
<rscale>  0 0.19356566E+03</rscale>
<asrwt>0</asrwt>
<pdfrwt beam="1">  1        2 0.30514944E-02 0.19356566E+03</pdfrwt>
<pdfrwt beam="2">  1       -2 0.72653636E-01 0.19356566E+03</pdfrwt>
<totfact> 0.52452696E+03</totfact>
</mgrwt>
</event>
<event>
 4    1  0.6122885E-004  0.2178274E+03  0.7818608E-02  0.1135513E+00
         -2   -1    0    0    0  501 -0.00000000000E+00  0.00000000000E+00  0.15261205372E+02  0.15261205585E+02  0.25500000000E-02 0. -1.
          2   -1    0    0  501    0  0.00000000000E+00 -0.00000000000E+00 -0.77727789603E+03  0.77727789603E+03  0.25500000000E-02 0.  1.
    5000001    1    1    2    0    0  0.67491634575E+02 -0.34095408182E+02 -0.32758729165E+03  0.34490585853E+03  0.77000000000E+02 0.  0.
   -5000001    1    1    2    0    0 -0.67491634575E+02  0.34095408182E+02 -0.43442939901E+03  0.44763324309E+03  0.77000000000E+02 0.  0.
<mgrwt>
<rscale>  0 0.21782743E+03</rscale>
<asrwt>0</asrwt>
<pdfrwt beam="1">  1        2 0.11958118E+00 0.21782743E+03</pdfrwt>
<pdfrwt beam="2">  1       -2 0.23478784E-02 0.21782743E+03</pdfrwt>
<totfact> 0.22027211E+04</totfact>
</mgrwt>
</event>
<event>
 4    1  0.6122885E-004  0.1952116E+03  0.7818608E-02  0.1153843E+00
          2   -1    0    0  501    0  0.00000000000E+00  0.00000000000E+00  0.50454848525E+03  0.50454848526E+03  0.25500000000E-02 0.  1.
         -2   -1    0    0    0  501 -0.00000000000E+00 -0.00000000000E+00 -0.18882010945E+02  0.18882011117E+02  0.25500000000E-02 0. -1.
    5000001    1    1    2    0    0 -0.44801712053E+02 -0.32949834674E+02  0.18257709620E+03  0.20580641648E+03  0.77000000000E+02 0.  0.
   -5000001    1    1    2    0    0  0.44801712053E+02  0.32949834674E+02  0.30308937811E+03  0.31762407989E+03  0.77000000000E+02 0.  0.
<mgrwt>
<rscale>  0 0.19521158E+03</rscale>
<asrwt>0</asrwt>
<pdfrwt beam="1">  1        2 0.77622851E-01 0.19521158E+03</pdfrwt>
<pdfrwt beam="2">  1       -2 0.29049245E-02 0.19521158E+03</pdfrwt>
<totfact> 0.26486953E+04</totfact>
</mgrwt>
</event>
<event>
 4    1  0.6122885E-004  0.2333034E+03  0.7818608E-02  0.1124336E+00
         -2   -1    0    0    0  501 -0.00000000000E+00  0.00000000000E+00  0.45490148791E+03  0.45490148791E+03  0.25500000000E-02 0. -1.
          2   -1    0    0  501    0  0.00000000000E+00 -0.00000000000E+00 -0.29913323488E+02  0.29913323597E+02  0.25500000000E-02 0.  1.
    5000001    1    1    2    0    0 -0.14507468779E+02  0.86406180468E+02  0.21552027303E+03  0.24506016152E+03  0.77000000000E+02 0.  0.
   -5000001    1    1    2    0    0  0.14507468779E+02 -0.86406180468E+02  0.20946789139E+03  0.23975465000E+03  0.77000000000E+02 0.  0.
<mgrwt>
<rscale>  0 0.23330337E+03</rscale>
<asrwt>0</asrwt>
<pdfrwt beam="1">  1        2 0.46020500E-02 0.23330337E+03</pdfrwt>
<pdfrwt beam="2">  1       -2 0.69984841E-01 0.23330337E+03</pdfrwt>
<totfact> 0.33119899E+03</totfact>
</mgrwt>
</event>
<event>
 4    1  0.6122885E-004  0.3387138E+03  0.7818608E-02  0.1067345E+00
         -2   -1    0    0    0  501 -0.00000000000E+00  0.00000000000E+00  0.11350569031E+02  0.11350569317E+02  0.25500000000E-02 0.  1.
          2   -1    0    0  501    0  0.00000000000E+00 -0.00000000000E+00 -0.25269003962E+04  0.25269003962E+04  0.25500000000E-02 0. -1.
    5000001    1    1    2    0    0  0.47326666130E+02  0.38975136185E+02 -0.22905566849E+04  0.22926704520E+04  0.77000000000E+02 0.  0.
   -5000001    1    1    2    0    0 -0.47326666130E+02 -0.38975136185E+02 -0.22499314222E+03  0.24558051351E+03  0.77000000000E+02 0.  0.
<mgrwt>
<rscale>  0 0.33871379E+03</rscale>
<asrwt>0</asrwt>
<pdfrwt beam="1">  1        2 0.38875346E+00 0.33871379E+03</pdfrwt>
<pdfrwt beam="2">  1       -2 0.17462434E-02 0.33871379E+03</pdfrwt>
<totfact> 0.36462625E+03</totfact>
</mgrwt>
</event>
<event>
 4    1  0.6122885E-004  0.4403527E+03  0.7818608E-02  0.1030639E+00
          2   -1    0    0  501    0  0.00000000000E+00  0.00000000000E+00  0.35714702079E+03  0.35714702080E+03  0.25500000000E-02 0.  1.
         -2   -1    0    0    0  501 -0.00000000000E+00 -0.00000000000E+00 -0.13573577385E+03  0.13573577388E+03  0.25500000000E-02 0. -1.
    5000001    1    1    2    0    0 -0.27191764752E+02 -0.19281351340E+03  0.18688473392E+03  0.28066233591E+03  0.77000000000E+02 0.  0.
   -5000001    1    1    2    0    0  0.27191764752E+02  0.19281351340E+03  0.34526513013E+02  0.21222045877E+03  0.77000000000E+02 0.  0.
<mgrwt>
<rscale>  0 0.44035271E+03</rscale>
<asrwt>0</asrwt>
<pdfrwt beam="1">  1        2 0.54945695E-01 0.44035271E+03</pdfrwt>
<pdfrwt beam="2">  1       -2 0.20882427E-01 0.44035271E+03</pdfrwt>
<totfact> 0.17752724E+03</totfact>
</mgrwt>
</event>
<event>
 4    1  0.6122885E-004  0.1626659E+03  0.7818608E-02  0.1185719E+00
         -2   -1    0    0    0  501 -0.00000000000E+00  0.00000000000E+00  0.10499933628E+02  0.10499933938E+02  0.25500000000E-02 0. -1.
          2   -1    0    0  501    0  0.00000000000E+00 -0.00000000000E+00 -0.63000842175E+03  0.63000842175E+03  0.25500000000E-02 0.  1.
    5000001    1    1    2    0    0 -0.24744104965E+02 -0.71875163885E+01 -0.32827154267E+03  0.33816436366E+03  0.77000000000E+02 0.  0.
   -5000001    1    1    2    0    0  0.24744104965E+02  0.71875163885E+01 -0.29123694545E+03  0.30234399203E+03  0.77000000000E+02 0.  0.
<mgrwt>
<rscale>  0 0.16266587E+03</rscale>
<asrwt>0</asrwt>
<pdfrwt beam="1">  1        2 0.96924343E-01 0.16266587E+03</pdfrwt>
<pdfrwt beam="2">  1       -2 0.16153749E-02 0.16266587E+03</pdfrwt>
<totfact> 0.47835909E+04</totfact>
</mgrwt>
</event>
<event>
 4    1  0.6122885E-004  0.3213647E+03  0.7818608E-02  0.1075023E+00
          2   -1    0    0  501    0  0.00000000000E+00  0.00000000000E+00  0.35126929567E+02  0.35126929660E+02  0.25500000000E-02 0.  1.
         -2   -1    0    0    0  501 -0.00000000000E+00 -0.00000000000E+00 -0.73501478101E+03  0.73501478102E+03  0.25500000000E-02 0. -1.
    5000001    1    1    2    0    0 -0.95225127938E+02 -0.23550297200E+02 -0.59277381696E+03  0.60574932073E+03  0.77000000000E+02 0.  0.
   -5000001    1    1    2    0    0  0.95225127938E+02  0.23550297200E+02 -0.10711403448E+03  0.16439238995E+03  0.77000000000E+02 0.  0.
<mgrwt>
<rscale>  0 0.32136467E+03</rscale>
<asrwt>0</asrwt>
<pdfrwt beam="1">  1        2 0.54041436E-02 0.32136467E+03</pdfrwt>
<pdfrwt beam="2">  1       -2 0.11307919E+00 0.32136467E+03</pdfrwt>
<totfact> 0.91255099E+02</totfact>
</mgrwt>
</event>
<event>
 4    1  0.6122885E-004  0.2235764E+03  0.7818608E-02  0.1131244E+00
         -2   -1    0    0    0  501 -0.00000000000E+00  0.00000000000E+00  0.28914070744E+02  0.28914070856E+02  0.25500000000E-02 0. -1.
          2   -1    0    0  501    0  0.00000000000E+00 -0.00000000000E+00 -0.43219784096E+03  0.43219784097E+03  0.25500000000E-02 0.  1.
    5000001    1    1    2    0    0  0.10571537362E+02 -0.78869578531E+02 -0.23328741683E+03  0.25823281486E+03  0.77000000000E+02 0.  0.
   -5000001    1    1    2    0    0 -0.10571537362E+02  0.78869578531E+02 -0.16999635338E+03  0.20287909696E+03  0.77000000000E+02 0.  0.
<mgrwt>
<rscale>  0 0.22357638E+03</rscale>
<asrwt>0</asrwt>
<pdfrwt beam="1">  1        2 0.66491971E-01 0.22357638E+03</pdfrwt>
<pdfrwt beam="2">  1       -2 0.44483189E-02 0.22357638E+03</pdfrwt>
<totfact> 0.16788516E+04</totfact>
</mgrwt>
</event>
<event>
 4    1  0.6122885E-004  0.2379704E+03  0.7818608E-02  0.1121152E+00
         -2   -1    0    0    0  501 -0.00000000000E+00  0.00000000000E+00  0.73583900833E+01  0.73583905251E+01  0.25500000000E-02 0. -1.
          2   -1    0    0  501    0  0.00000000000E+00 -0.00000000000E+00 -0.19239910384E+04  0.19239910384E+04  0.25500000000E-02 0.  1.
    5000001    1    1    2    0    0 -0.85808038646E+02  0.18954397376E+02 -0.77571917558E+03  0.78446894651E+03  0.77000000000E+02 0.  0.
   -5000001    1    1    2    0    0  0.85808038646E+02 -0.18954397376E+02 -0.11409134727E+04  0.11468804824E+04  0.77000000000E+02 0.  0.
<mgrwt>
<rscale>  0 0.23797039E+03</rscale>
<asrwt>0</asrwt>
<pdfrwt beam="1">  1        2 0.29599822E+00 0.23797039E+03</pdfrwt>
<pdfrwt beam="2">  1       -2 0.11320616E-02 0.23797039E+03</pdfrwt>
<totfact> 0.14440770E+04</totfact>
</mgrwt>
</event>
<event>
 4    1  0.6122885E-004  0.1936056E+03  0.7818608E-02  0.1155249E+00
         -2   -1    0    0    0  501 -0.00000000000E+00  0.00000000000E+00  0.17469740554E+03  0.17469740556E+03  0.25500000000E-02 0. -1.
          2   -1    0    0  501    0  0.00000000000E+00 -0.00000000000E+00 -0.53640089255E+02  0.53640089316E+02  0.25500000000E-02 0.  1.
    5000001    1    1    2    0    0  0.46680502931E+02 -0.34933944654E+02  0.52854920414E+02  0.11010037445E+03  0.77000000000E+02 0.  0.
   -5000001    1    1    2    0    0 -0.46680502931E+02  0.34933944654E+02  0.68202395873E+02  0.11823712042E+03  0.77000000000E+02 0.  0.
<mgrwt>
<rscale>  0 0.19360562E+03</rscale>
<asrwt>0</asrwt>
<pdfrwt beam="1">  1        2 0.82523215E-02 0.19360562E+03</pdfrwt>
<pdfrwt beam="2">  1       -2 0.26876524E-01 0.19360562E+03</pdfrwt>
<totfact> 0.98598101E+03</totfact>
</mgrwt>
</event>
<event>
 4    1  0.6122885E-004  0.2316482E+03  0.7818608E-02  0.1125485E+00
          2   -1    0    0  501    0  0.00000000000E+00  0.00000000000E+00  0.14085240885E+03  0.14085240887E+03  0.25500000000E-02 0.  1.
         -2   -1    0    0    0  501 -0.00000000000E+00 -0.00000000000E+00 -0.95243102707E+02  0.95243102741E+02  0.25500000000E-02 0. -1.
    5000001    1    1    2    0    0  0.81119763020E+02  0.75606302617E+01  0.52495386589E+02  0.12378345889E+03  0.77000000000E+02 0.  0.
   -5000001    1    1    2    0    0 -0.81119763020E+02 -0.75606302617E+01 -0.68860804464E+01  0.11231205272E+03  0.77000000000E+02 0.  0.
<mgrwt>
<rscale>  0 0.23164819E+03</rscale>
<asrwt>0</asrwt>
<pdfrwt beam="1">  1        2 0.21669601E-01 0.23164819E+03</pdfrwt>
<pdfrwt beam="2">  1       -2 0.14652785E-01 0.23164819E+03</pdfrwt>
<totfact> 0.88311326E+03</totfact>
</mgrwt>
</event>
<event>
 4    1  0.6122885E-004  0.2423368E+03  0.7818608E-02  0.1118246E+00
         -2   -1    0    0    0  501 -0.00000000000E+00  0.00000000000E+00  0.11282420269E+02  0.11282420557E+02  0.25500000000E-02 0. -1.
          2   -1    0    0  501    0  0.00000000000E+00 -0.00000000000E+00 -0.13012976267E+04  0.13012976267E+04  0.25500000000E-02 0.  1.
    5000001    1    1    2    0    0  0.92395734920E+02 -0.10649183959E+02 -0.69981982941E+03  0.71015996126E+03  0.77000000000E+02 0.  0.
   -5000001    1    1    2    0    0 -0.92395734920E+02  0.10649183959E+02 -0.59019537699E+03  0.60242008596E+03  0.77000000000E+02 0.  0.
<mgrwt>
<rscale>  0 0.24233685E+03</rscale>
<asrwt>0</asrwt>
<pdfrwt beam="1">  1        2 0.20019952E+00 0.24233685E+03</pdfrwt>
<pdfrwt beam="2">  1       -2 0.17357580E-02 0.24233685E+03</pdfrwt>
<totfact> 0.16581348E+04</totfact>
</mgrwt>
</event>
<event>
 4    1  0.6122885E-004  0.1830260E+03  0.7818608E-02  0.1164906E+00
         -2   -1    0    0    0  501 -0.00000000000E+00  0.00000000000E+00  0.23540283531E+02  0.23540283669E+02  0.25500000000E-02 0. -1.
          2   -1    0    0  501    0  0.00000000000E+00 -0.00000000000E+00 -0.35575753243E+03  0.35575753244E+03  0.25500000000E-02 0.  1.
    5000001    1    1    2    0    0  0.84345362044E+01  0.45907721288E+02 -0.19996972480E+03  0.21930697917E+03  0.77000000000E+02 0.  0.
   -5000001    1    1    2    0    0 -0.84345362044E+01 -0.45907721288E+02 -0.13224752409E+03  0.15999083694E+03  0.77000000000E+02 0.  0.
<mgrwt>
<rscale>  0 0.18302604E+03</rscale>
<asrwt>0</asrwt>
<pdfrwt beam="1">  1        2 0.54731924E-01 0.18302604E+03</pdfrwt>
<pdfrwt beam="2">  1       -2 0.36215823E-02 0.18302604E+03</pdfrwt>
<totfact> 0.27770954E+04</totfact>
</mgrwt>
</event>
<event>
 4    1  0.6122885E-004  0.2468169E+03  0.7818608E-02  0.1115333E+00
          2   -1    0    0  501    0  0.00000000000E+00  0.00000000000E+00  0.33398380277E+03  0.33398380278E+03  0.25500000000E-02 0.  1.
         -2   -1    0    0    0  501 -0.00000000000E+00 -0.00000000000E+00 -0.45599953191E+02  0.45599953262E+02  0.25500000000E-02 0. -1.
    5000001    1    1    2    0    0 -0.32683859884E+02 -0.79147800083E+02  0.21241783417E+03  0.24162563033E+03  0.77000000000E+02 0.  0.
   -5000001    1    1    2    0    0  0.32683859884E+02  0.79147800083E+02  0.75966015405E+02  0.13795812572E+03  0.77000000000E+02 0.  0.
<mgrwt>
<rscale>  0 0.24681690E+03</rscale>
<asrwt>0</asrwt>
<pdfrwt beam="1">  1        2 0.51382124E-01 0.24681690E+03</pdfrwt>
<pdfrwt beam="2">  1       -2 0.70153774E-02 0.24681690E+03</pdfrwt>
<totfact> 0.11133620E+04</totfact>
</mgrwt>
</event>
<event>
 4    1  0.6122885E-004  0.2731919E+03  0.7818608E-02  0.1099467E+00
         -2   -1    0    0    0  501 -0.00000000000E+00  0.00000000000E+00  0.65016176861E+02  0.65016176911E+02  0.25500000000E-02 0. -1.
          2   -1    0    0  501    0  0.00000000000E+00 -0.00000000000E+00 -0.28698169836E+03  0.28698169837E+03  0.25500000000E-02 0.  1.
    5000001    1    1    2    0    0  0.93037572178E+01 -0.11025238546E+03 -0.13942556605E+03  0.19393462008E+03  0.77000000000E+02 0.  0.
   -5000001    1    1    2    0    0 -0.93037572178E+01  0.11025238546E+03 -0.82539955449E+02  0.15806325520E+03  0.77000000000E+02 0.  0.
<mgrwt>
<rscale>  0 0.27319189E+03</rscale>
<asrwt>0</asrwt>
<pdfrwt beam="1">  1        2 0.44151030E-01 0.27319189E+03</pdfrwt>
<pdfrwt beam="2">  1       -2 0.10002489E-01 0.27319189E+03</pdfrwt>
<totfact> 0.75508538E+03</totfact>
</mgrwt>
</event>
<event>
 4    1  0.6122885E-004  0.2033082E+03  0.7818608E-02  0.1146977E+00
          2   -1    0    0  501    0  0.00000000000E+00  0.00000000000E+00  0.88994195056E+01  0.88994198709E+01  0.25500000000E-02 0.  1.
         -2   -1    0    0    0  501 -0.00000000000E+00 -0.00000000000E+00 -0.11611496740E+04  0.11611496740E+04  0.25500000000E-02 0. -1.
    5000001    1    1    2    0    0 -0.20795368422E+02 -0.59137286829E+02 -0.70153931654E+03  0.70853092995E+03  0.77000000000E+02 0.  0.
   -5000001    1    1    2    0    0  0.20795368422E+02  0.59137286829E+02 -0.45071093793E+03  0.46151816390E+03  0.77000000000E+02 0.  0.
<mgrwt>
<rscale>  0 0.20330822E+03</rscale>
<asrwt>0</asrwt>
<pdfrwt beam="1">  1        2 0.13691424E-02 0.20330822E+03</pdfrwt>
<pdfrwt beam="2">  1       -2 0.17863829E+00 0.20330822E+03</pdfrwt>
<totfact> 0.18178312E+03</totfact>
</mgrwt>
</event>
<event>
 4    1  0.6122885E-004  0.2963410E+03  0.7818608E-02  0.1087084E+00
          2   -1    0    0  501    0  0.00000000000E+00  0.00000000000E+00  0.11491706024E+03  0.11491706027E+03  0.25500000000E-02 0.  1.
         -2   -1    0    0    0  501 -0.00000000000E+00 -0.00000000000E+00 -0.19104639703E+03  0.19104639705E+03  0.25500000000E-02 0. -1.
    5000001    1    1    2    0    0 -0.21638140154E+01 -0.50601751009E+02 -0.15785031642E+03  0.18278660151E+03  0.77000000000E+02 0.  0.
   -5000001    1    1    2    0    0  0.21638140154E+01  0.50601751009E+02  0.81720979627E+02  0.12317685581E+03  0.77000000000E+02 0.  0.
<mgrwt>
<rscale>  0 0.29634095E+03</rscale>
<asrwt>0</asrwt>
<pdfrwt beam="1">  1        2 0.17679548E-01 0.29634095E+03</pdfrwt>
<pdfrwt beam="2">  1       -2 0.29391753E-01 0.29634095E+03</pdfrwt>
<totfact> 0.33982499E+03</totfact>
</mgrwt>
</event>
<event>
 4    1  0.6122885E-004  0.2883942E+03  0.7818608E-02  0.1091191E+00
         -2   -1    0    0    0  501 -0.00000000000E+00  0.00000000000E+00  0.13197199073E+03  0.13197199076E+03  0.25500000000E-02 0. -1.
          2   -1    0    0  501    0  0.00000000000E+00 -0.00000000000E+00 -0.15755464480E+03  0.15755464482E+03  0.25500000000E-02 0.  1.
    5000001    1    1    2    0    0 -0.26574742032E+02 -0.79999272687E+02 -0.10121499320E+03  0.15257645753E+03  0.77000000000E+02 0.  0.
   -5000001    1    1    2    0    0  0.26574742032E+02  0.79999272687E+02  0.75632339132E+02  0.13695017805E+03  0.77000000000E+02 0.  0.
<mgrwt>
<rscale>  0 0.28839418E+03</rscale>
<asrwt>0</asrwt>
<pdfrwt beam="1">  1        2 0.24239176E-01 0.28839418E+03</pdfrwt>
<pdfrwt beam="2">  1       -2 0.20303383E-01 0.28839418E+03</pdfrwt>
<totfact> 0.45433942E+03</totfact>
</mgrwt>
</event>
<event>
 4    1  0.6122885E-004  0.3529723E+03  0.7818608E-02  0.1061402E+00
         -2   -1    0    0    0  501 -0.00000000000E+00  0.00000000000E+00  0.34945067404E+02  0.34945067497E+02  0.25500000000E-02 0. -1.
          2   -1    0    0  501    0  0.00000000000E+00 -0.00000000000E+00 -0.89132366778E+03  0.89132366778E+03  0.25500000000E-02 0.  1.
    5000001    1    1    2    0    0  0.22980636545E+02 -0.15609543545E+03 -0.47545916280E+03  0.50683755791E+03  0.77000000000E+02 0.  0.
   -5000001    1    1    2    0    0 -0.22980636545E+02  0.15609543545E+03 -0.38091943758E+03  0.41943117737E+03  0.77000000000E+02 0.  0.
<mgrwt>
<rscale>  0 0.35297233E+03</rscale>
<asrwt>0</asrwt>
<pdfrwt beam="1">  1        2 0.13712670E+00 0.35297233E+03</pdfrwt>
<pdfrwt beam="2">  1       -2 0.53761649E-02 0.35297233E+03</pdfrwt>
<totfact> 0.54165416E+03</totfact>
</mgrwt>
</event>
<event>
 4    1  0.6122885E-004  0.2325846E+03  0.7818608E-02  0.1124834E+00
         -2   -1    0    0    0  501 -0.00000000000E+00  0.00000000000E+00  0.77588078671E+02  0.77588078712E+02  0.25500000000E-02 0. -1.
          2   -1    0    0  501    0  0.00000000000E+00 -0.00000000000E+00 -0.17430384158E+03  0.17430384160E+03  0.25500000000E-02 0.  1.
    5000001    1    1    2    0    0  0.63329582439E+02 -0.59353101316E+02 -0.39866519566E+02  0.12268563905E+03  0.77000000000E+02 0.  0.
   -5000001    1    1    2    0    0 -0.63329582439E+02  0.59353101316E+02 -0.56849243346E+02  0.12920628126E+03  0.77000000000E+02 0.  0.
<mgrwt>
<rscale>  0 0.23258461E+03</rscale>
<asrwt>0</asrwt>
<pdfrwt beam="1">  1        2 0.26815975E-01 0.23258461E+03</pdfrwt>
<pdfrwt beam="2">  1       -2 0.11936628E-01 0.23258461E+03</pdfrwt>
<totfact> 0.97142848E+03</totfact>
</mgrwt>
</event>
<event>
 4    1  0.6122885E-004  0.2339216E+03  0.7818608E-02  0.1123910E+00
         -2   -1    0    0    0  501 -0.00000000000E+00  0.00000000000E+00  0.20415592331E+02  0.20415592490E+02  0.25500000000E-02 0. -1.
          2   -1    0    0  501    0  0.00000000000E+00 -0.00000000000E+00 -0.67006751306E+03  0.67006751307E+03  0.25500000000E-02 0.  1.
    5000001    1    1    2    0    0  0.68181625994E+02  0.55273326042E+02 -0.30460028214E+03  0.32621190440E+03  0.77000000000E+02 0.  0.
   -5000001    1    1    2    0    0 -0.68181625994E+02 -0.55273326042E+02 -0.34505163859E+03  0.36427120115E+03  0.77000000000E+02 0.  0.
<mgrwt>
<rscale>  0 0.23392157E+03</rscale>
<asrwt>0</asrwt>
<pdfrwt beam="1">  1        2 0.10308729E+00 0.23392157E+03</pdfrwt>
<pdfrwt beam="2">  1       -2 0.31408609E-02 0.23392157E+03</pdfrwt>
<totfact> 0.17239319E+04</totfact>
</mgrwt>
</event>
<event>
 4    1  0.6122885E-004  0.1895970E+03  0.7818608E-02  0.1158825E+00
         -2   -1    0    0    0  501 -0.00000000000E+00  0.00000000000E+00  0.38281760325E+01  0.38281768818E+01  0.25500000000E-02 0. -1.
          2   -1    0    0  501    0  0.00000000000E+00 -0.00000000000E+00 -0.23475283431E+04  0.23475283431E+04  0.25500000000E-02 0.  1.
    5000001    1    1    2    0    0  0.74958493842E+01 -0.43630083305E+02 -0.15827958081E+04  0.15852858865E+04  0.77000000000E+02 0.  0.
   -5000001    1    1    2    0    0 -0.74958493842E+01  0.43630083305E+02 -0.76090435903E+03  0.76607063350E+03  0.77000000000E+02 0.  0.
<mgrwt>
<rscale>  0 0.18959697E+03</rscale>
<asrwt>0</asrwt>
<pdfrwt beam="1">  1        2 0.36115706E+00 0.18959697E+03</pdfrwt>
<pdfrwt beam="2">  1       -2 0.58895210E-03 0.18959697E+03</pdfrwt>
<totfact> 0.22013348E+04</totfact>
</mgrwt>
</event>
<event>
 4    1  0.6122885E-004  0.2432403E+03  0.7818608E-02  0.1117653E+00
         -2   -1    0    0    0  501 -0.00000000000E+00  0.00000000000E+00  0.20656375551E+03  0.20656375552E+03  0.25500000000E-02 0. -1.
          2   -1    0    0  501    0  0.00000000000E+00 -0.00000000000E+00 -0.71607252038E+02  0.71607252084E+02  0.25500000000E-02 0.  1.
    5000001    1    1    2    0    0  0.81486131861E+02  0.24566260043E+02  0.11349288709E+03  0.16140980837E+03  0.77000000000E+02 0.  0.
   -5000001    1    1    2    0    0 -0.81486131861E+02 -0.24566260043E+02  0.21463616373E+02  0.11676119923E+03  0.77000000000E+02 0.  0.
<mgrwt>
<rscale>  0 0.24324032E+03</rscale>
<asrwt>0</asrwt>
<pdfrwt beam="1">  1        2 0.11016501E-01 0.24324032E+03</pdfrwt>
<pdfrwt beam="2">  1       -2 0.31779038E-01 0.24324032E+03</pdfrwt>
<totfact> 0.51542153E+03</totfact>
</mgrwt>
</event>
<event>
 4    1  0.6122885E-004  0.2788803E+03  0.7818608E-02  0.1096302E+00
         -2   -1    0    0    0  501 -0.00000000000E+00  0.00000000000E+00  0.24799286835E+02  0.24799286966E+02  0.25500000000E-02 0. -1.
          2   -1    0    0  501    0  0.00000000000E+00 -0.00000000000E+00 -0.78403704333E+03  0.78403704334E+03  0.25500000000E-02 0.  1.
    5000001    1    1    2    0    0 -0.65914822481E+02 -0.92312415364E+02 -0.45346061100E+03  0.47373185620E+03  0.77000000000E+02 0.  0.
   -5000001    1    1    2    0    0  0.65914822481E+02  0.92312415364E+02 -0.30577714550E+03  0.33510447410E+03  0.77000000000E+02 0.  0.
<mgrwt>
<rscale>  0 0.27888033E+03</rscale>
<asrwt>0</asrwt>
<pdfrwt beam="1">  1        2 0.12062107E+00 0.27888033E+03</pdfrwt>
<pdfrwt beam="2">  1       -2 0.38152755E-02 0.27888033E+03</pdfrwt>
<totfact> 0.10715223E+04</totfact>
</mgrwt>
</event>
<event>
 4    1  0.6122885E-004  0.2592868E+03  0.7818608E-02  0.1107573E+00
          2   -1    0    0  501    0  0.00000000000E+00  0.00000000000E+00  0.37076904652E+03  0.37076904653E+03  0.25500000000E-02 0.  1.
         -2   -1    0    0    0  501 -0.00000000000E+00 -0.00000000000E+00 -0.45331209280E+02  0.45331209351E+02  0.25500000000E-02 0. -1.
    5000001    1    1    2    0    0  0.66705727781E+02 -0.77522778957E+02  0.12987075650E+03  0.18235912033E+03  0.77000000000E+02 0.  0.
   -5000001    1    1    2    0    0 -0.66705727781E+02  0.77522778957E+02  0.19556708075E+03  0.23374113555E+03  0.77000000000E+02 0.  0.
<mgrwt>
<rscale>  0 0.25928679E+03</rscale>
<asrwt>0</asrwt>
<pdfrwt beam="1">  1        2 0.57041393E-01 0.25928679E+03</pdfrwt>
<pdfrwt beam="2">  1       -2 0.69740321E-02 0.25928679E+03</pdfrwt>
<totfact> 0.10062004E+04</totfact>
</mgrwt>
</event>
<event>
 4    1  0.6122885E-004  0.2036812E+03  0.7818608E-02  0.1146670E+00
          2   -1    0    0  501    0  0.00000000000E+00  0.00000000000E+00  0.13148901031E+02  0.13148901278E+02  0.25500000000E-02 0.  1.
         -2   -1    0    0    0  501 -0.00000000000E+00 -0.00000000000E+00 -0.78877347246E+03  0.78877347246E+03  0.25500000000E-02 0. -1.
    5000001    1    1    2    0    0 -0.23238156492E+02  0.62050193677E+02 -0.41627596106E+03  0.42849144007E+03  0.77000000000E+02 0.  0.
   -5000001    1    1    2    0    0  0.23238156492E+02 -0.62050193677E+02 -0.35934861036E+03  0.37343093367E+03  0.77000000000E+02 0.  0.
<mgrwt>
<rscale>  0 0.20368117E+03</rscale>
<asrwt>0</asrwt>
<pdfrwt beam="1">  1        2 0.20229085E-02 0.20368117E+03</pdfrwt>
<pdfrwt beam="2">  1       -2 0.12134973E+00 0.20368117E+03</pdfrwt>
<totfact> 0.28606896E+03</totfact>
</mgrwt>
</event>
<event>
 4    1  0.6122885E-004  0.2335102E+03  0.7818608E-02  0.1124193E+00
          2   -1    0    0  501    0  0.00000000000E+00  0.00000000000E+00  0.26141239567E+03  0.26141239568E+03  0.25500000000E-02 0.  1.
         -2   -1    0    0    0  501 -0.00000000000E+00 -0.00000000000E+00 -0.52146527870E+02  0.52146527933E+02  0.25500000000E-02 0. -1.
    5000001    1    1    2    0    0  0.12966173581E+02  0.52129370046E+02  0.19783139333E+03  0.21897911559E+03  0.77000000000E+02 0.  0.
   -5000001    1    1    2    0    0 -0.12966173581E+02 -0.52129370046E+02  0.11434474467E+02  0.94579808020E+02  0.77000000000E+02 0.  0.
<mgrwt>
<rscale>  0 0.23351016E+03</rscale>
<asrwt>0</asrwt>
<pdfrwt beam="1">  1        2 0.40217290E-01 0.23351016E+03</pdfrwt>
<pdfrwt beam="2">  1       -2 0.80225430E-02 0.23351016E+03</pdfrwt>
<totfact> 0.11726205E+04</totfact>
</mgrwt>
</event>
<event>
 4    1  0.6122885E-004  0.1963123E+03  0.7818608E-02  0.1152888E+00
          2   -1    0    0  501    0  0.00000000000E+00  0.00000000000E+00  0.14394757666E+04  0.14394757666E+04  0.25500000000E-02 0.  1.
         -2   -1    0    0    0  501 -0.00000000000E+00 -0.00000000000E+00 -0.66931531812E+01  0.66931536669E+01  0.25500000000E-02 0. -1.
    5000001    1    1    2    0    0 -0.53381833084E+02  0.29190191185E+02  0.73102263118E+03  0.73758035133E+03  0.77000000000E+02 0.  0.
   -5000001    1    1    2    0    0  0.53381833084E+02 -0.29190191185E+02  0.70175998222E+03  0.70858856892E+03  0.77000000000E+02 0.  0.
<mgrwt>
<rscale>  0 0.19631232E+03</rscale>
<asrwt>0</asrwt>
<pdfrwt beam="1">  1        2 0.22145782E+00 0.19631232E+03</pdfrwt>
<pdfrwt beam="2">  1       -2 0.10297159E-02 0.19631232E+03</pdfrwt>
<totfact> 0.29489914E+04</totfact>
</mgrwt>
</event>
<event>
 4    1  0.6122885E-004  0.2006253E+03  0.7818608E-02  0.1149213E+00
          2   -1    0    0  501    0  0.00000000000E+00  0.00000000000E+00  0.23111133114E+04  0.23111133114E+04  0.25500000000E-02 0.  1.
         -2   -1    0    0    0  501 -0.00000000000E+00 -0.00000000000E+00 -0.43540168120E+01  0.43540175587E+01  0.25500000000E-02 0. -1.
    5000001    1    1    2    0    0  0.43794428314E+02  0.46977658490E+02  0.11875673445E+04  0.11917927883E+04  0.77000000000E+02 0.  0.
   -5000001    1    1    2    0    0 -0.43794428314E+02 -0.46977658490E+02  0.11191919501E+04  0.11236745407E+04  0.77000000000E+02 0.  0.
<mgrwt>
<rscale>  0 0.20062529E+03</rscale>
<asrwt>0</asrwt>
<pdfrwt beam="1">  1        2 0.35555599E+00 0.20062529E+03</pdfrwt>
<pdfrwt beam="2">  1       -2 0.66984861E-03 0.20062529E+03</pdfrwt>
<totfact> 0.19178029E+04</totfact>
</mgrwt>
</event>
<event>
 4    1  0.6122885E-004  0.1703638E+03  0.7818608E-02  0.1177469E+00
         -2   -1    0    0    0  501 -0.00000000000E+00  0.00000000000E+00  0.47757191075E+01  0.47757197883E+01  0.25500000000E-02 0. -1.
          2   -1    0    0  501    0  0.00000000000E+00 -0.00000000000E+00 -0.15193421768E+04  0.15193421768E+04  0.25500000000E-02 0.  1.
    5000001    1    1    2    0    0 -0.28105008771E+02 -0.24062278448E+01 -0.55107820985E+03  0.55714618802E+03  0.77000000000E+02 0.  0.
   -5000001    1    1    2    0    0  0.28105008771E+02  0.24062278448E+01 -0.96348824780E+03  0.96697170854E+03  0.77000000000E+02 0.  0.
<mgrwt>
<rscale>  0 0.17036375E+03</rscale>
<asrwt>0</asrwt>
<pdfrwt beam="1">  1        2 0.23374456E+00 0.17036375E+03</pdfrwt>
<pdfrwt beam="2">  1       -2 0.73472728E-03 0.17036375E+03</pdfrwt>
<totfact> 0.43056556E+04</totfact>
</mgrwt>
</event>
<event>
 4    1  0.6122885E-004  0.2148852E+03  0.7818608E-02  0.1137755E+00
          2   -1    0    0  501    0  0.00000000000E+00  0.00000000000E+00  0.26960401833E+03  0.26960401835E+03  0.25500000000E-02 0.  1.
         -2   -1    0    0    0  501 -0.00000000000E+00 -0.00000000000E+00 -0.42818023865E+02  0.42818023941E+02  0.25500000000E-02 0. -1.
    5000001    1    1    2    0    0 -0.69572741460E+02  0.43176058909E+01  0.15336613877E+03  0.18522737539E+03  0.77000000000E+02 0.  0.
   -5000001    1    1    2    0    0  0.69572741460E+02 -0.43176058909E+01  0.73419855703E+02  0.12719466689E+03  0.77000000000E+02 0.  0.
<mgrwt>
<rscale>  0 0.21488519E+03</rscale>
<asrwt>0</asrwt>
<pdfrwt beam="1">  1        2 0.41477541E-01 0.21488519E+03</pdfrwt>
<pdfrwt beam="2">  1       -2 0.65873884E-02 0.21488519E+03</pdfrwt>
<totfact> 0.15313217E+04</totfact>
</mgrwt>
</event>
<event>
 4    1  0.6122885E-004  0.1962958E+03  0.7818608E-02  0.1152902E+00
          2   -1    0    0  501    0  0.00000000000E+00  0.00000000000E+00  0.99564509810E+03  0.99564509810E+03  0.25500000000E-02 0.  1.
         -2   -1    0    0    0  501 -0.00000000000E+00 -0.00000000000E+00 -0.96751436446E+01  0.96751439806E+01  0.25500000000E-02 0. -1.
    5000001    1    1    2    0    0 -0.52519162833E+02 -0.30332553092E+02  0.51893983251E+03  0.52811540027E+03  0.77000000000E+02 0.  0.
   -5000001    1    1    2    0    0  0.52519162833E+02  0.30332553092E+02  0.46703012195E+03  0.47720484181E+03  0.77000000000E+02 0.  0.
<mgrwt>
<rscale>  0 0.19629579E+03</rscale>
<asrwt>0</asrwt>
<pdfrwt beam="1">  1        2 0.15317609E+00 0.19629579E+03</pdfrwt>
<pdfrwt beam="2">  1       -2 0.14884844E-02 0.19629579E+03</pdfrwt>
<totfact> 0.30745335E+04</totfact>
</mgrwt>
</event>
<event>
 4    1  0.6122885E-004  0.1983031E+03  0.7818608E-02  0.1151179E+00
         -2   -1    0    0    0  501 -0.00000000000E+00  0.00000000000E+00  0.29843301252E+02  0.29843301361E+02  0.25500000000E-02 0. -1.
          2   -1    0    0  501    0  0.00000000000E+00 -0.00000000000E+00 -0.32942155729E+03  0.32942155730E+03  0.25500000000E-02 0.  1.
    5000001    1    1    2    0    0 -0.55945517942E+02 -0.75489106148E+01 -0.19823767617E+03  0.22003195968E+03  0.77000000000E+02 0.  0.
   -5000001    1    1    2    0    0  0.55945517942E+02  0.75489106148E+01 -0.10134057986E+03  0.13923289897E+03  0.77000000000E+02 0.  0.
<mgrwt>
<rscale>  0 0.19830307E+03</rscale>
<asrwt>0</asrwt>
<pdfrwt beam="1">  1        2 0.50680237E-01 0.19830307E+03</pdfrwt>
<pdfrwt beam="2">  1       -2 0.45912774E-02 0.19830307E+03</pdfrwt>
<totfact> 0.21277668E+04</totfact>
</mgrwt>
</event>
<event>
 4    1  0.6122885E-004  0.3105301E+03  0.7818608E-02  0.1080092E+00
          2   -1    0    0  501    0  0.00000000000E+00  0.00000000000E+00  0.99945870338E+03  0.99945870338E+03  0.25500000000E-02 0.  1.
         -2   -1    0    0    0  501 -0.00000000000E+00 -0.00000000000E+00 -0.24120294848E+02  0.24120294983E+02  0.25500000000E-02 0. -1.
    5000001    1    1    2    0    0  0.85127670712E+02 -0.10061304155E+03  0.58139666331E+03  0.60109964611E+03  0.77000000000E+02 0.  0.
   -5000001    1    1    2    0    0 -0.85127670712E+02  0.10061304155E+03  0.39394174523E+03  0.42247935226E+03  0.77000000000E+02 0.  0.
<mgrwt>
<rscale>  0 0.31053012E+03</rscale>
<asrwt>0</asrwt>
<pdfrwt beam="1">  1        2 0.15376284E+00 0.31053012E+03</pdfrwt>
<pdfrwt beam="2">  1       -2 0.37108155E-02 0.31053012E+03</pdfrwt>
<totfact> 0.81030969E+03</totfact>
</mgrwt>
</event>
<event>
 4    1  0.6122885E-004  0.3975888E+03  0.7818608E-02  0.1044618E+00
          2   -1    0    0  501    0  0.00000000000E+00  0.00000000000E+00  0.63725826975E+03  0.63725826975E+03  0.25500000000E-02 0.  1.
         -2   -1    0    0    0  501 -0.00000000000E+00 -0.00000000000E+00 -0.62014438549E+02  0.62014438602E+02  0.25500000000E-02 0. -1.
    5000001    1    1    2    0    0  0.14432085984E+03 -0.10960676521E+03  0.33572586440E+03  0.38920818284E+03  0.77000000000E+02 0.  0.
   -5000001    1    1    2    0    0 -0.14432085984E+03  0.10960676521E+03  0.23951796680E+03  0.31006452551E+03  0.77000000000E+02 0.  0.
<mgrwt>
<rscale>  0 0.39758880E+03</rscale>
<asrwt>0</asrwt>
<pdfrwt beam="1">  1        2 0.98039737E-01 0.39758880E+03</pdfrwt>
<pdfrwt beam="2">  1       -2 0.95406825E-02 0.39758880E+03</pdfrwt>
<totfact> 0.33800240E+03</totfact>
</mgrwt>
</event>
<event>
 4    1  0.6122885E-004  0.2669066E+03  0.7818608E-02  0.1103063E+00
          2   -1    0    0  501    0  0.00000000000E+00  0.00000000000E+00  0.97349804361E+03  0.97349804361E+03  0.25500000000E-02 0.  1.
         -2   -1    0    0    0  501 -0.00000000000E+00 -0.00000000000E+00 -0.18294627534E+02  0.18294627712E+02  0.25500000000E-02 0. -1.
    5000001    1    1    2    0    0  0.83793331276E+02 -0.69506879031E+02  0.49735383481E+03  0.51491976618E+03  0.77000000000E+02 0.  0.
   -5000001    1    1    2    0    0 -0.83793331276E+02  0.69506879031E+02  0.45784958126E+03  0.47687290514E+03  0.77000000000E+02 0.  0.
<mgrwt>
<rscale>  0 0.26690661E+03</rscale>
<asrwt>0</asrwt>
<pdfrwt beam="1">  1        2 0.14976890E+00 0.26690661E+03</pdfrwt>
<pdfrwt beam="2">  1       -2 0.28145587E-02 0.26690661E+03</pdfrwt>
<totfact> 0.12654460E+04</totfact>
</mgrwt>
</event>
<event>
 4    1  0.6122885E-004  0.1858576E+03  0.7818608E-02  0.1162251E+00
          2   -1    0    0  501    0  0.00000000000E+00  0.00000000000E+00  0.34256606976E+02  0.34256607071E+02  0.25500000000E-02 0.  1.
         -2   -1    0    0    0  501 -0.00000000000E+00 -0.00000000000E+00 -0.25209038812E+03  0.25209038813E+03  0.25500000000E-02 0. -1.
    5000001    1    1    2    0    0 -0.50695555529E+02 -0.10417826323E+02 -0.10073663541E+03  0.13695050262E+03  0.77000000000E+02 0.  0.
   -5000001    1    1    2    0    0  0.50695555529E+02  0.10417826323E+02 -0.11709714573E+03  0.14939649258E+03  0.77000000000E+02 0.  0.
<mgrwt>
<rscale>  0 0.18585759E+03</rscale>
<asrwt>0</asrwt>
<pdfrwt beam="1">  1        2 0.52702474E-02 0.18585759E+03</pdfrwt>
<pdfrwt beam="2">  1       -2 0.38783136E-01 0.18585759E+03</pdfrwt>
<totfact> 0.89405506E+03</totfact>
</mgrwt>
</event>
<event>
 4    1  0.6122885E-004  0.2370537E+03  0.7818608E-02  0.1121771E+00
         -2   -1    0    0    0  501 -0.00000000000E+00  0.00000000000E+00  0.61893306765E+01  0.61893312018E+01  0.25500000000E-02 0. -1.
          2   -1    0    0  501    0  0.00000000000E+00 -0.00000000000E+00 -0.22698108943E+04  0.22698108943E+04  0.25500000000E-02 0.  1.
    5000001    1    1    2    0    0 -0.12927616805E+02 -0.77318249381E+02 -0.70519145317E+03  0.71370107229E+03  0.77000000000E+02 0.  0.
   -5000001    1    1    2    0    0  0.12927616805E+02  0.77318249381E+02 -0.15584301105E+04  0.15622991532E+04  0.77000000000E+02 0.  0.
<mgrwt>
<rscale>  0 0.23705367E+03</rscale>
<asrwt>0</asrwt>
<pdfrwt beam="1">  1        2 0.34920101E+00 0.23705367E+03</pdfrwt>
<pdfrwt beam="2">  1       -2 0.95220657E-03 0.23705367E+03</pdfrwt>
<totfact> 0.12202383E+04</totfact>
</mgrwt>
</event>
<event>
 4    1  0.6122885E-004  0.7299468E+03  0.7818608E-02  0.9667347E-01
          2   -1    0    0  501    0  0.00000000000E+00  0.00000000000E+00  0.87594041199E+03  0.87594041200E+03  0.25500000000E-02 0.  1.
         -2   -1    0    0    0  501 -0.00000000000E+00 -0.00000000000E+00 -0.15207151318E+03  0.15207151321E+03  0.25500000000E-02 0. -1.
    5000001    1    1    2    0    0 -0.25508372482E+03  0.17417638069E+03  0.11050973846E+03  0.33696664605E+03  0.77000000000E+02 0.  0.
   -5000001    1    1    2    0    0  0.25508372482E+03 -0.17417638069E+03  0.61335916035E+03  0.69104527916E+03  0.77000000000E+02 0.  0.
<mgrwt>
<rscale>  0 0.72994680E+03</rscale>
<asrwt>0</asrwt>
<pdfrwt beam="1">  1        2 0.13476006E+00 0.72994680E+03</pdfrwt>
<pdfrwt beam="2">  1       -2 0.23395618E-01 0.72994680E+03</pdfrwt>
<totfact> 0.49479497E+02</totfact>
</mgrwt>
</event>
<event>
 4    1  0.6122885E-004  0.2045567E+03  0.7818608E-02  0.1145950E+00
          2   -1    0    0  501    0  0.00000000000E+00  0.00000000000E+00  0.21731038157E+04  0.21731038157E+04  0.25500000000E-02 0.  1.
         -2   -1    0    0    0  501 -0.00000000000E+00 -0.00000000000E+00 -0.48137890781E+01  0.48137897535E+01  0.25500000000E-02 0. -1.
    5000001    1    1    2    0    0  0.66367530678E+02  0.61722542071E+01  0.98363458663E+03  0.98889268673E+03  0.77000000000E+02 0.  0.
   -5000001    1    1    2    0    0 -0.66367530678E+02 -0.61722542071E+01  0.11846554400E+04  0.11890249188E+04  0.77000000000E+02 0.  0.
<mgrwt>
<rscale>  0 0.20455673E+03</rscale>
<asrwt>0</asrwt>
<pdfrwt beam="1">  1        2 0.33432438E+00 0.20455673E+03</pdfrwt>
<pdfrwt beam="2">  1       -2 0.74058141E-03 0.20455673E+03</pdfrwt>
<totfact> 0.19649680E+04</totfact>
</mgrwt>
</event>
<event>
 4    1  0.6122885E-004  0.2788725E+03  0.7818608E-02  0.1096306E+00
          2   -1    0    0  501    0  0.00000000000E+00  0.00000000000E+00  0.16261817976E+04  0.16261817976E+04  0.25500000000E-02 0. -1.
         -2   -1    0    0    0  501 -0.00000000000E+00 -0.00000000000E+00 -0.11955901518E+02  0.11955901790E+02  0.25500000000E-02 0.  1.
    5000001    1    1    2    0    0  0.11245251246E+03  0.24881201929E+02  0.89977335719E+03  0.91037670009E+03  0.77000000000E+02 0.  0.
   -5000001    1    1    2    0    0 -0.11245251246E+03 -0.24881201929E+02  0.71445253892E+03  0.72776099932E+03  0.77000000000E+02 0.  0.
<mgrwt>
<rscale>  0 0.27887251E+03</rscale>
<asrwt>0</asrwt>
<pdfrwt beam="1">  1        2 0.25018179E+00 0.27887251E+03</pdfrwt>
<pdfrwt beam="2">  1       -2 0.18393697E-02 0.27887251E+03</pdfrwt>
<totfact> 0.10224144E+04</totfact>
</mgrwt>
</event>
<event>
 4    1  0.6122885E-004  0.1953139E+03  0.7818608E-02  0.1153754E+00
         -2   -1    0    0    0  501 -0.00000000000E+00  0.00000000000E+00  0.14482609335E+02  0.14482609560E+02  0.25500000000E-02 0. -1.
          2   -1    0    0  501    0  0.00000000000E+00 -0.00000000000E+00 -0.65850530169E+03  0.65850530170E+03  0.25500000000E-02 0.  1.
    5000001    1    1    2    0    0 -0.58696233607E+02 -0.92025920020E+00 -0.36583788353E+03  0.37843421058E+03  0.77000000000E+02 0.  0.
   -5000001    1    1    2    0    0  0.58696233607E+02  0.92025920020E+00 -0.27818480883E+03  0.29455370067E+03  0.77000000000E+02 0.  0.
<mgrwt>
<rscale>  0 0.19531385E+03</rscale>
<asrwt>0</asrwt>
<pdfrwt beam="1">  1        2 0.10130848E+00 0.19531385E+03</pdfrwt>
<pdfrwt beam="2">  1       -2 0.22280943E-02 0.19531385E+03</pdfrwt>
<totfact> 0.28875465E+04</totfact>
</mgrwt>
</event>
<event>
 4    1  0.6122885E-004  0.2050362E+03  0.7818608E-02  0.1145558E+00
         -2   -1    0    0    0  501 -0.00000000000E+00  0.00000000000E+00  0.32769307739E+01  0.32769317661E+01  0.25500000000E-02 0. -1.
          2   -1    0    0  501    0  0.00000000000E+00 -0.00000000000E+00 -0.32072574010E+04  0.32072574010E+04  0.25500000000E-02 0.  1.
    5000001    1    1    2    0    0 -0.35432817176E+02 -0.44983361964E+02 -0.10369907936E+04  0.10414210932E+04  0.77000000000E+02 0.  0.
   -5000001    1    1    2    0    0  0.35432817176E+02  0.44983361964E+02 -0.21669896766E+04  0.21691132395E+04  0.77000000000E+02 0.  0.
<mgrwt>
<rscale>  0 0.20503621E+03</rscale>
<asrwt>0</asrwt>
<pdfrwt beam="1">  1        2 0.49342170E+00 0.20503621E+03</pdfrwt>
<pdfrwt beam="2">  1       -2 0.50414584E-03 0.20503621E+03</pdfrwt>
<totfact> 0.89708864E+03</totfact>
</mgrwt>
</event>
<event>
 4    1  0.6122885E-004  0.2826729E+03  0.7818608E-02  0.1094238E+00
          2   -1    0    0  501    0  0.00000000000E+00  0.00000000000E+00  0.10187847658E+04  0.10187847658E+04  0.25500000000E-02 0.  1.
         -2   -1    0    0    0  501 -0.00000000000E+00 -0.00000000000E+00 -0.19607662402E+02  0.19607662568E+02  0.25500000000E-02 0. -1.
    5000001    1    1    2    0    0 -0.11590881116E+03  0.23567867047E+02  0.47192968705E+03  0.49258189815E+03  0.77000000000E+02 0.  0.
   -5000001    1    1    2    0    0  0.11590881116E+03 -0.23567867047E+02  0.52724741634E+03  0.54581053022E+03  0.77000000000E+02 0.  0.
<mgrwt>
<rscale>  0 0.28267287E+03</rscale>
<asrwt>0</asrwt>
<pdfrwt beam="1">  1        2 0.15673613E+00 0.28267287E+03</pdfrwt>
<pdfrwt beam="2">  1       -2 0.30165633E-02 0.28267287E+03</pdfrwt>
<totfact> 0.10727082E+04</totfact>
</mgrwt>
</event>
<event>
 4    1  0.6122885E-004  0.2281454E+03  0.7818608E-02  0.1127952E+00
          2   -1    0    0  501    0  0.00000000000E+00  0.00000000000E+00  0.31486815477E+03  0.31486815478E+03  0.25500000000E-02 0.  1.
         -2   -1    0    0    0  501 -0.00000000000E+00 -0.00000000000E+00 -0.41327094893E+02  0.41327094972E+02  0.25500000000E-02 0. -1.
    5000001    1    1    2    0    0 -0.59011095097E+02  0.59784687448E+02  0.12864776599E+03  0.17185972737E+03  0.77000000000E+02 0.  0.
   -5000001    1    1    2    0    0  0.59011095097E+02 -0.59784687448E+02  0.14489329388E+03  0.18433552238E+03  0.77000000000E+02 0.  0.
<mgrwt>
<rscale>  0 0.22814545E+03</rscale>
<asrwt>0</asrwt>
<pdfrwt beam="1">  1        2 0.48441255E-01 0.22814545E+03</pdfrwt>
<pdfrwt beam="2">  1       -2 0.63580145E-02 0.22814545E+03</pdfrwt>
<totfact> 0.13744321E+04</totfact>
</mgrwt>
</event>
<event>
 4    1  0.6122885E-004  0.1325721E+04  0.7818608E-02  0.9009413E-01
         -2   -1    0    0    0  501 -0.00000000000E+00  0.00000000000E+00  0.16242846562E+03  0.16242846564E+03  0.25500000000E-02 0. -1.
          2   -1    0    0  501    0  0.00000000000E+00 -0.00000000000E+00 -0.27050915997E+04  0.27050915997E+04  0.25500000000E-02 0.  1.
    5000001    1    1    2    0    0  0.24861894093E+03  0.15812418763E+03  0.21536278056E+01  0.30454601395E+03  0.77000000000E+02 0.  0.
   -5000001    1    1    2    0    0 -0.24861894093E+03 -0.15812418763E+03 -0.25448167619E+04  0.25629740514E+04  0.77000000000E+02 0.  0.
<mgrwt>
<rscale>  0 0.13257208E+04</rscale>
<asrwt>0</asrwt>
<pdfrwt beam="1">  1        2 0.41616790E+00 0.13257208E+04</pdfrwt>
<pdfrwt beam="2">  1       -2 0.24988997E-01 0.13257208E+04</pdfrwt>
<totfact> 0.37294992E+01</totfact>
</mgrwt>
</event>
<event>
 4    1  0.6122885E-004  0.3022939E+03  0.7818608E-02  0.1084100E+00
          2   -1    0    0  501    0  0.00000000000E+00  0.00000000000E+00  0.17974308237E+03  0.17974308239E+03  0.25500000000E-02 0. -1.
         -2   -1    0    0    0  501 -0.00000000000E+00 -0.00000000000E+00 -0.12710027269E+03  0.12710027272E+03  0.25500000000E-02 0.  1.
    5000001    1    1    2    0    0  0.98462006097E+02  0.53790190584E+02  0.93100916416E+02  0.16487853676E+03  0.77000000000E+02 0.  0.
   -5000001    1    1    2    0    0 -0.98462006097E+02 -0.53790190584E+02 -0.40458106732E+02  0.14196481835E+03  0.77000000000E+02 0.  0.
<mgrwt>
<rscale>  0 0.30229386E+03</rscale>
<asrwt>0</asrwt>
<pdfrwt beam="1">  1        2 0.27652782E-01 0.30229386E+03</pdfrwt>
<pdfrwt beam="2">  1       -2 0.19553888E-01 0.30229386E+03</pdfrwt>
<totfact> 0.41887310E+03</totfact>
</mgrwt>
</event>
<event>
 4    1  0.6122885E-004  0.4005360E+03  0.7818608E-02  0.1043594E+00
          2   -1    0    0  501    0  0.00000000000E+00  0.00000000000E+00  0.12325209631E+03  0.12325209633E+03  0.25500000000E-02 0.  1.
         -2   -1    0    0    0  501 -0.00000000000E+00 -0.00000000000E+00 -0.32540845726E+03  0.32540845727E+03  0.25500000000E-02 0. -1.
    5000001    1    1    2    0    0  0.11667819644E+02 -0.15328683996E+03 -0.21610666537E+03  0.27615952661E+03  0.77000000000E+02 0.  0.
   -5000001    1    1    2    0    0 -0.11667819644E+02  0.15328683996E+03  0.13950304411E+02  0.17250102700E+03  0.77000000000E+02 0.  0.
<mgrwt>
<rscale>  0 0.40053601E+03</rscale>
<asrwt>0</asrwt>
<pdfrwt beam="1">  1        2 0.18961861E-01 0.40053601E+03</pdfrwt>
<pdfrwt beam="2">  1       -2 0.50062839E-01 0.40053601E+03</pdfrwt>
<totfact> 0.11399382E+03</totfact>
</mgrwt>
</event>
<event>
 4    1  0.6122885E-004  0.2840930E+03  0.7818608E-02  0.1093474E+00
          2   -1    0    0  501    0  0.00000000000E+00  0.00000000000E+00  0.17678583707E+04  0.17678583707E+04  0.25500000000E-02 0.  1.
         -2   -1    0    0    0  501 -0.00000000000E+00 -0.00000000000E+00 -0.11413361438E+02  0.11413361723E+02  0.25500000000E-02 0. -1.
    5000001    1    1    2    0    0  0.11613110009E+03 -0.22194629498E+02  0.98097618035E+03  0.99107128926E+03  0.77000000000E+02 0.  0.
   -5000001    1    1    2    0    0 -0.11613110009E+03  0.22194629498E+02  0.77546882888E+03  0.78820044313E+03  0.77000000000E+02 0.  0.
<mgrwt>
<rscale>  0 0.28409299E+03</rscale>
<asrwt>0</asrwt>
<pdfrwt beam="1">  1        2 0.27197835E+00 0.28409299E+03</pdfrwt>
<pdfrwt beam="2">  1       -2 0.17559009E-02 0.28409299E+03</pdfrwt>
<totfact> 0.92184309E+03</totfact>
</mgrwt>
</event>
<event>
 4    1  0.6122885E-004  0.3332540E+03  0.7818608E-02  0.1069706E+00
          2   -1    0    0  501    0  0.00000000000E+00  0.00000000000E+00  0.88552555977E+03  0.88552555977E+03  0.25500000000E-02 0.  1.
         -2   -1    0    0    0  501 -0.00000000000E+00 -0.00000000000E+00 -0.31353762200E+02  0.31353762304E+02  0.25500000000E-02 0. -1.
    5000001    1    1    2    0    0  0.90255101070E+02 -0.80426697671E+02  0.66088299344E+03  0.67624682475E+03  0.77000000000E+02 0.  0.
   -5000001    1    1    2    0    0 -0.90255101070E+02  0.80426697671E+02  0.19328880413E+03  0.24063249732E+03  0.77000000000E+02 0.  0.
<mgrwt>
<rscale>  0 0.33325400E+03</rscale>
<asrwt>0</asrwt>
<pdfrwt beam="1">  1        2 0.13623470E+00 0.33325400E+03</pdfrwt>
<pdfrwt beam="2">  1       -2 0.48236557E-02 0.33325400E+03</pdfrwt>
<totfact> 0.64441713E+03</totfact>
</mgrwt>
</event>
<event>
 4    1  0.6122885E-004  0.2528286E+03  0.7818608E-02  0.1111530E+00
          2   -1    0    0  501    0  0.00000000000E+00  0.00000000000E+00  0.18197728882E+03  0.18197728884E+03  0.25500000000E-02 0.  1.
         -2   -1    0    0    0  501 -0.00000000000E+00 -0.00000000000E+00 -0.87816343065E+02  0.87816343102E+02  0.25500000000E-02 0. -1.
    5000001    1    1    2    0    0 -0.26379499041E+02  0.95706972445E+02  0.32145731953E+02  0.12968442708E+03  0.77000000000E+02 0.  0.
   -5000001    1    1    2    0    0  0.26379499041E+02 -0.95706972445E+02  0.62015213804E+02  0.14010920486E+03  0.77000000000E+02 0.  0.
<mgrwt>
<rscale>  0 0.25282864E+03</rscale>
<asrwt>0</asrwt>
<pdfrwt beam="1">  1        2 0.27996506E-01 0.25282864E+03</pdfrwt>
<pdfrwt beam="2">  1       -2 0.13510207E-01 0.25282864E+03</pdfrwt>
<totfact> 0.76087437E+03</totfact>
</mgrwt>
</event>
<event>
 4    1  0.6122885E-004  0.1775527E+03  0.7818608E-02  0.1170193E+00
         -2   -1    0    0    0  501 -0.00000000000E+00  0.00000000000E+00  0.59665609768E+02  0.59665609823E+02  0.25500000000E-02 0. -1.
          2   -1    0    0  501    0  0.00000000000E+00 -0.00000000000E+00 -0.13209015011E+03  0.13209015013E+03  0.25500000000E-02 0.  1.
    5000001    1    1    2    0    0 -0.39681761887E+02  0.19243074530E+02 -0.33294045568E+02  0.94775691051E+02  0.77000000000E+02 0.  0.
   -5000001    1    1    2    0    0  0.39681761887E+02 -0.19243074530E+02 -0.39130494773E+02  0.96980068906E+02  0.77000000000E+02 0.  0.
<mgrwt>
<rscale>  0 0.17755269E+03</rscale>
<asrwt>0</asrwt>
<pdfrwt beam="1">  1        2 0.20321561E-01 0.17755269E+03</pdfrwt>
<pdfrwt beam="2">  1       -2 0.91793246E-02 0.17755269E+03</pdfrwt>
<totfact> 0.19744696E+04</totfact>
</mgrwt>
</event>
<event>
 4    1  0.6122885E-004  0.3916151E+03  0.7818608E-02  0.1046722E+00
         -2   -1    0    0    0  501 -0.00000000000E+00  0.00000000000E+00  0.35590386527E+02  0.35590386618E+02  0.25500000000E-02 0. -1.
          2   -1    0    0  501    0  0.00000000000E+00 -0.00000000000E+00 -0.10772737998E+04  0.10772737998E+04  0.25500000000E-02 0.  1.
    5000001    1    1    2    0    0 -0.76265364309E+02 -0.15995500860E+03 -0.43054888443E+03  0.47191456054E+03  0.77000000000E+02 0.  0.
   -5000001    1    1    2    0    0  0.76265364309E+02  0.15995500860E+03 -0.61113452889E+03  0.64094962592E+03  0.77000000000E+02 0.  0.
<mgrwt>
<rscale>  0 0.39161507E+03</rscale>
<asrwt>0</asrwt>
<pdfrwt beam="1">  1        2 0.16573441E+00 0.39161507E+03</pdfrwt>
<pdfrwt beam="2">  1       -2 0.54754449E-02 0.39161507E+03</pdfrwt>
<totfact> 0.40315948E+03</totfact>
</mgrwt>
</event>
<event>
 4    1  0.6122885E-004  0.1805983E+03  0.7818608E-02  0.1167225E+00
          2   -1    0    0  501    0  0.00000000000E+00  0.00000000000E+00  0.19394673151E+03  0.19394673153E+03  0.25500000000E-02 0.  1.
         -2   -1    0    0    0  501 -0.00000000000E+00 -0.00000000000E+00 -0.42042139864E+02  0.42042139941E+02  0.25500000000E-02 0. -1.
    5000001    1    1    2    0    0  0.45956009858E+02  0.10519525130E+02  0.77942770844E+02  0.11927569232E+03  0.77000000000E+02 0.  0.
   -5000001    1    1    2    0    0 -0.45956009858E+02 -0.10519525130E+02  0.73961820802E+02  0.11671317915E+03  0.77000000000E+02 0.  0.
<mgrwt>
<rscale>  0 0.18059829E+03</rscale>
<asrwt>0</asrwt>
<pdfrwt beam="1">  1        2 0.29837958E-01 0.18059829E+03</pdfrwt>
<pdfrwt beam="2">  1       -2 0.64680217E-02 0.18059829E+03</pdfrwt>
<totfact> 0.22187177E+04</totfact>
</mgrwt>
</event>
<event>
 4    1  0.6122885E-004  0.2683799E+03  0.7818608E-02  0.1102210E+00
         -2   -1    0    0    0  501 -0.00000000000E+00  0.00000000000E+00  0.90615107187E+01  0.90615110775E+01  0.25500000000E-02 0. -1.
          2   -1    0    0  501    0  0.00000000000E+00 -0.00000000000E+00 -0.19871893067E+04  0.19871893067E+04  0.25500000000E-02 0.  1.
    5000001    1    1    2    0    0  0.10858043337E+02 -0.77805032898E+02 -0.15607099998E+04  0.15645818047E+04  0.77000000000E+02 0.  0.
   -5000001    1    1    2    0    0 -0.10858043337E+02  0.77805032898E+02 -0.41741779620E+03  0.43166901305E+03  0.77000000000E+02 0.  0.
<mgrwt>
<rscale>  0 0.26837986E+03</rscale>
<asrwt>0</asrwt>
<pdfrwt beam="1">  1        2 0.30572109E+00 0.26837986E+03</pdfrwt>
<pdfrwt beam="2">  1       -2 0.13940802E-02 0.26837986E+03</pdfrwt>
<totfact> 0.99059277E+03</totfact>
</mgrwt>
</event>
<event>
 4    1  0.6122885E-004  0.1644719E+03  0.7818608E-02  0.1183739E+00
          2   -1    0    0  501    0  0.00000000000E+00  0.00000000000E+00  0.42446776588E+04  0.42446776588E+04  0.25500000000E-02 0.  1.
         -2   -1    0    0    0  501 -0.00000000000E+00 -0.00000000000E+00 -0.15932294739E+01  0.15932315146E+01  0.25500000000E-02 0. -1.
    5000001    1    1    2    0    0  0.28826135408E+02  0.14959099471E+01  0.21021178576E+04  0.21037256644E+04  0.77000000000E+02 0.  0.
   -5000001    1    1    2    0    0 -0.28826135408E+02 -0.14959099471E+01  0.21409665717E+04  0.21425452259E+04  0.77000000000E+02 0.  0.
<mgrwt>
<rscale>  0 0.16447188E+03</rscale>
<asrwt>0</asrwt>
<pdfrwt beam="1">  1        2 0.65302615E+00 0.16447188E+03</pdfrwt>
<pdfrwt beam="2">  1       -2 0.24511283E-03 0.16447188E+03</pdfrwt>
<totfact> 0.46723790E+03</totfact>
</mgrwt>
</event>
<event>
 4    1  0.6122885E-004  0.1705676E+03  0.7818608E-02  0.1177257E+00
          2   -1    0    0  501    0  0.00000000000E+00  0.00000000000E+00  0.29478653199E+03  0.29478653200E+03  0.25500000000E-02 0.  1.
         -2   -1    0    0    0  501 -0.00000000000E+00 -0.00000000000E+00 -0.24673187267E+02  0.24673187399E+02  0.25500000000E-02 0. -1.
    5000001    1    1    2    0    0  0.26104344862E+02  0.21534242804E+02  0.16148829833E+03  0.18207863941E+03  0.77000000000E+02 0.  0.
   -5000001    1    1    2    0    0 -0.26104344862E+02 -0.21534242804E+02  0.10862504639E+03  0.13738107999E+03  0.77000000000E+02 0.  0.
<mgrwt>
<rscale>  0 0.17056756E+03</rscale>
<asrwt>0</asrwt>
<pdfrwt beam="1">  1        2 0.45351773E-01 0.17056756E+03</pdfrwt>
<pdfrwt beam="2">  1       -2 0.37958751E-02 0.17056756E+03</pdfrwt>
<totfact> 0.31451042E+04</totfact>
</mgrwt>
</event>
<event>
 4    1  0.6122885E-004  0.2423617E+03  0.7818608E-02  0.1118229E+00
          2   -1    0    0  501    0  0.00000000000E+00  0.00000000000E+00  0.95885225692E+03  0.95885225692E+03  0.25500000000E-02 0.  1.
         -2   -1    0    0    0  501 -0.00000000000E+00 -0.00000000000E+00 -0.15314974813E+02  0.15314975025E+02  0.25500000000E-02 0. -1.
    5000001    1    1    2    0    0 -0.20834836970E+02  0.89265618859E+02  0.39621133643E+03  0.41390199837E+03  0.77000000000E+02 0.  0.
   -5000001    1    1    2    0    0  0.20834836970E+02 -0.89265618859E+02  0.54732594568E+03  0.56026523358E+03  0.77000000000E+02 0.  0.
<mgrwt>
<rscale>  0 0.24236170E+03</rscale>
<asrwt>0</asrwt>
<pdfrwt beam="1">  1        2 0.14751571E+00 0.24236170E+03</pdfrwt>
<pdfrwt beam="2">  1       -2 0.23561503E-02 0.24236170E+03</pdfrwt>
<totfact> 0.16744074E+04</totfact>
</mgrwt>
</event>
<event>
 4    1  0.6122885E-004  0.3636516E+03  0.7818608E-02  0.1057147E+00
         -2   -1    0    0    0  501 -0.00000000000E+00  0.00000000000E+00  0.18482150370E+02  0.18482150546E+02  0.25500000000E-02 0. -1.
          2   -1    0    0  501    0  0.00000000000E+00 -0.00000000000E+00 -0.17887862379E+04  0.17887862379E+04  0.25500000000E-02 0.  1.
    5000001    1    1    2    0    0 -0.15616210033E+03  0.51981420152E+02 -0.85258319325E+03  0.87173147875E+03  0.77000000000E+02 0.  0.
   -5000001    1    1    2    0    0  0.15616210033E+03 -0.51981420152E+02 -0.91772089429E+03  0.93553690971E+03  0.77000000000E+02 0.  0.
<mgrwt>
<rscale>  0 0.36365157E+03</rscale>
<asrwt>0</asrwt>
<pdfrwt beam="1">  1        2 0.27519775E+00 0.36365157E+03</pdfrwt>
<pdfrwt beam="2">  1       -2 0.28434092E-02 0.36365157E+03</pdfrwt>
<totfact> 0.44014336E+03</totfact>
</mgrwt>
</event>
<event>
 4    1  0.6122885E-004  0.3473607E+03  0.7818608E-02  0.1063704E+00
         -2   -1    0    0    0  501 -0.00000000000E+00  0.00000000000E+00  0.40365099351E+03  0.40365099352E+03  0.25500000000E-02 0. -1.
          2   -1    0    0  501    0  0.00000000000E+00 -0.00000000000E+00 -0.74730063186E+02  0.74730063230E+02  0.25500000000E-02 0.  1.
    5000001    1    1    2    0    0  0.71543968473E+02 -0.13786053988E+03  0.14989893000E+03  0.22917843943E+03  0.77000000000E+02 0.  0.
   -5000001    1    1    2    0    0 -0.71543968473E+02  0.13786053988E+03  0.17902200033E+03  0.24920261733E+03  0.77000000000E+02 0.  0.
<mgrwt>
<rscale>  0 0.34736070E+03</rscale>
<asrwt>0</asrwt>
<pdfrwt beam="1">  1        2 0.11496933E-01 0.34736070E+03</pdfrwt>
<pdfrwt beam="2">  1       -2 0.62100152E-01 0.34736070E+03</pdfrwt>
<totfact> 0.13323902E+03</totfact>
</mgrwt>
</event>
<event>
 4    1  0.6122885E-004  0.3476676E+03  0.7818608E-02  0.1063576E+00
          2   -1    0    0  501    0  0.00000000000E+00  0.00000000000E+00  0.10021398043E+03  0.10021398046E+03  0.25500000000E-02 0.  1.
         -2   -1    0    0    0  501 -0.00000000000E+00 -0.00000000000E+00 -0.30153669243E+03  0.30153669244E+03  0.25500000000E-02 0. -1.
    5000001    1    1    2    0    0 -0.42884809645E+02 -0.14672239412E+03 -0.13576117189E+03  0.21846433033E+03  0.77000000000E+02 0.  0.
   -5000001    1    1    2    0    0  0.42884809645E+02  0.14672239412E+03 -0.65561540112E+02  0.18328634258E+03  0.77000000000E+02 0.  0.
<mgrwt>
<rscale>  0 0.34766761E+03</rscale>
<asrwt>0</asrwt>
<pdfrwt beam="1">  1        2 0.15417536E-01 0.34766761E+03</pdfrwt>
<pdfrwt beam="2">  1       -2 0.46390260E-01 0.34766761E+03</pdfrwt>
<totfact> 0.16905060E+03</totfact>
</mgrwt>
</event>
<event>
 4    1  0.6122885E-004  0.1787660E+03  0.7818608E-02  0.1169003E+00
          2   -1    0    0  501    0  0.00000000000E+00  0.00000000000E+00  0.69651036563E+03  0.69651036563E+03  0.25500000000E-02 0.  1.
         -2   -1    0    0    0  501 -0.00000000000E+00 -0.00000000000E+00 -0.11470498541E+02  0.11470498824E+02  0.25500000000E-02 0. -1.
    5000001    1    1    2    0    0  0.21458318747E+02  0.17517615560E+02  0.48492813257E+03  0.49178411936E+03  0.77000000000E+02 0.  0.
   -5000001    1    1    2    0    0 -0.21458318747E+02 -0.17517615560E+02  0.20011173452E+03  0.21619674510E+03  0.77000000000E+02 0.  0.
<mgrwt>
<rscale>  0 0.17876601E+03</rscale>
<asrwt>0</asrwt>
<pdfrwt beam="1">  1        2 0.10715548E+00 0.17876601E+03</pdfrwt>
<pdfrwt beam="2">  1       -2 0.17646914E-02 0.17876601E+03</pdfrwt>
<totfact> 0.37704164E+04</totfact>
</mgrwt>
</event>
<event>
 4    1  0.6122885E-004  0.2092107E+03  0.7818608E-02  0.1142193E+00
         -2   -1    0    0    0  501 -0.00000000000E+00  0.00000000000E+00  0.51919874007E+01  0.51919880269E+01  0.25500000000E-02 0. -1.
          2   -1    0    0  501    0  0.00000000000E+00 -0.00000000000E+00 -0.21075309668E+04  0.21075309668E+04  0.25500000000E-02 0.  1.
    5000001    1    1    2    0    0 -0.44799010783E+02 -0.26877159835E+02 -0.15337849848E+04  0.15366049306E+04  0.77000000000E+02 0.  0.
   -5000001    1    1    2    0    0  0.44799010783E+02  0.26877159835E+02 -0.56855399460E+03  0.57611802425E+03  0.77000000000E+02 0.  0.
<mgrwt>
<rscale>  0 0.20921066E+03</rscale>
<asrwt>0</asrwt>
<pdfrwt beam="1">  1        2 0.32423485E+00 0.20921066E+03</pdfrwt>
<pdfrwt beam="2">  1       -2 0.79876902E-03 0.20921066E+03</pdfrwt>
<totfact> 0.19091435E+04</totfact>
</mgrwt>
</event>
<event>
 4    1  0.6122885E-004  0.1805598E+03  0.7818608E-02  0.1167262E+00
         -2   -1    0    0    0  501 -0.00000000000E+00  0.00000000000E+00  0.76401231331E+02  0.76401231374E+02  0.25500000000E-02 0. -1.
          2   -1    0    0  501    0  0.00000000000E+00 -0.00000000000E+00 -0.10667964675E+03  0.10667964678E+03  0.25500000000E-02 0.  1.
    5000001    1    1    2    0    0 -0.11988728871E+02  0.43415103619E+02 -0.10580591485E+01  0.89211660288E+02  0.77000000000E+02 0.  0.
   -5000001    1    1    2    0    0  0.11988728871E+02 -0.43415103619E+02 -0.29220356270E+02  0.93869217866E+02  0.77000000000E+02 0.  0.
<mgrwt>
<rscale>  0 0.18055976E+03</rscale>
<asrwt>0</asrwt>
<pdfrwt beam="1">  1        2 0.16412253E-01 0.18055976E+03</pdfrwt>
<pdfrwt beam="2">  1       -2 0.11754036E-01 0.18055976E+03</pdfrwt>
<totfact> 0.17084878E+04</totfact>
</mgrwt>
</event>
<event>
 4    1  0.6122885E-004  0.2824950E+03  0.7818608E-02  0.1094334E+00
          2   -1    0    0  501    0  0.00000000000E+00  0.00000000000E+00  0.14524745406E+03  0.14524745408E+03  0.25500000000E-02 0.  1.
         -2   -1    0    0    0  501 -0.00000000000E+00 -0.00000000000E+00 -0.13735773657E+03  0.13735773660E+03  0.25500000000E-02 0. -1.
    5000001    1    1    2    0    0  0.14886806157E+02 -0.11615799459E+03  0.21489223620E+02  0.14179239555E+03  0.77000000000E+02 0.  0.
   -5000001    1    1    2    0    0 -0.14886806157E+02  0.11615799459E+03 -0.13599506137E+02  0.14081279512E+03  0.77000000000E+02 0.  0.
<mgrwt>
<rscale>  0 0.28249504E+03</rscale>
<asrwt>0</asrwt>
<pdfrwt beam="1">  1        2 0.22345762E-01 0.28249504E+03</pdfrwt>
<pdfrwt beam="2">  1       -2 0.21131960E-01 0.28249504E+03</pdfrwt>
<totfact> 0.46456671E+03</totfact>
</mgrwt>
</event>
<event>
 4    1  0.6122885E-004  0.3275070E+03  0.7818608E-02  0.1072245E+00
          2   -1    0    0  501    0  0.00000000000E+00  0.00000000000E+00  0.34012064068E+04  0.34012064068E+04  0.25500000000E-02 0.  1.
         -2   -1    0    0    0  501 -0.00000000000E+00 -0.00000000000E+00 -0.78840288524E+01  0.78840292648E+01  0.25500000000E-02 0. -1.
    5000001    1    1    2    0    0 -0.27932131534E+02  0.13999765491E+03  0.19309639639E+04  0.19377642729E+04  0.77000000000E+02 0.  0.
   -5000001    1    1    2    0    0  0.27932131534E+02 -0.13999765491E+03  0.14623584141E+04  0.14713261632E+04  0.77000000000E+02 0.  0.
<mgrwt>
<rscale>  0 0.32750701E+03</rscale>
<asrwt>0</asrwt>
<pdfrwt beam="1">  1        2 0.52326334E+00 0.32750701E+03</pdfrwt>
<pdfrwt beam="2">  1       -2 0.12129256E-02 0.32750701E+03</pdfrwt>
<totfact> 0.18798370E+03</totfact>
</mgrwt>
</event>
<event>
 4    1  0.6122885E-004  0.2830516E+03  0.7818608E-02  0.1094034E+00
          2   -1    0    0  501    0  0.00000000000E+00  0.00000000000E+00  0.13014679283E+04  0.13014679283E+04  0.25500000000E-02 0.  1.
         -2   -1    0    0    0  501 -0.00000000000E+00 -0.00000000000E+00 -0.15389968438E+02  0.15389968649E+02  0.25500000000E-02 0. -1.
    5000001    1    1    2    0    0 -0.10102336478E+03 -0.45143072311E+02  0.84351916957E+03  0.85422315974E+03  0.77000000000E+02 0.  0.
   -5000001    1    1    2    0    0  0.10102336478E+03  0.45143072311E+02  0.44255879032E+03  0.46263473723E+03  0.77000000000E+02 0.  0.
<mgrwt>
<rscale>  0 0.28305159E+03</rscale>
<asrwt>0</asrwt>
<pdfrwt beam="1">  1        2 0.20022575E+00 0.28305159E+03</pdfrwt>
<pdfrwt beam="2">  1       -2 0.23676884E-02 0.28305159E+03</pdfrwt>
<totfact> 0.10551231E+04</totfact>
</mgrwt>
</event>
<event>
 4    1  0.6122885E-004  0.2347211E+03  0.7818608E-02  0.1123360E+00
         -2   -1    0    0    0  501 -0.00000000000E+00  0.00000000000E+00  0.30328660943E+03  0.30328660944E+03  0.25500000000E-02 0. -1.
          2   -1    0    0  501    0  0.00000000000E+00 -0.00000000000E+00 -0.45414137833E+02  0.45414137904E+02  0.25500000000E-02 0.  1.
    5000001    1    1    2    0    0 -0.82454681008E+02  0.99133107674E+01  0.83208544216E+02  0.14053366138E+03  0.77000000000E+02 0.  0.
   -5000001    1    1    2    0    0  0.82454681008E+02 -0.99133107674E+01  0.17466392738E+03  0.20816708597E+03  0.77000000000E+02 0.  0.
<mgrwt>
<rscale>  0 0.23472111E+03</rscale>
<asrwt>0</asrwt>
<pdfrwt beam="1">  1        2 0.69867905E-02 0.23472111E+03</pdfrwt>
<pdfrwt beam="2">  1       -2 0.46659478E-01 0.23472111E+03</pdfrwt>
<totfact> 0.44049796E+03</totfact>
</mgrwt>
</event>
<event>
 4    1  0.6122885E-004  0.2717518E+03  0.7818608E-02  0.1100281E+00
          2   -1    0    0  501    0  0.00000000000E+00  0.00000000000E+00  0.88278376868E+03  0.88278376869E+03  0.25500000000E-02 0.  1.
         -2   -1    0    0    0  501 -0.00000000000E+00 -0.00000000000E+00 -0.20913677136E+02  0.20913677291E+02  0.25500000000E-02 0. -1.
    5000001    1    1    2    0    0  0.86275892589E+02  0.59292765738E+02  0.29899826173E+03  0.32601859184E+03  0.77000000000E+02 0.  0.
   -5000001    1    1    2    0    0 -0.86275892589E+02 -0.59292765738E+02  0.56287182982E+03  0.57767885413E+03  0.77000000000E+02 0.  0.
<mgrwt>
<rscale>  0 0.27175176E+03</rscale>
<asrwt>0</asrwt>
<pdfrwt beam="1">  1        2 0.13581291E+00 0.27175176E+03</pdfrwt>
<pdfrwt beam="2">  1       -2 0.32174883E-02 0.27175176E+03</pdfrwt>
<totfact> 0.11849799E+04</totfact>
</mgrwt>
</event>
<event>
 4    1  0.6122885E-004  0.1706561E+03  0.7818608E-02  0.1177165E+00
          2   -1    0    0  501    0  0.00000000000E+00  0.00000000000E+00  0.10808445395E+04  0.10808445395E+04  0.25500000000E-02 0.  1.
         -2   -1    0    0    0  501 -0.00000000000E+00 -0.00000000000E+00 -0.67362868303E+01  0.67362873130E+01  0.25500000000E-02 0. -1.
    5000001    1    1    2    0    0 -0.35131685563E+02 -0.18943005681E+01  0.46899324709E+03  0.47657264873E+03  0.77000000000E+02 0.  0.
   -5000001    1    1    2    0    0  0.35131685563E+02  0.18943005681E+01  0.60511500555E+03  0.61100817805E+03  0.77000000000E+02 0.  0.
<mgrwt>
<rscale>  0 0.17065613E+03</rscale>
<asrwt>0</asrwt>
<pdfrwt beam="1">  1        2 0.16628373E+00 0.17065613E+03</pdfrwt>
<pdfrwt beam="2">  1       -2 0.10363521E-02 0.17065613E+03</pdfrwt>
<totfact> 0.45687170E+04</totfact>
</mgrwt>
</event>
<event>
 4    1  0.6122885E-004  0.2270365E+03  0.7818608E-02  0.1128743E+00
          2   -1    0    0  501    0  0.00000000000E+00  0.00000000000E+00  0.14984580703E+04  0.14984580703E+04  0.25500000000E-02 0. -1.
         -2   -1    0    0    0  501 -0.00000000000E+00 -0.00000000000E+00 -0.85997701160E+01  0.85997704941E+01  0.25500000000E-02 0.  1.
    5000001    1    1    2    0    0  0.22062117585E+02 -0.50136800352E+02  0.32737288822E+03  0.34073808669E+03  0.77000000000E+02 0.  0.
   -5000001    1    1    2    0    0 -0.22062117585E+02  0.50136800352E+02  0.11624854120E+04  0.11663197541E+04  0.77000000000E+02 0.  0.
<mgrwt>
<rscale>  0 0.22703652E+03</rscale>
<asrwt>0</asrwt>
<pdfrwt beam="1">  1        2 0.23053199E+00 0.22703652E+03</pdfrwt>
<pdfrwt beam="2">  1       -2 0.13230417E-02 0.22703652E+03</pdfrwt>
<totfact> 0.19222729E+04</totfact>
</mgrwt>
</event>
<event>
 4    1  0.6122885E-004  0.4330308E+03  0.7818608E-02  0.1032907E+00
         -2   -1    0    0    0  501 -0.00000000000E+00  0.00000000000E+00  0.35645968454E+02  0.35645968545E+02  0.25500000000E-02 0. -1.
          2   -1    0    0  501    0  0.00000000000E+00 -0.00000000000E+00 -0.13151253142E+04  0.13151253142E+04  0.25500000000E-02 0.  1.
    5000001    1    1    2    0    0  0.69540111936E+02 -0.18787212346E+03 -0.55051592454E+03  0.59087100547E+03  0.77000000000E+02 0.  0.
   -5000001    1    1    2    0    0 -0.69540111936E+02  0.18787212346E+03 -0.72896342121E+03  0.75990027728E+03  0.77000000000E+02 0.  0.
<mgrwt>
<rscale>  0 0.43303079E+03</rscale>
<asrwt>0</asrwt>
<pdfrwt beam="1">  1        2 0.20232693E+00 0.43303079E+03</pdfrwt>
<pdfrwt beam="2">  1       -2 0.54839962E-02 0.43303079E+03</pdfrwt>
<totfact> 0.29275909E+03</totfact>
</mgrwt>
</event>
<event>
 4    1  0.6122885E-004  0.5612505E+03  0.7818608E-02  0.9989229E-01
          2   -1    0    0  501    0  0.00000000000E+00  0.00000000000E+00  0.15416599224E+04  0.15416599224E+04  0.25500000000E-02 0.  1.
         -2   -1    0    0    0  501 -0.00000000000E+00 -0.00000000000E+00 -0.51081646733E+02  0.51081646796E+02  0.25500000000E-02 0. -1.
    5000001    1    1    2    0    0  0.57656036315E+02 -0.23110553221E+03  0.11052318882E+04  0.11332257111E+04  0.77000000000E+02 0.  0.
   -5000001    1    1    2    0    0 -0.57656036315E+02  0.23110553221E+03  0.38534638749E+03  0.45951585815E+03  0.77000000000E+02 0.  0.
<mgrwt>
<rscale>  0 0.56125049E+03</rscale>
<asrwt>0</asrwt>
<pdfrwt beam="1">  1        2 0.23717848E+00 0.56125049E+03</pdfrwt>
<pdfrwt beam="2">  1       -2 0.78587139E-02 0.56125049E+03</pdfrwt>
<totfact> 0.12425254E+03</totfact>
</mgrwt>
</event>
<event>
 4    1  0.6122885E-004  0.3740211E+03  0.7818608E-02  0.1053166E+00
         -2   -1    0    0    0  501 -0.00000000000E+00  0.00000000000E+00  0.33948095774E+03  0.33948095775E+03  0.25500000000E-02 0. -1.
          2   -1    0    0  501    0  0.00000000000E+00 -0.00000000000E+00 -0.10301887353E+03  0.10301887357E+03  0.25500000000E-02 0.  1.
    5000001    1    1    2    0    0 -0.13950171423E+03  0.95970276945E+02  0.95384162168E+02  0.20904105033E+03  0.77000000000E+02 0.  0.
   -5000001    1    1    2    0    0  0.13950171423E+03 -0.95970276945E+02  0.14107792204E+03  0.23345878098E+03  0.77000000000E+02 0.  0.
<mgrwt>
<rscale>  0 0.37402110E+03</rscale>
<asrwt>0</asrwt>
<pdfrwt beam="1">  1        2 0.15849057E-01 0.37402110E+03</pdfrwt>
<pdfrwt beam="2">  1       -2 0.52227841E-01 0.37402110E+03</pdfrwt>
<totfact> 0.12917628E+03</totfact>
</mgrwt>
</event>
<event>
 4    1  0.6122885E-004  0.5441247E+03  0.7818608E-02  0.1002863E+00
          2   -1    0    0  501    0  0.00000000000E+00  0.00000000000E+00  0.63652927894E+03  0.63652927894E+03  0.25500000000E-02 0.  1.
         -2   -1    0    0    0  501 -0.00000000000E+00 -0.00000000000E+00 -0.11628363022E+03  0.11628363025E+03  0.25500000000E-02 0. -1.
    5000001    1    1    2    0    0 -0.19414300022E+03 -0.16231428885E+03  0.34818646375E+03  0.43726450398E+03  0.77000000000E+02 0.  0.
   -5000001    1    1    2    0    0  0.19414300022E+03  0.16231428885E+03  0.17205918497E+03  0.31554840521E+03  0.77000000000E+02 0.  0.
<mgrwt>
<rscale>  0 0.54412475E+03</rscale>
<asrwt>0</asrwt>
<pdfrwt beam="1">  1        2 0.97927581E-01 0.54412475E+03</pdfrwt>
<pdfrwt beam="2">  1       -2 0.17889789E-01 0.54412475E+03</pdfrwt>
<totfact> 0.11988661E+03</totfact>
</mgrwt>
</event>
<event>
 4    1  0.6122885E-004  0.2337103E+03  0.7818608E-02  0.1124055E+00
         -2   -1    0    0    0  501 -0.00000000000E+00  0.00000000000E+00  0.70201374047E+01  0.70201378678E+01  0.25500000000E-02 0.  1.
          2   -1    0    0  501    0  0.00000000000E+00 -0.00000000000E+00 -0.19451369874E+04  0.19451369874E+04  0.25500000000E-02 0. -1.
    5000001    1    1    2    0    0 -0.23913903610E+01 -0.65083785478E+02 -0.14621275581E+04  0.14656014513E+04  0.77000000000E+02 0.  0.
   -5000001    1    1    2    0    0  0.23913903610E+01  0.65083785478E+02 -0.47598929197E+03  0.48655567405E+03  0.77000000000E+02 0.  0.
<mgrwt>
<rscale>  0 0.23371033E+03</rscale>
<asrwt>0</asrwt>
<pdfrwt beam="1">  1        2 0.29925141E+00 0.23371033E+03</pdfrwt>
<pdfrwt beam="2">  1       -2 0.10800227E-02 0.23371033E+03</pdfrwt>
<totfact> 0.15064943E+04</totfact>
</mgrwt>
</event>
<event>
 4    1  0.6122885E-004  0.1730656E+03  0.7818608E-02  0.1174688E+00
          2   -1    0    0  501    0  0.00000000000E+00  0.00000000000E+00  0.47957436063E+03  0.47957436064E+03  0.25500000000E-02 0.  1.
         -2   -1    0    0    0  501 -0.00000000000E+00 -0.00000000000E+00 -0.15613691175E+02  0.15613691383E+02  0.25500000000E-02 0. -1.
    5000001    1    1    2    0    0 -0.37029289868E+02 -0.13290830494E+02  0.22244257526E+03  0.23865773352E+03  0.77000000000E+02 0.  0.
   -5000001    1    1    2    0    0  0.37029289868E+02  0.13290830494E+02  0.24151809420E+03  0.25653031850E+03  0.77000000000E+02 0.  0.
<mgrwt>
<rscale>  0 0.17306561E+03</rscale>
<asrwt>0</asrwt>
<pdfrwt beam="1">  1        2 0.73780675E-01 0.17306561E+03</pdfrwt>
<pdfrwt beam="2">  1       -2 0.24021062E-02 0.17306561E+03</pdfrwt>
<totfact> 0.36684889E+04</totfact>
</mgrwt>
</event>
<event>
 4    1  0.6122885E-004  0.1595169E+03  0.7818608E-02  0.1189243E+00
          2   -1    0    0  501    0  0.00000000000E+00  0.00000000000E+00  0.13646635792E+04  0.13646635792E+04  0.25500000000E-02 0.  1.
         -2   -1    0    0    0  501 -0.00000000000E+00 -0.00000000000E+00 -0.46615248769E+01  0.46615255744E+01  0.25500000000E-02 0. -1.
    5000001    1    1    2    0    0  0.11322259312E+02  0.12508628206E+02  0.57565644186E+03  0.58102839723E+03  0.77000000000E+02 0.  0.
   -5000001    1    1    2    0    0 -0.11322259312E+02 -0.12508628206E+02  0.78434561250E+03  0.78829670758E+03  0.77000000000E+02 0.  0.
<mgrwt>
<rscale>  0 0.15951694E+03</rscale>
<asrwt>0</asrwt>
<pdfrwt beam="1">  1        2 0.20994781E+00 0.15951694E+03</pdfrwt>
<pdfrwt beam="2">  1       -2 0.71715919E-03 0.15951694E+03</pdfrwt>
<totfact> 0.53553543E+04</totfact>
</mgrwt>
</event>
<event>
 4    1  0.6122885E-004  0.1884767E+03  0.7818608E-02  0.1159842E+00
         -2   -1    0    0    0  501 -0.00000000000E+00  0.00000000000E+00  0.66878464889E+01  0.66878469750E+01  0.25500000000E-02 0. -1.
          2   -1    0    0  501    0  0.00000000000E+00 -0.00000000000E+00 -0.13279106760E+04  0.13279106760E+04  0.25500000000E-02 0.  1.
    5000001    1    1    2    0    0 -0.24578127867E+02 -0.39744423753E+02 -0.85686552309E+03  0.86158646012E+03  0.77000000000E+02 0.  0.
   -5000001    1    1    2    0    0  0.24578127867E+02  0.39744423753E+02 -0.46435730641E+03  0.47301206286E+03  0.77000000000E+02 0.  0.
<mgrwt>
<rscale>  0 0.18847666E+03</rscale>
<asrwt>0</asrwt>
<pdfrwt beam="1">  1        2 0.20429374E+00 0.18847666E+03</pdfrwt>
<pdfrwt beam="2">  1       -2 0.10289005E-02 0.18847666E+03</pdfrwt>
<totfact> 0.33812967E+04</totfact>
</mgrwt>
</event>
<event>
 4    1  0.6122885E-004  0.3483399E+03  0.7818608E-02  0.1063298E+00
         -2   -1    0    0    0  501 -0.00000000000E+00  0.00000000000E+00  0.93123161033E+02  0.93123161068E+02  0.25500000000E-02 0. -1.
          2   -1    0    0  501    0  0.00000000000E+00 -0.00000000000E+00 -0.32575331551E+03  0.32575331552E+03  0.25500000000E-02 0.  1.
    5000001    1    1    2    0    0 -0.98193996573E+02  0.90982639851E+02 -0.19469356332E+02  0.15565332490E+03  0.77000000000E+02 0.  0.
   -5000001    1    1    2    0    0  0.98193996573E+02 -0.90982639851E+02 -0.21316079814E+03  0.26322315168E+03  0.77000000000E+02 0.  0.
<mgrwt>
<rscale>  0 0.34833994E+03</rscale>
<asrwt>0</asrwt>
<pdfrwt beam="1">  1        2 0.50115894E-01 0.34833994E+03</pdfrwt>
<pdfrwt beam="2">  1       -2 0.14326640E-01 0.34833994E+03</pdfrwt>
<totfact> 0.37054604E+03</totfact>
</mgrwt>
</event>
<event>
 4    1  0.6122885E-004  0.2291267E+03  0.7818608E-02  0.1127256E+00
         -2   -1    0    0    0  501 -0.00000000000E+00  0.00000000000E+00  0.25786856877E+02  0.25786857003E+02  0.25500000000E-02 0. -1.
          2   -1    0    0  501    0  0.00000000000E+00 -0.00000000000E+00 -0.50897103679E+03  0.50897103680E+03  0.25500000000E-02 0.  1.
    5000001    1    1    2    0    0  0.34130053332E+02  0.57321104302E+02 -0.36387562107E+03  0.37786907408E+03  0.77000000000E+02 0.  0.
   -5000001    1    1    2    0    0 -0.34130053332E+02 -0.57321104302E+02 -0.11930855884E+03  0.15688881971E+03  0.77000000000E+02 0.  0.
<mgrwt>
<rscale>  0 0.22912672E+03</rscale>
<asrwt>0</asrwt>
<pdfrwt beam="1">  1        2 0.78303229E-01 0.22912672E+03</pdfrwt>
<pdfrwt beam="2">  1       -2 0.39672091E-02 0.22912672E+03</pdfrwt>
<totfact> 0.16673574E+04</totfact>
</mgrwt>
</event>
<event>
 4    1  0.6122885E-004  0.2309842E+03  0.7818608E-02  0.1125949E+00
         -2   -1    0    0    0  501 -0.00000000000E+00  0.00000000000E+00  0.60223113750E+01  0.60223119149E+01  0.25500000000E-02 0. -1.
          2   -1    0    0  501    0  0.00000000000E+00 -0.00000000000E+00 -0.22148349229E+04  0.22148349229E+04  0.25500000000E-02 0.  1.
    5000001    1    1    2    0    0 -0.33000172825E+02  0.21904350354E+02 -0.36960890629E+03  0.37961632681E+03  0.77000000000E+02 0.  0.
   -5000001    1    1    2    0    0  0.33000172825E+02 -0.21904350354E+02 -0.18392037052E+04  0.18412409080E+04  0.77000000000E+02 0.  0.
<mgrwt>
<rscale>  0 0.23098421E+03</rscale>
<asrwt>0</asrwt>
<pdfrwt beam="1">  1        2 0.34074318E+00 0.23098421E+03</pdfrwt>
<pdfrwt beam="2">  1       -2 0.92651125E-03 0.23098421E+03</pdfrwt>
<totfact> 0.13570230E+04</totfact>
</mgrwt>
</event>
<event>
 4    1  0.6122885E-004  0.4805836E+03  0.7818608E-02  0.1018975E+00
          2   -1    0    0  501    0  0.00000000000E+00  0.00000000000E+00  0.14704617737E+04  0.14704617737E+04  0.25500000000E-02 0.  1.
         -2   -1    0    0    0  501 -0.00000000000E+00 -0.00000000000E+00 -0.39266673564E+02  0.39266673646E+02  0.25500000000E-02 0. -1.
    5000001    1    1    2    0    0 -0.18548524495E+03  0.32642339310E+02  0.31402209475E+03  0.37417799829E+03  0.77000000000E+02 0.  0.
   -5000001    1    1    2    0    0  0.18548524495E+03 -0.32642339310E+02  0.11171730054E+04  0.11355504491E+04  0.77000000000E+02 0.  0.
<mgrwt>
<rscale>  0 0.48058357E+03</rscale>
<asrwt>0</asrwt>
<pdfrwt beam="1">  1        2 0.22622490E+00 0.48058357E+03</pdfrwt>
<pdfrwt beam="2">  1       -2 0.60410263E-02 0.48058357E+03</pdfrwt>
<totfact> 0.20631841E+03</totfact>
</mgrwt>
</event>
<event>
 4    1  0.6122885E-004  0.7045817E+03  0.7818608E-02  0.9709429E-01
         -2   -1    0    0    0  501 -0.00000000000E+00  0.00000000000E+00  0.18356070641E+03  0.18356070643E+03  0.25500000000E-02 0. -1.
          2   -1    0    0  501    0  0.00000000000E+00 -0.00000000000E+00 -0.67611875235E+03  0.67611875235E+03  0.25500000000E-02 0.  1.
    5000001    1    1    2    0    0  0.22853972007E+03 -0.15398764357E+03  0.44779147802E+01  0.28616717097E+03  0.77000000000E+02 0.  0.
   -5000001    1    1    2    0    0 -0.22853972007E+03  0.15398764357E+03 -0.49703596072E+03  0.57351228781E+03  0.77000000000E+02 0.  0.
<mgrwt>
<rscale>  0 0.70458168E+03</rscale>
<asrwt>0</asrwt>
<pdfrwt beam="1">  1        2 0.10401827E+00 0.70458168E+03</pdfrwt>
<pdfrwt beam="2">  1       -2 0.28240109E-01 0.70458168E+03</pdfrwt>
<totfact> 0.49392746E+02</totfact>
</mgrwt>
</event>
<event>
 4    1  0.6122885E-004  0.2106989E+03  0.7818608E-02  0.1141014E+00
         -2   -1    0    0    0  501 -0.00000000000E+00  0.00000000000E+00  0.13456424738E+02  0.13456424979E+02  0.25500000000E-02 0. -1.
          2   -1    0    0  501    0  0.00000000000E+00 -0.00000000000E+00 -0.82477360396E+03  0.82477360396E+03  0.25500000000E-02 0.  1.
    5000001    1    1    2    0    0 -0.12276017145E+02 -0.70362109658E+02 -0.37285798425E+03  0.38736753025E+03  0.77000000000E+02 0.  0.
   -5000001    1    1    2    0    0  0.12276017145E+02  0.70362109658E+02 -0.43845919497E+03  0.45086249869E+03  0.77000000000E+02 0.  0.
<mgrwt>
<rscale>  0 0.21069888E+03</rscale>
<asrwt>0</asrwt>
<pdfrwt beam="1">  1        2 0.12688821E+00 0.21069888E+03</pdfrwt>
<pdfrwt beam="2">  1       -2 0.20702199E-02 0.21069888E+03</pdfrwt>
<totfact> 0.24533028E+04</totfact>
</mgrwt>
</event>
<event>
 4    1  0.6122885E-004  0.2244599E+03  0.7818608E-02  0.1130601E+00
         -2   -1    0    0    0  501 -0.00000000000E+00  0.00000000000E+00  0.11358637578E+03  0.11358637581E+03  0.25500000000E-02 0. -1.
          2   -1    0    0  501    0  0.00000000000E+00 -0.00000000000E+00 -0.11088969628E+03  0.11088969631E+03  0.25500000000E-02 0.  1.
    5000001    1    1    2    0    0  0.35915246295E+02  0.72524950680E+02  0.12155845837E+02  0.11236786896E+03  0.77000000000E+02 0.  0.
   -5000001    1    1    2    0    0 -0.35915246295E+02 -0.72524950680E+02 -0.94591663314E+01  0.11210820316E+03  0.77000000000E+02 0.  0.
<mgrwt>
<rscale>  0 0.22445987E+03</rscale>
<asrwt>0</asrwt>
<pdfrwt beam="1">  1        2 0.17059953E-01 0.22445987E+03</pdfrwt>
<pdfrwt beam="2">  1       -2 0.17474827E-01 0.22445987E+03</pdfrwt>
<totfact> 0.86591137E+03</totfact>
</mgrwt>
</event>
<event>
 4    1  0.6122885E-004  0.2282762E+03  0.7818608E-02  0.1127859E+00
          2   -1    0    0  501    0  0.00000000000E+00  0.00000000000E+00  0.52604141409E+02  0.52604141471E+02  0.25500000000E-02 0.  1.
         -2   -1    0    0    0  501 -0.00000000000E+00 -0.00000000000E+00 -0.24765168509E+03  0.24765168510E+03  0.25500000000E-02 0. -1.
    5000001    1    1    2    0    0 -0.39325906048E+02  0.69152066528E+02 -0.13402163841E+03  0.17383709258E+03  0.77000000000E+02 0.  0.
   -5000001    1    1    2    0    0  0.39325906048E+02 -0.69152066528E+02 -0.61025905263E+02  0.12641873399E+03  0.77000000000E+02 0.  0.
<mgrwt>
<rscale>  0 0.22827619E+03</rscale>
<asrwt>0</asrwt>
<pdfrwt beam="1">  1        2 0.80929450E-02 0.22827619E+03</pdfrwt>
<pdfrwt beam="2">  1       -2 0.38100259E-01 0.22827619E+03</pdfrwt>
<totfact> 0.53879761E+03</totfact>
</mgrwt>
</event>
<event>
 4    1  0.6122885E-004  0.2495182E+03  0.7818608E-02  0.1113610E+00
         -2   -1    0    0    0  501 -0.00000000000E+00  0.00000000000E+00  0.79505738224E+01  0.79505742313E+01  0.25500000000E-02 0. -1.
          2   -1    0    0  501    0  0.00000000000E+00 -0.00000000000E+00 -0.19576992043E+04  0.19576992043E+04  0.25500000000E-02 0.  1.
    5000001    1    1    2    0    0 -0.69804125602E+02 -0.68776885179E+02 -0.92964969987E+03  0.93796611898E+03  0.77000000000E+02 0.  0.
   -5000001    1    1    2    0    0  0.69804125602E+02  0.68776885179E+02 -0.10200989307E+04  0.10276836596E+04  0.77000000000E+02 0.  0.
<mgrwt>
<rscale>  0 0.24951820E+03</rscale>
<asrwt>0</asrwt>
<pdfrwt beam="1">  1        2 0.30118411E+00 0.24951820E+03</pdfrwt>
<pdfrwt beam="2">  1       -2 0.12231668E-02 0.24951820E+03</pdfrwt>
<totfact> 0.12405439E+04</totfact>
</mgrwt>
</event>
<event>
 4    1  0.6122885E-004  0.3121980E+03  0.7818608E-02  0.1079297E+00
         -2   -1    0    0    0  501 -0.00000000000E+00  0.00000000000E+00  0.67373811576E+03  0.67373811576E+03  0.25500000000E-02 0. -1.
          2   -1    0    0  501    0  0.00000000000E+00 -0.00000000000E+00 -0.36166718078E+02  0.36166718168E+02  0.25500000000E-02 0.  1.
    5000001    1    1    2    0    0  0.12520945406E+03  0.38038719402E+02  0.40119808717E+03  0.42896766394E+03  0.77000000000E+02 0.  0.
   -5000001    1    1    2    0    0 -0.12520945406E+03 -0.38038719402E+02  0.23637331051E+03  0.28093716999E+03  0.77000000000E+02 0.  0.
<mgrwt>
<rscale>  0 0.31219799E+03</rscale>
<asrwt>0</asrwt>
<pdfrwt beam="1">  1        2 0.55641099E-02 0.31219799E+03</pdfrwt>
<pdfrwt beam="2">  1       -2 0.10365203E+00 0.31219799E+03</pdfrwt>
<totfact> 0.10791417E+03</totfact>
</mgrwt>
</event>
<event>
 4    1  0.6122885E-004  0.1645276E+03  0.7818608E-02  0.1183678E+00
         -2   -1    0    0    0  501 -0.00000000000E+00  0.00000000000E+00  0.65501545028E+01  0.65501549992E+01  0.25500000000E-02 0. -1.
          2   -1    0    0  501    0  0.00000000000E+00 -0.00000000000E+00 -0.10331557539E+04  0.10331557539E+04  0.25500000000E-02 0.  1.
    5000001    1    1    2    0    0 -0.28526337407E+02  0.18578745206E+01 -0.54234871711E+03  0.54853289288E+03  0.77000000000E+02 0.  0.
   -5000001    1    1    2    0    0  0.28526337407E+02 -0.18578745206E+01 -0.48425688233E+03  0.49117301606E+03  0.77000000000E+02 0.  0.
<mgrwt>
<rscale>  0 0.16452757E+03</rscale>
<asrwt>0</asrwt>
<pdfrwt beam="1">  1        2 0.15894691E+00 0.16452757E+03</pdfrwt>
<pdfrwt beam="2">  1       -2 0.10077169E-02 0.16452757E+03</pdfrwt>
<totfact> 0.50576658E+04</totfact>
</mgrwt>
</event>
<event>
 4    1  0.6122885E-004  0.4221658E+03  0.7818608E-02  0.1036364E+00
          2   -1    0    0  501    0  0.00000000000E+00  0.00000000000E+00  0.12753757618E+04  0.12753757618E+04  0.25500000000E-02 0.  1.
         -2   -1    0    0    0  501 -0.00000000000E+00 -0.00000000000E+00 -0.34935575981E+02  0.34935576074E+02  0.25500000000E-02 0. -1.
    5000001    1    1    2    0    0  0.15256237812E+03  0.10194631710E+02  0.10034811893E+04  0.10179797183E+04  0.77000000000E+02 0.  0.
   -5000001    1    1    2    0    0 -0.15256237812E+03 -0.10194631710E+02  0.23695899652E+03  0.29233161951E+03  0.77000000000E+02 0.  0.
<mgrwt>
<rscale>  0 0.42216578E+03</rscale>
<asrwt>0</asrwt>
<pdfrwt beam="1">  1        2 0.19621169E+00 0.42216578E+03</pdfrwt>
<pdfrwt beam="2">  1       -2 0.53747030E-02 0.42216578E+03</pdfrwt>
<totfact> 0.31806345E+03</totfact>
</mgrwt>
</event>
<event>
 4    1  0.6122885E-004  0.2472503E+03  0.7818608E-02  0.1115055E+00
          2   -1    0    0  501    0  0.00000000000E+00  0.00000000000E+00  0.60449010252E+03  0.60449010253E+03  0.25500000000E-02 0.  1.
         -2   -1    0    0    0  501 -0.00000000000E+00 -0.00000000000E+00 -0.25282755595E+02  0.25282755723E+02  0.25500000000E-02 0. -1.
    5000001    1    1    2    0    0  0.84534145956E+02  0.30937645490E+02  0.19951326743E+03  0.23202953179E+03  0.77000000000E+02 0.  0.
   -5000001    1    1    2    0    0 -0.84534145956E+02 -0.30937645490E+02  0.37969407950E+03  0.39774332646E+03  0.77000000000E+02 0.  0.
<mgrwt>
<rscale>  0 0.24725028E+03</rscale>
<asrwt>0</asrwt>
<pdfrwt beam="1">  1        2 0.92998478E-01 0.24725028E+03</pdfrwt>
<pdfrwt beam="2">  1       -2 0.38896547E-02 0.24725028E+03</pdfrwt>
<totfact> 0.14179906E+04</totfact>
</mgrwt>
</event>
<event>
 4    1  0.6122885E-004  0.2376149E+03  0.7818608E-02  0.1121392E+00
          2   -1    0    0  501    0  0.00000000000E+00  0.00000000000E+00  0.27468697291E+03  0.27468697292E+03  0.25500000000E-02 0.  1.
         -2   -1    0    0    0  501 -0.00000000000E+00 -0.00000000000E+00 -0.51386529207E+02  0.51386529270E+02  0.25500000000E-02 0. -1.
    5000001    1    1    2    0    0 -0.87663807893E+02 -0.78173051671E+01  0.14044047565E+03  0.18275278569E+03  0.77000000000E+02 0.  0.
   -5000001    1    1    2    0    0  0.87663807893E+02  0.78173051671E+01  0.82859968049E+02  0.14332071650E+03  0.77000000000E+02 0.  0.
<mgrwt>
<rscale>  0 0.23761490E+03</rscale>
<asrwt>0</asrwt>
<pdfrwt beam="1">  1        2 0.42259535E-01 0.23761490E+03</pdfrwt>
<pdfrwt beam="2">  1       -2 0.79056197E-02 0.23761490E+03</pdfrwt>
<totfact> 0.11386606E+04</totfact>
</mgrwt>
</event>
<event>
 4    1  0.6122885E-004  0.3105007E+03  0.7818608E-02  0.1080106E+00
         -2   -1    0    0    0  501 -0.00000000000E+00  0.00000000000E+00  0.51234484647E+03  0.51234484647E+03  0.25500000000E-02 0. -1.
          2   -1    0    0  501    0  0.00000000000E+00 -0.00000000000E+00 -0.47043841210E+02  0.47043841279E+02  0.25500000000E-02 0.  1.
    5000001    1    1    2    0    0 -0.10091757916E+03  0.52566545103E+02  0.10241219969E+03  0.17136177548E+03  0.77000000000E+02 0.  0.
   -5000001    1    1    2    0    0  0.10091757916E+03 -0.52566545103E+02  0.36288880556E+03  0.38802691228E+03  0.77000000000E+02 0.  0.
<mgrwt>
<rscale>  0 0.31050069E+03</rscale>
<asrwt>0</asrwt>
<pdfrwt beam="1">  1        2 0.72375139E-02 0.31050069E+03</pdfrwt>
<pdfrwt beam="2">  1       -2 0.78822286E-01 0.31050069E+03</pdfrwt>
<totfact> 0.14278339E+03</totfact>
</mgrwt>
</event>
<event>
 4    1  0.6122885E-004  0.1900727E+03  0.7818608E-02  0.1158396E+00
         -2   -1    0    0    0  501 -0.00000000000E+00  0.00000000000E+00  0.34917731947E+01  0.34917741258E+01  0.25500000000E-02 0. -1.
          2   -1    0    0  501    0  0.00000000000E+00 -0.00000000000E+00 -0.25866242432E+04  0.25866242432E+04  0.25500000000E-02 0.  1.
    5000001    1    1    2    0    0  0.32874754068E+02 -0.42434301704E+02 -0.10887635891E+04  0.10928021652E+04  0.77000000000E+02 0.  0.
   -5000001    1    1    2    0    0 -0.32874754068E+02  0.42434301704E+02 -0.14943688809E+04  0.14973138521E+04  0.77000000000E+02 0.  0.
<mgrwt>
<rscale>  0 0.19007269E+03</rscale>
<asrwt>0</asrwt>
<pdfrwt beam="1">  1        2 0.39794066E+00 0.19007269E+03</pdfrwt>
<pdfrwt beam="2">  1       -2 0.53719802E-03 0.19007269E+03</pdfrwt>
<totfact> 0.18661236E+04</totfact>
</mgrwt>
</event>
<event>
 4    1  0.6122885E-004  0.2695901E+03  0.7818608E-02  0.1101514E+00
         -2   -1    0    0    0  501 -0.00000000000E+00  0.00000000000E+00  0.27863502928E+02  0.27863503045E+02  0.25500000000E-02 0. -1.
          2   -1    0    0  501    0  0.00000000000E+00 -0.00000000000E+00 -0.65209701876E+03  0.65209701877E+03  0.25500000000E-02 0.  1.
    5000001    1    1    2    0    0 -0.92585436652E+02  0.43601846057E+02 -0.41815494554E+03  0.43732795765E+03  0.77000000000E+02 0.  0.
   -5000001    1    1    2    0    0  0.92585436652E+02 -0.43601846057E+02 -0.20607857030E+03  0.24263256417E+03  0.77000000000E+02 0.  0.
<mgrwt>
<rscale>  0 0.26959011E+03</rscale>
<asrwt>0</asrwt>
<pdfrwt beam="1">  1        2 0.10032261E+00 0.26959011E+03</pdfrwt>
<pdfrwt beam="2">  1       -2 0.42866933E-02 0.26959011E+03</pdfrwt>
<totfact> 0.11251022E+04</totfact>
</mgrwt>
</event>
<event>
 4    1  0.6122885E-004  0.1834310E+03  0.7818608E-02  0.1164523E+00
         -2   -1    0    0    0  501 -0.00000000000E+00  0.00000000000E+00  0.24416887719E+02  0.24416887853E+02  0.25500000000E-02 0. -1.
          2   -1    0    0  501    0  0.00000000000E+00 -0.00000000000E+00 -0.34450466111E+03  0.34450466112E+03  0.25500000000E-02 0.  1.
    5000001    1    1    2    0    0  0.18517908378E+02 -0.43948661766E+02 -0.13101427367E+03  0.15927378223E+03  0.77000000000E+02 0.  0.
   -5000001    1    1    2    0    0 -0.18517908378E+02  0.43948661766E+02 -0.18907349973E+03  0.20964776674E+03  0.77000000000E+02 0.  0.
<mgrwt>
<rscale>  0 0.18343099E+03</rscale>
<asrwt>0</asrwt>
<pdfrwt beam="1">  1        2 0.53000714E-01 0.18343099E+03</pdfrwt>
<pdfrwt beam="2">  1       -2 0.37564445E-02 0.18343099E+03</pdfrwt>
<totfact> 0.27224917E+04</totfact>
</mgrwt>
</event>
<event>
 4    1  0.6122885E-004  0.2089501E+03  0.7818608E-02  0.1142400E+00
          2   -1    0    0  501    0  0.00000000000E+00  0.00000000000E+00  0.96026689272E+03  0.96026689272E+03  0.25500000000E-02 0.  1.
         -2   -1    0    0    0  501 -0.00000000000E+00 -0.00000000000E+00 -0.11366672009E+02  0.11366672295E+02  0.25500000000E-02 0. -1.
    5000001    1    1    2    0    0  0.52436517277E+02  0.69412884854E+01  0.69197563987E+03  0.69825285964E+03  0.77000000000E+02 0.  0.
   -5000001    1    1    2    0    0 -0.52436517277E+02 -0.69412884854E+01  0.25692458084E+03  0.27338070537E+03  0.77000000000E+02 0.  0.
<mgrwt>
<rscale>  0 0.20895013E+03</rscale>
<asrwt>0</asrwt>
<pdfrwt beam="1">  1        2 0.14773340E+00 0.20895013E+03</pdfrwt>
<pdfrwt beam="2">  1       -2 0.17487184E-02 0.20895013E+03</pdfrwt>
<totfact> 0.25667073E+04</totfact>
</mgrwt>
</event>
<event>
 4    1  0.6122885E-004  0.3834259E+03  0.7818608E-02  0.1049675E+00
          2   -1    0    0  501    0  0.00000000000E+00  0.00000000000E+00  0.18938547410E+04  0.18938547410E+04  0.25500000000E-02 0. -1.
         -2   -1    0    0    0  501 -0.00000000000E+00 -0.00000000000E+00 -0.19406897965E+02  0.19406898133E+02  0.25500000000E-02 0.  1.
    5000001    1    1    2    0    0 -0.13253260936E+03 -0.35133839118E+02  0.39002434971E+03  0.42053213024E+03  0.77000000000E+02 0.  0.
   -5000001    1    1    2    0    0  0.13253260936E+03  0.35133839118E+02  0.14844234933E+04  0.14927295089E+04  0.77000000000E+02 0.  0.
<mgrwt>
<rscale>  0 0.38342585E+03</rscale>
<asrwt>0</asrwt>
<pdfrwt beam="1">  1        2 0.29136222E+00 0.38342585E+03</pdfrwt>
<pdfrwt beam="2">  1       -2 0.29856771E-02 0.38342585E+03</pdfrwt>
<totfact> 0.35956393E+03</totfact>
</mgrwt>
</event>
<event>
 4    1  0.6122885E-004  0.2748162E+03  0.7818608E-02  0.1098554E+00
         -2   -1    0    0    0  501 -0.00000000000E+00  0.00000000000E+00  0.14047093379E+02  0.14047093610E+02  0.25500000000E-02 0. -1.
          2   -1    0    0  501    0  0.00000000000E+00 -0.00000000000E+00 -0.13441201668E+04  0.13441201668E+04  0.25500000000E-02 0.  1.
    5000001    1    1    2    0    0  0.10730182525E+03 -0.13806267578E+02 -0.83960419612E+03  0.85004029367E+03  0.77000000000E+02 0.  0.
   -5000001    1    1    2    0    0 -0.10730182525E+03  0.13806267578E+02 -0.49046887730E+03  0.50812696674E+03  0.77000000000E+02 0.  0.
<mgrwt>
<rscale>  0 0.27481617E+03</rscale>
<asrwt>0</asrwt>
<pdfrwt beam="1">  1        2 0.20678762E+00 0.27481617E+03</pdfrwt>
<pdfrwt beam="2">  1       -2 0.21610924E-02 0.27481617E+03</pdfrwt>
<totfact> 0.11429418E+04</totfact>
</mgrwt>
</event>
<event>
 4    1  0.6122885E-004  0.3095205E+03  0.7818608E-02  0.1080576E+00
         -2   -1    0    0    0  501 -0.00000000000E+00  0.00000000000E+00  0.56540040525E+02  0.56540040583E+02  0.25500000000E-02 0. -1.
          2   -1    0    0  501    0  0.00000000000E+00 -0.00000000000E+00 -0.42360659677E+03  0.42360659677E+03  0.25500000000E-02 0.  1.
    5000001    1    1    2    0    0  0.46315108374E+02 -0.11106385770E+03 -0.27584905351E+03  0.31064766227E+03  0.77000000000E+02 0.  0.
   -5000001    1    1    2    0    0 -0.46315108374E+02  0.11106385770E+03 -0.91217502727E+02  0.16949897508E+03  0.77000000000E+02 0.  0.
<mgrwt>
<rscale>  0 0.30952049E+03</rscale>
<asrwt>0</asrwt>
<pdfrwt beam="1">  1        2 0.65170244E-01 0.30952049E+03</pdfrwt>
<pdfrwt beam="2">  1       -2 0.86984681E-02 0.30952049E+03</pdfrwt>
<totfact> 0.62045394E+03</totfact>
</mgrwt>
</event>
<event>
 4    1  0.6122885E-004  0.2653226E+03  0.7818608E-02  0.1103987E+00
         -2   -1    0    0    0  501 -0.00000000000E+00  0.00000000000E+00  0.40350052273E+02  0.40350052354E+02  0.25500000000E-02 0. -1.
          2   -1    0    0  501    0  0.00000000000E+00 -0.00000000000E+00 -0.43615859950E+03  0.43615859951E+03  0.25500000000E-02 0.  1.
    5000001    1    1    2    0    0  0.81653991028E+02  0.69704070023E+02 -0.21945508957E+03  0.25615535904E+03  0.77000000000E+02 0.  0.
   -5000001    1    1    2    0    0 -0.81653991028E+02 -0.69704070023E+02 -0.17635345766E+03  0.22035329282E+03  0.77000000000E+02 0.  0.
<mgrwt>
<rscale>  0 0.26532261E+03</rscale>
<asrwt>0</asrwt>
<pdfrwt beam="1">  1        2 0.67101320E-01 0.26532261E+03</pdfrwt>
<pdfrwt beam="2">  1       -2 0.62077006E-02 0.26532261E+03</pdfrwt>
<totfact> 0.10101401E+04</totfact>
</mgrwt>
</event>
<event>
 4    1  0.6122885E-004  0.1932557E+03  0.7818608E-02  0.1155557E+00
         -2   -1    0    0    0  501 -0.00000000000E+00  0.00000000000E+00  0.29200275107E+01  0.29200286241E+01  0.25500000000E-02 0. -1.
          2   -1    0    0  501    0  0.00000000000E+00 -0.00000000000E+00 -0.31975524771E+04  0.31975524771E+04  0.25500000000E-02 0.  1.
    5000001    1    1    2    0    0 -0.72214843738E+01 -0.14880192095E+02 -0.67015108900E+03  0.67476295989E+03  0.77000000000E+02 0.  0.
   -5000001    1    1    2    0    0  0.72214843738E+01  0.14880192095E+02 -0.25244813606E+04  0.25257095458E+04  0.77000000000E+02 0.  0.
<mgrwt>
<rscale>  0 0.19325572E+03</rscale>
<asrwt>0</asrwt>
<pdfrwt beam="1">  1        2 0.49192835E+00 0.19325572E+03</pdfrwt>
<pdfrwt beam="2">  1       -2 0.44923765E-03 0.19325572E+03</pdfrwt>
<totfact> 0.10719759E+04</totfact>
</mgrwt>
</event>
<event>
 4    1  0.6122885E-004  0.2397254E+03  0.7818608E-02  0.1119976E+00
          2   -1    0    0  501    0  0.00000000000E+00  0.00000000000E+00  0.92266190674E+03  0.92266190674E+03  0.25500000000E-02 0.  1.
         -2   -1    0    0    0  501 -0.00000000000E+00 -0.00000000000E+00 -0.15571317772E+02  0.15571317981E+02  0.25500000000E-02 0. -1.
    5000001    1    1    2    0    0 -0.73247767607E+02 -0.54241987800E+02  0.49827783092E+03  0.51236434837E+03  0.77000000000E+02 0.  0.
   -5000001    1    1    2    0    0  0.73247767607E+02  0.54241987800E+02  0.40881275805E+03  0.42586887635E+03  0.77000000000E+02 0.  0.
<mgrwt>
<rscale>  0 0.23972536E+03</rscale>
<asrwt>0</asrwt>
<pdfrwt beam="1">  1        2 0.14194802E+00 0.23972536E+03</pdfrwt>
<pdfrwt beam="2">  1       -2 0.23955867E-02 0.23972536E+03</pdfrwt>
<totfact> 0.17209449E+04</totfact>
</mgrwt>
</event>
<event>
 4    1  0.6122885E-004  0.2095854E+03  0.7818608E-02  0.1141895E+00
         -2   -1    0    0    0  501 -0.00000000000E+00  0.00000000000E+00  0.62521259422E+02  0.62521259474E+02  0.25500000000E-02 0. -1.
          2   -1    0    0  501    0  0.00000000000E+00 -0.00000000000E+00 -0.17564448307E+03  0.17564448308E+03  0.25500000000E-02 0.  1.
    5000001    1    1    2    0    0  0.10493892669E+02 -0.70242702798E+02 -0.53276901009E+02  0.11752270955E+03  0.77000000000E+02 0.  0.
   -5000001    1    1    2    0    0 -0.10493892669E+02  0.70242702798E+02 -0.59846322635E+02  0.12064303301E+03  0.77000000000E+02 0.  0.
<mgrwt>
<rscale>  0 0.20958544E+03</rscale>
<asrwt>0</asrwt>
<pdfrwt beam="1">  1        2 0.27022228E-01 0.20958544E+03</pdfrwt>
<pdfrwt beam="2">  1       -2 0.96186554E-02 0.20958544E+03</pdfrwt>
<totfact> 0.13503209E+04</totfact>
</mgrwt>
</event>
<event>
 4    1  0.6122885E-004  0.2558187E+03  0.7818608E-02  0.1109682E+00
         -2   -1    0    0    0  501 -0.00000000000E+00  0.00000000000E+00  0.10927065803E+03  0.10927065806E+03  0.25500000000E-02 0. -1.
          2   -1    0    0  501    0  0.00000000000E+00 -0.00000000000E+00 -0.14972736775E+03  0.14972736777E+03  0.25500000000E-02 0.  1.
    5000001    1    1    2    0    0 -0.17828250641E+02 -0.95536781468E+02 -0.52030273242E+02  0.13446662213E+03  0.77000000000E+02 0.  0.
   -5000001    1    1    2    0    0  0.17828250641E+02  0.95536781468E+02  0.11573563526E+02  0.12453140370E+03  0.77000000000E+02 0.  0.
<mgrwt>
<rscale>  0 0.25581875E+03</rscale>
<asrwt>0</asrwt>
<pdfrwt beam="1">  1        2 0.23034980E-01 0.25581875E+03</pdfrwt>
<pdfrwt beam="2">  1       -2 0.16810870E-01 0.25581875E+03</pdfrwt>
<totfact> 0.65942343E+03</totfact>
</mgrwt>
</event>
<event>
 4    1  0.6122885E-004  0.4913668E+03  0.7818608E-02  0.1016057E+00
         -2   -1    0    0    0  501 -0.00000000000E+00  0.00000000000E+00  0.16555897115E+02  0.16555897312E+02  0.25500000000E-02 0. -1.
          2   -1    0    0  501    0  0.00000000000E+00 -0.00000000000E+00 -0.36458512306E+04  0.36458512306E+04  0.25500000000E-02 0.  1.
    5000001    1    1    2    0    0 -0.50176382951E+02 -0.22732822787E+03 -0.19290403713E+04  0.19445620450E+04  0.77000000000E+02 0.  0.
   -5000001    1    1    2    0    0  0.50176382951E+02  0.22732822787E+03 -0.17002549621E+04  0.17178450829E+04  0.77000000000E+02 0.  0.
<mgrwt>
<rscale>  0 0.49136682E+03</rscale>
<asrwt>0</asrwt>
<pdfrwt beam="1">  1        2 0.56089955E+00 0.49136682E+03</pdfrwt>
<pdfrwt beam="2">  1       -2 0.25470640E-02 0.49136682E+03</pdfrwt>
<totfact> 0.41690346E+02</totfact>
</mgrwt>
</event>
<event>
 4    1  0.6122885E-004  0.4019554E+03  0.7818608E-02  0.1043105E+00
         -2   -1    0    0    0  501 -0.00000000000E+00  0.00000000000E+00  0.55227895916E+02  0.55227895975E+02  0.25500000000E-02 0. -1.
          2   -1    0    0  501    0  0.00000000000E+00 -0.00000000000E+00 -0.73136999371E+03  0.73136999372E+03  0.25500000000E-02 0.  1.
    5000001    1    1    2    0    0  0.15043382685E+03  0.63884631076E+02 -0.16577859447E+03  0.24520017278E+03  0.77000000000E+02 0.  0.
   -5000001    1    1    2    0    0 -0.15043382685E+03 -0.63884631076E+02 -0.51036350333E+03  0.54139771691E+03  0.77000000000E+02 0.  0.
<mgrwt>
<rscale>  0 0.40195535E+03</rscale>
<asrwt>0</asrwt>
<pdfrwt beam="1">  1        2 0.11251845E+00 0.40195535E+03</pdfrwt>
<pdfrwt beam="2">  1       -2 0.84965999E-02 0.40195535E+03</pdfrwt>
<totfact> 0.34348467E+03</totfact>
</mgrwt>
</event>
<event>
 4    1  0.6122885E-004  0.2460178E+03  0.7818608E-02  0.1115848E+00
          2   -1    0    0  501    0  0.00000000000E+00  0.00000000000E+00  0.14674314948E+04  0.14674314948E+04  0.25500000000E-02 0.  1.
         -2   -1    0    0    0  501 -0.00000000000E+00 -0.00000000000E+00 -0.10311345213E+02  0.10311345528E+02  0.25500000000E-02 0. -1.
    5000001    1    1    2    0    0 -0.78541593592E+02  0.45750725739E+02  0.54437205731E+03  0.55725384486E+03  0.77000000000E+02 0.  0.
   -5000001    1    1    2    0    0  0.78541593592E+02 -0.45750725739E+02  0.91274809231E+03  0.92048899551E+03  0.77000000000E+02 0.  0.
<mgrwt>
<rscale>  0 0.24601783E+03</rscale>
<asrwt>0</asrwt>
<pdfrwt beam="1">  1        2 0.22575860E+00 0.24601783E+03</pdfrwt>
<pdfrwt beam="2">  1       -2 0.15863615E-02 0.24601783E+03</pdfrwt>
<totfact> 0.15375620E+04</totfact>
</mgrwt>
</event>
<event>
 4    1  0.6122885E-004  0.1743703E+03  0.7818608E-02  0.1173365E+00
         -2   -1    0    0    0  501 -0.00000000000E+00  0.00000000000E+00  0.38243315920E+01  0.38243324422E+01  0.25500000000E-02 0. -1.
          2   -1    0    0  501    0  0.00000000000E+00 -0.00000000000E+00 -0.19876028512E+04  0.19876028512E+04  0.25500000000E-02 0.  1.
    5000001    1    1    2    0    0  0.17062767681E+02  0.37144159072E+02 -0.10055303023E+04  0.10093022419E+04  0.77000000000E+02 0.  0.
   -5000001    1    1    2    0    0 -0.17062767681E+02 -0.37144159072E+02 -0.97824821734E+03  0.98212494180E+03  0.77000000000E+02 0.  0.
<mgrwt>
<rscale>  0 0.17437033E+03</rscale>
<asrwt>0</asrwt>
<pdfrwt beam="1">  1        2 0.30578423E+00 0.17437033E+03</pdfrwt>
<pdfrwt beam="2">  1       -2 0.58836036E-03 0.17437033E+03</pdfrwt>
<totfact> 0.33886484E+04</totfact>
</mgrwt>
</event>
<event>
 4    1  0.6122885E-004  0.1746828E+03  0.7818608E-02  0.1173051E+00
          2   -1    0    0  501    0  0.00000000000E+00  0.00000000000E+00  0.37288575767E+03  0.37288575768E+03  0.25500000000E-02 0.  1.
         -2   -1    0    0    0  501 -0.00000000000E+00 -0.00000000000E+00 -0.20458070153E+02  0.20458070312E+02  0.25500000000E-02 0. -1.
    5000001    1    1    2    0    0  0.36517022661E+02  0.18447913979E+02  0.18763018921E+03  0.20690071623E+03  0.77000000000E+02 0.  0.
   -5000001    1    1    2    0    0 -0.36517022661E+02 -0.18447913979E+02  0.16479749831E+03  0.18644311176E+03  0.77000000000E+02 0.  0.
<mgrwt>
<rscale>  0 0.17468283E+03</rscale>
<asrwt>0</asrwt>
<pdfrwt beam="1">  1        2 0.57367036E-01 0.17468283E+03</pdfrwt>
<pdfrwt beam="2">  1       -2 0.31473956E-02 0.17468283E+03</pdfrwt>
<totfact> 0.32385968E+04</totfact>
</mgrwt>
</event>
<event>
 4    1  0.6122885E-004  0.2670602E+03  0.7818608E-02  0.1102974E+00
          2   -1    0    0  501    0  0.00000000000E+00  0.00000000000E+00  0.40978229585E+02  0.40978229664E+02  0.25500000000E-02 0.  1.
         -2   -1    0    0    0  501 -0.00000000000E+00 -0.00000000000E+00 -0.43511611494E+03  0.43511611495E+03  0.25500000000E-02 0. -1.
    5000001    1    1    2    0    0 -0.10710241708E+03  0.20741470394E+02 -0.19776337081E+03  0.23862205928E+03  0.77000000000E+02 0.  0.
   -5000001    1    1    2    0    0  0.10710241708E+03 -0.20741470394E+02 -0.19637451454E+03  0.23747228533E+03  0.77000000000E+02 0.  0.
<mgrwt>
<rscale>  0 0.26706020E+03</rscale>
<asrwt>0</asrwt>
<pdfrwt beam="1">  1        2 0.63043433E-02 0.26706020E+03</pdfrwt>
<pdfrwt beam="2">  1       -2 0.66940938E-01 0.26706020E+03</pdfrwt>
<totfact> 0.24208879E+03</totfact>
</mgrwt>
</event>
<event>
 4    1  0.6122885E-004  0.1948218E+03  0.7818608E-02  0.1154183E+00
          2   -1    0    0  501    0  0.00000000000E+00  0.00000000000E+00  0.86103617315E+03  0.86103617316E+03  0.25500000000E-02 0.  1.
         -2   -1    0    0    0  501 -0.00000000000E+00 -0.00000000000E+00 -0.11020312245E+02  0.11020312540E+02  0.25500000000E-02 0. -1.
    5000001    1    1    2    0    0 -0.29944723200E+02 -0.50546899264E+02  0.37844450066E+03  0.39064167155E+03  0.77000000000E+02 0.  0.
   -5000001    1    1    2    0    0  0.29944723200E+02  0.50546899264E+02  0.47157136025E+03  0.48141481415E+03  0.77000000000E+02 0.  0.
<mgrwt>
<rscale>  0 0.19482184E+03</rscale>
<asrwt>0</asrwt>
<pdfrwt beam="1">  1        2 0.13246709E+00 0.19482184E+03</pdfrwt>
<pdfrwt beam="2">  1       -2 0.16954328E-02 0.19482184E+03</pdfrwt>
<totfact> 0.30907779E+04</totfact>
</mgrwt>
</event>
<event>
 4    1  0.6122885E-004  0.3874357E+03  0.7818608E-02  0.1048219E+00
         -2   -1    0    0    0  501 -0.00000000000E+00  0.00000000000E+00  0.28972527198E+02  0.28972527311E+02  0.25500000000E-02 0. -1.
          2   -1    0    0  501    0  0.00000000000E+00 -0.00000000000E+00 -0.12952480457E+04  0.12952480457E+04  0.25500000000E-02 0.  1.
    5000001    1    1    2    0    0 -0.11124017650E+03  0.97784680356E+02 -0.29718326876E+03  0.34085644458E+03  0.77000000000E+02 0.  0.
   -5000001    1    1    2    0    0  0.11124017650E+03 -0.97784680356E+02 -0.96909224971E+03  0.98336412840E+03  0.77000000000E+02 0.  0.
<mgrwt>
<rscale>  0 0.38743572E+03</rscale>
<asrwt>0</asrwt>
<pdfrwt beam="1">  1        2 0.19926889E+00 0.38743572E+03</pdfrwt>
<pdfrwt beam="2">  1       -2 0.44573129E-02 0.38743572E+03</pdfrwt>
<totfact> 0.41307451E+03</totfact>
</mgrwt>
</event>
<event>
 4    1  0.6122885E-004  0.2213633E+03  0.7818608E-02  0.1132871E+00
          2   -1    0    0  501    0  0.00000000000E+00  0.00000000000E+00  0.91681374916E+03  0.91681374916E+03  0.25500000000E-02 0.  1.
         -2   -1    0    0    0  501 -0.00000000000E+00 -0.00000000000E+00 -0.13361954299E+02  0.13361954543E+02  0.25500000000E-02 0. -1.
    5000001    1    1    2    0    0  0.51964778291E+02 -0.44611639842E+02  0.62142180599E+03  0.62990840410E+03  0.77000000000E+02 0.  0.
   -5000001    1    1    2    0    0 -0.51964778291E+02  0.44611639842E+02  0.28202998887E+03  0.30026729961E+03  0.77000000000E+02 0.  0.
<mgrwt>
<rscale>  0 0.22136326E+03</rscale>
<asrwt>0</asrwt>
<pdfrwt beam="1">  1        2 0.14104831E+00 0.22136326E+03</pdfrwt>
<pdfrwt beam="2">  1       -2 0.20556847E-02 0.22136326E+03</pdfrwt>
<totfact> 0.21646791E+04</totfact>
</mgrwt>
</event>
<event>
 4    1  0.6122885E-004  0.2100292E+03  0.7818608E-02  0.1141543E+00
         -2   -1    0    0    0  501 -0.00000000000E+00  0.00000000000E+00  0.36007630273E+02  0.36007630363E+02  0.25500000000E-02 0. -1.
          2   -1    0    0  501    0  0.00000000000E+00 -0.00000000000E+00 -0.30627036793E+03  0.30627036794E+03  0.25500000000E-02 0.  1.
    5000001    1    1    2    0    0  0.29167252645E+02 -0.55996363898E+02 -0.80769072585E+02  0.12821452524E+03  0.77000000000E+02 0.  0.
   -5000001    1    1    2    0    0 -0.29167252645E+02  0.55996363898E+02 -0.18949366507E+03  0.21406347306E+03  0.77000000000E+02 0.  0.
<mgrwt>
<rscale>  0 0.21002924E+03</rscale>
<asrwt>0</asrwt>
<pdfrwt beam="1">  1        2 0.47118516E-01 0.21002924E+03</pdfrwt>
<pdfrwt beam="2">  1       -2 0.55396357E-02 0.21002924E+03</pdfrwt>
<totfact> 0.17383928E+04</totfact>
</mgrwt>
</event>
<event>
 4    1  0.6122885E-004  0.3386494E+03  0.7818608E-02  0.1067373E+00
         -2   -1    0    0    0  501 -0.00000000000E+00  0.00000000000E+00  0.14445747587E+02  0.14445747812E+02  0.25500000000E-02 0. -1.
          2   -1    0    0  501    0  0.00000000000E+00 -0.00000000000E+00 -0.19847264299E+04  0.19847264299E+04  0.25500000000E-02 0.  1.
    5000001    1    1    2    0    0 -0.14856440968E+03 -0.23935786248E+02 -0.92683383644E+03  0.94212221397E+03  0.77000000000E+02 0.  0.
   -5000001    1    1    2    0    0  0.14856440968E+03  0.23935786248E+02 -0.10434468459E+04  0.10570499638E+04  0.77000000000E+02 0.  0.
<mgrwt>
<rscale>  0 0.33864942E+03</rscale>
<asrwt>0</asrwt>
<pdfrwt beam="1">  1        2 0.30534231E+00 0.33864942E+03</pdfrwt>
<pdfrwt beam="2">  1       -2 0.22224243E-02 0.33864942E+03</pdfrwt>
<totfact> 0.50053028E+03</totfact>
</mgrwt>
</event>
<event>
 4    1  0.6122885E-004  0.1883986E+03  0.7818608E-02  0.1159914E+00
         -2   -1    0    0    0  501 -0.00000000000E+00  0.00000000000E+00  0.59793423337E+02  0.59793423391E+02  0.25500000000E-02 0. -1.
          2   -1    0    0  501    0  0.00000000000E+00 -0.00000000000E+00 -0.14840270263E+03  0.14840270266E+03  0.25500000000E-02 0.  1.
    5000001    1    1    2    0    0  0.47788353720E+02 -0.19809178527E+02 -0.62408297215E+02  0.11180306734E+03  0.77000000000E+02 0.  0.
   -5000001    1    1    2    0    0 -0.47788353720E+02  0.19809178527E+02 -0.26200982083E+02  0.96393058709E+02  0.77000000000E+02 0.  0.
<mgrwt>
<rscale>  0 0.18839857E+03</rscale>
<asrwt>0</asrwt>
<pdfrwt beam="1">  1        2 0.22831185E-01 0.18839857E+03</pdfrwt>
<pdfrwt beam="2">  1       -2 0.91989882E-02 0.18839857E+03</pdfrwt>
<totfact> 0.17340356E+04</totfact>
</mgrwt>
</event>
<event>
 4    1  0.6122885E-004  0.2978293E+03  0.7818608E-02  0.1086331E+00
          2   -1    0    0  501    0  0.00000000000E+00  0.00000000000E+00  0.27537697139E+04  0.27537697139E+04  0.25500000000E-02 0.  1.
         -2   -1    0    0    0  501 -0.00000000000E+00 -0.00000000000E+00 -0.80528083806E+01  0.80528087843E+01  0.25500000000E-02 0. -1.
    5000001    1    1    2    0    0 -0.39172868979E+01 -0.92323346909E+02  0.55873767265E+03  0.57153804104E+03  0.77000000000E+02 0.  0.
   -5000001    1    1    2    0    0  0.39172868979E+01  0.92323346909E+02  0.21869792329E+04  0.21902844816E+04  0.77000000000E+02 0.  0.
<mgrwt>
<rscale>  0 0.29782935E+03</rscale>
<asrwt>0</asrwt>
<pdfrwt beam="1">  1        2 0.42365708E+00 0.29782935E+03</pdfrwt>
<pdfrwt beam="2">  1       -2 0.12388930E-02 0.29782935E+03</pdfrwt>
<totfact> 0.45127597E+03</totfact>
</mgrwt>
</event>
<event>
 4    1  0.6122885E-004  0.3162105E+03  0.7818608E-02  0.1077407E+00
          2   -1    0    0  501    0  0.00000000000E+00  0.00000000000E+00  0.84637698520E+03  0.84637698520E+03  0.25500000000E-02 0.  1.
         -2   -1    0    0    0  501 -0.00000000000E+00 -0.00000000000E+00 -0.29534443352E+02  0.29534443462E+02  0.25500000000E-02 0. -1.
    5000001    1    1    2    0    0  0.12214851951E+03  0.28643907188E+02  0.24863279586E+03  0.28894290338E+03  0.77000000000E+02 0.  0.
   -5000001    1    1    2    0    0 -0.12214851951E+03 -0.28643907188E+02  0.56820974599E+03  0.58696852528E+03  0.77000000000E+02 0.  0.
<mgrwt>
<rscale>  0 0.31621052E+03</rscale>
<asrwt>0</asrwt>
<pdfrwt beam="1">  1        2 0.13021182E+00 0.31621052E+03</pdfrwt>
<pdfrwt beam="2">  1       -2 0.45437615E-02 0.31621052E+03</pdfrwt>
<totfact> 0.74850022E+03</totfact>
</mgrwt>
</event>
<event>
 4    1  0.6122885E-004  0.1996078E+03  0.7818608E-02  0.1150070E+00
          2   -1    0    0  501    0  0.00000000000E+00  0.00000000000E+00  0.11886553336E+04  0.11886553336E+04  0.25500000000E-02 0.  1.
         -2   -1    0    0    0  501 -0.00000000000E+00 -0.00000000000E+00 -0.83799027968E+01  0.83799031848E+01  0.25500000000E-02 0. -1.
    5000001    1    1    2    0    0  0.17491745561E+02  0.57735340149E+02  0.47133088658E+03  0.48137421546E+03  0.77000000000E+02 0.  0.
   -5000001    1    1    2    0    0 -0.17491745561E+02 -0.57735340149E+02  0.70894454426E+03  0.71566102137E+03  0.77000000000E+02 0.  0.
<mgrwt>
<rscale>  0 0.19960778E+03</rscale>
<asrwt>0</asrwt>
<pdfrwt beam="1">  1        2 0.18286990E+00 0.19960778E+03</pdfrwt>
<pdfrwt beam="2">  1       -2 0.12892169E-02 0.19960778E+03</pdfrwt>
<totfact> 0.29251116E+04</totfact>
</mgrwt>
</event>
<event>
 4    1  0.6122885E-004  0.2382133E+03  0.7818608E-02  0.1120989E+00
          2   -1    0    0  501    0  0.00000000000E+00  0.00000000000E+00  0.73422026382E+03  0.73422026383E+03  0.25500000000E-02 0.  1.
         -2   -1    0    0    0  501 -0.00000000000E+00 -0.00000000000E+00 -0.19321716181E+02  0.19321716350E+02  0.25500000000E-02 0. -1.
    5000001    1    1    2    0    0  0.56303577287E+02  0.70685389002E+02  0.38760516707E+03  0.40538041711E+03  0.77000000000E+02 0.  0.
   -5000001    1    1    2    0    0 -0.56303577287E+02 -0.70685389002E+02  0.32729338057E+03  0.34816156307E+03  0.77000000000E+02 0.  0.
<mgrwt>
<rscale>  0 0.23821331E+03</rscale>
<asrwt>0</asrwt>
<pdfrwt beam="1">  1        2 0.11295694E+00 0.23821331E+03</pdfrwt>
<pdfrwt beam="2">  1       -2 0.29725724E-02 0.23821331E+03</pdfrwt>
<totfact> 0.16766005E+04</totfact>
</mgrwt>
</event>
<event>
 4    1  0.6122885E-004  0.4427192E+03  0.7818608E-02  0.1029916E+00
         -2   -1    0    0    0  501 -0.00000000000E+00  0.00000000000E+00  0.65910720728E+02  0.65910720778E+02  0.25500000000E-02 0. -1.
          2   -1    0    0  501    0  0.00000000000E+00 -0.00000000000E+00 -0.74343102642E+03  0.74343102643E+03  0.25500000000E-02 0.  1.
    5000001    1    1    2    0    0 -0.69768966198E+01  0.20654335314E+03 -0.37355399276E+03  0.43379767095E+03  0.77000000000E+02 0.  0.
   -5000001    1    1    2    0    0  0.69768966198E+01 -0.20654335314E+03 -0.30396631293E+03  0.37554407625E+03  0.77000000000E+02 0.  0.
<mgrwt>
<rscale>  0 0.44271921E+03</rscale>
<asrwt>0</asrwt>
<pdfrwt beam="1">  1        2 0.11437400E+00 0.44271921E+03</pdfrwt>
<pdfrwt beam="2">  1       -2 0.10140111E-01 0.44271921E+03</pdfrwt>
<totfact> 0.25383686E+03</totfact>
</mgrwt>
</event>
<event>
 4    1  0.6122885E-004  0.2237814E+03  0.7818608E-02  0.1131095E+00
         -2   -1    0    0    0  501 -0.00000000000E+00  0.00000000000E+00  0.41628950843E+02  0.41628950921E+02  0.25500000000E-02 0. -1.
          2   -1    0    0  501    0  0.00000000000E+00 -0.00000000000E+00 -0.30074100735E+03  0.30074100736E+03  0.25500000000E-02 0.  1.
    5000001    1    1    2    0    0  0.30235972076E+02  0.70739058592E+02 -0.16922532589E+03  0.20120745349E+03  0.77000000000E+02 0.  0.
   -5000001    1    1    2    0    0 -0.30235972076E+02 -0.70739058592E+02 -0.89886730618E+02  0.14116250479E+03  0.77000000000E+02 0.  0.
<mgrwt>
<rscale>  0 0.22378143E+03</rscale>
<asrwt>0</asrwt>
<pdfrwt beam="1">  1        2 0.46267846E-01 0.22378143E+03</pdfrwt>
<pdfrwt beam="2">  1       -2 0.64044542E-02 0.22378143E+03</pdfrwt>
<totfact> 0.14260230E+04</totfact>
</mgrwt>
</event>
<event>
 4    1  0.6122885E-004  0.5900436E+03  0.7818608E-02  0.9926280E-01
         -2   -1    0    0    0  501 -0.00000000000E+00  0.00000000000E+00  0.52820241754E+02  0.52820241815E+02  0.25500000000E-02 0. -1.
          2   -1    0    0  501    0  0.00000000000E+00 -0.00000000000E+00 -0.16478128433E+04  0.16478128433E+04  0.25500000000E-02 0.  1.
    5000001    1    1    2    0    0 -0.21719809651E+03 -0.17051137966E+03 -0.99842062830E+03  0.10387597868E+04  0.77000000000E+02 0.  0.
   -5000001    1    1    2    0    0  0.21719809651E+03  0.17051137966E+03 -0.59657197326E+03  0.66187329830E+03  0.77000000000E+02 0.  0.
<mgrwt>
<rscale>  0 0.59004364E+03</rscale>
<asrwt>0</asrwt>
<pdfrwt beam="1">  1        2 0.25350963E+00 0.59004364E+03</pdfrwt>
<pdfrwt beam="2">  1       -2 0.81261923E-02 0.59004364E+03</pdfrwt>
<totfact> 0.10293426E+03</totfact>
</mgrwt>
</event>
<event>
 4    1  0.6122885E-004  0.2519464E+03  0.7818608E-02  0.1112081E+00
          2   -1    0    0  501    0  0.00000000000E+00  0.00000000000E+00  0.13700346764E+04  0.13700346764E+04  0.25500000000E-02 0.  1.
         -2   -1    0    0    0  501 -0.00000000000E+00 -0.00000000000E+00 -0.11583097281E+02  0.11583097561E+02  0.25500000000E-02 0. -1.
    5000001    1    1    2    0    0  0.37204114636E+02 -0.82433353817E+02  0.44911346871E+03  0.46455496095E+03  0.77000000000E+02 0.  0.
   -5000001    1    1    2    0    0 -0.37204114636E+02  0.82433353817E+02  0.90933811040E+03  0.91706281300E+03  0.77000000000E+02 0.  0.
<mgrwt>
<rscale>  0 0.25194638E+03</rscale>
<asrwt>0</asrwt>
<pdfrwt beam="1">  1        2 0.21077450E+00 0.25194638E+03</pdfrwt>
<pdfrwt beam="2">  1       -2 0.17820156E-02 0.25194638E+03</pdfrwt>
<totfact> 0.14650640E+04</totfact>
</mgrwt>
</event>
<event>
 4    1  0.6122885E-004  0.5118019E+03  0.7818608E-02  0.1010744E+00
         -2   -1    0    0    0  501 -0.00000000000E+00  0.00000000000E+00  0.23397099768E+02  0.23397099907E+02  0.25500000000E-02 0.  1.
          2   -1    0    0  501    0  0.00000000000E+00 -0.00000000000E+00 -0.27988632730E+04  0.27988632730E+04  0.25500000000E-02 0. -1.
    5000001    1    1    2    0    0 -0.13072850557E+02 -0.19319709629E+03 -0.22067645748E+04  0.22165818068E+04  0.77000000000E+02 0.  0.
   -5000001    1    1    2    0    0  0.13072850557E+02  0.19319709629E+03 -0.56870159836E+03  0.60567856609E+03  0.77000000000E+02 0.  0.
<mgrwt>
<rscale>  0 0.51180185E+03</rscale>
<asrwt>0</asrwt>
<pdfrwt beam="1">  1        2 0.43059409E+00 0.51180185E+03</pdfrwt>
<pdfrwt beam="2">  1       -2 0.35995560E-02 0.51180185E+03</pdfrwt>
<totfact> 0.85074525E+02</totfact>
</mgrwt>
</event>
<event>
 4    1  0.6122885E-004  0.3326339E+03  0.7818608E-02  0.1069977E+00
          2   -1    0    0  501    0  0.00000000000E+00  0.00000000000E+00  0.34318300911E+03  0.34318300912E+03  0.25500000000E-02 0.  1.
         -2   -1    0    0    0  501 -0.00000000000E+00 -0.00000000000E+00 -0.80602270751E+02  0.80602270791E+02  0.25500000000E-02 0. -1.
    5000001    1    1    2    0    0  0.14600870369E+03  0.18416111125E+02  0.12028382502E+03  0.20507289744E+03  0.77000000000E+02 0.  0.
   -5000001    1    1    2    0    0 -0.14600870369E+03 -0.18416111125E+02  0.14229691334E+03  0.21871238247E+03  0.77000000000E+02 0.  0.
<mgrwt>
<rscale>  0 0.33263391E+03</rscale>
<asrwt>0</asrwt>
<pdfrwt beam="1">  1        2 0.52797386E-01 0.33263391E+03</pdfrwt>
<pdfrwt beam="2">  1       -2 0.12400349E-01 0.33263391E+03</pdfrwt>
<totfact> 0.44330032E+03</totfact>
</mgrwt>
</event>
<event>
 4    1  0.6122885E-004  0.1854917E+03  0.7818608E-02  0.1162591E+00
          2   -1    0    0  501    0  0.00000000000E+00  0.00000000000E+00  0.15255882690E+02  0.15255882904E+02  0.25500000000E-02 0.  1.
         -2   -1    0    0    0  501 -0.00000000000E+00 -0.00000000000E+00 -0.56383467434E+03  0.56383467435E+03  0.25500000000E-02 0. -1.
    5000001    1    1    2    0    0  0.44014808653E+02  0.17450460968E+02 -0.20947860339E+03  0.22814930911E+03  0.77000000000E+02 0.  0.
   -5000001    1    1    2    0    0 -0.44014808653E+02 -0.17450460968E+02 -0.33910018826E+03  0.35094124814E+03  0.77000000000E+02 0.  0.
<mgrwt>
<rscale>  0 0.18549173E+03</rscale>
<asrwt>0</asrwt>
<pdfrwt beam="1">  1        2 0.23470593E-02 0.18549173E+03</pdfrwt>
<pdfrwt beam="2">  1       -2 0.86743780E-01 0.18549173E+03</pdfrwt>
<totfact> 0.50649800E+03</totfact>
</mgrwt>
</event>
<event>
 4    1  0.6122885E-004  0.1859249E+03  0.7818608E-02  0.1162189E+00
         -2   -1    0    0    0  501 -0.00000000000E+00  0.00000000000E+00  0.94699906137E+01  0.94699909571E+01  0.25500000000E-02 0. -1.
          2   -1    0    0  501    0  0.00000000000E+00 -0.00000000000E+00 -0.91256915461E+03  0.91256915462E+03  0.25500000000E-02 0.  1.
    5000001    1    1    2    0    0  0.33245441272E+01 -0.42011867238E+02 -0.60335070264E+03  0.60970248479E+03  0.77000000000E+02 0.  0.
   -5000001    1    1    2    0    0 -0.33245441272E+01  0.42011867238E+02 -0.29974846136E+03  0.31233666078E+03  0.77000000000E+02 0.  0.
<mgrwt>
<rscale>  0 0.18592495E+03</rscale>
<asrwt>0</asrwt>
<pdfrwt beam="1">  1        2 0.14039519E+00 0.18592495E+03</pdfrwt>
<pdfrwt beam="2">  1       -2 0.14569224E-02 0.18592495E+03</pdfrwt>
<totfact> 0.35567376E+04</totfact>
</mgrwt>
</event>
<event>
 4    1  0.6122885E-004  0.4215043E+03  0.7818608E-02  0.1036578E+00
         -2   -1    0    0    0  501 -0.00000000000E+00  0.00000000000E+00  0.23940426620E+02  0.23940426756E+02  0.25500000000E-02 0. -1.
          2   -1    0    0  501    0  0.00000000000E+00 -0.00000000000E+00 -0.18552917649E+04  0.18552917649E+04  0.25500000000E-02 0.  1.
    5000001    1    1    2    0    0  0.16179620144E+03 -0.10128100362E+03 -0.71373337743E+03  0.74281908063E+03  0.77000000000E+02 0.  0.
   -5000001    1    1    2    0    0 -0.16179620144E+03  0.10128100362E+03 -0.11176179608E+04  0.11364131110E+04  0.77000000000E+02 0.  0.
<mgrwt>
<rscale>  0 0.42150434E+03</rscale>
<asrwt>0</asrwt>
<pdfrwt beam="1">  1        2 0.28542939E+00 0.42150434E+03</pdfrwt>
<pdfrwt beam="2">  1       -2 0.36831440E-02 0.42150434E+03</pdfrwt>
<totfact> 0.27420619E+03</totfact>
</mgrwt>
</event>
<event>
 4    1  0.6122885E-004  0.1702224E+03  0.7818608E-02  0.1177616E+00
          2   -1    0    0  501    0  0.00000000000E+00  0.00000000000E+00  0.48640368025E+03  0.48640368026E+03  0.25500000000E-02 0.  1.
         -2   -1    0    0    0  501 -0.00000000000E+00 -0.00000000000E+00 -0.14892813503E+02  0.14892813721E+02  0.25500000000E-02 0. -1.
    5000001    1    1    2    0    0  0.10230089443E+02  0.15662437758E+02  0.14427443963E+03  0.16460279651E+03  0.77000000000E+02 0.  0.
   -5000001    1    1    2    0    0 -0.10230089443E+02 -0.15662437758E+02  0.32723642711E+03  0.33669369747E+03  0.77000000000E+02 0.  0.
<mgrwt>
<rscale>  0 0.17022244E+03</rscale>
<asrwt>0</asrwt>
<pdfrwt beam="1">  1        2 0.74831329E-01 0.17022244E+03</pdfrwt>
<pdfrwt beam="2">  1       -2 0.22912023E-02 0.17022244E+03</pdfrwt>
<totfact> 0.38649884E+04</totfact>
</mgrwt>
</event>
<event>
 4    1  0.6122885E-004  0.2360693E+03  0.7818608E-02  0.1122439E+00
          2   -1    0    0  501    0  0.00000000000E+00  0.00000000000E+00  0.27043825155E+02  0.27043825275E+02  0.25500000000E-02 0.  1.
         -2   -1    0    0    0  501 -0.00000000000E+00 -0.00000000000E+00 -0.51517056989E+03  0.51517056989E+03  0.25500000000E-02 0. -1.
    5000001    1    1    2    0    0  0.67503178016E+02  0.48827800887E+02 -0.16920072026E+03  0.20371233865E+03  0.77000000000E+02 0.  0.
   -5000001    1    1    2    0    0 -0.67503178016E+02 -0.48827800887E+02 -0.31892602447E+03  0.33850205652E+03  0.77000000000E+02 0.  0.
<mgrwt>
<rscale>  0 0.23606934E+03</rscale>
<asrwt>0</asrwt>
<pdfrwt beam="1">  1        2 0.41605889E-02 0.23606934E+03</pdfrwt>
<pdfrwt beam="2">  1       -2 0.79257004E-01 0.23606934E+03</pdfrwt>
<totfact> 0.28937720E+03</totfact>
</mgrwt>
</event>
<event>
 4    1  0.6122885E-004  0.2581284E+03  0.7818608E-02  0.1108273E+00
          2   -1    0    0  501    0  0.00000000000E+00  0.00000000000E+00  0.89712785910E+03  0.89712785911E+03  0.25500000000E-02 0.  1.
         -2   -1    0    0    0  501 -0.00000000000E+00 -0.00000000000E+00 -0.18567664080E+02  0.18567664255E+02  0.25500000000E-02 0. -1.
    5000001    1    1    2    0    0 -0.78650056169E+02 -0.12082826229E+02  0.20405653831E+03  0.23216351318E+03  0.77000000000E+02 0.  0.
   -5000001    1    1    2    0    0  0.78650056169E+02  0.12082826229E+02  0.67450365671E+03  0.68353201018E+03  0.77000000000E+02 0.  0.
<mgrwt>
<rscale>  0 0.25812841E+03</rscale>
<asrwt>0</asrwt>
<pdfrwt beam="1">  1        2 0.13801966E+00 0.25812841E+03</pdfrwt>
<pdfrwt beam="2">  1       -2 0.28565639E-02 0.25812841E+03</pdfrwt>
<totfact> 0.13818136E+04</totfact>
</mgrwt>
</event>
<event>
 4    1  0.6122885E-004  0.7651550E+03  0.7818608E-02  0.9611870E-01
          2   -1    0    0  501    0  0.00000000000E+00  0.00000000000E+00  0.24128082840E+04  0.24128082840E+04  0.25500000000E-02 0.  1.
         -2   -1    0    0    0  501 -0.00000000000E+00 -0.00000000000E+00 -0.60661900716E+02  0.60661900769E+02  0.25500000000E-02 0. -1.
    5000001    1    1    2    0    0 -0.13044081094E+02 -0.21493183051E+03  0.21675543144E+04  0.21795840304E+04  0.77000000000E+02 0.  0.
   -5000001    1    1    2    0    0  0.13044081094E+02  0.21493183051E+03  0.18459206888E+03  0.29388615434E+03  0.77000000000E+02 0.  0.
<mgrwt>
<rscale>  0 0.76515498E+03</rscale>
<asrwt>0</asrwt>
<pdfrwt beam="1">  1        2 0.37120129E+00 0.76515498E+03</pdfrwt>
<pdfrwt beam="2">  1       -2 0.93325998E-02 0.76515498E+03</pdfrwt>
<totfact> 0.31028607E+02</totfact>
</mgrwt>
</event>
<event>
 4    1  0.6122885E-004  0.2391333E+03  0.7818608E-02  0.1120372E+00
         -2   -1    0    0    0  501 -0.00000000000E+00  0.00000000000E+00  0.12841312072E+03  0.12841312075E+03  0.25500000000E-02 0. -1.
          2   -1    0    0  501    0  0.00000000000E+00 -0.00000000000E+00 -0.11132964064E+03  0.11132964067E+03  0.25500000000E-02 0.  1.
    5000001    1    1    2    0    0  0.32908762785E+02 -0.77103381277E+02 -0.28147543726E+02  0.11725699250E+03  0.77000000000E+02 0.  0.
   -5000001    1    1    2    0    0 -0.32908762785E+02  0.77103381277E+02  0.45231023807E+02  0.12248576892E+03  0.77000000000E+02 0.  0.
<mgrwt>
<rscale>  0 0.23913332E+03</rscale>
<asrwt>0</asrwt>
<pdfrwt beam="1">  1        2 0.17127637E-01 0.23913332E+03</pdfrwt>
<pdfrwt beam="2">  1       -2 0.19755865E-01 0.23913332E+03</pdfrwt>
<totfact> 0.70281451E+03</totfact>
</mgrwt>
</event>
<event>
 4    1  0.6122885E-004  0.2062465E+03  0.7818608E-02  0.1144573E+00
         -2   -1    0    0    0  501 -0.00000000000E+00  0.00000000000E+00  0.68228014152E+02  0.68228014200E+02  0.25500000000E-02 0. -1.
          2   -1    0    0  501    0  0.00000000000E+00 -0.00000000000E+00 -0.15586572613E+03  0.15586572615E+03  0.25500000000E-02 0.  1.
    5000001    1    1    2    0    0  0.37768330168E+02  0.30043459901E+02 -0.96785017810E+02  0.13276067158E+03  0.77000000000E+02 0.  0.
   -5000001    1    1    2    0    0 -0.37768330168E+02 -0.30043459901E+02  0.91473058331E+01  0.91333068768E+02  0.77000000000E+02 0.  0.
<mgrwt>
<rscale>  0 0.20624654E+03</rscale>
<asrwt>0</asrwt>
<pdfrwt beam="1">  1        2 0.23979342E-01 0.20624654E+03</pdfrwt>
<pdfrwt beam="2">  1       -2 0.10496618E-01 0.20624654E+03</pdfrwt>
<totfact> 0.13412873E+04</totfact>
</mgrwt>
</event>
<event>
 4    1  0.6122885E-004  0.5645334E+03  0.7818608E-02  0.9981849E-01
          2   -1    0    0  501    0  0.00000000000E+00  0.00000000000E+00  0.87559995374E+03  0.87559995374E+03  0.25500000000E-02 0.  1.
         -2   -1    0    0    0  501 -0.00000000000E+00 -0.00000000000E+00 -0.90994166302E+02  0.90994166338E+02  0.25500000000E-02 0. -1.
    5000001    1    1    2    0    0 -0.31189371162E+02  0.26246262956E+03  0.49903874729E+03  0.56993690887E+03  0.77000000000E+02 0.  0.
   -5000001    1    1    2    0    0  0.31189371162E+02 -0.26246262956E+03  0.28556704014E+03  0.39665721121E+03  0.77000000000E+02 0.  0.
<mgrwt>
<rscale>  0 0.56453339E+03</rscale>
<asrwt>0</asrwt>
<pdfrwt beam="1">  1        2 0.13470768E+00 0.56453339E+03</pdfrwt>
<pdfrwt beam="2">  1       -2 0.13999103E-01 0.56453339E+03</pdfrwt>
<totfact> 0.12062420E+03</totfact>
</mgrwt>
</event>
<event>
 4    1  0.6122885E-004  0.2919480E+03  0.7818608E-02  0.1089336E+00
          2   -1    0    0  501    0  0.00000000000E+00  0.00000000000E+00  0.84992082109E+03  0.84992082109E+03  0.25500000000E-02 0.  1.
         -2   -1    0    0    0  501 -0.00000000000E+00 -0.00000000000E+00 -0.25071054249E+02  0.25071054379E+02  0.25500000000E-02 0. -1.
    5000001    1    1    2    0    0  0.66165691604E+02  0.93963428837E+02  0.55211543300E+03  0.56918140875E+03  0.77000000000E+02 0.  0.
   -5000001    1    1    2    0    0 -0.66165691604E+02 -0.93963428837E+02  0.27273433384E+03  0.30581046672E+03  0.77000000000E+02 0.  0.
<mgrwt>
<rscale>  0 0.29194802E+03</rscale>
<asrwt>0</asrwt>
<pdfrwt beam="1">  1        2 0.13075703E+00 0.29194802E+03</pdfrwt>
<pdfrwt beam="2">  1       -2 0.38570857E-02 0.29194802E+03</pdfrwt>
<totfact> 0.95159719E+03</totfact>
</mgrwt>
</event>
<event>
 4    1  0.6122885E-004  0.4267804E+03  0.7818608E-02  0.1034882E+00
          2   -1    0    0  501    0  0.00000000000E+00  0.00000000000E+00  0.23170543370E+04  0.23170543370E+04  0.25500000000E-02 0.  1.
         -2   -1    0    0    0  501 -0.00000000000E+00 -0.00000000000E+00 -0.19652269604E+02  0.19652269769E+02  0.25500000000E-02 0. -1.
    5000001    1    1    2    0    0  0.28645200842E+02  0.11674238324E+03  0.20171204769E+04  0.20221655100E+04  0.77000000000E+02 0.  0.
   -5000001    1    1    2    0    0 -0.28645200842E+02 -0.11674238324E+03  0.28028159048E+03  0.31454109674E+03  0.77000000000E+02 0.  0.
<mgrwt>
<rscale>  0 0.42678040E+03</rscale>
<asrwt>0</asrwt>
<pdfrwt beam="1">  1        2 0.35646994E+00 0.42678040E+03</pdfrwt>
<pdfrwt beam="2">  1       -2 0.30234257E-02 0.42678040E+03</pdfrwt>
<totfact> 0.20858076E+03</totfact>
</mgrwt>
</event>
<event>
 4    1  0.6122885E-004  0.1921471E+03  0.7818608E-02  0.1156539E+00
         -2   -1    0    0    0  501 -0.00000000000E+00  0.00000000000E+00  0.20376536995E+02  0.20376537155E+02  0.25500000000E-02 0. -1.
          2   -1    0    0  501    0  0.00000000000E+00 -0.00000000000E+00 -0.45297834508E+03  0.45297834509E+03  0.25500000000E-02 0.  1.
    5000001    1    1    2    0    0  0.43978235303E+02 -0.36608510886E+02 -0.22906883371E+03  0.24834612706E+03  0.77000000000E+02 0.  0.
   -5000001    1    1    2    0    0 -0.43978235303E+02  0.36608510886E+02 -0.20353297438E+03  0.22500875518E+03  0.77000000000E+02 0.  0.
<mgrwt>
<rscale>  0 0.19214713E+03</rscale>
<asrwt>0</asrwt>
<pdfrwt beam="1">  1        2 0.69688969E-01 0.19214713E+03</pdfrwt>
<pdfrwt beam="2">  1       -2 0.31348522E-02 0.19214713E+03</pdfrwt>
<totfact> 0.26615579E+04</totfact>
</mgrwt>
</event>
<event>
 4    1  0.6122885E-004  0.2731295E+03  0.7818608E-02  0.1099502E+00
         -2   -1    0    0    0  501 -0.00000000000E+00  0.00000000000E+00  0.17042941698E+04  0.17042941698E+04  0.25500000000E-02 0. -1.
          2   -1    0    0  501    0  0.00000000000E+00 -0.00000000000E+00 -0.10942902007E+02  0.10942902304E+02  0.25500000000E-02 0.  1.
    5000001    1    1    2    0    0  0.10255760253E+03  0.46033932724E+02  0.78920831505E+03  0.80088447940E+03  0.77000000000E+02 0.  0.
   -5000001    1    1    2    0    0 -0.10255760253E+03 -0.46033932724E+02  0.90414295277E+03  0.91435259274E+03  0.77000000000E+02 0.  0.
<mgrwt>
<rscale>  0 0.27312945E+03</rscale>
<asrwt>0</asrwt>
<pdfrwt beam="1">  1        2 0.16835240E-02 0.27312945E+03</pdfrwt>
<pdfrwt beam="2">  1       -2 0.26219900E+00 0.27312945E+03</pdfrwt>
<totfact> 0.42322353E+02</totfact>
</mgrwt>
</event>
<event>
 4    1  0.6122885E-004  0.2768989E+03  0.7818608E-02  0.1097395E+00
         -2   -1    0    0    0  501 -0.00000000000E+00  0.00000000000E+00  0.31733310156E+02  0.31733310258E+02  0.25500000000E-02 0. -1.
          2   -1    0    0  501    0  0.00000000000E+00 -0.00000000000E+00 -0.60404195997E+03  0.60404195997E+03  0.25500000000E-02 0.  1.
    5000001    1    1    2    0    0 -0.40161897780E+02 -0.72014085663E+02 -0.10189326508E+03  0.15202053821E+03  0.77000000000E+02 0.  0.
   -5000001    1    1    2    0    0  0.40161897780E+02  0.72014085663E+02 -0.47041538473E+03  0.48375473203E+03  0.77000000000E+02 0.  0.
<mgrwt>
<rscale>  0 0.27689890E+03</rscale>
<asrwt>0</asrwt>
<pdfrwt beam="1">  1        2 0.92929524E-01 0.27689890E+03</pdfrwt>
<pdfrwt beam="2">  1       -2 0.48820482E-02 0.27689890E+03</pdfrwt>
<totfact> 0.10121326E+04</totfact>
</mgrwt>
</event>
<event>
 4    1  0.6122885E-004  0.2709461E+03  0.7818608E-02  0.1100739E+00
          2   -1    0    0  501    0  0.00000000000E+00  0.00000000000E+00  0.59776616007E+03  0.59776616007E+03  0.25500000000E-02 0.  1.
         -2   -1    0    0    0  501 -0.00000000000E+00 -0.00000000000E+00 -0.30702556524E+02  0.30702556630E+02  0.25500000000E-02 0. -1.
    5000001    1    1    2    0    0  0.56253277191E+02 -0.77378247414E+02  0.15084868094E+03  0.19451516370E+03  0.77000000000E+02 0.  0.
   -5000001    1    1    2    0    0 -0.56253277191E+02  0.77378247414E+02  0.41621492260E+03  0.43395355300E+03  0.77000000000E+02 0.  0.
<mgrwt>
<rscale>  0 0.27094612E+03</rscale>
<asrwt>0</asrwt>
<pdfrwt beam="1">  1        2 0.91964016E-01 0.27094612E+03</pdfrwt>
<pdfrwt beam="2">  1       -2 0.47234707E-02 0.27094612E+03</pdfrwt>
<totfact> 0.10762092E+04</totfact>
</mgrwt>
</event>
<event>
 4    1  0.6122885E-004  0.2589689E+03  0.7818608E-02  0.1107764E+00
          2   -1    0    0  501    0  0.00000000000E+00  0.00000000000E+00  0.13386038360E+04  0.13386038360E+04  0.25500000000E-02 0.  1.
         -2   -1    0    0    0  501 -0.00000000000E+00 -0.00000000000E+00 -0.12525156958E+02  0.12525157217E+02  0.25500000000E-02 0. -1.
    5000001    1    1    2    0    0 -0.62486193064E+02  0.20468564467E+02  0.24195964438E+03  0.26229173827E+03  0.77000000000E+02 0.  0.
   -5000001    1    1    2    0    0  0.62486193064E+02 -0.20468564467E+02  0.10841190347E+04  0.10888372550E+04  0.77000000000E+02 0.  0.
<mgrwt>
<rscale>  0 0.25896890E+03</rscale>
<asrwt>0</asrwt>
<pdfrwt beam="1">  1        2 0.20593889E+00 0.25896890E+03</pdfrwt>
<pdfrwt beam="2">  1       -2 0.19269487E-02 0.25896890E+03</pdfrwt>
<totfact> 0.13602092E+04</totfact>
</mgrwt>
</event>
<event>
 4    1  0.6122885E-004  0.6814100E+03  0.7818608E-02  0.9749563E-01
          2   -1    0    0  501    0  0.00000000000E+00  0.00000000000E+00  0.17041379034E+04  0.17041379034E+04  0.25500000000E-02 0.  1.
         -2   -1    0    0    0  501 -0.00000000000E+00 -0.00000000000E+00 -0.68116494099E+02  0.68116494147E+02  0.25500000000E-02 0. -1.
    5000001    1    1    2    0    0 -0.30176468302E+03 -0.18691131556E+02  0.11740499833E+04  0.12147977797E+04  0.77000000000E+02 0.  0.
   -5000001    1    1    2    0    0  0.30176468302E+03  0.18691131556E+02  0.46197142599E+03  0.55745661782E+03  0.77000000000E+02 0.  0.
<mgrwt>
<rscale>  0 0.68141001E+03</rscale>
<asrwt>0</asrwt>
<pdfrwt beam="1">  1        2 0.26217503E+00 0.68141001E+03</pdfrwt>
<pdfrwt beam="2">  1       -2 0.10479462E-01 0.68141001E+03</pdfrwt>
<totfact> 0.63308370E+02</totfact>
</mgrwt>
</event>
<event>
 4    1  0.6122885E-004  0.1746765E+03  0.7818608E-02  0.1173057E+00
          2   -1    0    0  501    0  0.00000000000E+00  0.00000000000E+00  0.12787502055E+04  0.12787502055E+04  0.25500000000E-02 0.  1.
         -2   -1    0    0    0  501 -0.00000000000E+00 -0.00000000000E+00 -0.59651741686E+01  0.59651747136E+01  0.25500000000E-02 0. -1.
    5000001    1    1    2    0    0 -0.10176280381E+02  0.37625617400E+02  0.53779275297E+03  0.54467356179E+03  0.77000000000E+02 0.  0.
   -5000001    1    1    2    0    0  0.10176280381E+02 -0.37625617400E+02  0.73499227838E+03  0.74004181844E+03  0.77000000000E+02 0.  0.
<mgrwt>
<rscale>  0 0.17467648E+03</rscale>
<asrwt>0</asrwt>
<pdfrwt beam="1">  1        2 0.19673111E+00 0.17467648E+03</pdfrwt>
<pdfrwt beam="2">  1       -2 0.91771771E-03 0.17467648E+03</pdfrwt>
<totfact> 0.42171734E+04</totfact>
</mgrwt>
</event>
<event>
 4    1  0.6122885E-004  0.2404136E+03  0.7818608E-02  0.1119518E+00
         -2   -1    0    0    0  501 -0.00000000000E+00  0.00000000000E+00  0.53215760124E+01  0.53215766233E+01  0.25500000000E-02 0. -1.
          2   -1    0    0  501    0  0.00000000000E+00 -0.00000000000E+00 -0.27152998772E+04  0.27152998772E+04  0.25500000000E-02 0.  1.
    5000001    1    1    2    0    0 -0.44487359922E+02 -0.72015877645E+02 -0.17715907936E+04  0.17752826118E+04  0.77000000000E+02 0.  0.
   -5000001    1    1    2    0    0  0.44487359922E+02  0.72015877645E+02 -0.93838750762E+03  0.94533884205E+03  0.77000000000E+02 0.  0.
<mgrwt>
<rscale>  0 0.24041361E+03</rscale>
<asrwt>0</asrwt>
<pdfrwt beam="1">  1        2 0.41773734E+00 0.24041361E+03</pdfrwt>
<pdfrwt beam="2">  1       -2 0.81870622E-03 0.24041361E+03</pdfrwt>
<totfact> 0.86745995E+03</totfact>
</mgrwt>
</event>
<event>
 4    1  0.6122885E-004  0.3315298E+03  0.7818608E-02  0.1070462E+00
          2   -1    0    0  501    0  0.00000000000E+00  0.00000000000E+00  0.20303075857E+04  0.20303075857E+04  0.25500000000E-02 0.  1.
         -2   -1    0    0    0  501 -0.00000000000E+00 -0.00000000000E+00 -0.13533910451E+02  0.13533910692E+02  0.25500000000E-02 0. -1.
    5000001    1    1    2    0    0  0.92369083247E+01 -0.97053349353E+02  0.16849618242E+04  0.16895354456E+04  0.77000000000E+02 0.  0.
   -5000001    1    1    2    0    0 -0.92369083247E+01  0.97053349353E+02  0.33181185103E+03  0.35430605072E+03  0.77000000000E+02 0.  0.
<mgrwt>
<rscale>  0 0.33152980E+03</rscale>
<asrwt>0</asrwt>
<pdfrwt beam="1">  1        2 0.31235496E+00 0.33152980E+03</pdfrwt>
<pdfrwt beam="2">  1       -2 0.20821404E-02 0.33152980E+03</pdfrwt>
<totfact> 0.52155663E+03</totfact>
</mgrwt>
</event>
<event>
 4    1  0.6122885E-004  0.2497673E+03  0.7818608E-02  0.1113452E+00
          2   -1    0    0  501    0  0.00000000000E+00  0.00000000000E+00  0.12748454934E+04  0.12748454934E+04  0.25500000000E-02 0.  1.
         -2   -1    0    0    0  501 -0.00000000000E+00 -0.00000000000E+00 -0.12233579619E+02  0.12233579884E+02  0.25500000000E-02 0. -1.
    5000001    1    1    2    0    0  0.57969162619E+02  0.16834420771E+02  0.10312321088E+04  0.10358631588E+04  0.77000000000E+02 0.  0.
   -5000001    1    1    2    0    0 -0.57969162619E+02 -0.16834420771E+02  0.23137980495E+03  0.25121591446E+03  0.77000000000E+02 0.  0.
<mgrwt>
<rscale>  0 0.24976728E+03</rscale>
<asrwt>0</asrwt>
<pdfrwt beam="1">  1        2 0.19613013E+00 0.24976728E+03</pdfrwt>
<pdfrwt beam="2">  1       -2 0.18820887E-02 0.24976728E+03</pdfrwt>
<totfact> 0.15249634E+04</totfact>
</mgrwt>
</event>
<event>
 4    1  0.6122885E-004  0.2285267E+03  0.7818608E-02  0.1127681E+00
         -2   -1    0    0    0  501 -0.00000000000E+00  0.00000000000E+00  0.14046238498E+02  0.14046238730E+02  0.25500000000E-02 0. -1.
          2   -1    0    0  501    0  0.00000000000E+00 -0.00000000000E+00 -0.92950979643E+03  0.92950979643E+03  0.25500000000E-02 0.  1.
    5000001    1    1    2    0    0  0.42182455530E+02 -0.67819099415E+02 -0.57067919126E+03  0.58136264856E+03  0.77000000000E+02 0.  0.
   -5000001    1    1    2    0    0 -0.42182455530E+02  0.67819099415E+02 -0.34478436667E+03  0.36219338661E+03  0.77000000000E+02 0.  0.
<mgrwt>
<rscale>  0 0.22852673E+03</rscale>
<asrwt>0</asrwt>
<pdfrwt beam="1">  1        2 0.14300146E+00 0.22852673E+03</pdfrwt>
<pdfrwt beam="2">  1       -2 0.21609605E-02 0.22852673E+03</pdfrwt>
<totfact> 0.19782360E+04</totfact>
</mgrwt>
</event>
<event>
 4    1  0.6122885E-004  0.3979590E+03  0.7818608E-02  0.1044489E+00
         -2   -1    0    0    0  501 -0.00000000000E+00  0.00000000000E+00  0.89485535925E+02  0.89485535961E+02  0.25500000000E-02 0. -1.
          2   -1    0    0  501    0  0.00000000000E+00 -0.00000000000E+00 -0.44244963110E+03  0.44244963111E+03  0.25500000000E-02 0.  1.
    5000001    1    1    2    0    0 -0.13173303842E+03  0.67961911192E+01 -0.60171896476E+01  0.15285610291E+03  0.77000000000E+02 0.  0.
   -5000001    1    1    2    0    0  0.13173303842E+03 -0.67961911192E+01 -0.34694690553E+03  0.37907906416E+03  0.77000000000E+02 0.  0.
<mgrwt>
<rscale>  0 0.39795900E+03</rscale>
<asrwt>0</asrwt>
<pdfrwt beam="1">  1        2 0.68069173E-01 0.39795900E+03</pdfrwt>
<pdfrwt beam="2">  1       -2 0.13767006E-01 0.39795900E+03</pdfrwt>
<totfact> 0.28349976E+03</totfact>
</mgrwt>
</event>
<event>
 4    1  0.6122885E-004  0.1812106E+03  0.7818608E-02  0.1166637E+00
         -2   -1    0    0    0  501 -0.00000000000E+00  0.00000000000E+00  0.34878145548E+01  0.34878154870E+01  0.25500000000E-02 0. -1.
          2   -1    0    0  501    0  0.00000000000E+00 -0.00000000000E+00 -0.23537143883E+04  0.23537143883E+04  0.25500000000E-02 0.  1.
    5000001    1    1    2    0    0 -0.31158674441E+02  0.22732562976E-01 -0.16458291591E+04  0.16479239923E+04  0.77000000000E+02 0.  0.
   -5000001    1    1    2    0    0  0.31158674441E+02 -0.22732562976E-01 -0.70439741467E+03  0.70927821150E+03  0.77000000000E+02 0.  0.
<mgrwt>
<rscale>  0 0.18121060E+03</rscale>
<asrwt>0</asrwt>
<pdfrwt beam="1">  1        2 0.36210864E+00 0.18121060E+03</pdfrwt>
<pdfrwt beam="2">  1       -2 0.53658881E-03 0.18121060E+03</pdfrwt>
<totfact> 0.24914025E+04</totfact>
</mgrwt>
</event>
<event>
 4    1  0.6122885E-004  0.3039994E+03  0.7818608E-02  0.1083258E+00
         -2   -1    0    0    0  501 -0.00000000000E+00  0.00000000000E+00  0.28417829871E+02  0.28417829985E+02  0.25500000000E-02 0. -1.
          2   -1    0    0  501    0  0.00000000000E+00 -0.00000000000E+00 -0.81300740187E+03  0.81300740188E+03  0.25500000000E-02 0.  1.
    5000001    1    1    2    0    0 -0.53146470802E+02  0.67095257727E+02 -0.66697650172E+03  0.67684043527E+03  0.77000000000E+02 0.  0.
   -5000001    1    1    2    0    0  0.53146470802E+02 -0.67095257727E+02 -0.11761307028E+03  0.16458479659E+03  0.77000000000E+02 0.  0.
<mgrwt>
<rscale>  0 0.30399938E+03</rscale>
<asrwt>0</asrwt>
<pdfrwt beam="1">  1        2 0.12507804E+00 0.30399938E+03</pdfrwt>
<pdfrwt beam="2">  1       -2 0.43719745E-02 0.30399938E+03</pdfrwt>
<totfact> 0.83526516E+03</totfact>
</mgrwt>
</event>
<event>
 4    1  0.6122885E-004  0.3014964E+03  0.7818608E-02  0.1084495E+00
         -2   -1    0    0    0  501 -0.00000000000E+00  0.00000000000E+00  0.12598734905E+02  0.12598735164E+02  0.25500000000E-02 0. -1.
          2   -1    0    0  501    0  0.00000000000E+00 -0.00000000000E+00 -0.18037540837E+04  0.18037540837E+04  0.25500000000E-02 0.  1.
    5000001    1    1    2    0    0  0.99321511203E+02  0.36393150694E+01 -0.39449572873E+03  0.41404575495E+03  0.77000000000E+02 0.  0.
   -5000001    1    1    2    0    0 -0.99321511203E+02 -0.36393150694E+01 -0.13966596201E+04  0.14023070639E+04  0.77000000000E+02 0.  0.
<mgrwt>
<rscale>  0 0.30149640E+03</rscale>
<asrwt>0</asrwt>
<pdfrwt beam="1">  1        2 0.27750042E+00 0.30149640E+03</pdfrwt>
<pdfrwt beam="2">  1       -2 0.19382684E-02 0.30149640E+03</pdfrwt>
<totfact> 0.76361510E+03</totfact>
</mgrwt>
</event>
<event>
 4    1  0.6122885E-004  0.2529582E+03  0.7818608E-02  0.1111449E+00
         -2   -1    0    0    0  501 -0.00000000000E+00  0.00000000000E+00  0.21150509826E+03  0.21150509827E+03  0.25500000000E-02 0. -1.
          2   -1    0    0  501    0  0.00000000000E+00 -0.00000000000E+00 -0.75633911583E+02  0.75633911626E+02  0.25500000000E-02 0.  1.
    5000001    1    1    2    0    0 -0.63325284963E+02  0.29647106537E+01 -0.20349635464E+02  0.10179385487E+03  0.77000000000E+02 0.  0.
   -5000001    1    1    2    0    0  0.63325284963E+02 -0.29647106537E+01  0.15622082214E+03  0.18534515504E+03  0.77000000000E+02 0.  0.
<mgrwt>
<rscale>  0 0.25295816E+03</rscale>
<asrwt>0</asrwt>
<pdfrwt beam="1">  1        2 0.11635987E-01 0.25295816E+03</pdfrwt>
<pdfrwt beam="2">  1       -2 0.32539245E-01 0.25295816E+03</pdfrwt>
<totfact> 0.46232777E+03</totfact>
</mgrwt>
</event>
<event>
 4    1  0.6122885E-004  0.5064546E+03  0.7818608E-02  0.1012108E+00
          2   -1    0    0  501    0  0.00000000000E+00  0.00000000000E+00  0.49917504281E+03  0.49917504281E+03  0.25500000000E-02 0.  1.
         -2   -1    0    0    0  501 -0.00000000000E+00 -0.00000000000E+00 -0.12846008835E+03  0.12846008838E+03  0.25500000000E-02 0. -1.
    5000001    1    1    2    0    0  0.54548850652E+02 -0.16804217778E+03 -0.18205268991E+02  0.19358249518E+03  0.77000000000E+02 0.  0.
   -5000001    1    1    2    0    0 -0.54548850652E+02  0.16804217778E+03  0.38892022345E+03  0.43405263601E+03  0.77000000000E+02 0.  0.
<mgrwt>
<rscale>  0 0.50645462E+03</rscale>
<asrwt>0</asrwt>
<pdfrwt beam="1">  1        2 0.76796160E-01 0.50645462E+03</pdfrwt>
<pdfrwt beam="2">  1       -2 0.19763091E-01 0.50645462E+03</pdfrwt>
<totfact> 0.13443238E+03</totfact>
</mgrwt>
</event>
<event>
 4    1  0.6122885E-004  0.1686671E+03  0.7818608E-02  0.1179245E+00
         -2   -1    0    0    0  501 -0.00000000000E+00  0.00000000000E+00  0.12768593611E+02  0.12768593865E+02  0.25500000000E-02 0. -1.
          2   -1    0    0  501    0  0.00000000000E+00 -0.00000000000E+00 -0.55700322891E+03  0.55700322891E+03  0.25500000000E-02 0.  1.
    5000001    1    1    2    0    0 -0.22353881154E+02  0.17419791889E+02 -0.33796856035E+03  0.34778569973E+03  0.77000000000E+02 0.  0.
   -5000001    1    1    2    0    0  0.22353881154E+02 -0.17419791889E+02 -0.20626607495E+03  0.22198612305E+03  0.77000000000E+02 0.  0.
<mgrwt>
<rscale>  0 0.16866710E+03</rscale>
<asrwt>0</asrwt>
<pdfrwt beam="1">  1        2 0.85692786E-01 0.16866710E+03</pdfrwt>
<pdfrwt beam="2">  1       -2 0.19643995E-02 0.16866710E+03</pdfrwt>
<totfact> 0.41578037E+04</totfact>
</mgrwt>
</event>
<event>
 4    1  0.6122885E-004  0.2052796E+03  0.7818608E-02  0.1145360E+00
          2   -1    0    0  501    0  0.00000000000E+00  0.00000000000E+00  0.11683855003E+04  0.11683855003E+04  0.25500000000E-02 0.  1.
         -2   -1    0    0    0  501 -0.00000000000E+00 -0.00000000000E+00 -0.90166541261E+01  0.90166544867E+01  0.25500000000E-02 0. -1.
    5000001    1    1    2    0    0 -0.44801071781E+02 -0.45110650368E+02  0.71587585901E+03  0.72280658016E+03  0.77000000000E+02 0.  0.
   -5000001    1    1    2    0    0  0.44801071781E+02  0.45110650368E+02  0.44349298718E+03  0.45459557465E+03  0.77000000000E+02 0.  0.
<mgrwt>
<rscale>  0 0.20527960E+03</rscale>
<asrwt>0</asrwt>
<pdfrwt beam="1">  1        2 0.17975149E+00 0.20527960E+03</pdfrwt>
<pdfrwt beam="2">  1       -2 0.13871785E-02 0.20527960E+03</pdfrwt>
<totfact> 0.27054493E+04</totfact>
</mgrwt>
</event>
<event>
 4    1  0.6122885E-004  0.2018688E+03  0.7818608E-02  0.1148172E+00
          2   -1    0    0  501    0  0.00000000000E+00  0.00000000000E+00  0.35841168370E+02  0.35841168461E+02  0.25500000000E-02 0.  1.
         -2   -1    0    0    0  501 -0.00000000000E+00 -0.00000000000E+00 -0.28424730402E+03  0.28424730403E+03  0.25500000000E-02 0. -1.
    5000001    1    1    2    0    0  0.44868734682E+02  0.38139166171E+02 -0.16879712489E+03  0.19465165994E+03  0.77000000000E+02 0.  0.
   -5000001    1    1    2    0    0 -0.44868734682E+02 -0.38139166171E+02 -0.79609010764E+02  0.12543681255E+03  0.77000000000E+02 0.  0.
<mgrwt>
<rscale>  0 0.20186882E+03</rscale>
<asrwt>0</asrwt>
<pdfrwt beam="1">  1        2 0.55140261E-02 0.20186882E+03</pdfrwt>
<pdfrwt beam="2">  1       -2 0.43730353E-01 0.20186882E+03</pdfrwt>
<totfact> 0.67364396E+03</totfact>
</mgrwt>
</event>
<event>
 4    1  0.6122885E-004  0.2123186E+03  0.7818608E-02  0.1139743E+00
         -2   -1    0    0    0  501 -0.00000000000E+00  0.00000000000E+00  0.28083804624E+02  0.28083804740E+02  0.25500000000E-02 0. -1.
          2   -1    0    0  501    0  0.00000000000E+00 -0.00000000000E+00 -0.40129155956E+03  0.40129155957E+03  0.25500000000E-02 0.  1.
    5000001    1    1    2    0    0  0.13501558978E+02 -0.64593415120E+02 -0.12309565307E+03  0.15948711915E+03  0.77000000000E+02 0.  0.
   -5000001    1    1    2    0    0 -0.13501558978E+02  0.64593415120E+02 -0.25011210187E+03  0.26988824516E+03  0.77000000000E+02 0.  0.
<mgrwt>
<rscale>  0 0.21231857E+03</rscale>
<asrwt>0</asrwt>
<pdfrwt beam="1">  1        2 0.61737159E-01 0.21231857E+03</pdfrwt>
<pdfrwt beam="2">  1       -2 0.43205856E-02 0.21231857E+03</pdfrwt>
<totfact> 0.18949285E+04</totfact>
</mgrwt>
</event>
<event>
 4    1  0.6122885E-004  0.3667131E+03  0.7818608E-02  0.1055957E+00
          2   -1    0    0  501    0  0.00000000000E+00  0.00000000000E+00  0.10483598057E+04  0.10483598057E+04  0.25500000000E-02 0.  1.
         -2   -1    0    0    0  501 -0.00000000000E+00 -0.00000000000E+00 -0.32068781921E+02  0.32068782022E+02  0.25500000000E-02 0. -1.
    5000001    1    1    2    0    0  0.97142338984E+02  0.87310593786E+01  0.11091756087E+03  0.16656701573E+03  0.77000000000E+02 0.  0.
   -5000001    1    1    2    0    0 -0.97142338984E+02 -0.87310593786E+01  0.90537346287E+03  0.91386157195E+03  0.77000000000E+02 0.  0.
<mgrwt>
<rscale>  0 0.36671309E+03</rscale>
<asrwt>0</asrwt>
<pdfrwt beam="1">  1        2 0.16128611E+00 0.36671309E+03</pdfrwt>
<pdfrwt beam="2">  1       -2 0.49336593E-02 0.36671309E+03</pdfrwt>
<totfact> 0.49229093E+03</totfact>
</mgrwt>
</event>
<event>
 4    1  0.6122885E-004  0.1733125E+03  0.7818608E-02  0.1174437E+00
          2   -1    0    0  501    0  0.00000000000E+00  0.00000000000E+00  0.95048380689E+02  0.95048380723E+02  0.25500000000E-02 0.  1.
         -2   -1    0    0    0  501 -0.00000000000E+00 -0.00000000000E+00 -0.79005123160E+02  0.79005123201E+02  0.25500000000E-02 0. -1.
    5000001    1    1    2    0    0  0.31904071349E+02  0.20960823454E+02 -0.31200868929E+01  0.85999772271E+02  0.77000000000E+02 0.  0.
   -5000001    1    1    2    0    0 -0.31904071349E+02 -0.20960823454E+02  0.19163344423E+02  0.88053731653E+02  0.77000000000E+02 0.  0.
<mgrwt>
<rscale>  0 0.17331254E+03</rscale>
<asrwt>0</asrwt>
<pdfrwt beam="1">  1        2 0.14622828E-01 0.17331254E+03</pdfrwt>
<pdfrwt beam="2">  1       -2 0.12154634E-01 0.17331254E+03</pdfrwt>
<totfact> 0.18474531E+04</totfact>
</mgrwt>
</event>
<event>
 4    1  0.6122885E-004  0.2366912E+03  0.7818608E-02  0.1122017E+00
         -2   -1    0    0    0  501 -0.00000000000E+00  0.00000000000E+00  0.16218321886E+02  0.16218322086E+02  0.25500000000E-02 0. -1.
          2   -1    0    0  501    0  0.00000000000E+00 -0.00000000000E+00 -0.86357147245E+03  0.86357147246E+03  0.25500000000E-02 0.  1.
    5000001    1    1    2    0    0 -0.45383956353E+01 -0.89367182352E+02 -0.45468429863E+03  0.46975940835E+03  0.77000000000E+02 0.  0.
   -5000001    1    1    2    0    0  0.45383956353E+01  0.89367182352E+02 -0.39266885194E+03  0.41003038619E+03  0.77000000000E+02 0.  0.
<mgrwt>
<rscale>  0 0.23669119E+03</rscale>
<asrwt>0</asrwt>
<pdfrwt beam="1">  1        2 0.13285711E+00 0.23669119E+03</pdfrwt>
<pdfrwt beam="2">  1       -2 0.24951271E-02 0.23669119E+03</pdfrwt>
<totfact> 0.17684557E+04</totfact>
</mgrwt>
</event>
<event>
 4    1  0.6122885E-004  0.2196985E+03  0.7818608E-02  0.1134108E+00
          2   -1    0    0  501    0  0.00000000000E+00  0.00000000000E+00  0.15428093919E+04  0.15428093919E+04  0.25500000000E-02 0.  1.
         -2   -1    0    0    0  501 -0.00000000000E+00 -0.00000000000E+00 -0.78213560801E+01  0.78213564957E+01  0.25500000000E-02 0. -1.
    5000001    1    1    2    0    0  0.55493049846E+02  0.48452619775E+02  0.95565632535E+03  0.96157950640E+03  0.77000000000E+02 0.  0.
   -5000001    1    1    2    0    0 -0.55493049846E+02 -0.48452619775E+02  0.57933171043E+03  0.58905124196E+03  0.77000000000E+02 0.  0.
<mgrwt>
<rscale>  0 0.21969854E+03</rscale>
<asrwt>0</asrwt>
<pdfrwt beam="1">  1        2 0.23735511E+00 0.21969854E+03</pdfrwt>
<pdfrwt beam="2">  1       -2 0.12032865E-02 0.21969854E+03</pdfrwt>
<totfact> 0.20868895E+04</totfact>
</mgrwt>
</event>
<event>
 4    1  0.6122885E-004  0.1958583E+03  0.7818608E-02  0.1153281E+00
          2   -1    0    0  501    0  0.00000000000E+00  0.00000000000E+00  0.72745552404E+02  0.72745552448E+02  0.25500000000E-02 0.  1.
         -2   -1    0    0    0  501 -0.00000000000E+00 -0.00000000000E+00 -0.13183105174E+03  0.13183105176E+03  0.25500000000E-02 0. -1.
    5000001    1    1    2    0    0 -0.33143287167E+02 -0.26026157885E+02  0.15809863415E+02  0.89189630337E+02  0.77000000000E+02 0.  0.
   -5000001    1    1    2    0    0  0.33143287167E+02  0.26026157885E+02 -0.74895362750E+02  0.11538697387E+03  0.77000000000E+02 0.  0.
<mgrwt>
<rscale>  0 0.19585834E+03</rscale>
<asrwt>0</asrwt>
<pdfrwt beam="1">  1        2 0.11191623E-01 0.19585834E+03</pdfrwt>
<pdfrwt beam="2">  1       -2 0.20281700E-01 0.19585834E+03</pdfrwt>
<totfact> 0.11033138E+04</totfact>
</mgrwt>
</event>
<event>
 4    1  0.6122885E-004  0.1871403E+03  0.7818608E-02  0.1161066E+00
          2   -1    0    0  501    0  0.00000000000E+00  0.00000000000E+00  0.79162159401E+02  0.79162159442E+02  0.25500000000E-02 0.  1.
         -2   -1    0    0    0  501 -0.00000000000E+00 -0.00000000000E+00 -0.11060046379E+03  0.11060046382E+03  0.25500000000E-02 0. -1.
    5000001    1    1    2    0    0 -0.49581297242E+02  0.13210552268E+00  0.37342805251E+01  0.91658427540E+02  0.77000000000E+02 0.  0.
   -5000001    1    1    2    0    0  0.49581297242E+02 -0.13210552268E+00 -0.35172584911E+02  0.98104195718E+02  0.77000000000E+02 0.  0.
<mgrwt>
<rscale>  0 0.18714028E+03</rscale>
<asrwt>0</asrwt>
<pdfrwt beam="1">  1        2 0.12178794E-01 0.18714028E+03</pdfrwt>
<pdfrwt beam="2">  1       -2 0.17015456E-01 0.18714028E+03</pdfrwt>
<totfact> 0.13342073E+04</totfact>
</mgrwt>
</event>
<event>
 4    1  0.6122885E-004  0.2140957E+03  0.7818608E-02  0.1138363E+00
         -2   -1    0    0    0  501 -0.00000000000E+00  0.00000000000E+00  0.12297708412E+02  0.12297708677E+02  0.25500000000E-02 0. -1.
          2   -1    0    0  501    0  0.00000000000E+00 -0.00000000000E+00 -0.93181896261E+03  0.93181896262E+03  0.25500000000E-02 0.  1.
    5000001    1    1    2    0    0 -0.57313186692E+02  0.44510024573E+02 -0.38807010340E+03  0.40223543953E+03  0.77000000000E+02 0.  0.
   -5000001    1    1    2    0    0  0.57313186692E+02 -0.44510024573E+02 -0.53145115080E+03  0.54188123177E+03  0.77000000000E+02 0.  0.
<mgrwt>
<rscale>  0 0.21409566E+03</rscale>
<asrwt>0</asrwt>
<pdfrwt beam="1">  1        2 0.14335671E+00 0.21409566E+03</pdfrwt>
<pdfrwt beam="2">  1       -2 0.18919559E-02 0.21409566E+03</pdfrwt>
<totfact> 0.23869252E+04</totfact>
</mgrwt>
</event>
<event>
 4    1  0.6122885E-004  0.2157746E+03  0.7818608E-02  0.1137073E+00
         -2   -1    0    0    0  501 -0.00000000000E+00  0.00000000000E+00  0.11607469925E+02  0.11607470205E+02  0.25500000000E-02 0. -1.
          2   -1    0    0  501    0  0.00000000000E+00 -0.00000000000E+00 -0.10027736167E+04  0.10027736167E+04  0.25500000000E-02 0.  1.
    5000001    1    1    2    0    0  0.38831991076E+02 -0.28246268891E+02 -0.22126626251E+03  0.23915169696E+03  0.77000000000E+02 0.  0.
   -5000001    1    1    2    0    0 -0.38831991076E+02  0.28246268891E+02 -0.76989988428E+03  0.77522938996E+03  0.77000000000E+02 0.  0.
<mgrwt>
<rscale>  0 0.21577456E+03</rscale>
<asrwt>0</asrwt>
<pdfrwt beam="1">  1        2 0.15427280E+00 0.21577456E+03</pdfrwt>
<pdfrwt beam="2">  1       -2 0.17857654E-02 0.21577456E+03</pdfrwt>
<totfact> 0.23489121E+04</totfact>
</mgrwt>
</event>
<event>
 4    1  0.6122885E-004  0.4507332E+03  0.7818608E-02  0.1027504E+00
         -2   -1    0    0    0  501 -0.00000000000E+00  0.00000000000E+00  0.12970718056E+03  0.12970718059E+03  0.25500000000E-02 0. -1.
          2   -1    0    0  501    0  0.00000000000E+00 -0.00000000000E+00 -0.39157517286E+03  0.39157517287E+03  0.25500000000E-02 0.  1.
    5000001    1    1    2    0    0 -0.17915945777E+03 -0.16048671882E+02 -0.26026508700E+03  0.32561109730E+03  0.77000000000E+02 0.  0.
   -5000001    1    1    2    0    0  0.17915945777E+03  0.16048671882E+02 -0.16029052956E+01  0.19567125615E+03  0.77000000000E+02 0.  0.
<mgrwt>
<rscale>  0 0.45073323E+03</rscale>
<asrwt>0</asrwt>
<pdfrwt beam="1">  1        2 0.60242334E-01 0.45073323E+03</pdfrwt>
<pdfrwt beam="2">  1       -2 0.19954951E-01 0.45073323E+03</pdfrwt>
<totfact> 0.17359007E+03</totfact>
</mgrwt>
</event>
<event>
 4    1  0.6122885E-004  0.2205510E+03  0.7818608E-02  0.1133473E+00
         -2   -1    0    0    0  501 -0.00000000000E+00  0.00000000000E+00  0.81899133787E+02  0.81899133827E+02  0.25500000000E-02 0. -1.
          2   -1    0    0  501    0  0.00000000000E+00 -0.00000000000E+00 -0.14848364990E+03  0.14848364993E+03  0.25500000000E-02 0.  1.
    5000001    1    1    2    0    0 -0.51458071945E+02 -0.58980420507E+02 -0.43999015994E+02  0.11828582578E+03  0.77000000000E+02 0.  0.
   -5000001    1    1    2    0    0  0.51458071945E+02  0.58980420507E+02 -0.22585500123E+02  0.11209695797E+03  0.77000000000E+02 0.  0.
<mgrwt>
<rscale>  0 0.22055097E+03</rscale>
<asrwt>0</asrwt>
<pdfrwt beam="1">  1        2 0.22843638E-01 0.22055097E+03</pdfrwt>
<pdfrwt beam="2">  1       -2 0.12599867E-01 0.22055097E+03</pdfrwt>
<totfact> 0.10613178E+04</totfact>
</mgrwt>
</event>
<event>
 4    1  0.6122885E-004  0.1636153E+03  0.7818608E-02  0.1184674E+00
         -2   -1    0    0    0  501 -0.00000000000E+00  0.00000000000E+00  0.24614341242E+02  0.24614341374E+02  0.25500000000E-02 0. -1.
          2   -1    0    0  501    0  0.00000000000E+00 -0.00000000000E+00 -0.27189415455E+03  0.27189415457E+03  0.25500000000E-02 0.  1.
    5000001    1    1    2    0    0  0.20295364702E+02 -0.18261354614E+02 -0.13135341086E+03  0.15468709528E+03  0.77000000000E+02 0.  0.
   -5000001    1    1    2    0    0 -0.20295364702E+02  0.18261354614E+02 -0.11592640245E+03  0.14182140066E+03  0.77000000000E+02 0.  0.
<mgrwt>
<rscale>  0 0.16361535E+03</rscale>
<asrwt>0</asrwt>
<pdfrwt beam="1">  1        2 0.41829868E-01 0.16361535E+03</pdfrwt>
<pdfrwt beam="2">  1       -2 0.37868219E-02 0.16361535E+03</pdfrwt>
<totfact> 0.34267208E+04</totfact>
</mgrwt>
</event>
<event>
 4    1  0.6122885E-004  0.3163518E+03  0.7818608E-02  0.1077341E+00
          2   -1    0    0  501    0  0.00000000000E+00  0.00000000000E+00  0.15197181644E+04  0.15197181644E+04  0.25500000000E-02 0.  1.
         -2   -1    0    0    0  501 -0.00000000000E+00 -0.00000000000E+00 -0.16463320886E+02  0.16463321083E+02  0.25500000000E-02 0. -1.
    5000001    1    1    2    0    0  0.12485857699E+03 -0.41861583697E+02  0.95468139715E+03  0.96679244230E+03  0.77000000000E+02 0.  0.
   -5000001    1    1    2    0    0 -0.12485857699E+03  0.41861583697E+02  0.54857344639E+03  0.56938904320E+03  0.77000000000E+02 0.  0.
<mgrwt>
<rscale>  0 0.31635175E+03</rscale>
<asrwt>0</asrwt>
<pdfrwt beam="1">  1        2 0.23380270E+00 0.31635175E+03</pdfrwt>
<pdfrwt beam="2">  1       -2 0.25328196E-02 0.31635175E+03</pdfrwt>
<totfact> 0.72747752E+03</totfact>
</mgrwt>
</event>
<event>
 4    1  0.6122885E-004  0.3160197E+03  0.7818608E-02  0.1077496E+00
          2   -1    0    0  501    0  0.00000000000E+00  0.00000000000E+00  0.16466236671E+04  0.16466236671E+04  0.25500000000E-02 0. -1.
         -2   -1    0    0    0  501 -0.00000000000E+00 -0.00000000000E+00 -0.15162609254E+02  0.15162609469E+02  0.25500000000E-02 0.  1.
    5000001    1    1    2    0    0  0.13486726316E+03  0.18742809415E+02  0.93303608975E+03  0.94605804069E+03  0.77000000000E+02 0.  0.
   -5000001    1    1    2    0    0 -0.13486726316E+03 -0.18742809415E+02  0.69842496807E+03  0.71572823586E+03  0.77000000000E+02 0.  0.
<mgrwt>
<rscale>  0 0.31601969E+03</rscale>
<asrwt>0</asrwt>
<pdfrwt beam="1">  1        2 0.25332653E+00 0.31601969E+03</pdfrwt>
<pdfrwt beam="2">  1       -2 0.23327109E-02 0.31601969E+03</pdfrwt>
<totfact> 0.70329279E+03</totfact>
</mgrwt>
</event>
<event>
 4    1  0.6122885E-004  0.1904662E+03  0.7818608E-02  0.1158042E+00
         -2   -1    0    0    0  501 -0.00000000000E+00  0.00000000000E+00  0.11046365040E+02  0.11046365335E+02  0.25500000000E-02 0. -1.
          2   -1    0    0  501    0  0.00000000000E+00 -0.00000000000E+00 -0.82102493104E+03  0.82102493104E+03  0.25500000000E-02 0.  1.
    5000001    1    1    2    0    0  0.50812151246E+02 -0.22984285560E+02 -0.42899241540E+03  0.43940146172E+03  0.77000000000E+02 0.  0.
   -5000001    1    1    2    0    0 -0.50812151246E+02  0.22984285560E+02 -0.38098615060E+03  0.39266983465E+03  0.77000000000E+02 0.  0.
<mgrwt>
<rscale>  0 0.19046618E+03</rscale>
<asrwt>0</asrwt>
<pdfrwt beam="1">  1        2 0.12631148E+00 0.19046618E+03</pdfrwt>
<pdfrwt beam="2">  1       -2 0.16994414E-02 0.19046618E+03</pdfrwt>
<totfact> 0.32689131E+04</totfact>
</mgrwt>
</event>
<event>
 4    1  0.6122885E-004  0.3360988E+03  0.7818608E-02  0.1068470E+00
          2   -1    0    0  501    0  0.00000000000E+00  0.00000000000E+00  0.59273329564E+03  0.59273329565E+03  0.25500000000E-02 0.  1.
         -2   -1    0    0    0  501 -0.00000000000E+00 -0.00000000000E+00 -0.47644709750E+02  0.47644709818E+02  0.25500000000E-02 0. -1.
    5000001    1    1    2    0    0 -0.61361666432E+02  0.11725682288E+03  0.40451052962E+03  0.43251842179E+03  0.77000000000E+02 0.  0.
   -5000001    1    1    2    0    0  0.61361666432E+02 -0.11725682288E+03  0.14057805628E+03  0.20785958367E+03  0.77000000000E+02 0.  0.
<mgrwt>
<rscale>  0 0.33609883E+03</rscale>
<asrwt>0</asrwt>
<pdfrwt beam="1">  1        2 0.91189735E-01 0.33609883E+03</pdfrwt>
<pdfrwt beam="2">  1       -2 0.73299555E-02 0.33609883E+03</pdfrwt>
<totfact> 0.55677230E+03</totfact>
</mgrwt>
</event>
<event>
 4    1  0.6122885E-004  0.4933639E+03  0.7818608E-02  0.1015526E+00
         -2   -1    0    0    0  501 -0.00000000000E+00  0.00000000000E+00  0.69581790488E+02  0.69581790534E+02  0.25500000000E-02 0. -1.
          2   -1    0    0  501    0  0.00000000000E+00 -0.00000000000E+00 -0.87453882765E+03  0.87453882766E+03  0.25500000000E-02 0.  1.
    5000001    1    1    2    0    0 -0.20757603638E+03 -0.74905616490E+02 -0.25150320912E+03  0.34333879254E+03  0.77000000000E+02 0.  0.
   -5000001    1    1    2    0    0  0.20757603638E+03  0.74905616490E+02 -0.55345382804E+03  0.60078182565E+03  0.77000000000E+02 0.  0.
<mgrwt>
<rscale>  0 0.49336387E+03</rscale>
<asrwt>0</asrwt>
<pdfrwt beam="1">  1        2 0.13454443E+00 0.49336387E+03</pdfrwt>
<pdfrwt beam="2">  1       -2 0.10704892E-01 0.49336387E+03</pdfrwt>
<totfact> 0.18807589E+03</totfact>
</mgrwt>
</event>
<event>
 4    1  0.6122885E-004  0.3006205E+03  0.7818608E-02  0.1084931E+00
          2   -1    0    0  501    0  0.00000000000E+00  0.00000000000E+00  0.79163120425E+03  0.79163120425E+03  0.25500000000E-02 0.  1.
         -2   -1    0    0    0  501 -0.00000000000E+00 -0.00000000000E+00 -0.28540025801E+02  0.28540025915E+02  0.25500000000E-02 0. -1.
    5000001    1    1    2    0    0 -0.79373728658E+02 -0.37316233401E+01  0.65910589765E+03  0.66832903433E+03  0.77000000000E+02 0.  0.
   -5000001    1    1    2    0    0  0.79373728658E+02  0.37316233401E+01  0.10398528080E+03  0.15184219584E+03  0.77000000000E+02 0.  0.
<mgrwt>
<rscale>  0 0.30062053E+03</rscale>
<asrwt>0</asrwt>
<pdfrwt beam="1">  1        2 0.12178942E+00 0.30062053E+03</pdfrwt>
<pdfrwt beam="2">  1       -2 0.43907729E-02 0.30062053E+03</pdfrwt>
<totfact> 0.85837317E+03</totfact>
</mgrwt>
</event>
<event>
 4    1  0.6122885E-004  0.1728007E+03  0.7818608E-02  0.1174958E+00
          2   -1    0    0  501    0  0.00000000000E+00  0.00000000000E+00  0.52957093619E+02  0.52957093681E+02  0.25500000000E-02 0.  1.
         -2   -1    0    0    0  501 -0.00000000000E+00 -0.00000000000E+00 -0.14096354989E+03  0.14096354991E+03  0.25500000000E-02 0. -1.
    5000001    1    1    2    0    0  0.29580101261E+02  0.91836002421E+01 -0.17053575816E+02  0.84729837437E+02  0.77000000000E+02 0.  0.
   -5000001    1    1    2    0    0 -0.29580101261E+02 -0.91836002421E+01 -0.70952880453E+02  0.10919080615E+03  0.77000000000E+02 0.  0.
<mgrwt>
<rscale>  0 0.17280069E+03</rscale>
<asrwt>0</asrwt>
<pdfrwt beam="1">  1        2 0.81472452E-02 0.17280069E+03</pdfrwt>
<pdfrwt beam="2">  1       -2 0.21686700E-01 0.17280069E+03</pdfrwt>
<totfact> 0.14445689E+04</totfact>
</mgrwt>
</event>
<event>
 4    1  0.6122885E-004  0.5767316E+03  0.7818608E-02  0.9954892E-01
          2   -1    0    0  501    0  0.00000000000E+00  0.00000000000E+00  0.12034400358E+04  0.12034400358E+04  0.25500000000E-02 0.  1.
         -2   -1    0    0    0  501 -0.00000000000E+00 -0.00000000000E+00 -0.69097611298E+02  0.69097611345E+02  0.25500000000E-02 0. -1.
    5000001    1    1    2    0    0 -0.12790004144E+03 -0.16237585105E+03  0.97701263569E+03  0.10016022304E+04  0.77000000000E+02 0.  0.
   -5000001    1    1    2    0    0  0.12790004144E+03  0.16237585105E+03  0.15732978878E+03  0.27093541674E+03  0.77000000000E+02 0.  0.
<mgrwt>
<rscale>  0 0.57673159E+03</rscale>
<asrwt>0</asrwt>
<pdfrwt beam="1">  1        2 0.18514463E+00 0.57673159E+03</pdfrwt>
<pdfrwt beam="2">  1       -2 0.10630401E-01 0.57673159E+03</pdfrwt>
<totfact> 0.11851290E+03</totfact>
</mgrwt>
</event>
<event>
 4    1  0.6122885E-004  0.2625746E+03  0.7818608E-02  0.1105606E+00
         -2   -1    0    0    0  501 -0.00000000000E+00  0.00000000000E+00  0.58243334999E+02  0.58243335055E+02  0.25500000000E-02 0. -1.
          2   -1    0    0  501    0  0.00000000000E+00 -0.00000000000E+00 -0.29593705993E+03  0.29593705994E+03  0.25500000000E-02 0.  1.
    5000001    1    1    2    0    0 -0.43347710056E+02  0.66002542466E+02 -0.21491103028E+03  0.24155974523E+03  0.77000000000E+02 0.  0.
   -5000001    1    1    2    0    0  0.43347710056E+02 -0.66002542466E+02 -0.22782694655E+02  0.11262064977E+03  0.77000000000E+02 0.  0.
<mgrwt>
<rscale>  0 0.26257465E+03</rscale>
<asrwt>0</asrwt>
<pdfrwt beam="1">  1        2 0.45528778E-01 0.26257465E+03</pdfrwt>
<pdfrwt beam="2">  1       -2 0.89605132E-02 0.26257465E+03</pdfrwt>
<totfact> 0.86801183E+03</totfact>
</mgrwt>
</event>
<event>
 4    1  0.6122885E-004  0.1895980E+03  0.7818608E-02  0.1158824E+00
          2   -1    0    0  501    0  0.00000000000E+00  0.00000000000E+00  0.16370792247E+04  0.16370792247E+04  0.25500000000E-02 0.  1.
         -2   -1    0    0    0  501 -0.00000000000E+00 -0.00000000000E+00 -0.54895611011E+01  0.54895616933E+01  0.25500000000E-02 0. -1.
    5000001    1    1    2    0    0  0.37973526674E+02 -0.38015032161E+02  0.70260005115E+03  0.70884621976E+03  0.77000000000E+02 0.  0.
   -5000001    1    1    2    0    0 -0.37973526674E+02  0.38015032161E+02  0.92898961248E+03  0.93372256666E+03  0.77000000000E+02 0.  0.
<mgrwt>
<rscale>  0 0.18959796E+03</rscale>
<asrwt>0</asrwt>
<pdfrwt beam="1">  1        2 0.25185828E+00 0.18959796E+03</pdfrwt>
<pdfrwt beam="2">  1       -2 0.84454813E-03 0.18959796E+03</pdfrwt>
<totfact> 0.30810867E+04</totfact>
</mgrwt>
</event>
<event>
 4    1  0.6122885E-004  0.2610888E+03  0.7818608E-02  0.1106491E+00
          2   -1    0    0  501    0  0.00000000000E+00  0.00000000000E+00  0.66564752869E+03  0.66564752870E+03  0.25500000000E-02 0.  1.
         -2   -1    0    0    0  501 -0.00000000000E+00 -0.00000000000E+00 -0.25601891910E+02  0.25601892037E+02  0.25500000000E-02 0. -1.
    5000001    1    1    2    0    0  0.74740792222E+02 -0.73573952380E+02  0.29181368557E+03  0.31950514796E+03  0.77000000000E+02 0.  0.
   -5000001    1    1    2    0    0 -0.74740792222E+02  0.73573952380E+02  0.34823195122E+03  0.37174427277E+03  0.77000000000E+02 0.  0.
<mgrwt>
<rscale>  0 0.26108877E+03</rscale>
<asrwt>0</asrwt>
<pdfrwt beam="1">  1        2 0.10240731E+00 0.26108877E+03</pdfrwt>
<pdfrwt beam="2">  1       -2 0.39387529E-02 0.26108877E+03</pdfrwt>
<totfact> 0.12454544E+04</totfact>
</mgrwt>
</event>
<event>
 4    1  0.6122885E-004  0.5933094E+03  0.7818608E-02  0.9919385E-01
         -2   -1    0    0    0  501 -0.00000000000E+00  0.00000000000E+00  0.27880225866E+03  0.27880225867E+03  0.25500000000E-02 0. -1.
          2   -1    0    0  501    0  0.00000000000E+00 -0.00000000000E+00 -0.31565023049E+03  0.31565023050E+03  0.25500000000E-02 0.  1.
    5000001    1    1    2    0    0  0.27871595849E+03 -0.34484040882E+02 -0.75130405643E+02  0.30074127160E+03  0.77000000000E+02 0.  0.
   -5000001    1    1    2    0    0 -0.27871595849E+03  0.34484040882E+02  0.38282433811E+02  0.29371121757E+03  0.77000000000E+02 0.  0.
<mgrwt>
<rscale>  0 0.59330935E+03</rscale>
<asrwt>0</asrwt>
<pdfrwt beam="1">  1        2 0.48561574E-01 0.59330935E+03</pdfrwt>
<pdfrwt beam="2">  1       -2 0.42892655E-01 0.59330935E+03</pdfrwt>
<totfact> 0.53875190E+02</totfact>
</mgrwt>
</event>
<event>
 4    1  0.6122885E-004  0.2288648E+03  0.7818608E-02  0.1127441E+00
          2   -1    0    0  501    0  0.00000000000E+00  0.00000000000E+00  0.10876881181E+04  0.10876881181E+04  0.25500000000E-02 0.  1.
         -2   -1    0    0    0  501 -0.00000000000E+00 -0.00000000000E+00 -0.12039083931E+02  0.12039084201E+02  0.25500000000E-02 0. -1.
    5000001    1    1    2    0    0 -0.15068633342E+02  0.62677276637E+02  0.80146272274E+03  0.80772953435E+03  0.77000000000E+02 0.  0.
   -5000001    1    1    2    0    0  0.15068633342E+02 -0.62677276637E+02  0.27418631145E+03  0.29199766798E+03  0.77000000000E+02 0.  0.
<mgrwt>
<rscale>  0 0.22886475E+03</rscale>
<asrwt>0</asrwt>
<pdfrwt beam="1">  1        2 0.16733661E+00 0.22886475E+03</pdfrwt>
<pdfrwt beam="2">  1       -2 0.18521670E-02 0.22886475E+03</pdfrwt>
<totfact> 0.19880460E+04</totfact>
</mgrwt>
</event>
<event>
 4    1  0.6122885E-004  0.2944473E+03  0.7818608E-02  0.1088050E+00
         -2   -1    0    0    0  501 -0.00000000000E+00  0.00000000000E+00  0.11674893375E+02  0.11674893654E+02  0.25500000000E-02 0. -1.
          2   -1    0    0  501    0  0.00000000000E+00 -0.00000000000E+00 -0.18565310624E+04  0.18565310624E+04  0.25500000000E-02 0.  1.
    5000001    1    1    2    0    0 -0.95891238477E+02  0.77501720141E+02 -0.10704339689E+04  0.10802590097E+04  0.77000000000E+02 0.  0.
   -5000001    1    1    2    0    0  0.95891238477E+02 -0.77501720141E+02 -0.77442220021E+03  0.78794694645E+03  0.77000000000E+02 0.  0.
<mgrwt>
<rscale>  0 0.29444730E+03</rscale>
<asrwt>0</asrwt>
<pdfrwt beam="1">  1        2 0.28561993E+00 0.29444730E+03</pdfrwt>
<pdfrwt beam="2">  1       -2 0.17961389E-02 0.29444730E+03</pdfrwt>
<totfact> 0.80114480E+03</totfact>
</mgrwt>
</event>
<event>
 4    1  0.6122885E-004  0.3503297E+03  0.7818608E-02  0.1062480E+00
         -2   -1    0    0    0  501 -0.00000000000E+00  0.00000000000E+00  0.41517993982E+02  0.41517994060E+02  0.25500000000E-02 0. -1.
          2   -1    0    0  501    0  0.00000000000E+00 -0.00000000000E+00 -0.73902217871E+03  0.73902217872E+03  0.25500000000E-02 0.  1.
    5000001    1    1    2    0    0  0.14160373305E+03 -0.61095638452E+02 -0.27938152210E+03  0.32827934620E+03  0.77000000000E+02 0.  0.
   -5000001    1    1    2    0    0 -0.14160373305E+03  0.61095638452E+02 -0.41812266263E+03  0.45226082658E+03  0.77000000000E+02 0.  0.
<mgrwt>
<rscale>  0 0.35032966E+03</rscale>
<asrwt>0</asrwt>
<pdfrwt beam="1">  1        2 0.11369571E+00 0.35032966E+03</pdfrwt>
<pdfrwt beam="2">  1       -2 0.63873842E-02 0.35032966E+03</pdfrwt>
<totfact> 0.52916320E+03</totfact>
</mgrwt>
</event>
<event>
 4    1  0.6122885E-004  0.2350329E+03  0.7818608E-02  0.1123147E+00
          2   -1    0    0  501    0  0.00000000000E+00  0.00000000000E+00  0.31595848893E+03  0.31595848894E+03  0.25500000000E-02 0.  1.
         -2   -1    0    0    0  501 -0.00000000000E+00 -0.00000000000E+00 -0.43708632872E+02  0.43708632946E+02  0.25500000000E-02 0. -1.
    5000001    1    1    2    0    0 -0.41440151917E+02 -0.71363586478E+02  0.86043094106E+02  0.14192414068E+03  0.77000000000E+02 0.  0.
   -5000001    1    1    2    0    0  0.41440151917E+02  0.71363586478E+02  0.18620676196E+03  0.21774298121E+03  0.77000000000E+02 0.  0.
<mgrwt>
<rscale>  0 0.23503288E+03</rscale>
<asrwt>0</asrwt>
<pdfrwt beam="1">  1        2 0.48608997E-01 0.23503288E+03</pdfrwt>
<pdfrwt beam="2">  1       -2 0.67244053E-02 0.23503288E+03</pdfrwt>
<totfact> 0.12584176E+04</totfact>
</mgrwt>
</event>
<event>
 4    1  0.6122885E-004  0.2659938E+03  0.7818608E-02  0.1103595E+00
         -2   -1    0    0    0  501 -0.00000000000E+00  0.00000000000E+00  0.12510919968E+03  0.12510919971E+03  0.25500000000E-02 0. -1.
          2   -1    0    0  501    0  0.00000000000E+00 -0.00000000000E+00 -0.14138190904E+03  0.14138190906E+03  0.25500000000E-02 0.  1.
    5000001    1    1    2    0    0  0.12618427403E+02 -0.10758883762E+03 -0.31677679635E+01  0.13294215827E+03  0.77000000000E+02 0.  0.
   -5000001    1    1    2    0    0 -0.12618427403E+02  0.10758883762E+03 -0.13104941397E+02  0.13354895050E+03  0.77000000000E+02 0.  0.
<mgrwt>
<rscale>  0 0.26599382E+03</rscale>
<asrwt>0</asrwt>
<pdfrwt beam="1">  1        2 0.21751063E-01 0.26599382E+03</pdfrwt>
<pdfrwt beam="2">  1       -2 0.19247569E-01 0.26599382E+03</pdfrwt>
<totfact> 0.56087327E+03</totfact>
</mgrwt>
</event>
<event>
 4    1  0.6122885E-004  0.3315535E+03  0.7818608E-02  0.1070452E+00
          2   -1    0    0  501    0  0.00000000000E+00  0.00000000000E+00  0.12325754256E+04  0.12325754256E+04  0.25500000000E-02 0.  1.
         -2   -1    0    0    0  501 -0.00000000000E+00 -0.00000000000E+00 -0.22296343497E+02  0.22296343643E+02  0.25500000000E-02 0. -1.
    5000001    1    1    2    0    0 -0.26699525567E+02  0.14168716790E+03  0.70980941264E+03  0.72838624403E+03  0.77000000000E+02 0.  0.
   -5000001    1    1    2    0    0  0.26699525567E+02 -0.14168716790E+03  0.50046966944E+03  0.52648552520E+03  0.77000000000E+02 0.  0.
<mgrwt>
<rscale>  0 0.33155347E+03</rscale>
<asrwt>0</asrwt>
<pdfrwt beam="1">  1        2 0.18962704E+00 0.33155347E+03</pdfrwt>
<pdfrwt beam="2">  1       -2 0.34302058E-02 0.33155347E+03</pdfrwt>
<totfact> 0.66555481E+03</totfact>
</mgrwt>
</event>
<event>
 4    1  0.6122885E-004  0.1736235E+03  0.7818608E-02  0.1174121E+00
         -2   -1    0    0    0  501 -0.00000000000E+00  0.00000000000E+00  0.59538482304E+01  0.59538487765E+01  0.25500000000E-02 0. -1.
          2   -1    0    0  501    0  0.00000000000E+00 -0.00000000000E+00 -0.12657829024E+04  0.12657829024E+04  0.25500000000E-02 0.  1.
    5000001    1    1    2    0    0  0.38058223574E+02 -0.48611871093E+01 -0.71508898605E+03  0.72024531758E+03  0.77000000000E+02 0.  0.
   -5000001    1    1    2    0    0 -0.38058223574E+02  0.48611871093E+01 -0.54474006814E+03  0.55149143362E+03  0.77000000000E+02 0.  0.
<mgrwt>
<rscale>  0 0.17362350E+03</rscale>
<asrwt>0</asrwt>
<pdfrwt beam="1">  1        2 0.19473562E+00 0.17362350E+03</pdfrwt>
<pdfrwt beam="2">  1       -2 0.91597770E-03 0.17362350E+03</pdfrwt>
<totfact> 0.42965447E+04</totfact>
</mgrwt>
</event>
<event>
 4    1  0.6122885E-004  0.2027822E+03  0.7818608E-02  0.1147413E+00
          2   -1    0    0  501    0  0.00000000000E+00  0.00000000000E+00  0.11151688351E+04  0.11151688351E+04  0.25500000000E-02 0.  1.
         -2   -1    0    0    0  501 -0.00000000000E+00 -0.00000000000E+00 -0.92184776863E+01  0.92184780390E+01  0.25500000000E-02 0. -1.
    5000001    1    1    2    0    0 -0.34121144954E+02  0.35738210311E+02  0.79528282436E+03  0.80052810253E+03  0.77000000000E+02 0.  0.
   -5000001    1    1    2    0    0  0.34121144954E+02 -0.35738210311E+02  0.31066753309E+03  0.32385921066E+03  0.77000000000E+02 0.  0.
<mgrwt>
<rscale>  0 0.20278224E+03</rscale>
<asrwt>0</asrwt>
<pdfrwt beam="1">  1        2 0.17156444E+00 0.20278224E+03</pdfrwt>
<pdfrwt beam="2">  1       -2 0.14182274E-02 0.20278224E+03</pdfrwt>
<totfact> 0.28083494E+04</totfact>
</mgrwt>
</event>
<event>
 4    1  0.6122885E-004  0.2169013E+03  0.7818608E-02  0.1136215E+00
         -2   -1    0    0    0  501 -0.00000000000E+00  0.00000000000E+00  0.26365770065E+02  0.26365770188E+02  0.25500000000E-02 0. -1.
          2   -1    0    0  501    0  0.00000000000E+00 -0.00000000000E+00 -0.44609158607E+03  0.44609158608E+03  0.25500000000E-02 0.  1.
    5000001    1    1    2    0    0 -0.68461625132E+02 -0.33265112343E+02 -0.19626234290E+03  0.22414608865E+03  0.77000000000E+02 0.  0.
   -5000001    1    1    2    0    0  0.68461625132E+02  0.33265112343E+02 -0.22346347311E+03  0.24831126762E+03  0.77000000000E+02 0.  0.
<mgrwt>
<rscale>  0 0.21690134E+03</rscale>
<asrwt>0</asrwt>
<pdfrwt beam="1">  1        2 0.68629469E-01 0.21690134E+03</pdfrwt>
<pdfrwt beam="2">  1       -2 0.40562727E-02 0.21690134E+03</pdfrwt>
<totfact> 0.18594461E+04</totfact>
</mgrwt>
</event>
<event>
 4    1  0.6122885E-004  0.2718796E+03  0.7818608E-02  0.1100209E+00
          2   -1    0    0  501    0  0.00000000000E+00  0.00000000000E+00  0.59200599128E+03  0.59200599129E+03  0.25500000000E-02 0.  1.
         -2   -1    0    0    0  501 -0.00000000000E+00 -0.00000000000E+00 -0.31215275444E+02  0.31215275548E+02  0.25500000000E-02 0. -1.
    5000001    1    1    2    0    0  0.66978269306E+01 -0.74893600420E+02  0.90030463877E+02  0.14031534733E+03  0.77000000000E+02 0.  0.
   -5000001    1    1    2    0    0 -0.66978269306E+01  0.74893600420E+02  0.47076025196E+03  0.48290591951E+03  0.77000000000E+02 0.  0.
<mgrwt>
<rscale>  0 0.27187961E+03</rscale>
<asrwt>0</asrwt>
<pdfrwt beam="1">  1        2 0.91077838E-01 0.27187961E+03</pdfrwt>
<pdfrwt beam="2">  1       -2 0.48023504E-02 0.27187961E+03</pdfrwt>
<totfact> 0.10615123E+04</totfact>
</mgrwt>
</event>
<event>
 4    1  0.6122885E-004  0.2032562E+03  0.7818608E-02  0.1147020E+00
          2   -1    0    0  501    0  0.00000000000E+00  0.00000000000E+00  0.25003322611E+04  0.25003322611E+04  0.25500000000E-02 0.  1.
         -2   -1    0    0    0  501 -0.00000000000E+00 -0.00000000000E+00 -0.41307587925E+01  0.41307595796E+01  0.25500000000E-02 0. -1.
    5000001    1    1    2    0    0 -0.54443720142E+02 -0.33862481840E+02  0.14573827058E+04  0.14608231027E+04  0.77000000000E+02 0.  0.
   -5000001    1    1    2    0    0  0.54443720142E+02  0.33862481840E+02  0.10388187966E+04  0.10436399180E+04  0.77000000000E+02 0.  0.
<mgrwt>
<rscale>  0 0.20325620E+03</rscale>
<asrwt>0</asrwt>
<pdfrwt beam="1">  1        2 0.38466603E+00 0.20325620E+03</pdfrwt>
<pdfrwt beam="2">  1       -2 0.63550220E-03 0.20325620E+03</pdfrwt>
<totfact> 0.16377929E+04</totfact>
</mgrwt>
</event>
<event>
 4    1  0.6122885E-004  0.2791124E+03  0.7818608E-02  0.1096175E+00
         -2   -1    0    0    0  501 -0.00000000000E+00  0.00000000000E+00  0.70831531503E+02  0.70831531549E+02  0.25500000000E-02 0. -1.
          2   -1    0    0  501    0  0.00000000000E+00 -0.00000000000E+00 -0.27496133709E+03  0.27496133710E+03  0.25500000000E-02 0.  1.
    5000001    1    1    2    0    0 -0.38302118699E+02 -0.10988957228E+03 -0.10459245312E+03  0.17438850777E+03  0.77000000000E+02 0.  0.
   -5000001    1    1    2    0    0  0.38302118699E+02  0.10988957228E+03 -0.99537352466E+02  0.17140436088E+03  0.77000000000E+02 0.  0.
<mgrwt>
<rscale>  0 0.27911240E+03</rscale>
<asrwt>0</asrwt>
<pdfrwt beam="1">  1        2 0.42301743E-01 0.27911240E+03</pdfrwt>
<pdfrwt beam="2">  1       -2 0.10897159E-01 0.27911240E+03</pdfrwt>
<totfact> 0.69022134E+03</totfact>
</mgrwt>
</event>
<event>
 4    1  0.6122885E-004  0.1876571E+03  0.7818608E-02  0.1160592E+00
         -2   -1    0    0    0  501 -0.00000000000E+00  0.00000000000E+00  0.30977578439E+02  0.30977578544E+02  0.25500000000E-02 0. -1.
          2   -1    0    0  501    0  0.00000000000E+00 -0.00000000000E+00 -0.28419908822E+03  0.28419908823E+03  0.25500000000E-02 0.  1.
    5000001    1    1    2    0    0 -0.16311780436E+02  0.49663550199E+02 -0.10657867393E+03  0.14149401449E+03  0.77000000000E+02 0.  0.
   -5000001    1    1    2    0    0  0.16311780436E+02 -0.49663550199E+02 -0.14664283585E+03  0.17368265229E+03  0.77000000000E+02 0.  0.
<mgrwt>
<rscale>  0 0.18765713E+03</rscale>
<asrwt>0</asrwt>
<pdfrwt beam="1">  1        2 0.43722935E-01 0.18765713E+03</pdfrwt>
<pdfrwt beam="2">  1       -2 0.47657815E-02 0.18765713E+03</pdfrwt>
<totfact> 0.23451382E+04</totfact>
</mgrwt>
</event>
<event>
 4    1  0.6122885E-004  0.2267024E+03  0.7818608E-02  0.1128983E+00
         -2   -1    0    0    0  501 -0.00000000000E+00  0.00000000000E+00  0.71910936686E+01  0.71910941207E+01  0.25500000000E-02 0. -1.
          2   -1    0    0  501    0  0.00000000000E+00 -0.00000000000E+00 -0.17867230083E+04  0.17867230083E+04  0.25500000000E-02 0.  1.
    5000001    1    1    2    0    0  0.56122297939E+02  0.42833247292E+02 -0.54167196105E+03  0.55165379794E+03  0.77000000000E+02 0.  0.
   -5000001    1    1    2    0    0 -0.56122297939E+02 -0.42833247292E+02 -0.12378599536E+04  0.12422603045E+04  0.77000000000E+02 0.  0.
<mgrwt>
<rscale>  0 0.22670239E+03</rscale>
<asrwt>0</asrwt>
<pdfrwt beam="1">  1        2 0.27488011E+00 0.22670239E+03</pdfrwt>
<pdfrwt beam="2">  1       -2 0.11063236E-02 0.22670239E+03</pdfrwt>
<totfact> 0.17581723E+04</totfact>
</mgrwt>
</event>
<event>
 4    1  0.6122885E-004  0.2561364E+03  0.7818608E-02  0.1109487E+00
         -2   -1    0    0    0  501 -0.00000000000E+00  0.00000000000E+00  0.62856018075E+01  0.62856023247E+01  0.25500000000E-02 0. -1.
          2   -1    0    0  501    0  0.00000000000E+00 -0.00000000000E+00 -0.26093704686E+04  0.26093704686E+04  0.25500000000E-02 0.  1.
    5000001    1    1    2    0    0  0.20015702493E+02 -0.97158047399E+02 -0.10447871650E+04  0.10523067683E+04  0.77000000000E+02 0.  0.
   -5000001    1    1    2    0    0 -0.20015702493E+02  0.97158047399E+02 -0.15582977017E+04  0.15633493025E+04  0.77000000000E+02 0.  0.
<mgrwt>
<rscale>  0 0.25613640E+03</rscale>
<asrwt>0</asrwt>
<pdfrwt beam="1">  1        2 0.40144075E+00 0.25613640E+03</pdfrwt>
<pdfrwt beam="2">  1       -2 0.96701779E-03 0.25613640E+03</pdfrwt>
<totfact> 0.78125919E+03</totfact>
</mgrwt>
</event>
<event>
 4    1  0.6122885E-004  0.1728538E+03  0.7818608E-02  0.1174904E+00
          2   -1    0    0  501    0  0.00000000000E+00  0.00000000000E+00  0.15694315585E+03  0.15694315588E+03  0.25500000000E-02 0.  1.
         -2   -1    0    0    0  501 -0.00000000000E+00 -0.00000000000E+00 -0.47594348648E+02  0.47594348717E+02  0.25500000000E-02 0. -1.
    5000001    1    1    2    0    0  0.38655815240E+02  0.16168827545E+01  0.62498581997E+02  0.10645167501E+03  0.77000000000E+02 0.  0.
   -5000001    1    1    2    0    0 -0.38655815240E+02 -0.16168827545E+01  0.46850225209E+02  0.98085829577E+02  0.77000000000E+02 0.  0.
<mgrwt>
<rscale>  0 0.17285378E+03</rscale>
<asrwt>0</asrwt>
<pdfrwt beam="1">  1        2 0.24145101E-01 0.17285378E+03</pdfrwt>
<pdfrwt beam="2">  1       -2 0.73222076E-02 0.17285378E+03</pdfrwt>
<totfact> 0.23063524E+04</totfact>
</mgrwt>
</event>
<event>
 4    1  0.6122885E-004  0.1920472E+03  0.7818608E-02  0.1156628E+00
          2   -1    0    0  501    0  0.00000000000E+00  0.00000000000E+00  0.56890769248E+03  0.56890769249E+03  0.25500000000E-02 0.  1.
         -2   -1    0    0    0  501 -0.00000000000E+00 -0.00000000000E+00 -0.16207422598E+02  0.16207422799E+02  0.25500000000E-02 0. -1.
    5000001    1    1    2    0    0  0.37130836997E+02  0.41186890618E+02  0.23152405824E+03  0.25021480484E+03  0.77000000000E+02 0.  0.
   -5000001    1    1    2    0    0 -0.37130836997E+02 -0.41186890618E+02  0.32117621164E+03  0.33490031045E+03  0.77000000000E+02 0.  0.
<mgrwt>
<rscale>  0 0.19204716E+03</rscale>
<asrwt>0</asrwt>
<pdfrwt beam="1">  1        2 0.87524265E-01 0.19204716E+03</pdfrwt>
<pdfrwt beam="2">  1       -2 0.24934495E-02 0.19204716E+03</pdfrwt>
<totfact> 0.28954015E+04</totfact>
</mgrwt>
</event>
<event>
 4    1  0.6122885E-004  0.1158134E+04  0.7818608E-02  0.9150312E-01
         -2   -1    0    0    0  501 -0.00000000000E+00  0.00000000000E+00  0.16067999345E+03  0.16067999347E+03  0.25500000000E-02 0. -1.
          2   -1    0    0  501    0  0.00000000000E+00 -0.00000000000E+00 -0.20868720691E+04  0.20868720691E+04  0.25500000000E-02 0.  1.
    5000001    1    1    2    0    0 -0.90931263862E+02 -0.56499997706E+03 -0.10476013561E+04  0.11961985914E+04  0.77000000000E+02 0.  0.
   -5000001    1    1    2    0    0  0.90931263862E+02  0.56499997706E+03 -0.87859071963E+03  0.10513534712E+04  0.77000000000E+02 0.  0.
<mgrwt>
<rscale>  0 0.11581340E+04</rscale>
<asrwt>0</asrwt>
<pdfrwt beam="1">  1        2 0.32105722E+00 0.11581340E+04</pdfrwt>
<pdfrwt beam="2">  1       -2 0.24720001E-01 0.11581340E+04</pdfrwt>
<totfact> 0.86779168E+01</totfact>
</mgrwt>
</event>
<event>
 4    1  0.6122885E-004  0.2515296E+03  0.7818608E-02  0.1112342E+00
         -2   -1    0    0    0  501 -0.00000000000E+00  0.00000000000E+00  0.20551460571E+02  0.20551460729E+02  0.25500000000E-02 0. -1.
          2   -1    0    0  501    0  0.00000000000E+00 -0.00000000000E+00 -0.76961873087E+03  0.76961873088E+03  0.25500000000E-02 0.  1.
    5000001    1    1    2    0    0  0.27464208545E+02  0.82225619160E+02 -0.52754735510E+03  0.54013937745E+03  0.77000000000E+02 0.  0.
   -5000001    1    1    2    0    0 -0.27464208545E+02 -0.82225619160E+02 -0.22151991520E+03  0.25003081416E+03  0.77000000000E+02 0.  0.
<mgrwt>
<rscale>  0 0.25152963E+03</rscale>
<asrwt>0</asrwt>
<pdfrwt beam="1">  1        2 0.11840286E+00 0.25152963E+03</pdfrwt>
<pdfrwt beam="2">  1       -2 0.31617638E-02 0.25152963E+03</pdfrwt>
<totfact> 0.14466862E+04</totfact>
</mgrwt>
</event>
<event>
 4    1  0.6122885E-004  0.1906561E+03  0.7818608E-02  0.1157871E+00
          2   -1    0    0  501    0  0.00000000000E+00  0.00000000000E+00  0.11480336113E+03  0.11480336116E+03  0.25500000000E-02 0.  1.
         -2   -1    0    0    0  501 -0.00000000000E+00 -0.00000000000E+00 -0.79156581712E+02  0.79156581753E+02  0.25500000000E-02 0. -1.
    5000001    1    1    2    0    0  0.44664660872E+02 -0.23641076702E+02  0.42838280533E+02  0.10157731399E+03  0.77000000000E+02 0.  0.
   -5000001    1    1    2    0    0 -0.44664660872E+02  0.23641076702E+02 -0.71915011136E+01  0.92382628923E+02  0.77000000000E+02 0.  0.
<mgrwt>
<rscale>  0 0.19065615E+03</rscale>
<asrwt>0</asrwt>
<pdfrwt beam="1">  1        2 0.17662055E-01 0.19065615E+03</pdfrwt>
<pdfrwt beam="2">  1       -2 0.12177936E-01 0.19065615E+03</pdfrwt>
<totfact> 0.14886796E+04</totfact>
</mgrwt>
</event>
<event>
 4    1  0.6122885E-004  0.3115440E+03  0.7818608E-02  0.1079608E+00
         -2   -1    0    0    0  501 -0.00000000000E+00  0.00000000000E+00  0.95709367579E+02  0.95709367613E+02  0.25500000000E-02 0. -1.
          2   -1    0    0  501    0  0.00000000000E+00 -0.00000000000E+00 -0.25352713656E+03  0.25352713657E+03  0.25500000000E-02 0.  1.
    5000001    1    1    2    0    0 -0.69893053401E+02 -0.42913881878E+02 -0.19969106428E+03  0.22919895576E+03  0.77000000000E+02 0.  0.
   -5000001    1    1    2    0    0  0.69893053401E+02  0.42913881878E+02  0.41873295298E+02  0.12003754842E+03  0.77000000000E+02 0.  0.
<mgrwt>
<rscale>  0 0.31154404E+03</rscale>
<asrwt>0</asrwt>
<pdfrwt beam="1">  1        2 0.39004175E-01 0.31154404E+03</pdfrwt>
<pdfrwt beam="2">  1       -2 0.14724518E-01 0.31154404E+03</pdfrwt>
<totfact> 0.46332114E+03</totfact>
</mgrwt>
</event>
<event>
 4    1  0.6122885E-004  0.1019058E+04  0.7818608E-02  0.9287885E-01
          2   -1    0    0  501    0  0.00000000000E+00  0.00000000000E+00  0.16881467935E+04  0.16881467935E+04  0.25500000000E-02 0.  1.
         -2   -1    0    0    0  501 -0.00000000000E+00 -0.00000000000E+00 -0.15378996681E+03  0.15378996683E+03  0.25500000000E-02 0. -1.
    5000001    1    1    2    0    0 -0.30092223855E+03 -0.38790125286E+03  0.56372980180E+03  0.75149309049E+03  0.77000000000E+02 0.  0.
   -5000001    1    1    2    0    0  0.30092223855E+03  0.38790125286E+03  0.97062702487E+03  0.10904436698E+04  0.77000000000E+02 0.  0.
<mgrwt>
<rscale>  0 0.10190585E+04</rscale>
<asrwt>0</asrwt>
<pdfrwt beam="1">  1        2 0.25971488E+00 0.10190585E+04</pdfrwt>
<pdfrwt beam="2">  1       -2 0.23659996E-01 0.10190585E+04</pdfrwt>
<totfact> 0.15743207E+02</totfact>
</mgrwt>
</event>
<event>
 4    1  0.6122885E-004  0.1696911E+03  0.7818608E-02  0.1178170E+00
         -2   -1    0    0    0  501 -0.00000000000E+00  0.00000000000E+00  0.37132050101E+01  0.37132058857E+01  0.25500000000E-02 0. -1.
          2   -1    0    0  501    0  0.00000000000E+00 -0.00000000000E+00 -0.19386943010E+04  0.19386943010E+04  0.25500000000E-02 0.  1.
    5000001    1    1    2    0    0 -0.17959382044E+02  0.27600884336E+02 -0.81162079243E+03  0.81592993506E+03  0.77000000000E+02 0.  0.
   -5000001    1    1    2    0    0  0.17959382044E+02 -0.27600884336E+02 -0.11233603035E+04  0.11264775718E+04  0.77000000000E+02 0.  0.
<mgrwt>
<rscale>  0 0.16969113E+03</rscale>
<asrwt>0</asrwt>
<pdfrwt beam="1">  1        2 0.29825985E+00 0.16969113E+03</pdfrwt>
<pdfrwt beam="2">  1       -2 0.57126393E-03 0.16969113E+03</pdfrwt>
<totfact> 0.37400404E+04</totfact>
</mgrwt>
</event>
<event>
 4    1  0.6122885E-004  0.3179985E+03  0.7818608E-02  0.1076574E+00
         -2   -1    0    0    0  501 -0.00000000000E+00  0.00000000000E+00  0.22654537353E+02  0.22654537497E+02  0.25500000000E-02 0. -1.
          2   -1    0    0  501    0  0.00000000000E+00 -0.00000000000E+00 -0.11159250641E+04  0.11159250641E+04  0.25500000000E-02 0.  1.
    5000001    1    1    2    0    0 -0.94078397659E+01  0.50647949566E+02 -0.83965533490E+02  0.12503172821E+03  0.77000000000E+02 0.  0.
   -5000001    1    1    2    0    0  0.94078397659E+01 -0.50647949566E+02 -0.10093049932E+04  0.10135478734E+04  0.77000000000E+02 0.  0.
<mgrwt>
<rscale>  0 0.31799853E+03</rscale>
<asrwt>0</asrwt>
<pdfrwt beam="1">  1        2 0.17168074E+00 0.31799853E+03</pdfrwt>
<pdfrwt beam="2">  1       -2 0.34853143E-02 0.31799853E+03</pdfrwt>
<totfact> 0.75823614E+03</totfact>
</mgrwt>
</event>
<event>
 4    1  0.6122885E-004  0.1997131E+03  0.7818608E-02  0.1149981E+00
         -2   -1    0    0    0  501 -0.00000000000E+00  0.00000000000E+00  0.51095534627E+01  0.51095540990E+01  0.25500000000E-02 0. -1.
          2   -1    0    0  501    0  0.00000000000E+00 -0.00000000000E+00 -0.19515067629E+04  0.19515067629E+04  0.25500000000E-02 0.  1.
    5000001    1    1    2    0    0  0.42372712984E+02 -0.47400885723E+02 -0.97128906046E+03  0.97640858750E+03  0.77000000000E+02 0.  0.
   -5000001    1    1    2    0    0 -0.42372712984E+02  0.47400885723E+02 -0.97510814902E+03  0.98020772954E+03  0.77000000000E+02 0.  0.
<mgrwt>
<rscale>  0 0.19971308E+03</rscale>
<asrwt>0</asrwt>
<pdfrwt beam="1">  1        2 0.30023122E+00 0.19971308E+03</pdfrwt>
<pdfrwt beam="2">  1       -2 0.78608675E-03 0.19971308E+03</pdfrwt>
<totfact> 0.23516860E+04</totfact>
</mgrwt>
</event>
<event>
 4    1  0.6122885E-004  0.4543889E+03  0.7818608E-02  0.1026421E+00
          2   -1    0    0  501    0  0.00000000000E+00  0.00000000000E+00  0.30465369015E+04  0.30465369015E+04  0.25500000000E-02 0. -1.
         -2   -1    0    0    0  501 -0.00000000000E+00 -0.00000000000E+00 -0.16942945156E+02  0.16942945348E+02  0.25500000000E-02 0.  1.
    5000001    1    1    2    0    0  0.85427382279E+02  0.18110702182E+03  0.20189020986E+04  0.20302690153E+04  0.77000000000E+02 0.  0.
   -5000001    1    1    2    0    0 -0.85427382279E+02 -0.18110702182E+03  0.10106918577E+04  0.10332108315E+04  0.77000000000E+02 0.  0.
<mgrwt>
<rscale>  0 0.45438886E+03</rscale>
<asrwt>0</asrwt>
<pdfrwt beam="1">  1        2 0.46869745E+00 0.45438886E+03</pdfrwt>
<pdfrwt beam="2">  1       -2 0.26066100E-02 0.45438886E+03</pdfrwt>
<totfact> 0.99356707E+02</totfact>
</mgrwt>
</event>
<event>
 4    1  0.6122885E-004  0.2481642E+03  0.7818608E-02  0.1114470E+00
          2   -1    0    0  501    0  0.00000000000E+00  0.00000000000E+00  0.25013124379E+04  0.25013124379E+04  0.25500000000E-02 0.  1.
         -2   -1    0    0    0  501 -0.00000000000E+00 -0.00000000000E+00 -0.61553175320E+01  0.61553180602E+01  0.25500000000E-02 0. -1.
    5000001    1    1    2    0    0 -0.18375336251E+02 -0.86389409968E+02  0.16600657953E+04  0.16641959704E+04  0.77000000000E+02 0.  0.
   -5000001    1    1    2    0    0  0.18375336251E+02  0.86389409968E+02  0.83509132506E+03  0.84327178557E+03  0.77000000000E+02 0.  0.
<mgrwt>
<rscale>  0 0.24816424E+03</rscale>
<asrwt>0</asrwt>
<pdfrwt beam="1">  1        2 0.38481804E+00 0.24816424E+03</pdfrwt>
<pdfrwt beam="2">  1       -2 0.94697014E-03 0.24816424E+03</pdfrwt>
<totfact> 0.92343469E+03</totfact>
</mgrwt>
</event>
<event>
 4    1  0.6122885E-004  0.2237097E+03  0.7818608E-02  0.1131147E+00
          2   -1    0    0  501    0  0.00000000000E+00  0.00000000000E+00  0.27616848615E+03  0.27616848616E+03  0.25500000000E-02 0.  1.
         -2   -1    0    0    0  501 -0.00000000000E+00 -0.00000000000E+00 -0.45303894440E+02  0.45303894511E+02  0.25500000000E-02 0. -1.
    5000001    1    1    2    0    0 -0.96275319665E+01 -0.56648810560E+02  0.33123898863E+02  0.10162661947E+03  0.77000000000E+02 0.  0.
   -5000001    1    1    2    0    0  0.96275319665E+01  0.56648810560E+02  0.19774069284E+03  0.21984576120E+03  0.77000000000E+02 0.  0.
<mgrwt>
<rscale>  0 0.22370970E+03</rscale>
<asrwt>0</asrwt>
<pdfrwt beam="1">  1        2 0.42487459E-01 0.22370970E+03</pdfrwt>
<pdfrwt beam="2">  1       -2 0.69698299E-02 0.22370970E+03</pdfrwt>
<totfact> 0.13715838E+04</totfact>
</mgrwt>
</event>
<event>
 4    1  0.6122885E-004  0.2648371E+03  0.7818608E-02  0.1104271E+00
         -2   -1    0    0    0  501 -0.00000000000E+00  0.00000000000E+00  0.26927559443E+02  0.26927559564E+02  0.25500000000E-02 0. -1.
          2   -1    0    0  501    0  0.00000000000E+00 -0.00000000000E+00 -0.65117927339E+03  0.65117927340E+03  0.25500000000E-02 0.  1.
    5000001    1    1    2    0    0 -0.10049229891E+03 -0.22253956833E+02 -0.23068333634E+03  0.26407904574E+03  0.77000000000E+02 0.  0.
   -5000001    1    1    2    0    0  0.10049229891E+03  0.22253956833E+02 -0.39356837761E+03  0.41402778722E+03  0.77000000000E+02 0.  0.
<mgrwt>
<rscale>  0 0.26483707E+03</rscale>
<asrwt>0</asrwt>
<pdfrwt beam="1">  1        2 0.10018141E+00 0.26483707E+03</pdfrwt>
<pdfrwt beam="2">  1       -2 0.41427019E-02 0.26483707E+03</pdfrwt>
<totfact> 0.11856853E+04</totfact>
</mgrwt>
</event>
<event>
 4    1  0.6122885E-004  0.1694821E+03  0.7818608E-02  0.1178389E+00
          2   -1    0    0  501    0  0.00000000000E+00  0.00000000000E+00  0.83788151359E+02  0.83788151398E+02  0.25500000000E-02 0.  1.
         -2   -1    0    0    0  501 -0.00000000000E+00 -0.00000000000E+00 -0.85704814247E+02  0.85704814285E+02  0.25500000000E-02 0. -1.
    5000001    1    1    2    0    0 -0.86303927472E+01 -0.31555052613E+02 -0.14444108645E+02  0.84898982909E+02  0.77000000000E+02 0.  0.
   -5000001    1    1    2    0    0  0.86303927472E+01  0.31555052613E+02  0.12527445757E+02  0.84593982774E+02  0.77000000000E+02 0.  0.
<mgrwt>
<rscale>  0 0.16948213E+03</rscale>
<asrwt>0</asrwt>
<pdfrwt beam="1">  1        2 0.12890485E-01 0.16948213E+03</pdfrwt>
<pdfrwt beam="2">  1       -2 0.13185356E-01 0.16948213E+03</pdfrwt>
<totfact> 0.18787233E+04</totfact>
</mgrwt>
</event>
<event>
 4    1  0.6122885E-004  0.4111525E+03  0.7818608E-02  0.1039985E+00
         -2   -1    0    0    0  501 -0.00000000000E+00  0.00000000000E+00  0.44968942067E+03  0.44968942068E+03  0.25500000000E-02 0. -1.
          2   -1    0    0  501    0  0.00000000000E+00 -0.00000000000E+00 -0.93979511554E+02  0.93979511589E+02  0.25500000000E-02 0.  1.
    5000001    1    1    2    0    0 -0.65000184293E+01  0.17467693039E+03  0.27837023355E+03  0.33759927010E+03  0.77000000000E+02 0.  0.
   -5000001    1    1    2    0    0  0.65000184293E+01 -0.17467693039E+03  0.77339675574E+02  0.20606966217E+03  0.77000000000E+02 0.  0.
<mgrwt>
<rscale>  0 0.41115249E+03</rscale>
<asrwt>0</asrwt>
<pdfrwt beam="1">  1        2 0.14458386E-01 0.41115249E+03</pdfrwt>
<pdfrwt beam="2">  1       -2 0.69182989E-01 0.41115249E+03</pdfrwt>
<totfact> 0.80224573E+02</totfact>
</mgrwt>
</event>
<event>
 4    1  0.6122885E-004  0.1615450E+03  0.7818608E-02  0.1186963E+00
         -2   -1    0    0    0  501 -0.00000000000E+00  0.00000000000E+00  0.25839808873E+01  0.25839821456E+01  0.25500000000E-02 0. -1.
          2   -1    0    0  501    0  0.00000000000E+00 -0.00000000000E+00 -0.25248612670E+04  0.25248612670E+04  0.25500000000E-02 0.  1.
    5000001    1    1    2    0    0 -0.91778328305E+01  0.21889829872E+02 -0.13493623587E+04  0.13517659458E+04  0.77000000000E+02 0.  0.
   -5000001    1    1    2    0    0  0.91778328305E+01 -0.21889829872E+02 -0.11729149275E+04  0.11756793034E+04  0.77000000000E+02 0.  0.
<mgrwt>
<rscale>  0 0.16154498E+03</rscale>
<asrwt>0</asrwt>
<pdfrwt beam="1">  1        2 0.38843822E+00 0.16154498E+03</pdfrwt>
<pdfrwt beam="2">  1       -2 0.39753764E-03 0.16154498E+03</pdfrwt>
<totfact> 0.30762961E+04</totfact>
</mgrwt>
</event>
<event>
 4    1  0.6122885E-004  0.2766463E+03  0.7818608E-02  0.1097535E+00
         -2   -1    0    0    0  501 -0.00000000000E+00  0.00000000000E+00  0.98639295526E+01  0.98639298823E+01  0.25500000000E-02 0. -1.
          2   -1    0    0  501    0  0.00000000000E+00 -0.00000000000E+00 -0.19397235436E+04  0.19397235436E+04  0.25500000000E-02 0.  1.
    5000001    1    1    2    0    0 -0.48757397702E+02  0.32913976932E+02 -0.26929805031E+03  0.28620107199E+03  0.77000000000E+02 0.  0.
   -5000001    1    1    2    0    0  0.48757397702E+02 -0.32913976932E+02 -0.16605615638E+04  0.16633864015E+04  0.77000000000E+02 0.  0.
<mgrwt>
<rscale>  0 0.27664632E+03</rscale>
<asrwt>0</asrwt>
<pdfrwt beam="1">  1        2 0.29841870E+00 0.27664632E+03</pdfrwt>
<pdfrwt beam="2">  1       -2 0.15175292E-02 0.27664632E+03</pdfrwt>
<totfact> 0.92707866E+03</totfact>
</mgrwt>
</event>
<event>
 4    1  0.6122885E-004  0.2507187E+03  0.7818608E-02  0.1112851E+00
          2   -1    0    0  501    0  0.00000000000E+00  0.00000000000E+00  0.15699725097E+04  0.15699725097E+04  0.25500000000E-02 0.  1.
         -2   -1    0    0    0  501 -0.00000000000E+00 -0.00000000000E+00 -0.10009706560E+02  0.10009706885E+02  0.25500000000E-02 0. -1.
    5000001    1    1    2    0    0  0.64647089759E+01  0.98712264963E+02  0.78153363017E+03  0.79152366914E+03  0.77000000000E+02 0.  0.
   -5000001    1    1    2    0    0 -0.64647089759E+01 -0.98712264963E+02  0.77842917292E+03  0.78845854740E+03  0.77000000000E+02 0.  0.
<mgrwt>
<rscale>  0 0.25071868E+03</rscale>
<asrwt>0</asrwt>
<pdfrwt beam="1">  1        2 0.24153411E+00 0.25071868E+03</pdfrwt>
<pdfrwt beam="2">  1       -2 0.15399556E-02 0.25071868E+03</pdfrwt>
<totfact> 0.14168852E+04</totfact>
</mgrwt>
</event>
<event>
 4    1  0.6122885E-004  0.8189315E+03  0.7818608E-02  0.9533012E-01
          2   -1    0    0  501    0  0.00000000000E+00  0.00000000000E+00  0.10821749756E+04  0.10821749756E+04  0.25500000000E-02 0.  1.
         -2   -1    0    0    0  501 -0.00000000000E+00 -0.00000000000E+00 -0.15493077606E+03  0.15493077608E+03  0.25500000000E-02 0. -1.
    5000001    1    1    2    0    0  0.12855175160E+03  0.34465402513E+03  0.21807433090E+03  0.43450818597E+03  0.77000000000E+02 0.  0.
   -5000001    1    1    2    0    0 -0.12855175160E+03 -0.34465402513E+03  0.70916986862E+03  0.80259756568E+03  0.77000000000E+02 0.  0.
<mgrwt>
<rscale>  0 0.81893152E+03</rscale>
<asrwt>0</asrwt>
<pdfrwt beam="1">  1        2 0.16648846E+00 0.81893152E+03</pdfrwt>
<pdfrwt beam="2">  1       -2 0.23835504E-01 0.81893152E+03</pdfrwt>
<totfact> 0.35069685E+02</totfact>
</mgrwt>
</event>
<event>
 4    1  0.6122885E-004  0.2226625E+03  0.7818608E-02  0.1131913E+00
         -2   -1    0    0    0  501 -0.00000000000E+00  0.00000000000E+00  0.41147996675E+03  0.41147996676E+03  0.25500000000E-02 0. -1.
          2   -1    0    0  501    0  0.00000000000E+00 -0.00000000000E+00 -0.30122112081E+02  0.30122112189E+02  0.25500000000E-02 0.  1.
    5000001    1    1    2    0    0 -0.16914609267E+02  0.61650460762E+02  0.93949284046E+02  0.13726744440E+03  0.77000000000E+02 0.  0.
   -5000001    1    1    2    0    0  0.16914609267E+02 -0.61650460762E+02  0.28740857063E+03  0.30433463455E+03  0.77000000000E+02 0.  0.
<mgrwt>
<rscale>  0 0.22266249E+03</rscale>
<asrwt>0</asrwt>
<pdfrwt beam="1">  1        2 0.46341713E-02 0.22266249E+03</pdfrwt>
<pdfrwt beam="2">  1       -2 0.63304608E-01 0.22266249E+03</pdfrwt>
<totfact> 0.40473160E+03</totfact>
</mgrwt>
</event>
<event>
 4    1  0.6122885E-004  0.2684525E+03  0.7818608E-02  0.1102169E+00
         -2   -1    0    0    0  501 -0.00000000000E+00  0.00000000000E+00  0.26306248333E+02  0.26306248456E+02  0.25500000000E-02 0. -1.
          2   -1    0    0  501    0  0.00000000000E+00 -0.00000000000E+00 -0.68488259838E+03  0.68488259839E+03  0.25500000000E-02 0.  1.
    5000001    1    1    2    0    0 -0.24196344470E+02 -0.61043893037E+02 -0.56289846211E+03  0.57192263341E+03  0.77000000000E+02 0.  0.
   -5000001    1    1    2    0    0  0.24196344470E+02  0.61043893037E+02 -0.95677887939E+02  0.13926621343E+03  0.77000000000E+02 0.  0.
<mgrwt>
<rscale>  0 0.26845254E+03</rscale>
<asrwt>0</asrwt>
<pdfrwt beam="1">  1        2 0.10536654E+00 0.26845254E+03</pdfrwt>
<pdfrwt beam="2">  1       -2 0.40471157E-02 0.26845254E+03</pdfrwt>
<totfact> 0.11568312E+04</totfact>
</mgrwt>
</event>
<event>
 4    1  0.6122885E-004  0.2388215E+03  0.7818608E-02  0.1120580E+00
          2   -1    0    0  501    0  0.00000000000E+00  0.00000000000E+00  0.36303463979E+03  0.36303463980E+03  0.25500000000E-02 0.  1.
         -2   -1    0    0    0  501 -0.00000000000E+00 -0.00000000000E+00 -0.39277038303E+02  0.39277038386E+02  0.25500000000E-02 0. -1.
    5000001    1    1    2    0    0  0.34954697124E+02  0.81997658342E+02  0.19491007717E+03  0.22773753535E+03  0.77000000000E+02 0.  0.
   -5000001    1    1    2    0    0 -0.34954697124E+02 -0.81997658342E+02  0.12884752432E+03  0.17457414284E+03  0.77000000000E+02 0.  0.
<mgrwt>
<rscale>  0 0.23882149E+03</rscale>
<asrwt>0</asrwt>
<pdfrwt beam="1">  1        2 0.55851482E-01 0.23882149E+03</pdfrwt>
<pdfrwt beam="2">  1       -2 0.60426215E-02 0.23882149E+03</pdfrwt>
<totfact> 0.12784236E+04</totfact>
</mgrwt>
</event>
<event>
 4    1  0.6122885E-004  0.1934914E+03  0.7818608E-02  0.1155349E+00
          2   -1    0    0  501    0  0.00000000000E+00  0.00000000000E+00  0.12865464917E+02  0.12865465170E+02  0.25500000000E-02 0.  1.
         -2   -1    0    0    0  501 -0.00000000000E+00 -0.00000000000E+00 -0.72750847213E+03  0.72750847213E+03  0.25500000000E-02 0. -1.
    5000001    1    1    2    0    0 -0.28088621679E+02  0.39200111754E+02 -0.48452327756E+03  0.49296797658E+03  0.77000000000E+02 0.  0.
   -5000001    1    1    2    0    0  0.28088621679E+02 -0.39200111754E+02 -0.23011972965E+03  0.24740596073E+03  0.77000000000E+02 0.  0.
<mgrwt>
<rscale>  0 0.19349144E+03</rscale>
<asrwt>0</asrwt>
<pdfrwt beam="1">  1        2 0.19793029E-02 0.19349144E+03</pdfrwt>
<pdfrwt beam="2">  1       -2 0.11192435E+00 0.19349144E+03</pdfrwt>
<totfact> 0.35662570E+03</totfact>
</mgrwt>
</event>
<event>
 4    1  0.6122885E-004  0.2516701E+03  0.7818608E-02  0.1112254E+00
          2   -1    0    0  501    0  0.00000000000E+00  0.00000000000E+00  0.51433326930E+03  0.51433326930E+03  0.25500000000E-02 0.  1.
         -2   -1    0    0    0  501 -0.00000000000E+00 -0.00000000000E+00 -0.30786385408E+02  0.30786385514E+02  0.25500000000E-02 0. -1.
    5000001    1    1    2    0    0 -0.68704218040E+02  0.71252440269E+02  0.26431268128E+03  0.29255319740E+03  0.77000000000E+02 0.  0.
   -5000001    1    1    2    0    0  0.68704218040E+02 -0.71252440269E+02  0.21923420261E+03  0.25256645742E+03  0.77000000000E+02 0.  0.
<mgrwt>
<rscale>  0 0.25167012E+03</rscale>
<asrwt>0</asrwt>
<pdfrwt beam="1">  1        2 0.79128197E-01 0.25167012E+03</pdfrwt>
<pdfrwt beam="2">  1       -2 0.47363669E-02 0.25167012E+03</pdfrwt>
<totfact> 0.12680374E+04</totfact>
</mgrwt>
</event>
<event>
 4    1  0.6122885E-004  0.3889678E+03  0.7818608E-02  0.1047668E+00
          2   -1    0    0  501    0  0.00000000000E+00  0.00000000000E+00  0.23015654118E+04  0.23015654118E+04  0.25500000000E-02 0.  1.
         -2   -1    0    0    0  501 -0.00000000000E+00 -0.00000000000E+00 -0.16434024537E+02  0.16434024735E+02  0.25500000000E-02 0. -1.
    5000001    1    1    2    0    0  0.16739752091E+03  0.42965753160E+02  0.87426226267E+03  0.89450069306E+03  0.77000000000E+02 0.  0.
   -5000001    1    1    2    0    0 -0.16739752091E+03 -0.42965753160E+02  0.14108691246E+04  0.14234987434E+04  0.77000000000E+02 0.  0.
<mgrwt>
<rscale>  0 0.38896778E+03</rscale>
<asrwt>0</asrwt>
<pdfrwt beam="1">  1        2 0.35408700E+00 0.38896778E+03</pdfrwt>
<pdfrwt beam="2">  1       -2 0.25283114E-02 0.38896778E+03</pdfrwt>
<totfact> 0.27884900E+03</totfact>
</mgrwt>
</event>
<event>
 4    1  0.6122885E-004  0.6075955E+03  0.7818608E-02  0.9889772E-01
         -2   -1    0    0    0  501 -0.00000000000E+00  0.00000000000E+00  0.35293233059E+02  0.35293233151E+02  0.25500000000E-02 0. -1.
          2   -1    0    0  501    0  0.00000000000E+00 -0.00000000000E+00 -0.26150362498E+04  0.26150362498E+04  0.25500000000E-02 0.  1.
    5000001    1    1    2    0    0 -0.74082519139E+02  0.27942274807E+03 -0.15206368684E+04  0.15497841067E+04  0.77000000000E+02 0.  0.
   -5000001    1    1    2    0    0  0.74082519139E+02 -0.27942274807E+03 -0.10591061483E+04  0.11005453763E+04  0.77000000000E+02 0.  0.
<mgrwt>
<rscale>  0 0.60759554E+03</rscale>
<asrwt>0</asrwt>
<pdfrwt beam="1">  1        2 0.40231312E+00 0.60759554E+03</pdfrwt>
<pdfrwt beam="2">  1       -2 0.54297302E-02 0.60759554E+03</pdfrwt>
<totfact> 0.57122170E+02</totfact>
</mgrwt>
</event>
<event>
 4    1  0.6122885E-004  0.3835521E+03  0.7818608E-02  0.1049629E+00
         -2   -1    0    0    0  501 -0.00000000000E+00  0.00000000000E+00  0.47143813362E+02  0.47143813431E+02  0.25500000000E-02 0. -1.
          2   -1    0    0  501    0  0.00000000000E+00 -0.00000000000E+00 -0.78012479319E+03  0.78012479320E+03  0.25500000000E-02 0.  1.
    5000001    1    1    2    0    0  0.60584495534E+02 -0.16176445835E+03 -0.29791599278E+03  0.35287555858E+03  0.77000000000E+02 0.  0.
   -5000001    1    1    2    0    0 -0.60584495534E+02  0.16176445835E+03 -0.43506498705E+03  0.47439304805E+03  0.77000000000E+02 0.  0.
<mgrwt>
<rscale>  0 0.38355212E+03</rscale>
<asrwt>0</asrwt>
<pdfrwt beam="1">  1        2 0.12001919E+00 0.38355212E+03</pdfrwt>
<pdfrwt beam="2">  1       -2 0.72528949E-02 0.38355212E+03</pdfrwt>
<totfact> 0.40598513E+03</totfact>
</mgrwt>
</event>
<event>
 4    1  0.6122885E-004  0.2520718E+03  0.7818608E-02  0.1112002E+00
          2   -1    0    0  501    0  0.00000000000E+00  0.00000000000E+00  0.65301270486E+03  0.65301270486E+03  0.25500000000E-02 0.  1.
         -2   -1    0    0    0  501 -0.00000000000E+00 -0.00000000000E+00 -0.24325785987E+02  0.24325786121E+02  0.25500000000E-02 0. -1.
    5000001    1    1    2    0    0  0.91120142607E+02  0.20631523221E+02  0.40848765086E+03  0.42605128922E+03  0.77000000000E+02 0.  0.
   -5000001    1    1    2    0    0 -0.91120142607E+02 -0.20631523221E+02  0.22019926801E+03  0.25128720177E+03  0.77000000000E+02 0.  0.
<mgrwt>
<rscale>  0 0.25207179E+03</rscale>
<asrwt>0</asrwt>
<pdfrwt beam="1">  1        2 0.10046350E+00 0.25207179E+03</pdfrwt>
<pdfrwt beam="2">  1       -2 0.37424283E-02 0.25207179E+03</pdfrwt>
<totfact> 0.13736121E+04</totfact>
</mgrwt>
</event>
<event>
 4    1  0.6122885E-004  0.2402172E+03  0.7818608E-02  0.1119648E+00
         -2   -1    0    0    0  501 -0.00000000000E+00  0.00000000000E+00  0.17295123550E+02  0.17295123738E+02  0.25500000000E-02 0. -1.
          2   -1    0    0  501    0  0.00000000000E+00 -0.00000000000E+00 -0.83411252159E+03  0.83411252160E+03  0.25500000000E-02 0.  1.
    5000001    1    1    2    0    0 -0.88563906547E+02 -0.12768384784E+02 -0.32991316779E+03  0.35039733943E+03  0.77000000000E+02 0.  0.
   -5000001    1    1    2    0    0  0.88563906547E+02  0.12768384784E+02 -0.48690423025E+03  0.50101030591E+03  0.77000000000E+02 0.  0.
<mgrwt>
<rscale>  0 0.24021723E+03</rscale>
<asrwt>0</asrwt>
<pdfrwt beam="1">  1        2 0.12832497E+00 0.24021723E+03</pdfrwt>
<pdfrwt beam="2">  1       -2 0.26607889E-02 0.24021723E+03</pdfrwt>
<totfact> 0.16835902E+04</totfact>
</mgrwt>
</event>
<event>
 4    1  0.6122885E-004  0.2239396E+03  0.7818608E-02  0.1130980E+00
          2   -1    0    0  501    0  0.00000000000E+00  0.00000000000E+00  0.53034441041E+02  0.53034441103E+02  0.25500000000E-02 0.  1.
         -2   -1    0    0    0  501 -0.00000000000E+00 -0.00000000000E+00 -0.23639807182E+03  0.23639807183E+03  0.25500000000E-02 0. -1.
    5000001    1    1    2    0    0 -0.26776434730E+02  0.10583336620E+02  0.65726485539E+01  0.82469292345E+02  0.77000000000E+02 0.  0.
   -5000001    1    1    2    0    0  0.26776434730E+02 -0.10583336620E+02 -0.18993627933E+03  0.20696322059E+03  0.77000000000E+02 0.  0.
<mgrwt>
<rscale>  0 0.22393963E+03</rscale>
<asrwt>0</asrwt>
<pdfrwt beam="1">  1        2 0.81591449E-02 0.22393963E+03</pdfrwt>
<pdfrwt beam="2">  1       -2 0.36368934E-01 0.22393963E+03</pdfrwt>
<totfact> 0.58142037E+03</totfact>
</mgrwt>
</event>
<event>
 4    1  0.6122885E-004  0.2438050E+03  0.7818608E-02  0.1117284E+00
          2   -1    0    0  501    0  0.00000000000E+00  0.00000000000E+00  0.27457253887E+02  0.27457254006E+02  0.25500000000E-02 0.  1.
         -2   -1    0    0    0  501 -0.00000000000E+00 -0.00000000000E+00 -0.54121282297E+03  0.54121282298E+03  0.25500000000E-02 0. -1.
    5000001    1    1    2    0    0 -0.33461446291E+02  0.20816954814E+02 -0.56526044297E+02  0.10333057476E+03  0.77000000000E+02 0.  0.
   -5000001    1    1    2    0    0  0.33461446291E+02 -0.20816954814E+02 -0.45722952479E+03  0.46533950223E+03  0.77000000000E+02 0.  0.
<mgrwt>
<rscale>  0 0.24380499E+03</rscale>
<asrwt>0</asrwt>
<pdfrwt beam="1">  1        2 0.42241933E-02 0.24380499E+03</pdfrwt>
<pdfrwt beam="2">  1       -2 0.83263503E-01 0.24380499E+03</pdfrwt>
<totfact> 0.25463031E+03</totfact>
</mgrwt>
</event>
<event>
 4    1  0.6122885E-004  0.2245974E+03  0.7818608E-02  0.1130501E+00
         -2   -1    0    0    0  501 -0.00000000000E+00  0.00000000000E+00  0.17243072740E+02  0.17243072928E+02  0.25500000000E-02 0. -1.
          2   -1    0    0  501    0  0.00000000000E+00 -0.00000000000E+00 -0.73136591746E+03  0.73136591746E+03  0.25500000000E-02 0.  1.
    5000001    1    1    2    0    0  0.61680670834E+02 -0.47414236583E+02 -0.44068083215E+03  0.45407181240E+03  0.77000000000E+02 0.  0.
   -5000001    1    1    2    0    0 -0.61680670834E+02  0.47414236583E+02 -0.27344201256E+03  0.29453717799E+03  0.77000000000E+02 0.  0.
<mgrwt>
<rscale>  0 0.22459738E+03</rscale>
<asrwt>0</asrwt>
<pdfrwt beam="1">  1        2 0.11251781E+00 0.22459738E+03</pdfrwt>
<pdfrwt beam="2">  1       -2 0.26527810E-02 0.22459738E+03</pdfrwt>
<totfact> 0.19874354E+04</totfact>
</mgrwt>
</event>
<event>
 4    1  0.6122885E-004  0.2113865E+03  0.7818608E-02  0.1140473E+00
          2   -1    0    0  501    0  0.00000000000E+00  0.00000000000E+00  0.46677131643E+03  0.46677131643E+03  0.25500000000E-02 0.  1.
         -2   -1    0    0    0  501 -0.00000000000E+00 -0.00000000000E+00 -0.23932628889E+02  0.23932629025E+02  0.25500000000E-02 0. -1.
    5000001    1    1    2    0    0 -0.28896322481E+02  0.66236924608E+02  0.21110637123E+03  0.23604496947E+03  0.77000000000E+02 0.  0.
   -5000001    1    1    2    0    0  0.28896322481E+02 -0.66236924608E+02  0.23173231630E+03  0.25465897599E+03  0.77000000000E+02 0.  0.
<mgrwt>
<rscale>  0 0.21138652E+03</rscale>
<asrwt>0</asrwt>
<pdfrwt beam="1">  1        2 0.71810970E-01 0.21138652E+03</pdfrwt>
<pdfrwt beam="2">  1       -2 0.36819430E-02 0.21138652E+03</pdfrwt>
<totfact> 0.20415607E+04</totfact>
</mgrwt>
</event>
<event>
 4    1  0.6122885E-004  0.2223300E+03  0.7818608E-02  0.1132158E+00
          2   -1    0    0  501    0  0.00000000000E+00  0.00000000000E+00  0.25023078148E+02  0.25023078278E+02  0.25500000000E-02 0.  1.
         -2   -1    0    0    0  501 -0.00000000000E+00 -0.00000000000E+00 -0.49385054962E+03  0.49385054963E+03  0.25500000000E-02 0. -1.
    5000001    1    1    2    0    0 -0.35705006236E+02  0.63295520047E+02 -0.15535715372E+03  0.18800536040E+03  0.77000000000E+02 0.  0.
   -5000001    1    1    2    0    0  0.35705006236E+02 -0.63295520047E+02 -0.31347031776E+03  0.33086826751E+03  0.77000000000E+02 0.  0.
<mgrwt>
<rscale>  0 0.22233003E+03</rscale>
<asrwt>0</asrwt>
<pdfrwt beam="1">  1        2 0.38497047E-02 0.22233003E+03</pdfrwt>
<pdfrwt beam="2">  1       -2 0.75977000E-01 0.22233003E+03</pdfrwt>
<totfact> 0.35111408E+03</totfact>
</mgrwt>
</event>
<event>
 4    1  0.6122885E-004  0.1986308E+03  0.7818608E-02  0.1150899E+00
         -2   -1    0    0    0  501 -0.00000000000E+00  0.00000000000E+00  0.40135222668E+01  0.40135230769E+01  0.25500000000E-02 0. -1.
          2   -1    0    0  501    0  0.00000000000E+00 -0.00000000000E+00 -0.24575785913E+04  0.24575785913E+04  0.25500000000E-02 0.  1.
    5000001    1    1    2    0    0  0.19504080288E+00 -0.62586444576E+02 -0.12785457613E+04  0.12823904884E+04  0.77000000000E+02 0.  0.
   -5000001    1    1    2    0    0 -0.19504080288E+00  0.62586444576E+02 -0.11750193077E+04  0.11792016259E+04  0.77000000000E+02 0.  0.
<mgrwt>
<rscale>  0 0.19863079E+03</rscale>
<asrwt>0</asrwt>
<pdfrwt beam="1">  1        2 0.37808781E+00 0.19863079E+03</pdfrwt>
<pdfrwt beam="2">  1       -2 0.61746699E-03 0.19863079E+03</pdfrwt>
<totfact> 0.17989880E+04</totfact>
</mgrwt>
</event>
<event>
 4    1  0.6122885E-004  0.1776396E+03  0.7818608E-02  0.1170107E+00
         -2   -1    0    0    0  501 -0.00000000000E+00  0.00000000000E+00  0.34952681753E+02  0.34952681846E+02  0.25500000000E-02 0. -1.
          2   -1    0    0  501    0  0.00000000000E+00 -0.00000000000E+00 -0.22570398139E+03  0.22570398141E+03  0.25500000000E-02 0.  1.
    5000001    1    1    2    0    0  0.13821319483E+02  0.58175952663E+01 -0.15649651550E+03  0.17505722679E+03  0.77000000000E+02 0.  0.
   -5000001    1    1    2    0    0 -0.13821319483E+02 -0.58175952663E+01 -0.34254784142E+02  0.85599436467E+02  0.77000000000E+02 0.  0.
<mgrwt>
<rscale>  0 0.17763963E+03</rscale>
<asrwt>0</asrwt>
<pdfrwt beam="1">  1        2 0.34723688E-01 0.17763963E+03</pdfrwt>
<pdfrwt beam="2">  1       -2 0.53773358E-02 0.17763963E+03</pdfrwt>
<totfact> 0.24901912E+04</totfact>
</mgrwt>
</event>
<event>
 4    1  0.6122885E-004  0.4193104E+03  0.7818608E-02  0.1037291E+00
         -2   -1    0    0    0  501 -0.00000000000E+00  0.00000000000E+00  0.20765329275E+02  0.20765329431E+02  0.25500000000E-02 0. -1.
          2   -1    0    0  501    0  0.00000000000E+00 -0.00000000000E+00 -0.21167642737E+04  0.21167642737E+04  0.25500000000E-02 0.  1.
    5000001    1    1    2    0    0  0.74295689429E+02 -0.14352209773E+02 -0.19641797018E+04  0.19671443100E+04  0.77000000000E+02 0.  0.
   -5000001    1    1    2    0    0 -0.74295689429E+02  0.14352209773E+02 -0.13181924266E+03  0.17038529317E+03  0.77000000000E+02 0.  0.
<mgrwt>
<rscale>  0 0.41931042E+03</rscale>
<asrwt>0</asrwt>
<pdfrwt beam="1">  1        2 0.32565587E+00 0.41931042E+03</pdfrwt>
<pdfrwt beam="2">  1       -2 0.31946677E-02 0.41931042E+03</pdfrwt>
<totfact> 0.24648809E+03</totfact>
</mgrwt>
</event>
<event>
 4    1  0.6122885E-004  0.3301763E+03  0.7818608E-02  0.1071059E+00
          2   -1    0    0  501    0  0.00000000000E+00  0.00000000000E+00  0.23657956446E+04  0.23657956446E+04  0.25500000000E-02 0.  1.
         -2   -1    0    0    0  501 -0.00000000000E+00 -0.00000000000E+00 -0.11520054248E+02  0.11520054530E+02  0.25500000000E-02 0. -1.
    5000001    1    1    2    0    0  0.64548409206E+02 -0.40850814602E+02  0.20732533289E+04  0.20760885463E+04  0.77000000000E+02 0.  0.
   -5000001    1    1    2    0    0 -0.64548409206E+02  0.40850814602E+02  0.28102226143E+03  0.30122715283E+03  0.77000000000E+02 0.  0.
<mgrwt>
<rscale>  0 0.33017628E+03</rscale>
<asrwt>0</asrwt>
<pdfrwt beam="1">  1        2 0.36396854E+00 0.33017628E+03</pdfrwt>
<pdfrwt beam="2">  1       -2 0.17723161E-02 0.33017628E+03</pdfrwt>
<totfact> 0.43743823E+03</totfact>
</mgrwt>
</event>
<event>
 4    1  0.6122885E-004  0.4065619E+03  0.7818608E-02  0.1041531E+00
          2   -1    0    0  501    0  0.00000000000E+00  0.00000000000E+00  0.18210223350E+03  0.18210223352E+03  0.25500000000E-02 0.  1.
         -2   -1    0    0    0  501 -0.00000000000E+00 -0.00000000000E+00 -0.22692281293E+03  0.22692281294E+03  0.25500000000E-02 0. -1.
    5000001    1    1    2    0    0  0.33541579904E+02 -0.65840263898E+02  0.15165285468E+03  0.18543884778E+03  0.77000000000E+02 0.  0.
   -5000001    1    1    2    0    0 -0.33541579904E+02  0.65840263898E+02 -0.19647343410E+03  0.22358619868E+03  0.77000000000E+02 0.  0.
<mgrwt>
<rscale>  0 0.40656193E+03</rscale>
<asrwt>0</asrwt>
<pdfrwt beam="1">  1        2 0.28015728E-01 0.40656193E+03</pdfrwt>
<pdfrwt beam="2">  1       -2 0.34911202E-01 0.40656193E+03</pdfrwt>
<totfact> 0.14713468E+03</totfact>
</mgrwt>
</event>
<event>
 4    1  0.6122885E-004  0.1894470E+03  0.7818608E-02  0.1158961E+00
          2   -1    0    0  501    0  0.00000000000E+00  0.00000000000E+00  0.14557484234E+04  0.14557484234E+04  0.25500000000E-02 0.  1.
         -2   -1    0    0    0  501 -0.00000000000E+00 -0.00000000000E+00 -0.61635221320E+01  0.61635226595E+01  0.25500000000E-02 0. -1.
    5000001    1    1    2    0    0 -0.25966775046E+02 -0.41203745323E+02  0.52482388046E+03  0.53267356564E+03  0.77000000000E+02 0.  0.
   -5000001    1    1    2    0    0  0.25966775046E+02  0.41203745323E+02  0.92476102077E+03  0.92923838038E+03  0.77000000000E+02 0.  0.
<mgrwt>
<rscale>  0 0.18944696E+03</rscale>
<asrwt>0</asrwt>
<pdfrwt beam="1">  1        2 0.22396154E+00 0.18944696E+03</pdfrwt>
<pdfrwt beam="2">  1       -2 0.94823320E-03 0.18944696E+03</pdfrwt>
<totfact> 0.32484638E+04</totfact>
</mgrwt>
</event>
<event>
 4    1  0.6122885E-004  0.1920661E+03  0.7818608E-02  0.1156611E+00
          2   -1    0    0  501    0  0.00000000000E+00  0.00000000000E+00  0.26836846489E+04  0.26836846489E+04  0.25500000000E-02 0.  1.
         -2   -1    0    0    0  501 -0.00000000000E+00 -0.00000000000E+00 -0.34364490376E+01  0.34364499837E+01  0.25500000000E-02 0. -1.
    5000001    1    1    2    0    0 -0.57064614498E+02  0.27181552629E+01  0.12640221410E+04  0.12676532379E+04  0.77000000000E+02 0.  0.
   -5000001    1    1    2    0    0  0.57064614498E+02 -0.27181552629E+01  0.14162260589E+04  0.14194678610E+04  0.77000000000E+02 0.  0.
<mgrwt>
<rscale>  0 0.19206610E+03</rscale>
<asrwt>0</asrwt>
<pdfrwt beam="1">  1        2 0.41287771E+00 0.19206610E+03</pdfrwt>
<pdfrwt beam="2">  1       -2 0.52868051E-03 0.19206610E+03</pdfrwt>
<totfact> 0.16883573E+04</totfact>
</mgrwt>
</event>
<event>
 4    1  0.6122885E-004  0.1670045E+03  0.7818608E-02  0.1181008E+00
         -2   -1    0    0    0  501 -0.00000000000E+00  0.00000000000E+00  0.99083449530E+01  0.99083452811E+01  0.25500000000E-02 0. -1.
          2   -1    0    0  501    0  0.00000000000E+00 -0.00000000000E+00 -0.70371250849E+03  0.70371250849E+03  0.25500000000E-02 0.  1.
    5000001    1    1    2    0    0  0.30034040843E+02 -0.68841520272E+01 -0.38837309068E+03  0.39712981848E+03  0.77000000000E+02 0.  0.
   -5000001    1    1    2    0    0 -0.30034040843E+02  0.68841520272E+01 -0.30543107285E+03  0.31649103530E+03  0.77000000000E+02 0.  0.
<mgrwt>
<rscale>  0 0.16700451E+03</rscale>
<asrwt>0</asrwt>
<pdfrwt beam="1">  1        2 0.10826342E+00 0.16700451E+03</pdfrwt>
<pdfrwt beam="2">  1       -2 0.15243613E-02 0.16700451E+03</pdfrwt>
<totfact> 0.45785769E+04</totfact>
</mgrwt>
</event>
<event>
 4    1  0.6122885E-004  0.3877285E+03  0.7818608E-02  0.1048114E+00
         -2   -1    0    0    0  501 -0.00000000000E+00  0.00000000000E+00  0.44762440603E+02  0.44762440676E+02  0.25500000000E-02 0. -1.
          2   -1    0    0  501    0  0.00000000000E+00 -0.00000000000E+00 -0.83961780471E+03  0.83961780471E+03  0.25500000000E-02 0.  1.
    5000001    1    1    2    0    0 -0.11910191936E+03 -0.10148181145E+03 -0.20428130320E+03  0.26859574845E+03  0.77000000000E+02 0.  0.
   -5000001    1    1    2    0    0  0.11910191936E+03  0.10148181145E+03 -0.59057406091E+03  0.61578449694E+03  0.77000000000E+02 0.  0.
<mgrwt>
<rscale>  0 0.38772847E+03</rscale>
<asrwt>0</asrwt>
<pdfrwt beam="1">  1        2 0.12917196E+00 0.38772847E+03</pdfrwt>
<pdfrwt beam="2">  1       -2 0.68865299E-02 0.38772847E+03</pdfrwt>
<totfact> 0.40027072E+03</totfact>
</mgrwt>
</event>
<event>
 4    1  0.6122885E-004  0.1705368E+03  0.7818608E-02  0.1177289E+00
          2   -1    0    0  501    0  0.00000000000E+00  0.00000000000E+00  0.16929434542E+03  0.16929434544E+03  0.25500000000E-02 0.  1.
         -2   -1    0    0    0  501 -0.00000000000E+00 -0.00000000000E+00 -0.42947088017E+02  0.42947088092E+02  0.25500000000E-02 0. -1.
    5000001    1    1    2    0    0 -0.12778312385E+02 -0.30236901007E+02  0.42946593675E+02  0.94079569292E+02  0.77000000000E+02 0.  0.
   -5000001    1    1    2    0    0  0.12778312385E+02  0.30236901007E+02  0.83400663725E+02  0.11816186424E+03  0.77000000000E+02 0.  0.
<mgrwt>
<rscale>  0 0.17053679E+03</rscale>
<asrwt>0</asrwt>
<pdfrwt beam="1">  1        2 0.26045283E-01 0.17053679E+03</pdfrwt>
<pdfrwt beam="2">  1       -2 0.66072445E-02 0.17053679E+03</pdfrwt>
<totfact> 0.24803439E+04</totfact>
</mgrwt>
</event>
<event>
 4    1  0.6122885E-004  0.2799722E+03  0.7818608E-02  0.1095704E+00
         -2   -1    0    0    0  501 -0.00000000000E+00  0.00000000000E+00  0.12323022521E+02  0.12323022785E+02  0.25500000000E-02 0. -1.
          2   -1    0    0  501    0  0.00000000000E+00 -0.00000000000E+00 -0.15902028814E+04  0.15902028814E+04  0.25500000000E-02 0.  1.
    5000001    1    1    2    0    0  0.25072046500E+02 -0.84991343472E+02 -0.35246036401E+03  0.37149622364E+03  0.77000000000E+02 0.  0.
   -5000001    1    1    2    0    0 -0.25072046500E+02  0.84991343472E+02 -0.12254194949E+04  0.12310296805E+04  0.77000000000E+02 0.  0.
<mgrwt>
<rscale>  0 0.27997219E+03</rscale>
<asrwt>0</asrwt>
<pdfrwt beam="1">  1        2 0.24464643E+00 0.27997219E+03</pdfrwt>
<pdfrwt beam="2">  1       -2 0.18958509E-02 0.27997219E+03</pdfrwt>
<totfact> 0.10219284E+04</totfact>
</mgrwt>
</event>
<event>
 4    1  0.6122885E-004  0.2011646E+03  0.7818608E-02  0.1148760E+00
         -2   -1    0    0    0  501 -0.00000000000E+00  0.00000000000E+00  0.84496600052E+01  0.84496603899E+01  0.25500000000E-02 0. -1.
          2   -1    0    0  501    0  0.00000000000E+00 -0.00000000000E+00 -0.11973029927E+04  0.11973029927E+04  0.25500000000E-02 0.  1.
    5000001    1    1    2    0    0 -0.56148974968E+02 -0.18631727495E+02 -0.75163896675E+03  0.75788520568E+03  0.77000000000E+02 0.  0.
   -5000001    1    1    2    0    0  0.56148974968E+02  0.18631727495E+02 -0.43721436597E+03  0.44786744744E+03  0.77000000000E+02 0.  0.
<mgrwt>
<rscale>  0 0.20116464E+03</rscale>
<asrwt>0</asrwt>
<pdfrwt beam="1">  1        2 0.18420033E+00 0.20116464E+03</pdfrwt>
<pdfrwt beam="2">  1       -2 0.12999487E-02 0.20116464E+03</pdfrwt>
<totfact> 0.28593261E+04</totfact>
</mgrwt>
</event>
<event>
 4    1  0.6122885E-004  0.2768029E+03  0.7818608E-02  0.1097448E+00
          2   -1    0    0  501    0  0.00000000000E+00  0.00000000000E+00  0.13387995650E+04  0.13387995650E+04  0.25500000000E-02 0.  1.
         -2   -1    0    0    0  501 -0.00000000000E+00 -0.00000000000E+00 -0.14307564261E+02  0.14307564489E+02  0.25500000000E-02 0. -1.
    5000001    1    1    2    0    0  0.70350066329E+02  0.89841490035E+02  0.59219829890E+03  0.60798721235E+03  0.77000000000E+02 0.  0.
   -5000001    1    1    2    0    0 -0.70350066329E+02 -0.89841490035E+02  0.73229370185E+03  0.74511991715E+03  0.77000000000E+02 0.  0.
<mgrwt>
<rscale>  0 0.27680290E+03</rscale>
<asrwt>0</asrwt>
<pdfrwt beam="1">  1        2 0.20596912E+00 0.27680290E+03</pdfrwt>
<pdfrwt beam="2">  1       -2 0.22011643E-02 0.27680290E+03</pdfrwt>
<totfact> 0.11200947E+04</totfact>
</mgrwt>
</event>
<event>
 4    1  0.6122885E-004  0.3205708E+03  0.7818608E-02  0.1075387E+00
         -2   -1    0    0    0  501 -0.00000000000E+00  0.00000000000E+00  0.17329015413E+02  0.17329015600E+02  0.25500000000E-02 0. -1.
          2   -1    0    0  501    0  0.00000000000E+00 -0.00000000000E+00 -0.14825662988E+04  0.14825662988E+04  0.25500000000E-02 0.  1.
    5000001    1    1    2    0    0 -0.12469886367E+03  0.62909573575E+02 -0.80733253382E+03  0.82293513791E+03  0.77000000000E+02 0.  0.
   -5000001    1    1    2    0    0  0.12469886367E+03 -0.62909573575E+02 -0.65790474954E+03  0.67696017646E+03  0.77000000000E+02 0.  0.
<mgrwt>
<rscale>  0 0.32057083E+03</rscale>
<asrwt>0</asrwt>
<pdfrwt beam="1">  1        2 0.22808702E+00 0.32057083E+03</pdfrwt>
<pdfrwt beam="2">  1       -2 0.26660035E-02 0.32057083E+03</pdfrwt>
<totfact> 0.70594207E+03</totfact>
</mgrwt>
</event>
<event>
 4    1  0.6122885E-004  0.3568083E+03  0.7818608E-02  0.1059855E+00
          2   -1    0    0  501    0  0.00000000000E+00  0.00000000000E+00  0.22445982534E+03  0.22445982535E+03  0.25500000000E-02 0.  1.
         -2   -1    0    0    0  501 -0.00000000000E+00 -0.00000000000E+00 -0.14179835422E+03  0.14179835424E+03  0.25500000000E-02 0. -1.
    5000001    1    1    2    0    0  0.30775583212E+02 -0.11176680048E+03  0.15591179672E+03  0.20898909677E+03  0.77000000000E+02 0.  0.
   -5000001    1    1    2    0    0 -0.30775583212E+02  0.11176680048E+03 -0.73250325604E+02  0.15726908282E+03  0.77000000000E+02 0.  0.
<mgrwt>
<rscale>  0 0.35680826E+03</rscale>
<asrwt>0</asrwt>
<pdfrwt beam="1">  1        2 0.34532281E-01 0.35680826E+03</pdfrwt>
<pdfrwt beam="2">  1       -2 0.21815131E-01 0.35680826E+03</pdfrwt>
<totfact> 0.27255019E+03</totfact>
</mgrwt>
</event>
<event>
 4    1  0.6122885E-004  0.1958166E+03  0.7818608E-02  0.1153317E+00
          2   -1    0    0  501    0  0.00000000000E+00  0.00000000000E+00  0.12402338467E+04  0.12402338467E+04  0.25500000000E-02 0.  1.
         -2   -1    0    0    0  501 -0.00000000000E+00 -0.00000000000E+00 -0.77292195367E+01  0.77292199574E+01  0.25500000000E-02 0. -1.
    5000001    1    1    2    0    0 -0.32066069684E+02 -0.40399822403E+02  0.41505325063E+03  0.42527471043E+03  0.77000000000E+02 0.  0.
   -5000001    1    1    2    0    0  0.32066069684E+02  0.40399822403E+02  0.81745137652E+03  0.82268835621E+03  0.77000000000E+02 0.  0.
<mgrwt>
<rscale>  0 0.19581665E+03</rscale>
<asrwt>0</asrwt>
<pdfrwt beam="1">  1        2 0.19080515E+00 0.19581665E+03</pdfrwt>
<pdfrwt beam="2">  1       -2 0.11891111E-02 0.19581665E+03</pdfrwt>
<totfact> 0.30729884E+04</totfact>
</mgrwt>
</event>
<event>
 4    1  0.6122885E-004  0.2308735E+03  0.7818608E-02  0.1126026E+00
         -2   -1    0    0    0  501 -0.00000000000E+00  0.00000000000E+00  0.29060807983E+02  0.29060808095E+02  0.25500000000E-02 0. -1.
          2   -1    0    0  501    0  0.00000000000E+00 -0.00000000000E+00 -0.45854326396E+03  0.45854326397E+03  0.25500000000E-02 0.  1.
    5000001    1    1    2    0    0 -0.38339812320E+02 -0.53714915982E+02 -0.33121560840E+03  0.34639285884E+03  0.77000000000E+02 0.  0.
   -5000001    1    1    2    0    0  0.38339812320E+02  0.53714915982E+02 -0.98266847584E+02  0.14121121323E+03  0.77000000000E+02 0.  0.
<mgrwt>
<rscale>  0 0.23087345E+03</rscale>
<asrwt>0</asrwt>
<pdfrwt beam="1">  1        2 0.70545112E-01 0.23087345E+03</pdfrwt>
<pdfrwt beam="2">  1       -2 0.44708939E-02 0.23087345E+03</pdfrwt>
<totfact> 0.15645884E+04</totfact>
</mgrwt>
</event>
<event>
 4    1  0.6122885E-004  0.5925449E+03  0.7818608E-02  0.9920995E-01
         -2   -1    0    0    0  501 -0.00000000000E+00  0.00000000000E+00  0.42904847043E+03  0.42904847044E+03  0.25500000000E-02 0. -1.
          2   -1    0    0  501    0  0.00000000000E+00 -0.00000000000E+00 -0.20458612532E+03  0.20458612534E+03  0.25500000000E-02 0.  1.
    5000001    1    1    2    0    0 -0.10361247504E+03 -0.25578144395E+03  0.19288464468E+03  0.34538844538E+03  0.77000000000E+02 0.  0.
   -5000001    1    1    2    0    0  0.10361247504E+03  0.25578144395E+03  0.31577700434E+02  0.28824615039E+03  0.77000000000E+02 0.  0.
<mgrwt>
<rscale>  0 0.59254490E+03</rscale>
<asrwt>0</asrwt>
<pdfrwt beam="1">  1        2 0.31474789E-01 0.59254490E+03</pdfrwt>
<pdfrwt beam="2">  1       -2 0.66007456E-01 0.59254490E+03</pdfrwt>
<totfact> 0.35960547E+02</totfact>
</mgrwt>
</event>
<event>
 4    1  0.6122885E-004  0.2874069E+03  0.7818608E-02  0.1091711E+00
          2   -1    0    0  501    0  0.00000000000E+00  0.00000000000E+00  0.19007805438E+04  0.19007805438E+04  0.25500000000E-02 0.  1.
         -2   -1    0    0    0  501 -0.00000000000E+00 -0.00000000000E+00 -0.10864319669E+02  0.10864319969E+02  0.25500000000E-02 0. -1.
    5000001    1    1    2    0    0 -0.11043603446E+03 -0.45385886207E+02  0.80142270331E+03  0.81391851297E+03  0.77000000000E+02 0.  0.
   -5000001    1    1    2    0    0  0.11043603446E+03  0.45385886207E+02  0.10884935208E+04  0.10977263508E+04  0.77000000000E+02 0.  0.
<mgrwt>
<rscale>  0 0.28740694E+03</rscale>
<asrwt>0</asrwt>
<pdfrwt beam="1">  1        2 0.29242792E+00 0.28740694E+03</pdfrwt>
<pdfrwt beam="2">  1       -2 0.16714330E-02 0.28740694E+03</pdfrwt>
<totfact> 0.84384440E+03</totfact>
</mgrwt>
</event>
<event>
 4    1  0.6122885E-004  0.4707812E+03  0.7818608E-02  0.1021700E+00
         -2   -1    0    0    0  501 -0.00000000000E+00  0.00000000000E+00  0.83575113022E+02  0.83575113061E+02  0.25500000000E-02 0. -1.
          2   -1    0    0  501    0  0.00000000000E+00 -0.00000000000E+00 -0.66298126984E+03  0.66298126984E+03  0.25500000000E-02 0.  1.
    5000001    1    1    2    0    0 -0.82153049869E+02  0.31926431712E+02 -0.61357286614E+03  0.62463515968E+03  0.77000000000E+02 0.  0.
   -5000001    1    1    2    0    0  0.82153049869E+02 -0.31926431712E+02  0.34166709330E+02  0.12192122322E+03  0.77000000000E+02 0.  0.
<mgrwt>
<rscale>  0 0.47078120E+03</rscale>
<asrwt>0</asrwt>
<pdfrwt beam="1">  1        2 0.10199711E+00 0.47078120E+03</pdfrwt>
<pdfrwt beam="2">  1       -2 0.12857710E-01 0.47078120E+03</pdfrwt>
<totfact> 0.19878623E+03</totfact>
</mgrwt>
</event>
<event>
 4    1  0.6122885E-004  0.2458249E+03  0.7818608E-02  0.1115972E+00
         -2   -1    0    0    0  501 -0.00000000000E+00  0.00000000000E+00  0.79452557459E+01  0.79452561551E+01  0.25500000000E-02 0. -1.
          2   -1    0    0  501    0  0.00000000000E+00 -0.00000000000E+00 -0.19014459128E+04  0.19014459128E+04  0.25500000000E-02 0.  1.
    5000001    1    1    2    0    0 -0.38988241790E+02  0.87458197378E+02 -0.92286651604E+03  0.93101054007E+03  0.77000000000E+02 0.  0.
   -5000001    1    1    2    0    0  0.38988241790E+02 -0.87458197378E+02 -0.97063414103E+03  0.97838062891E+03  0.77000000000E+02 0.  0.
<mgrwt>
<rscale>  0 0.24582493E+03</rscale>
<asrwt>0</asrwt>
<pdfrwt beam="1">  1        2 0.29252978E+00 0.24582493E+03</pdfrwt>
<pdfrwt beam="2">  1       -2 0.12223486E-02 0.24582493E+03</pdfrwt>
<totfact> 0.13283925E+04</totfact>
</mgrwt>
</event>
<event>
 4    1  0.6122885E-004  0.1924150E+03  0.7818608E-02  0.1156301E+00
         -2   -1    0    0    0  501 -0.00000000000E+00  0.00000000000E+00  0.46324121495E+03  0.46324121496E+03  0.25500000000E-02 0. -1.
          2   -1    0    0  501    0  0.00000000000E+00 -0.00000000000E+00 -0.19980703439E+02  0.19980703602E+02  0.25500000000E-02 0.  1.
    5000001    1    1    2    0    0 -0.13202986313E+02 -0.48253125604E+02  0.14953202906E+03  0.17547509992E+03  0.77000000000E+02 0.  0.
   -5000001    1    1    2    0    0  0.13202986313E+02  0.48253125604E+02  0.29372848246E+03  0.30774681864E+03  0.77000000000E+02 0.  0.
<mgrwt>
<rscale>  0 0.19241502E+03</rscale>
<asrwt>0</asrwt>
<pdfrwt beam="1">  1        2 0.30739542E-02 0.19241502E+03</pdfrwt>
<pdfrwt beam="2">  1       -2 0.71267883E-01 0.19241502E+03</pdfrwt>
<totfact> 0.54104620E+03</totfact>
</mgrwt>
</event>
<event>
 4    1  0.6122885E-004  0.1835147E+03  0.7818608E-02  0.1164444E+00
         -2   -1    0    0    0  501 -0.00000000000E+00  0.00000000000E+00  0.12456924038E+02  0.12456924299E+02  0.25500000000E-02 0. -1.
          2   -1    0    0  501    0  0.00000000000E+00 -0.00000000000E+00 -0.67588214286E+03  0.67588214286E+03  0.25500000000E-02 0.  1.
    5000001    1    1    2    0    0  0.11407846323E+01  0.47353122410E+02 -0.39063738751E+03  0.40096157934E+03  0.77000000000E+02 0.  0.
   -5000001    1    1    2    0    0 -0.11407846323E+01 -0.47353122410E+02 -0.27278783131E+03  0.28737748782E+03  0.77000000000E+02 0.  0.
<mgrwt>
<rscale>  0 0.18351471E+03</rscale>
<asrwt>0</asrwt>
<pdfrwt beam="1">  1        2 0.10398184E+00 0.18351471E+03</pdfrwt>
<pdfrwt beam="2">  1       -2 0.19164504E-02 0.18351471E+03</pdfrwt>
<totfact> 0.34729895E+04</totfact>
</mgrwt>
</event>
<event>
 4    1  0.6122885E-004  0.1717536E+03  0.7818608E-02  0.1176031E+00
          2   -1    0    0  501    0  0.00000000000E+00  0.00000000000E+00  0.29299875433E+04  0.29299875433E+04  0.25500000000E-02 0.  1.
         -2   -1    0    0    0  501 -0.00000000000E+00 -0.00000000000E+00 -0.25170142665E+01  0.25170155582E+01  0.25500000000E-02 0. -1.
    5000001    1    1    2    0    0  0.36570470682E+02 -0.10393726963E+02  0.14530254633E+04  0.14555608630E+04  0.77000000000E+02 0.  0.
   -5000001    1    1    2    0    0 -0.36570470682E+02  0.10393726963E+02  0.14744450657E+04  0.14769436958E+04  0.77000000000E+02 0.  0.
<mgrwt>
<rscale>  0 0.17175357E+03</rscale>
<asrwt>0</asrwt>
<pdfrwt beam="1">  1        2 0.45077057E+00 0.17175357E+03</pdfrwt>
<pdfrwt beam="2">  1       -2 0.38723027E-03 0.17175357E+03</pdfrwt>
<totfact> 0.19043000E+04</totfact>
</mgrwt>
</event>
<event>
 4    1  0.6122885E-004  0.2997753E+03  0.7818608E-02  0.1085353E+00
         -2   -1    0    0    0  501 -0.00000000000E+00  0.00000000000E+00  0.42205910026E+02  0.42205910103E+02  0.25500000000E-02 0. -1.
          2   -1    0    0  501    0  0.00000000000E+00 -0.00000000000E+00 -0.53230248781E+03  0.53230248782E+03  0.25500000000E-02 0.  1.
    5000001    1    1    2    0    0 -0.54141586572E+01  0.12093602176E+03 -0.16189770944E+03  0.21632083301E+03  0.77000000000E+02 0.  0.
   -5000001    1    1    2    0    0  0.54141586572E+01 -0.12093602176E+03 -0.32819886835E+03  0.35818756491E+03  0.77000000000E+02 0.  0.
<mgrwt>
<rscale>  0 0.29977532E+03</rscale>
<asrwt>0</asrwt>
<pdfrwt beam="1">  1        2 0.81892686E-01 0.29977532E+03</pdfrwt>
<pdfrwt beam="2">  1       -2 0.64932173E-02 0.29977532E+03</pdfrwt>
<totfact> 0.75827078E+03</totfact>
</mgrwt>
</event>
<event>
 4    1  0.6122885E-004  0.4325834E+03  0.7818608E-02  0.1033047E+00
         -2   -1    0    0    0  501 -0.00000000000E+00  0.00000000000E+00  0.66586341984E+02  0.66586342032E+02  0.25500000000E-02 0. -1.
          2   -1    0    0  501    0  0.00000000000E+00 -0.00000000000E+00 -0.70257789088E+03  0.70257789089E+03  0.25500000000E-02 0.  1.
    5000001    1    1    2    0    0 -0.12941733091E+03 -0.15397570788E+03 -0.28262476738E+03  0.35533522665E+03  0.77000000000E+02 0.  0.
   -5000001    1    1    2    0    0  0.12941733091E+03  0.15397570788E+03 -0.35336678151E+03  0.41382900627E+03  0.77000000000E+02 0.  0.
<mgrwt>
<rscale>  0 0.43258336E+03</rscale>
<asrwt>0</asrwt>
<pdfrwt beam="1">  1        2 0.10808890E+00 0.43258336E+03</pdfrwt>
<pdfrwt beam="2">  1       -2 0.10244053E-01 0.43258336E+03</pdfrwt>
<totfact> 0.26795481E+03</totfact>
</mgrwt>
</event>
<event>
 4    1  0.6122885E-004  0.3317957E+03  0.7818608E-02  0.1070345E+00
         -2   -1    0    0    0  501 -0.00000000000E+00  0.00000000000E+00  0.91818973989E+02  0.91818974024E+02  0.25500000000E-02 0. -1.
          2   -1    0    0  501    0  0.00000000000E+00 -0.00000000000E+00 -0.29974293788E+03  0.29974293789E+03  0.25500000000E-02 0.  1.
    5000001    1    1    2    0    0  0.10966015731E+03  0.94953939307E+02 -0.13167589896E+03  0.21049737067E+03  0.77000000000E+02 0.  0.
   -5000001    1    1    2    0    0 -0.10966015731E+03 -0.94953939307E+02 -0.76248064932E+02  0.18106454125E+03  0.77000000000E+02 0.  0.
<mgrwt>
<rscale>  0 0.33179565E+03</rscale>
<asrwt>0</asrwt>
<pdfrwt beam="1">  1        2 0.46114298E-01 0.33179565E+03</pdfrwt>
<pdfrwt beam="2">  1       -2 0.14125996E-01 0.33179565E+03</pdfrwt>
<totfact> 0.41462903E+03</totfact>
</mgrwt>
</event>
<event>
 4    1  0.6122885E-004  0.1735447E+03  0.7818608E-02  0.1174201E+00
          2   -1    0    0  501    0  0.00000000000E+00  0.00000000000E+00  0.83803955429E+03  0.83803955429E+03  0.25500000000E-02 0.  1.
         -2   -1    0    0    0  501 -0.00000000000E+00 -0.00000000000E+00 -0.89845884448E+01  0.89845888067E+01  0.25500000000E-02 0. -1.
    5000001    1    1    2    0    0 -0.31473416529E+02  0.10733806010E+02  0.30597656706E+03  0.31726400698E+03  0.77000000000E+02 0.  0.
   -5000001    1    1    2    0    0  0.31473416529E+02 -0.10733806010E+02  0.52307839879E+03  0.52976013612E+03  0.77000000000E+02 0.  0.
<mgrwt>
<rscale>  0 0.17354470E+03</rscale>
<asrwt>0</asrwt>
<pdfrwt beam="1">  1        2 0.12892917E+00 0.17354470E+03</pdfrwt>
<pdfrwt beam="2">  1       -2 0.13822444E-02 0.17354470E+03</pdfrwt>
<totfact> 0.42654475E+04</totfact>
</mgrwt>
</event>
<event>
 4    1  0.6122885E-004  0.3270515E+03  0.7818608E-02  0.1072449E+00
         -2   -1    0    0    0  501 -0.00000000000E+00  0.00000000000E+00  0.26882492892E+02  0.26882493013E+02  0.25500000000E-02 0. -1.
          2   -1    0    0  501    0  0.00000000000E+00 -0.00000000000E+00 -0.99472452308E+03  0.99472452308E+03  0.25500000000E-02 0.  1.
    5000001    1    1    2    0    0 -0.12912930769E+03 -0.48448694083E+02 -0.61608001451E+03  0.63600726281E+03  0.77000000000E+02 0.  0.
   -5000001    1    1    2    0    0  0.12912930769E+03  0.48448694083E+02 -0.35176201567E+03  0.38559975328E+03  0.77000000000E+02 0.  0.
<mgrwt>
<rscale>  0 0.32705152E+03</rscale>
<asrwt>0</asrwt>
<pdfrwt beam="1">  1        2 0.15303451E+00 0.32705152E+03</pdfrwt>
<pdfrwt beam="2">  1       -2 0.41357689E-02 0.32705152E+03</pdfrwt>
<totfact> 0.69339383E+03</totfact>
</mgrwt>
</event>
<event>
 4    1  0.6122885E-004  0.1834918E+03  0.7818608E-02  0.1164466E+00
         -2   -1    0    0    0  501 -0.00000000000E+00  0.00000000000E+00  0.33569012692E+03  0.33569012693E+03  0.25500000000E-02 0. -1.
          2   -1    0    0  501    0  0.00000000000E+00 -0.00000000000E+00 -0.25074640061E+02  0.25074640191E+02  0.25500000000E-02 0.  1.
    5000001    1    1    2    0    0  0.18507200364E+02  0.46258166336E+02  0.16011354637E+03  0.18452014023E+03  0.77000000000E+02 0.  0.
   -5000001    1    1    2    0    0 -0.18507200364E+02 -0.46258166336E+02  0.15050194049E+03  0.17624462690E+03  0.77000000000E+02 0.  0.
<mgrwt>
<rscale>  0 0.18349179E+03</rscale>
<asrwt>0</asrwt>
<pdfrwt beam="1">  1        2 0.38576371E-02 0.18349179E+03</pdfrwt>
<pdfrwt beam="2">  1       -2 0.51644633E-01 0.18349179E+03</pdfrwt>
<totfact> 0.77355718E+03</totfact>
</mgrwt>
</event>
<event>
 4    1  0.6122885E-004  0.3785172E+03  0.7818608E-02  0.1051483E+00
          2   -1    0    0  501    0  0.00000000000E+00  0.00000000000E+00  0.48181338349E+02  0.48181338417E+02  0.25500000000E-02 0.  1.
         -2   -1    0    0    0  501 -0.00000000000E+00 -0.00000000000E+00 -0.74341680874E+03  0.74341680875E+03  0.25500000000E-02 0. -1.
    5000001    1    1    2    0    0 -0.13458881097E+03 -0.10339896551E+03 -0.41648271650E+03  0.45628099593E+03  0.77000000000E+02 0.  0.
   -5000001    1    1    2    0    0  0.13458881097E+03  0.10339896551E+03 -0.27875275389E+03  0.33531715123E+03  0.77000000000E+02 0.  0.
<mgrwt>
<rscale>  0 0.37851720E+03</rscale>
<asrwt>0</asrwt>
<pdfrwt beam="1">  1        2 0.74125141E-02 0.37851720E+03</pdfrwt>
<pdfrwt beam="2">  1       -2 0.11437181E+00 0.37851720E+03</pdfrwt>
<totfact> 0.58833649E+02</totfact>
</mgrwt>
</event>
<event>
 4    1  0.6122885E-004  0.3369579E+03  0.7818608E-02  0.1068099E+00
         -2   -1    0    0    0  501 -0.00000000000E+00  0.00000000000E+00  0.27448752184E+02  0.27448752302E+02  0.25500000000E-02 0. -1.
          2   -1    0    0  501    0  0.00000000000E+00 -0.00000000000E+00 -0.10341143916E+04  0.10341143916E+04  0.25500000000E-02 0.  1.
    5000001    1    1    2    0    0 -0.61453007565E+02 -0.13186708984E+03 -0.39014726412E+03  0.42344927586E+03  0.77000000000E+02 0.  0.
   -5000001    1    1    2    0    0  0.61453007565E+02  0.13186708984E+03 -0.61651837533E+03  0.63811386809E+03  0.77000000000E+02 0.  0.
<mgrwt>
<rscale>  0 0.33695786E+03</rscale>
<asrwt>0</asrwt>
<pdfrwt beam="1">  1        2 0.15909449E+00 0.33695786E+03</pdfrwt>
<pdfrwt beam="2">  1       -2 0.42228858E-02 0.33695786E+03</pdfrwt>
<totfact> 0.63581919E+03</totfact>
</mgrwt>
</event>
<event>
 4    1  0.6122885E-004  0.2643132E+03  0.7818608E-02  0.1104579E+00
          2   -1    0    0  501    0  0.00000000000E+00  0.00000000000E+00  0.77814699738E+03  0.77814699739E+03  0.25500000000E-02 0.  1.
         -2   -1    0    0    0  501 -0.00000000000E+00 -0.00000000000E+00 -0.22444815631E+02  0.22444815776E+02  0.25500000000E-02 0. -1.
    5000001    1    1    2    0    0 -0.76420710861E+02 -0.12978389819E+02  0.60305117854E+03  0.61286889918E+03  0.77000000000E+02 0.  0.
   -5000001    1    1    2    0    0  0.76420710861E+02  0.12978389819E+02  0.15265100322E+03  0.18772291398E+03  0.77000000000E+02 0.  0.
<mgrwt>
<rscale>  0 0.26431319E+03</rscale>
<asrwt>0</asrwt>
<pdfrwt beam="1">  1        2 0.11971492E+00 0.26431319E+03</pdfrwt>
<pdfrwt beam="2">  1       -2 0.34530486E-02 0.26431319E+03</pdfrwt>
<totfact> 0.12536605E+04</totfact>
</mgrwt>
</event>
<event>
 4    1  0.6122885E-004  0.1888269E+03  0.7818608E-02  0.1159524E+00
          2   -1    0    0  501    0  0.00000000000E+00  0.00000000000E+00  0.39219393309E+04  0.39219393309E+04  0.25500000000E-02 0.  1.
         -2   -1    0    0    0  501 -0.00000000000E+00 -0.00000000000E+00 -0.22728278518E+01  0.22728292823E+01  0.25500000000E-02 0. -1.
    5000001    1    1    2    0    0  0.18119136400E+02  0.33796814597E+02  0.27685648576E+04  0.27699008825E+04  0.77000000000E+02 0.  0.
   -5000001    1    1    2    0    0 -0.18119136400E+02 -0.33796814597E+02  0.11511016454E+04  0.11543112777E+04  0.77000000000E+02 0.  0.
<mgrwt>
<rscale>  0 0.18882686E+03</rscale>
<asrwt>0</asrwt>
<pdfrwt beam="1">  1        2 0.60337568E+00 0.18882686E+03</pdfrwt>
<pdfrwt beam="2">  1       -2 0.34966570E-03 0.18882686E+03</pdfrwt>
<totfact> 0.50247227E+03</totfact>
</mgrwt>
</event>
<event>
 4    1  0.6122885E-004  0.1633071E+03  0.7818608E-02  0.1185013E+00
         -2   -1    0    0    0  501 -0.00000000000E+00  0.00000000000E+00  0.48080918171E+02  0.48080918239E+02  0.25500000000E-02 0. -1.
          2   -1    0    0  501    0  0.00000000000E+00 -0.00000000000E+00 -0.13866830494E+03  0.13866830497E+03  0.25500000000E-02 0.  1.
    5000001    1    1    2    0    0  0.21591515376E+02 -0.47612657377E+01 -0.27233033781E+02  0.84613836437E+02  0.77000000000E+02 0.  0.
   -5000001    1    1    2    0    0 -0.21591515376E+02  0.47612657377E+01 -0.63354352992E+02  0.10213538677E+03  0.77000000000E+02 0.  0.
<mgrwt>
<rscale>  0 0.16330707E+03</rscale>
<asrwt>0</asrwt>
<pdfrwt beam="1">  1        2 0.21333585E-01 0.16330707E+03</pdfrwt>
<pdfrwt beam="2">  1       -2 0.73970644E-02 0.16330707E+03</pdfrwt>
<totfact> 0.25946645E+04</totfact>
</mgrwt>
</event>
<event>
 4    1  0.6122885E-004  0.2172490E+03  0.7818608E-02  0.1135951E+00
         -2   -1    0    0    0  501 -0.00000000000E+00  0.00000000000E+00  0.72449679584E+02  0.72449679629E+02  0.25500000000E-02 0. -1.
          2   -1    0    0  501    0  0.00000000000E+00 -0.00000000000E+00 -0.16286168714E+03  0.16286168716E+03  0.25500000000E-02 0.  1.
    5000001    1    1    2    0    0  0.67548450558E+02 -0.27487251409E+02 -0.70652567116E+02  0.12743283487E+03  0.77000000000E+02 0.  0.
   -5000001    1    1    2    0    0 -0.67548450558E+02  0.27487251409E+02 -0.19759440441E+02  0.10787853192E+03  0.77000000000E+02 0.  0.
<mgrwt>
<rscale>  0 0.21724895E+03</rscale>
<asrwt>0</asrwt>
<pdfrwt beam="1">  1        2 0.25055644E-01 0.21724895E+03</pdfrwt>
<pdfrwt beam="2">  1       -2 0.11146105E-01 0.21724895E+03</pdfrwt>
<totfact> 0.11645261E+04</totfact>
</mgrwt>
</event>
<event>
 4    1  0.6122885E-004  0.2773281E+03  0.7818608E-02  0.1097157E+00
          2   -1    0    0  501    0  0.00000000000E+00  0.00000000000E+00  0.21488973497E+04  0.21488973497E+04  0.25500000000E-02 0.  1.
         -2   -1    0    0    0  501 -0.00000000000E+00 -0.00000000000E+00 -0.89477150465E+01  0.89477154099E+01  0.25500000000E-02 0. -1.
    5000001    1    1    2    0    0  0.10572750540E+03 -0.13310846370E+02  0.14129710059E+04  0.14190741867E+04  0.77000000000E+02 0.  0.
   -5000001    1    1    2    0    0 -0.10572750540E+03  0.13310846370E+02  0.72697862881E+03  0.73877087841E+03  0.77000000000E+02 0.  0.
<mgrwt>
<rscale>  0 0.27732812E+03</rscale>
<asrwt>0</asrwt>
<pdfrwt beam="1">  1        2 0.33059981E+00 0.27732812E+03</pdfrwt>
<pdfrwt beam="2">  1       -2 0.13765707E-02 0.27732812E+03</pdfrwt>
<totfact> 0.82929771E+03</totfact>
</mgrwt>
</event>
<event>
 4    1  0.6122885E-004  0.3690230E+03  0.7818608E-02  0.1055067E+00
         -2   -1    0    0    0  501 -0.00000000000E+00  0.00000000000E+00  0.17098587619E+02  0.17098587809E+02  0.25500000000E-02 0. -1.
          2   -1    0    0  501    0  0.00000000000E+00 -0.00000000000E+00 -0.19910703136E+04  0.19910703136E+04  0.25500000000E-02 0.  1.
    5000001    1    1    2    0    0  0.42137510723E+02 -0.16226724558E+03 -0.97042473163E+03  0.98780533940E+03  0.77000000000E+02 0.  0.
   -5000001    1    1    2    0    0 -0.42137510723E+02  0.16226724558E+03 -0.10035469944E+04  0.10203635620E+04  0.77000000000E+02 0.  0.
<mgrwt>
<rscale>  0 0.36902298E+03</rscale>
<asrwt>0</asrwt>
<pdfrwt beam="1">  1        2 0.30631833E+00 0.36902298E+03</pdfrwt>
<pdfrwt beam="2">  1       -2 0.26305535E-02 0.36902298E+03</pdfrwt>
<totfact> 0.38609000E+03</totfact>
</mgrwt>
</event>
<event>
 4    1  0.6122885E-004  0.3594752E+03  0.7818608E-02  0.1058792E+00
          2   -1    0    0  501    0  0.00000000000E+00  0.00000000000E+00  0.98375772858E+03  0.98375772858E+03  0.25500000000E-02 0.  1.
         -2   -1    0    0    0  501 -0.00000000000E+00 -0.00000000000E+00 -0.32838991918E+02  0.32838992017E+02  0.25500000000E-02 0. -1.
    5000001    1    1    2    0    0 -0.10356587481E+03 -0.11513968823E+03  0.33710172901E+03  0.37887941872E+03  0.77000000000E+02 0.  0.
   -5000001    1    1    2    0    0  0.10356587481E+03  0.11513968823E+03  0.61381700765E+03  0.63771730188E+03  0.77000000000E+02 0.  0.
<mgrwt>
<rscale>  0 0.35947524E+03</rscale>
<asrwt>0</asrwt>
<pdfrwt beam="1">  1        2 0.15134735E+00 0.35947524E+03</pdfrwt>
<pdfrwt beam="2">  1       -2 0.50521523E-02 0.35947524E+03</pdfrwt>
<totfact> 0.52011616E+03</totfact>
</mgrwt>
</event>
<event>
 4    1  0.6122885E-004  0.4227401E+03  0.7818608E-02  0.1036178E+00
         -2   -1    0    0    0  501 -0.00000000000E+00  0.00000000000E+00  0.26161143919E+03  0.26161143920E+03  0.25500000000E-02 0. -1.
          2   -1    0    0  501    0  0.00000000000E+00 -0.00000000000E+00 -0.17077730051E+03  0.17077730053E+03  0.25500000000E-02 0.  1.
    5000001    1    1    2    0    0  0.18726973192E+03 -0.43748722240E+02  0.24536829607E+01  0.20716882910E+03  0.77000000000E+02 0.  0.
   -5000001    1    1    2    0    0 -0.18726973192E+03  0.43748722240E+02  0.88380455720E+02  0.22521991063E+03  0.77000000000E+02 0.  0.
<mgrwt>
<rscale>  0 0.42274009E+03</rscale>
<asrwt>0</asrwt>
<pdfrwt beam="1">  1        2 0.26273431E-01 0.42274009E+03</pdfrwt>
<pdfrwt beam="2">  1       -2 0.40247914E-01 0.42274009E+03</pdfrwt>
<totfact> 0.12063494E+03</totfact>
</mgrwt>
</event>
<event>
 4    1  0.6122885E-004  0.2795027E+03  0.7818608E-02  0.1095961E+00
         -2   -1    0    0    0  501 -0.00000000000E+00  0.00000000000E+00  0.35059194433E+03  0.35059194434E+03  0.25500000000E-02 0. -1.
          2   -1    0    0  501    0  0.00000000000E+00 -0.00000000000E+00 -0.55707028905E+02  0.55707028963E+02  0.25500000000E-02 0.  1.
    5000001    1    1    2    0    0  0.11226246049E+03 -0.28896874007E+02  0.16603248516E+03  0.21664181381E+03  0.77000000000E+02 0.  0.
   -5000001    1    1    2    0    0 -0.11226246049E+03  0.28896874007E+02  0.12885243027E+03  0.18965715950E+03  0.77000000000E+02 0.  0.
<mgrwt>
<rscale>  0 0.27950267E+03</rscale>
<asrwt>0</asrwt>
<pdfrwt beam="1">  1        2 0.85703122E-02 0.27950267E+03</pdfrwt>
<pdfrwt beam="2">  1       -2 0.53937222E-01 0.27950267E+03</pdfrwt>
<totfact> 0.25591913E+03</totfact>
</mgrwt>
</event>
<event>
 4    1  0.6122885E-004  0.2020236E+03  0.7818608E-02  0.1148043E+00
         -2   -1    0    0    0  501 -0.00000000000E+00  0.00000000000E+00  0.40712435385E+01  0.40712443370E+01  0.25500000000E-02 0. -1.
          2   -1    0    0  501    0  0.00000000000E+00 -0.00000000000E+00 -0.25062083234E+04  0.25062083234E+04  0.25500000000E-02 0.  1.
    5000001    1    1    2    0    0  0.51009152199E+02 -0.40132484490E+02 -0.11533585469E+04  0.11577467286E+04  0.77000000000E+02 0.  0.
   -5000001    1    1    2    0    0 -0.51009152199E+02  0.40132484490E+02 -0.13487785330E+04  0.13525328391E+04  0.77000000000E+02 0.  0.
<mgrwt>
<rscale>  0 0.20202362E+03</rscale>
<asrwt>0</asrwt>
<pdfrwt beam="1">  1        2 0.38556928E+00 0.20202362E+03</pdfrwt>
<pdfrwt beam="2">  1       -2 0.62634722E-03 0.20202362E+03</pdfrwt>
<totfact> 0.16597460E+04</totfact>
</mgrwt>
</event>
<event>
 4    1  0.6122885E-004  0.3452391E+03  0.7818608E-02  0.1064586E+00
          2   -1    0    0  501    0  0.00000000000E+00  0.00000000000E+00  0.14696252572E+04  0.14696252572E+04  0.25500000000E-02 0.  1.
         -2   -1    0    0    0  501 -0.00000000000E+00 -0.00000000000E+00 -0.20275577840E+02  0.20275578000E+02  0.25500000000E-02 0. -1.
    5000001    1    1    2    0    0 -0.56811689937E+02 -0.14158433135E+03  0.82992596003E+03  0.84733688113E+03  0.77000000000E+02 0.  0.
   -5000001    1    1    2    0    0  0.56811689937E+02  0.14158433135E+03  0.61942371929E+03  0.64256395403E+03  0.77000000000E+02 0.  0.
<mgrwt>
<rscale>  0 0.34523906E+03</rscale>
<asrwt>0</asrwt>
<pdfrwt beam="1">  1        2 0.22609626E+00 0.34523906E+03</pdfrwt>
<pdfrwt beam="2">  1       -2 0.31193188E-02 0.34523906E+03</pdfrwt>
<totfact> 0.56766652E+03</totfact>
</mgrwt>
</event>
<event>
 4    1  0.6122885E-004  0.2410589E+03  0.7818608E-02  0.1119089E+00
         -2   -1    0    0    0  501 -0.00000000000E+00  0.00000000000E+00  0.16932714377E+03  0.16932714379E+03  0.25500000000E-02 0. -1.
          2   -1    0    0  501    0  0.00000000000E+00 -0.00000000000E+00 -0.85794530419E+02  0.85794530457E+02  0.25500000000E-02 0.  1.
    5000001    1    1    2    0    0  0.57514103160E+02  0.12797301260E+02 -0.34011706221E+02  0.10274939972E+03  0.77000000000E+02 0.  0.
   -5000001    1    1    2    0    0 -0.57514103160E+02 -0.12797301260E+02  0.11754431957E+03  0.15237227453E+03  0.77000000000E+02 0.  0.
<mgrwt>
<rscale>  0 0.24105885E+03</rscale>
<asrwt>0</asrwt>
<pdfrwt beam="1">  1        2 0.13199159E-01 0.24105885E+03</pdfrwt>
<pdfrwt beam="2">  1       -2 0.26050330E-01 0.24105885E+03</pdfrwt>
<totfact> 0.59176711E+03</totfact>
</mgrwt>
</event>
<event>
 4    1  0.6122885E-004  0.3875342E+03  0.7818608E-02  0.1048184E+00
         -2   -1    0    0    0  501 -0.00000000000E+00  0.00000000000E+00  0.23435465337E+03  0.23435465338E+03  0.25500000000E-02 0. -1.
          2   -1    0    0  501    0  0.00000000000E+00 -0.00000000000E+00 -0.16020888650E+03  0.16020888652E+03  0.25500000000E-02 0.  1.
    5000001    1    1    2    0    0  0.13521538335E+03  0.11331346843E+03  0.14453794774E+02  0.19303122598E+03  0.77000000000E+02 0.  0.
   -5000001    1    1    2    0    0 -0.13521538335E+03 -0.11331346843E+03  0.59691972092E+02  0.20153231392E+03  0.77000000000E+02 0.  0.
<mgrwt>
<rscale>  0 0.38753425E+03</rscale>
<asrwt>0</asrwt>
<pdfrwt beam="1">  1        2 0.24647521E-01 0.38753425E+03</pdfrwt>
<pdfrwt beam="2">  1       -2 0.36054562E-01 0.38753425E+03</pdfrwt>
<totfact> 0.15984479E+03</totfact>
</mgrwt>
</event>
<event>
 4    1  0.6122885E-004  0.2169761E+03  0.7818608E-02  0.1136158E+00
         -2   -1    0    0    0  501 -0.00000000000E+00  0.00000000000E+00  0.99598978930E+01  0.99598982194E+01  0.25500000000E-02 0. -1.
          2   -1    0    0  501    0  0.00000000000E+00 -0.00000000000E+00 -0.11817044417E+04  0.11817044417E+04  0.25500000000E-02 0.  1.
    5000001    1    1    2    0    0  0.29317220457E+02  0.69908825204E+02 -0.53264872537E+03  0.54349830533E+03  0.77000000000E+02 0.  0.
   -5000001    1    1    2    0    0 -0.29317220457E+02 -0.69908825204E+02 -0.63909581842E+03  0.64816603458E+03  0.77000000000E+02 0.  0.
<mgrwt>
<rscale>  0 0.21697609E+03</rscale>
<asrwt>0</asrwt>
<pdfrwt beam="1">  1        2 0.18180057E+00 0.21697609E+03</pdfrwt>
<pdfrwt beam="2">  1       -2 0.15322929E-02 0.21697609E+03</pdfrwt>
<totfact> 0.23079678E+04</totfact>
</mgrwt>
</event>
<event>
 4    1  0.6122885E-004  0.3015806E+03  0.7818608E-02  0.1084453E+00
          2   -1    0    0  501    0  0.00000000000E+00  0.00000000000E+00  0.20687500188E+04  0.20687500188E+04  0.25500000000E-02 0.  1.
         -2   -1    0    0    0  501 -0.00000000000E+00 -0.00000000000E+00 -0.10991040852E+02  0.10991041147E+02  0.25500000000E-02 0. -1.
    5000001    1    1    2    0    0 -0.11545980654E+03 -0.28457072294E+02  0.13850797515E+04  0.13923058894E+04  0.77000000000E+02 0.  0.
   -5000001    1    1    2    0    0  0.11545980654E+03  0.28457072294E+02  0.67267922647E+03  0.68743517048E+03  0.77000000000E+02 0.  0.
<mgrwt>
<rscale>  0 0.30158061E+03</rscale>
<asrwt>0</asrwt>
<pdfrwt beam="1">  1        2 0.31826886E+00 0.30158061E+03</pdfrwt>
<pdfrwt beam="2">  1       -2 0.16909314E-02 0.30158061E+03</pdfrwt>
<totfact> 0.67668147E+03</totfact>
</mgrwt>
</event>
<event>
 4    1  0.6122885E-004  0.2528880E+03  0.7818608E-02  0.1111493E+00
         -2   -1    0    0    0  501 -0.00000000000E+00  0.00000000000E+00  0.18890986892E+02  0.18890987065E+02  0.25500000000E-02 0. -1.
          2   -1    0    0  501    0  0.00000000000E+00 -0.00000000000E+00 -0.84633387247E+03  0.84633387247E+03  0.25500000000E-02 0.  1.
    5000001    1    1    2    0    0  0.46814962076E+02  0.88696581856E+02 -0.41576815907E+03  0.43456977162E+03  0.77000000000E+02 0.  0.
   -5000001    1    1    2    0    0 -0.46814962076E+02 -0.88696581856E+02 -0.41167472651E+03  0.43065508792E+03  0.77000000000E+02 0.  0.
<mgrwt>
<rscale>  0 0.25288798E+03</rscale>
<asrwt>0</asrwt>
<pdfrwt beam="1">  1        2 0.13020518E+00 0.25288798E+03</pdfrwt>
<pdfrwt beam="2">  1       -2 0.29063063E-02 0.25288798E+03</pdfrwt>
<totfact> 0.14530401E+04</totfact>
</mgrwt>
</event>
<event>
 4    1  0.6122885E-004  0.2859598E+03  0.7818608E-02  0.1092478E+00
          2   -1    0    0  501    0  0.00000000000E+00  0.00000000000E+00  0.10004406205E+04  0.10004406205E+04  0.25500000000E-02 0. -1.
         -2   -1    0    0    0  501 -0.00000000000E+00 -0.00000000000E+00 -0.20434243716E+02  0.20434243875E+02  0.25500000000E-02 0.  1.
    5000001    1    1    2    0    0 -0.11167015970E+03  0.30805981513E+02  0.60813789387E+03  0.62384287366E+03  0.77000000000E+02 0.  0.
   -5000001    1    1    2    0    0  0.11167015970E+03 -0.30805981513E+02  0.37186848295E+03  0.39703199075E+03  0.77000000000E+02 0.  0.
<mgrwt>
<rscale>  0 0.28595977E+03</rscale>
<asrwt>0</asrwt>
<pdfrwt beam="1">  1        2 0.15391393E+00 0.28595977E+03</pdfrwt>
<pdfrwt beam="2">  1       -2 0.31437300E-02 0.28595977E+03</pdfrwt>
<totfact> 0.10353438E+04</totfact>
</mgrwt>
</event>
<event>
 4    1  0.6122885E-004  0.2286890E+03  0.7818608E-02  0.1127566E+00
         -2   -1    0    0    0  501 -0.00000000000E+00  0.00000000000E+00  0.10457166989E+02  0.10457167300E+02  0.25500000000E-02 0. -1.
          2   -1    0    0  501    0  0.00000000000E+00 -0.00000000000E+00 -0.12503068413E+04  0.12503068413E+04  0.25500000000E-02 0.  1.
    5000001    1    1    2    0    0  0.66523862388E+02 -0.14588581419E+02 -0.34386595141E+03  0.35890255435E+03  0.77000000000E+02 0.  0.
   -5000001    1    1    2    0    0 -0.66523862388E+02  0.14588581419E+02 -0.89598372288E+03  0.90186145424E+03  0.77000000000E+02 0.  0.
<mgrwt>
<rscale>  0 0.22868903E+03</rscale>
<asrwt>0</asrwt>
<pdfrwt beam="1">  1        2 0.19235478E+00 0.22868903E+03</pdfrwt>
<pdfrwt beam="2">  1       -2 0.16087959E-02 0.22868903E+03</pdfrwt>
<totfact> 0.19724107E+04</totfact>
</mgrwt>
</event>
<event>
 4    1  0.6122885E-004  0.7371290E+03  0.7818608E-02  0.9655762E-01
          2   -1    0    0  501    0  0.00000000000E+00  0.00000000000E+00  0.12390455225E+04  0.12390455225E+04  0.25500000000E-02 0.  1.
         -2   -1    0    0    0  501 -0.00000000000E+00 -0.00000000000E+00 -0.10963261464E+03  0.10963261467E+03  0.25500000000E-02 0. -1.
    5000001    1    1    2    0    0 -0.11700519404E+03  0.29630814314E+03  0.87316204780E+03  0.93264660662E+03  0.77000000000E+02 0.  0.
   -5000001    1    1    2    0    0  0.11700519404E+03 -0.29630814314E+03  0.25625086005E+03  0.41603153053E+03  0.77000000000E+02 0.  0.
<mgrwt>
<rscale>  0 0.73712903E+03</rscale>
<asrwt>0</asrwt>
<pdfrwt beam="1">  1        2 0.19062240E+00 0.73712903E+03</pdfrwt>
<pdfrwt beam="2">  1       -2 0.16866555E-01 0.73712903E+03</pdfrwt>
<totfact> 0.51952064E+02</totfact>
</mgrwt>
</event>
<event>
 4    1  0.6122885E-004  0.3801008E+03  0.7818608E-02  0.1050896E+00
          2   -1    0    0  501    0  0.00000000000E+00  0.00000000000E+00  0.28801141894E+03  0.28801141895E+03  0.25500000000E-02 0.  1.
         -2   -1    0    0    0  501 -0.00000000000E+00 -0.00000000000E+00 -0.12540877370E+03  0.12540877372E+03  0.25500000000E-02 0. -1.
    5000001    1    1    2    0    0 -0.16731916277E+03  0.39924695817E+02  0.10795397589E+03  0.21719287391E+03  0.77000000000E+02 0.  0.
   -5000001    1    1    2    0    0  0.16731916277E+03 -0.39924695817E+02  0.54648669354E+02  0.19622731876E+03  0.77000000000E+02 0.  0.
<mgrwt>
<rscale>  0 0.38010082E+03</rscale>
<asrwt>0</asrwt>
<pdfrwt beam="1">  1        2 0.44309449E-01 0.38010082E+03</pdfrwt>
<pdfrwt beam="2">  1       -2 0.19293657E-01 0.38010082E+03</pdfrwt>
<totfact> 0.25703743E+03</totfact>
</mgrwt>
</event>
<event>
 4    1  0.6122885E-004  0.5730349E+03  0.7818608E-02  0.9962985E-01
         -2   -1    0    0    0  501 -0.00000000000E+00  0.00000000000E+00  0.10700461762E+03  0.10700461765E+03  0.25500000000E-02 0. -1.
          2   -1    0    0  501    0  0.00000000000E+00 -0.00000000000E+00 -0.76718410444E+03  0.76718410445E+03  0.25500000000E-02 0.  1.
    5000001    1    1    2    0    0  0.68846470134E+02 -0.26145683410E+03 -0.24564952764E+03  0.37332586701E+03  0.77000000000E+02 0.  0.
   -5000001    1    1    2    0    0 -0.68846470134E+02  0.26145683410E+03 -0.41452995918E+03  0.50086285509E+03  0.77000000000E+02 0.  0.
<mgrwt>
<rscale>  0 0.57303487E+03</rscale>
<asrwt>0</asrwt>
<pdfrwt beam="1">  1        2 0.11802832E+00 0.57303487E+03</pdfrwt>
<pdfrwt beam="2">  1       -2 0.16462249E-01 0.57303487E+03</pdfrwt>
<totfact> 0.10937013E+03</totfact>
</mgrwt>
</event>
<event>
 4    1  0.6122885E-004  0.1923623E+03  0.7818608E-02  0.1156348E+00
         -2   -1    0    0    0  501 -0.00000000000E+00  0.00000000000E+00  0.41576170389E+02  0.41576170467E+02  0.25500000000E-02 0. -1.
          2   -1    0    0  501    0  0.00000000000E+00 -0.00000000000E+00 -0.22250279852E+03  0.22250279854E+03  0.25500000000E-02 0.  1.
    5000001    1    1    2    0    0 -0.88444179202E+01  0.56890306386E+02 -0.94117077623E+02  0.13454276268E+03  0.77000000000E+02 0.  0.
   -5000001    1    1    2    0    0  0.88444179202E+01 -0.56890306386E+02 -0.86809550509E+02  0.12953620632E+03  0.77000000000E+02 0.  0.
<mgrwt>
<rscale>  0 0.19236231E+03</rscale>
<asrwt>0</asrwt>
<pdfrwt beam="1">  1        2 0.34231199E-01 0.19236231E+03</pdfrwt>
<pdfrwt beam="2">  1       -2 0.63963341E-02 0.19236231E+03</pdfrwt>
<totfact> 0.19544530E+04</totfact>
</mgrwt>
</event>
<event>
 4    1  0.6122885E-004  0.2103582E+03  0.7818608E-02  0.1141283E+00
         -2   -1    0    0    0  501 -0.00000000000E+00  0.00000000000E+00  0.73028111084E+02  0.73028111128E+02  0.25500000000E-02 0. -1.
          2   -1    0    0  501    0  0.00000000000E+00 -0.00000000000E+00 -0.15148470489E+03  0.15148470491E+03  0.25500000000E-02 0.  1.
    5000001    1    1    2    0    0  0.65442894369E+02  0.25288410131E+02 -0.23711608964E+02  0.10683406063E+03  0.77000000000E+02 0.  0.
   -5000001    1    1    2    0    0 -0.65442894369E+02 -0.25288410131E+02 -0.54744984845E+02  0.11767875541E+03  0.77000000000E+02 0.  0.
<mgrwt>
<rscale>  0 0.21035819E+03</rscale>
<asrwt>0</asrwt>
<pdfrwt beam="1">  1        2 0.23305339E-01 0.21035819E+03</pdfrwt>
<pdfrwt beam="2">  1       -2 0.11235094E-01 0.21035819E+03</pdfrwt>
<totfact> 0.12441488E+04</totfact>
</mgrwt>
</event>
<event>
 4    1  0.6122885E-004  0.4688793E+03  0.7818608E-02  0.1022237E+00
          2   -1    0    0  501    0  0.00000000000E+00  0.00000000000E+00  0.24027256163E+03  0.24027256165E+03  0.25500000000E-02 0.  1.
         -2   -1    0    0    0  501 -0.00000000000E+00 -0.00000000000E+00 -0.22874832480E+03  0.22874832481E+03  0.25500000000E-02 0. -1.
    5000001    1    1    2    0    0  0.15885992155E+01 -0.21363394734E+03 -0.52487407904E+02  0.23307920348E+03  0.77000000000E+02 0.  0.
   -5000001    1    1    2    0    0 -0.15885992155E+01  0.21363394734E+03  0.64011644742E+02  0.23594168298E+03  0.77000000000E+02 0.  0.
<mgrwt>
<rscale>  0 0.46887928E+03</rscale>
<asrwt>0</asrwt>
<pdfrwt beam="1">  1        2 0.36965010E-01 0.46887928E+03</pdfrwt>
<pdfrwt beam="2">  1       -2 0.35192050E-01 0.46887928E+03</pdfrwt>
<totfact> 0.10664944E+03</totfact>
</mgrwt>
</event>
<event>
 4    1  0.6122885E-004  0.1823141E+03  0.7818608E-02  0.1165582E+00
          2   -1    0    0  501    0  0.00000000000E+00  0.00000000000E+00  0.13273418875E+03  0.13273418877E+03  0.25500000000E-02 0.  1.
         -2   -1    0    0    0  501 -0.00000000000E+00 -0.00000000000E+00 -0.62603397261E+02  0.62603397312E+02  0.25500000000E-02 0. -1.
    5000001    1    1    2    0    0 -0.31746830170E+02 -0.49300142661E+01 -0.42789267188E+01  0.83543255146E+02  0.77000000000E+02 0.  0.
   -5000001    1    1    2    0    0  0.31746830170E+02  0.49300142661E+01  0.74409718205E+02  0.11179433094E+03  0.77000000000E+02 0.  0.
<mgrwt>
<rscale>  0 0.18231414E+03</rscale>
<asrwt>0</asrwt>
<pdfrwt beam="1">  1        2 0.20420644E-01 0.18231414E+03</pdfrwt>
<pdfrwt beam="2">  1       -2 0.96312920E-02 0.18231414E+03</pdfrwt>
<totfact> 0.18247596E+04</totfact>
</mgrwt>
</event>
<event>
 4    1  0.6122885E-004  0.2541291E+03  0.7818608E-02  0.1110723E+00
         -2   -1    0    0    0  501 -0.00000000000E+00  0.00000000000E+00  0.20130420466E+02  0.20130420628E+02  0.25500000000E-02 0. -1.
          2   -1    0    0  501    0  0.00000000000E+00 -0.00000000000E+00 -0.80203973464E+03  0.80203973465E+03  0.25500000000E-02 0.  1.
    5000001    1    1    2    0    0 -0.10075363633E+03 -0.48657220457E+01 -0.37013146201E+03  0.39128157336E+03  0.77000000000E+02 0.  0.
   -5000001    1    1    2    0    0  0.10075363633E+03  0.48657220457E+01 -0.41177785217E+03  0.43088858192E+03  0.77000000000E+02 0.  0.
<mgrwt>
<rscale>  0 0.25412908E+03</rscale>
<asrwt>0</asrwt>
<pdfrwt beam="1">  1        2 0.12339070E+00 0.25412908E+03</pdfrwt>
<pdfrwt beam="2">  1       -2 0.30969884E-02 0.25412908E+03</pdfrwt>
<totfact> 0.14169402E+04</totfact>
</mgrwt>
</event>
<event>
 4    1  0.6122885E-004  0.2750984E+03  0.7818608E-02  0.1098397E+00
         -2   -1    0    0    0  501 -0.00000000000E+00  0.00000000000E+00  0.62955702229E+02  0.62955702281E+02  0.25500000000E-02 0. -1.
          2   -1    0    0  501    0  0.00000000000E+00 -0.00000000000E+00 -0.30052540202E+03  0.30052540203E+03  0.25500000000E-02 0.  1.
    5000001    1    1    2    0    0  0.67176899895E+02 -0.63161062853E+02 -0.30261966528E+02  0.12388237307E+03  0.77000000000E+02 0.  0.
   -5000001    1    1    2    0    0 -0.67176899895E+02  0.63161062853E+02 -0.20730773326E+03  0.23959873124E+03  0.77000000000E+02 0.  0.
<mgrwt>
<rscale>  0 0.27509844E+03</rscale>
<asrwt>0</asrwt>
<pdfrwt beam="1">  1        2 0.46234676E-01 0.27509844E+03</pdfrwt>
<pdfrwt beam="2">  1       -2 0.96854928E-02 0.27509844E+03</pdfrwt>
<totfact> 0.75644569E+03</totfact>
</mgrwt>
</event>
<event>
 4    1  0.6122885E-004  0.1924937E+03  0.7818608E-02  0.1156231E+00
          2   -1    0    0  501    0  0.00000000000E+00  0.00000000000E+00  0.26318593618E+03  0.26318593619E+03  0.25500000000E-02 0.  1.
         -2   -1    0    0    0  501 -0.00000000000E+00 -0.00000000000E+00 -0.35197373433E+02  0.35197373525E+02  0.25500000000E-02 0. -1.
    5000001    1    1    2    0    0  0.27563265092E+02 -0.45010568700E+02  0.15030649930E+03  0.17693707528E+03  0.77000000000E+02 0.  0.
   -5000001    1    1    2    0    0 -0.27563265092E+02  0.45010568700E+02  0.77682063444E+02  0.12144623443E+03  0.77000000000E+02 0.  0.
<mgrwt>
<rscale>  0 0.19249367E+03</rscale>
<asrwt>0</asrwt>
<pdfrwt beam="1">  1        2 0.40490143E-01 0.19249367E+03</pdfrwt>
<pdfrwt beam="2">  1       -2 0.54149807E-02 0.19249367E+03</pdfrwt>
<totfact> 0.21031016E+04</totfact>
</mgrwt>
</event>
<event>
 4    1  0.6122885E-004  0.6048183E+03  0.7818608E-02  0.9895460E-01
         -2   -1    0    0    0  501 -0.00000000000E+00  0.00000000000E+00  0.74619072421E+03  0.74619072421E+03  0.25500000000E-02 0. -1.
          2   -1    0    0  501    0  0.00000000000E+00 -0.00000000000E+00 -0.12255751350E+03  0.12255751353E+03  0.25500000000E-02 0.  1.
    5000001    1    1    2    0    0  0.28826801716E+03 -0.48247153277E+02  0.29773992592E+03  0.42426913746E+03  0.77000000000E+02 0.  0.
   -5000001    1    1    2    0    0 -0.28826801716E+03  0.48247153277E+02  0.32589328478E+03  0.44447910028E+03  0.77000000000E+02 0.  0.
<mgrwt>
<rscale>  0 0.60481825E+03</rscale>
<asrwt>0</asrwt>
<pdfrwt beam="1">  1        2 0.18855002E-01 0.60481825E+03</pdfrwt>
<pdfrwt beam="2">  1       -2 0.11479857E+00 0.60481825E+03</pdfrwt>
<totfact> 0.18276364E+02</totfact>
</mgrwt>
</event>
<event>
 4    1  0.6122885E-004  0.2031220E+03  0.7818608E-02  0.1147131E+00
          2   -1    0    0  501    0  0.00000000000E+00  0.00000000000E+00  0.44729840110E+03  0.44729840111E+03  0.25500000000E-02 0.  1.
         -2   -1    0    0    0  501 -0.00000000000E+00 -0.00000000000E+00 -0.23059853729E+02  0.23059853870E+02  0.25500000000E-02 0. -1.
    5000001    1    1    2    0    0  0.56517051209E+02  0.29069700641E+02  0.16902021674E+03  0.19630603210E+03  0.77000000000E+02 0.  0.
   -5000001    1    1    2    0    0 -0.56517051209E+02 -0.29069700641E+02  0.25521833063E+03  0.27405222288E+03  0.77000000000E+02 0.  0.
<mgrwt>
<rscale>  0 0.20312199E+03</rscale>
<asrwt>0</asrwt>
<pdfrwt beam="1">  1        2 0.68815136E-01 0.20312199E+03</pdfrwt>
<pdfrwt beam="2">  1       -2 0.35476699E-02 0.20312199E+03</pdfrwt>
<totfact> 0.22548024E+04</totfact>
</mgrwt>
</event>
<event>
 4    1  0.6122885E-004  0.3933658E+03  0.7818608E-02  0.1046101E+00
         -2   -1    0    0    0  501 -0.00000000000E+00  0.00000000000E+00  0.12766790557E+02  0.12766790812E+02  0.25500000000E-02 0.  1.
          2   -1    0    0  501    0  0.00000000000E+00 -0.00000000000E+00 -0.30300623690E+04  0.30300623690E+04  0.25500000000E-02 0. -1.
    5000001    1    1    2    0    0  0.87102986559E+02 -0.15832660733E+03 -0.14309363465E+04  0.14443552446E+04  0.77000000000E+02 0.  0.
   -5000001    1    1    2    0    0 -0.87102986559E+02  0.15832660733E+03 -0.15863592319E+04  0.15984739151E+04  0.77000000000E+02 0.  0.
<mgrwt>
<rscale>  0 0.39336585E+03</rscale>
<asrwt>0</asrwt>
<pdfrwt beam="1">  1        2 0.46616287E+00 0.39336585E+03</pdfrwt>
<pdfrwt beam="2">  1       -2 0.19641240E-02 0.39336585E+03</pdfrwt>
<totfact> 0.15629328E+03</totfact>
</mgrwt>
</event>
<event>
 4    1  0.6122885E-004  0.5176793E+03  0.7818608E-02  0.1009265E+00
          2   -1    0    0  501    0  0.00000000000E+00  0.00000000000E+00  0.62662967982E+03  0.62662967982E+03  0.25500000000E-02 0.  1.
         -2   -1    0    0    0  501 -0.00000000000E+00 -0.00000000000E+00 -0.10691793893E+03  0.10691793896E+03  0.25500000000E-02 0. -1.
    5000001    1    1    2    0    0 -0.18016544294E+03 -0.13335286545E+03  0.11241795380E+03  0.26231540154E+03  0.77000000000E+02 0.  0.
   -5000001    1    1    2    0    0  0.18016544294E+03  0.13335286545E+03  0.40729378710E+03  0.47123221724E+03  0.77000000000E+02 0.  0.
<mgrwt>
<rscale>  0 0.51767926E+03</rscale>
<asrwt>0</asrwt>
<pdfrwt beam="1">  1        2 0.96404569E-01 0.51767926E+03</pdfrwt>
<pdfrwt beam="2">  1       -2 0.16448913E-01 0.51767926E+03</pdfrwt>
<totfact> 0.14101570E+03</totfact>
</mgrwt>
</event>
<event>
 4    1  0.6122885E-004  0.3264437E+03  0.7818608E-02  0.1072721E+00
          2   -1    0    0  501    0  0.00000000000E+00  0.00000000000E+00  0.33519316523E+03  0.33519316524E+03  0.25500000000E-02 0.  1.
         -2   -1    0    0    0  501 -0.00000000000E+00 -0.00000000000E+00 -0.79480660037E+02  0.79480660078E+02  0.25500000000E-02 0. -1.
    5000001    1    1    2    0    0  0.44910020361E+02  0.10948671893E+03  0.23816620199E+02  0.14317989716E+03  0.77000000000E+02 0.  0.
   -5000001    1    1    2    0    0 -0.44910020361E+02 -0.10948671893E+03  0.23189588500E+03  0.27149392816E+03  0.77000000000E+02 0.  0.
<mgrwt>
<rscale>  0 0.32644371E+03</rscale>
<asrwt>0</asrwt>
<pdfrwt beam="1">  1        2 0.51568180E-01 0.32644371E+03</pdfrwt>
<pdfrwt beam="2">  1       -2 0.12227794E-01 0.32644371E+03</pdfrwt>
<totfact> 0.46503564E+03</totfact>
</mgrwt>
</event>
<event>
 4    1  0.6122885E-004  0.2612491E+03  0.7818608E-02  0.1106395E+00
          2   -1    0    0  501    0  0.00000000000E+00  0.00000000000E+00  0.19228296210E+04  0.19228296210E+04  0.25500000000E-02 0.  1.
         -2   -1    0    0    0  501 -0.00000000000E+00 -0.00000000000E+00 -0.88737851757E+01  0.88737855421E+01  0.25500000000E-02 0. -1.
    5000001    1    1    2    0    0 -0.45781724327E+02  0.75296123183E+02  0.13861102989E+04  0.13910414204E+04  0.77000000000E+02 0.  0.
   -5000001    1    1    2    0    0  0.45781724327E+02 -0.75296123183E+02  0.52784553687E+03  0.54066198613E+03  0.77000000000E+02 0.  0.
<mgrwt>
<rscale>  0 0.26124913E+03</rscale>
<asrwt>0</asrwt>
<pdfrwt beam="1">  1        2 0.29582019E+00 0.26124913E+03</pdfrwt>
<pdfrwt beam="2">  1       -2 0.13651966E-02 0.26124913E+03</pdfrwt>
<totfact> 0.11034871E+04</totfact>
</mgrwt>
</event>
<event>
 4    1  0.6122885E-004  0.5612144E+03  0.7818608E-02  0.9989311E-01
         -2   -1    0    0    0  501 -0.00000000000E+00  0.00000000000E+00  0.29367402165E+02  0.29367402275E+02  0.25500000000E-02 0. -1.
          2   -1    0    0  501    0  0.00000000000E+00 -0.00000000000E+00 -0.26812179080E+04  0.26812179080E+04  0.25500000000E-02 0.  1.
    5000001    1    1    2    0    0 -0.19477368087E+03 -0.10068422841E+03 -0.56628066578E+03  0.61210856312E+03  0.77000000000E+02 0.  0.
   -5000001    1    1    2    0    0  0.19477368087E+03  0.10068422841E+03 -0.20855698401E+04  0.20984767472E+04  0.77000000000E+02 0.  0.
<mgrwt>
<rscale>  0 0.56121441E+03</rscale>
<asrwt>0</asrwt>
<pdfrwt beam="1">  1        2 0.41249487E+00 0.56121441E+03</pdfrwt>
<pdfrwt beam="2">  1       -2 0.45180640E-02 0.56121441E+03</pdfrwt>
<totfact> 0.69910999E+02</totfact>
</mgrwt>
</event>
<event>
 4    1  0.6122885E-004  0.3180558E+03  0.7818608E-02  0.1076548E+00
          2   -1    0    0  501    0  0.00000000000E+00  0.00000000000E+00  0.47014270132E+03  0.47014270132E+03  0.25500000000E-02 0.  1.
         -2   -1    0    0    0  501 -0.00000000000E+00 -0.00000000000E+00 -0.53791891562E+02  0.53791891622E+02  0.25500000000E-02 0. -1.
    5000001    1    1    2    0    0  0.24285223268E+02  0.11153272479E+03  0.33925305620E+03  0.36612969957E+03  0.77000000000E+02 0.  0.
   -5000001    1    1    2    0    0 -0.24285223268E+02 -0.11153272479E+03  0.77097753558E+02  0.15780489337E+03  0.77000000000E+02 0.  0.
<mgrwt>
<rscale>  0 0.31805575E+03</rscale>
<asrwt>0</asrwt>
<pdfrwt beam="1">  1        2 0.72329646E-01 0.31805575E+03</pdfrwt>
<pdfrwt beam="2">  1       -2 0.82756757E-02 0.31805575E+03</pdfrwt>
<totfact> 0.59849432E+03</totfact>
</mgrwt>
</event>
<event>
 4    1  0.6122885E-004  0.1819910E+03  0.7818608E-02  0.1165890E+00
         -2   -1    0    0    0  501 -0.00000000000E+00  0.00000000000E+00  0.52054162897E+01  0.52054169143E+01  0.25500000000E-02 0. -1.
          2   -1    0    0  501    0  0.00000000000E+00 -0.00000000000E+00 -0.15906848183E+04  0.15906848183E+04  0.25500000000E-02 0.  1.
    5000001    1    1    2    0    0  0.39051356066E+01 -0.40890553392E+02 -0.56679550986E+03  0.57347487952E+03  0.77000000000E+02 0.  0.
   -5000001    1    1    2    0    0 -0.39051356066E+01  0.40890553392E+02 -0.10186838921E+04  0.10224153557E+04  0.77000000000E+02 0.  0.
<mgrwt>
<rscale>  0 0.18199096E+03</rscale>
<asrwt>0</asrwt>
<pdfrwt beam="1">  1        2 0.24472035E+00 0.18199096E+03</pdfrwt>
<pdfrwt beam="2">  1       -2 0.80083459E-03 0.18199096E+03</pdfrwt>
<totfact> 0.35075256E+04</totfact>
</mgrwt>
</event>
<event>
 4    1  0.6122885E-004  0.1755162E+03  0.7818608E-02  0.1172214E+00
         -2   -1    0    0    0  501 -0.00000000000E+00  0.00000000000E+00  0.16998805125E+02  0.16998805316E+02  0.25500000000E-02 0. -1.
          2   -1    0    0  501    0  0.00000000000E+00 -0.00000000000E+00 -0.45306011202E+03  0.45306011203E+03  0.25500000000E-02 0.  1.
    5000001    1    1    2    0    0 -0.31730055288E+02 -0.24205306451E+02 -0.25394059770E+03  0.26834217042E+03  0.77000000000E+02 0.  0.
   -5000001    1    1    2    0    0  0.31730055288E+02  0.24205306451E+02 -0.18212070920E+03  0.20171674692E+03  0.77000000000E+02 0.  0.
<mgrwt>
<rscale>  0 0.17551616E+03</rscale>
<asrwt>0</asrwt>
<pdfrwt beam="1">  1        2 0.69701547E-01 0.17551616E+03</pdfrwt>
<pdfrwt beam="2">  1       -2 0.26152011E-02 0.17551616E+03</pdfrwt>
<totfact> 0.34504815E+04</totfact>
</mgrwt>
</event>
<event>
 4    1  0.6122885E-004  0.1860509E+03  0.7818608E-02  0.1162072E+00
          2   -1    0    0  501    0  0.00000000000E+00  0.00000000000E+00  0.16632056517E+03  0.16632056519E+03  0.25500000000E-02 0.  1.
         -2   -1    0    0    0  501 -0.00000000000E+00 -0.00000000000E+00 -0.52030480310E+02  0.52030480372E+02  0.25500000000E-02 0. -1.
    5000001    1    1    2    0    0  0.46495592076E+02 -0.14910931244E+02  0.78803228675E+02  0.12051192805E+03  0.77000000000E+02 0.  0.
   -5000001    1    1    2    0    0 -0.46495592076E+02  0.14910931244E+02  0.35486856182E+02  0.97839117508E+02  0.77000000000E+02 0.  0.
<mgrwt>
<rscale>  0 0.18605095E+03</rscale>
<asrwt>0</asrwt>
<pdfrwt beam="1">  1        2 0.25587779E-01 0.18605095E+03</pdfrwt>
<pdfrwt beam="2">  1       -2 0.80046893E-02 0.18605095E+03</pdfrwt>
<totfact> 0.18956111E+04</totfact>
</mgrwt>
</event>
<event>
 4    1  0.6122885E-004  0.2864256E+03  0.7818608E-02  0.1092230E+00
          2   -1    0    0  501    0  0.00000000000E+00  0.00000000000E+00  0.59450447179E+03  0.59450447180E+03  0.25500000000E-02 0.  1.
         -2   -1    0    0    0  501 -0.00000000000E+00 -0.00000000000E+00 -0.34499164803E+02  0.34499164897E+02  0.25500000000E-02 0. -1.
    5000001    1    1    2    0    0  0.80302589363E+02 -0.89512743279E+02  0.25595914456E+03  0.29309575356E+03  0.77000000000E+02 0.  0.
   -5000001    1    1    2    0    0 -0.80302589363E+02  0.89512743279E+02  0.30404616243E+03  0.33590788314E+03  0.77000000000E+02 0.  0.
<mgrwt>
<rscale>  0 0.28642561E+03</rscale>
<asrwt>0</asrwt>
<pdfrwt beam="1">  1        2 0.91462223E-01 0.28642561E+03</pdfrwt>
<pdfrwt beam="2">  1       -2 0.53075641E-02 0.28642561E+03</pdfrwt>
<totfact> 0.90896836E+03</totfact>
</mgrwt>
</event>
<event>
 4    1  0.6122885E-004  0.2225220E+03  0.7818608E-02  0.1132017E+00
          2   -1    0    0  501    0  0.00000000000E+00  0.00000000000E+00  0.19855957158E+04  0.19855957158E+04  0.25500000000E-02 0.  1.
         -2   -1    0    0    0  501 -0.00000000000E+00 -0.00000000000E+00 -0.62344049416E+01  0.62344054631E+01  0.25500000000E-02 0. -1.
    5000001    1    1    2    0    0  0.31626264762E+02 -0.71669296880E+02  0.11481186155E+04  0.11533612027E+04  0.77000000000E+02 0.  0.
   -5000001    1    1    2    0    0 -0.31626264762E+02  0.71669296880E+02  0.83124269535E+03  0.83846891851E+03  0.77000000000E+02 0.  0.
<mgrwt>
<rscale>  0 0.22252198E+03</rscale>
<asrwt>0</asrwt>
<pdfrwt beam="1">  1        2 0.30547647E+00 0.22252198E+03</pdfrwt>
<pdfrwt beam="2">  1       -2 0.95913861E-03 0.22252198E+03</pdfrwt>
<totfact> 0.17015122E+04</totfact>
</mgrwt>
</event>
<event>
 4    1  0.6122885E-004  0.3497432E+03  0.7818608E-02  0.1062721E+00
          2   -1    0    0  501    0  0.00000000000E+00  0.00000000000E+00  0.21439999888E+04  0.21439999888E+04  0.25500000000E-02 0.  1.
         -2   -1    0    0    0  501 -0.00000000000E+00 -0.00000000000E+00 -0.14263093198E+02  0.14263093426E+02  0.25500000000E-02 0. -1.
    5000001    1    1    2    0    0 -0.75198065219E+00  0.15196929868E+03  0.13082778887E+04  0.13193237917E+04  0.77000000000E+02 0.  0.
   -5000001    1    1    2    0    0  0.75198065219E+00 -0.15196929868E+03  0.82145900695E+03  0.83893929060E+03  0.77000000000E+02 0.  0.
<mgrwt>
<rscale>  0 0.34974317E+03</rscale>
<asrwt>0</asrwt>
<pdfrwt beam="1">  1        2 0.32984611E+00 0.34974317E+03</pdfrwt>
<pdfrwt beam="2">  1       -2 0.21943223E-02 0.34974317E+03</pdfrwt>
<totfact> 0.41953031E+03</totfact>
</mgrwt>
</event>
<event>
 4    1  0.6122885E-004  0.2296961E+03  0.7818608E-02  0.1126854E+00
         -2   -1    0    0    0  501 -0.00000000000E+00  0.00000000000E+00  0.60590066301E+02  0.60590066355E+02  0.25500000000E-02 0. -1.
          2   -1    0    0  501    0  0.00000000000E+00 -0.00000000000E+00 -0.21769362000E+03  0.21769362002E+03  0.25500000000E-02 0.  1.
    5000001    1    1    2    0    0  0.54150683577E+02 -0.64504824361E+02 -0.62853134418E+02  0.13027925930E+03  0.77000000000E+02 0.  0.
   -5000001    1    1    2    0    0 -0.54150683577E+02  0.64504824361E+02 -0.94250419282E+02  0.14800442707E+03  0.77000000000E+02 0.  0.
<mgrwt>
<rscale>  0 0.22969607E+03</rscale>
<asrwt>0</asrwt>
<pdfrwt beam="1">  1        2 0.33491326E-01 0.22969607E+03</pdfrwt>
<pdfrwt beam="2">  1       -2 0.93215488E-02 0.22969607E+03</pdfrwt>
<totfact> 0.11283581E+04</totfact>
</mgrwt>
</event>
<event>
 4    1  0.6122885E-004  0.2148710E+03  0.7818608E-02  0.1137766E+00
         -2   -1    0    0    0  501 -0.00000000000E+00  0.00000000000E+00  0.44532513496E+02  0.44532513569E+02  0.25500000000E-02 0. -1.
          2   -1    0    0  501    0  0.00000000000E+00 -0.00000000000E+00 -0.25919008397E+03  0.25919008398E+03  0.25500000000E-02 0.  1.
    5000001    1    1    2    0    0 -0.73780839186E+02  0.63375151019E+01 -0.91236493635E+02  0.14048798561E+03  0.77000000000E+02 0.  0.
   -5000001    1    1    2    0    0  0.73780839186E+02 -0.63375151019E+01 -0.12342107684E+03  0.16323461194E+03  0.77000000000E+02 0.  0.
<mgrwt>
<rscale>  0 0.21487099E+03</rscale>
<asrwt>0</asrwt>
<pdfrwt beam="1">  1        2 0.39875397E-01 0.21487099E+03</pdfrwt>
<pdfrwt beam="2">  1       -2 0.68511561E-02 0.21487099E+03</pdfrwt>
<totfact> 0.15037285E+04</totfact>
</mgrwt>
</event>
<event>
 4    1  0.6122885E-004  0.1948770E+03  0.7818608E-02  0.1154135E+00
          2   -1    0    0  501    0  0.00000000000E+00  0.00000000000E+00  0.31987374737E+03  0.31987374738E+03  0.25500000000E-02 0.  1.
         -2   -1    0    0    0  501 -0.00000000000E+00 -0.00000000000E+00 -0.29681280194E+02  0.29681280304E+02  0.25500000000E-02 0. -1.
    5000001    1    1    2    0    0  0.32373086175E+02 -0.40758655148E+01  0.23479364680E+03  0.24924222348E+03  0.77000000000E+02 0.  0.
   -5000001    1    1    2    0    0 -0.32373086175E+02  0.40758655148E+01  0.55398820378E+02  0.10031280420E+03  0.77000000000E+02 0.  0.
<mgrwt>
<rscale>  0 0.19487701E+03</rscale>
<asrwt>0</asrwt>
<pdfrwt beam="1">  1        2 0.49211346E-01 0.19487701E+03</pdfrwt>
<pdfrwt beam="2">  1       -2 0.45663508E-02 0.19487701E+03</pdfrwt>
<totfact> 0.22109563E+04</totfact>
</mgrwt>
</event>
<event>
 4    1  0.6122885E-004  0.2559966E+03  0.7818608E-02  0.1109573E+00
          2   -1    0    0  501    0  0.00000000000E+00  0.00000000000E+00  0.41667442705E+03  0.41667442705E+03  0.25500000000E-02 0.  1.
         -2   -1    0    0    0  501 -0.00000000000E+00 -0.00000000000E+00 -0.39319816198E+02  0.39319816280E+02  0.25500000000E-02 0. -1.
    5000001    1    1    2    0    0 -0.99340727201E+02  0.23494053156E+02  0.19906542080E+03  0.23659372852E+03  0.77000000000E+02 0.  0.
   -5000001    1    1    2    0    0  0.99340727201E+02 -0.23494053156E+02  0.17828919005E+03  0.21940051482E+03  0.77000000000E+02 0.  0.
<mgrwt>
<rscale>  0 0.25599658E+03</rscale>
<asrwt>0</asrwt>
<pdfrwt beam="1">  1        2 0.64103760E-01 0.25599658E+03</pdfrwt>
<pdfrwt beam="2">  1       -2 0.60492023E-02 0.25599658E+03</pdfrwt>
<totfact> 0.11031317E+04</totfact>
</mgrwt>
</event>
<event>
 4    1  0.6122885E-004  0.2315317E+03  0.7818608E-02  0.1125566E+00
          2   -1    0    0  501    0  0.00000000000E+00  0.00000000000E+00  0.12020244491E+04  0.12020244491E+04  0.25500000000E-02 0.  1.
         -2   -1    0    0    0  501 -0.00000000000E+00 -0.00000000000E+00 -0.11149302527E+02  0.11149302818E+02  0.25500000000E-02 0. -1.
    5000001    1    1    2    0    0  0.43775683957E+02 -0.22670867714E+02  0.96751519466E+03  0.97182556595E+03  0.77000000000E+02 0.  0.
   -5000001    1    1    2    0    0 -0.43775683957E+02  0.22670867714E+02  0.22335995189E+03  0.24134818594E+03  0.77000000000E+02 0.  0.
<mgrwt>
<rscale>  0 0.23153172E+03</rscale>
<asrwt>0</asrwt>
<pdfrwt beam="1">  1        2 0.18492680E+00 0.23153172E+03</pdfrwt>
<pdfrwt beam="2">  1       -2 0.17152777E-02 0.23153172E+03</pdfrwt>
<totfact> 0.19128568E+04</totfact>
</mgrwt>
</event>
<event>
 4    1  0.6122885E-004  0.1639366E+03  0.7818608E-02  0.1184323E+00
          2   -1    0    0  501    0  0.00000000000E+00  0.00000000000E+00  0.10339855101E+04  0.10339855101E+04  0.25500000000E-02 0.  1.
         -2   -1    0    0    0  501 -0.00000000000E+00 -0.00000000000E+00 -0.64979656886E+01  0.64979661889E+01  0.25500000000E-02 0. -1.
    5000001    1    1    2    0    0  0.20355391473E+02 -0.14950688381E+02  0.59197710968E+03  0.59749791919E+03  0.77000000000E+02 0.  0.
   -5000001    1    1    2    0    0 -0.20355391473E+02  0.14950688381E+02  0.43551043469E+03  0.44298555706E+03  0.77000000000E+02 0.  0.
<mgrwt>
<rscale>  0 0.16393661E+03</rscale>
<asrwt>0</asrwt>
<pdfrwt beam="1">  1        2 0.15907458E+00 0.16393661E+03</pdfrwt>
<pdfrwt beam="2">  1       -2 0.99968779E-03 0.16393661E+03</pdfrwt>
<totfact> 0.51087250E+04</totfact>
</mgrwt>
</event>
<event>
 4    1  0.6122885E-004  0.3169630E+03  0.7818608E-02  0.1077056E+00
          2   -1    0    0  501    0  0.00000000000E+00  0.00000000000E+00  0.74498240164E+02  0.74498240208E+02  0.25500000000E-02 0.  1.
         -2   -1    0    0    0  501 -0.00000000000E+00 -0.00000000000E+00 -0.33714070221E+03  0.33714070222E+03  0.25500000000E-02 0. -1.
    5000001    1    1    2    0    0 -0.10401097671E+03  0.79997450139E+02 -0.18895637223E+03  0.24259304589E+03  0.77000000000E+02 0.  0.
   -5000001    1    1    2    0    0  0.10401097671E+03 -0.79997450139E+02 -0.73686089816E+02  0.16904589654E+03  0.77000000000E+02 0.  0.
<mgrwt>
<rscale>  0 0.31696302E+03</rscale>
<asrwt>0</asrwt>
<pdfrwt beam="1">  1        2 0.11461268E-01 0.31696302E+03</pdfrwt>
<pdfrwt beam="2">  1       -2 0.51867799E-01 0.31696302E+03</pdfrwt>
<totfact> 0.19335822E+03</totfact>
</mgrwt>
</event>
<event>
 4    1  0.6122885E-004  0.3727752E+03  0.7818608E-02  0.1053637E+00
         -2   -1    0    0    0  501 -0.00000000000E+00  0.00000000000E+00  0.18695177240E+03  0.18695177241E+03  0.25500000000E-02 0. -1.
          2   -1    0    0  501    0  0.00000000000E+00 -0.00000000000E+00 -0.18582516352E+03  0.18582516354E+03  0.25500000000E-02 0.  1.
    5000001    1    1    2    0    0  0.33034755963E+02  0.11327049333E+03  0.12258780986E+03  0.18675725123E+03  0.77000000000E+02 0.  0.
   -5000001    1    1    2    0    0 -0.33034755963E+02 -0.11327049333E+03 -0.12146120099E+03  0.18601968472E+03  0.77000000000E+02 0.  0.
<mgrwt>
<rscale>  0 0.37277523E+03</rscale>
<asrwt>0</asrwt>
<pdfrwt beam="1">  1        2 0.28588487E-01 0.37277523E+03</pdfrwt>
<pdfrwt beam="2">  1       -2 0.28761811E-01 0.37277523E+03</pdfrwt>
<totfact> 0.20555419E+03</totfact>
</mgrwt>
</event>
<event>
 4    1  0.6122885E-004  0.4669673E+03  0.7818608E-02  0.1022780E+00
          2   -1    0    0  501    0  0.00000000000E+00  0.00000000000E+00  0.87127038111E+03  0.87127038111E+03  0.25500000000E-02 0. -1.
         -2   -1    0    0    0  501 -0.00000000000E+00 -0.00000000000E+00 -0.62569121450E+02  0.62569121502E+02  0.25500000000E-02 0.  1.
    5000001    1    1    2    0    0 -0.17798704151E+03 -0.75958538187E+02  0.19331256229E+03  0.28416163219E+03  0.77000000000E+02 0.  0.
   -5000001    1    1    2    0    0  0.17798704151E+03  0.75958538187E+02  0.61538869738E+03  0.64967787043E+03  0.77000000000E+02 0.  0.
<mgrwt>
<rscale>  0 0.46696733E+03</rscale>
<asrwt>0</asrwt>
<pdfrwt beam="1">  1        2 0.13404159E+00 0.46696733E+03</pdfrwt>
<pdfrwt beam="2">  1       -2 0.96260191E-02 0.46696733E+03</pdfrwt>
<totfact> 0.22442457E+03</totfact>
</mgrwt>
</event>
<event>
 4    1  0.6122885E-004  0.3424214E+03  0.7818608E-02  0.1065769E+00
          2   -1    0    0  501    0  0.00000000000E+00  0.00000000000E+00  0.20688737785E+04  0.20688737785E+04  0.25500000000E-02 0.  1.
         -2   -1    0    0    0  501 -0.00000000000E+00 -0.00000000000E+00 -0.14168624708E+02  0.14168624937E+02  0.25500000000E-02 0. -1.
    5000001    1    1    2    0    0  0.71252842309E+02  0.37246173207E+02  0.18186423261E+04  0.18220464196E+04  0.77000000000E+02 0.  0.
   -5000001    1    1    2    0    0 -0.71252842309E+02 -0.37246173207E+02  0.23606282774E+03  0.26099598387E+03  0.77000000000E+02 0.  0.
<mgrwt>
<rscale>  0 0.34242136E+03</rscale>
<asrwt>0</asrwt>
<pdfrwt beam="1">  1        2 0.31828816E+00 0.34242136E+03</pdfrwt>
<pdfrwt beam="2">  1       -2 0.21797892E-02 0.34242136E+03</pdfrwt>
<totfact> 0.46473127E+03</totfact>
</mgrwt>
</event>
<event>
 4    1  0.6122885E-004  0.1964732E+03  0.7818608E-02  0.1152749E+00
         -2   -1    0    0    0  501 -0.00000000000E+00  0.00000000000E+00  0.43619606270E+02  0.43619606344E+02  0.25500000000E-02 0. -1.
          2   -1    0    0  501    0  0.00000000000E+00 -0.00000000000E+00 -0.22124058982E+03  0.22124058983E+03  0.25500000000E-02 0.  1.
    5000001    1    1    2    0    0 -0.39841522978E+02  0.44236645349E+02 -0.70865432404E+02  0.12039575264E+03  0.77000000000E+02 0.  0.
   -5000001    1    1    2    0    0  0.39841522978E+02 -0.44236645349E+02 -0.10675555114E+03  0.14446444353E+03  0.77000000000E+02 0.  0.
<mgrwt>
<rscale>  0 0.19647318E+03</rscale>
<asrwt>0</asrwt>
<pdfrwt beam="1">  1        2 0.34037013E-01 0.19647318E+03</pdfrwt>
<pdfrwt beam="2">  1       -2 0.67107088E-02 0.19647318E+03</pdfrwt>
<totfact> 0.18298475E+04</totfact>
</mgrwt>
</event>
<event>
 4    1  0.6122885E-004  0.2603043E+03  0.7818608E-02  0.1106961E+00
          2   -1    0    0  501    0  0.00000000000E+00  0.00000000000E+00  0.36397869306E+03  0.36397869307E+03  0.25500000000E-02 0.  1.
         -2   -1    0    0    0  501 -0.00000000000E+00 -0.00000000000E+00 -0.46540029971E+02  0.46540030041E+02  0.25500000000E-02 0. -1.
    5000001    1    1    2    0    0 -0.77174954406E+02  0.67666926645E+02  0.12431916272E+03  0.17865900696E+03  0.77000000000E+02 0.  0.
   -5000001    1    1    2    0    0  0.77174954406E+02 -0.67666926645E+02  0.19311950037E+03  0.23185971615E+03  0.77000000000E+02 0.  0.
<mgrwt>
<rscale>  0 0.26030428E+03</rscale>
<asrwt>0</asrwt>
<pdfrwt beam="1">  1        2 0.55996721E-01 0.26030428E+03</pdfrwt>
<pdfrwt beam="2">  1       -2 0.71600047E-02 0.26030428E+03</pdfrwt>
<totfact> 0.98569259E+03</totfact>
</mgrwt>
</event>
<event>
 4    1  0.6122885E-004  0.5674409E+03  0.7818608E-02  0.9975358E-01
         -2   -1    0    0    0  501 -0.00000000000E+00  0.00000000000E+00  0.14010415483E+03  0.14010415485E+03  0.25500000000E-02 0. -1.
          2   -1    0    0  501    0  0.00000000000E+00 -0.00000000000E+00 -0.57455312947E+03  0.57455312947E+03  0.25500000000E-02 0.  1.
    5000001    1    1    2    0    0 -0.52686098928E+01 -0.25004683358E+03 -0.79161545439E+02  0.27339847752E+03  0.77000000000E+02 0.  0.
   -5000001    1    1    2    0    0  0.52686098928E+01  0.25004683358E+03 -0.35528742920E+03  0.44125880680E+03  0.77000000000E+02 0.  0.
<mgrwt>
<rscale>  0 0.56744085E+03</rscale>
<asrwt>0</asrwt>
<pdfrwt beam="1">  1        2 0.88392788E-01 0.56744085E+03</pdfrwt>
<pdfrwt beam="2">  1       -2 0.21554486E-01 0.56744085E+03</pdfrwt>
<totfact> 0.98052869E+02</totfact>
</mgrwt>
</event>
<event>
 4    1  0.6122885E-004  0.1971632E+03  0.7818608E-02  0.1152155E+00
         -2   -1    0    0    0  501 -0.00000000000E+00  0.00000000000E+00  0.73215823643E+01  0.73215828083E+01  0.25500000000E-02 0. -1.
          2   -1    0    0  501    0  0.00000000000E+00 -0.00000000000E+00 -0.13273534309E+04  0.13273534309E+04  0.25500000000E-02 0.  1.
    5000001    1    1    2    0    0  0.17720766803E+02 -0.48546947746E+02 -0.43362084034E+03  0.44342627898E+03  0.77000000000E+02 0.  0.
   -5000001    1    1    2    0    0 -0.17720766803E+02  0.48546947746E+02 -0.88641100823E+03  0.89124873477E+03  0.77000000000E+02 0.  0.
<mgrwt>
<rscale>  0 0.19716316E+03</rscale>
<asrwt>0</asrwt>
<pdfrwt beam="1">  1        2 0.20420803E+00 0.19716316E+03</pdfrwt>
<pdfrwt beam="2">  1       -2 0.11263984E-02 0.19716316E+03</pdfrwt>
<totfact> 0.29777068E+04</totfact>
</mgrwt>
</event>
<event>
 4    1  0.6122885E-004  0.2088731E+03  0.7818608E-02  0.1142461E+00
          2   -1    0    0  501    0  0.00000000000E+00  0.00000000000E+00  0.39477297497E+03  0.39477297498E+03  0.25500000000E-02 0.  1.
         -2   -1    0    0    0  501 -0.00000000000E+00 -0.00000000000E+00 -0.27628519534E+02  0.27628519652E+02  0.25500000000E-02 0. -1.
    5000001    1    1    2    0    0 -0.19498977550E+02 -0.49757245138E+02  0.90415214724E+02  0.13023019858E+03  0.77000000000E+02 0.  0.
   -5000001    1    1    2    0    0  0.19498977550E+02  0.49757245138E+02  0.27672924071E+03  0.29217129605E+03  0.77000000000E+02 0.  0.
<mgrwt>
<rscale>  0 0.20887310E+03</rscale>
<asrwt>0</asrwt>
<pdfrwt beam="1">  1        2 0.60734301E-01 0.20887310E+03</pdfrwt>
<pdfrwt beam="2">  1       -2 0.42505416E-02 0.20887310E+03</pdfrwt>
<totfact> 0.19745094E+04</totfact>
</mgrwt>
</event>
<event>
 4    1  0.6122885E-004  0.2959285E+03  0.7818608E-02  0.1087294E+00
         -2   -1    0    0    0  501 -0.00000000000E+00  0.00000000000E+00  0.14192350774E+03  0.14192350776E+03  0.25500000000E-02 0. -1.
          2   -1    0    0  501    0  0.00000000000E+00 -0.00000000000E+00 -0.15426214489E+03  0.15426214491E+03  0.25500000000E-02 0.  1.
    5000001    1    1    2    0    0  0.11683582235E+03 -0.29487971566E+02  0.31867317196E+02  0.14650827880E+03  0.77000000000E+02 0.  0.
   -5000001    1    1    2    0    0 -0.11683582235E+03  0.29487971566E+02 -0.44205954352E+02  0.14967737388E+03  0.77000000000E+02 0.  0.
<mgrwt>
<rscale>  0 0.29592854E+03</rscale>
<asrwt>0</asrwt>
<pdfrwt beam="1">  1        2 0.23732638E-01 0.29592854E+03</pdfrwt>
<pdfrwt beam="2">  1       -2 0.21834386E-01 0.29592854E+03</pdfrwt>
<totfact> 0.41073376E+03</totfact>
</mgrwt>
</event>
<event>
 4    1  0.6122885E-004  0.2340380E+03  0.7818608E-02  0.1123829E+00
         -2   -1    0    0    0  501 -0.00000000000E+00  0.00000000000E+00  0.66717069716E+01  0.66717074589E+01  0.25500000000E-02 0. -1.
          2   -1    0    0  501    0  0.00000000000E+00 -0.00000000000E+00 -0.20524656312E+04  0.20524656312E+04  0.25500000000E-02 0.  1.
    5000001    1    1    2    0    0  0.77404232946E+02  0.40823664105E+02 -0.93211530633E+03  0.93937528769E+03  0.77000000000E+02 0.  0.
   -5000001    1    1    2    0    0 -0.77404232946E+02 -0.40823664105E+02 -0.11136786179E+04  0.11197620510E+04  0.77000000000E+02 0.  0.
<mgrwt>
<rscale>  0 0.23403803E+03</rscale>
<asrwt>0</asrwt>
<pdfrwt beam="1">  1        2 0.31576344E+00 0.23403803E+03</pdfrwt>
<pdfrwt beam="2">  1       -2 0.10264181E-02 0.23403803E+03</pdfrwt>
<totfact> 0.14251566E+04</totfact>
</mgrwt>
</event>
<event>
 4    1  0.6122885E-004  0.1710903E+03  0.7818608E-02  0.1176716E+00
          2   -1    0    0  501    0  0.00000000000E+00  0.00000000000E+00  0.29581318345E+03  0.29581318347E+03  0.25500000000E-02 0.  1.
         -2   -1    0    0    0  501 -0.00000000000E+00 -0.00000000000E+00 -0.24738504236E+02  0.24738504367E+02  0.25500000000E-02 0. -1.
    5000001    1    1    2    0    0 -0.29481461533E+02  0.13683561995E+02  0.16970538846E+03  0.18917006982E+03  0.77000000000E+02 0.  0.
   -5000001    1    1    2    0    0  0.29481461533E+02 -0.13683561995E+02  0.10136929076E+03  0.13138161802E+03  0.77000000000E+02 0.  0.
<mgrwt>
<rscale>  0 0.17109034E+03</rscale>
<asrwt>0</asrwt>
<pdfrwt beam="1">  1        2 0.45509719E-01 0.17109034E+03</pdfrwt>
<pdfrwt beam="2">  1       -2 0.38059239E-02 0.17109034E+03</pdfrwt>
<totfact> 0.31220413E+04</totfact>
</mgrwt>
</event>
<event>
 4    1  0.6122885E-004  0.2717183E+03  0.7818608E-02  0.1100300E+00
         -2   -1    0    0    0  501 -0.00000000000E+00  0.00000000000E+00  0.33446696093E+02  0.33446696190E+02  0.25500000000E-02 0. -1.
          2   -1    0    0  501    0  0.00000000000E+00 -0.00000000000E+00 -0.55185458763E+03  0.55185458763E+03  0.25500000000E-02 0.  1.
    5000001    1    1    2    0    0 -0.66712690055E+02 -0.89776211154E+02 -0.24997364448E+03  0.28447526085E+03  0.77000000000E+02 0.  0.
   -5000001    1    1    2    0    0  0.66712690055E+02  0.89776211154E+02 -0.26843424706E+03  0.30082602297E+03  0.77000000000E+02 0.  0.
<mgrwt>
<rscale>  0 0.27171833E+03</rscale>
<asrwt>0</asrwt>
<pdfrwt beam="1">  1        2 0.84900699E-01 0.27171833E+03</pdfrwt>
<pdfrwt beam="2">  1       -2 0.51456460E-02 0.27171833E+03</pdfrwt>
<totfact> 0.10360532E+04</totfact>
</mgrwt>
</event>
<event>
 4    1  0.6122885E-004  0.3374745E+03  0.7818608E-02  0.1067877E+00
          2   -1    0    0  501    0  0.00000000000E+00  0.00000000000E+00  0.29348309069E+04  0.29348309069E+04  0.25500000000E-02 0.  1.
         -2   -1    0    0    0  501 -0.00000000000E+00 -0.00000000000E+00 -0.97015006581E+01  0.97015009932E+01  0.25500000000E-02 0. -1.
    5000001    1    1    2    0    0  0.11951314534E+03 -0.67628360782E+02  0.19923127253E+04  0.19985234505E+04  0.77000000000E+02 0.  0.
   -5000001    1    1    2    0    0 -0.11951314534E+03  0.67628360782E+02  0.93281668093E+03  0.94600895731E+03  0.77000000000E+02 0.  0.
<mgrwt>
<rscale>  0 0.33747453E+03</rscale>
<asrwt>0</asrwt>
<pdfrwt beam="1">  1        2 0.45151318E+00 0.33747453E+03</pdfrwt>
<pdfrwt beam="2">  1       -2 0.14925362E-02 0.33747453E+03</pdfrwt>
<totfact> 0.26888679E+03</totfact>
</mgrwt>
</event>
<event>
 4    1  0.6122885E-004  0.2660111E+03  0.7818608E-02  0.1103585E+00
          2   -1    0    0  501    0  0.00000000000E+00  0.00000000000E+00  0.10062584911E+03  0.10062584915E+03  0.25500000000E-02 0.  1.
         -2   -1    0    0    0  501 -0.00000000000E+00 -0.00000000000E+00 -0.17580446904E+03  0.17580446905E+03  0.25500000000E-02 0. -1.
    5000001    1    1    2    0    0  0.90842074556E+02 -0.58832490866E+02 -0.30395029705E+02  0.13625858623E+03  0.77000000000E+02 0.  0.
   -5000001    1    1    2    0    0 -0.90842074556E+02  0.58832490866E+02 -0.44783590216E+02  0.14017173197E+03  0.77000000000E+02 0.  0.
<mgrwt>
<rscale>  0 0.26601108E+03</rscale>
<asrwt>0</asrwt>
<pdfrwt beam="1">  1        2 0.15480900E-01 0.26601108E+03</pdfrwt>
<pdfrwt beam="2">  1       -2 0.27046841E-01 0.26601108E+03</pdfrwt>
<totfact> 0.45963272E+03</totfact>
</mgrwt>
</event>
<event>
 4    1  0.6122885E-004  0.2141519E+03  0.7818608E-02  0.1138320E+00
          2   -1    0    0  501    0  0.00000000000E+00  0.00000000000E+00  0.12253158431E+02  0.12253158696E+02  0.25500000000E-02 0.  1.
         -2   -1    0    0    0  501 -0.00000000000E+00 -0.00000000000E+00 -0.93569804146E+03  0.93569804146E+03  0.25500000000E-02 0. -1.
    5000001    1    1    2    0    0 -0.69988687454E+02  0.19625403074E+02 -0.39135809256E+03  0.40543030157E+03  0.77000000000E+02 0.  0.
   -5000001    1    1    2    0    0  0.69988687454E+02 -0.19625403074E+02 -0.53208679047E+03  0.54252089859E+03  0.77000000000E+02 0.  0.
<mgrwt>
<rscale>  0 0.21415188E+03</rscale>
<asrwt>0</asrwt>
<pdfrwt beam="1">  1        2 0.18851021E-02 0.21415188E+03</pdfrwt>
<pdfrwt beam="2">  1       -2 0.14395349E+00 0.21415188E+03</pdfrwt>
<totfact> 0.20690334E+03</totfact>
</mgrwt>
</event>
<event>
 4    1  0.6122885E-004  0.1856356E+03  0.7818608E-02  0.1162458E+00
          2   -1    0    0  501    0  0.00000000000E+00  0.00000000000E+00  0.23693894652E+04  0.23693894652E+04  0.25500000000E-02 0.  1.
         -2   -1    0    0    0  501 -0.00000000000E+00 -0.00000000000E+00 -0.36360199940E+01  0.36360208882E+01  0.25500000000E-02 0. -1.
    5000001    1    1    2    0    0 -0.32771409045E+02  0.39730793106E+02  0.11087258066E+04  0.11125890595E+04  0.77000000000E+02 0.  0.
   -5000001    1    1    2    0    0  0.32771409045E+02 -0.39730793106E+02  0.12570276386E+04  0.12604364266E+04  0.77000000000E+02 0.  0.
<mgrwt>
<rscale>  0 0.18563565E+03</rscale>
<asrwt>0</asrwt>
<pdfrwt beam="1">  1        2 0.36452115E+00 0.18563565E+03</pdfrwt>
<pdfrwt beam="2">  1       -2 0.55938823E-03 0.18563565E+03</pdfrwt>
<totfact> 0.23051390E+04</totfact>
</mgrwt>
</event>
<event>
 4    1  0.6122885E-004  0.2457139E+03  0.7818608E-02  0.1116044E+00
         -2   -1    0    0    0  501 -0.00000000000E+00  0.00000000000E+00  0.16319019211E+02  0.16319019410E+02  0.25500000000E-02 0. -1.
          2   -1    0    0  501    0  0.00000000000E+00 -0.00000000000E+00 -0.92492265900E+03  0.92492265901E+03  0.25500000000E-02 0.  1.
    5000001    1    1    2    0    0  0.62810317978E+01  0.95116179909E+02 -0.48819632253E+03  0.50334003256E+03  0.77000000000E+02 0.  0.
   -5000001    1    1    2    0    0 -0.62810317978E+01 -0.95116179909E+02 -0.42040731726E+03  0.43790164586E+03  0.77000000000E+02 0.  0.
<mgrwt>
<rscale>  0 0.24571390E+03</rscale>
<asrwt>0</asrwt>
<pdfrwt beam="1">  1        2 0.14229575E+00 0.24571390E+03</pdfrwt>
<pdfrwt beam="2">  1       -2 0.25106191E-02 0.24571390E+03</pdfrwt>
<totfact> 0.16023633E+04</totfact>
</mgrwt>
</event>
<event>
 4    1  0.6122885E-004  0.3454699E+03  0.7818608E-02  0.1064490E+00
         -2   -1    0    0    0  501 -0.00000000000E+00  0.00000000000E+00  0.10586716620E+04  0.10586716620E+04  0.25500000000E-02 0. -1.
          2   -1    0    0  501    0  0.00000000000E+00 -0.00000000000E+00 -0.28183769071E+02  0.28183769186E+02  0.25500000000E-02 0.  1.
    5000001    1    1    2    0    0 -0.15066949814E+03 -0.11530206119E+02  0.61835064253E+03  0.64118699335E+03  0.77000000000E+02 0.  0.
   -5000001    1    1    2    0    0  0.15066949814E+03  0.11530206119E+02  0.41213725041E+03  0.44566843786E+03  0.77000000000E+02 0.  0.
<mgrwt>
<rscale>  0 0.34546987E+03</rscale>
<asrwt>0</asrwt>
<pdfrwt beam="1">  1        2 0.43359643E-02 0.34546987E+03</pdfrwt>
<pdfrwt beam="2">  1       -2 0.16287257E+00 0.34546987E+03</pdfrwt>
<totfact> 0.48743320E+02</totfact>
</mgrwt>
</event>
<event>
 4    1  0.6122885E-004  0.2198177E+03  0.7818608E-02  0.1134019E+00
          2   -1    0    0  501    0  0.00000000000E+00  0.00000000000E+00  0.16214229922E+04  0.16214229922E+04  0.25500000000E-02 0.  1.
         -2   -1    0    0    0  501 -0.00000000000E+00 -0.00000000000E+00 -0.74502204113E+01  0.74502208477E+01  0.25500000000E-02 0. -1.
    5000001    1    1    2    0    0  0.21337465596E+02  0.69801520600E+02  0.10196215465E+04  0.10251266448E+04  0.77000000000E+02 0.  0.
   -5000001    1    1    2    0    0 -0.21337465596E+02 -0.69801520600E+02  0.59435122531E+03  0.60374656831E+03  0.77000000000E+02 0.  0.
<mgrwt>
<rscale>  0 0.21981773E+03</rscale>
<asrwt>0</asrwt>
<pdfrwt beam="1">  1        2 0.24944984E+00 0.21981773E+03</pdfrwt>
<pdfrwt beam="2">  1       -2 0.11461871E-02 0.21981773E+03</pdfrwt>
<totfact> 0.20356649E+04</totfact>
</mgrwt>
</event>
<event>
 4    1  0.6122885E-004  0.2696826E+03  0.7818608E-02  0.1101461E+00
          2   -1    0    0  501    0  0.00000000000E+00  0.00000000000E+00  0.19237889766E+04  0.19237889766E+04  0.25500000000E-02 0.  1.
         -2   -1    0    0    0  501 -0.00000000000E+00 -0.00000000000E+00 -0.94512324353E+01  0.94512327793E+01  0.25500000000E-02 0. -1.
    5000001    1    1    2    0    0 -0.75325732733E+02  0.61716983306E+02  0.13344720032E+04  0.13402341136E+04  0.77000000000E+02 0.  0.
   -5000001    1    1    2    0    0  0.75325732733E+02 -0.61716983306E+02  0.57986574092E+03  0.59300609570E+03  0.77000000000E+02 0.  0.
<mgrwt>
<rscale>  0 0.26968261E+03</rscale>
<asrwt>0</asrwt>
<pdfrwt beam="1">  1        2 0.29596801E+00 0.26968261E+03</pdfrwt>
<pdfrwt beam="2">  1       -2 0.14540335E-02 0.26968261E+03</pdfrwt>
<totfact> 0.10057648E+04</totfact>
</mgrwt>
</event>
<event>
 4    1  0.6122885E-004  0.2105286E+03  0.7818608E-02  0.1141148E+00
          2   -1    0    0  501    0  0.00000000000E+00  0.00000000000E+00  0.36116908250E+03  0.36116908251E+03  0.25500000000E-02 0.  1.
         -2   -1    0    0    0  501 -0.00000000000E+00 -0.00000000000E+00 -0.30679729891E+02  0.30679729997E+02  0.25500000000E-02 0. -1.
    5000001    1    1    2    0    0 -0.69733701403E+02  0.16489891277E+02  0.17288816377E+03  0.20237100286E+03  0.77000000000E+02 0.  0.
   -5000001    1    1    2    0    0  0.69733701403E+02 -0.16489891277E+02  0.15760118883E+03  0.18947780964E+03  0.77000000000E+02 0.  0.
<mgrwt>
<rscale>  0 0.21052857E+03</rscale>
<asrwt>0</asrwt>
<pdfrwt beam="1">  1        2 0.55564472E-01 0.21052857E+03</pdfrwt>
<pdfrwt beam="2">  1       -2 0.47199586E-02 0.21052857E+03</pdfrwt>
<totfact> 0.18570060E+04</totfact>
</mgrwt>
</event>
<event>
 4    1  0.6122885E-004  0.1809799E+03  0.7818608E-02  0.1166858E+00
          2   -1    0    0  501    0  0.00000000000E+00  0.00000000000E+00  0.17872625546E+03  0.17872625547E+03  0.25500000000E-02 0.  1.
         -2   -1    0    0    0  501 -0.00000000000E+00 -0.00000000000E+00 -0.45815508486E+02  0.45815508556E+02  0.25500000000E-02 0. -1.
    5000001    1    1    2    0    0 -0.18832595735E+02 -0.36307737347E+02  0.96502750738E+02  0.13005652369E+03  0.77000000000E+02 0.  0.
   -5000001    1    1    2    0    0  0.18832595735E+02  0.36307737347E+02  0.36407996234E+02  0.94485240345E+02  0.77000000000E+02 0.  0.
<mgrwt>
<rscale>  0 0.18097994E+03</rscale>
<asrwt>0</asrwt>
<pdfrwt beam="1">  1        2 0.27496347E-01 0.18097994E+03</pdfrwt>
<pdfrwt beam="2">  1       -2 0.70485398E-02 0.18097994E+03</pdfrwt>
<totfact> 0.21266998E+04</totfact>
</mgrwt>
</event>
<event>
 4    1  0.6122885E-004  0.2715888E+03  0.7818608E-02  0.1100374E+00
          2   -1    0    0  501    0  0.00000000000E+00  0.00000000000E+00  0.36980101804E+02  0.36980101891E+02  0.25500000000E-02 0.  1.
         -2   -1    0    0    0  501 -0.00000000000E+00 -0.00000000000E+00 -0.49864976055E+03  0.49864976055E+03  0.25500000000E-02 0. -1.
    5000001    1    1    2    0    0  0.95776056443E+02  0.50753235712E+02 -0.28528262232E+03  0.31474452898E+03  0.77000000000E+02 0.  0.
   -5000001    1    1    2    0    0 -0.95776056443E+02 -0.50753235712E+02 -0.17638703642E+03  0.22088533347E+03  0.77000000000E+02 0.  0.
<mgrwt>
<rscale>  0 0.27158880E+03</rscale>
<asrwt>0</asrwt>
<pdfrwt beam="1">  1        2 0.56892468E-02 0.27158880E+03</pdfrwt>
<pdfrwt beam="2">  1       -2 0.76715343E-01 0.27158880E+03</pdfrwt>
<totfact> 0.20650414E+03</totfact>
</mgrwt>
</event>
<event>
 4    1  0.6122885E-004  0.2067373E+03  0.7818608E-02  0.1144176E+00
          2   -1    0    0  501    0  0.00000000000E+00  0.00000000000E+00  0.14049143935E+04  0.14049143935E+04  0.25500000000E-02 0.  1.
         -2   -1    0    0    0  501 -0.00000000000E+00 -0.00000000000E+00 -0.76055036794E+01  0.76055041069E+01  0.25500000000E-02 0. -1.
    5000001    1    1    2    0    0 -0.56984867240E+02  0.33187777843E+02  0.56075118152E+03  0.56984172475E+03  0.77000000000E+02 0.  0.
   -5000001    1    1    2    0    0  0.56984867240E+02 -0.33187777843E+02  0.83655770831E+03  0.84267817287E+03  0.77000000000E+02 0.  0.
<mgrwt>
<rscale>  0 0.20673734E+03</rscale>
<asrwt>0</asrwt>
<pdfrwt beam="1">  1        2 0.21614046E+00 0.20673734E+03</pdfrwt>
<pdfrwt beam="2">  1       -2 0.11700787E-02 0.20673734E+03</pdfrwt>
<totfact> 0.25659109E+04</totfact>
</mgrwt>
</event>
<event>
 4    1  0.6122885E-004  0.4009895E+03  0.7818608E-02  0.1043438E+00
          2   -1    0    0  501    0  0.00000000000E+00  0.00000000000E+00  0.98032076937E+03  0.98032076937E+03  0.25500000000E-02 0.  1.
         -2   -1    0    0    0  501 -0.00000000000E+00 -0.00000000000E+00 -0.41005095842E+02  0.41005095922E+02  0.25500000000E-02 0. -1.
    5000001    1    1    2    0    0  0.14195580198E+03  0.10145916148E+01  0.77227769131E+03  0.78898308702E+03  0.77000000000E+02 0.  0.
   -5000001    1    1    2    0    0 -0.14195580198E+03 -0.10145916148E+01  0.16703798221E+03  0.23234277827E+03  0.77000000000E+02 0.  0.
<mgrwt>
<rscale>  0 0.40098951E+03</rscale>
<asrwt>0</asrwt>
<pdfrwt beam="1">  1        2 0.15081857E+00 0.40098951E+03</pdfrwt>
<pdfrwt beam="2">  1       -2 0.63084765E-02 0.40098951E+03</pdfrwt>
<totfact> 0.37145903E+03</totfact>
</mgrwt>
</event>
<event>
 4    1  0.6122885E-004  0.2168041E+03  0.7818608E-02  0.1136288E+00
          2   -1    0    0  501    0  0.00000000000E+00  0.00000000000E+00  0.51804510700E+03  0.51804510701E+03  0.25500000000E-02 0.  1.
         -2   -1    0    0    0  501 -0.00000000000E+00 -0.00000000000E+00 -0.22683370042E+02  0.22683370186E+02  0.25500000000E-02 0. -1.
    5000001    1    1    2    0    0  0.42289599766E+02 -0.45890878425E+02  0.35718311992E+03  0.37067932790E+03  0.77000000000E+02 0.  0.
   -5000001    1    1    2    0    0 -0.42289599766E+02  0.45890878425E+02  0.13817861704E+03  0.17004914930E+03  0.77000000000E+02 0.  0.
<mgrwt>
<rscale>  0 0.21680414E+03</rscale>
<asrwt>0</asrwt>
<pdfrwt beam="1">  1        2 0.79699242E-01 0.21680414E+03</pdfrwt>
<pdfrwt beam="2">  1       -2 0.34897495E-02 0.21680414E+03</pdfrwt>
<totfact> 0.19733518E+04</totfact>
</mgrwt>
</event>
<event>
 4    1  0.6122885E-004  0.1853754E+03  0.7818608E-02  0.1162700E+00
          2   -1    0    0  501    0  0.00000000000E+00  0.00000000000E+00  0.74647784374E+02  0.74647784418E+02  0.25500000000E-02 0.  1.
         -2   -1    0    0    0  501 -0.00000000000E+00 -0.00000000000E+00 -0.11508728423E+03  0.11508728425E+03  0.25500000000E-02 0. -1.
    5000001    1    1    2    0    0  0.40077876704E+02  0.18722356921E+02  0.69613102708E+01  0.89074253803E+02  0.77000000000E+02 0.  0.
   -5000001    1    1    2    0    0 -0.40077876704E+02 -0.18722356921E+02 -0.47400810123E+02  0.10066081487E+03  0.77000000000E+02 0.  0.
<mgrwt>
<rscale>  0 0.18537541E+03</rscale>
<asrwt>0</asrwt>
<pdfrwt beam="1">  1        2 0.11484275E-01 0.18537541E+03</pdfrwt>
<pdfrwt beam="2">  1       -2 0.17705736E-01 0.18537541E+03</pdfrwt>
<totfact> 0.13395605E+04</totfact>
</mgrwt>
</event>
<event>
 4    1  0.6122885E-004  0.1919647E+03  0.7818608E-02  0.1156701E+00
          2   -1    0    0  501    0  0.00000000000E+00  0.00000000000E+00  0.93929881862E+03  0.93929881863E+03  0.25500000000E-02 0.  1.
         -2   -1    0    0    0  501 -0.00000000000E+00 -0.00000000000E+00 -0.98079650016E+01  0.98079653331E+01  0.25500000000E-02 0. -1.
    5000001    1    1    2    0    0 -0.66251793603E+01 -0.56426333291E+02  0.42781737657E+03  0.43838856257E+03  0.77000000000E+02 0.  0.
   -5000001    1    1    2    0    0  0.66251793603E+01  0.56426333291E+02  0.50167347705E+03  0.51071822139E+03  0.77000000000E+02 0.  0.
<mgrwt>
<rscale>  0 0.19196469E+03</rscale>
<asrwt>0</asrwt>
<pdfrwt beam="1">  1        2 0.14450748E+00 0.19196469E+03</pdfrwt>
<pdfrwt beam="2">  1       -2 0.15089180E-02 0.19196469E+03</pdfrwt>
<totfact> 0.32597586E+04</totfact>
</mgrwt>
</event>
<event>
 4    1  0.6122885E-004  0.2662077E+03  0.7818608E-02  0.1103470E+00
         -2   -1    0    0    0  501 -0.00000000000E+00  0.00000000000E+00  0.13710182094E+02  0.13710182331E+02  0.25500000000E-02 0.  1.
          2   -1    0    0  501    0  0.00000000000E+00 -0.00000000000E+00 -0.12922249187E+04  0.12922249187E+04  0.25500000000E-02 0. -1.
    5000001    1    1    2    0    0  0.61048511747E+02  0.88752497238E+02 -0.70574951239E+03  0.71806357712E+03  0.77000000000E+02 0.  0.
   -5000001    1    1    2    0    0 -0.61048511747E+02 -0.88752497238E+02 -0.57276522422E+03  0.58787152391E+03  0.77000000000E+02 0.  0.
<mgrwt>
<rscale>  0 0.26620773E+03</rscale>
<asrwt>0</asrwt>
<pdfrwt beam="1">  1        2 0.19880374E+00 0.26620773E+03</pdfrwt>
<pdfrwt beam="2">  1       -2 0.21092598E-02 0.26620773E+03</pdfrwt>
<totfact> 0.12641550E+04</totfact>
</mgrwt>
</event>
<event>
 4    1  0.6122885E-004  0.4512385E+03  0.7818608E-02  0.1027353E+00
         -2   -1    0    0    0  501 -0.00000000000E+00  0.00000000000E+00  0.41766848145E+03  0.41766848145E+03  0.25500000000E-02 0. -1.
          2   -1    0    0  501    0  0.00000000000E+00 -0.00000000000E+00 -0.12187666673E+03  0.12187666676E+03  0.25500000000E-02 0.  1.
    5000001    1    1    2    0    0 -0.18464120774E+03  0.24126596802E+02  0.26542388312E+02  0.20324361403E+03  0.77000000000E+02 0.  0.
   -5000001    1    1    2    0    0  0.18464120774E+03 -0.24126596802E+02  0.26924942641E+03  0.33630153417E+03  0.77000000000E+02 0.  0.
<mgrwt>
<rscale>  0 0.45123848E+03</rscale>
<asrwt>0</asrwt>
<pdfrwt beam="1">  1        2 0.18750256E-01 0.45123848E+03</pdfrwt>
<pdfrwt beam="2">  1       -2 0.64256691E-01 0.45123848E+03</pdfrwt>
<totfact> 0.68989807E+02</totfact>
</mgrwt>
</event>
<event>
 4    1  0.6122885E-004  0.3200090E+03  0.7818608E-02  0.1075645E+00
         -2   -1    0    0    0  501 -0.00000000000E+00  0.00000000000E+00  0.35435429814E+02  0.35435429906E+02  0.25500000000E-02 0. -1.
          2   -1    0    0  501    0  0.00000000000E+00 -0.00000000000E+00 -0.72248161179E+03  0.72248161179E+03  0.25500000000E-02 0.  1.
    5000001    1    1    2    0    0 -0.44116917289E+02 -0.12783599105E+03 -0.25540933667E+03  0.29908405550E+03  0.77000000000E+02 0.  0.
   -5000001    1    1    2    0    0  0.44116917289E+02  0.12783599105E+03 -0.43163684531E+03  0.45883298620E+03  0.77000000000E+02 0.  0.
<mgrwt>
<rscale>  0 0.32000904E+03</rscale>
<asrwt>0</asrwt>
<pdfrwt beam="1">  1        2 0.11115101E+00 0.32000904E+03</pdfrwt>
<pdfrwt beam="2">  1       -2 0.54516051E-02 0.32000904E+03</pdfrwt>
<totfact> 0.69336730E+03</totfact>
</mgrwt>
</event>
<event>
 4    1  0.6122885E-004  0.4228721E+03  0.7818608E-02  0.1036136E+00
          2   -1    0    0  501    0  0.00000000000E+00  0.00000000000E+00  0.28878911337E+04  0.28878911337E+04  0.25500000000E-02 0.  1.
         -2   -1    0    0    0  501 -0.00000000000E+00 -0.00000000000E+00 -0.15480227296E+02  0.15480227506E+02  0.25500000000E-02 0. -1.
    5000001    1    1    2    0    0 -0.17461402967E+03  0.59862955282E+02  0.96537824509E+03  0.98587919588E+03  0.77000000000E+02 0.  0.
   -5000001    1    1    2    0    0  0.17461402967E+03 -0.59862955282E+02  0.19070326613E+04  0.19174921653E+04  0.77000000000E+02 0.  0.
<mgrwt>
<rscale>  0 0.42287214E+03</rscale>
<asrwt>0</asrwt>
<pdfrwt beam="1">  1        2 0.44429074E+00 0.42287214E+03</pdfrwt>
<pdfrwt beam="2">  1       -2 0.23815745E-02 0.42287214E+03</pdfrwt>
<totfact> 0.14205904E+03</totfact>
</mgrwt>
</event>
<event>
 4    1  0.6122885E-004  0.2310476E+03  0.7818608E-02  0.1125905E+00
         -2   -1    0    0    0  501 -0.00000000000E+00  0.00000000000E+00  0.67612521373E+02  0.67612521421E+02  0.25500000000E-02 0. -1.
          2   -1    0    0  501    0  0.00000000000E+00 -0.00000000000E+00 -0.19738570553E+03  0.19738570555E+03  0.25500000000E-02 0.  1.
    5000001    1    1    2    0    0 -0.88207541756E+00  0.79382234076E+02 -0.26598159830E+02  0.11374875494E+03  0.77000000000E+02 0.  0.
   -5000001    1    1    2    0    0  0.88207541756E+00 -0.79382234076E+02 -0.10317502433E+03  0.15124947203E+03  0.77000000000E+02 0.  0.
<mgrwt>
<rscale>  0 0.23104757E+03</rscale>
<asrwt>0</asrwt>
<pdfrwt beam="1">  1        2 0.30367031E-01 0.23104757E+03</pdfrwt>
<pdfrwt beam="2">  1       -2 0.10401927E-01 0.23104757E+03</pdfrwt>
<totfact> 0.10556300E+04</totfact>
</mgrwt>
</event>
<event>
 4    1  0.6122885E-004  0.2862397E+03  0.7818608E-02  0.1092329E+00
          2   -1    0    0  501    0  0.00000000000E+00  0.00000000000E+00  0.12466354202E+03  0.12466354205E+03  0.25500000000E-02 0.  1.
         -2   -1    0    0    0  501 -0.00000000000E+00 -0.00000000000E+00 -0.16430858855E+03  0.16430858857E+03  0.25500000000E-02 0. -1.
    5000001    1    1    2    0    0 -0.55017173314E+02 -0.10244442410E+03 -0.52262445648E+02  0.14893660602E+03  0.77000000000E+02 0.  0.
   -5000001    1    1    2    0    0  0.55017173314E+02  0.10244442410E+03  0.12617399117E+02  0.14003552460E+03  0.77000000000E+02 0.  0.
<mgrwt>
<rscale>  0 0.28623969E+03</rscale>
<asrwt>0</asrwt>
<pdfrwt beam="1">  1        2 0.19179006E-01 0.28623969E+03</pdfrwt>
<pdfrwt beam="2">  1       -2 0.25278245E-01 0.28623969E+03</pdfrwt>
<totfact> 0.40469935E+03</totfact>
</mgrwt>
</event>
<event>
 4    1  0.6122885E-004  0.3355527E+03  0.7818608E-02  0.1068706E+00
         -2   -1    0    0    0  501 -0.00000000000E+00  0.00000000000E+00  0.18359954026E+04  0.18359954026E+04  0.25500000000E-02 0. -1.
          2   -1    0    0  501    0  0.00000000000E+00 -0.00000000000E+00 -0.15331687996E+02  0.15331688208E+02  0.25500000000E-02 0.  1.
    5000001    1    1    2    0    0  0.56765116016E+01 -0.13008635677E+03  0.13106736056E+04  0.13193744667E+04  0.77000000000E+02 0.  0.
   -5000001    1    1    2    0    0 -0.56765116016E+01  0.13008635677E+03  0.50999010901E+03  0.53195262410E+03  0.77000000000E+02 0.  0.
<mgrwt>
<rscale>  0 0.33555273E+03</rscale>
<asrwt>0</asrwt>
<pdfrwt beam="1">  1        2 0.23587222E-02 0.33555273E+03</pdfrwt>
<pdfrwt beam="2">  1       -2 0.28246071E+00 0.33555273E+03</pdfrwt>
<totfact> 0.20141244E+02</totfact>
</mgrwt>
</event>
<event>
 4    1  0.6122885E-004  0.3696090E+03  0.7818608E-02  0.1054843E+00
          2   -1    0    0  501    0  0.00000000000E+00  0.00000000000E+00  0.12886420641E+03  0.12886420643E+03  0.25500000000E-02 0.  1.
         -2   -1    0    0    0  501 -0.00000000000E+00 -0.00000000000E+00 -0.26502868649E+03  0.26502868650E+03  0.25500000000E-02 0. -1.
    5000001    1    1    2    0    0  0.93700434497E+02 -0.12963771021E+03 -0.12281826854E+03  0.21586809496E+03  0.77000000000E+02 0.  0.
   -5000001    1    1    2    0    0 -0.93700434497E+02  0.12963771021E+03 -0.13346211536E+02  0.17802479798E+03  0.77000000000E+02 0.  0.
<mgrwt>
<rscale>  0 0.36960904E+03</rscale>
<asrwt>0</asrwt>
<pdfrwt beam="1">  1        2 0.19825263E-01 0.36960904E+03</pdfrwt>
<pdfrwt beam="2">  1       -2 0.40773644E-01 0.36960904E+03</pdfrwt>
<totfact> 0.16204446E+03</totfact>
</mgrwt>
</event>
<event>
 4    1  0.6122885E-004  0.2336225E+03  0.7818608E-02  0.1124116E+00
          2   -1    0    0  501    0  0.00000000000E+00  0.00000000000E+00  0.45631767478E+03  0.45631767478E+03  0.25500000000E-02 0.  1.
         -2   -1    0    0    0  501 -0.00000000000E+00 -0.00000000000E+00 -0.29902129928E+02  0.29902130037E+02  0.25500000000E-02 0. -1.
    5000001    1    1    2    0    0 -0.86578046516E+02  0.14794707307E+02  0.21551494800E+03  0.24513329907E+03  0.77000000000E+02 0.  0.
   -5000001    1    1    2    0    0  0.86578046516E+02 -0.14794707307E+02  0.21090059685E+03  0.24108650575E+03  0.77000000000E+02 0.  0.
<mgrwt>
<rscale>  0 0.23362252E+03</rscale>
<asrwt>0</asrwt>
<pdfrwt beam="1">  1        2 0.70202718E-01 0.23362252E+03</pdfrwt>
<pdfrwt beam="2">  1       -2 0.46003278E-02 0.23362252E+03</pdfrwt>
<totfact> 0.15077161E+04</totfact>
</mgrwt>
</event>
<event>
 4    1  0.6122885E-004  0.2331368E+03  0.7818608E-02  0.1124451E+00
         -2   -1    0    0    0  501 -0.00000000000E+00  0.00000000000E+00  0.46421661195E+03  0.46421661196E+03  0.25500000000E-02 0. -1.
          2   -1    0    0  501    0  0.00000000000E+00 -0.00000000000E+00 -0.29271243893E+02  0.29271244004E+02  0.25500000000E-02 0.  1.
    5000001    1    1    2    0    0  0.68810371394E+01 -0.83820198423E+02  0.16623104530E+03  0.20158108730E+03  0.77000000000E+02 0.  0.
   -5000001    1    1    2    0    0 -0.68810371394E+01  0.83820198423E+02  0.26871432276E+03  0.29190676866E+03  0.77000000000E+02 0.  0.
<mgrwt>
<rscale>  0 0.23313685E+03</rscale>
<asrwt>0</asrwt>
<pdfrwt beam="1">  1        2 0.45032686E-02 0.23313685E+03</pdfrwt>
<pdfrwt beam="2">  1       -2 0.71417935E-01 0.23313685E+03</pdfrwt>
<totfact> 0.32637828E+03</totfact>
</mgrwt>
</event>
<event>
 4    1  0.6122885E-004  0.2153868E+03  0.7818608E-02  0.1137370E+00
         -2   -1    0    0    0  501 -0.00000000000E+00  0.00000000000E+00  0.11313731135E+02  0.11313731422E+02  0.25500000000E-02 0. -1.
          2   -1    0    0  501    0  0.00000000000E+00 -0.00000000000E+00 -0.10251144099E+04  0.10251144099E+04  0.25500000000E-02 0.  1.
    5000001    1    1    2    0    0  0.50138725699E+02  0.45839667158E+02 -0.35070106290E+03  0.36542496141E+03  0.77000000000E+02 0.  0.
   -5000001    1    1    2    0    0 -0.50138725699E+02 -0.45839667158E+02 -0.66309961582E+03  0.67100317987E+03  0.77000000000E+02 0.  0.
<mgrwt>
<rscale>  0 0.21538681E+03</rscale>
<asrwt>0</asrwt>
<pdfrwt beam="1">  1        2 0.15770984E+00 0.21538681E+03</pdfrwt>
<pdfrwt beam="2">  1       -2 0.17405749E-02 0.21538681E+03</pdfrwt>
<totfact> 0.23636599E+04</totfact>
</mgrwt>
</event>
<event>
 4    1  0.6122885E-004  0.2271057E+03  0.7818608E-02  0.1128694E+00
          2   -1    0    0  501    0  0.00000000000E+00  0.00000000000E+00  0.24029930148E+04  0.24029930148E+04  0.25500000000E-02 0.  1.
         -2   -1    0    0    0  501 -0.00000000000E+00 -0.00000000000E+00 -0.53659117885E+01  0.53659123945E+01  0.25500000000E-02 0. -1.
    5000001    1    1    2    0    0 -0.44449032349E+02 -0.21722415724E+02  0.19115851911E+04  0.19137749404E+04  0.77000000000E+02 0.  0.
   -5000001    1    1    2    0    0  0.44449032349E+02  0.21722415724E+02  0.48604191194E+03  0.49458398679E+03  0.77000000000E+02 0.  0.
<mgrwt>
<rscale>  0 0.22710570E+03</rscale>
<asrwt>0</asrwt>
<pdfrwt beam="1">  1        2 0.36969167E+00 0.22710570E+03</pdfrwt>
<pdfrwt beam="2">  1       -2 0.82552397E-03 0.22710570E+03</pdfrwt>
<totfact> 0.12718359E+04</totfact>
</mgrwt>
</event>
<event>
 4    1  0.6122885E-004  0.2342364E+03  0.7818608E-02  0.1123693E+00
         -2   -1    0    0    0  501 -0.00000000000E+00  0.00000000000E+00  0.91767289073E+01  0.91767292616E+01  0.25500000000E-02 0. -1.
          2   -1    0    0  501    0  0.00000000000E+00 -0.00000000000E+00 -0.14947240996E+04  0.14947240996E+04  0.25500000000E-02 0.  1.
    5000001    1    1    2    0    0  0.49475520382E+02  0.19224627475E+02 -0.11954153097E+04  0.11990680448E+04  0.77000000000E+02 0.  0.
   -5000001    1    1    2    0    0 -0.49475520382E+02 -0.19224627475E+02 -0.29013206101E+03  0.30483278407E+03  0.77000000000E+02 0.  0.
<mgrwt>
<rscale>  0 0.23423645E+03</rscale>
<asrwt>0</asrwt>
<pdfrwt beam="1">  1        2 0.22995736E+00 0.23423645E+03</pdfrwt>
<pdfrwt beam="2">  1       -2 0.14118057E-02 0.23423645E+03</pdfrwt>
<totfact> 0.17592373E+04</totfact>
</mgrwt>
</event>
<event>
 4    1  0.6122885E-004  0.2960342E+03  0.7818608E-02  0.1087240E+00
          2   -1    0    0  501    0  0.00000000000E+00  0.00000000000E+00  0.10721240672E+04  0.10721240672E+04  0.25500000000E-02 0.  1.
         -2   -1    0    0    0  501 -0.00000000000E+00 -0.00000000000E+00 -0.20435190692E+02  0.20435190851E+02  0.25500000000E-02 0. -1.
    5000001    1    1    2    0    0  0.24602781475E+02 -0.85785157730E+02  0.85626954695E+03  0.86434421799E+03  0.77000000000E+02 0.  0.
   -5000001    1    1    2    0    0 -0.24602781475E+02  0.85785157730E+02  0.19541932952E+03  0.22821504003E+03  0.77000000000E+02 0.  0.
<mgrwt>
<rscale>  0 0.29603419E+03</rscale>
<asrwt>0</asrwt>
<pdfrwt beam="1">  1        2 0.16494219E+00 0.29603419E+03</pdfrwt>
<pdfrwt beam="2">  1       -2 0.31438751E-02 0.29603419E+03</pdfrwt>
<totfact> 0.93784172E+03</totfact>
</mgrwt>
</event>
<event>
 4    1  0.6122885E-004  0.2013854E+03  0.7818608E-02  0.1148575E+00
          2   -1    0    0  501    0  0.00000000000E+00  0.00000000000E+00  0.16105007495E+03  0.16105007497E+03  0.25500000000E-02 0.  1.
         -2   -1    0    0    0  501 -0.00000000000E+00 -0.00000000000E+00 -0.62955671063E+02  0.62955671114E+02  0.25500000000E-02 0. -1.
    5000001    1    1    2    0    0 -0.32154793191E+02 -0.55625560171E+02  0.59112466075E+02  0.11641055500E+03  0.77000000000E+02 0.  0.
   -5000001    1    1    2    0    0  0.32154793191E+02  0.55625560171E+02  0.38981937813E+02  0.10759519109E+03  0.77000000000E+02 0.  0.
<mgrwt>
<rscale>  0 0.20138536E+03</rscale>
<asrwt>0</asrwt>
<pdfrwt beam="1">  1        2 0.24776934E-01 0.20138536E+03</pdfrwt>
<pdfrwt beam="2">  1       -2 0.96854880E-02 0.20138536E+03</pdfrwt>
<totfact> 0.14665045E+04</totfact>
</mgrwt>
</event>
<event>
 4    1  0.6122885E-004  0.2042147E+03  0.7818608E-02  0.1146231E+00
         -2   -1    0    0    0  501 -0.00000000000E+00  0.00000000000E+00  0.93498115900E+01  0.93498119377E+01  0.25500000000E-02 0. -1.
          2   -1    0    0  501    0  0.00000000000E+00 -0.00000000000E+00 -0.11150935550E+04  0.11150935550E+04  0.25500000000E-02 0.  1.
    5000001    1    1    2    0    0 -0.82307871437E+01 -0.61235418769E+02 -0.40935238580E+03  0.42108894325E+03  0.77000000000E+02 0.  0.
   -5000001    1    1    2    0    0  0.82307871437E+01  0.61235418769E+02 -0.69639135760E+03  0.70335442368E+03  0.77000000000E+02 0.  0.
<mgrwt>
<rscale>  0 0.20421474E+03</rscale>
<asrwt>0</asrwt>
<pdfrwt beam="1">  1        2 0.17155275E+00 0.20421474E+03</pdfrwt>
<pdfrwt beam="2">  1       -2 0.14384335E-02 0.20421474E+03</pdfrwt>
<totfact> 0.27527215E+04</totfact>
</mgrwt>
</event>
<event>
 4    1  0.6122885E-004  0.1936318E+03  0.7818608E-02  0.1155226E+00
          2   -1    0    0  501    0  0.00000000000E+00  0.00000000000E+00  0.18933578687E+03  0.18933578689E+03  0.25500000000E-02 0.  1.
         -2   -1    0    0    0  501 -0.00000000000E+00 -0.00000000000E+00 -0.49506313714E+02  0.49506313780E+02  0.25500000000E-02 0. -1.
    5000001    1    1    2    0    0  0.33874546238E+02 -0.42511743653E+02  0.97207511015E+02  0.13539953260E+03  0.77000000000E+02 0.  0.
   -5000001    1    1    2    0    0 -0.33874546238E+02  0.42511743653E+02  0.42621962143E+02  0.10344256807E+03  0.77000000000E+02 0.  0.
<mgrwt>
<rscale>  0 0.19363178E+03</rscale>
<asrwt>0</asrwt>
<pdfrwt beam="1">  1        2 0.29128582E-01 0.19363178E+03</pdfrwt>
<pdfrwt beam="2">  1       -2 0.76163560E-02 0.19363178E+03</pdfrwt>
<totfact> 0.17810254E+04</totfact>
</mgrwt>
</event>
<event>
 4    1  0.6122885E-004  0.2393951E+03  0.7818608E-02  0.1120196E+00
          2   -1    0    0  501    0  0.00000000000E+00  0.00000000000E+00  0.13575255598E+04  0.13575255598E+04  0.25500000000E-02 0.  1.
         -2   -1    0    0    0  501 -0.00000000000E+00 -0.00000000000E+00 -0.10554130292E+02  0.10554130600E+02  0.25500000000E-02 0. -1.
    5000001    1    1    2    0    0 -0.26802088755E+02 -0.71573470684E+02  0.38448794576E+03  0.39950105644E+03  0.77000000000E+02 0.  0.
   -5000001    1    1    2    0    0  0.26802088755E+02  0.71573470684E+02  0.96248348372E+03  0.96857863392E+03  0.77000000000E+02 0.  0.
<mgrwt>
<rscale>  0 0.23939509E+03</rscale>
<asrwt>0</asrwt>
<pdfrwt beam="1">  1        2 0.20885012E+00 0.23939509E+03</pdfrwt>
<pdfrwt beam="2">  1       -2 0.16237121E-02 0.23939509E+03</pdfrwt>
<totfact> 0.17020323E+04</totfact>
</mgrwt>
</event>
<event>
 4    1  0.6122885E-004  0.2226479E+03  0.7818608E-02  0.1131924E+00
         -2   -1    0    0    0  501 -0.00000000000E+00  0.00000000000E+00  0.16950924024E+02  0.16950924216E+02  0.25500000000E-02 0. -1.
          2   -1    0    0  501    0  0.00000000000E+00 -0.00000000000E+00 -0.73111211529E+03  0.73111211530E+03  0.25500000000E-02 0.  1.
    5000001    1    1    2    0    0 -0.10807919958E+02  0.75255555965E+02 -0.26922100003E+03  0.29015367772E+03  0.77000000000E+02 0.  0.
   -5000001    1    1    2    0    0  0.10807919958E+02 -0.75255555965E+02 -0.44494019124E+03  0.45790936179E+03  0.77000000000E+02 0.  0.
<mgrwt>
<rscale>  0 0.22264794E+03</rscale>
<asrwt>0</asrwt>
<pdfrwt beam="1">  1        2 0.11247876E+00 0.22264794E+03</pdfrwt>
<pdfrwt beam="2">  1       -2 0.26078350E-02 0.22264794E+03</pdfrwt>
<totfact> 0.20380418E+04</totfact>
</mgrwt>
</event>
<event>
 4    1  0.6122885E-004  0.2694349E+03  0.7818608E-02  0.1101603E+00
          2   -1    0    0  501    0  0.00000000000E+00  0.00000000000E+00  0.13146784470E+04  0.13146784470E+04  0.25500000000E-02 0.  1.
         -2   -1    0    0    0  501 -0.00000000000E+00 -0.00000000000E+00 -0.13804734532E+02  0.13804734768E+02  0.25500000000E-02 0. -1.
    5000001    1    1    2    0    0 -0.10655263930E+03  0.63009448199E+01  0.79219737266E+03  0.80305594083E+03  0.77000000000E+02 0.  0.
   -5000001    1    1    2    0    0  0.10655263930E+03 -0.63009448199E+01  0.50867633984E+03  0.52542724097E+03  0.77000000000E+02 0.  0.
<mgrwt>
<rscale>  0 0.26943487E+03</rscale>
<asrwt>0</asrwt>
<pdfrwt beam="1">  1        2 0.20225822E+00 0.26943487E+03</pdfrwt>
<pdfrwt beam="2">  1       -2 0.21238053E-02 0.26943487E+03</pdfrwt>
<totfact> 0.12165694E+04</totfact>
</mgrwt>
</event>
<event>
 4    1  0.6122885E-004  0.2091354E+03  0.7818608E-02  0.1142252E+00
         -2   -1    0    0    0  501 -0.00000000000E+00  0.00000000000E+00  0.86292230774E+02  0.86292230812E+02  0.25500000000E-02 0. -1.
          2   -1    0    0  501    0  0.00000000000E+00 -0.00000000000E+00 -0.12671370732E+03  0.12671370734E+03  0.25500000000E-02 0.  1.
    5000001    1    1    2    0    0  0.50347813118E+02  0.46024600530E+02 -0.39326202419E+02  0.11013045145E+03  0.77000000000E+02 0.  0.
   -5000001    1    1    2    0    0 -0.50347813118E+02 -0.46024600530E+02 -0.10952741244E+01  0.10287548671E+03  0.77000000000E+02 0.  0.
<mgrwt>
<rscale>  0 0.20913544E+03</rscale>
<asrwt>0</asrwt>
<pdfrwt beam="1">  1        2 0.19494417E-01 0.20913544E+03</pdfrwt>
<pdfrwt beam="2">  1       -2 0.13275728E-01 0.20913544E+03</pdfrwt>
<totfact> 0.11632962E+04</totfact>
</mgrwt>
</event>
<event>
 4    1  0.6122885E-004  0.3819479E+03  0.7818608E-02  0.1050216E+00
         -2   -1    0    0    0  501 -0.00000000000E+00  0.00000000000E+00  0.19639353237E+02  0.19639353403E+02  0.25500000000E-02 0. -1.
          2   -1    0    0  501    0  0.00000000000E+00 -0.00000000000E+00 -0.18570389788E+04  0.18570389788E+04  0.25500000000E-02 0.  1.
    5000001    1    1    2    0    0 -0.86722696210E+02 -0.15095526135E+03 -0.99381725738E+03  0.10118844094E+04  0.77000000000E+02 0.  0.
   -5000001    1    1    2    0    0  0.86722696210E+02  0.15095526135E+03 -0.84358236816E+03  0.86479392275E+03  0.77000000000E+02 0.  0.
<mgrwt>
<rscale>  0 0.38194787E+03</rscale>
<asrwt>0</asrwt>
<pdfrwt beam="1">  1        2 0.28569817E+00 0.38194787E+03</pdfrwt>
<pdfrwt beam="2">  1       -2 0.30214404E-02 0.38194787E+03</pdfrwt>
<totfact> 0.36948476E+03</totfact>
</mgrwt>
</event>
<event>
 4    1  0.6122885E-004  0.4003654E+03  0.7818608E-02  0.1043653E+00
         -2   -1    0    0    0  501 -0.00000000000E+00  0.00000000000E+00  0.23050551708E+03  0.23050551710E+03  0.25500000000E-02 0. -1.
          2   -1    0    0  501    0  0.00000000000E+00 -0.00000000000E+00 -0.17384884546E+03  0.17384884548E+03  0.25500000000E-02 0.  1.
    5000001    1    1    2    0    0  0.32381196165E+02 -0.36589316816E+02  0.20830820147E+03  0.22739530947E+03  0.77000000000E+02 0.  0.
   -5000001    1    1    2    0    0 -0.32381196165E+02  0.36589316816E+02 -0.15165152985E+03  0.17695905310E+03  0.77000000000E+02 0.  0.
<mgrwt>
<rscale>  0 0.40036542E+03</rscale>
<asrwt>0</asrwt>
<pdfrwt beam="1">  1        2 0.26745976E-01 0.40036542E+03</pdfrwt>
<pdfrwt beam="2">  1       -2 0.35462387E-01 0.40036542E+03</pdfrwt>
<totfact> 0.15045825E+03</totfact>
</mgrwt>
</event>
<event>
 4    1  0.6122885E-004  0.2243768E+03  0.7818608E-02  0.1130661E+00
          2   -1    0    0  501    0  0.00000000000E+00  0.00000000000E+00  0.28198366312E+03  0.28198366313E+03  0.25500000000E-02 0.  1.
         -2   -1    0    0    0  501 -0.00000000000E+00 -0.00000000000E+00 -0.44634613463E+02  0.44634613536E+02  0.25500000000E-02 0. -1.
    5000001    1    1    2    0    0  0.32317893573E+02  0.43762543025E+02  0.20719099357E+03  0.22763284964E+03  0.77000000000E+02 0.  0.
   -5000001    1    1    2    0    0 -0.32317893573E+02 -0.43762543025E+02  0.30158056082E+02  0.98985427027E+02  0.77000000000E+02 0.  0.
<mgrwt>
<rscale>  0 0.22437675E+03</rscale>
<asrwt>0</asrwt>
<pdfrwt beam="1">  1        2 0.43382103E-01 0.22437675E+03</pdfrwt>
<pdfrwt beam="2">  1       -2 0.68668635E-02 0.22437675E+03</pdfrwt>
<totfact> 0.13726941E+04</totfact>
</mgrwt>
</event>
<event>
 4    1  0.6122885E-004  0.4748843E+03  0.7818608E-02  0.1020551E+00
          2   -1    0    0  501    0  0.00000000000E+00  0.00000000000E+00  0.43111405309E+03  0.43111405310E+03  0.25500000000E-02 0.  1.
         -2   -1    0    0    0  501 -0.00000000000E+00 -0.00000000000E+00 -0.13077463509E+03  0.13077463512E+03  0.25500000000E-02 0. -1.
    5000001    1    1    2    0    0  0.11454844202E+03 -0.19136324108E+03  0.18166509198E+03  0.29777918203E+03  0.77000000000E+02 0.  0.
   -5000001    1    1    2    0    0 -0.11454844202E+03  0.19136324108E+03  0.11867432602E+03  0.26410950619E+03  0.77000000000E+02 0.  0.
<mgrwt>
<rscale>  0 0.47488434E+03</rscale>
<asrwt>0</asrwt>
<pdfrwt beam="1">  1        2 0.66325239E-01 0.47488434E+03</pdfrwt>
<pdfrwt beam="2">  1       -2 0.20119175E-01 0.47488434E+03</pdfrwt>
<totfact> 0.15382527E+03</totfact>
</mgrwt>
</event>
<event>
 4    1  0.6122885E-004  0.2012093E+03  0.7818608E-02  0.1148723E+00
         -2   -1    0    0    0  501 -0.00000000000E+00  0.00000000000E+00  0.89694198753E+01  0.89694202377E+01  0.25500000000E-02 0. -1.
          2   -1    0    0  501    0  0.00000000000E+00 -0.00000000000E+00 -0.11284223005E+04  0.11284223005E+04  0.25500000000E-02 0.  1.
    5000001    1    1    2    0    0 -0.36103931932E+02 -0.46094773199E+02 -0.40347318144E+03  0.41490701387E+03  0.77000000000E+02 0.  0.
   -5000001    1    1    2    0    0  0.36103931932E+02  0.46094773199E+02 -0.71597969921E+03  0.72248470690E+03  0.77000000000E+02 0.  0.
<mgrwt>
<rscale>  0 0.20120928E+03</rscale>
<asrwt>0</asrwt>
<pdfrwt beam="1">  1        2 0.17360332E+00 0.20120928E+03</pdfrwt>
<pdfrwt beam="2">  1       -2 0.13799117E-02 0.20120928E+03</pdfrwt>
<totfact> 0.28698499E+04</totfact>
</mgrwt>
</event>
<event>
 4    1  0.6122885E-004  0.3562070E+03  0.7818608E-02  0.1060096E+00
          2   -1    0    0  501    0  0.00000000000E+00  0.00000000000E+00  0.11693214574E+04  0.11693214574E+04  0.25500000000E-02 0.  1.
         -2   -1    0    0    0  501 -0.00000000000E+00 -0.00000000000E+00 -0.27127580914E+02  0.27127581034E+02  0.25500000000E-02 0. -1.
    5000001    1    1    2    0    0  0.13618317173E+03 -0.79209784382E+02  0.67580588938E+03  0.69818525216E+03  0.77000000000E+02 0.  0.
   -5000001    1    1    2    0    0 -0.13618317173E+03  0.79209784382E+02  0.46638798712E+03  0.49826378630E+03  0.77000000000E+02 0.  0.
<mgrwt>
<rscale>  0 0.35620703E+03</rscale>
<asrwt>0</asrwt>
<pdfrwt beam="1">  1        2 0.17989559E+00 0.35620703E+03</pdfrwt>
<pdfrwt beam="2">  1       -2 0.41734744E-02 0.35620703E+03</pdfrwt>
<totfact> 0.53848512E+03</totfact>
</mgrwt>
</event>
<event>
 4    1  0.6122885E-004  0.2036064E+03  0.7818608E-02  0.1146731E+00
          2   -1    0    0  501    0  0.00000000000E+00  0.00000000000E+00  0.35762793712E+03  0.35762793713E+03  0.25500000000E-02 0.  1.
         -2   -1    0    0    0  501 -0.00000000000E+00 -0.00000000000E+00 -0.28979532810E+02  0.28979532922E+02  0.25500000000E-02 0. -1.
    5000001    1    1    2    0    0  0.30003495187E+02  0.58985947676E+02  0.15019902961E+03  0.18129616720E+03  0.77000000000E+02 0.  0.
   -5000001    1    1    2    0    0 -0.30003495187E+02 -0.58985947676E+02  0.17844937471E+03  0.20531130286E+03  0.77000000000E+02 0.  0.
<mgrwt>
<rscale>  0 0.20360639E+03</rscale>
<asrwt>0</asrwt>
<pdfrwt beam="1">  1        2 0.55019680E-01 0.20360639E+03</pdfrwt>
<pdfrwt beam="2">  1       -2 0.44583899E-02 0.20360639E+03</pdfrwt>
<totfact> 0.20403625E+04</totfact>
</mgrwt>
</event>
<event>
 4    1  0.6122885E-004  0.2073193E+03  0.7818608E-02  0.1143707E+00
         -2   -1    0    0    0  501 -0.00000000000E+00  0.00000000000E+00  0.11414603323E+02  0.11414603607E+02  0.25500000000E-02 0. -1.
          2   -1    0    0  501    0  0.00000000000E+00 -0.00000000000E+00 -0.94136658520E+03  0.94136658520E+03  0.25500000000E-02 0.  1.
    5000001    1    1    2    0    0 -0.44522712584E+02 -0.15708796573E+02 -0.69873898816E+03  0.70455249045E+03  0.77000000000E+02 0.  0.
   -5000001    1    1    2    0    0  0.44522712584E+02  0.15708796573E+02 -0.23121299372E+03  0.24822869836E+03  0.77000000000E+02 0.  0.
<mgrwt>
<rscale>  0 0.20731933E+03</rscale>
<asrwt>0</asrwt>
<pdfrwt beam="1">  1        2 0.14482557E+00 0.20731933E+03</pdfrwt>
<pdfrwt beam="2">  1       -2 0.17560936E-02 0.20731933E+03</pdfrwt>
<totfact> 0.26197393E+04</totfact>
</mgrwt>
</event>
<event>
 4    1  0.6122885E-004  0.2989678E+03  0.7818608E-02  0.1085758E+00
          2   -1    0    0  501    0  0.00000000000E+00  0.00000000000E+00  0.10491960471E+04  0.10491960471E+04  0.25500000000E-02 0.  1.
         -2   -1    0    0    0  501 -0.00000000000E+00 -0.00000000000E+00 -0.21297675182E+02  0.21297675335E+02  0.25500000000E-02 0. -1.
    5000001    1    1    2    0    0  0.13270387817E+02  0.11308975536E+03  0.72429542378E+03  0.73722334260E+03  0.77000000000E+02 0.  0.
   -5000001    1    1    2    0    0 -0.13270387817E+02 -0.11308975536E+03  0.30360294809E+03  0.33327037979E+03  0.77000000000E+02 0.  0.
<mgrwt>
<rscale>  0 0.29896780E+03</rscale>
<asrwt>0</asrwt>
<pdfrwt beam="1">  1        2 0.16141481E+00 0.29896780E+03</pdfrwt>
<pdfrwt beam="2">  1       -2 0.32765648E-02 0.29896780E+03</pdfrwt>
<totfact> 0.91014621E+03</totfact>
</mgrwt>
</event>
<event>
 4    1  0.6122885E-004  0.2934896E+03  0.7818608E-02  0.1088541E+00
          2   -1    0    0  501    0  0.00000000000E+00  0.00000000000E+00  0.45887508892E+03  0.45887508893E+03  0.25500000000E-02 0.  1.
         -2   -1    0    0    0  501 -0.00000000000E+00 -0.00000000000E+00 -0.46927881168E+02  0.46927881237E+02  0.25500000000E-02 0. -1.
    5000001    1    1    2    0    0  0.87616415776E+02  0.88686710005E+02  0.19228720713E+03  0.24175470806E+03  0.77000000000E+02 0.  0.
   -5000001    1    1    2    0    0 -0.87616415776E+02 -0.88686710005E+02  0.21966000063E+03  0.26404826211E+03  0.77000000000E+02 0.  0.
<mgrwt>
<rscale>  0 0.29348960E+03</rscale>
<asrwt>0</asrwt>
<pdfrwt beam="1">  1        2 0.70596173E-01 0.29348960E+03</pdfrwt>
<pdfrwt beam="2">  1       -2 0.72196735E-02 0.29348960E+03</pdfrwt>
<totfact> 0.75924199E+03</totfact>
</mgrwt>
</event>
<event>
 4    1  0.6122885E-004  0.2507404E+03  0.7818608E-02  0.1112838E+00
         -2   -1    0    0    0  501 -0.00000000000E+00  0.00000000000E+00  0.12330908583E+02  0.12330908846E+02  0.25500000000E-02 0. -1.
          2   -1    0    0  501    0  0.00000000000E+00 -0.00000000000E+00 -0.12746576173E+04  0.12746576173E+04  0.25500000000E-02 0.  1.
    5000001    1    1    2    0    0 -0.66585373896E+02 -0.30923413067E+02 -0.97158590709E+03  0.97739349514E+03  0.77000000000E+02 0.  0.
   -5000001    1    1    2    0    0  0.66585373896E+02  0.30923413067E+02 -0.29074080164E+03  0.30959503101E+03  0.77000000000E+02 0.  0.
<mgrwt>
<rscale>  0 0.25074040E+03</rscale>
<asrwt>0</asrwt>
<pdfrwt beam="1">  1        2 0.19610107E+00 0.25074040E+03</pdfrwt>
<pdfrwt beam="2">  1       -2 0.18970639E-02 0.25074040E+03</pdfrwt>
<totfact> 0.15079153E+04</totfact>
</mgrwt>
</event>
<event>
 4    1  0.6122885E-004  0.1830995E+03  0.7818608E-02  0.1164837E+00
         -2   -1    0    0    0  501 -0.00000000000E+00  0.00000000000E+00  0.27456156348E+02  0.27456156466E+02  0.25500000000E-02 0. -1.
          2   -1    0    0  501    0  0.00000000000E+00 -0.00000000000E+00 -0.30526315605E+03  0.30526315606E+03  0.25500000000E-02 0.  1.
    5000001    1    1    2    0    0  0.44851761323E+02  0.30512191087E+01 -0.10116260809E+03  0.13484755729E+03  0.77000000000E+02 0.  0.
   -5000001    1    1    2    0    0 -0.44851761323E+02 -0.30512191087E+01 -0.17664439162E+03  0.19787175524E+03  0.77000000000E+02 0.  0.
<mgrwt>
<rscale>  0 0.18309946E+03</rscale>
<asrwt>0</asrwt>
<pdfrwt beam="1">  1        2 0.46963560E-01 0.18309946E+03</pdfrwt>
<pdfrwt beam="2">  1       -2 0.42240243E-02 0.18309946E+03</pdfrwt>
<totfact> 0.25994038E+04</totfact>
</mgrwt>
</event>
<event>
 4    1  0.6122885E-004  0.2191819E+03  0.7818608E-02  0.1134494E+00
         -2   -1    0    0    0  501 -0.00000000000E+00  0.00000000000E+00  0.21358322351E+03  0.21358322352E+03  0.25500000000E-02 0. -1.
          2   -1    0    0  501    0  0.00000000000E+00 -0.00000000000E+00 -0.56231816116E+02  0.56231816174E+02  0.25500000000E-02 0.  1.
    5000001    1    1    2    0    0  0.65923336110E+02 -0.44162959419E-01  0.27395840072E+02  0.10500200116E+03  0.77000000000E+02 0.  0.
   -5000001    1    1    2    0    0 -0.65923336110E+02  0.44162959419E-01  0.12995556732E+03  0.16481303854E+03  0.77000000000E+02 0.  0.
<mgrwt>
<rscale>  0 0.21918187E+03</rscale>
<asrwt>0</asrwt>
<pdfrwt beam="1">  1        2 0.86510488E-02 0.21918187E+03</pdfrwt>
<pdfrwt beam="2">  1       -2 0.32858957E-01 0.21918187E+03</pdfrwt>
<totfact> 0.65117643E+03</totfact>
</mgrwt>
</event>
<event>
 4    1  0.6122885E-004  0.2586000E+03  0.7818608E-02  0.1107987E+00
         -2   -1    0    0    0  501 -0.00000000000E+00  0.00000000000E+00  0.59457004534E+02  0.59457004589E+02  0.25500000000E-02 0. -1.
          2   -1    0    0  501    0  0.00000000000E+00 -0.00000000000E+00 -0.28118620244E+03  0.28118620245E+03  0.25500000000E-02 0.  1.
    5000001    1    1    2    0    0 -0.31442486918E+02  0.92795190715E+02 -0.65425613202E+02  0.14074476284E+03  0.77000000000E+02 0.  0.
   -5000001    1    1    2    0    0  0.31442486918E+02 -0.92795190715E+02 -0.15630358471E+03  0.19989844420E+03  0.77000000000E+02 0.  0.
<mgrwt>
<rscale>  0 0.25859999E+03</rscale>
<asrwt>0</asrwt>
<pdfrwt beam="1">  1        2 0.43259415E-01 0.25859999E+03</pdfrwt>
<pdfrwt beam="2">  1       -2 0.91472317E-02 0.25859999E+03</pdfrwt>
<totfact> 0.88712015E+03</totfact>
</mgrwt>
</event>
<event>
 4    1  0.6122885E-004  0.2088407E+03  0.7818608E-02  0.1142487E+00
          2   -1    0    0  501    0  0.00000000000E+00  0.00000000000E+00  0.46012092125E+03  0.46012092125E+03  0.25500000000E-02 0.  1.
         -2   -1    0    0    0  501 -0.00000000000E+00 -0.00000000000E+00 -0.23697265674E+02  0.23697265811E+02  0.25500000000E-02 0. -1.
    5000001    1    1    2    0    0 -0.51087103319E+02 -0.38845361111E+02  0.28598244440E+03  0.30304094230E+03  0.77000000000E+02 0.  0.
   -5000001    1    1    2    0    0  0.51087103319E+02  0.38845361111E+02  0.15044121118E+03  0.18077724477E+03  0.77000000000E+02 0.  0.
<mgrwt>
<rscale>  0 0.20884068E+03</rscale>
<asrwt>0</asrwt>
<pdfrwt beam="1">  1        2 0.70787835E-01 0.20884068E+03</pdfrwt>
<pdfrwt beam="2">  1       -2 0.36457331E-02 0.20884068E+03</pdfrwt>
<totfact> 0.21030889E+04</totfact>
</mgrwt>
</event>
<event>
 4    1  0.6122885E-004  0.2477166E+03  0.7818608E-02  0.1114756E+00
          2   -1    0    0  501    0  0.00000000000E+00  0.00000000000E+00  0.55943974021E+03  0.55943974021E+03  0.25500000000E-02 0.  1.
         -2   -1    0    0    0  501 -0.00000000000E+00 -0.00000000000E+00 -0.27421863439E+02  0.27421863558E+02  0.25500000000E-02 0. -1.
    5000001    1    1    2    0    0  0.11981572808E+02 -0.67907194959E+02  0.10433848787E+03  0.14686887099E+03  0.77000000000E+02 0.  0.
   -5000001    1    1    2    0    0 -0.11981572808E+02  0.67907194959E+02  0.42767938890E+03  0.43999273278E+03  0.77000000000E+02 0.  0.
<mgrwt>
<rscale>  0 0.24771661E+03</rscale>
<asrwt>0</asrwt>
<pdfrwt beam="1">  1        2 0.86067652E-01 0.24771661E+03</pdfrwt>
<pdfrwt beam="2">  1       -2 0.42187483E-02 0.24771661E+03</pdfrwt>
<totfact> 0.13721232E+04</totfact>
</mgrwt>
</event>
<event>
 4    1  0.6122885E-004  0.2325547E+03  0.7818608E-02  0.1124854E+00
          2   -1    0    0  501    0  0.00000000000E+00  0.00000000000E+00  0.26027052330E+02  0.26027052455E+02  0.25500000000E-02 0.  1.
         -2   -1    0    0    0  501 -0.00000000000E+00 -0.00000000000E+00 -0.51947593280E+03  0.51947593281E+03  0.25500000000E-02 0. -1.
    5000001    1    1    2    0    0  0.51817582873E+02 -0.53494206848E+02 -0.14065495280E+03  0.17680358539E+03  0.77000000000E+02 0.  0.
   -5000001    1    1    2    0    0 -0.51817582873E+02  0.53494206848E+02 -0.35279392767E+03  0.36869939987E+03  0.77000000000E+02 0.  0.
<mgrwt>
<rscale>  0 0.23255474E+03</rscale>
<asrwt>0</asrwt>
<pdfrwt beam="1">  1        2 0.40041623E-02 0.23255474E+03</pdfrwt>
<pdfrwt beam="2">  1       -2 0.79919367E-01 0.23255474E+03</pdfrwt>
<totfact> 0.29885751E+03</totfact>
</mgrwt>
</event>
<event>
 4    1  0.6122885E-004  0.3450570E+03  0.7818608E-02  0.1064662E+00
          2   -1    0    0  501    0  0.00000000000E+00  0.00000000000E+00  0.21056687935E+03  0.21056687937E+03  0.25500000000E-02 0.  1.
         -2   -1    0    0    0  501 -0.00000000000E+00 -0.00000000000E+00 -0.14136163712E+03  0.14136163714E+03  0.25500000000E-02 0. -1.
    5000001    1    1    2    0    0 -0.13415643885E+03 -0.25488014123E+02 -0.38870076046E+02  0.16151616563E+03  0.77000000000E+02 0.  0.
   -5000001    1    1    2    0    0  0.13415643885E+03  0.25488014123E+02  0.10807531828E+03  0.19041235088E+03  0.77000000000E+02 0.  0.
<mgrwt>
<rscale>  0 0.34505697E+03</rscale>
<asrwt>0</asrwt>
<pdfrwt beam="1">  1        2 0.32394904E-01 0.34505697E+03</pdfrwt>
<pdfrwt beam="2">  1       -2 0.21747944E-01 0.34505697E+03</pdfrwt>
<totfact> 0.29374842E+03</totfact>
</mgrwt>
</event>
<event>
 4    1  0.6122885E-004  0.3766240E+03  0.7818608E-02  0.1052189E+00
         -2   -1    0    0    0  501 -0.00000000000E+00  0.00000000000E+00  0.60732964676E+03  0.60732964677E+03  0.25500000000E-02 0. -1.
          2   -1    0    0  501    0  0.00000000000E+00 -0.00000000000E+00 -0.58389063301E+02  0.58389063357E+02  0.25500000000E-02 0.  1.
    5000001    1    1    2    0    0  0.58547681209E+02 -0.20186966449E+02  0.55782114880E+03  0.56650576223E+03  0.77000000000E+02 0.  0.
   -5000001    1    1    2    0    0 -0.58547681209E+02  0.20186966449E+02 -0.88805653392E+01  0.99212947896E+02  0.77000000000E+02 0.  0.
<mgrwt>
<rscale>  0 0.37662400E+03</rscale>
<asrwt>0</asrwt>
<pdfrwt beam="1">  1        2 0.89829325E-02 0.37662400E+03</pdfrwt>
<pdfrwt beam="2">  1       -2 0.93435334E-01 0.37662400E+03</pdfrwt>
<totfact> 0.74064256E+02</totfact>
</mgrwt>
</event>
<event>
 4    1  0.6122885E-004  0.3613883E+03  0.7818608E-02  0.1058036E+00
         -2   -1    0    0    0  501 -0.00000000000E+00  0.00000000000E+00  0.39271896042E+02  0.39271896125E+02  0.25500000000E-02 0. -1.
          2   -1    0    0  501    0  0.00000000000E+00 -0.00000000000E+00 -0.83139283934E+03  0.83139283934E+03  0.25500000000E-02 0.  1.
    5000001    1    1    2    0    0  0.59380341106E+02  0.13794474110E+03 -0.24054714338E+03  0.29384809800E+03  0.77000000000E+02 0.  0.
   -5000001    1    1    2    0    0 -0.59380341106E+02 -0.13794474110E+03 -0.55157379991E+03  0.57681663747E+03  0.77000000000E+02 0.  0.
<mgrwt>
<rscale>  0 0.36138829E+03</rscale>
<asrwt>0</asrwt>
<pdfrwt beam="1">  1        2 0.12790658E+00 0.36138829E+03</pdfrwt>
<pdfrwt beam="2">  1       -2 0.60418308E-02 0.36138829E+03</pdfrwt>
<totfact> 0.49645741E+03</totfact>
</mgrwt>
</event>
<event>
 4    1  0.6122885E-004  0.2414559E+03  0.7818608E-02  0.1118827E+00
          2   -1    0    0  501    0  0.00000000000E+00  0.00000000000E+00  0.13122606867E+04  0.13122606867E+04  0.25500000000E-02 0.  1.
         -2   -1    0    0    0  501 -0.00000000000E+00 -0.00000000000E+00 -0.11106970135E+02  0.11106970428E+02  0.25500000000E-02 0. -1.
    5000001    1    1    2    0    0 -0.54251397723E+02  0.54807713945E+02  0.93532141181E+03  0.94164868346E+03  0.77000000000E+02 0.  0.
   -5000001    1    1    2    0    0  0.54251397723E+02 -0.54807713945E+02  0.36583230480E+03  0.38171897372E+03  0.77000000000E+02 0.  0.
<mgrwt>
<rscale>  0 0.24145592E+03</rscale>
<asrwt>0</asrwt>
<pdfrwt beam="1">  1        2 0.20188635E+00 0.24145592E+03</pdfrwt>
<pdfrwt beam="2">  1       -2 0.17087639E-02 0.24145592E+03</pdfrwt>
<totfact> 0.16729309E+04</totfact>
</mgrwt>
</event>
<event>
 4    1  0.6122885E-004  0.2056428E+03  0.7818608E-02  0.1145064E+00
         -2   -1    0    0    0  501 -0.00000000000E+00  0.00000000000E+00  0.48092846037E+02  0.48092846104E+02  0.25500000000E-02 0. -1.
          2   -1    0    0  501    0  0.00000000000E+00 -0.00000000000E+00 -0.21982973751E+03  0.21982973752E+03  0.25500000000E-02 0.  1.
    5000001    1    1    2    0    0  0.36519045682E+02 -0.56414945655E+02 -0.71188859040E+02  0.12455175809E+03  0.77000000000E+02 0.  0.
   -5000001    1    1    2    0    0 -0.36519045682E+02  0.56414945655E+02 -0.10054803243E+03  0.14337082554E+03  0.77000000000E+02 0.  0.
<mgrwt>
<rscale>  0 0.20564278E+03</rscale>
<asrwt>0</asrwt>
<pdfrwt beam="1">  1        2 0.33819959E-01 0.20564278E+03</pdfrwt>
<pdfrwt beam="2">  1       -2 0.73988995E-02 0.20564278E+03</pdfrwt>
<totfact> 0.15901849E+04</totfact>
</mgrwt>
</event>
<event>
 4    1  0.6122885E-004  0.1667128E+03  0.7818608E-02  0.1181320E+00
         -2   -1    0    0    0  501 -0.00000000000E+00  0.00000000000E+00  0.28327646826E+02  0.28327646941E+02  0.25500000000E-02 0. -1.
          2   -1    0    0  501    0  0.00000000000E+00 -0.00000000000E+00 -0.24528284816E+03  0.24528284818E+03  0.25500000000E-02 0.  1.
    5000001    1    1    2    0    0  0.21844885386E+02  0.20508420460E+02 -0.12656753606E+03  0.15114938144E+03  0.77000000000E+02 0.  0.
   -5000001    1    1    2    0    0 -0.21844885386E+02 -0.20508420460E+02 -0.90387665281E+02  0.12246111367E+03  0.77000000000E+02 0.  0.
<mgrwt>
<rscale>  0 0.16671276E+03</rscale>
<asrwt>0</asrwt>
<pdfrwt beam="1">  1        2 0.37735821E-01 0.16671276E+03</pdfrwt>
<pdfrwt beam="2">  1       -2 0.43580997E-02 0.16671276E+03</pdfrwt>
<totfact> 0.31071197E+04</totfact>
</mgrwt>
</event>
<event>
 4    1  0.6122885E-004  0.2249005E+03  0.7818608E-02  0.1130281E+00
         -2   -1    0    0    0  501 -0.00000000000E+00  0.00000000000E+00  0.12167107074E+02  0.12167107342E+02  0.25500000000E-02 0.  1.
          2   -1    0    0  501    0  0.00000000000E+00 -0.00000000000E+00 -0.10392826828E+04  0.10392826828E+04  0.25500000000E-02 0. -1.
    5000001    1    1    2    0    0  0.23606500150E+02 -0.71367401552E+02 -0.36095132827E+03  0.37665028107E+03  0.77000000000E+02 0.  0.
   -5000001    1    1    2    0    0 -0.23606500150E+02  0.71367401552E+02 -0.66616424749E+03  0.67479950910E+03  0.77000000000E+02 0.  0.
<mgrwt>
<rscale>  0 0.22490055E+03</rscale>
<asrwt>0</asrwt>
<pdfrwt beam="1">  1        2 0.15988957E+00 0.22490055E+03</pdfrwt>
<pdfrwt beam="2">  1       -2 0.18718635E-02 0.22490055E+03</pdfrwt>
<totfact> 0.20891774E+04</totfact>
</mgrwt>
</event>
<event>
 4    1  0.6122885E-004  0.2756918E+03  0.7818608E-02  0.1098066E+00
         -2   -1    0    0    0  501 -0.00000000000E+00  0.00000000000E+00  0.48218750813E+02  0.48218750881E+02  0.25500000000E-02 0. -1.
          2   -1    0    0  501    0  0.00000000000E+00 -0.00000000000E+00 -0.39406843300E+03  0.39406843301E+03  0.25500000000E-02 0.  1.
    5000001    1    1    2    0    0  0.90762454569E+02 -0.69304737989E+02 -0.18193138102E+03  0.22818632139E+03  0.77000000000E+02 0.  0.
   -5000001    1    1    2    0    0 -0.90762454569E+02  0.69304737989E+02 -0.16391830116E+03  0.21410086250E+03  0.77000000000E+02 0.  0.
<mgrwt>
<rscale>  0 0.27569177E+03</rscale>
<asrwt>0</asrwt>
<pdfrwt beam="1">  1        2 0.60625911E-01 0.27569177E+03</pdfrwt>
<pdfrwt beam="2">  1       -2 0.74182696E-02 0.27569177E+03</pdfrwt>
<totfact> 0.85811910E+03</totfact>
</mgrwt>
</event>
<event>
 4    1  0.6122885E-004  0.1958889E+04  0.7818608E-02  0.8626086E-01
         -2   -1    0    0    0  501 -0.00000000000E+00  0.00000000000E+00  0.36745658163E+03  0.36745658164E+03  0.25500000000E-02 0. -1.
          2   -1    0    0  501    0  0.00000000000E+00 -0.00000000000E+00 -0.26106803053E+04  0.26106803053E+04  0.25500000000E-02 0.  1.
    5000001    1    1    2    0    0 -0.81678906255E+02  0.75316154775E+03 -0.20581321068E+04  0.21944841148E+04  0.77000000000E+02 0.  0.
   -5000001    1    1    2    0    0  0.81678906255E+02 -0.75316154775E+03 -0.18509161683E+03  0.78365277218E+03  0.77000000000E+02 0.  0.
<mgrwt>
<rscale>  0 0.19588891E+04</rscale>
<asrwt>0</asrwt>
<pdfrwt beam="1">  1        2 0.40164311E+00 0.19588891E+04</pdfrwt>
<pdfrwt beam="2">  1       -2 0.56531784E-01 0.19588891E+04</pdfrwt>
<totfact> 0.82164646E+00</totfact>
</mgrwt>
</event>
<event>
 4    1  0.6122885E-004  0.3830565E+03  0.7818608E-02  0.1049810E+00
          2   -1    0    0  501    0  0.00000000000E+00  0.00000000000E+00  0.32020999523E+03  0.32020999524E+03  0.25500000000E-02 0.  1.
         -2   -1    0    0    0  501 -0.00000000000E+00 -0.00000000000E+00 -0.11455941167E+03  0.11455941170E+03  0.25500000000E-02 0. -1.
    5000001    1    1    2    0    0  0.85046976863E+02  0.12290624250E+03 -0.12929246973E+01  0.16813567252E+03  0.77000000000E+02 0.  0.
   -5000001    1    1    2    0    0 -0.85046976863E+02 -0.12290624250E+03  0.20694350826E+03  0.26663373441E+03  0.77000000000E+02 0.  0.
<mgrwt>
<rscale>  0 0.38305649E+03</rscale>
<asrwt>0</asrwt>
<pdfrwt beam="1">  1        2 0.49263076E-01 0.38305649E+03</pdfrwt>
<pdfrwt beam="2">  1       -2 0.17624525E-01 0.38305649E+03</pdfrwt>
<totfact> 0.26730507E+03</totfact>
</mgrwt>
</event>
<event>
 4    1  0.6122885E-004  0.1569244E+03  0.7818608E-02  0.1192213E+00
         -2   -1    0    0    0  501 -0.00000000000E+00  0.00000000000E+00  0.27218236709E+03  0.27218236711E+03  0.25500000000E-02 0. -1.
          2   -1    0    0  501    0  0.00000000000E+00 -0.00000000000E+00 -0.22618350958E+02  0.22618351102E+02  0.25500000000E-02 0.  1.
    5000001    1    1    2    0    0 -0.12084932570E+02  0.90070791194E+01  0.12549305155E+03  0.14800229409E+03  0.77000000000E+02 0.  0.
   -5000001    1    1    2    0    0  0.12084932570E+02 -0.90070791194E+01  0.12407096459E+03  0.14679842412E+03  0.77000000000E+02 0.  0.
<mgrwt>
<rscale>  0 0.15692439E+03</rscale>
<asrwt>0</asrwt>
<pdfrwt beam="1">  1        2 0.34797463E-02 0.15692439E+03</pdfrwt>
<pdfrwt beam="2">  1       -2 0.41874210E-01 0.15692439E+03</pdfrwt>
<totfact> 0.13203672E+04</totfact>
</mgrwt>
</event>
<event>
 4    1  0.6122885E-004  0.8661480E+03  0.7818608E-02  0.9468916E-01
          2   -1    0    0  501    0  0.00000000000E+00  0.00000000000E+00  0.24676449586E+04  0.24676449586E+04  0.25500000000E-02 0.  1.
         -2   -1    0    0    0  501 -0.00000000000E+00 -0.00000000000E+00 -0.76004890590E+02  0.76004890633E+02  0.25500000000E-02 0. -1.
    5000001    1    1    2    0    0  0.45594651215E+01  0.42575661252E+03  0.11421007335E+04  0.12213159163E+04  0.77000000000E+02 0.  0.
   -5000001    1    1    2    0    0 -0.45594651215E+01 -0.42575661252E+03  0.12495393345E+04  0.13223339329E+04  0.77000000000E+02 0.  0.
<mgrwt>
<rscale>  0 0.86614799E+03</rscale>
<asrwt>0</asrwt>
<pdfrwt beam="1">  1        2 0.37963765E+00 0.86614799E+03</pdfrwt>
<pdfrwt beam="2">  1       -2 0.11693061E-01 0.86614799E+03</pdfrwt>
<totfact> 0.19799743E+02</totfact>
</mgrwt>
</event>
<event>
 4    1  0.6122885E-004  0.2220853E+03  0.7818608E-02  0.1132338E+00
         -2   -1    0    0    0  501 -0.00000000000E+00  0.00000000000E+00  0.27607815326E+02  0.27607815443E+02  0.25500000000E-02 0. -1.
          2   -1    0    0  501    0  0.00000000000E+00 -0.00000000000E+00 -0.44662951733E+03  0.44662951734E+03  0.25500000000E-02 0.  1.
    5000001    1    1    2    0    0  0.78465423012E+02  0.10676882972E+02 -0.23391847146E+03  0.25868449843E+03  0.77000000000E+02 0.  0.
   -5000001    1    1    2    0    0 -0.78465423012E+02 -0.10676882972E+02 -0.18510323055E+03  0.21555283436E+03  0.77000000000E+02 0.  0.
<mgrwt>
<rscale>  0 0.22208526E+03</rscale>
<asrwt>0</asrwt>
<pdfrwt beam="1">  1        2 0.68712228E-01 0.22208526E+03</pdfrwt>
<pdfrwt beam="2">  1       -2 0.42473565E-02 0.22208526E+03</pdfrwt>
<totfact> 0.17356224E+04</totfact>
</mgrwt>
</event>
<event>
 4    1  0.6122885E-004  0.2312698E+03  0.7818608E-02  0.1125749E+00
          2   -1    0    0  501    0  0.00000000000E+00  0.00000000000E+00  0.80286069324E+02  0.80286069365E+02  0.25500000000E-02 0.  1.
         -2   -1    0    0    0  501 -0.00000000000E+00 -0.00000000000E+00 -0.16654735131E+03  0.16654735133E+03  0.25500000000E-02 0. -1.
    5000001    1    1    2    0    0 -0.14019313051E+02 -0.77168765006E+02 -0.47840534028E+01  0.11001566524E+03  0.77000000000E+02 0.  0.
   -5000001    1    1    2    0    0  0.14019313051E+02  0.77168765006E+02 -0.81477228587E+02  0.13681775546E+03  0.77000000000E+02 0.  0.
<mgrwt>
<rscale>  0 0.23126982E+03</rscale>
<asrwt>0</asrwt>
<pdfrwt beam="1">  1        2 0.12351703E-01 0.23126982E+03</pdfrwt>
<pdfrwt beam="2">  1       -2 0.25622669E-01 0.23126982E+03</pdfrwt>
<totfact> 0.65883190E+03</totfact>
</mgrwt>
</event>
<event>
 4    1  0.6122885E-004  0.4878338E+03  0.7818608E-02  0.1017004E+00
          2   -1    0    0  501    0  0.00000000000E+00  0.00000000000E+00  0.14696596491E+03  0.14696596493E+03  0.25500000000E-02 0.  1.
         -2   -1    0    0    0  501 -0.00000000000E+00 -0.00000000000E+00 -0.40482467710E+03  0.40482467711E+03  0.25500000000E-02 0. -1.
    5000001    1    1    2    0    0  0.11864103130E+03  0.19374303065E+03 -0.78924933452E+02  0.25252762493E+03  0.77000000000E+02 0.  0.
   -5000001    1    1    2    0    0 -0.11864103130E+03 -0.19374303065E+03 -0.17893377875E+03  0.29926301711E+03  0.77000000000E+02 0.  0.
<mgrwt>
<rscale>  0 0.48783378E+03</rscale>
<asrwt>0</asrwt>
<pdfrwt beam="1">  1        2 0.22610149E-01 0.48783378E+03</pdfrwt>
<pdfrwt beam="2">  1       -2 0.62280719E-01 0.48783378E+03</pdfrwt>
<totfact> 0.59311533E+02</totfact>
</mgrwt>
</event>
<event>
 4    1  0.6122885E-004  0.2395426E+03  0.7818608E-02  0.1120098E+00
         -2   -1    0    0    0  501 -0.00000000000E+00  0.00000000000E+00  0.55701536800E+01  0.55701542637E+01  0.25500000000E-02 0. -1.
          2   -1    0    0  501    0  0.00000000000E+00 -0.00000000000E+00 -0.25753625777E+04  0.25753625777E+04  0.25500000000E-02 0.  1.
    5000001    1    1    2    0    0 -0.46096636129E+02  0.57021412768E+02 -0.69085281854E+03  0.69898709449E+03  0.77000000000E+02 0.  0.
   -5000001    1    1    2    0    0  0.46096636129E+02 -0.57021412768E+02 -0.18789396055E+04  0.18819456375E+04  0.77000000000E+02 0.  0.
<mgrwt>
<rscale>  0 0.23954261E+03</rscale>
<asrwt>0</asrwt>
<pdfrwt beam="1">  1        2 0.39620868E+00 0.23954261E+03</pdfrwt>
<pdfrwt beam="2">  1       -2 0.85694882E-03 0.23954261E+03</pdfrwt>
<totfact> 0.97150832E+03</totfact>
</mgrwt>
</event>
<event>
 4    1  0.6122885E-004  0.2202651E+03  0.7818608E-02  0.1133686E+00
         -2   -1    0    0    0  501 -0.00000000000E+00  0.00000000000E+00  0.14439793077E+03  0.14439793080E+03  0.25500000000E-02 0. -1.
          2   -1    0    0  501    0  0.00000000000E+00 -0.00000000000E+00 -0.83998290590E+02  0.83998290629E+02  0.25500000000E-02 0.  1.
    5000001    1    1    2    0    0  0.26869066060E+02  0.52444815361E+02  0.84355922618E+02  0.12851975354E+03  0.77000000000E+02 0.  0.
   -5000001    1    1    2    0    0 -0.26869066060E+02 -0.52444815361E+02 -0.23956282435E+02  0.99876467885E+02  0.77000000000E+02 0.  0.
<mgrwt>
<rscale>  0 0.22026511E+03</rscale>
<asrwt>0</asrwt>
<pdfrwt beam="1">  1        2 0.12922814E-01 0.22026511E+03</pdfrwt>
<pdfrwt beam="2">  1       -2 0.22215066E-01 0.22026511E+03</pdfrwt>
<totfact> 0.79849030E+03</totfact>
</mgrwt>
</event>
<event>
 4    1  0.6122885E-004  0.1925702E+03  0.7818608E-02  0.1156163E+00
          2   -1    0    0  501    0  0.00000000000E+00  0.00000000000E+00  0.29511073797E+04  0.29511073798E+04  0.25500000000E-02 0.  1.
         -2   -1    0    0    0  501 -0.00000000000E+00 -0.00000000000E+00 -0.31414719425E+01  0.31414729774E+01  0.25500000000E-02 0. -1.
    5000001    1    1    2    0    0 -0.44844073515E+02  0.33898352285E+02  0.16807947264E+04  0.16834963622E+04  0.77000000000E+02 0.  0.
   -5000001    1    1    2    0    0  0.44844073515E+02 -0.33898352285E+02  0.12671711814E+04  0.12707524906E+04  0.77000000000E+02 0.  0.
<mgrwt>
<rscale>  0 0.19257022E+03</rscale>
<asrwt>0</asrwt>
<pdfrwt beam="1">  1        2 0.45401778E+00 0.19257022E+03</pdfrwt>
<pdfrwt beam="2">  1       -2 0.48330211E-03 0.19257022E+03</pdfrwt>
<totfact> 0.13534728E+04</totfact>
</mgrwt>
</event>
<event>
 4    1  0.6122885E-004  0.1661469E+03  0.7818608E-02  0.1181927E+00
         -2   -1    0    0    0  501 -0.00000000000E+00  0.00000000000E+00  0.26037222068E+01  0.26037234555E+01  0.25500000000E-02 0. -1.
          2   -1    0    0  501    0  0.00000000000E+00 -0.00000000000E+00 -0.26505120609E+04  0.26505120609E+04  0.25500000000E-02 0.  1.
    5000001    1    1    2    0    0 -0.30206163252E+02  0.62423702129E+01 -0.13968154595E+04  0.13992761727E+04  0.77000000000E+02 0.  0.
   -5000001    1    1    2    0    0  0.30206163252E+02 -0.62423702129E+01 -0.12510928791E+04  0.12538396116E+04  0.77000000000E+02 0.  0.
<mgrwt>
<rscale>  0 0.16614691E+03</rscale>
<asrwt>0</asrwt>
<pdfrwt beam="1">  1        2 0.40776893E+00 0.16614691E+03</pdfrwt>
<pdfrwt beam="2">  1       -2 0.40057486E-03 0.16614691E+03</pdfrwt>
<totfact> 0.26030342E+04</totfact>
</mgrwt>
</event>
<event>
 4    1  0.6122885E-004  0.2378507E+03  0.7818608E-02  0.1121233E+00
          2   -1    0    0  501    0  0.00000000000E+00  0.00000000000E+00  0.22125755993E+03  0.22125755994E+03  0.25500000000E-02 0.  1.
         -2   -1    0    0    0  501 -0.00000000000E+00 -0.00000000000E+00 -0.63922063841E+02  0.63922063892E+02  0.25500000000E-02 0. -1.
    5000001    1    1    2    0    0 -0.88536536087E+02 -0.14514275074E+02  0.63273149531E+02  0.13409650948E+03  0.77000000000E+02 0.  0.
   -5000001    1    1    2    0    0  0.88536536087E+02  0.14514275074E+02  0.94062346555E+02  0.15108311435E+03  0.77000000000E+02 0.  0.
<mgrwt>
<rscale>  0 0.23785071E+03</rscale>
<asrwt>0</asrwt>
<pdfrwt beam="1">  1        2 0.34039625E-01 0.23785071E+03</pdfrwt>
<pdfrwt beam="2">  1       -2 0.98341637E-02 0.23785071E+03</pdfrwt>
<totfact> 0.10206435E+04</totfact>
</mgrwt>
</event>
<event>
 4    1  0.6122885E-004  0.2456218E+03  0.7818608E-02  0.1116103E+00
         -2   -1    0    0    0  501 -0.00000000000E+00  0.00000000000E+00  0.17057872581E+02  0.17057872772E+02  0.25500000000E-02 0. -1.
          2   -1    0    0  501    0  0.00000000000E+00 -0.00000000000E+00 -0.88419665010E+03  0.88419665010E+03  0.25500000000E-02 0.  1.
    5000001    1    1    2    0    0  0.62960145124E+02 -0.39590112713E+02 -0.21273625827E+03  0.23815346414E+03  0.77000000000E+02 0.  0.
   -5000001    1    1    2    0    0 -0.62960145124E+02  0.39590112713E+02 -0.65440251924E+03  0.66310105873E+03  0.77000000000E+02 0.  0.
<mgrwt>
<rscale>  0 0.24562177E+03</rscale>
<asrwt>0</asrwt>
<pdfrwt beam="1">  1        2 0.13603022E+00 0.24562177E+03</pdfrwt>
<pdfrwt beam="2">  1       -2 0.26242888E-02 0.24562177E+03</pdfrwt>
<totfact> 0.15939752E+04</totfact>
</mgrwt>
</event>
<event>
 4    1  0.6122885E-004  0.3047617E+03  0.7818608E-02  0.1082884E+00
          2   -1    0    0  501    0  0.00000000000E+00  0.00000000000E+00  0.20037401227E+04  0.20037401227E+04  0.25500000000E-02 0.  1.
         -2   -1    0    0    0  501 -0.00000000000E+00 -0.00000000000E+00 -0.11588293356E+02  0.11588293636E+02  0.25500000000E-02 0. -1.
    5000001    1    1    2    0    0 -0.11298757859E+03 -0.60498544820E+02  0.11905261745E+04  0.11998782601E+04  0.77000000000E+02 0.  0.
   -5000001    1    1    2    0    0  0.11298757859E+03  0.60498544820E+02  0.80162565487E+03  0.81545015628E+03  0.77000000000E+02 0.  0.
<mgrwt>
<rscale>  0 0.30476173E+03</rscale>
<asrwt>0</asrwt>
<pdfrwt beam="1">  1        2 0.30826742E+00 0.30476173E+03</pdfrwt>
<pdfrwt beam="2">  1       -2 0.17828161E-02 0.30476173E+03</pdfrwt>
<totfact> 0.67758183E+03</totfact>
</mgrwt>
</event>
<event>
 4    1  0.6122885E-004  0.1979683E+03  0.7818608E-02  0.1151465E+00
          2   -1    0    0  501    0  0.00000000000E+00  0.00000000000E+00  0.17854118511E+04  0.17854118511E+04  0.25500000000E-02 0.  1.
         -2   -1    0    0    0  501 -0.00000000000E+00 -0.00000000000E+00 -0.54877297106E+01  0.54877303031E+01  0.25500000000E-02 0. -1.
    5000001    1    1    2    0    0 -0.43463755171E+02  0.44345264303E+02  0.85702309356E+03  0.86271268878E+03  0.77000000000E+02 0.  0.
   -5000001    1    1    2    0    0  0.43463755171E+02 -0.44345264303E+02  0.92290102780E+03  0.92818689260E+03  0.77000000000E+02 0.  0.
<mgrwt>
<rscale>  0 0.19796826E+03</rscale>
<asrwt>0</asrwt>
<pdfrwt beam="1">  1        2 0.27467884E+00 0.19796826E+03</pdfrwt>
<pdfrwt beam="2">  1       -2 0.84426587E-03 0.19796826E+03</pdfrwt>
<totfact> 0.25869444E+04</totfact>
</mgrwt>
</event>
<event>
 4    1  0.6122885E-004  0.2489529E+03  0.7818608E-02  0.1113968E+00
          2   -1    0    0  501    0  0.00000000000E+00  0.00000000000E+00  0.51839425641E+02  0.51839425704E+02  0.25500000000E-02 0.  1.
         -2   -1    0    0    0  501 -0.00000000000E+00 -0.00000000000E+00 -0.29889203631E+03  0.29889203632E+03  0.25500000000E-02 0. -1.
    5000001    1    1    2    0    0  0.84714705345E+02  0.10016549559E+02 -0.19092180959E+03  0.22283861861E+03  0.77000000000E+02 0.  0.
   -5000001    1    1    2    0    0 -0.84714705345E+02 -0.10016549559E+02 -0.56130801076E+02  0.12789284341E+03  0.77000000000E+02 0.  0.
<mgrwt>
<rscale>  0 0.24895294E+03</rscale>
<asrwt>0</asrwt>
<pdfrwt beam="1">  1        2 0.79752964E-02 0.24895294E+03</pdfrwt>
<pdfrwt beam="2">  1       -2 0.45983389E-01 0.24895294E+03</pdfrwt>
<totfact> 0.38375841E+03</totfact>
</mgrwt>
</event>
<event>
 4    1  0.6122885E-004  0.2435370E+03  0.7818608E-02  0.1117459E+00
          2   -1    0    0  501    0  0.00000000000E+00  0.00000000000E+00  0.19426396711E+04  0.19426396711E+04  0.25500000000E-02 0.  1.
         -2   -1    0    0    0  501 -0.00000000000E+00 -0.00000000000E+00 -0.76326900454E+01  0.76326904714E+01  0.25500000000E-02 0. -1.
    5000001    1    1    2    0    0 -0.48813915939E+02  0.45811155369E+02  0.43527359881E+03  0.44707221583E+03  0.77000000000E+02 0.  0.
   -5000001    1    1    2    0    0  0.48813915939E+02 -0.45811155369E+02  0.14997333823E+04  0.15032001458E+04  0.77000000000E+02 0.  0.
<mgrwt>
<rscale>  0 0.24353699E+03</rscale>
<asrwt>0</asrwt>
<pdfrwt beam="1">  1        2 0.29886779E+00 0.24353699E+03</pdfrwt>
<pdfrwt beam="2">  1       -2 0.11742595E-02 0.24353699E+03</pdfrwt>
<totfact> 0.13397282E+04</totfact>
</mgrwt>
</event>
<event>
 4    1  0.6122885E-004  0.1983362E+03  0.7818608E-02  0.1151150E+00
          2   -1    0    0  501    0  0.00000000000E+00  0.00000000000E+00  0.16457870242E+04  0.16457870242E+04  0.25500000000E-02 0.  1.
         -2   -1    0    0    0  501 -0.00000000000E+00 -0.00000000000E+00 -0.59754449101E+01  0.59754454542E+01  0.25500000000E-02 0. -1.
    5000001    1    1    2    0    0 -0.53467060690E+02  0.29482297364E+02  0.70898954132E+03  0.71576749168E+03  0.77000000000E+02 0.  0.
   -5000001    1    1    2    0    0  0.53467060690E+02 -0.29482297364E+02  0.93082203799E+03  0.93599497800E+03  0.77000000000E+02 0.  0.
<mgrwt>
<rscale>  0 0.19833618E+03</rscale>
<asrwt>0</asrwt>
<pdfrwt beam="1">  1        2 0.25319834E+00 0.19833618E+03</pdfrwt>
<pdfrwt beam="2">  1       -2 0.91929805E-03 0.19833618E+03</pdfrwt>
<totfact> 0.27054246E+04</totfact>
</mgrwt>
</event>
<event>
 4    1  0.6122885E-004  0.1906374E+03  0.7818608E-02  0.1157888E+00
          2   -1    0    0  501    0  0.00000000000E+00  0.00000000000E+00  0.43671834432E+02  0.43671834507E+02  0.25500000000E-02 0.  1.
         -2   -1    0    0    0  501 -0.00000000000E+00 -0.00000000000E+00 -0.20804376154E+03  0.20804376155E+03  0.25500000000E-02 0. -1.
    5000001    1    1    2    0    0  0.47312828488E+02 -0.30230021616E+02 -0.84922316973E+02  0.12764465467E+03  0.77000000000E+02 0.  0.
   -5000001    1    1    2    0    0 -0.47312828488E+02  0.30230021616E+02 -0.79449610132E+02  0.12407094139E+03  0.77000000000E+02 0.  0.
<mgrwt>
<rscale>  0 0.19063738E+03</rscale>
<asrwt>0</asrwt>
<pdfrwt beam="1">  1        2 0.67187439E-02 0.19063738E+03</pdfrwt>
<pdfrwt beam="2">  1       -2 0.32006732E-01 0.19063738E+03</pdfrwt>
<totfact> 0.93402265E+03</totfact>
</mgrwt>
</event>
<event>
 4    1  0.6122885E-004  0.3478131E+03  0.7818608E-02  0.1063516E+00
          2   -1    0    0  501    0  0.00000000000E+00  0.00000000000E+00  0.97048659791E+03  0.97048659791E+03  0.25500000000E-02 0.  1.
         -2   -1    0    0    0  501 -0.00000000000E+00 -0.00000000000E+00 -0.31163225871E+02  0.31163225975E+02  0.25500000000E-02 0. -1.
    5000001    1    1    2    0    0  0.23857068364E+02  0.11387884222E+03  0.76862488700E+03  0.78118548843E+03  0.77000000000E+02 0.  0.
   -5000001    1    1    2    0    0 -0.23857068364E+02 -0.11387884222E+03  0.17069848504E+03  0.22046433546E+03  0.77000000000E+02 0.  0.
<mgrwt>
<rscale>  0 0.34781313E+03</rscale>
<asrwt>0</asrwt>
<pdfrwt beam="1">  1        2 0.14930564E+00 0.34781313E+03</pdfrwt>
<pdfrwt beam="2">  1       -2 0.47943422E-02 0.34781313E+03</pdfrwt>
<totfact> 0.57411176E+03</totfact>
</mgrwt>
</event>
<event>
 4    1  0.6122885E-004  0.2272187E+03  0.7818608E-02  0.1128613E+00
         -2   -1    0    0    0  501 -0.00000000000E+00  0.00000000000E+00  0.28609397377E+02  0.28609397490E+02  0.25500000000E-02 0. -1.
          2   -1    0    0  501    0  0.00000000000E+00 -0.00000000000E+00 -0.45114841945E+03  0.45114841946E+03  0.25500000000E-02 0.  1.
    5000001    1    1    2    0    0 -0.80719967206E+02  0.21500236700E+02 -0.21056556589E+03  0.23925892005E+03  0.77000000000E+02 0.  0.
   -5000001    1    1    2    0    0  0.80719967206E+02 -0.21500236700E+02 -0.21197345619E+03  0.24049889690E+03  0.77000000000E+02 0.  0.
<mgrwt>
<rscale>  0 0.22721870E+03</rscale>
<asrwt>0</asrwt>
<pdfrwt beam="1">  1        2 0.69407444E-01 0.22721870E+03</pdfrwt>
<pdfrwt beam="2">  1       -2 0.44014461E-02 0.22721870E+03</pdfrwt>
<totfact> 0.16292483E+04</totfact>
</mgrwt>
</event>
<event>
 4    1  0.6122885E-004  0.2615517E+03  0.7818608E-02  0.1106215E+00
          2   -1    0    0  501    0  0.00000000000E+00  0.00000000000E+00  0.16141802687E+04  0.16141802687E+04  0.25500000000E-02 0.  1.
         -2   -1    0    0    0  501 -0.00000000000E+00 -0.00000000000E+00 -0.10595051178E+02  0.10595051484E+02  0.25500000000E-02 0. -1.
    5000001    1    1    2    0    0  0.26420805440E+02 -0.94244943531E+02  0.10497429504E+04  0.10571042665E+04  0.77000000000E+02 0.  0.
   -5000001    1    1    2    0    0 -0.26420805440E+02  0.94244943531E+02  0.55384226715E+03  0.56767105371E+03  0.77000000000E+02 0.  0.
<mgrwt>
<rscale>  0 0.26155170E+03</rscale>
<asrwt>0</asrwt>
<pdfrwt beam="1">  1        2 0.24833519E+00 0.26155170E+03</pdfrwt>
<pdfrwt beam="2">  1       -2 0.16300095E-02 0.26155170E+03</pdfrwt>
<totfact> 0.12369500E+04</totfact>
</mgrwt>
</event>
<event>
 4    1  0.6122885E-004  0.2085335E+03  0.7818608E-02  0.1142733E+00
          2   -1    0    0  501    0  0.00000000000E+00  0.00000000000E+00  0.32266953100E+03  0.32266953101E+03  0.25500000000E-02 0.  1.
         -2   -1    0    0    0  501 -0.00000000000E+00 -0.00000000000E+00 -0.33692528844E+02  0.33692528941E+02  0.25500000000E-02 0. -1.
    5000001    1    1    2    0    0  0.22891186464E+02  0.66099997282E+02  0.15649177147E+03  0.18791458325E+03  0.77000000000E+02 0.  0.
   -5000001    1    1    2    0    0 -0.22891186464E+02 -0.66099997282E+02  0.13248523068E+03  0.16844747670E+03  0.77000000000E+02 0.  0.
<mgrwt>
<rscale>  0 0.20853347E+03</rscale>
<asrwt>0</asrwt>
<pdfrwt beam="1">  1        2 0.49641468E-01 0.20853347E+03</pdfrwt>
<pdfrwt beam="2">  1       -2 0.51834658E-02 0.20853347E+03</pdfrwt>
<totfact> 0.18176677E+04</totfact>
</mgrwt>
</event>
<event>
 4    1  0.6122885E-004  0.2467143E+03  0.7818608E-02  0.1115399E+00
         -2   -1    0    0    0  501 -0.00000000000E+00  0.00000000000E+00  0.38733643905E+01  0.38733652299E+01  0.25500000000E-02 0. -1.
          2   -1    0    0  501    0  0.00000000000E+00 -0.00000000000E+00 -0.39286220075E+04  0.39286220076E+04  0.25500000000E-02 0.  1.
    5000001    1    1    2    0    0  0.20462681182E+02 -0.91571786516E+02 -0.23129966104E+04  0.23161792748E+04  0.77000000000E+02 0.  0.
   -5000001    1    1    2    0    0 -0.20462681182E+02  0.91571786516E+02 -0.16117520328E+04  0.16163160980E+04  0.77000000000E+02 0.  0.
<mgrwt>
<rscale>  0 0.24671430E+03</rscale>
<asrwt>0</asrwt>
<pdfrwt beam="1">  1        2 0.60440020E+00 0.24671430E+03</pdfrwt>
<pdfrwt beam="2">  1       -2 0.59590542E-03 0.24671430E+03</pdfrwt>
<totfact> 0.22970250E+03</totfact>
</mgrwt>
</event>
<event>
 4    1  0.6122885E-004  0.3267323E+03  0.7818608E-02  0.1072592E+00
          2   -1    0    0  501    0  0.00000000000E+00  0.00000000000E+00  0.22850035110E+03  0.22850035111E+03  0.25500000000E-02 0.  1.
         -2   -1    0    0    0  501 -0.00000000000E+00 -0.00000000000E+00 -0.11679847155E+03  0.11679847158E+03  0.25500000000E-02 0. -1.
    5000001    1    1    2    0    0 -0.46068087646E+02  0.12843317868E+03  0.69376152443E+01  0.15682627519E+03  0.77000000000E+02 0.  0.
   -5000001    1    1    2    0    0  0.46068087646E+02 -0.12843317868E+03  0.10476426431E+03  0.18847254750E+03  0.77000000000E+02 0.  0.
<mgrwt>
<rscale>  0 0.32673226E+03</rscale>
<asrwt>0</asrwt>
<pdfrwt beam="1">  1        2 0.35153900E-01 0.32673226E+03</pdfrwt>
<pdfrwt beam="2">  1       -2 0.17968996E-01 0.32673226E+03</pdfrwt>
<totfact> 0.37224237E+03</totfact>
</mgrwt>
</event>
<event>
 4    1  0.6122885E-004  0.2145579E+03  0.7818608E-02  0.1138007E+00
         -2   -1    0    0    0  501 -0.00000000000E+00  0.00000000000E+00  0.75315630063E+01  0.75315634380E+01  0.25500000000E-02 0. -1.
          2   -1    0    0  501    0  0.00000000000E+00 -0.00000000000E+00 -0.15280719282E+04  0.15280719283E+04  0.25500000000E-02 0.  1.
    5000001    1    1    2    0    0  0.22742189814E+02 -0.71122270968E+02 -0.74562754221E+03  0.75330273883E+03  0.77000000000E+02 0.  0.
   -5000001    1    1    2    0    0 -0.22742189814E+02  0.71122270968E+02 -0.77491282303E+03  0.78230075286E+03  0.77000000000E+02 0.  0.
<mgrwt>
<rscale>  0 0.21455787E+03</rscale>
<asrwt>0</asrwt>
<pdfrwt beam="1">  1        2 0.23508774E+00 0.21455787E+03</pdfrwt>
<pdfrwt beam="2">  1       -2 0.11587033E-02 0.21455787E+03</pdfrwt>
<totfact> 0.22417320E+04</totfact>
</mgrwt>
</event>
<event>
 4    1  0.6122885E-004  0.2039278E+03  0.7818608E-02  0.1146467E+00
          2   -1    0    0  501    0  0.00000000000E+00  0.00000000000E+00  0.74721172039E+03  0.74721172040E+03  0.25500000000E-02 0.  1.
         -2   -1    0    0    0  501 -0.00000000000E+00 -0.00000000000E+00 -0.13913908411E+02  0.13913908645E+02  0.25500000000E-02 0. -1.
    5000001    1    1    2    0    0  0.54213409328E+02 -0.32923294418E+01  0.22124594736E+03  0.24047599133E+03  0.77000000000E+02 0.  0.
   -5000001    1    1    2    0    0 -0.54213409328E+02  0.32923294418E+01  0.51205186462E+03  0.52064963771E+03  0.77000000000E+02 0.  0.
<mgrwt>
<rscale>  0 0.20392779E+03</rscale>
<asrwt>0</asrwt>
<pdfrwt beam="1">  1        2 0.11495563E+00 0.20392779E+03</pdfrwt>
<pdfrwt beam="2">  1       -2 0.21406016E-02 0.20392779E+03</pdfrwt>
<totfact> 0.26381239E+04</totfact>
</mgrwt>
</event>
<event>
 4    1  0.6122885E-004  0.4374352E+03  0.7818608E-02  0.1031537E+00
          2   -1    0    0  501    0  0.00000000000E+00  0.00000000000E+00  0.35345127052E+03  0.35345127053E+03  0.25500000000E-02 0.  1.
         -2   -1    0    0    0  501 -0.00000000000E+00 -0.00000000000E+00 -0.13534366133E+03  0.13534366135E+03  0.25500000000E-02 0. -1.
    5000001    1    1    2    0    0  0.19031887532E+03  0.54890539798E+02  0.51270109435E+02  0.21861351693E+03  0.77000000000E+02 0.  0.
   -5000001    1    1    2    0    0 -0.19031887532E+03 -0.54890539798E+02  0.16683749976E+03  0.27018141496E+03  0.77000000000E+02 0.  0.
<mgrwt>
<rscale>  0 0.43743520E+03</rscale>
<asrwt>0</asrwt>
<pdfrwt beam="1">  1        2 0.54377117E-01 0.43743520E+03</pdfrwt>
<pdfrwt beam="2">  1       -2 0.20822102E-01 0.43743520E+03</pdfrwt>
<totfact> 0.18046543E+03</totfact>
</mgrwt>
</event>
<event>
 4    1  0.6122885E-004  0.2823722E+03  0.7818608E-02  0.1094400E+00
         -2   -1    0    0    0  501 -0.00000000000E+00  0.00000000000E+00  0.15431088821E+02  0.15431089031E+02  0.25500000000E-02 0. -1.
          2   -1    0    0  501    0  0.00000000000E+00 -0.00000000000E+00 -0.12917767065E+04  0.12917767065E+04  0.25500000000E-02 0.  1.
    5000001    1    1    2    0    0  0.11237082823E+03 -0.86333844414E+00 -0.46641273403E+03  0.48589894717E+03  0.77000000000E+02 0.  0.
   -5000001    1    1    2    0    0 -0.11237082823E+03  0.86333844414E+00 -0.80993288364E+03  0.82130884836E+03  0.77000000000E+02 0.  0.
<mgrwt>
<rscale>  0 0.28237225E+03</rscale>
<asrwt>0</asrwt>
<pdfrwt beam="1">  1        2 0.19873479E+00 0.28237225E+03</pdfrwt>
<pdfrwt beam="2">  1       -2 0.23740147E-02 0.28237225E+03</pdfrwt>
<totfact> 0.10640038E+04</totfact>
</mgrwt>
</event>
<event>
 4    1  0.6122885E-004  0.2404205E+03  0.7818608E-02  0.1119513E+00
         -2   -1    0    0    0  501 -0.00000000000E+00  0.00000000000E+00  0.40019582555E+02  0.40019582637E+02  0.25500000000E-02 0. -1.
          2   -1    0    0  501    0  0.00000000000E+00 -0.00000000000E+00 -0.36108596606E+03  0.36108596607E+03  0.25500000000E-02 0.  1.
    5000001    1    1    2    0    0  0.19566719079E+02  0.90014234584E+02 -0.15051048821E+03  0.19253006514E+03  0.77000000000E+02 0.  0.
   -5000001    1    1    2    0    0 -0.19566719079E+02 -0.90014234584E+02 -0.17055589530E+03  0.20857548357E+03  0.77000000000E+02 0.  0.
<mgrwt>
<rscale>  0 0.24042055E+03</rscale>
<asrwt>0</asrwt>
<pdfrwt beam="1">  1        2 0.55551685E-01 0.24042055E+03</pdfrwt>
<pdfrwt beam="2">  1       -2 0.61568591E-02 0.24042055E+03</pdfrwt>
<totfact> 0.12499185E+04</totfact>
</mgrwt>
</event>
<event>
 4    1  0.6122885E-004  0.1912513E+03  0.7818608E-02  0.1157338E+00
         -2   -1    0    0    0  501 -0.00000000000E+00  0.00000000000E+00  0.49303642620E+01  0.49303649215E+01  0.25500000000E-02 0. -1.
          2   -1    0    0  501    0  0.00000000000E+00 -0.00000000000E+00 -0.18546826767E+04  0.18546826767E+04  0.25500000000E-02 0.  1.
    5000001    1    1    2    0    0  0.11751829867E+02  0.41166510664E+02 -0.56334406161E+03  0.57019147561E+03  0.77000000000E+02 0.  0.
   -5000001    1    1    2    0    0 -0.11751829867E+02 -0.41166510664E+02 -0.12864082509E+04  0.12894215660E+04  0.77000000000E+02 0.  0.
<mgrwt>
<rscale>  0 0.19125127E+03</rscale>
<asrwt>0</asrwt>
<pdfrwt beam="1">  1        2 0.28533524E+00 0.19125127E+03</pdfrwt>
<pdfrwt beam="2">  1       -2 0.75851911E-03 0.19125127E+03</pdfrwt>
<totfact> 0.27731640E+04</totfact>
</mgrwt>
</event>
<event>
 4    1  0.6122885E-004  0.2082893E+03  0.7818608E-02  0.1142928E+00
         -2   -1    0    0    0  501 -0.00000000000E+00  0.00000000000E+00  0.93165080563E+03  0.93165080564E+03  0.25500000000E-02 0. -1.
          2   -1    0    0  501    0  0.00000000000E+00 -0.00000000000E+00 -0.11641819549E+02  0.11641819828E+02  0.25500000000E-02 0.  1.
    5000001    1    1    2    0    0  0.60436894404E+01  0.33627775689E+02  0.73732437202E+03  0.74212100297E+03  0.77000000000E+02 0.  0.
   -5000001    1    1    2    0    0 -0.60436894404E+01 -0.33627775689E+02  0.18268461407E+03  0.20117162249E+03  0.77000000000E+02 0.  0.
<mgrwt>
<rscale>  0 0.20828932E+03</rscale>
<asrwt>0</asrwt>
<pdfrwt beam="1">  1        2 0.17910490E-02 0.20828932E+03</pdfrwt>
<pdfrwt beam="2">  1       -2 0.14333091E+00 0.20828932E+03</pdfrwt>
<totfact> 0.22416698E+03</totfact>
</mgrwt>
</event>
<event>
 4    1  0.6122885E-004  0.1917882E+03  0.7818608E-02  0.1156858E+00
          2   -1    0    0  501    0  0.00000000000E+00  0.00000000000E+00  0.32689031354E+02  0.32689031453E+02  0.25500000000E-02 0.  1.
         -2   -1    0    0    0  501 -0.00000000000E+00 -0.00000000000E+00 -0.28130766316E+03  0.28130766318E+03  0.25500000000E-02 0. -1.
    5000001    1    1    2    0    0 -0.31364349138E+02 -0.44000510570E+02 -0.93815607024E+02  0.13285381232E+03  0.77000000000E+02 0.  0.
   -5000001    1    1    2    0    0  0.31364349138E+02  0.44000510570E+02 -0.15480302479E+03  0.18114288231E+03  0.77000000000E+02 0.  0.
<mgrwt>
<rscale>  0 0.19178816E+03</rscale>
<asrwt>0</asrwt>
<pdfrwt beam="1">  1        2 0.50290819E-02 0.19178816E+03</pdfrwt>
<pdfrwt beam="2">  1       -2 0.43278100E-01 0.19178816E+03</pdfrwt>
<totfact> 0.77281585E+03</totfact>
</mgrwt>
</event>
<event>
 4    1  0.6122885E-004  0.2860959E+03  0.7818608E-02  0.1092405E+00
         -2   -1    0    0    0  501 -0.00000000000E+00  0.00000000000E+00  0.26154913372E+02  0.26154913496E+02  0.25500000000E-02 0. -1.
          2   -1    0    0  501    0  0.00000000000E+00 -0.00000000000E+00 -0.78236580197E+03  0.78236580197E+03  0.25500000000E-02 0.  1.
    5000001    1    1    2    0    0  0.11538209622E+03  0.11085453135E+02 -0.47174084950E+03  0.49183772170E+03  0.77000000000E+02 0.  0.
   -5000001    1    1    2    0    0 -0.11538209622E+03 -0.11085453135E+02 -0.28447003910E+03  0.31668299377E+03  0.77000000000E+02 0.  0.
<mgrwt>
<rscale>  0 0.28609586E+03</rscale>
<asrwt>0</asrwt>
<pdfrwt beam="1">  1        2 0.12036395E+00 0.28609586E+03</pdfrwt>
<pdfrwt beam="2">  1       -2 0.40238334E-02 0.28609586E+03</pdfrwt>
<totfact> 0.99258257E+03</totfact>
</mgrwt>
</event>
<event>
 4    1  0.6122885E-004  0.2975745E+03  0.7818608E-02  0.1086459E+00
          2   -1    0    0  501    0  0.00000000000E+00  0.00000000000E+00  0.30167016382E+02  0.30167016490E+02  0.25500000000E-02 0.  1.
         -2   -1    0    0    0  501 -0.00000000000E+00 -0.00000000000E+00 -0.73383621700E+03  0.73383621701E+03  0.25500000000E-02 0. -1.
    5000001    1    1    2    0    0  0.10481892245E+03 -0.71347834330E+02 -0.38123473021E+03  0.40907999155E+03  0.77000000000E+02 0.  0.
   -5000001    1    1    2    0    0 -0.10481892245E+03  0.71347834330E+02 -0.32243447041E+03  0.35492324195E+03  0.77000000000E+02 0.  0.
<mgrwt>
<rscale>  0 0.29757452E+03</rscale>
<asrwt>0</asrwt>
<pdfrwt beam="1">  1        2 0.46410800E-02 0.29757452E+03</pdfrwt>
<pdfrwt beam="2">  1       -2 0.11289787E+00 0.29757452E+03</pdfrwt>
<totfact> 0.11196021E+03</totfact>
</mgrwt>
</event>
<event>
 4    1  0.6122885E-004  0.3050084E+03  0.7818608E-02  0.1082763E+00
         -2   -1    0    0    0  501 -0.00000000000E+00  0.00000000000E+00  0.14574112525E+02  0.14574112749E+02  0.25500000000E-02 0. -1.
          2   -1    0    0  501    0  0.00000000000E+00 -0.00000000000E+00 -0.15958110172E+04  0.15958110172E+04  0.25500000000E-02 0.  1.
    5000001    1    1    2    0    0  0.69510258595E+02  0.65979412214E+02 -0.31415960108E+03  0.33735769420E+03  0.77000000000E+02 0.  0.
   -5000001    1    1    2    0    0 -0.69510258595E+02 -0.65979412214E+02 -0.12670773036E+04  0.12730274358E+04  0.77000000000E+02 0.  0.
<mgrwt>
<rscale>  0 0.30500839E+03</rscale>
<asrwt>0</asrwt>
<pdfrwt beam="1">  1        2 0.24550925E+00 0.30500839E+03</pdfrwt>
<pdfrwt beam="2">  1       -2 0.22421724E-02 0.30500839E+03</pdfrwt>
<totfact> 0.79338592E+03</totfact>
</mgrwt>
</event>
<event>
 4    1  0.6122885E-004  0.5001002E+03  0.7818608E-02  0.1013753E+00
         -2   -1    0    0    0  501 -0.00000000000E+00  0.00000000000E+00  0.24863603332E+02  0.24863603462E+02  0.25500000000E-02 0. -1.
          2   -1    0    0  501    0  0.00000000000E+00 -0.00000000000E+00 -0.25147224081E+04  0.25147224081E+04  0.25500000000E-02 0.  1.
    5000001    1    1    2    0    0 -0.18581243225E+03 -0.97331391374E+02 -0.67498944340E+03  0.71101294533E+03  0.77000000000E+02 0.  0.
   -5000001    1    1    2    0    0  0.18581243225E+03  0.97331391374E+02 -0.18148693614E+04  0.18285730662E+04  0.77000000000E+02 0.  0.
<mgrwt>
<rscale>  0 0.50010023E+03</rscale>
<asrwt>0</asrwt>
<pdfrwt beam="1">  1        2 0.38688017E+00 0.50010023E+03</pdfrwt>
<pdfrwt beam="2">  1       -2 0.38251717E-02 0.50010023E+03</pdfrwt>
<totfact> 0.11284381E+03</totfact>
</mgrwt>
</event>
<event>
 4    1  0.6122885E-004  0.2605502E+03  0.7818608E-02  0.1106813E+00
          2   -1    0    0  501    0  0.00000000000E+00  0.00000000000E+00  0.42947872982E+03  0.42947872982E+03  0.25500000000E-02 0.  1.
         -2   -1    0    0    0  501 -0.00000000000E+00 -0.00000000000E+00 -0.39516741161E+02  0.39516741243E+02  0.25500000000E-02 0. -1.
    5000001    1    1    2    0    0 -0.18487666158E+02 -0.38882030961E+02  0.22432474375E+02  0.91026490859E+02  0.77000000000E+02 0.  0.
   -5000001    1    1    2    0    0  0.18487666158E+02  0.38882030961E+02  0.36752951428E+03  0.37796898021E+03  0.77000000000E+02 0.  0.
<mgrwt>
<rscale>  0 0.26055019E+03</rscale>
<asrwt>0</asrwt>
<pdfrwt beam="1">  1        2 0.66073648E-01 0.26055019E+03</pdfrwt>
<pdfrwt beam="2">  1       -2 0.60794989E-02 0.26055019E+03</pdfrwt>
<totfact> 0.10599731E+04</totfact>
</mgrwt>
</event>
<event>
 4    1  0.6122885E-004  0.2223840E+03  0.7818608E-02  0.1132118E+00
          2   -1    0    0  501    0  0.00000000000E+00  0.00000000000E+00  0.22198609547E+02  0.22198609694E+02  0.25500000000E-02 0.  1.
         -2   -1    0    0    0  501 -0.00000000000E+00 -0.00000000000E+00 -0.55695649398E+03  0.55695649398E+03  0.25500000000E-02 0. -1.
    5000001    1    1    2    0    0  0.79141163517E+02 -0.13082631541E+02 -0.26848623840E+03  0.29059996425E+03  0.77000000000E+02 0.  0.
   -5000001    1    1    2    0    0 -0.79141163517E+02  0.13082631541E+02 -0.26627164603E+03  0.28855513943E+03  0.77000000000E+02 0.  0.
<mgrwt>
<rscale>  0 0.22238399E+03</rscale>
<asrwt>0</asrwt>
<pdfrwt beam="1">  1        2 0.34151711E-02 0.22238399E+03</pdfrwt>
<pdfrwt beam="2">  1       -2 0.85685604E-01 0.22238399E+03</pdfrwt>
<totfact> 0.31638791E+03</totfact>
</mgrwt>
</event>
<event>
 4    1  0.6122885E-004  0.3414540E+03  0.7818608E-02  0.1066178E+00
          2   -1    0    0  501    0  0.00000000000E+00  0.00000000000E+00  0.11982698951E+04  0.11982698951E+04  0.25500000000E-02 0.  1.
         -2   -1    0    0    0  501 -0.00000000000E+00 -0.00000000000E+00 -0.24324825256E+02  0.24324825389E+02  0.25500000000E-02 0. -1.
    5000001    1    1    2    0    0 -0.29562700962E+02  0.10604523997E+03  0.96419311691E+03  0.97350753100E+03  0.77000000000E+02 0.  0.
   -5000001    1    1    2    0    0  0.29562700962E+02 -0.10604523997E+03  0.20975195291E+03  0.24908718947E+03  0.77000000000E+02 0.  0.
<mgrwt>
<rscale>  0 0.34145398E+03</rscale>
<asrwt>0</asrwt>
<pdfrwt beam="1">  1        2 0.18434922E+00 0.34145398E+03</pdfrwt>
<pdfrwt beam="2">  1       -2 0.37422806E-02 0.34145398E+03</pdfrwt>
<totfact> 0.61089063E+03</totfact>
</mgrwt>
</event>
<event>
 4    1  0.6122885E-004  0.2120953E+03  0.7818608E-02  0.1139917E+00
          2   -1    0    0  501    0  0.00000000000E+00  0.00000000000E+00  0.17615580442E+03  0.17615580444E+03  0.25500000000E-02 0.  1.
         -2   -1    0    0    0  501 -0.00000000000E+00 -0.00000000000E+00 -0.63841813083E+02  0.63841813134E+02  0.25500000000E-02 0. -1.
    5000001    1    1    2    0    0 -0.21120022996E+02  0.95622837922E+01  0.13438679753E+03  0.15660876091E+03  0.77000000000E+02 0.  0.
   -5000001    1    1    2    0    0  0.21120022996E+02 -0.95622837922E+01 -0.22072806193E+02  0.83388856665E+02  0.77000000000E+02 0.  0.
<mgrwt>
<rscale>  0 0.21209532E+03</rscale>
<asrwt>0</asrwt>
<pdfrwt beam="1">  1        2 0.27100893E-01 0.21209532E+03</pdfrwt>
<pdfrwt beam="2">  1       -2 0.98218176E-02 0.21209532E+03</pdfrwt>
<totfact> 0.13032890E+04</totfact>
</mgrwt>
</event>
<event>
 4    1  0.6122885E-004  0.4111312E+03  0.7818608E-02  0.1039992E+00
         -2   -1    0    0    0  501 -0.00000000000E+00  0.00000000000E+00  0.18498666970E+02  0.18498667146E+02  0.25500000000E-02 0. -1.
          2   -1    0    0  501    0  0.00000000000E+00 -0.00000000000E+00 -0.22843386642E+04  0.22843386642E+04  0.25500000000E-02 0.  1.
    5000001    1    1    2    0    0  0.26476884282E+01  0.15571767440E+03 -0.17483721413E+04  0.17569829677E+04  0.77000000000E+02 0.  0.
   -5000001    1    1    2    0    0 -0.26476884282E+01 -0.15571767440E+03 -0.51746785594E+03  0.54585436364E+03  0.77000000000E+02 0.  0.
<mgrwt>
<rscale>  0 0.41113122E+03</rscale>
<asrwt>0</asrwt>
<pdfrwt beam="1">  1        2 0.35143649E+00 0.41113122E+03</pdfrwt>
<pdfrwt beam="2">  1       -2 0.28459506E-02 0.41113122E+03</pdfrwt>
<totfact> 0.23827551E+03</totfact>
</mgrwt>
</event>
<event>
 4    1  0.6122885E-004  0.2765139E+03  0.7818608E-02  0.1097608E+00
          2   -1    0    0  501    0  0.00000000000E+00  0.00000000000E+00  0.97603539702E+03  0.97603539702E+03  0.25500000000E-02 0.  1.
         -2   -1    0    0    0  501 -0.00000000000E+00 -0.00000000000E+00 -0.19584319812E+02  0.19584319978E+02  0.25500000000E-02 0. -1.
    5000001    1    1    2    0    0 -0.53236327580E+02  0.73947867020E+02  0.22660486589E+03  0.25608818570E+03  0.77000000000E+02 0.  0.
   -5000001    1    1    2    0    0  0.53236327580E+02 -0.73947867020E+02  0.72984621131E+03  0.73953153129E+03  0.77000000000E+02 0.  0.
<mgrwt>
<rscale>  0 0.27651394E+03</rscale>
<asrwt>0</asrwt>
<pdfrwt beam="1">  1        2 0.15015927E+00 0.27651394E+03</pdfrwt>
<pdfrwt beam="2">  1       -2 0.30129728E-02 0.27651394E+03</pdfrwt>
<totfact> 0.11407859E+04</totfact>
</mgrwt>
</event>
<event>
 4    1  0.6122885E-004  0.4786212E+03  0.7818608E-02  0.1019515E+00
          2   -1    0    0  501    0  0.00000000000E+00  0.00000000000E+00  0.94162098115E+03  0.94162098115E+03  0.25500000000E-02 0. -1.
         -2   -1    0    0    0  501 -0.00000000000E+00 -0.00000000000E+00 -0.60820183895E+02  0.60820183948E+02  0.25500000000E-02 0.  1.
    5000001    1    1    2    0    0 -0.14452001444E+03 -0.12229159274E+03  0.70114955590E+03  0.73032935582E+03  0.77000000000E+02 0.  0.
   -5000001    1    1    2    0    0  0.14452001444E+03  0.12229159274E+03  0.17965124135E+03  0.27211180928E+03  0.77000000000E+02 0.  0.
<mgrwt>
<rscale>  0 0.47862119E+03</rscale>
<asrwt>0</asrwt>
<pdfrwt beam="1">  1        2 0.14486475E+00 0.47862119E+03</pdfrwt>
<pdfrwt beam="2">  1       -2 0.93569527E-02 0.47862119E+03</pdfrwt>
<totfact> 0.21109149E+03</totfact>
</mgrwt>
</event>
<event>
 4    1  0.6122885E-004  0.1963049E+03  0.7818608E-02  0.1152895E+00
         -2   -1    0    0    0  501 -0.00000000000E+00  0.00000000000E+00  0.73858541032E+03  0.73858541033E+03  0.25500000000E-02 0. -1.
          2   -1    0    0  501    0  0.00000000000E+00 -0.00000000000E+00 -0.13043729293E+02  0.13043729543E+02  0.25500000000E-02 0.  1.
    5000001    1    1    2    0    0  0.59214463992E+02 -0.13932438058E+02  0.37084122947E+03  0.38360485275E+03  0.77000000000E+02 0.  0.
   -5000001    1    1    2    0    0 -0.59214463992E+02  0.13932438058E+02  0.35470045156E+03  0.36802428712E+03  0.77000000000E+02 0.  0.
<mgrwt>
<rscale>  0 0.19630495E+03</rscale>
<asrwt>0</asrwt>
<pdfrwt beam="1">  1        2 0.20067273E-02 0.19630495E+03</pdfrwt>
<pdfrwt beam="2">  1       -2 0.11362854E+00 0.19630495E+03</pdfrwt>
<totfact> 0.33792692E+03</totfact>
</mgrwt>
</event>
<event>
 4    1  0.6122885E-004  0.2460210E+03  0.7818608E-02  0.1115846E+00
         -2   -1    0    0    0  501 -0.00000000000E+00  0.00000000000E+00  0.29976362617E+02  0.29976362725E+02  0.25500000000E-02 0. -1.
          2   -1    0    0  501    0  0.00000000000E+00 -0.00000000000E+00 -0.50478378365E+03  0.50478378366E+03  0.25500000000E-02 0.  1.
    5000001    1    1    2    0    0  0.31795291371E+02 -0.75342214902E+02 -0.12839218085E+03  0.17058998213E+03  0.77000000000E+02 0.  0.
   -5000001    1    1    2    0    0 -0.31795291371E+02  0.75342214902E+02 -0.34641524018E+03  0.36417016425E+03  0.77000000000E+02 0.  0.
<mgrwt>
<rscale>  0 0.24602099E+03</rscale>
<asrwt>0</asrwt>
<pdfrwt beam="1">  1        2 0.77659037E-01 0.24602099E+03</pdfrwt>
<pdfrwt beam="2">  1       -2 0.46117485E-02 0.24602099E+03</pdfrwt>
<totfact> 0.13467420E+04</totfact>
</mgrwt>
</event>
<event>
 4    1  0.6122885E-004  0.1928983E+03  0.7818608E-02  0.1155873E+00
         -2   -1    0    0    0  501 -0.00000000000E+00  0.00000000000E+00  0.19238741533E+02  0.19238741702E+02  0.25500000000E-02 0. -1.
          2   -1    0    0  501    0  0.00000000000E+00 -0.00000000000E+00 -0.48352654400E+03  0.48352654400E+03  0.25500000000E-02 0.  1.
    5000001    1    1    2    0    0  0.28709403823E+02 -0.26094376564E+02 -0.11948652666E+03  0.14734712895E+03  0.77000000000E+02 0.  0.
   -5000001    1    1    2    0    0 -0.28709403823E+02  0.26094376564E+02 -0.34480127580E+03  0.35541815675E+03  0.77000000000E+02 0.  0.
<mgrwt>
<rscale>  0 0.19289834E+03</rscale>
<asrwt>0</asrwt>
<pdfrwt beam="1">  1        2 0.74388690E-01 0.19289834E+03</pdfrwt>
<pdfrwt beam="2">  1       -2 0.29598068E-02 0.19289834E+03</pdfrwt>
<totfact> 0.26982686E+04</totfact>
</mgrwt>
</event>
<event>
 4    1  0.6122885E-004  0.3141588E+03  0.7818608E-02  0.1078369E+00
          2   -1    0    0  501    0  0.00000000000E+00  0.00000000000E+00  0.28846798301E+03  0.28846798302E+03  0.25500000000E-02 0.  1.
         -2   -1    0    0    0  501 -0.00000000000E+00 -0.00000000000E+00 -0.85534400997E+02  0.85534401035E+02  0.25500000000E-02 0. -1.
    5000001    1    1    2    0    0  0.65073401776E+02 -0.11793875194E+03  0.72285511682E+02  0.17116743857E+03  0.77000000000E+02 0.  0.
   -5000001    1    1    2    0    0 -0.65073401776E+02  0.11793875194E+03  0.13064807033E+03  0.20283494548E+03  0.77000000000E+02 0.  0.
<mgrwt>
<rscale>  0 0.31415879E+03</rscale>
<asrwt>0</asrwt>
<pdfrwt beam="1">  1        2 0.44379690E-01 0.31415879E+03</pdfrwt>
<pdfrwt beam="2">  1       -2 0.13159138E-01 0.31415879E+03</pdfrwt>
<totfact> 0.48485355E+03</totfact>
</mgrwt>
</event>
<event>
 4    1  0.6122885E-004  0.2128812E+03  0.7818608E-02  0.1139304E+00
          2   -1    0    0  501    0  0.00000000000E+00  0.00000000000E+00  0.86864842667E+03  0.86864842667E+03  0.25500000000E-02 0.  1.
         -2   -1    0    0    0  501 -0.00000000000E+00 -0.00000000000E+00 -0.13042797281E+02  0.13042797531E+02  0.25500000000E-02 0. -1.
    5000001    1    1    2    0    0 -0.46510109218E+02  0.21378465251E+02  0.64619189898E+03  0.65277346710E+03  0.77000000000E+02 0.  0.
   -5000001    1    1    2    0    0  0.46510109218E+02 -0.21378465251E+02  0.20941373040E+03  0.22891775710E+03  0.77000000000E+02 0.  0.
<mgrwt>
<rscale>  0 0.21288124E+03</rscale>
<asrwt>0</asrwt>
<pdfrwt beam="1">  1        2 0.13363820E+00 0.21288124E+03</pdfrwt>
<pdfrwt beam="2">  1       -2 0.20065845E-02 0.21288124E+03</pdfrwt>
<totfact> 0.24032636E+04</totfact>
</mgrwt>
</event>
<event>
 4    1  0.6122885E-004  0.1986811E+03  0.7818608E-02  0.1150857E+00
          2   -1    0    0  501    0  0.00000000000E+00  0.00000000000E+00  0.36463561973E+02  0.36463562062E+02  0.25500000000E-02 0.  1.
         -2   -1    0    0    0  501 -0.00000000000E+00 -0.00000000000E+00 -0.27064127956E+03  0.27064127957E+03  0.25500000000E-02 0. -1.
    5000001    1    1    2    0    0  0.39506330014E+02 -0.29640568204E+02 -0.17695886050E+03  0.19920530039E+03  0.77000000000E+02 0.  0.
   -5000001    1    1    2    0    0 -0.39506330014E+02  0.29640568204E+02 -0.57218857093E+02  0.10789954125E+03  0.77000000000E+02 0.  0.
<mgrwt>
<rscale>  0 0.19868110E+03</rscale>
<asrwt>0</asrwt>
<pdfrwt beam="1">  1        2 0.56097789E-02 0.19868110E+03</pdfrwt>
<pdfrwt beam="2">  1       -2 0.41637119E-01 0.19868110E+03</pdfrwt>
<totfact> 0.72321266E+03</totfact>
</mgrwt>
</event>
<event>
 4    1  0.6122885E-004  0.2606813E+03  0.7818608E-02  0.1106735E+00
          2   -1    0    0  501    0  0.00000000000E+00  0.00000000000E+00  0.37095898694E+03  0.37095898694E+03  0.25500000000E-02 0.  1.
         -2   -1    0    0    0  501 -0.00000000000E+00 -0.00000000000E+00 -0.45796650969E+02  0.45796651040E+02  0.25500000000E-02 0. -1.
    5000001    1    1    2    0    0  0.11415782268E+01 -0.93214988412E+02  0.84762184053E+02  0.14766165755E+03  0.77000000000E+02 0.  0.
   -5000001    1    1    2    0    0 -0.11415782268E+01  0.93214988412E+02  0.24040015191E+03  0.26909398043E+03  0.77000000000E+02 0.  0.
<mgrwt>
<rscale>  0 0.26068126E+03</rscale>
<asrwt>0</asrwt>
<pdfrwt beam="1">  1        2 0.57070614E-01 0.26068126E+03</pdfrwt>
<pdfrwt beam="2">  1       -2 0.70456386E-02 0.26068126E+03</pdfrwt>
<totfact> 0.99010546E+03</totfact>
</mgrwt>
</event>
<event>
 4    1  0.6122885E-004  0.4630542E+03  0.7818608E-02  0.1023899E+00
         -2   -1    0    0    0  501 -0.00000000000E+00  0.00000000000E+00  0.11558786103E+03  0.11558786106E+03  0.25500000000E-02 0. -1.
          2   -1    0    0  501    0  0.00000000000E+00 -0.00000000000E+00 -0.46375809830E+03  0.46375809831E+03  0.25500000000E-02 0.  1.
    5000001    1    1    2    0    0 -0.17110477373E+03 -0.12791861590E+03 -0.11763398247E+03  0.25574747256E+03  0.77000000000E+02 0.  0.
   -5000001    1    1    2    0    0  0.17110477373E+03  0.12791861590E+03 -0.23053625480E+03  0.32359848681E+03  0.77000000000E+02 0.  0.
<mgrwt>
<rscale>  0 0.46305424E+03</rscale>
<asrwt>0</asrwt>
<pdfrwt beam="1">  1        2 0.71347399E-01 0.46305424E+03</pdfrwt>
<pdfrwt beam="2">  1       -2 0.17782748E-01 0.46305424E+03</pdfrwt>
<totfact> 0.17523024E+03</totfact>
</mgrwt>
</event>
<event>
 4    1  0.6122885E-004  0.2981867E+03  0.7818608E-02  0.1086151E+00
         -2   -1    0    0    0  501 -0.00000000000E+00  0.00000000000E+00  0.84897694312E+02  0.84897694350E+02  0.25500000000E-02 0. -1.
          2   -1    0    0  501    0  0.00000000000E+00 -0.00000000000E+00 -0.26183078940E+03  0.26183078941E+03  0.25500000000E-02 0.  1.
    5000001    1    1    2    0    0 -0.53938296295E+02  0.11307961083E+03 -0.11703173163E+03  0.18794085346E+03  0.77000000000E+02 0.  0.
   -5000001    1    1    2    0    0  0.53938296295E+02 -0.11307961083E+03 -0.59901363454E+02  0.15878763030E+03  0.77000000000E+02 0.  0.
<mgrwt>
<rscale>  0 0.29818672E+03</rscale>
<asrwt>0</asrwt>
<pdfrwt beam="1">  1        2 0.40281660E-01 0.29818672E+03</pdfrwt>
<pdfrwt beam="2">  1       -2 0.13061184E-01 0.29818672E+03</pdfrwt>
<totfact> 0.54413182E+03</totfact>
</mgrwt>
</event>
<event>
 4    1  0.6122885E-004  0.2879242E+03  0.7818608E-02  0.1091438E+00
          2   -1    0    0  501    0  0.00000000000E+00  0.00000000000E+00  0.21824630762E+04  0.21824630762E+04  0.25500000000E-02 0.  1.
         -2   -1    0    0    0  501 -0.00000000000E+00 -0.00000000000E+00 -0.94961900753E+01  0.94961904177E+01  0.25500000000E-02 0. -1.
    5000001    1    1    2    0    0 -0.10037698346E+03 -0.64430126300E+02  0.90483709412E+03  0.91590717154E+03  0.77000000000E+02 0.  0.
   -5000001    1    1    2    0    0  0.10037698346E+03  0.64430126300E+02  0.12681297920E+04  0.12760520950E+04  0.77000000000E+02 0.  0.
<mgrwt>
<rscale>  0 0.28792419E+03</rscale>
<asrwt>0</asrwt>
<pdfrwt beam="1">  1        2 0.33576365E+00 0.28792419E+03</pdfrwt>
<pdfrwt beam="2">  1       -2 0.14609519E-02 0.28792419E+03</pdfrwt>
<totfact> 0.72970813E+03</totfact>
</mgrwt>
</event>
<event>
 4    1  0.6122885E-004  0.2532564E+03  0.7818608E-02  0.1111264E+00
         -2   -1    0    0    0  501 -0.00000000000E+00  0.00000000000E+00  0.87081346812E+01  0.87081350545E+01  0.25500000000E-02 0. -1.
          2   -1    0    0  501    0  0.00000000000E+00 -0.00000000000E+00 -0.18413466462E+04  0.18413466462E+04  0.25500000000E-02 0.  1.
    5000001    1    1    2    0    0  0.95837742108E+02 -0.29303318668E+02 -0.97390322771E+03  0.98206927161E+03  0.77000000000E+02 0.  0.
   -5000001    1    1    2    0    0 -0.95837742108E+02  0.29303318668E+02 -0.85873528382E+03  0.86798550965E+03  0.77000000000E+02 0.  0.
<mgrwt>
<rscale>  0 0.25325635E+03</rscale>
<asrwt>0</asrwt>
<pdfrwt beam="1">  1        2 0.28328379E+00 0.25325635E+03</pdfrwt>
<pdfrwt beam="2">  1       -2 0.13397145E-02 0.25325635E+03</pdfrwt>
<totfact> 0.12505649E+04</totfact>
</mgrwt>
</event>
<event>
 4    1  0.6122885E-004  0.2552093E+03  0.7818608E-02  0.1110056E+00
          2   -1    0    0  501    0  0.00000000000E+00  0.00000000000E+00  0.14883709423E+04  0.14883709423E+04  0.25500000000E-02 0.  1.
         -2   -1    0    0    0  501 -0.00000000000E+00 -0.00000000000E+00 -0.10940115502E+02  0.10940115799E+02  0.25500000000E-02 0. -1.
    5000001    1    1    2    0    0 -0.13906952012E+02  0.76145895116E+02  0.11267365946E+04  0.11320141140E+04  0.77000000000E+02 0.  0.
   -5000001    1    1    2    0    0  0.13906952012E+02 -0.76145895116E+02  0.35069423219E+03  0.36729694410E+03  0.77000000000E+02 0.  0.
<mgrwt>
<rscale>  0 0.25520933E+03</rscale>
<asrwt>0</asrwt>
<pdfrwt beam="1">  1        2 0.22898001E+00 0.25520933E+03</pdfrwt>
<pdfrwt beam="2">  1       -2 0.16830957E-02 0.25520933E+03</pdfrwt>
<totfact> 0.13757551E+04</totfact>
</mgrwt>
</event>
<event>
 4    1  0.6122885E-004  0.2548789E+03  0.7818608E-02  0.1110260E+00
         -2   -1    0    0    0  501 -0.00000000000E+00  0.00000000000E+00  0.94571679022E+02  0.94571679056E+02  0.25500000000E-02 0. -1.
          2   -1    0    0  501    0  0.00000000000E+00 -0.00000000000E+00 -0.17173013697E+03  0.17173013699E+03  0.25500000000E-02 0.  1.
    5000001    1    1    2    0    0 -0.23496251785E+01  0.77115254456E+02 -0.10756505524E+03  0.15313890530E+03  0.77000000000E+02 0.  0.
   -5000001    1    1    2    0    0  0.23496251785E+01 -0.77115254456E+02  0.30406597294E+02  0.11316291074E+03  0.77000000000E+02 0.  0.
<mgrwt>
<rscale>  0 0.25487885E+03</rscale>
<asrwt>0</asrwt>
<pdfrwt beam="1">  1        2 0.26420021E-01 0.25487885E+03</pdfrwt>
<pdfrwt beam="2">  1       -2 0.14549489E-01 0.25487885E+03</pdfrwt>
<totfact> 0.71874155E+03</totfact>
</mgrwt>
</event>
<event>
 4    1  0.6122885E-004  0.3089758E+03  0.7818608E-02  0.1080838E+00
          2   -1    0    0  501    0  0.00000000000E+00  0.00000000000E+00  0.11982098987E+04  0.11982098987E+04  0.25500000000E-02 0.  1.
         -2   -1    0    0    0  501 -0.00000000000E+00 -0.00000000000E+00 -0.19918471250E+02  0.19918471413E+02  0.25500000000E-02 0. -1.
    5000001    1    1    2    0    0 -0.68957123509E+02  0.10013769562E+03  0.81058725998E+03  0.82326383925E+03  0.77000000000E+02 0.  0.
   -5000001    1    1    2    0    0  0.68957123509E+02 -0.10013769562E+03  0.36770416749E+03  0.39486453089E+03  0.77000000000E+02 0.  0.
<mgrwt>
<rscale>  0 0.30897579E+03</rscale>
<asrwt>0</asrwt>
<pdfrwt beam="1">  1        2 0.18434000E+00 0.30897579E+03</pdfrwt>
<pdfrwt beam="2">  1       -2 0.30643799E-02 0.30897579E+03</pdfrwt>
<totfact> 0.82350752E+03</totfact>
</mgrwt>
</event>
<event>
 4    1  0.6122885E-004  0.2408522E+03  0.7818608E-02  0.1119226E+00
         -2   -1    0    0    0  501 -0.00000000000E+00  0.00000000000E+00  0.17597056068E+04  0.17597056068E+04  0.25500000000E-02 0.  1.
          2   -1    0    0  501    0  0.00000000000E+00 -0.00000000000E+00 -0.82414050866E+01  0.82414054811E+01  0.25500000000E-02 0. -1.
    5000001    1    1    2    0    0  0.46729313247E+02 -0.60974232857E+02  0.12551638656E+04  0.12598677770E+04  0.77000000000E+02 0.  0.
   -5000001    1    1    2    0    0 -0.46729313247E+02  0.60974232857E+02  0.49630033604E+03  0.50807923530E+03  0.77000000000E+02 0.  0.
<mgrwt>
<rscale>  0 0.24085221E+03</rscale>
<asrwt>0</asrwt>
<pdfrwt beam="1">  1        2 0.12679051E-02 0.24085221E+03</pdfrwt>
<pdfrwt beam="2">  1       -2 0.27072466E+00 0.24085221E+03</pdfrwt>
<totfact> 0.55978173E+02</totfact>
</mgrwt>
</event>
<event>
 4    1  0.6122885E-004  0.4088767E+03  0.7818608E-02  0.1040749E+00
         -2   -1    0    0    0  501 -0.00000000000E+00  0.00000000000E+00  0.23027727013E+02  0.23027727154E+02  0.25500000000E-02 0. -1.
          2   -1    0    0  501    0  0.00000000000E+00 -0.00000000000E+00 -0.18149878279E+04  0.18149878279E+04  0.25500000000E-02 0.  1.
    5000001    1    1    2    0    0 -0.16125792054E+03  0.88390408234E+02 -0.69249408352E+03  0.72062059151E+03  0.77000000000E+02 0.  0.
   -5000001    1    1    2    0    0  0.16125792054E+03 -0.88390408234E+02 -0.10994660174E+04  0.11173949635E+04  0.77000000000E+02 0.  0.
<mgrwt>
<rscale>  0 0.40887673E+03</rscale>
<asrwt>0</asrwt>
<pdfrwt beam="1">  1        2 0.27922878E+00 0.40887673E+03</pdfrwt>
<pdfrwt beam="2">  1       -2 0.35427287E-02 0.40887673E+03</pdfrwt>
<totfact> 0.30574426E+03</totfact>
</mgrwt>
</event>
<event>
 4    1  0.6122885E-004  0.3205460E+03  0.7818608E-02  0.1075398E+00
          2   -1    0    0  501    0  0.00000000000E+00  0.00000000000E+00  0.11918946322E+04  0.11918946322E+04  0.25500000000E-02 0.  1.
         -2   -1    0    0    0  501 -0.00000000000E+00 -0.00000000000E+00 -0.21551772728E+02  0.21551772879E+02  0.25500000000E-02 0. -1.
    5000001    1    1    2    0    0 -0.64258814040E+02 -0.11215312891E+03  0.37607540219E+03  0.40505459834E+03  0.77000000000E+02 0.  0.
   -5000001    1    1    2    0    0  0.64258814040E+02  0.11215312891E+03  0.79426745729E+03  0.80839180675E+03  0.77000000000E+02 0.  0.
<mgrwt>
<rscale>  0 0.32054605E+03</rscale>
<asrwt>0</asrwt>
<pdfrwt beam="1">  1        2 0.18336836E+00 0.32054605E+03</pdfrwt>
<pdfrwt beam="2">  1       -2 0.33156582E-02 0.32054605E+03</pdfrwt>
<totfact> 0.73844733E+03</totfact>
</mgrwt>
</event>
<event>
 4    1  0.6122885E-004  0.1753718E+03  0.7818608E-02  0.1172359E+00
          2   -1    0    0  501    0  0.00000000000E+00  0.00000000000E+00  0.62865290060E+03  0.62865290060E+03  0.25500000000E-02 0.  1.
         -2   -1    0    0    0  501 -0.00000000000E+00 -0.00000000000E+00 -0.12230627812E+02  0.12230628078E+02  0.25500000000E-02 0. -1.
    5000001    1    1    2    0    0  0.59453582948E+01 -0.41203830080E+02  0.28932201289E+03  0.30227360130E+03  0.77000000000E+02 0.  0.
   -5000001    1    1    2    0    0 -0.59453582948E+01  0.41203830080E+02  0.32710025990E+03  0.33860992738E+03  0.77000000000E+02 0.  0.
<mgrwt>
<rscale>  0 0.17537183E+03</rscale>
<asrwt>0</asrwt>
<pdfrwt beam="1">  1        2 0.96715840E-01 0.17537183E+03</pdfrwt>
<pdfrwt beam="2">  1       -2 0.18816349E-02 0.17537183E+03</pdfrwt>
<totfact> 0.38685715E+04</totfact>
</mgrwt>
</event>
<event>
 4    1  0.6122885E-004  0.1989418E+03  0.7818608E-02  0.1150635E+00
         -2   -1    0    0    0  501 -0.00000000000E+00  0.00000000000E+00  0.36948612046E+02  0.36948612134E+02  0.25500000000E-02 0. -1.
          2   -1    0    0  501    0  0.00000000000E+00 -0.00000000000E+00 -0.26778975851E+03  0.26778975852E+03  0.25500000000E-02 0.  1.
    5000001    1    1    2    0    0 -0.46503592584E+02 -0.42456444107E+02 -0.11454578096E+03  0.15170652493E+03  0.77000000000E+02 0.  0.
   -5000001    1    1    2    0    0  0.46503592584E+02  0.42456444107E+02 -0.11629536550E+03  0.15303184573E+03  0.77000000000E+02 0.  0.
<mgrwt>
<rscale>  0 0.19894180E+03</rscale>
<asrwt>0</asrwt>
<pdfrwt beam="1">  1        2 0.41198423E-01 0.19894180E+03</pdfrwt>
<pdfrwt beam="2">  1       -2 0.56844020E-02 0.19894180E+03</pdfrwt>
<totfact> 0.19223128E+04</totfact>
</mgrwt>
</event>
<event>
 4    1  0.6122885E-004  0.2159513E+03  0.7818608E-02  0.1136938E+00
          2   -1    0    0  501    0  0.00000000000E+00  0.00000000000E+00  0.25478693998E+03  0.25478693999E+03  0.25500000000E-02 0.  1.
         -2   -1    0    0    0  501 -0.00000000000E+00 -0.00000000000E+00 -0.45758779100E+02  0.45758779171E+02  0.25500000000E-02 0. -1.
    5000001    1    1    2    0    0  0.49100339287E+02 -0.35368259501E+02  0.16780306898E+03  0.19429005908E+03  0.77000000000E+02 0.  0.
   -5000001    1    1    2    0    0 -0.49100339287E+02  0.35368259501E+02  0.41225091904E+02  0.10625566009E+03  0.77000000000E+02 0.  0.
<mgrwt>
<rscale>  0 0.21595128E+03</rscale>
<asrwt>0</asrwt>
<pdfrwt beam="1">  1        2 0.39197991E-01 0.21595128E+03</pdfrwt>
<pdfrwt beam="2">  1       -2 0.70398121E-02 0.21595128E+03</pdfrwt>
<totfact> 0.14692943E+04</totfact>
</mgrwt>
</event>
<event>
 4    1  0.6122885E-004  0.3188536E+03  0.7818608E-02  0.1076178E+00
          2   -1    0    0  501    0  0.00000000000E+00  0.00000000000E+00  0.17537069281E+03  0.17537069283E+03  0.25500000000E-02 0.  1.
         -2   -1    0    0    0  501 -0.00000000000E+00 -0.00000000000E+00 -0.14493247437E+03  0.14493247440E+03  0.25500000000E-02 0. -1.
    5000001    1    1    2    0    0  0.75168749277E+02  0.11485007872E+03  0.40771472694E+02  0.16257980943E+03  0.77000000000E+02 0.  0.
   -5000001    1    1    2    0    0 -0.75168749277E+02 -0.11485007872E+03 -0.10333254257E+02  0.15772335779E+03  0.77000000000E+02 0.  0.
<mgrwt>
<rscale>  0 0.31885362E+03</rscale>
<asrwt>0</asrwt>
<pdfrwt beam="1">  1        2 0.26980107E-01 0.31885362E+03</pdfrwt>
<pdfrwt beam="2">  1       -2 0.22297304E-01 0.31885362E+03</pdfrwt>
<totfact> 0.34370963E+03</totfact>
</mgrwt>
</event>
<event>
 4    1  0.6122885E-004  0.2401618E+03  0.7818608E-02  0.1119685E+00
          2   -1    0    0  501    0  0.00000000000E+00  0.00000000000E+00  0.44217597549E+03  0.44217597549E+03  0.25500000000E-02 0.  1.
         -2   -1    0    0    0  501 -0.00000000000E+00 -0.00000000000E+00 -0.32610145433E+02  0.32610145533E+02  0.25500000000E-02 0. -1.
    5000001    1    1    2    0    0 -0.78319676454E+02 -0.44937577228E+02  0.24107827595E+03  0.26870261015E+03  0.77000000000E+02 0.  0.
   -5000001    1    1    2    0    0  0.78319676454E+02  0.44937577228E+02  0.16848755410E+03  0.20608351088E+03  0.77000000000E+02 0.  0.
<mgrwt>
<rscale>  0 0.24016180E+03</rscale>
<asrwt>0</asrwt>
<pdfrwt beam="1">  1        2 0.68027072E-01 0.24016180E+03</pdfrwt>
<pdfrwt beam="2">  1       -2 0.50169455E-02 0.24016180E+03</pdfrwt>
<totfact> 0.13708445E+04</totfact>
</mgrwt>
</event>
<event>
 4    1  0.6122885E-004  0.2406067E+03  0.7818608E-02  0.1119389E+00
         -2   -1    0    0    0  501 -0.00000000000E+00  0.00000000000E+00  0.55626060148E+01  0.55626065992E+01  0.25500000000E-02 0. -1.
          2   -1    0    0  501    0  0.00000000000E+00 -0.00000000000E+00 -0.26018197853E+04  0.26018197853E+04  0.25500000000E-02 0.  1.
    5000001    1    1    2    0    0  0.66634323514E+02  0.18696961860E+02 -0.63414847728E+03  0.64254416244E+03  0.77000000000E+02 0.  0.
   -5000001    1    1    2    0    0 -0.66634323514E+02 -0.18696961860E+02 -0.19621087020E+04  0.19648382294E+04  0.77000000000E+02 0.  0.
<mgrwt>
<rscale>  0 0.24060673E+03</rscale>
<asrwt>0</asrwt>
<pdfrwt beam="1">  1        2 0.40027900E+00 0.24060673E+03</pdfrwt>
<pdfrwt beam="2">  1       -2 0.85578766E-03 0.24060673E+03</pdfrwt>
<totfact> 0.94126335E+03</totfact>
</mgrwt>
</event>
<event>
 4    1  0.6122885E-004  0.1983695E+03  0.7818608E-02  0.1151122E+00
          2   -1    0    0  501    0  0.00000000000E+00  0.00000000000E+00  0.27698727833E+03  0.27698727834E+03  0.25500000000E-02 0.  1.
         -2   -1    0    0    0  501 -0.00000000000E+00 -0.00000000000E+00 -0.35516492592E+02  0.35516492683E+02  0.25500000000E-02 0. -1.
    5000001    1    1    2    0    0 -0.32763701042E+02 -0.14082803638E+02  0.39840429717E+02  0.93744574799E+02  0.77000000000E+02 0.  0.
   -5000001    1    1    2    0    0  0.32763701042E+02  0.14082803638E+02  0.20163035602E+03  0.21875919622E+03  0.77000000000E+02 0.  0.
<mgrwt>
<rscale>  0 0.19836952E+03</rscale>
<asrwt>0</asrwt>
<pdfrwt beam="1">  1        2 0.42613426E-01 0.19836952E+03</pdfrwt>
<pdfrwt beam="2">  1       -2 0.54640760E-02 0.19836952E+03</pdfrwt>
<totfact> 0.19685341E+04</totfact>
</mgrwt>
</event>
<event>
 4    1  0.6122885E-004  0.5609865E+03  0.7818608E-02  0.9989825E-01
         -2   -1    0    0    0  501 -0.00000000000E+00  0.00000000000E+00  0.38515996461E+03  0.38515996462E+03  0.25500000000E-02 0. -1.
          2   -1    0    0  501    0  0.00000000000E+00 -0.00000000000E+00 -0.20426960015E+03  0.20426960016E+03  0.25500000000E-02 0.  1.
    5000001    1    1    2    0    0 -0.15754218232E+03  0.89738716328E+02  0.30025666869E+03  0.35910394528E+03  0.77000000000E+02 0.  0.
   -5000001    1    1    2    0    0  0.15754218232E+03 -0.89738716328E+02 -0.11936630422E+03  0.23032561951E+03  0.77000000000E+02 0.  0.
<mgrwt>
<rscale>  0 0.56098653E+03</rscale>
<asrwt>0</asrwt>
<pdfrwt beam="1">  1        2 0.31426093E-01 0.56098653E+03</pdfrwt>
<pdfrwt beam="2">  1       -2 0.59255378E-01 0.56098653E+03</pdfrwt>
<totfact> 0.45311211E+02</totfact>
</mgrwt>
</event>
<event>
 4    1  0.6122885E-004  0.3900447E+03  0.7818608E-02  0.1047282E+00
         -2   -1    0    0    0  501 -0.00000000000E+00  0.00000000000E+00  0.24806618954E+04  0.24806618954E+04  0.25500000000E-02 0. -1.
          2   -1    0    0  501    0  0.00000000000E+00 -0.00000000000E+00 -0.15332083614E+02  0.15332083826E+02  0.25500000000E-02 0.  1.
    5000001    1    1    2    0    0 -0.13682099068E+03 -0.96794926671E+02  0.82715861377E+03  0.84747248549E+03  0.77000000000E+02 0.  0.
   -5000001    1    1    2    0    0  0.13682099068E+03  0.96794926671E+02  0.16381711980E+04  0.16485214937E+04  0.77000000000E+02 0.  0.
<mgrwt>
<rscale>  0 0.39004469E+03</rscale>
<asrwt>0</asrwt>
<pdfrwt beam="1">  1        2 0.23587834E-02 0.39004469E+03</pdfrwt>
<pdfrwt beam="2">  1       -2 0.38164009E+00 0.39004469E+03</pdfrwt>
<totfact> 0.50476694E+01</totfact>
</mgrwt>
</event>
<event>
 4    1  0.6122885E-004  0.2515186E+03  0.7818608E-02  0.1112349E+00
          2   -1    0    0  501    0  0.00000000000E+00  0.00000000000E+00  0.20675009975E+03  0.20675009977E+03  0.25500000000E-02 0.  1.
         -2   -1    0    0    0  501 -0.00000000000E+00 -0.00000000000E+00 -0.76495228805E+02  0.76495228848E+02  0.25500000000E-02 0. -1.
    5000001    1    1    2    0    0 -0.46549052324E+02 -0.86800349843E+02  0.80456243558E+02  0.14867186059E+03  0.77000000000E+02 0.  0.
   -5000001    1    1    2    0    0  0.46549052324E+02  0.86800349843E+02  0.49798627386E+02  0.13457346802E+03  0.77000000000E+02 0.  0.
<mgrwt>
<rscale>  0 0.25151856E+03</rscale>
<asrwt>0</asrwt>
<pdfrwt beam="1">  1        2 0.31807707E-01 0.25151856E+03</pdfrwt>
<pdfrwt beam="2">  1       -2 0.11768497E-01 0.25151856E+03</pdfrwt>
<totfact> 0.82713609E+03</totfact>
</mgrwt>
</event>
<event>
 4    1  0.6122885E-004  0.4822403E+03  0.7818608E-02  0.1018521E+00
         -2   -1    0    0    0  501 -0.00000000000E+00  0.00000000000E+00  0.70422296873E+02  0.70422296919E+02  0.25500000000E-02 0. -1.
          2   -1    0    0  501    0  0.00000000000E+00 -0.00000000000E+00 -0.82557559862E+03  0.82557559862E+03  0.25500000000E-02 0.  1.
    5000001    1    1    2    0    0  0.13225423732E+03 -0.14210692593E+03 -0.60149624713E+03  0.63671995179E+03  0.77000000000E+02 0.  0.
   -5000001    1    1    2    0    0 -0.13225423732E+03  0.14210692593E+03 -0.15365705461E+03  0.25927794376E+03  0.77000000000E+02 0.  0.
<mgrwt>
<rscale>  0 0.48224031E+03</rscale>
<asrwt>0</asrwt>
<pdfrwt beam="1">  1        2 0.12701162E+00 0.48224031E+03</pdfrwt>
<pdfrwt beam="2">  1       -2 0.10834200E-01 0.48224031E+03</pdfrwt>
<totfact> 0.19922690E+03</totfact>
</mgrwt>
</event>
<event>
 4    1  0.6122885E-004  0.2778209E+03  0.7818608E-02  0.1096885E+00
          2   -1    0    0  501    0  0.00000000000E+00  0.00000000000E+00  0.58378942764E+02  0.58378942820E+02  0.25500000000E-02 0.  1.
         -2   -1    0    0    0  501 -0.00000000000E+00 -0.00000000000E+00 -0.33053217426E+03  0.33053217427E+03  0.25500000000E-02 0. -1.
    5000001    1    1    2    0    0 -0.52450628080E+02 -0.90097171025E+02 -0.66103787869E+02  0.14548979134E+03  0.77000000000E+02 0.  0.
   -5000001    1    1    2    0    0  0.52450628080E+02  0.90097171025E+02 -0.20604944363E+03  0.24342132576E+03  0.77000000000E+02 0.  0.
<mgrwt>
<rscale>  0 0.27782094E+03</rscale>
<asrwt>0</asrwt>
<pdfrwt beam="1">  1        2 0.89813759E-02 0.27782094E+03</pdfrwt>
<pdfrwt beam="2">  1       -2 0.50851103E-01 0.27782094E+03</pdfrwt>
<totfact> 0.27160552E+03</totfact>
</mgrwt>
</event>
<event>
 4    1  0.6122885E-004  0.2405839E+03  0.7818608E-02  0.1119404E+00
          2   -1    0    0  501    0  0.00000000000E+00  0.00000000000E+00  0.76689005963E+03  0.76689005963E+03  0.25500000000E-02 0.  1.
         -2   -1    0    0    0  501 -0.00000000000E+00 -0.00000000000E+00 -0.18868607850E+02  0.18868608022E+02  0.25500000000E-02 0. -1.
    5000001    1    1    2    0    0  0.42571773318E+02 -0.81642404066E+02  0.34802359590E+03  0.36814027398E+03  0.77000000000E+02 0.  0.
   -5000001    1    1    2    0    0 -0.42571773318E+02  0.81642404066E+02  0.39999785588E+03  0.41761839367E+03  0.77000000000E+02 0.  0.
<mgrwt>
<rscale>  0 0.24058386E+03</rscale>
<asrwt>0</asrwt>
<pdfrwt beam="1">  1        2 0.11798306E+00 0.24058386E+03</pdfrwt>
<pdfrwt beam="2">  1       -2 0.29028635E-02 0.24058386E+03</pdfrwt>
<totfact> 0.16464016E+04</totfact>
</mgrwt>
</event>
<event>
 4    1  0.6122885E-004  0.4505412E+03  0.7818608E-02  0.1027561E+00
         -2   -1    0    0    0  501 -0.00000000000E+00  0.00000000000E+00  0.39605057172E+02  0.39605057254E+02  0.25500000000E-02 0. -1.
          2   -1    0    0  501    0  0.00000000000E+00 -0.00000000000E+00 -0.12813222183E+04  0.12813222183E+04  0.25500000000E-02 0.  1.
    5000001    1    1    2    0    0 -0.92651490820E+02 -0.10715372233E+03 -0.15959811521E+03  0.22686290428E+03  0.77000000000E+02 0.  0.
   -5000001    1    1    2    0    0  0.92651490820E+02  0.10715372233E+03 -0.10821190459E+04  0.10940643713E+04  0.77000000000E+02 0.  0.
<mgrwt>
<rscale>  0 0.45054118E+03</rscale>
<asrwt>0</asrwt>
<pdfrwt beam="1">  1        2 0.19712646E+00 0.45054118E+03</pdfrwt>
<pdfrwt beam="2">  1       -2 0.60930867E-02 0.45054118E+03</pdfrwt>
<totfact> 0.25976074E+03</totfact>
</mgrwt>
</event>
<event>
 4    1  0.6122885E-004  0.2138781E+03  0.7818608E-02  0.1138531E+00
         -2   -1    0    0    0  501 -0.00000000000E+00  0.00000000000E+00  0.16270945026E+02  0.16270945226E+02  0.25500000000E-02 0. -1.
          2   -1    0    0  501    0  0.00000000000E+00 -0.00000000000E+00 -0.70284554534E+03  0.70284554534E+03  0.25500000000E-02 0.  1.
    5000001    1    1    2    0    0  0.48689174335E+02 -0.55579425085E+02 -0.32017473612E+03  0.33749158485E+03  0.77000000000E+02 0.  0.
   -5000001    1    1    2    0    0 -0.48689174335E+02  0.55579425085E+02 -0.36639986419E+03  0.38162490572E+03  0.77000000000E+02 0.  0.
<mgrwt>
<rscale>  0 0.21387811E+03</rscale>
<asrwt>0</asrwt>
<pdfrwt beam="1">  1        2 0.10813006E+00 0.21387811E+03</pdfrwt>
<pdfrwt beam="2">  1       -2 0.25032229E-02 0.21387811E+03</pdfrwt>
<totfact> 0.22655067E+04</totfact>
</mgrwt>
</event>
<event>
 4    1  0.6122885E-004  0.4031269E+03  0.7818608E-02  0.1042702E+00
         -2   -1    0    0    0  501 -0.00000000000E+00  0.00000000000E+00  0.72048422932E+02  0.72048422978E+02  0.25500000000E-02 0. -1.
          2   -1    0    0  501    0  0.00000000000E+00 -0.00000000000E+00 -0.56389616415E+03  0.56389616416E+03  0.25500000000E-02 0.  1.
    5000001    1    1    2    0    0  0.31377248564E+01 -0.18357854461E+03 -0.19634068810E+03  0.27962402108E+03  0.77000000000E+02 0.  0.
   -5000001    1    1    2    0    0 -0.31377248564E+01  0.18357854461E+03 -0.29550705311E+03  0.35632056606E+03  0.77000000000E+02 0.  0.
<mgrwt>
<rscale>  0 0.40312692E+03</rscale>
<asrwt>0</asrwt>
<pdfrwt beam="1">  1        2 0.86753253E-01 0.40312692E+03</pdfrwt>
<pdfrwt beam="2">  1       -2 0.11084373E-01 0.40312692E+03</pdfrwt>
<totfact> 0.30680552E+03</totfact>
</mgrwt>
</event>
<event>
 4    1  0.6122885E-004  0.1994200E+03  0.7818608E-02  0.1150229E+00
         -2   -1    0    0    0  501 -0.00000000000E+00  0.00000000000E+00  0.14881164766E+02  0.14881164985E+02  0.25500000000E-02 0. -1.
          2   -1    0    0  501    0  0.00000000000E+00 -0.00000000000E+00 -0.66809856795E+03  0.66809856796E+03  0.25500000000E-02 0.  1.
    5000001    1    1    2    0    0 -0.36286933634E+02 -0.51304527360E+02 -0.35404774317E+03  0.36773319203E+03  0.77000000000E+02 0.  0.
   -5000001    1    1    2    0    0  0.36286933634E+02  0.51304527360E+02 -0.29916966002E+03  0.31524654091E+03  0.77000000000E+02 0.  0.
<mgrwt>
<rscale>  0 0.19942001E+03</rscale>
<asrwt>0</asrwt>
<pdfrwt beam="1">  1        2 0.10278437E+00 0.19942001E+03</pdfrwt>
<pdfrwt beam="2">  1       -2 0.22894105E-02 0.19942001E+03</pdfrwt>
<totfact> 0.27318760E+04</totfact>
</mgrwt>
</event>
<event>
 4    1  0.6122885E-004  0.2156356E+03  0.7818608E-02  0.1137179E+00
          2   -1    0    0  501    0  0.00000000000E+00  0.00000000000E+00  0.68504362401E+03  0.68504362401E+03  0.25500000000E-02 0.  1.
         -2   -1    0    0    0  501 -0.00000000000E+00 -0.00000000000E+00 -0.16969249516E+02  0.16969249708E+02  0.25500000000E-02 0. -1.
    5000001    1    1    2    0    0  0.55110709639E+02  0.27164600961E+02  0.19136485452E+03  0.21523153442E+03  0.77000000000E+02 0.  0.
   -5000001    1    1    2    0    0 -0.55110709639E+02 -0.27164600961E+02  0.47670951997E+03  0.48678133930E+03  0.77000000000E+02 0.  0.
<mgrwt>
<rscale>  0 0.21563558E+03</rscale>
<asrwt>0</asrwt>
<pdfrwt beam="1">  1        2 0.10539134E+00 0.21563558E+03</pdfrwt>
<pdfrwt beam="2">  1       -2 0.26106536E-02 0.21563558E+03</pdfrwt>
<totfact> 0.21972229E+04</totfact>
</mgrwt>
</event>
<event>
 4    1  0.6122885E-004  0.1978066E+03  0.7818608E-02  0.1151603E+00
         -2   -1    0    0    0  501 -0.00000000000E+00  0.00000000000E+00  0.38845510813E+01  0.38845519182E+01  0.25500000000E-02 0. -1.
          2   -1    0    0  501    0  0.00000000000E+00 -0.00000000000E+00 -0.25181439094E+04  0.25181439094E+04  0.25500000000E-02 0.  1.
    5000001    1    1    2    0    0 -0.91230011673E+00 -0.59701300640E+02 -0.10408373230E+04  0.10453881626E+04  0.77000000000E+02 0.  0.
   -5000001    1    1    2    0    0  0.91230011673E+00  0.59701300640E+02 -0.14734220353E+04  0.14766402987E+04  0.77000000000E+02 0.  0.
<mgrwt>
<rscale>  0 0.19780657E+03</rscale>
<asrwt>0</asrwt>
<pdfrwt beam="1">  1        2 0.38740545E+00 0.19780657E+03</pdfrwt>
<pdfrwt beam="2">  1       -2 0.59762532E-03 0.19780657E+03</pdfrwt>
<totfact> 0.17479347E+04</totfact>
</mgrwt>
</event>
<event>
 4    1  0.6122885E-004  0.3733929E+03  0.7818608E-02  0.1053403E+00
         -2   -1    0    0    0  501 -0.00000000000E+00  0.00000000000E+00  0.14493824264E+02  0.14493824489E+02  0.25500000000E-02 0. -1.
          2   -1    0    0  501    0  0.00000000000E+00 -0.00000000000E+00 -0.24048561008E+04  0.24048561008E+04  0.25500000000E-02 0.  1.
    5000001    1    1    2    0    0 -0.10778708291E+03 -0.13135583883E+03 -0.12428608102E+04  0.12567833565E+04  0.77000000000E+02 0.  0.
   -5000001    1    1    2    0    0  0.10778708291E+03  0.13135583883E+03 -0.11475014663E+04  0.11625665688E+04  0.77000000000E+02 0.  0.
<mgrwt>
<rscale>  0 0.37339289E+03</rscale>
<asrwt>0</asrwt>
<pdfrwt beam="1">  1        2 0.36997754E+00 0.37339289E+03</pdfrwt>
<pdfrwt beam="2">  1       -2 0.22298210E-02 0.37339289E+03</pdfrwt>
<totfact> 0.29568937E+03</totfact>
</mgrwt>
</event>
<event>
 4    1  0.6122885E-004  0.2591053E+03  0.7818608E-02  0.1107682E+00
         -2   -1    0    0    0  501 -0.00000000000E+00  0.00000000000E+00  0.12125412499E+02  0.12125412767E+02  0.25500000000E-02 0. -1.
          2   -1    0    0  501    0  0.00000000000E+00 -0.00000000000E+00 -0.13841914033E+04  0.13841914033E+04  0.25500000000E-02 0.  1.
    5000001    1    1    2    0    0 -0.97703094828E+02  0.35119582714E+02 -0.63917288657E+03  0.65211215198E+03  0.77000000000E+02 0.  0.
   -5000001    1    1    2    0    0  0.97703094828E+02 -0.35119582714E+02 -0.73289310422E+03  0.74420466408E+03  0.77000000000E+02 0.  0.
<mgrwt>
<rscale>  0 0.25910532E+03</rscale>
<asrwt>0</asrwt>
<pdfrwt beam="1">  1        2 0.21295240E+00 0.25910532E+03</pdfrwt>
<pdfrwt beam="2">  1       -2 0.18654492E-02 0.25910532E+03</pdfrwt>
<totfact> 0.13471238E+04</totfact>
</mgrwt>
</event>
<event>
 4    1  0.6122885E-004  0.1880676E+03  0.7818608E-02  0.1160216E+00
         -2   -1    0    0    0  501 -0.00000000000E+00  0.00000000000E+00  0.78107339438E+01  0.78107343601E+01  0.25500000000E-02 0. -1.
          2   -1    0    0  501    0  0.00000000000E+00 -0.00000000000E+00 -0.11320776231E+04  0.11320776231E+04  0.25500000000E-02 0.  1.
    5000001    1    1    2    0    0 -0.42691972717E+02 -0.32503501016E+02 -0.59761793475E+03  0.60494237581E+03  0.77000000000E+02 0.  0.
   -5000001    1    1    2    0    0  0.42691972717E+02  0.32503501016E+02 -0.52664895444E+03  0.53494598169E+03  0.77000000000E+02 0.  0.
<mgrwt>
<rscale>  0 0.18806762E+03</rscale>
<asrwt>0</asrwt>
<pdfrwt beam="1">  1        2 0.17416566E+00 0.18806762E+03</pdfrwt>
<pdfrwt beam="2">  1       -2 0.12016523E-02 0.18806762E+03</pdfrwt>
<totfact> 0.34735800E+04</totfact>
</mgrwt>
</event>
<event>
 4    1  0.6122885E-004  0.1797012E+03  0.7818608E-02  0.1168093E+00
          2   -1    0    0  501    0  0.00000000000E+00  0.00000000000E+00  0.13694732113E+04  0.13694732113E+04  0.25500000000E-02 0.  1.
         -2   -1    0    0    0  501 -0.00000000000E+00 -0.00000000000E+00 -0.58950633198E+01  0.58950638713E+01  0.25500000000E-02 0. -1.
    5000001    1    1    2    0    0 -0.59383904142E+01  0.22499674512E+02  0.37539181733E+03  0.38391342299E+03  0.77000000000E+02 0.  0.
   -5000001    1    1    2    0    0  0.59383904142E+01 -0.22499674512E+02  0.98818633061E+03  0.99145485215E+03  0.77000000000E+02 0.  0.
<mgrwt>
<rscale>  0 0.17970122E+03</rscale>
<asrwt>0</asrwt>
<pdfrwt beam="1">  1        2 0.21068833E+00 0.17970122E+03</pdfrwt>
<pdfrwt beam="2">  1       -2 0.90693225E-03 0.17970122E+03</pdfrwt>
<totfact> 0.38377869E+04</totfact>
</mgrwt>
</event>
<event>
 4    1  0.6122885E-004  0.2140787E+03  0.7818608E-02  0.1138376E+00
          2   -1    0    0  501    0  0.00000000000E+00  0.00000000000E+00  0.24853696860E+04  0.24853696860E+04  0.25500000000E-02 0.  1.
         -2   -1    0    0    0  501 -0.00000000000E+00 -0.00000000000E+00 -0.46099455924E+01  0.46099462977E+01  0.25500000000E-02 0. -1.
    5000001    1    1    2    0    0  0.55960628485E+02  0.48929480387E+02  0.12211482836E+04  0.12258294402E+04  0.77000000000E+02 0.  0.
   -5000001    1    1    2    0    0 -0.55960628485E+02 -0.48929480387E+02  0.12596114568E+04  0.12641501921E+04  0.77000000000E+02 0.  0.
<mgrwt>
<rscale>  0 0.21407868E+03</rscale>
<asrwt>0</asrwt>
<pdfrwt beam="1">  1        2 0.38236472E+00 0.21407868E+03</pdfrwt>
<pdfrwt beam="2">  1       -2 0.70922216E-03 0.21407868E+03</pdfrwt>
<totfact> 0.14270476E+04</totfact>
</mgrwt>
</event>
<event>
 4    1  0.6122885E-004  0.2307301E+03  0.7818608E-02  0.1126127E+00
          2   -1    0    0  501    0  0.00000000000E+00  0.00000000000E+00  0.78825322985E+02  0.78825323026E+02  0.25500000000E-02 0.  1.
         -2   -1    0    0    0  501 -0.00000000000E+00 -0.00000000000E+00 -0.16884294098E+03  0.16884294100E+03  0.25500000000E-02 0. -1.
    5000001    1    1    2    0    0  0.50843786272E+02  0.67789334742E+02 -0.29843108971E+02  0.11832199990E+03  0.77000000000E+02 0.  0.
   -5000001    1    1    2    0    0 -0.50843786272E+02 -0.67789334742E+02 -0.60174509027E+02  0.12934626413E+03  0.77000000000E+02 0.  0.
<mgrwt>
<rscale>  0 0.23073014E+03</rscale>
<asrwt>0</asrwt>
<pdfrwt beam="1">  1        2 0.12126973E-01 0.23073014E+03</pdfrwt>
<pdfrwt beam="2">  1       -2 0.25975837E-01 0.23073014E+03</pdfrwt>
<totfact> 0.65745780E+03</totfact>
</mgrwt>
</event>
<event>
 4    1  0.6122885E-004  0.1765826E+03  0.7818608E-02  0.1171152E+00
         -2   -1    0    0    0  501 -0.00000000000E+00  0.00000000000E+00  0.49049997940E+01  0.49050004568E+01  0.25500000000E-02 0. -1.
          2   -1    0    0  501    0  0.00000000000E+00 -0.00000000000E+00 -0.15892663505E+04  0.15892663505E+04  0.25500000000E-02 0.  1.
    5000001    1    1    2    0    0 -0.18996902295E+02  0.30419330662E+02 -0.10096265574E+04  0.10131934679E+04  0.77000000000E+02 0.  0.
   -5000001    1    1    2    0    0  0.18996902295E+02 -0.30419330662E+02 -0.57473479331E+03  0.58097788307E+03  0.77000000000E+02 0.  0.
<mgrwt>
<rscale>  0 0.17658258E+03</rscale>
<asrwt>0</asrwt>
<pdfrwt beam="1">  1        2 0.24450211E+00 0.17658258E+03</pdfrwt>
<pdfrwt beam="2">  1       -2 0.75461667E-03 0.17658258E+03</pdfrwt>
<totfact> 0.38186944E+04</totfact>
</mgrwt>
</event>
<event>
 4    1  0.6122885E-004  0.2512070E+03  0.7818608E-02  0.1112544E+00
         -2   -1    0    0    0  501 -0.00000000000E+00  0.00000000000E+00  0.39772798337E+02  0.39772798419E+02  0.25500000000E-02 0. -1.
          2   -1    0    0  501    0  0.00000000000E+00 -0.00000000000E+00 -0.39665900127E+03  0.39665900128E+03  0.25500000000E-02 0.  1.
    5000001    1    1    2    0    0  0.75831559899E+02  0.47342371572E+02 -0.10360605406E+03  0.15701891625E+03  0.77000000000E+02 0.  0.
   -5000001    1    1    2    0    0 -0.75831559899E+02 -0.47342371572E+02 -0.25328014887E+03  0.27941288344E+03  0.77000000000E+02 0.  0.
<mgrwt>
<rscale>  0 0.25120699E+03</rscale>
<asrwt>0</asrwt>
<pdfrwt beam="1">  1        2 0.61024459E-01 0.25120699E+03</pdfrwt>
<pdfrwt beam="2">  1       -2 0.61188923E-02 0.25120699E+03</pdfrwt>
<totfact> 0.11424899E+04</totfact>
</mgrwt>
</event>
<event>
 4    1  0.6122885E-004  0.2329905E+03  0.7818608E-02  0.1124552E+00
         -2   -1    0    0    0  501 -0.00000000000E+00  0.00000000000E+00  0.81714117346E+01  0.81714121325E+01  0.25500000000E-02 0. -1.
          2   -1    0    0  501    0  0.00000000000E+00 -0.00000000000E+00 -0.16608072872E+04  0.16608072872E+04  0.25500000000E-02 0.  1.
    5000001    1    1    2    0    0  0.41820133083E+02  0.26796667282E+02 -0.13416347723E+04  0.13447601448E+04  0.77000000000E+02 0.  0.
   -5000001    1    1    2    0    0 -0.41820133083E+02 -0.26796667282E+02 -0.31100110320E+03  0.32421855453E+03  0.77000000000E+02 0.  0.
<mgrwt>
<rscale>  0 0.23299048E+03</rscale>
<asrwt>0</asrwt>
<pdfrwt beam="1">  1        2 0.25550854E+00 0.23299048E+03</pdfrwt>
<pdfrwt beam="2">  1       -2 0.12571416E-02 0.23299048E+03</pdfrwt>
<totfact> 0.17013532E+04</totfact>
</mgrwt>
</event>
<event>
 4    1  0.6122885E-004  0.2038691E+03  0.7818608E-02  0.1146515E+00
         -2   -1    0    0    0  501 -0.00000000000E+00  0.00000000000E+00  0.12712206768E+02  0.12712207024E+02  0.25500000000E-02 0. -1.
          2   -1    0    0  501    0  0.00000000000E+00 -0.00000000000E+00 -0.81737613930E+03  0.81737613930E+03  0.25500000000E-02 0.  1.
    5000001    1    1    2    0    0 -0.33733863530E+01  0.62080119495E+02 -0.50176198388E+03  0.51142879215E+03  0.77000000000E+02 0.  0.
   -5000001    1    1    2    0    0  0.33733863530E+01 -0.62080119495E+02 -0.30290194864E+03  0.31865955417E+03  0.77000000000E+02 0.  0.
<mgrwt>
<rscale>  0 0.20386912E+03</rscale>
<asrwt>0</asrwt>
<pdfrwt beam="1">  1        2 0.12575013E+00 0.20386912E+03</pdfrwt>
<pdfrwt beam="2">  1       -2 0.19557248E-02 0.20386912E+03</pdfrwt>
<totfact> 0.26913684E+04</totfact>
</mgrwt>
</event>
<event>
 4    1  0.6122885E-004  0.4485304E+03  0.7818608E-02  0.1028161E+00
          2   -1    0    0  501    0  0.00000000000E+00  0.00000000000E+00  0.19849226446E+04  0.19849226446E+04  0.25500000000E-02 0.  1.
         -2   -1    0    0    0  501 -0.00000000000E+00 -0.00000000000E+00 -0.25338457599E+02  0.25338457728E+02  0.25500000000E-02 0. -1.
    5000001    1    1    2    0    0 -0.13987952067E+03 -0.15205503833E+03  0.11634325125E+04  0.11841415566E+04  0.77000000000E+02 0.  0.
   -5000001    1    1    2    0    0  0.13987952067E+03  0.15205503833E+03  0.79615167445E+03  0.82611954565E+03  0.77000000000E+02 0.  0.
<mgrwt>
<rscale>  0 0.44853039E+03</rscale>
<asrwt>0</asrwt>
<pdfrwt beam="1">  1        2 0.30537278E+00 0.44853039E+03</pdfrwt>
<pdfrwt beam="2">  1       -2 0.38982234E-02 0.44853039E+03</pdfrwt>
<totfact> 0.21417837E+03</totfact>
</mgrwt>
</event>
<event>
 4    1  0.6122885E-004  0.2801263E+03  0.7818608E-02  0.1095620E+00
         -2   -1    0    0    0  501 -0.00000000000E+00  0.00000000000E+00  0.28307130719E+02  0.28307130834E+02  0.25500000000E-02 0. -1.
          2   -1    0    0  501    0  0.00000000000E+00 -0.00000000000E+00 -0.69303006773E+03  0.69303006773E+03  0.25500000000E-02 0.  1.
    5000001    1    1    2    0    0  0.74267727497E+02  0.88378669675E+02 -0.28335386285E+03  0.31550736314E+03  0.77000000000E+02 0.  0.
   -5000001    1    1    2    0    0 -0.74267727497E+02 -0.88378669675E+02 -0.38136907416E+03  0.40582983543E+03  0.77000000000E+02 0.  0.
<mgrwt>
<rscale>  0 0.28012635E+03</rscale>
<asrwt>0</asrwt>
<pdfrwt beam="1">  1        2 0.10662000E+00 0.28012635E+03</pdfrwt>
<pdfrwt beam="2">  1       -2 0.43549437E-02 0.28012635E+03</pdfrwt>
<totfact> 0.10227391E+04</totfact>
</mgrwt>
</event>
<event>
 4    1  0.6122885E-004  0.2952671E+03  0.7818608E-02  0.1087631E+00
          2   -1    0    0  501    0  0.00000000000E+00  0.00000000000E+00  0.17723409637E+02  0.17723409820E+02  0.25500000000E-02 0.  1.
         -2   -1    0    0    0  501 -0.00000000000E+00 -0.00000000000E+00 -0.12297666721E+04  0.12297666721E+04  0.25500000000E-02 0. -1.
    5000001    1    1    2    0    0 -0.88595087559E+02  0.88455015691E+02 -0.66475903392E+03  0.68081344913E+03  0.77000000000E+02 0.  0.
   -5000001    1    1    2    0    0  0.88595087559E+02 -0.88455015691E+02 -0.54728422856E+03  0.56667663281E+03  0.77000000000E+02 0.  0.
<mgrwt>
<rscale>  0 0.29526706E+03</rscale>
<asrwt>0</asrwt>
<pdfrwt beam="1">  1        2 0.27266794E-02 0.29526706E+03</pdfrwt>
<pdfrwt beam="2">  1       -2 0.18919481E+00 0.29526706E+03</pdfrwt>
<totfact> 0.60515670E+02</totfact>
</mgrwt>
</event>
<event>
 4    1  0.6122885E-004  0.1975349E+03  0.7818608E-02  0.1151836E+00
          2   -1    0    0  501    0  0.00000000000E+00  0.00000000000E+00  0.54143252997E+03  0.54143252997E+03  0.25500000000E-02 0.  1.
         -2   -1    0    0    0  501 -0.00000000000E+00 -0.00000000000E+00 -0.18017035845E+02  0.18017036025E+02  0.25500000000E-02 0. -1.
    5000001    1    1    2    0    0  0.56647536090E+02  0.23144306297E+02  0.28726111947E+03  0.30363226611E+03  0.77000000000E+02 0.  0.
   -5000001    1    1    2    0    0 -0.56647536090E+02 -0.23144306297E+02  0.23615437465E+03  0.25581729989E+03  0.77000000000E+02 0.  0.
<mgrwt>
<rscale>  0 0.19753490E+03</rscale>
<asrwt>0</asrwt>
<pdfrwt beam="1">  1        2 0.83297311E-01 0.19753490E+03</pdfrwt>
<pdfrwt beam="2">  1       -2 0.27718517E-02 0.19753490E+03</pdfrwt>
<totfact> 0.26255571E+04</totfact>
</mgrwt>
</event>
<event>
 4    1  0.6122885E-004  0.2193742E+03  0.7818608E-02  0.1134350E+00
          2   -1    0    0  501    0  0.00000000000E+00  0.00000000000E+00  0.43936958168E+03  0.43936958168E+03  0.25500000000E-02 0.  1.
         -2   -1    0    0    0  501 -0.00000000000E+00 -0.00000000000E+00 -0.27382996951E+02  0.27382997069E+02  0.25500000000E-02 0. -1.
    5000001    1    1    2    0    0 -0.78034716326E+02  0.12250254600E-01  0.21361696400E+03  0.24010544436E+03  0.77000000000E+02 0.  0.
   -5000001    1    1    2    0    0  0.78034716326E+02 -0.12250254600E-01  0.19836962073E+03  0.22664713440E+03  0.77000000000E+02 0.  0.
<mgrwt>
<rscale>  0 0.21937416E+03</rscale>
<asrwt>0</asrwt>
<pdfrwt beam="1">  1        2 0.67595325E-01 0.21937416E+03</pdfrwt>
<pdfrwt beam="2">  1       -2 0.42127685E-02 0.21937416E+03</pdfrwt>
<totfact> 0.17874649E+04</totfact>
</mgrwt>
</event>
<event>
 4    1  0.6122885E-004  0.3484464E+03  0.7818608E-02  0.1063255E+00
         -2   -1    0    0    0  501 -0.00000000000E+00  0.00000000000E+00  0.12236711861E+03  0.12236711863E+03  0.25500000000E-02 0. -1.
          2   -1    0    0  501    0  0.00000000000E+00 -0.00000000000E+00 -0.24805453127E+03  0.24805453128E+03  0.25500000000E-02 0.  1.
    5000001    1    1    2    0    0 -0.38946101956E+02  0.14829817998E+03 -0.30677043489E+02  0.17429638562E+03  0.77000000000E+02 0.  0.
   -5000001    1    1    2    0    0  0.38946101956E+02 -0.14829817998E+03 -0.95010369171E+02  0.19612526429E+03  0.77000000000E+02 0.  0.
<mgrwt>
<rscale>  0 0.34844637E+03</rscale>
<asrwt>0</asrwt>
<pdfrwt beam="1">  1        2 0.38162236E-01 0.34844637E+03</pdfrwt>
<pdfrwt beam="2">  1       -2 0.18825711E-01 0.34844637E+03</pdfrwt>
<totfact> 0.31488836E+03</totfact>
</mgrwt>
</event>
<event>
 4    1  0.6122885E-004  0.3033416E+03  0.7818608E-02  0.1083582E+00
          2   -1    0    0  501    0  0.00000000000E+00  0.00000000000E+00  0.15010728120E+03  0.15010728122E+03  0.25500000000E-02 0.  1.
         -2   -1    0    0    0  501 -0.00000000000E+00 -0.00000000000E+00 -0.15325056437E+03  0.15325056439E+03  0.25500000000E-02 0. -1.
    5000001    1    1    2    0    0 -0.63771264680E+02 -0.29695679281E+02 -0.11169756984E+03  0.15282000744E+03  0.77000000000E+02 0.  0.
   -5000001    1    1    2    0    0  0.63771264680E+02  0.29695679281E+02  0.10855428667E+03  0.15053783817E+03  0.77000000000E+02 0.  0.
<mgrwt>
<rscale>  0 0.30334156E+03</rscale>
<asrwt>0</asrwt>
<pdfrwt beam="1">  1        2 0.23093428E-01 0.30334156E+03</pdfrwt>
<pdfrwt beam="2">  1       -2 0.23577010E-01 0.30334156E+03</pdfrwt>
<totfact> 0.37075528E+03</totfact>
</mgrwt>
</event>
<event>
 4    1  0.6122885E-004  0.2408999E+03  0.7818608E-02  0.1119195E+00
         -2   -1    0    0    0  501 -0.00000000000E+00  0.00000000000E+00  0.68660415853E+02  0.68660415901E+02  0.25500000000E-02 0. -1.
          2   -1    0    0  501    0  0.00000000000E+00 -0.00000000000E+00 -0.21130354268E+03  0.21130354270E+03  0.25500000000E-02 0.  1.
    5000001    1    1    2    0    0 -0.48522661988E+02 -0.62310358033E+02 -0.15077877317E+02  0.11132552191E+03  0.77000000000E+02 0.  0.
   -5000001    1    1    2    0    0  0.48522661988E+02  0.62310358033E+02 -0.12756524951E+03  0.16863843668E+03  0.77000000000E+02 0.  0.
<mgrwt>
<rscale>  0 0.24089989E+03</rscale>
<asrwt>0</asrwt>
<pdfrwt beam="1">  1        2 0.32508237E-01 0.24089989E+03</pdfrwt>
<pdfrwt beam="2">  1       -2 0.10563141E-01 0.24089989E+03</pdfrwt>
<totfact> 0.95838455E+03</totfact>
</mgrwt>
</event>
<event>
 4    1  0.6122885E-004  0.2897237E+03  0.7818608E-02  0.1090493E+00
          2   -1    0    0  501    0  0.00000000000E+00  0.00000000000E+00  0.49016811949E+02  0.49016812016E+02  0.25500000000E-02 0.  1.
         -2   -1    0    0    0  501 -0.00000000000E+00 -0.00000000000E+00 -0.42811762419E+03  0.42811762420E+03  0.25500000000E-02 0. -1.
    5000001    1    1    2    0    0 -0.78135180186E+02 -0.58087220155E+02 -0.66567012033E+02  0.14085240012E+03  0.77000000000E+02 0.  0.
   -5000001    1    1    2    0    0  0.78135180186E+02  0.58087220155E+02 -0.31253380021E+03  0.33628203609E+03  0.77000000000E+02 0.  0.
<mgrwt>
<rscale>  0 0.28972374E+03</rscale>
<asrwt>0</asrwt>
<pdfrwt beam="1">  1        2 0.75410483E-02 0.28972374E+03</pdfrwt>
<pdfrwt beam="2">  1       -2 0.65864248E-01 0.28972374E+03</pdfrwt>
<totfact> 0.19931993E+03</totfact>
</mgrwt>
</event>
<event>
 4    1  0.6122885E-004  0.2441964E+03  0.7818608E-02  0.1117028E+00
         -2   -1    0    0    0  501 -0.00000000000E+00  0.00000000000E+00  0.22900265734E+03  0.22900265736E+03  0.25500000000E-02 0. -1.
          2   -1    0    0  501    0  0.00000000000E+00 -0.00000000000E+00 -0.65099566146E+02  0.65099566196E+02  0.25500000000E-02 0.  1.
    5000001    1    1    2    0    0 -0.69439218700E+02  0.47413075808E+02  0.29327871320E+02  0.11772395205E+03  0.77000000000E+02 0.  0.
   -5000001    1    1    2    0    0  0.69439218700E+02 -0.47413075808E+02  0.13457521988E+03  0.17637827150E+03  0.77000000000E+02 0.  0.
<mgrwt>
<rscale>  0 0.24419643E+03</rscale>
<asrwt>0</asrwt>
<pdfrwt beam="1">  1        2 0.10015318E-01 0.24419643E+03</pdfrwt>
<pdfrwt beam="2">  1       -2 0.35231178E-01 0.24419643E+03</pdfrwt>
<totfact> 0.47924023E+03</totfact>
</mgrwt>
</event>
<event>
 4    1  0.6122885E-004  0.2525323E+03  0.7818608E-02  0.1111715E+00
         -2   -1    0    0    0  501 -0.00000000000E+00  0.00000000000E+00  0.75772274309E+02  0.75772274352E+02  0.25500000000E-02 0. -1.
          2   -1    0    0  501    0  0.00000000000E+00 -0.00000000000E+00 -0.21040855760E+03  0.21040855761E+03  0.25500000000E-02 0.  1.
    5000001    1    1    2    0    0 -0.75998709656E+02 -0.58167679421E+02 -0.34184498535E+02  0.12750240287E+03  0.77000000000E+02 0.  0.
   -5000001    1    1    2    0    0  0.75998709656E+02  0.58167679421E+02 -0.10045178476E+03  0.15867842909E+03  0.77000000000E+02 0.  0.
<mgrwt>
<rscale>  0 0.25253225E+03</rscale>
<asrwt>0</asrwt>
<pdfrwt beam="1">  1        2 0.32370547E-01 0.25253225E+03</pdfrwt>
<pdfrwt beam="2">  1       -2 0.11657273E-01 0.25253225E+03</pdfrwt>
<totfact> 0.82411136E+03</totfact>
</mgrwt>
</event>
<event>
 4    1  0.6122885E-004  0.2015843E+03  0.7818608E-02  0.1148409E+00
         -2   -1    0    0    0  501 -0.00000000000E+00  0.00000000000E+00  0.47927431400E+01  0.47927438184E+01  0.25500000000E-02 0. -1.
          2   -1    0    0  501    0  0.00000000000E+00 -0.00000000000E+00 -0.21196754935E+04  0.21196754935E+04  0.25500000000E-02 0.  1.
    5000001    1    1    2    0    0  0.45936618835E+02  0.46027789592E+02 -0.10452849165E+04  0.10501325093E+04  0.77000000000E+02 0.  0.
   -5000001    1    1    2    0    0 -0.45936618835E+02 -0.46027789592E+02 -0.10695978338E+04  0.10743357280E+04  0.77000000000E+02 0.  0.
<mgrwt>
<rscale>  0 0.20158433E+03</rscale>
<asrwt>0</asrwt>
<pdfrwt beam="1">  1        2 0.32610317E+00 0.20158433E+03</pdfrwt>
<pdfrwt beam="2">  1       -2 0.73734684E-03 0.20158433E+03</pdfrwt>
<totfact> 0.21080105E+04</totfact>
</mgrwt>
</event>
<event>
 4    1  0.6122885E-004  0.2006616E+03  0.7818608E-02  0.1149182E+00
         -2   -1    0    0    0  501 -0.00000000000E+00  0.00000000000E+00  0.64399799410E+02  0.64399799460E+02  0.25500000000E-02 0. -1.
          2   -1    0    0  501    0  0.00000000000E+00 -0.00000000000E+00 -0.15630907027E+03  0.15630907029E+03  0.25500000000E-02 0.  1.
    5000001    1    1    2    0    0  0.17214235390E+02 -0.61969971984E+02 -0.45057385107E+02  0.10998079505E+03  0.77000000000E+02 0.  0.
   -5000001    1    1    2    0    0 -0.17214235390E+02  0.61969971984E+02 -0.46851885754E+02  0.11072807470E+03  0.77000000000E+02 0.  0.
<mgrwt>
<rscale>  0 0.20066163E+03</rscale>
<asrwt>0</asrwt>
<pdfrwt beam="1">  1        2 0.24047549E-01 0.20066163E+03</pdfrwt>
<pdfrwt beam="2">  1       -2 0.99076615E-02 0.20066163E+03</pdfrwt>
<totfact> 0.14624539E+04</totfact>
</mgrwt>
</event>
<event>
 4    1  0.6122885E-004  0.5265620E+03  0.7818608E-02  0.1007069E+00
          2   -1    0    0  501    0  0.00000000000E+00  0.00000000000E+00  0.10927419143E+04  0.10927419143E+04  0.25500000000E-02 0.  1.
         -2   -1    0    0    0  501 -0.00000000000E+00 -0.00000000000E+00 -0.63433915131E+02  0.63433915183E+02  0.25500000000E-02 0. -1.
    5000001    1    1    2    0    0 -0.13377243149E+03  0.17551178568E+03  0.78076466403E+03  0.81499810486E+03  0.77000000000E+02 0.  0.
   -5000001    1    1    2    0    0  0.13377243149E+03 -0.17551178568E+03  0.24854333515E+03  0.34117772463E+03  0.77000000000E+02 0.  0.
<mgrwt>
<rscale>  0 0.52656205E+03</rscale>
<asrwt>0</asrwt>
<pdfrwt beam="1">  1        2 0.16811413E+00 0.52656205E+03</pdfrwt>
<pdfrwt beam="2">  1       -2 0.97590643E-02 0.52656205E+03</pdfrwt>
<totfact> 0.15864397E+03</totfact>
</mgrwt>
</event>
<event>
 4    1  0.6122885E-004  0.4930866E+03  0.7818608E-02  0.1015599E+00
          2   -1    0    0  501    0  0.00000000000E+00  0.00000000000E+00  0.16157363647E+03  0.16157363649E+03  0.25500000000E-02 0.  1.
         -2   -1    0    0    0  501 -0.00000000000E+00 -0.00000000000E+00 -0.37619748294E+03  0.37619748295E+03  0.25500000000E-02 0. -1.
    5000001    1    1    2    0    0  0.13588566995E+03 -0.19064794599E+03 -0.10015684808E+03  0.26602997731E+03  0.77000000000E+02 0.  0.
   -5000001    1    1    2    0    0 -0.13588566995E+03  0.19064794599E+03 -0.11446699839E+03  0.27174114213E+03  0.77000000000E+02 0.  0.
<mgrwt>
<rscale>  0 0.49308659E+03</rscale>
<asrwt>0</asrwt>
<pdfrwt beam="1">  1        2 0.24857483E-01 0.49308659E+03</pdfrwt>
<pdfrwt beam="2">  1       -2 0.57876536E-01 0.49308659E+03</pdfrwt>
<totfact> 0.62057294E+02</totfact>
</mgrwt>
</event>
<event>
 4    1  0.6122885E-004  0.1618859E+03  0.7818608E-02  0.1186584E+00
          2   -1    0    0  501    0  0.00000000000E+00  0.00000000000E+00  0.68105819869E+03  0.68105819869E+03  0.25500000000E-02 0.  1.
         -2   -1    0    0    0  501 -0.00000000000E+00 -0.00000000000E+00 -0.96199752705E+01  0.96199756085E+01  0.25500000000E-02 0. -1.
    5000001    1    1    2    0    0  0.16075959110E+01 -0.19996504830E+02  0.27239163240E+03  0.28377569658E+03  0.77000000000E+02 0.  0.
   -5000001    1    1    2    0    0 -0.16075959110E+01  0.19996504830E+02  0.39904659102E+03  0.40690247772E+03  0.77000000000E+02 0.  0.
<mgrwt>
<rscale>  0 0.16188592E+03</rscale>
<asrwt>0</asrwt>
<pdfrwt beam="1">  1        2 0.10477819E+00 0.16188592E+03</pdfrwt>
<pdfrwt beam="2">  1       -2 0.14799962E-02 0.16188592E+03</pdfrwt>
<totfact> 0.49540375E+04</totfact>
</mgrwt>
</event>
<event>
 4    1  0.6122885E-004  0.1747194E+03  0.7818608E-02  0.1173014E+00
          2   -1    0    0  501    0  0.00000000000E+00  0.00000000000E+00  0.31417430064E+03  0.31417430065E+03  0.25500000000E-02 0.  1.
         -2   -1    0    0    0  501 -0.00000000000E+00 -0.00000000000E+00 -0.24291360989E+02  0.24291361123E+02  0.25500000000E-02 0. -1.
    5000001    1    1    2    0    0  0.57355162849E+01  0.39319375569E+02  0.16649679690E+03  0.18769414701E+03  0.77000000000E+02 0.  0.
   -5000001    1    1    2    0    0 -0.57355162849E+01 -0.39319375569E+02  0.12338614274E+03  0.15077151476E+03  0.77000000000E+02 0.  0.
<mgrwt>
<rscale>  0 0.17471945E+03</rscale>
<asrwt>0</asrwt>
<pdfrwt beam="1">  1        2 0.48334509E-01 0.17471945E+03</pdfrwt>
<pdfrwt beam="2">  1       -2 0.37371324E-02 0.17471945E+03</pdfrwt>
<totfact> 0.30143389E+04</totfact>
</mgrwt>
</event>
<event>
 4    1  0.6122885E-004  0.2214602E+03  0.7818608E-02  0.1132799E+00
         -2   -1    0    0    0  501 -0.00000000000E+00  0.00000000000E+00  0.11497610132E+02  0.11497610414E+02  0.25500000000E-02 0. -1.
          2   -1    0    0  501    0  0.00000000000E+00 -0.00000000000E+00 -0.10664090421E+04  0.10664090421E+04  0.25500000000E-02 0.  1.
    5000001    1    1    2    0    0 -0.72806793363E+02 -0.14402135676E+02 -0.38774684105E+03  0.40222489159E+03  0.77000000000E+02 0.  0.
   -5000001    1    1    2    0    0  0.72806793363E+02  0.14402135676E+02 -0.66716459090E+03  0.67568176090E+03  0.77000000000E+02 0.  0.
<mgrwt>
<rscale>  0 0.22146020E+03</rscale>
<asrwt>0</asrwt>
<pdfrwt beam="1">  1        2 0.16406285E+00 0.22146020E+03</pdfrwt>
<pdfrwt beam="2">  1       -2 0.17688640E-02 0.22146020E+03</pdfrwt>
<totfact> 0.21849130E+04</totfact>
</mgrwt>
</event>
<event>
 4    1  0.6122885E-004  0.3967550E+03  0.7818608E-02  0.1044909E+00
          2   -1    0    0  501    0  0.00000000000E+00  0.00000000000E+00  0.53129569385E+03  0.53129569386E+03  0.25500000000E-02 0.  1.
         -2   -1    0    0    0  501 -0.00000000000E+00 -0.00000000000E+00 -0.74071053537E+02  0.74071053581E+02  0.25500000000E-02 0. -1.
    5000001    1    1    2    0    0 -0.87159028962E+02 -0.11801421632E+03  0.39506095020E+03  0.42839958678E+03  0.77000000000E+02 0.  0.
   -5000001    1    1    2    0    0  0.87159028962E+02  0.11801421632E+03  0.62163690122E+02  0.17696716066E+03  0.77000000000E+02 0.  0.
<mgrwt>
<rscale>  0 0.39675500E+03</rscale>
<asrwt>0</asrwt>
<pdfrwt beam="1">  1        2 0.81737799E-01 0.39675500E+03</pdfrwt>
<pdfrwt beam="2">  1       -2 0.11395547E-01 0.39675500E+03</pdfrwt>
<totfact> 0.31416030E+03</totfact>
</mgrwt>
</event>
<event>
 4    1  0.6122885E-004  0.2437627E+03  0.7818608E-02  0.1117311E+00
          2   -1    0    0  501    0  0.00000000000E+00  0.00000000000E+00  0.53209308427E+03  0.53209308427E+03  0.25500000000E-02 0.  1.
         -2   -1    0    0    0  501 -0.00000000000E+00 -0.00000000000E+00 -0.27918172729E+02  0.27918172845E+02  0.25500000000E-02 0. -1.
    5000001    1    1    2    0    0  0.89517573158E+02 -0.77725789173E+01  0.18501951896E+03  0.21962475108E+03  0.77000000000E+02 0.  0.
   -5000001    1    1    2    0    0 -0.89517573158E+02  0.77725789173E+01  0.31915539257E+03  0.34038650604E+03  0.77000000000E+02 0.  0.
<mgrwt>
<rscale>  0 0.24376273E+03</rscale>
<asrwt>0</asrwt>
<pdfrwt beam="1">  1        2 0.81860467E-01 0.24376273E+03</pdfrwt>
<pdfrwt beam="2">  1       -2 0.42951039E-02 0.24376273E+03</pdfrwt>
<totfact> 0.14125230E+04</totfact>
</mgrwt>
</event>
<event>
 4    1  0.6122885E-004  0.1903720E+03  0.7818608E-02  0.1158126E+00
         -2   -1    0    0    0  501 -0.00000000000E+00  0.00000000000E+00  0.58342341746E+01  0.58342347319E+01  0.25500000000E-02 0. -1.
          2   -1    0    0  501    0  0.00000000000E+00 -0.00000000000E+00 -0.15529669437E+04  0.15529669437E+04  0.25500000000E-02 0.  1.
    5000001    1    1    2    0    0 -0.45999953127E+02  0.28434859271E+02 -0.89132725274E+03  0.89627998326E+03  0.77000000000E+02 0.  0.
   -5000001    1    1    2    0    0  0.45999953127E+02 -0.28434859271E+02 -0.65580545677E+03  0.66252119516E+03  0.77000000000E+02 0.  0.
<mgrwt>
<rscale>  0 0.19037199E+03</rscale>
<asrwt>0</asrwt>
<pdfrwt beam="1">  1        2 0.23891766E+00 0.19037199E+03</pdfrwt>
<pdfrwt beam="2">  1       -2 0.89757577E-03 0.19037199E+03</pdfrwt>
<totfact> 0.31245407E+04</totfact>
</mgrwt>
</event>
<event>
 4    1  0.6122885E-004  0.2884807E+03  0.7818608E-02  0.1091145E+00
          2   -1    0    0  501    0  0.00000000000E+00  0.00000000000E+00  0.26242910546E+02  0.26242910670E+02  0.25500000000E-02 0.  1.
         -2   -1    0    0    0  501 -0.00000000000E+00 -0.00000000000E+00 -0.79279610432E+03  0.79279610433E+03  0.25500000000E-02 0. -1.
    5000001    1    1    2    0    0 -0.47234506018E+02  0.96130312591E+02 -0.54892667974E+03  0.56455436876E+03  0.77000000000E+02 0.  0.
   -5000001    1    1    2    0    0  0.47234506018E+02 -0.96130312591E+02 -0.21762651404E+03  0.25448464623E+03  0.77000000000E+02 0.  0.
<mgrwt>
<rscale>  0 0.28848069E+03</rscale>
<asrwt>0</asrwt>
<pdfrwt beam="1">  1        2 0.40373715E-02 0.28848069E+03</pdfrwt>
<pdfrwt beam="2">  1       -2 0.12196861E+00 0.28848069E+03</pdfrwt>
<totfact> 0.11187441E+03</totfact>
</mgrwt>
</event>
<event>
 4    1  0.6122885E-004  0.2707451E+03  0.7818608E-02  0.1100854E+00
          2   -1    0    0  501    0  0.00000000000E+00  0.00000000000E+00  0.14899827622E+04  0.14899827622E+04  0.25500000000E-02 0.  1.
         -2   -1    0    0    0  501 -0.00000000000E+00 -0.00000000000E+00 -0.12299289713E+02  0.12299289977E+02  0.25500000000E-02 0. -1.
    5000001    1    1    2    0    0 -0.24274336785E+02 -0.79452738749E+02  0.11501474682E+04  0.11557119796E+04  0.77000000000E+02 0.  0.
   -5000001    1    1    2    0    0  0.24274336785E+02  0.79452738749E+02  0.32753600425E+03  0.34657007257E+03  0.77000000000E+02 0.  0.
<mgrwt>
<rscale>  0 0.27074512E+03</rscale>
<asrwt>0</asrwt>
<pdfrwt beam="1">  1        2 0.22922801E+00 0.27074512E+03</pdfrwt>
<pdfrwt beam="2">  1       -2 0.18921993E-02 0.27074512E+03</pdfrwt>
<totfact> 0.11581852E+04</totfact>
</mgrwt>
</event>
<event>
 4    1  0.6122885E-004  0.2297885E+03  0.7818608E-02  0.1126789E+00
          2   -1    0    0  501    0  0.00000000000E+00  0.00000000000E+00  0.74459854678E+03  0.74459854678E+03  0.25500000000E-02 0.  1.
         -2   -1    0    0    0  501 -0.00000000000E+00 -0.00000000000E+00 -0.17728601784E+02  0.17728601967E+02  0.25500000000E-02 0. -1.
    5000001    1    1    2    0    0  0.46089938772E+02 -0.68991178718E+02  0.42875096108E+03  0.44344159912E+03  0.77000000000E+02 0.  0.
   -5000001    1    1    2    0    0 -0.46089938772E+02  0.68991178718E+02  0.29811898391E+03  0.31888554963E+03  0.77000000000E+02 0.  0.
<mgrwt>
<rscale>  0 0.22978852E+03</rscale>
<asrwt>0</asrwt>
<pdfrwt beam="1">  1        2 0.11455361E+00 0.22978852E+03</pdfrwt>
<pdfrwt beam="2">  1       -2 0.27274776E-02 0.22978852E+03</pdfrwt>
<totfact> 0.18683986E+04</totfact>
</mgrwt>
</event>
<event>
 4    1  0.6122885E-004  0.3523470E+03  0.7818608E-02  0.1061656E+00
          2   -1    0    0  501    0  0.00000000000E+00  0.00000000000E+00  0.11702241882E+04  0.11702241882E+04  0.25500000000E-02 0.  1.
         -2   -1    0    0    0  501 -0.00000000000E+00 -0.00000000000E+00 -0.26522356235E+02  0.26522356358E+02  0.25500000000E-02 0. -1.
    5000001    1    1    2    0    0  0.14859129709E+03 -0.13262582758E+02  0.39043733818E+03  0.42500068790E+03  0.77000000000E+02 0.  0.
   -5000001    1    1    2    0    0 -0.14859129709E+03  0.13262582758E+02  0.75326449374E+03  0.77174585661E+03  0.77000000000E+02 0.  0.
<mgrwt>
<rscale>  0 0.35234700E+03</rscale>
<asrwt>0</asrwt>
<pdfrwt beam="1">  1        2 0.18003454E+00 0.35234700E+03</pdfrwt>
<pdfrwt beam="2">  1       -2 0.40803614E-02 0.35234700E+03</pdfrwt>
<totfact> 0.55650241E+03</totfact>
</mgrwt>
</event>
<event>
 4    1  0.6122885E-004  0.1858484E+03  0.7818608E-02  0.1162260E+00
          2   -1    0    0  501    0  0.00000000000E+00  0.00000000000E+00  0.17423694277E+03  0.17423694279E+03  0.25500000000E-02 0.  1.
         -2   -1    0    0    0  501 -0.00000000000E+00 -0.00000000000E+00 -0.49558404980E+02  0.49558405046E+02  0.25500000000E-02 0. -1.
    5000001    1    1    2    0    0 -0.16752369406E+01  0.51519700190E+02  0.53925570057E+02  0.10721032148E+03  0.77000000000E+02 0.  0.
   -5000001    1    1    2    0    0  0.16752369406E+01 -0.51519700190E+02  0.70752967733E+02  0.11658502635E+03  0.77000000000E+02 0.  0.
<mgrwt>
<rscale>  0 0.18584838E+03</rscale>
<asrwt>0</asrwt>
<pdfrwt beam="1">  1        2 0.26805684E-01 0.18584838E+03</pdfrwt>
<pdfrwt beam="2">  1       -2 0.76243700E-02 0.18584838E+03</pdfrwt>
<totfact> 0.19416551E+04</totfact>
</mgrwt>
</event>
<event>
 4    1  0.6122885E-004  0.1709767E+03  0.7818608E-02  0.1176833E+00
          2   -1    0    0  501    0  0.00000000000E+00  0.00000000000E+00  0.52689238665E+03  0.52689238665E+03  0.25500000000E-02 0.  1.
         -2   -1    0    0    0  501 -0.00000000000E+00 -0.00000000000E+00 -0.13870489037E+02  0.13870489272E+02  0.25500000000E-02 0. -1.
    5000001    1    1    2    0    0  0.35893081985E+02  0.95053556859E+01  0.25894036637E+03  0.27268622711E+03  0.77000000000E+02 0.  0.
   -5000001    1    1    2    0    0 -0.35893081985E+02 -0.95053556859E+01  0.25408153124E+03  0.26807664881E+03  0.77000000000E+02 0.  0.
<mgrwt>
<rscale>  0 0.17097667E+03</rscale>
<asrwt>0</asrwt>
<pdfrwt beam="1">  1        2 0.81060367E-01 0.17097667E+03</pdfrwt>
<pdfrwt beam="2">  1       -2 0.21339214E-02 0.17097667E+03</pdfrwt>
<totfact> 0.39265680E+04</totfact>
</mgrwt>
</event>
<event>
 4    1  0.6122885E-004  0.2026924E+03  0.7818608E-02  0.1147487E+00
          2   -1    0    0  501    0  0.00000000000E+00  0.00000000000E+00  0.36919747711E+02  0.36919747799E+02  0.25500000000E-02 0.  1.
         -2   -1    0    0    0  501 -0.00000000000E+00 -0.00000000000E+00 -0.27819952666E+03  0.27819952667E+03  0.25500000000E-02 0. -1.
    5000001    1    1    2    0    0 -0.34964859590E+02 -0.37939866728E+02 -0.56915954491E+02  0.10876764578E+03  0.77000000000E+02 0.  0.
   -5000001    1    1    2    0    0  0.34964859590E+02  0.37939866728E+02 -0.18436382446E+03  0.20635162869E+03  0.77000000000E+02 0.  0.
<mgrwt>
<rscale>  0 0.20269244E+03</rscale>
<asrwt>0</asrwt>
<pdfrwt beam="1">  1        2 0.56799614E-02 0.20269244E+03</pdfrwt>
<pdfrwt beam="2">  1       -2 0.42799926E-01 0.20269244E+03</pdfrwt>
<totfact> 0.67574101E+03</totfact>
</mgrwt>
</event>
<event>
 4    1  0.6122885E-004  0.2101784E+03  0.7818608E-02  0.1141425E+00
         -2   -1    0    0    0  501 -0.00000000000E+00  0.00000000000E+00  0.17606440233E+02  0.17606440418E+02  0.25500000000E-02 0. -1.
          2   -1    0    0  501    0  0.00000000000E+00 -0.00000000000E+00 -0.62725552205E+03  0.62725552205E+03  0.25500000000E-02 0.  1.
    5000001    1    1    2    0    0  0.65147847372E+02  0.24430221824E+02 -0.35558011425E+03  0.37041503129E+03  0.77000000000E+02 0.  0.
   -5000001    1    1    2    0    0 -0.65147847372E+02 -0.24430221824E+02 -0.25406896757E+03  0.27444693119E+03  0.77000000000E+02 0.  0.
<mgrwt>
<rscale>  0 0.21017837E+03</rscale>
<asrwt>0</asrwt>
<pdfrwt beam="1">  1        2 0.96500832E-01 0.21017837E+03</pdfrwt>
<pdfrwt beam="2">  1       -2 0.27086836E-02 0.21017837E+03</pdfrwt>
<totfact> 0.23053631E+04</totfact>
</mgrwt>
</event>
<event>
 4    1  0.6122885E-004  0.2174171E+03  0.7818608E-02  0.1135823E+00
         -2   -1    0    0    0  501 -0.00000000000E+00  0.00000000000E+00  0.32050511230E+02  0.32050511332E+02  0.25500000000E-02 0. -1.
          2   -1    0    0  501    0  0.00000000000E+00 -0.00000000000E+00 -0.36871629814E+03  0.36871629815E+03  0.25500000000E-02 0.  1.
    5000001    1    1    2    0    0 -0.69706034387E+02 -0.31888890736E+02 -0.16176044557E+03  0.19486219318E+03  0.77000000000E+02 0.  0.
   -5000001    1    1    2    0    0  0.69706034387E+02  0.31888890736E+02 -0.17490534135E+03  0.20590461630E+03  0.77000000000E+02 0.  0.
<mgrwt>
<rscale>  0 0.21741707E+03</rscale>
<asrwt>0</asrwt>
<pdfrwt beam="1">  1        2 0.56725582E-01 0.21741707E+03</pdfrwt>
<pdfrwt beam="2">  1       -2 0.49308481E-02 0.21741707E+03</pdfrwt>
<totfact> 0.17036837E+04</totfact>
</mgrwt>
</event>
<event>
 4    1  0.6122885E-004  0.2162930E+03  0.7818608E-02  0.1136677E+00
         -2   -1    0    0    0  501 -0.00000000000E+00  0.00000000000E+00  0.16755153300E+02  0.16755153494E+02  0.25500000000E-02 0. -1.
          2   -1    0    0  501    0  0.00000000000E+00 -0.00000000000E+00 -0.69803374521E+03  0.69803374521E+03  0.25500000000E-02 0.  1.
    5000001    1    1    2    0    0  0.73477238275E+02 -0.17409115991E+02 -0.36721730620E+03  0.38272644518E+03  0.77000000000E+02 0.  0.
   -5000001    1    1    2    0    0 -0.73477238275E+02  0.17409115991E+02 -0.31406128571E+03  0.33206245353E+03  0.77000000000E+02 0.  0.
<mgrwt>
<rscale>  0 0.21629297E+03</rscale>
<asrwt>0</asrwt>
<pdfrwt beam="1">  1        2 0.10738978E+00 0.21629297E+03</pdfrwt>
<pdfrwt beam="2">  1       -2 0.25777164E-02 0.21629297E+03</pdfrwt>
<totfact> 0.21892555E+04</totfact>
</mgrwt>
</event>
<event>
 4    1  0.6122885E-004  0.2201285E+03  0.7818608E-02  0.1133787E+00
          2   -1    0    0  501    0  0.00000000000E+00  0.00000000000E+00  0.17994817618E+04  0.17994817618E+04  0.25500000000E-02 0.  1.
         -2   -1    0    0    0  501 -0.00000000000E+00 -0.00000000000E+00 -0.67320137109E+01  0.67320141939E+01  0.25500000000E-02 0. -1.
    5000001    1    1    2    0    0 -0.32433527965E+02 -0.70088674117E+02  0.10182943648E+04  0.10241175564E+04  0.77000000000E+02 0.  0.
   -5000001    1    1    2    0    0  0.32433527965E+02  0.70088674117E+02  0.77445538329E+03  0.78209621958E+03  0.77000000000E+02 0.  0.
<mgrwt>
<rscale>  0 0.22012847E+03</rscale>
<asrwt>0</asrwt>
<pdfrwt beam="1">  1        2 0.27684329E+00 0.22012847E+03</pdfrwt>
<pdfrwt beam="2">  1       -2 0.10356947E-02 0.22012847E+03</pdfrwt>
<totfact> 0.19029608E+04</totfact>
</mgrwt>
</event>
<event>
 4    1  0.6122885E-004  0.2675063E+03  0.7818608E-02  0.1102715E+00
          2   -1    0    0  501    0  0.00000000000E+00  0.00000000000E+00  0.27183620929E+04  0.27183620929E+04  0.25500000000E-02 0.  1.
         -2   -1    0    0    0  501 -0.00000000000E+00 -0.00000000000E+00 -0.65811358790E+01  0.65811363730E+01  0.25500000000E-02 0. -1.
    5000001    1    1    2    0    0  0.19414821841E+02 -0.99282502020E+02  0.17792063683E+04  0.17837427649E+04  0.77000000000E+02 0.  0.
   -5000001    1    1    2    0    0 -0.19414821841E+02  0.99282502020E+02  0.93257458870E+03  0.94120046430E+03  0.77000000000E+02 0.  0.
<mgrwt>
<rscale>  0 0.26750634E+03</rscale>
<asrwt>0</asrwt>
<pdfrwt beam="1">  1        2 0.41821038E+00 0.26750634E+03</pdfrwt>
<pdfrwt beam="2">  1       -2 0.10124805E-02 0.26750634E+03</pdfrwt>
<totfact> 0.63500413E+03</totfact>
</mgrwt>
</event>
<event>
 4    1  0.6122885E-004  0.2676154E+03  0.7818608E-02  0.1102652E+00
         -2   -1    0    0    0  501 -0.00000000000E+00  0.00000000000E+00  0.10171228846E+02  0.10171229165E+02  0.25500000000E-02 0. -1.
          2   -1    0    0  501    0  0.00000000000E+00 -0.00000000000E+00 -0.17603086307E+04  0.17603086307E+04  0.25500000000E-02 0.  1.
    5000001    1    1    2    0    0  0.10782613067E+03  0.11208211481E+02 -0.97395248930E+03  0.98298756344E+03  0.77000000000E+02 0.  0.
   -5000001    1    1    2    0    0 -0.10782613067E+03 -0.11208211481E+02 -0.77618491257E+03  0.78749229645E+03  0.77000000000E+02 0.  0.
<mgrwt>
<rscale>  0 0.26761541E+03</rscale>
<asrwt>0</asrwt>
<pdfrwt beam="1">  1        2 0.27081647E+00 0.26761541E+03</pdfrwt>
<pdfrwt beam="2">  1       -2 0.15648059E-02 0.26761541E+03</pdfrwt>
<totfact> 0.11004701E+04</totfact>
</mgrwt>
</event>
<event>
 4    1  0.6122885E-004  0.2464463E+03  0.7818608E-02  0.1115571E+00
          2   -1    0    0  501    0  0.00000000000E+00  0.00000000000E+00  0.32108730336E+03  0.32108730337E+03  0.25500000000E-02 0.  1.
         -2   -1    0    0    0  501 -0.00000000000E+00 -0.00000000000E+00 -0.47289156964E+02  0.47289157033E+02  0.25500000000E-02 0. -1.
    5000001    1    1    2    0    0 -0.67440224068E+01 -0.95514653783E+02  0.12300373708E+03  0.17386043328E+03  0.77000000000E+02 0.  0.
   -5000001    1    1    2    0    0  0.67440224068E+01  0.95514653783E+02  0.15079440931E+03  0.19451602712E+03  0.77000000000E+02 0.  0.
<mgrwt>
<rscale>  0 0.24644633E+03</rscale>
<asrwt>0</asrwt>
<pdfrwt beam="1">  1        2 0.49398049E-01 0.24644633E+03</pdfrwt>
<pdfrwt beam="2">  1       -2 0.72752546E-02 0.24644633E+03</pdfrwt>
<totfact> 0.10978088E+04</totfact>
</mgrwt>
</event>
<event>
 4    1  0.6122885E-004  0.3035276E+03  0.7818608E-02  0.1083490E+00
          2   -1    0    0  501    0  0.00000000000E+00  0.00000000000E+00  0.19095521602E+04  0.19095521602E+04  0.25500000000E-02 0.  1.
         -2   -1    0    0    0  501 -0.00000000000E+00 -0.00000000000E+00 -0.12061598536E+02  0.12061598806E+02  0.25500000000E-02 0. -1.
    5000001    1    1    2    0    0  0.11380462704E+03  0.64392412810E+02  0.93406646557E+03  0.94631233643E+03  0.77000000000E+02 0.  0.
   -5000001    1    1    2    0    0 -0.11380462704E+03 -0.64392412810E+02  0.96342409609E+03  0.97530142258E+03  0.77000000000E+02 0.  0.
<mgrwt>
<rscale>  0 0.30352761E+03</rscale>
<asrwt>0</asrwt>
<pdfrwt beam="1">  1        2 0.29377713E+00 0.30352761E+03</pdfrwt>
<pdfrwt beam="2">  1       -2 0.18556314E-02 0.30352761E+03</pdfrwt>
<totfact> 0.71621044E+03</totfact>
</mgrwt>
</event>
<event>
 4    1  0.6122885E-004  0.1785764E+03  0.7818608E-02  0.1169188E+00
         -2   -1    0    0    0  501 -0.00000000000E+00  0.00000000000E+00  0.21938307139E+02  0.21938307287E+02  0.25500000000E-02 0. -1.
          2   -1    0    0  501    0  0.00000000000E+00 -0.00000000000E+00 -0.36340023218E+03  0.36340023219E+03  0.25500000000E-02 0.  1.
    5000001    1    1    2    0    0  0.34753954882E+02 -0.13870689416E+02 -0.22545464149E+03  0.24116183109E+03  0.77000000000E+02 0.  0.
   -5000001    1    1    2    0    0 -0.34753954882E+02  0.13870689416E+02 -0.11600728355E+03  0.14417670839E+03  0.77000000000E+02 0.  0.
<mgrwt>
<rscale>  0 0.17857644E+03</rscale>
<asrwt>0</asrwt>
<pdfrwt beam="1">  1        2 0.55907724E-01 0.17857644E+03</pdfrwt>
<pdfrwt beam="2">  1       -2 0.33751245E-02 0.17857644E+03</pdfrwt>
<totfact> 0.30078634E+04</totfact>
</mgrwt>
</event>
<event>
 4    1  0.6122885E-004  0.2168452E+03  0.7818608E-02  0.1136257E+00
          2   -1    0    0  501    0  0.00000000000E+00  0.00000000000E+00  0.15417156704E+03  0.15417156707E+03  0.25500000000E-02 0.  1.
         -2   -1    0    0    0  501 -0.00000000000E+00 -0.00000000000E+00 -0.76249222700E+02  0.76249222743E+02  0.25500000000E-02 0. -1.
    5000001    1    1    2    0    0 -0.44128607535E+02 -0.61655751235E+02  0.29594776044E+02  0.11204292228E+03  0.77000000000E+02 0.  0.
   -5000001    1    1    2    0    0  0.44128607535E+02  0.61655751235E+02  0.48327568301E+02  0.11837786753E+03  0.77000000000E+02 0.  0.
<mgrwt>
<rscale>  0 0.21684522E+03</rscale>
<asrwt>0</asrwt>
<pdfrwt beam="1">  1        2 0.23718702E-01 0.21684522E+03</pdfrwt>
<pdfrwt beam="2">  1       -2 0.11730650E-01 0.21684522E+03</pdfrwt>
<totfact> 0.11405456E+04</totfact>
</mgrwt>
</event>
<event>
 4    1  0.6122885E-004  0.3209744E+03  0.7818608E-02  0.1075202E+00
         -2   -1    0    0    0  501 -0.00000000000E+00  0.00000000000E+00  0.22097963275E+02  0.22097963422E+02  0.25500000000E-02 0. -1.
          2   -1    0    0  501    0  0.00000000000E+00 -0.00000000000E+00 -0.11655436309E+04  0.11655436309E+04  0.25500000000E-02 0.  1.
    5000001    1    1    2    0    0 -0.65217940847E+02 -0.11220136777E+03 -0.77386600550E+03  0.78844157754E+03  0.77000000000E+02 0.  0.
   -5000001    1    1    2    0    0  0.65217940847E+02  0.11220136777E+03 -0.36957966211E+03  0.39920001676E+03  0.77000000000E+02 0.  0.
<mgrwt>
<rscale>  0 0.32097439E+03</rscale>
<asrwt>0</asrwt>
<pdfrwt beam="1">  1        2 0.17931436E+00 0.32097439E+03</pdfrwt>
<pdfrwt beam="2">  1       -2 0.33996876E-02 0.32097439E+03</pdfrwt>
<totfact> 0.73652503E+03</totfact>
</mgrwt>
</event>
<event>
 4    1  0.6122885E-004  0.1804935E+03  0.7818608E-02  0.1167326E+00
          2   -1    0    0  501    0  0.00000000000E+00  0.00000000000E+00  0.96408527871E+02  0.96408527905E+02  0.25500000000E-02 0.  1.
         -2   -1    0    0    0  501 -0.00000000000E+00 -0.00000000000E+00 -0.84478767846E+02  0.84478767884E+02  0.25500000000E-02 0. -1.
    5000001    1    1    2    0    0 -0.33405208484E+02  0.11430733157E+02 -0.25230260193E+02  0.88386286514E+02  0.77000000000E+02 0.  0.
   -5000001    1    1    2    0    0  0.33405208484E+02 -0.11430733157E+02  0.37160020219E+02  0.92501009276E+02  0.77000000000E+02 0.  0.
<mgrwt>
<rscale>  0 0.18049348E+03</rscale>
<asrwt>0</asrwt>
<pdfrwt beam="1">  1        2 0.14832081E-01 0.18049348E+03</pdfrwt>
<pdfrwt beam="2">  1       -2 0.12996734E-01 0.18049348E+03</pdfrwt>
<totfact> 0.16363755E+04</totfact>
</mgrwt>
</event>
<event>
 4    1  0.6122885E-004  0.5825627E+03  0.7818608E-02  0.9942258E-01
         -2   -1    0    0    0  501 -0.00000000000E+00  0.00000000000E+00  0.43734898410E+02  0.43734898484E+02  0.25500000000E-02 0. -1.
          2   -1    0    0  501    0  0.00000000000E+00 -0.00000000000E+00 -0.19399800360E+04  0.19399800360E+04  0.25500000000E-02 0.  1.
    5000001    1    1    2    0    0 -0.74151786958E+02 -0.26105890276E+03 -0.70102972729E+03  0.75565992137E+03  0.77000000000E+02 0.  0.
   -5000001    1    1    2    0    0  0.74151786958E+02  0.26105890276E+03 -0.11952154103E+04  0.12280550132E+04  0.77000000000E+02 0.  0.
<mgrwt>
<rscale>  0 0.58256272E+03</rscale>
<asrwt>0</asrwt>
<pdfrwt beam="1">  1        2 0.29845840E+00 0.58256272E+03</pdfrwt>
<pdfrwt beam="2">  1       -2 0.67284474E-02 0.58256272E+03</pdfrwt>
<totfact> 0.96502374E+02</totfact>
</mgrwt>
</event>
<event>
 4    1  0.6122885E-004  0.1829753E+03  0.7818608E-02  0.1164954E+00
         -2   -1    0    0    0  501 -0.00000000000E+00  0.00000000000E+00  0.54550351455E+01  0.54550357415E+01  0.25500000000E-02 0. -1.
          2   -1    0    0  501    0  0.00000000000E+00 -0.00000000000E+00 -0.15343596009E+04  0.15343596009E+04  0.25500000000E-02 0.  1.
    5000001    1    1    2    0    0 -0.30049244686E+02  0.17112830231E+02 -0.46749625845E+03  0.47505532071E+03  0.77000000000E+02 0.  0.
   -5000001    1    1    2    0    0  0.30049244686E+02 -0.17112830231E+02 -0.10614083073E+04  0.10647593159E+04  0.77000000000E+02 0.  0.
<mgrwt>
<rscale>  0 0.18297526E+03</rscale>
<asrwt>0</asrwt>
<pdfrwt beam="1">  1        2 0.23605498E+00 0.18297526E+03</pdfrwt>
<pdfrwt beam="2">  1       -2 0.83923745E-03 0.18297526E+03</pdfrwt>
<totfact> 0.35111982E+04</totfact>
</mgrwt>
</event>
<event>
 4    1  0.6122885E-004  0.2912248E+03  0.7818608E-02  0.1089711E+00
         -2   -1    0    0    0  501 -0.00000000000E+00  0.00000000000E+00  0.13696363923E+02  0.13696364161E+02  0.25500000000E-02 0. -1.
          2   -1    0    0  501    0  0.00000000000E+00 -0.00000000000E+00 -0.15480729925E+04  0.15480729925E+04  0.25500000000E-02 0.  1.
    5000001    1    1    2    0    0  0.58060491902E+02 -0.10908925890E+03 -0.75873597648E+03  0.77258059070E+03  0.77000000000E+02 0.  0.
   -5000001    1    1    2    0    0 -0.58060491902E+02  0.10908925890E+03 -0.77564065205E+03  0.78918876592E+03  0.77000000000E+02 0.  0.
<mgrwt>
<rscale>  0 0.29122480E+03</rscale>
<asrwt>0</asrwt>
<pdfrwt beam="1">  1        2 0.23816494E+00 0.29122480E+03</pdfrwt>
<pdfrwt beam="2">  1       -2 0.21071342E-02 0.29122480E+03</pdfrwt>
<totfact> 0.92158127E+03</totfact>
</mgrwt>
</event>
<event>
 4    1  0.6122885E-004  0.4478985E+03  0.7818608E-02  0.1028351E+00
         -2   -1    0    0    0  501 -0.00000000000E+00  0.00000000000E+00  0.69620688582E+03  0.69620688582E+03  0.25500000000E-02 0. -1.
          2   -1    0    0  501    0  0.00000000000E+00 -0.00000000000E+00 -0.72037865218E+02  0.72037865264E+02  0.25500000000E-02 0.  1.
    5000001    1    1    2    0    0  0.13224407642E+02 -0.11747941365E+03  0.13774327462E+02  0.14175693876E+03  0.77000000000E+02 0.  0.
   -5000001    1    1    2    0    0 -0.13224407642E+02  0.11747941365E+03  0.61039469313E+03  0.62648781233E+03  0.77000000000E+02 0.  0.
<mgrwt>
<rscale>  0 0.44789846E+03</rscale>
<asrwt>0</asrwt>
<pdfrwt beam="1">  1        2 0.11082748E-01 0.44789846E+03</pdfrwt>
<pdfrwt beam="2">  1       -2 0.10710875E+00 0.44789846E+03</pdfrwt>
<totfact> 0.41304292E+02</totfact>
</mgrwt>
</event>
<event>
 4    1  0.6122885E-004  0.2116436E+03  0.7818608E-02  0.1140271E+00
          2   -1    0    0  501    0  0.00000000000E+00  0.00000000000E+00  0.20608258023E+03  0.20608258025E+03  0.25500000000E-02 0.  1.
         -2   -1    0    0    0  501 -0.00000000000E+00 -0.00000000000E+00 -0.54338690485E+02  0.54338690545E+02  0.25500000000E-02 0. -1.
    5000001    1    1    2    0    0  0.22695256020E+02 -0.68590670383E+02  0.67214568492E+02  0.12516610135E+03  0.77000000000E+02 0.  0.
   -5000001    1    1    2    0    0 -0.22695256020E+02  0.68590670383E+02  0.84529321255E+02  0.13525516944E+03  0.77000000000E+02 0.  0.
<mgrwt>
<rscale>  0 0.21164364E+03</rscale>
<asrwt>0</asrwt>
<pdfrwt beam="1">  1        2 0.31705013E-01 0.21164364E+03</pdfrwt>
<pdfrwt beam="2">  1       -2 0.83597985E-02 0.21164364E+03</pdfrwt>
<totfact> 0.14135516E+04</totfact>
</mgrwt>
</event>
<event>
 4    1  0.6122885E-004  0.3138348E+03  0.7818608E-02  0.1078522E+00
         -2   -1    0    0    0  501 -0.00000000000E+00  0.00000000000E+00  0.23772287127E+02  0.23772287264E+02  0.25500000000E-02 0. -1.
          2   -1    0    0  501    0  0.00000000000E+00 -0.00000000000E+00 -0.10357885602E+04  0.10357885602E+04  0.25500000000E-02 0.  1.
    5000001    1    1    2    0    0  0.77678117562E+02 -0.10342152817E+03 -0.65563631019E+03  0.67269448762E+03  0.77000000000E+02 0.  0.
   -5000001    1    1    2    0    0 -0.77678117562E+02  0.10342152817E+03 -0.35637996292E+03  0.38686635988E+03  0.77000000000E+02 0.  0.
<mgrwt>
<rscale>  0 0.31383475E+03</rscale>
<asrwt>0</asrwt>
<pdfrwt beam="1">  1        2 0.15935205E+00 0.31383475E+03</pdfrwt>
<pdfrwt beam="2">  1       -2 0.36572758E-02 0.31383475E+03</pdfrwt>
<totfact> 0.78713917E+03</totfact>
</mgrwt>
</event>
<event>
 4    1  0.6122885E-004  0.2871008E+03  0.7818608E-02  0.1091873E+00
         -2   -1    0    0    0  501 -0.00000000000E+00  0.00000000000E+00  0.37654956697E+02  0.37654956783E+02  0.25500000000E-02 0. -1.
          2   -1    0    0  501    0  0.00000000000E+00 -0.00000000000E+00 -0.54725130861E+03  0.54725130862E+03  0.25500000000E-02 0.  1.
    5000001    1    1    2    0    0 -0.11658252435E+03  0.23465972296E+02 -0.20764976940E+03  0.25137534400E+03  0.77000000000E+02 0.  0.
   -5000001    1    1    2    0    0  0.11658252435E+03 -0.23465972296E+02 -0.30194658252E+03  0.33353092141E+03  0.77000000000E+02 0.  0.
<mgrwt>
<rscale>  0 0.28710085E+03</rscale>
<asrwt>0</asrwt>
<pdfrwt beam="1">  1        2 0.84192503E-01 0.28710085E+03</pdfrwt>
<pdfrwt beam="2">  1       -2 0.57930707E-02 0.28710085E+03</pdfrwt>
<totfact> 0.87458219E+03</totfact>
</mgrwt>
</event>
<event>
 4    1  0.6122885E-004  0.2083201E+03  0.7818608E-02  0.1142903E+00
          2   -1    0    0  501    0  0.00000000000E+00  0.00000000000E+00  0.31286092366E+04  0.31286092366E+04  0.25500000000E-02 0.  1.
         -2   -1    0    0    0  501 -0.00000000000E+00 -0.00000000000E+00 -0.34677743136E+01  0.34677752512E+01  0.25500000000E-02 0. -1.
    5000001    1    1    2    0    0  0.18747050242E+02  0.30523784211E+02  0.24693100981E+04  0.24707700245E+04  0.77000000000E+02 0.  0.
   -5000001    1    1    2    0    0 -0.18747050242E+02 -0.30523784211E+02  0.65583136419E+03  0.66130698737E+03  0.77000000000E+02 0.  0.
<mgrwt>
<rscale>  0 0.20832006E+03</rscale>
<asrwt>0</asrwt>
<pdfrwt beam="1">  1        2 0.48132696E+00 0.20832006E+03</pdfrwt>
<pdfrwt beam="2">  1       -2 0.53350109E-03 0.20832006E+03</pdfrwt>
<totfact> 0.92349249E+03</totfact>
</mgrwt>
</event>
<event>
 4    1  0.6122885E-004  0.2026123E+03  0.7818608E-02  0.1147554E+00
          2   -1    0    0  501    0  0.00000000000E+00  0.00000000000E+00  0.26169585172E+03  0.26169585173E+03  0.25500000000E-02 0.  1.
         -2   -1    0    0    0  501 -0.00000000000E+00 -0.00000000000E+00 -0.39217022397E+02  0.39217022480E+02  0.25500000000E-02 0. -1.
    5000001    1    1    2    0    0  0.51406662588E+02  0.57523504506E+00  0.17231128630E+03  0.19560970129E+03  0.77000000000E+02 0.  0.
   -5000001    1    1    2    0    0 -0.51406662588E+02 -0.57523504506E+00  0.50167543021E+02  0.10530317292E+03  0.77000000000E+02 0.  0.
<mgrwt>
<rscale>  0 0.20261226E+03</rscale>
<asrwt>0</asrwt>
<pdfrwt beam="1">  1        2 0.40260902E-01 0.20261226E+03</pdfrwt>
<pdfrwt beam="2">  1       -2 0.60333878E-02 0.20261226E+03</pdfrwt>
<totfact> 0.18015526E+04</totfact>
</mgrwt>
</event>
<event>
 4    1  0.6122885E-004  0.1790797E+03  0.7818608E-02  0.1168697E+00
         -2   -1    0    0    0  501 -0.00000000000E+00  0.00000000000E+00  0.93890617275E+01  0.93890620738E+01  0.25500000000E-02 0. -1.
          2   -1    0    0  501    0  0.00000000000E+00 -0.00000000000E+00 -0.85390715704E+03  0.85390715704E+03  0.25500000000E-02 0.  1.
    5000001    1    1    2    0    0 -0.78515835892E+01  0.34081251472E+02 -0.56405822174E+03  0.57036291655E+03  0.77000000000E+02 0.  0.
   -5000001    1    1    2    0    0  0.78515835892E+01 -0.34081251472E+02 -0.28045987357E+03  0.29293330256E+03  0.77000000000E+02 0.  0.
<mgrwt>
<rscale>  0 0.17907973E+03</rscale>
<asrwt>0</asrwt>
<pdfrwt beam="1">  1        2 0.13137027E+00 0.17907973E+03</pdfrwt>
<pdfrwt beam="2">  1       -2 0.14444717E-02 0.17907973E+03</pdfrwt>
<totfact> 0.39170497E+04</totfact>
</mgrwt>
</event>
<event>
 4    1  0.6122885E-004  0.2433291E+03  0.7818608E-02  0.1117595E+00
         -2   -1    0    0    0  501 -0.00000000000E+00  0.00000000000E+00  0.33369625737E+02  0.33369625835E+02  0.25500000000E-02 0. -1.
          2   -1    0    0  501    0  0.00000000000E+00 -0.00000000000E+00 -0.44358495455E+03  0.44358495456E+03  0.25500000000E-02 0.  1.
    5000001    1    1    2    0    0 -0.72015683409E+02 -0.42921486571E+02 -0.28929598880E+03  0.31088531937E+03  0.77000000000E+02 0.  0.
   -5000001    1    1    2    0    0  0.72015683409E+02  0.42921486571E+02 -0.12091934002E+03  0.16606926102E+03  0.77000000000E+02 0.  0.
<mgrwt>
<rscale>  0 0.24332911E+03</rscale>
<asrwt>0</asrwt>
<pdfrwt beam="1">  1        2 0.68243835E-01 0.24332911E+03</pdfrwt>
<pdfrwt beam="2">  1       -2 0.51337889E-02 0.24332911E+03</pdfrwt>
<totfact> 0.13200526E+04</totfact>
</mgrwt>
</event>
<event>
 4    1  0.6122885E-004  0.2709845E+03  0.7818608E-02  0.1100717E+00
         -2   -1    0    0    0  501 -0.00000000000E+00  0.00000000000E+00  0.12214154583E+02  0.12214154849E+02  0.25500000000E-02 0. -1.
          2   -1    0    0  501    0  0.00000000000E+00 -0.00000000000E+00 -0.15030220883E+04  0.15030220883E+04  0.25500000000E-02 0.  1.
    5000001    1    1    2    0    0 -0.92315490746E+02 -0.57295560599E+02 -0.60570202257E+03  0.62016842168E+03  0.77000000000E+02 0.  0.
   -5000001    1    1    2    0    0  0.92315490746E+02  0.57295560599E+02 -0.88510591110E+03  0.89506782143E+03  0.77000000000E+02 0.  0.
<mgrwt>
<rscale>  0 0.27098446E+03</rscale>
<asrwt>0</asrwt>
<pdfrwt beam="1">  1        2 0.23123402E+00 0.27098446E+03</pdfrwt>
<pdfrwt beam="2">  1       -2 0.18791019E-02 0.27098446E+03</pdfrwt>
<totfact> 0.11514326E+04</totfact>
</mgrwt>
</event>
<event>
 4    1  0.6122885E-004  0.2740000E+03  0.7818608E-02  0.1099012E+00
         -2   -1    0    0    0  501 -0.00000000000E+00  0.00000000000E+00  0.28184251912E+02  0.28184252028E+02  0.25500000000E-02 0. -1.
          2   -1    0    0  501    0  0.00000000000E+00 -0.00000000000E+00 -0.66593946004E+03  0.66593946004E+03  0.25500000000E-02 0.  1.
    5000001    1    1    2    0    0 -0.16816135068E+02  0.10944768984E+03 -0.37980467240E+03  0.40304114974E+03  0.77000000000E+02 0.  0.
   -5000001    1    1    2    0    0  0.16816135068E+02 -0.10944768984E+03 -0.25795053573E+03  0.29108256233E+03  0.77000000000E+02 0.  0.
<mgrwt>
<rscale>  0 0.27400004E+03</rscale>
<asrwt>0</asrwt>
<pdfrwt beam="1">  1        2 0.10245221E+00 0.27400004E+03</pdfrwt>
<pdfrwt beam="2">  1       -2 0.43360393E-02 0.27400004E+03</pdfrwt>
<totfact> 0.10791838E+04</totfact>
</mgrwt>
</event>
<event>
 4    1  0.6122885E-004  0.3873259E+03  0.7818608E-02  0.1048259E+00
          2   -1    0    0  501    0  0.00000000000E+00  0.00000000000E+00  0.92987721142E+02  0.92987721177E+02  0.25500000000E-02 0.  1.
         -2   -1    0    0    0  501 -0.00000000000E+00 -0.00000000000E+00 -0.40333639710E+03  0.40333639711E+03  0.25500000000E-02 0. -1.
    5000001    1    1    2    0    0 -0.40449552137E+02 -0.16966935696E+03 -0.19867588684E+03  0.27536333265E+03  0.77000000000E+02 0.  0.
   -5000001    1    1    2    0    0  0.40449552137E+02  0.16966935696E+03 -0.11167278912E+03  0.22096078563E+03  0.77000000000E+02 0.  0.
<mgrwt>
<rscale>  0 0.38732587E+03</rscale>
<asrwt>0</asrwt>
<pdfrwt beam="1">  1        2 0.14305804E-01 0.38732587E+03</pdfrwt>
<pdfrwt beam="2">  1       -2 0.62051752E-01 0.38732587E+03</pdfrwt>
<totfact> 0.10236863E+03</totfact>
</mgrwt>
</event>
<event>
 4    1  0.6122885E-004  0.1738155E+03  0.7818608E-02  0.1173926E+00
         -2   -1    0    0    0  501 -0.00000000000E+00  0.00000000000E+00  0.85011031823E+03  0.85011031824E+03  0.25500000000E-02 0. -1.
          2   -1    0    0  501    0  0.00000000000E+00 -0.00000000000E+00 -0.88846769697E+01  0.88846773356E+01  0.25500000000E-02 0.  1.
    5000001    1    1    2    0    0  0.31256372172E+02  0.23608469693E+02  0.46740154226E+03  0.47531833790E+03  0.77000000000E+02 0.  0.
   -5000001    1    1    2    0    0 -0.31256372172E+02 -0.23608469693E+02  0.37382409901E+03  0.38367665767E+03  0.77000000000E+02 0.  0.
<mgrwt>
<rscale>  0 0.17381549E+03</rscale>
<asrwt>0</asrwt>
<pdfrwt beam="1">  1        2 0.13668733E-02 0.17381549E+03</pdfrwt>
<pdfrwt beam="2">  1       -2 0.13078622E+00 0.17381549E+03</pdfrwt>
<totfact> 0.40463289E+03</totfact>
</mgrwt>
</event>
<event>
 4    1  0.6122885E-004  0.1968924E+03  0.7818608E-02  0.1152388E+00
          2   -1    0    0  501    0  0.00000000000E+00  0.00000000000E+00  0.75381736621E+03  0.75381736622E+03  0.25500000000E-02 0.  1.
         -2   -1    0    0    0  501 -0.00000000000E+00 -0.00000000000E+00 -0.12856767064E+02  0.12856767317E+02  0.25500000000E-02 0. -1.
    5000001    1    1    2    0    0 -0.43717211070E+02  0.22232394982E+02  0.51393033323E+03  0.52197592027E+03  0.77000000000E+02 0.  0.
   -5000001    1    1    2    0    0  0.43717211070E+02 -0.22232394982E+02  0.22703026592E+03  0.24469821326E+03  0.77000000000E+02 0.  0.
<mgrwt>
<rscale>  0 0.19689240E+03</rscale>
<asrwt>0</asrwt>
<pdfrwt beam="1">  1        2 0.11597196E+00 0.19689240E+03</pdfrwt>
<pdfrwt beam="2">  1       -2 0.19779633E-02 0.19689240E+03</pdfrwt>
<totfact> 0.29225036E+04</totfact>
</mgrwt>
</event>
<event>
 4    1  0.6122885E-004  0.2251667E+03  0.7818608E-02  0.1130089E+00
          2   -1    0    0  501    0  0.00000000000E+00  0.00000000000E+00  0.20215391117E+02  0.20215391278E+02  0.25500000000E-02 0.  1.
         -2   -1    0    0    0  501 -0.00000000000E+00 -0.00000000000E+00 -0.62699805889E+03  0.62699805890E+03  0.25500000000E-02 0. -1.
    5000001    1    1    2    0    0  0.23529642392E+02 -0.62312628562E+02 -0.16525667542E+03  0.19410120175E+03  0.77000000000E+02 0.  0.
   -5000001    1    1    2    0    0 -0.23529642392E+02  0.62312628562E+02 -0.44152599235E+03  0.45311224842E+03  0.77000000000E+02 0.  0.
<mgrwt>
<rscale>  0 0.22516670E+03</rscale>
<asrwt>0</asrwt>
<pdfrwt beam="1">  1        2 0.31100607E-02 0.22516670E+03</pdfrwt>
<pdfrwt beam="2">  1       -2 0.96461225E-01 0.22516670E+03</pdfrwt>
<totfact> 0.27476985E+03</totfact>
</mgrwt>
</event>
<event>
 4    1  0.6122885E-004  0.2143279E+03  0.7818608E-02  0.1138184E+00
         -2   -1    0    0    0  501 -0.00000000000E+00  0.00000000000E+00  0.32927313741E+02  0.32927313840E+02  0.25500000000E-02 0. -1.
          2   -1    0    0  501    0  0.00000000000E+00 -0.00000000000E+00 -0.34877162694E+03  0.34877162695E+03  0.25500000000E-02 0.  1.
    5000001    1    1    2    0    0 -0.74418725607E+02 -0.10595862885E+01 -0.16501084508E+03  0.19671514542E+03  0.77000000000E+02 0.  0.
   -5000001    1    1    2    0    0  0.74418725607E+02  0.10595862885E+01 -0.15083346812E+03  0.18498379537E+03  0.77000000000E+02 0.  0.
<mgrwt>
<rscale>  0 0.21432791E+03</rscale>
<asrwt>0</asrwt>
<pdfrwt beam="1">  1        2 0.53657171E-01 0.21432791E+03</pdfrwt>
<pdfrwt beam="2">  1       -2 0.50657408E-02 0.21432791E+03</pdfrwt>
<totfact> 0.17346558E+04</totfact>
</mgrwt>
</event>
<event>
 4    1  0.6122885E-004  0.2331422E+03  0.7818608E-02  0.1124447E+00
         -2   -1    0    0    0  501 -0.00000000000E+00  0.00000000000E+00  0.57829294100E+01  0.57829299722E+01  0.25500000000E-02 0. -1.
          2   -1    0    0  501    0  0.00000000000E+00 -0.00000000000E+00 -0.23498169677E+04  0.23498169677E+04  0.25500000000E-02 0.  1.
    5000001    1    1    2    0    0 -0.69563664784E+02 -0.17687666042E+02 -0.66603741720E+03  0.67430467750E+03  0.77000000000E+02 0.  0.
   -5000001    1    1    2    0    0  0.69563664784E+02  0.17687666042E+02 -0.16779966210E+04  0.16812952201E+04  0.77000000000E+02 0.  0.
<mgrwt>
<rscale>  0 0.23314224E+03</rscale>
<asrwt>0</asrwt>
<pdfrwt beam="1">  1        2 0.36150954E+00 0.23314224E+03</pdfrwt>
<pdfrwt beam="2">  1       -2 0.88968336E-03 0.23314224E+03</pdfrwt>
<totfact> 0.12196703E+04</totfact>
</mgrwt>
</event>
<event>
 4    1  0.6122885E-004  0.2159432E+03  0.7818608E-02  0.1136944E+00
         -2   -1    0    0    0  501 -0.00000000000E+00  0.00000000000E+00  0.27512802469E+02  0.27512802587E+02  0.25500000000E-02 0. -1.
          2   -1    0    0  501    0  0.00000000000E+00 -0.00000000000E+00 -0.42372529704E+03  0.42372529705E+03  0.25500000000E-02 0.  1.
    5000001    1    1    2    0    0 -0.67408039037E+02 -0.10419024882E+02 -0.12954680997E+03  0.16541999812E+03  0.77000000000E+02 0.  0.
   -5000001    1    1    2    0    0  0.67408039037E+02  0.10419024882E+02 -0.26666568460E+03  0.28581810151E+03  0.77000000000E+02 0.  0.
<mgrwt>
<rscale>  0 0.21594324E+03</rscale>
<asrwt>0</asrwt>
<pdfrwt beam="1">  1        2 0.65188503E-01 0.21594324E+03</pdfrwt>
<pdfrwt beam="2">  1       -2 0.42327391E-02 0.21594324E+03</pdfrwt>
<totfact> 0.18444652E+04</totfact>
</mgrwt>
</event>
<event>
 4    1  0.6122885E-004  0.1810234E+03  0.7818608E-02  0.1166816E+00
          2   -1    0    0  501    0  0.00000000000E+00  0.00000000000E+00  0.82657810084E+03  0.82657810085E+03  0.25500000000E-02 0.  1.
         -2   -1    0    0    0  501 -0.00000000000E+00 -0.00000000000E+00 -0.99111835436E+01  0.99111838716E+01  0.25500000000E-02 0. -1.
    5000001    1    1    2    0    0  0.34247403583E+02 -0.20046323414E+02  0.28707336146E+03  0.29985805741E+03  0.77000000000E+02 0.  0.
   -5000001    1    1    2    0    0 -0.34247403583E+02  0.20046323414E+02  0.52959355584E+03  0.53663122731E+03  0.77000000000E+02 0.  0.
<mgrwt>
<rscale>  0 0.18102340E+03</rscale>
<asrwt>0</asrwt>
<pdfrwt beam="1">  1        2 0.12716587E+00 0.18102340E+03</pdfrwt>
<pdfrwt beam="2">  1       -2 0.15247974E-02 0.18102340E+03</pdfrwt>
<totfact> 0.37789548E+04</totfact>
</mgrwt>
</event>
<event>
 4    1  0.6122885E-004  0.1829413E+03  0.7818608E-02  0.1164986E+00
         -2   -1    0    0    0  501 -0.00000000000E+00  0.00000000000E+00  0.56696819330E+01  0.56696825065E+01  0.25500000000E-02 0. -1.
          2   -1    0    0  501    0  0.00000000000E+00 -0.00000000000E+00 -0.14757225336E+04  0.14757225336E+04  0.25500000000E-02 0.  1.
    5000001    1    1    2    0    0  0.51693073604E+01 -0.32965348962E+02 -0.10297228022E+04  0.10331367215E+04  0.77000000000E+02 0.  0.
   -5000001    1    1    2    0    0 -0.51693073604E+01  0.32965348962E+02 -0.44033004949E+03  0.44825549462E+03  0.77000000000E+02 0.  0.
<mgrwt>
<rscale>  0 0.18294128E+03</rscale>
<asrwt>0</asrwt>
<pdfrwt beam="1">  1        2 0.22703393E+00 0.18294128E+03</pdfrwt>
<pdfrwt beam="2">  1       -2 0.87225998E-03 0.18294128E+03</pdfrwt>
<totfact> 0.35668575E+04</totfact>
</mgrwt>
</event>
<event>
 4    1  0.6122885E-004  0.1780656E+03  0.7818608E-02  0.1169688E+00
         -2   -1    0    0    0  501 -0.00000000000E+00  0.00000000000E+00  0.12876053271E+02  0.12876053523E+02  0.25500000000E-02 0. -1.
          2   -1    0    0  501    0  0.00000000000E+00 -0.00000000000E+00 -0.61562650551E+03  0.61562650551E+03  0.25500000000E-02 0.  1.
    5000001    1    1    2    0    0  0.90143121489E+01  0.43270838170E+02 -0.32484555654E+03  0.33675994248E+03  0.77000000000E+02 0.  0.
   -5000001    1    1    2    0    0 -0.90143121489E+01 -0.43270838170E+02 -0.27790489570E+03  0.29174261655E+03  0.77000000000E+02 0.  0.
<mgrwt>
<rscale>  0 0.17806560E+03</rscale>
<asrwt>0</asrwt>
<pdfrwt beam="1">  1        2 0.94711747E-01 0.17806560E+03</pdfrwt>
<pdfrwt beam="2">  1       -2 0.19809318E-02 0.17806560E+03</pdfrwt>
<totfact> 0.36821277E+04</totfact>
</mgrwt>
</event>
<event>
 4    1  0.6122885E-004  0.5214018E+03  0.7818608E-02  0.1008339E+00
          2   -1    0    0  501    0  0.00000000000E+00  0.00000000000E+00  0.34234042435E+04  0.34234042435E+04  0.25500000000E-02 0.  1.
         -2   -1    0    0    0  501 -0.00000000000E+00 -0.00000000000E+00 -0.19853029682E+02  0.19853029845E+02  0.25500000000E-02 0. -1.
    5000001    1    1    2    0    0  0.17410120576E+03  0.12880739489E+03  0.25141661060E+04  0.25246510221E+04  0.77000000000E+02 0.  0.
   -5000001    1    1    2    0    0 -0.17410120576E+03 -0.12880739489E+03  0.88938510784E+03  0.91860625127E+03  0.77000000000E+02 0.  0.
<mgrwt>
<rscale>  0 0.52140175E+03</rscale>
<asrwt>0</asrwt>
<pdfrwt beam="1">  1        2 0.52667816E+00 0.52140175E+03</pdfrwt>
<pdfrwt beam="2">  1       -2 0.30543089E-02 0.52140175E+03</pdfrwt>
<totfact> 0.44719859E+02</totfact>
</mgrwt>
</event>
<event>
 4    1  0.6122885E-004  0.3893639E+03  0.7818608E-02  0.1047526E+00
          2   -1    0    0  501    0  0.00000000000E+00  0.00000000000E+00  0.39190165830E+04  0.39190165830E+04  0.25500000000E-02 0.  1.
         -2   -1    0    0    0  501 -0.00000000000E+00 -0.00000000000E+00 -0.96710638957E+01  0.96710642318E+01  0.25500000000E-02 0. -1.
    5000001    1    1    2    0    0 -0.16184911312E+02  0.12987894659E+03  0.31838987174E+04  0.31875179270E+04  0.77000000000E+02 0.  0.
   -5000001    1    1    2    0    0  0.16184911312E+02 -0.12987894659E+03  0.72544680163E+03  0.74116972018E+03  0.77000000000E+02 0.  0.
<mgrwt>
<rscale>  0 0.38936389E+03</rscale>
<asrwt>0</asrwt>
<pdfrwt beam="1">  1        2 0.60292457E+00 0.38936389E+03</pdfrwt>
<pdfrwt beam="2">  1       -2 0.14878586E-02 0.38936389E+03</pdfrwt>
<totfact> 0.59890398E+02</totfact>
</mgrwt>
</event>
<event>
 4    1  0.6122885E-004  0.2065966E+03  0.7818608E-02  0.1144290E+00
         -2   -1    0    0    0  501 -0.00000000000E+00  0.00000000000E+00  0.14410836676E+02  0.14410836902E+02  0.25500000000E-02 0. -1.
          2   -1    0    0  501    0  0.00000000000E+00 -0.00000000000E+00 -0.74045256551E+03  0.74045256552E+03  0.25500000000E-02 0.  1.
    5000001    1    1    2    0    0  0.20586490000E+02  0.65352689937E+02 -0.38800695425E+03  0.40146378940E+03  0.77000000000E+02 0.  0.
   -5000001    1    1    2    0    0 -0.20586490000E+02 -0.65352689937E+02 -0.33803477459E+03  0.35339961302E+03  0.77000000000E+02 0.  0.
<mgrwt>
<rscale>  0 0.20659662E+03</rscale>
<asrwt>0</asrwt>
<pdfrwt beam="1">  1        2 0.11391575E+00 0.20659662E+03</pdfrwt>
<pdfrwt beam="2">  1       -2 0.22170524E-02 0.20659662E+03</pdfrwt>
<totfact> 0.25361324E+04</totfact>
</mgrwt>
</event>
<event>
 4    1  0.6122885E-004  0.2167242E+03  0.7818608E-02  0.1136349E+00
          2   -1    0    0  501    0  0.00000000000E+00  0.00000000000E+00  0.73109392195E+03  0.73109392196E+03  0.25500000000E-02 0.  1.
         -2   -1    0    0    0  501 -0.00000000000E+00 -0.00000000000E+00 -0.16061340995E+02  0.16061341198E+02  0.25500000000E-02 0. -1.
    5000001    1    1    2    0    0 -0.24947661746E+02 -0.70473309444E+02  0.30586418496E+03  0.32414622134E+03  0.77000000000E+02 0.  0.
   -5000001    1    1    2    0    0  0.24947661746E+02  0.70473309444E+02  0.40916839600E+03  0.42300904181E+03  0.77000000000E+02 0.  0.
<mgrwt>
<rscale>  0 0.21672424E+03</rscale>
<asrwt>0</asrwt>
<pdfrwt beam="1">  1        2 0.11247598E+00 0.21672424E+03</pdfrwt>
<pdfrwt beam="2">  1       -2 0.24709758E-02 0.21672424E+03</pdfrwt>
<totfact> 0.22031220E+04</totfact>
</mgrwt>
</event>
<event>
 4    1  0.6122885E-004  0.3274281E+03  0.7818608E-02  0.1072281E+00
          2   -1    0    0  501    0  0.00000000000E+00  0.00000000000E+00  0.28844447506E+02  0.28844447619E+02  0.25500000000E-02 0.  1.
         -2   -1    0    0    0  501 -0.00000000000E+00 -0.00000000000E+00 -0.92920075470E+03  0.92920075470E+03  0.25500000000E-02 0. -1.
    5000001    1    1    2    0    0  0.59983208579E+02 -0.13113951312E+03 -0.42438222689E+03  0.45477998166E+03  0.77000000000E+02 0.  0.
   -5000001    1    1    2    0    0 -0.59983208579E+02  0.13113951312E+03 -0.47597408030E+03  0.50326522066E+03  0.77000000000E+02 0.  0.
<mgrwt>
<rscale>  0 0.32742805E+03</rscale>
<asrwt>0</asrwt>
<pdfrwt beam="1">  1        2 0.44376080E-02 0.32742805E+03</pdfrwt>
<pdfrwt beam="2">  1       -2 0.14295394E+00 0.32742805E+03</pdfrwt>
<totfact> 0.66433360E+02</totfact>
</mgrwt>
</event>
<event>
 4    1  0.6122885E-004  0.8934585E+03  0.7818608E-02  0.9433796E-01
          2   -1    0    0  501    0  0.00000000000E+00  0.00000000000E+00  0.10128662982E+04  0.10128662982E+04  0.25500000000E-02 0.  1.
         -2   -1    0    0    0  501 -0.00000000000E+00 -0.00000000000E+00 -0.19703195351E+03  0.19703195353E+03  0.25500000000E-02 0. -1.
    5000001    1    1    2    0    0  0.18376015781E+03  0.34469657956E+03  0.68229867722E+03  0.78996456407E+03  0.77000000000E+02 0.  0.
   -5000001    1    1    2    0    0 -0.18376015781E+03 -0.34469657956E+03  0.13353566750E+03  0.41993368768E+03  0.77000000000E+02 0.  0.
<mgrwt>
<rscale>  0 0.89345851E+03</rscale>
<asrwt>0</asrwt>
<pdfrwt beam="1">  1        2 0.15582558E+00 0.89345851E+03</pdfrwt>
<pdfrwt beam="2">  1       -2 0.30312608E-01 0.89345851E+03</pdfrwt>
<totfact> 0.24890754E+02</totfact>
</mgrwt>
</event>
<event>
 4    1  0.6122885E-004  0.1720410E+03  0.7818608E-02  0.1175736E+00
         -2   -1    0    0    0  501 -0.00000000000E+00  0.00000000000E+00  0.11873360590E+03  0.11873360593E+03  0.25500000000E-02 0. -1.
          2   -1    0    0  501    0  0.00000000000E+00 -0.00000000000E+00 -0.62320409120E+02  0.62320409172E+02  0.25500000000E-02 0.  1.
    5000001    1    1    2    0    0  0.16119266365E+02 -0.27265766914E+02  0.54576121906E+01  0.83438829836E+02  0.77000000000E+02 0.  0.
   -5000001    1    1    2    0    0 -0.16119266365E+02  0.27265766914E+02  0.50955584593E+02  0.97615185267E+02  0.77000000000E+02 0.  0.
<mgrwt>
<rscale>  0 0.17204101E+03</rscale>
<asrwt>0</asrwt>
<pdfrwt beam="1">  1        2 0.95877554E-02 0.17204101E+03</pdfrwt>
<pdfrwt beam="2">  1       -2 0.18266708E-01 0.17204101E+03</pdfrwt>
<totfact> 0.15770026E+04</totfact>
</mgrwt>
</event>
<event>
 4    1  0.6122885E-004  0.1831475E+03  0.7818608E-02  0.1164791E+00
          2   -1    0    0  501    0  0.00000000000E+00  0.00000000000E+00  0.36477774026E+02  0.36477774116E+02  0.25500000000E-02 0.  1.
         -2   -1    0    0    0  501 -0.00000000000E+00 -0.00000000000E+00 -0.22988658766E+03  0.22988658768E+03  0.25500000000E-02 0. -1.
    5000001    1    1    2    0    0  0.24035899396E+02  0.22345545360E+02 -0.15072607228E+03  0.17240764693E+03  0.77000000000E+02 0.  0.
   -5000001    1    1    2    0    0 -0.24035899396E+02 -0.22345545360E+02 -0.42682741360E+02  0.93956714860E+02  0.77000000000E+02 0.  0.
<mgrwt>
<rscale>  0 0.18314749E+03</rscale>
<asrwt>0</asrwt>
<pdfrwt beam="1">  1        2 0.56119654E-02 0.18314749E+03</pdfrwt>
<pdfrwt beam="2">  1       -2 0.35367166E-01 0.18314749E+03</pdfrwt>
<totfact> 0.97788611E+03</totfact>
</mgrwt>
</event>
<event>
 4    1  0.6122885E-004  0.3232251E+03  0.7818608E-02  0.1074174E+00
         -2   -1    0    0    0  501 -0.00000000000E+00  0.00000000000E+00  0.13418977234E+03  0.13418977237E+03  0.25500000000E-02 0. -1.
          2   -1    0    0  501    0  0.00000000000E+00 -0.00000000000E+00 -0.19463945204E+03  0.19463945206E+03  0.25500000000E-02 0.  1.
    5000001    1    1    2    0    0  0.51743460684E+02  0.86016208033E+02  0.72084417814E+02  0.14560678919E+03  0.77000000000E+02 0.  0.
   -5000001    1    1    2    0    0 -0.51743460684E+02 -0.86016208033E+02 -0.13253409751E+03  0.18322243523E+03  0.77000000000E+02 0.  0.
<mgrwt>
<rscale>  0 0.32322515E+03</rscale>
<asrwt>0</asrwt>
<pdfrwt beam="1">  1        2 0.29944531E-01 0.32322515E+03</pdfrwt>
<pdfrwt beam="2">  1       -2 0.20644580E-01 0.32322515E+03</pdfrwt>
<totfact> 0.35004511E+03</totfact>
</mgrwt>
</event>
<event>
 4    1  0.6122885E-004  0.2598777E+03  0.7818608E-02  0.1107217E+00
          2   -1    0    0  501    0  0.00000000000E+00  0.00000000000E+00  0.50875824611E+02  0.50875824675E+02  0.25500000000E-02 0.  1.
         -2   -1    0    0    0  501 -0.00000000000E+00 -0.00000000000E+00 -0.33186886362E+03  0.33186886363E+03  0.25500000000E-02 0. -1.
    5000001    1    1    2    0    0  0.16979432197E+02 -0.77930385587E+02 -0.24031694719E+03  0.26465577875E+03  0.77000000000E+02 0.  0.
   -5000001    1    1    2    0    0 -0.16979432197E+02  0.77930385587E+02 -0.40676091816E+02  0.11808890956E+03  0.77000000000E+02 0.  0.
<mgrwt>
<rscale>  0 0.25987768E+03</rscale>
<asrwt>0</asrwt>
<pdfrwt beam="1">  1        2 0.78270502E-02 0.25987768E+03</pdfrwt>
<pdfrwt beam="2">  1       -2 0.51056747E-01 0.25987768E+03</pdfrwt>
<totfact> 0.31994705E+03</totfact>
</mgrwt>
</event>
<event>
 4    1  0.6122885E-004  0.1883995E+03  0.7818608E-02  0.1159913E+00
         -2   -1    0    0    0  501 -0.00000000000E+00  0.00000000000E+00  0.50960808599E+01  0.50960814979E+01  0.25500000000E-02 0. -1.
          2   -1    0    0  501    0  0.00000000000E+00 -0.00000000000E+00 -0.17412576630E+04  0.17412576630E+04  0.25500000000E-02 0.  1.
    5000001    1    1    2    0    0 -0.50180333654E+02  0.13351242733E+02 -0.10141348536E+04  0.10183785263E+04  0.77000000000E+02 0.  0.
   -5000001    1    1    2    0    0  0.50180333654E+02 -0.13351242733E+02 -0.72202672852E+03  0.72797521817E+03  0.77000000000E+02 0.  0.
<mgrwt>
<rscale>  0 0.18839947E+03</rscale>
<asrwt>0</asrwt>
<pdfrwt beam="1">  1        2 0.26788532E+00 0.18839947E+03</pdfrwt>
<pdfrwt beam="2">  1       -2 0.78401388E-03 0.18839947E+03</pdfrwt>
<totfact> 0.30254538E+04</totfact>
</mgrwt>
</event>
<event>
 4    1  0.6122885E-004  0.3656283E+03  0.7818608E-02  0.1056377E+00
          2   -1    0    0  501    0  0.00000000000E+00  0.00000000000E+00  0.73115056775E+03  0.73115056775E+03  0.25500000000E-02 0.  1.
         -2   -1    0    0    0  501 -0.00000000000E+00 -0.00000000000E+00 -0.45710158943E+02  0.45710159014E+02  0.25500000000E-02 0. -1.
    5000001    1    1    2    0    0 -0.10456871568E+03  0.11163804245E+02  0.61508983094E+03  0.62874776099E+03  0.77000000000E+02 0.  0.
   -5000001    1    1    2    0    0  0.10456871568E+03 -0.11163804245E+02  0.70350577863E+02  0.14811296577E+03  0.77000000000E+02 0.  0.
<mgrwt>
<rscale>  0 0.36562827E+03</rscale>
<asrwt>0</asrwt>
<pdfrwt beam="1">  1        2 0.11248470E+00 0.36562827E+03</pdfrwt>
<pdfrwt beam="2">  1       -2 0.70323325E-02 0.36562827E+03</pdfrwt>
<totfact> 0.46207868E+03</totfact>
</mgrwt>
</event>
<event>
 4    1  0.6122885E-004  0.1943514E+03  0.7818608E-02  0.1154594E+00
          2   -1    0    0  501    0  0.00000000000E+00  0.00000000000E+00  0.12877303576E+04  0.12877303576E+04  0.25500000000E-02 0.  1.
         -2   -1    0    0    0  501 -0.00000000000E+00 -0.00000000000E+00 -0.73331500878E+01  0.73331505312E+01  0.25500000000E-02 0. -1.
    5000001    1    1    2    0    0 -0.46099217220E+02  0.33260543733E+02  0.75224052807E+03  0.75830482899E+03  0.77000000000E+02 0.  0.
   -5000001    1    1    2    0    0  0.46099217220E+02 -0.33260543733E+02  0.52815667947E+03  0.53675867917E+03  0.77000000000E+02 0.  0.
<mgrwt>
<rscale>  0 0.19435144E+03</rscale>
<asrwt>0</asrwt>
<pdfrwt beam="1">  1        2 0.19811213E+00 0.19435144E+03</pdfrwt>
<pdfrwt beam="2">  1       -2 0.11281783E-02 0.19435144E+03</pdfrwt>
<totfact> 0.31200054E+04</totfact>
</mgrwt>
</event>
<event>
 4    1  0.6122885E-004  0.2513513E+03  0.7818608E-02  0.1112454E+00
         -2   -1    0    0    0  501 -0.00000000000E+00  0.00000000000E+00  0.15360524464E+03  0.15360524466E+03  0.25500000000E-02 0. -1.
          2   -1    0    0  501    0  0.00000000000E+00 -0.00000000000E+00 -0.10282440263E+03  0.10282440266E+03  0.25500000000E-02 0.  1.
    5000001    1    1    2    0    0  0.79351485304E+02  0.57838206847E+02  0.10140120417E+02  0.12519480194E+03  0.77000000000E+02 0.  0.
   -5000001    1    1    2    0    0 -0.79351485304E+02 -0.57838206847E+02  0.40640721588E+02  0.13123484538E+03  0.77000000000E+02 0.  0.
<mgrwt>
<rscale>  0 0.25135129E+03</rscale>
<asrwt>0</asrwt>
<pdfrwt beam="1">  1        2 0.15819139E-01 0.25135129E+03</pdfrwt>
<pdfrwt beam="2">  1       -2 0.23631576E-01 0.25135129E+03</pdfrwt>
<totfact> 0.56745141E+03</totfact>
</mgrwt>
</event>
<event>
 4    1  0.6122885E-004  0.2191910E+03  0.7818608E-02  0.1134488E+00
         -2   -1    0    0    0  501 -0.00000000000E+00  0.00000000000E+00  0.37052384310E+01  0.37052393085E+01  0.25500000000E-02 0. -1.
          2   -1    0    0  501    0  0.00000000000E+00 -0.00000000000E+00 -0.32416742017E+04  0.32416742017E+04  0.25500000000E-02 0.  1.
    5000001    1    1    2    0    0 -0.73889283410E+02 -0.13257926162E+02 -0.19319444614E+04  0.19349350896E+04  0.77000000000E+02 0.  0.
   -5000001    1    1    2    0    0  0.73889283410E+02  0.13257926162E+02 -0.13060245018E+04  0.13104443514E+04  0.77000000000E+02 0.  0.
<mgrwt>
<rscale>  0 0.21919103E+03</rscale>
<asrwt>0</asrwt>
<pdfrwt beam="1">  1        2 0.49871684E+00 0.21919103E+03</pdfrwt>
<pdfrwt beam="2">  1       -2 0.57003934E-03 0.21919103E+03</pdfrwt>
<totfact> 0.71633853E+03</totfact>
</mgrwt>
</event>
<event>
 4    1  0.6122885E-004  0.3376900E+03  0.7818608E-02  0.1067784E+00
          2   -1    0    0  501    0  0.00000000000E+00  0.00000000000E+00  0.37059123501E+04  0.37059123501E+04  0.25500000000E-02 0.  1.
         -2   -1    0    0    0  501 -0.00000000000E+00 -0.00000000000E+00 -0.76927456223E+01  0.76927460450E+01  0.25500000000E-02 0. -1.
    5000001    1    1    2    0    0 -0.33587137297E+01  0.14366995572E+03  0.13663260502E+04  0.13760189725E+04  0.77000000000E+02 0.  0.
   -5000001    1    1    2    0    0  0.33587137297E+01 -0.14366995572E+03  0.23318935543E+04  0.23375861237E+04  0.77000000000E+02 0.  0.
<mgrwt>
<rscale>  0 0.33769005E+03</rscale>
<asrwt>0</asrwt>
<pdfrwt beam="1">  1        2 0.57013960E+00 0.33769005E+03</pdfrwt>
<pdfrwt beam="2">  1       -2 0.11835009E-02 0.33769005E+03</pdfrwt>
<totfact> 0.12104879E+03</totfact>
</mgrwt>
</event>
<event>
 4    1  0.6122885E-004  0.5516725E+03  0.7818608E-02  0.1001108E+00
          2   -1    0    0  501    0  0.00000000000E+00  0.00000000000E+00  0.98271685539E+02  0.98271685572E+02  0.25500000000E-02 0.  1.
         -2   -1    0    0    0  501 -0.00000000000E+00 -0.00000000000E+00 -0.77423760103E+03  0.77423760104E+03  0.25500000000E-02 0. -1.
    5000001    1    1    2    0    0  0.21438249732E+03 -0.15448375522E+03 -0.36678094447E+03  0.45856553186E+03  0.77000000000E+02 0.  0.
   -5000001    1    1    2    0    0 -0.21438249732E+03  0.15448375522E+03 -0.30918497102E+03  0.41394375475E+03  0.77000000000E+02 0.  0.
<mgrwt>
<rscale>  0 0.55167249E+03</rscale>
<asrwt>0</asrwt>
<pdfrwt beam="1">  1        2 0.15118721E-01 0.55167249E+03</pdfrwt>
<pdfrwt beam="2">  1       -2 0.11911347E+00 0.55167249E+03</pdfrwt>
<totfact> 0.21780137E+02</totfact>
</mgrwt>
</event>
<event>
 4    1  0.6122885E-004  0.1848606E+03  0.7818608E-02  0.1163180E+00
         -2   -1    0    0    0  501 -0.00000000000E+00  0.00000000000E+00  0.30678677306E+01  0.30678687904E+01  0.25500000000E-02 0. -1.
          2   -1    0    0  501    0  0.00000000000E+00 -0.00000000000E+00 -0.27847861604E+04  0.27847861604E+04  0.25500000000E-02 0.  1.
    5000001    1    1    2    0    0 -0.49724986034E+02  0.21414421333E+01 -0.12142154401E+04  0.12176720802E+04  0.77000000000E+02 0.  0.
   -5000001    1    1    2    0    0  0.49724986034E+02 -0.21414421333E+01 -0.15675028526E+04  0.15701819490E+04  0.77000000000E+02 0.  0.
<mgrwt>
<rscale>  0 0.18486056E+03</rscale>
<asrwt>0</asrwt>
<pdfrwt beam="1">  1        2 0.42842662E+00 0.18486056E+03</pdfrwt>
<pdfrwt beam="2">  1       -2 0.47198196E-03 0.18486056E+03</pdfrwt>
<totfact> 0.17414690E+04</totfact>
</mgrwt>
</event>
<event>
 4    1  0.6122885E-004  0.2213691E+03  0.7818608E-02  0.1132866E+00
          2   -1    0    0  501    0  0.00000000000E+00  0.00000000000E+00  0.49861323731E+03  0.49861323732E+03  0.25500000000E-02 0.  1.
         -2   -1    0    0    0  501 -0.00000000000E+00 -0.00000000000E+00 -0.24570281927E+02  0.24570282060E+02  0.25500000000E-02 0. -1.
    5000001    1    1    2    0    0  0.77403841699E+02 -0.75932998903E+01  0.27607517026E+03  0.29697729299E+03  0.77000000000E+02 0.  0.
   -5000001    1    1    2    0    0 -0.77403841699E+02  0.75932998903E+01  0.19796778512E+03  0.22620622639E+03  0.77000000000E+02 0.  0.
<mgrwt>
<rscale>  0 0.22136908E+03</rscale>
<asrwt>0</asrwt>
<pdfrwt beam="1">  1        2 0.76709728E-01 0.22136908E+03</pdfrwt>
<pdfrwt beam="2">  1       -2 0.37800434E-02 0.22136908E+03</pdfrwt>
<totfact> 0.18302105E+04</totfact>
</mgrwt>
</event>
<event>
 4    1  0.6122885E-004  0.5462382E+03  0.7818608E-02  0.1002368E+00
         -2   -1    0    0    0  501 -0.00000000000E+00  0.00000000000E+00  0.16372780067E+03  0.16372780069E+03  0.25500000000E-02 0. -1.
          2   -1    0    0  501    0  0.00000000000E+00 -0.00000000000E+00 -0.45559793715E+03  0.45559793716E+03  0.25500000000E-02 0.  1.
    5000001    1    1    2    0    0  0.17346992189E+03  0.63289111357E+02  0.64865816862E+02  0.21031856697E+03  0.77000000000E+02 0.  0.
   -5000001    1    1    2    0    0 -0.17346992189E+03 -0.63289111357E+02 -0.35673595335E+03  0.40900717088E+03  0.77000000000E+02 0.  0.
<mgrwt>
<rscale>  0 0.54623822E+03</rscale>
<asrwt>0</asrwt>
<pdfrwt beam="1">  1        2 0.70091990E-01 0.54623822E+03</pdfrwt>
<pdfrwt beam="2">  1       -2 0.25188893E-01 0.54623822E+03</pdfrwt>
<totfact> 0.97231215E+02</totfact>
</mgrwt>
</event>
<event>
 4    1  0.6122885E-004  0.3080026E+03  0.7818608E-02  0.1081307E+00
          2   -1    0    0  501    0  0.00000000000E+00  0.00000000000E+00  0.23214482763E+04  0.23214482763E+04  0.25500000000E-02 0.  1.
         -2   -1    0    0    0  501 -0.00000000000E+00 -0.00000000000E+00 -0.10216207436E+02  0.10216207754E+02  0.25500000000E-02 0. -1.
    5000001    1    1    2    0    0  0.83371637039E+02  0.50656760894E+02  0.18440725907E+04  0.18482558418E+04  0.77000000000E+02 0.  0.
   -5000001    1    1    2    0    0 -0.83371637039E+02 -0.50656760894E+02  0.46715947816E+03  0.48340864217E+03  0.77000000000E+02 0.  0.
<mgrwt>
<rscale>  0 0.30800258E+03</rscale>
<asrwt>0</asrwt>
<pdfrwt beam="1">  1        2 0.35714588E+00 0.30800258E+03</pdfrwt>
<pdfrwt beam="2">  1       -2 0.15717243E-02 0.30800258E+03</pdfrwt>
<totfact> 0.55214931E+03</totfact>
</mgrwt>
</event>
<event>
 4    1  0.6122885E-004  0.6582847E+03  0.7818608E-02  0.9791356E-01
         -2   -1    0    0    0  501 -0.00000000000E+00  0.00000000000E+00  0.39837657005E+02  0.39837657087E+02  0.25500000000E-02 0. -1.
          2   -1    0    0  501    0  0.00000000000E+00 -0.00000000000E+00 -0.27194043867E+04  0.27194043867E+04  0.25500000000E-02 0.  1.
    5000001    1    1    2    0    0 -0.26484513155E+03  0.55462102370E+02 -0.62369174771E+03  0.68420712118E+03  0.77000000000E+02 0.  0.
   -5000001    1    1    2    0    0  0.26484513155E+03 -0.55462102370E+02 -0.20558749820E+04  0.20750349226E+04  0.77000000000E+02 0.  0.
<mgrwt>
<rscale>  0 0.65828474E+03</rscale>
<asrwt>0</asrwt>
<pdfrwt beam="1">  1        2 0.41836976E+00 0.65828474E+03</pdfrwt>
<pdfrwt beam="2">  1       -2 0.61288724E-02 0.65828474E+03</pdfrwt>
<totfact> 0.40945526E+02</totfact>
</mgrwt>
</event>
<event>
 4    1  0.6122885E-004  0.1638723E+03  0.7818608E-02  0.1184393E+00
         -2   -1    0    0    0  501 -0.00000000000E+00  0.00000000000E+00  0.14840039366E+02  0.14840039585E+02  0.25500000000E-02 0. -1.
          2   -1    0    0  501    0  0.00000000000E+00 -0.00000000000E+00 -0.45239297873E+03  0.45239297874E+03  0.25500000000E-02 0.  1.
    5000001    1    1    2    0    0 -0.10791838195E+02 -0.20170099065E+02 -0.17269332670E+03  0.19046070921E+03  0.77000000000E+02 0.  0.
   -5000001    1    1    2    0    0  0.10791838195E+02  0.20170099065E+02 -0.26485961267E+03  0.27677230911E+03  0.77000000000E+02 0.  0.
<mgrwt>
<rscale>  0 0.16387226E+03</rscale>
<asrwt>0</asrwt>
<pdfrwt beam="1">  1        2 0.69598909E-01 0.16387226E+03</pdfrwt>
<pdfrwt beam="2">  1       -2 0.22830833E-02 0.16387226E+03</pdfrwt>
<totfact> 0.41907896E+04</totfact>
</mgrwt>
</event>
<event>
 4    1  0.6122885E-004  0.3196374E+03  0.7818608E-02  0.1075816E+00
          2   -1    0    0  501    0  0.00000000000E+00  0.00000000000E+00  0.68816716207E+03  0.68816716208E+03  0.25500000000E-02 0.  1.
         -2   -1    0    0    0  501 -0.00000000000E+00 -0.00000000000E+00 -0.37116004971E+02  0.37116005059E+02  0.25500000000E-02 0. -1.
    5000001    1    1    2    0    0 -0.56070711388E+02 -0.12275352216E+03  0.24060420788E+03  0.28641183063E+03  0.77000000000E+02 0.  0.
   -5000001    1    1    2    0    0  0.56070711388E+02  0.12275352216E+03  0.41044694922E+03  0.43887133650E+03  0.77000000000E+02 0.  0.
<mgrwt>
<rscale>  0 0.31963739E+03</rscale>
<asrwt>0</asrwt>
<pdfrwt beam="1">  1        2 0.10587186E+00 0.31963739E+03</pdfrwt>
<pdfrwt beam="2">  1       -2 0.57101551E-02 0.31963739E+03</pdfrwt>
<totfact> 0.68539764E+03</totfact>
</mgrwt>
</event>
<event>
 4    1  0.6122885E-004  0.7727513E+03  0.7818608E-02  0.9600318E-01
          2   -1    0    0  501    0  0.00000000000E+00  0.00000000000E+00  0.28863444491E+03  0.28863444492E+03  0.25500000000E-02 0.  1.
         -2   -1    0    0    0  501 -0.00000000000E+00 -0.00000000000E+00 -0.51721527406E+03  0.51721527407E+03  0.25500000000E-02 0. -1.
    5000001    1    1    2    0    0 -0.31838107207E+03 -0.10897102069E+02  0.99100337424E+02  0.34239616056E+03  0.77000000000E+02 0.  0.
   -5000001    1    1    2    0    0  0.31838107207E+03  0.10897102069E+02 -0.32768116658E+03  0.46345355843E+03  0.77000000000E+02 0.  0.
<mgrwt>
<rscale>  0 0.77275130E+03</rscale>
<asrwt>0</asrwt>
<pdfrwt beam="1">  1        2 0.44405299E-01 0.77275130E+03</pdfrwt>
<pdfrwt beam="2">  1       -2 0.79571580E-01 0.77275130E+03</pdfrwt>
<totfact> 0.16171428E+02</totfact>
</mgrwt>
</event>
<event>
 4    1  0.6122885E-004  0.2335207E+03  0.7818608E-02  0.1124186E+00
          2   -1    0    0  501    0  0.00000000000E+00  0.00000000000E+00  0.14735004230E+03  0.14735004232E+03  0.25500000000E-02 0.  1.
         -2   -1    0    0    0  501 -0.00000000000E+00 -0.00000000000E+00 -0.92521032702E+02  0.92521032737E+02  0.25500000000E-02 0. -1.
    5000001    1    1    2    0    0  0.29283462571E+02 -0.55744624512E+02 -0.35395653360E+02  0.10557858030E+03  0.77000000000E+02 0.  0.
   -5000001    1    1    2    0    0 -0.29283462571E+02  0.55744624512E+02  0.90224662960E+02  0.13429249476E+03  0.77000000000E+02 0.  0.
<mgrwt>
<rscale>  0 0.23352069E+03</rscale>
<asrwt>0</asrwt>
<pdfrwt beam="1">  1        2 0.22669237E-01 0.23352069E+03</pdfrwt>
<pdfrwt beam="2">  1       -2 0.14234005E-01 0.23352069E+03</pdfrwt>
<totfact> 0.88057422E+03</totfact>
</mgrwt>
</event>
<event>
 4    1  0.6122885E-004  0.4850739E+03  0.7818608E-02  0.1017750E+00
         -2   -1    0    0    0  501 -0.00000000000E+00  0.00000000000E+00  0.50713010416E+02  0.50713010480E+02  0.25500000000E-02 0. -1.
          2   -1    0    0  501    0  0.00000000000E+00 -0.00000000000E+00 -0.11599424096E+04  0.11599424096E+04  0.25500000000E-02 0.  1.
    5000001    1    1    2    0    0 -0.19187419122E+03  0.68847661694E+02 -0.82038652689E+03  0.84883376422E+03  0.77000000000E+02 0.  0.
   -5000001    1    1    2    0    0  0.19187419122E+03 -0.68847661694E+02 -0.28884287228E+03  0.36182165585E+03  0.77000000000E+02 0.  0.
<mgrwt>
<rscale>  0 0.48507390E+03</rscale>
<asrwt>0</asrwt>
<pdfrwt beam="1">  1        2 0.17845266E+00 0.48507390E+03</pdfrwt>
<pdfrwt beam="2">  1       -2 0.78020025E-02 0.48507390E+03</pdfrwt>
<totfact> 0.20700082E+03</totfact>
</mgrwt>
</event>
<event>
 4    1  0.6122885E-004  0.2583561E+03  0.7818608E-02  0.1108135E+00
         -2   -1    0    0    0  501 -0.00000000000E+00  0.00000000000E+00  0.11907914068E+02  0.11907914341E+02  0.25500000000E-02 0. -1.
          2   -1    0    0  501    0  0.00000000000E+00 -0.00000000000E+00 -0.14013341072E+04  0.14013341072E+04  0.25500000000E-02 0.  1.
    5000001    1    1    2    0    0 -0.77018979699E+02  0.57543182904E+02 -0.48181140540E+03  0.49730711990E+03  0.77000000000E+02 0.  0.
   -5000001    1    1    2    0    0  0.77018979699E+02 -0.57543182904E+02 -0.90761478774E+03  0.91593490165E+03  0.77000000000E+02 0.  0.
<mgrwt>
<rscale>  0 0.25835608E+03</rscale>
<asrwt>0</asrwt>
<pdfrwt beam="1">  1        2 0.21558973E+00 0.25835608E+03</pdfrwt>
<pdfrwt beam="2">  1       -2 0.18319879E-02 0.25835608E+03</pdfrwt>
<totfact> 0.13539380E+04</totfact>
</mgrwt>
</event>
<event>
 4    1  0.6122885E-004  0.3036019E+03  0.7818608E-02  0.1083454E+00
         -2   -1    0    0    0  501 -0.00000000000E+00  0.00000000000E+00  0.57194185304E+02  0.57194185361E+02  0.25500000000E-02 0. -1.
          2   -1    0    0  501    0  0.00000000000E+00 -0.00000000000E+00 -0.40289977889E+03  0.40289977890E+03  0.25500000000E-02 0.  1.
    5000001    1    1    2    0    0  0.12479321656E+03 -0.23753584194E+02 -0.12548565972E+03  0.19445624304E+03  0.77000000000E+02 0.  0.
   -5000001    1    1    2    0    0 -0.12479321656E+03  0.23753584194E+02 -0.22021993386E+03  0.26563772122E+03  0.77000000000E+02 0.  0.
<mgrwt>
<rscale>  0 0.30360188E+03</rscale>
<asrwt>0</asrwt>
<pdfrwt beam="1">  1        2 0.61984580E-01 0.30360188E+03</pdfrwt>
<pdfrwt beam="2">  1       -2 0.87991057E-02 0.30360188E+03</pdfrwt>
<totfact> 0.64329747E+03</totfact>
</mgrwt>
</event>
<event>
 4    1  0.6122885E-004  0.2538221E+03  0.7818608E-02  0.1110913E+00
          2   -1    0    0  501    0  0.00000000000E+00  0.00000000000E+00  0.81354059296E+03  0.81354059297E+03  0.25500000000E-02 0.  1.
         -2   -1    0    0    0  501 -0.00000000000E+00 -0.00000000000E+00 -0.19797918601E+02  0.19797918765E+02  0.25500000000E-02 0. -1.
    5000001    1    1    2    0    0  0.44328213389E+02  0.46658700391E+02  0.65193264915E+03  0.65961140367E+03  0.77000000000E+02 0.  0.
   -5000001    1    1    2    0    0 -0.44328213389E+02 -0.46658700391E+02  0.14181002521E+03  0.17372710806E+03  0.77000000000E+02 0.  0.
<mgrwt>
<rscale>  0 0.25382207E+03</rscale>
<asrwt>0</asrwt>
<pdfrwt beam="1">  1        2 0.12516007E+00 0.25382207E+03</pdfrwt>
<pdfrwt beam="2">  1       -2 0.30458341E-02 0.25382207E+03</pdfrwt>
<totfact> 0.14262833E+04</totfact>
</mgrwt>
</event>
<event>
 4    1  0.6122885E-004  0.2536964E+03  0.7818608E-02  0.1110991E+00
         -2   -1    0    0    0  501 -0.00000000000E+00  0.00000000000E+00  0.33030211710E+02  0.33030211809E+02  0.25500000000E-02 0. -1.
          2   -1    0    0  501    0  0.00000000000E+00 -0.00000000000E+00 -0.48714376364E+03  0.48714376365E+03  0.25500000000E-02 0.  1.
    5000001    1    1    2    0    0  0.97320810466E+02  0.15491128385E+02 -0.27055898334E+03  0.29806455454E+03  0.77000000000E+02 0.  0.
   -5000001    1    1    2    0    0 -0.97320810466E+02 -0.15491128385E+02 -0.18355456859E+03  0.22210942092E+03  0.77000000000E+02 0.  0.
<mgrwt>
<rscale>  0 0.25369637E+03</rscale>
<asrwt>0</asrwt>
<pdfrwt beam="1">  1        2 0.74945189E-01 0.25369637E+03</pdfrwt>
<pdfrwt beam="2">  1       -2 0.50815714E-02 0.25369637E+03</pdfrwt>
<totfact> 0.12114739E+04</totfact>
</mgrwt>
</event>
<event>
 4    1  0.6122885E-004  0.3210454E+03  0.7818608E-02  0.1075169E+00
         -2   -1    0    0    0  501 -0.00000000000E+00  0.00000000000E+00  0.42769293258E+03  0.42769293259E+03  0.25500000000E-02 0. -1.
          2   -1    0    0  501    0  0.00000000000E+00 -0.00000000000E+00 -0.60247746954E+02  0.60247747008E+02  0.25500000000E-02 0.  1.
    5000001    1    1    2    0    0 -0.39439496881E+02 -0.11331559953E+03  0.71596869695E+02  0.15953372923E+03  0.77000000000E+02 0.  0.
   -5000001    1    1    2    0    0  0.39439496881E+02  0.11331559953E+03  0.29584831593E+03  0.32840695037E+03  0.77000000000E+02 0.  0.
<mgrwt>
<rscale>  0 0.32104539E+03</rscale>
<asrwt>0</asrwt>
<pdfrwt beam="1">  1        2 0.92688840E-02 0.32104539E+03</pdfrwt>
<pdfrwt beam="2">  1       -2 0.65798914E-01 0.32104539E+03</pdfrwt>
<totfact> 0.15404075E+03</totfact>
</mgrwt>
</event>
<event>
 4    1  0.6122885E-004  0.3948058E+03  0.7818608E-02  0.1045593E+00
          2   -1    0    0  501    0  0.00000000000E+00  0.00000000000E+00  0.21966075670E+04  0.21966075670E+04  0.25500000000E-02 0.  1.
         -2   -1    0    0    0  501 -0.00000000000E+00 -0.00000000000E+00 -0.17740039745E+02  0.17740039928E+02  0.25500000000E-02 0. -1.
    5000001    1    1    2    0    0 -0.13439354945E+03  0.11712679892E+03  0.12884116684E+04  0.13029635223E+04  0.77000000000E+02 0.  0.
   -5000001    1    1    2    0    0  0.13439354945E+03 -0.11712679892E+03  0.89045585888E+03  0.91138408466E+03  0.77000000000E+02 0.  0.
<mgrwt>
<rscale>  0 0.39480580E+03</rscale>
<asrwt>0</asrwt>
<pdfrwt beam="1">  1        2 0.33793958E+00 0.39480580E+03</pdfrwt>
<pdfrwt beam="2">  1       -2 0.27292373E-02 0.39480580E+03</pdfrwt>
<totfact> 0.28332366E+03</totfact>
</mgrwt>
</event>
<event>
 4    1  0.6122885E-004  0.3049988E+03  0.7818608E-02  0.1082768E+00
          2   -1    0    0  501    0  0.00000000000E+00  0.00000000000E+00  0.13178628205E+04  0.13178628205E+04  0.25500000000E-02 0.  1.
         -2   -1    0    0    0  501 -0.00000000000E+00 -0.00000000000E+00 -0.17646803436E+02  0.17646803620E+02  0.25500000000E-02 0. -1.
    5000001    1    1    2    0    0 -0.86166471861E+02 -0.87913175946E+02  0.44595932079E+03  0.46900117609E+03  0.77000000000E+02 0.  0.
   -5000001    1    1    2    0    0  0.86166471861E+02  0.87913175946E+02  0.85425669631E+03  0.86650844807E+03  0.77000000000E+02 0.  0.
<mgrwt>
<rscale>  0 0.30499880E+03</rscale>
<asrwt>0</asrwt>
<pdfrwt beam="1">  1        2 0.20274811E+00 0.30499880E+03</pdfrwt>
<pdfrwt beam="2">  1       -2 0.27148931E-02 0.30499880E+03</pdfrwt>
<totfact> 0.84471078E+03</totfact>
</mgrwt>
</event>
<event>
 4    1  0.6122885E-004  0.1627079E+03  0.7818608E-02  0.1185673E+00
          2   -1    0    0  501    0  0.00000000000E+00  0.00000000000E+00  0.12579786034E+04  0.12579786034E+04  0.25500000000E-02 0.  1.
         -2   -1    0    0    0  501 -0.00000000000E+00 -0.00000000000E+00 -0.52611883123E+01  0.52611889303E+01  0.25500000000E-02 0. -1.
    5000001    1    1    2    0    0  0.12672213524E+02  0.22992321954E+02  0.63008901575E+03  0.63531913212E+03  0.77000000000E+02 0.  0.
   -5000001    1    1    2    0    0 -0.12672213524E+02 -0.22992321954E+02  0.62262839931E+03  0.62792066019E+03  0.77000000000E+02 0.  0.
<mgrwt>
<rscale>  0 0.16270787E+03</rscale>
<asrwt>0</asrwt>
<pdfrwt beam="1">  1        2 0.19353542E+00 0.16270787E+03</pdfrwt>
<pdfrwt beam="2">  1       -2 0.80941261E-03 0.16270787E+03</pdfrwt>
<totfact> 0.51542881E+04</totfact>
</mgrwt>
</event>
<event>
 4    1  0.6122885E-004  0.2132245E+03  0.7818608E-02  0.1139038E+00
          2   -1    0    0  501    0  0.00000000000E+00  0.00000000000E+00  0.25809632627E+04  0.25809632627E+04  0.25500000000E-02 0.  1.
         -2   -1    0    0    0  501 -0.00000000000E+00 -0.00000000000E+00 -0.44038474791E+01  0.44038482174E+01  0.25500000000E-02 0. -1.
    5000001    1    1    2    0    0  0.59508363807E+02 -0.35347968291E+02  0.97999566377E+03  0.98544975784E+03  0.77000000000E+02 0.  0.
   -5000001    1    1    2    0    0 -0.59508363807E+02  0.35347968291E+02  0.15965637515E+04  0.15999173531E+04  0.77000000000E+02 0.  0.
<mgrwt>
<rscale>  0 0.21322448E+03</rscale>
<asrwt>0</asrwt>
<pdfrwt beam="1">  1        2 0.39707348E+00 0.21322448E+03</pdfrwt>
<pdfrwt beam="2">  1       -2 0.67751129E-03 0.21322448E+03</pdfrwt>
<totfact> 0.13514323E+04</totfact>
</mgrwt>
</event>
<event>
 4    1  0.6122885E-004  0.2276240E+03  0.7818608E-02  0.1128323E+00
          2   -1    0    0  501    0  0.00000000000E+00  0.00000000000E+00  0.66558594110E+02  0.66558594159E+02  0.25500000000E-02 0.  1.
         -2   -1    0    0    0  501 -0.00000000000E+00 -0.00000000000E+00 -0.19461299430E+03  0.19461299432E+03  0.25500000000E-02 0. -1.
    5000001    1    1    2    0    0 -0.97999837069E+01  0.73881446984E+02 -0.10801338525E+03  0.15215255267E+03  0.77000000000E+02 0.  0.
   -5000001    1    1    2    0    0  0.97999837069E+01 -0.73881446984E+02 -0.20041014937E+02  0.10901903581E+03  0.77000000000E+02 0.  0.
<mgrwt>
<rscale>  0 0.22762396E+03</rscale>
<asrwt>0</asrwt>
<pdfrwt beam="1">  1        2 0.10239784E-01 0.22762396E+03</pdfrwt>
<pdfrwt beam="2">  1       -2 0.29940460E-01 0.22762396E+03</pdfrwt>
<totfact> 0.62666286E+03</totfact>
</mgrwt>
</event>
<event>
 4    1  0.6122885E-004  0.2986577E+03  0.7818608E-02  0.1085914E+00
          2   -1    0    0  501    0  0.00000000000E+00  0.00000000000E+00  0.12100065530E+04  0.12100065530E+04  0.25500000000E-02 0.  1.
         -2   -1    0    0    0  501 -0.00000000000E+00 -0.00000000000E+00 -0.18428912134E+02  0.18428912310E+02  0.25500000000E-02 0. -1.
    5000001    1    1    2    0    0 -0.72244651256E+02  0.91906694376E+02  0.38190401628E+03  0.40675030148E+03  0.77000000000E+02 0.  0.
   -5000001    1    1    2    0    0  0.72244651256E+02 -0.91906694376E+02  0.80967362454E+03  0.82168516379E+03  0.77000000000E+02 0.  0.
<mgrwt>
<rscale>  0 0.29865769E+03</rscale>
<asrwt>0</asrwt>
<pdfrwt beam="1">  1        2 0.18615488E+00 0.29865769E+03</pdfrwt>
<pdfrwt beam="2">  1       -2 0.28352169E-02 0.29865769E+03</pdfrwt>
<totfact> 0.90992626E+03</totfact>
</mgrwt>
</event>
<event>
 4    1  0.6122885E-004  0.2217715E+03  0.7818608E-02  0.1132569E+00
         -2   -1    0    0    0  501 -0.00000000000E+00  0.00000000000E+00  0.11720989286E+02  0.11720989564E+02  0.25500000000E-02 0. -1.
          2   -1    0    0  501    0  0.00000000000E+00 -0.00000000000E+00 -0.10490280853E+04  0.10490280854E+04  0.25500000000E-02 0.  1.
    5000001    1    1    2    0    0 -0.77005712813E+02  0.13827770705E+02 -0.44370109904E+03  0.45707849691E+03  0.77000000000E+02 0.  0.
   -5000001    1    1    2    0    0  0.77005712813E+02 -0.13827770705E+02 -0.59360599702E+03  0.60367057801E+03  0.77000000000E+02 0.  0.
<mgrwt>
<rscale>  0 0.22177148E+03</rscale>
<asrwt>0</asrwt>
<pdfrwt beam="1">  1        2 0.16138886E+00 0.22177148E+03</pdfrwt>
<pdfrwt beam="2">  1       -2 0.18032300E-02 0.22177148E+03</pdfrwt>
<totfact> 0.21755149E+04</totfact>
</mgrwt>
</event>
<event>
 4    1  0.6122885E-004  0.2535218E+03  0.7818608E-02  0.1111099E+00
         -2   -1    0    0    0  501 -0.00000000000E+00  0.00000000000E+00  0.16113610493E+02  0.16113610695E+02  0.25500000000E-02 0. -1.
          2   -1    0    0  501    0  0.00000000000E+00 -0.00000000000E+00 -0.99718953725E+03  0.99718953725E+03  0.25500000000E-02 0.  1.
    5000001    1    1    2    0    0 -0.71989604134E+02  0.60260321299E+02 -0.34502008850E+03  0.36576176795E+03  0.77000000000E+02 0.  0.
   -5000001    1    1    2    0    0  0.71989604134E+02 -0.60260321299E+02 -0.63605583826E+03  0.64754137999E+03  0.77000000000E+02 0.  0.
<mgrwt>
<rscale>  0 0.25352179E+03</rscale>
<asrwt>0</asrwt>
<pdfrwt beam="1">  1        2 0.15341373E+00 0.25352179E+03</pdfrwt>
<pdfrwt beam="2">  1       -2 0.24790178E-02 0.25352179E+03</pdfrwt>
<totfact> 0.14738485E+04</totfact>
</mgrwt>
</event>
<event>
 4    1  0.6122885E-004  0.2382556E+03  0.7818608E-02  0.1120960E+00
          2   -1    0    0  501    0  0.00000000000E+00  0.00000000000E+00  0.12180631911E+04  0.12180631911E+04  0.25500000000E-02 0.  1.
         -2   -1    0    0    0  501 -0.00000000000E+00 -0.00000000000E+00 -0.11650815295E+02  0.11650815574E+02  0.25500000000E-02 0. -1.
    5000001    1    1    2    0    0  0.55563798914E+02  0.68982251197E+01  0.97279110028E+03  0.97743871728E+03  0.77000000000E+02 0.  0.
   -5000001    1    1    2    0    0 -0.55563798914E+02 -0.68982251197E+01  0.23362127550E+03  0.25227528937E+03  0.77000000000E+02 0.  0.
<mgrwt>
<rscale>  0 0.23825557E+03</rscale>
<asrwt>0</asrwt>
<pdfrwt beam="1">  1        2 0.18739434E+00 0.23825557E+03</pdfrwt>
<pdfrwt beam="2">  1       -2 0.17924331E-02 0.23825557E+03</pdfrwt>
<totfact> 0.17589145E+04</totfact>
</mgrwt>
</event>
<event>
 4    1  0.6122885E-004  0.2050158E+03  0.7818608E-02  0.1145575E+00
         -2   -1    0    0    0  501 -0.00000000000E+00  0.00000000000E+00  0.44619842547E+01  0.44619849833E+01  0.25500000000E-02 0. -1.
          2   -1    0    0  501    0  0.00000000000E+00 -0.00000000000E+00 -0.23549755836E+04  0.23549755836E+04  0.25500000000E-02 0.  1.
    5000001    1    1    2    0    0 -0.48196209463E+02 -0.47472704171E+02 -0.11928336166E+04  0.11972291214E+04  0.77000000000E+02 0.  0.
   -5000001    1    1    2    0    0  0.48196209463E+02  0.47472704171E+02 -0.11576799827E+04  0.11622084472E+04  0.77000000000E+02 0.  0.
<mgrwt>
<rscale>  0 0.20501575E+03</rscale>
<asrwt>0</asrwt>
<pdfrwt beam="1">  1        2 0.36230294E+00 0.20501575E+03</pdfrwt>
<pdfrwt beam="2">  1       -2 0.68646105E-03 0.20501575E+03</pdfrwt>
<totfact> 0.17558124E+04</totfact>
</mgrwt>
</event>
<event>
 4    1  0.6122885E-004  0.2252597E+03  0.7818608E-02  0.1130021E+00
          2   -1    0    0  501    0  0.00000000000E+00  0.00000000000E+00  0.21416430102E+03  0.21416430103E+03  0.25500000000E-02 0.  1.
         -2   -1    0    0    0  501 -0.00000000000E+00 -0.00000000000E+00 -0.59232504805E+02  0.59232504860E+02  0.25500000000E-02 0. -1.
    5000001    1    1    2    0    0 -0.55567136965E+02 -0.69315315179E-02  0.15098001756E+03  0.17835826996E+03  0.77000000000E+02 0.  0.
   -5000001    1    1    2    0    0  0.55567136965E+02  0.69315315179E-02  0.39517786514E+01  0.95038535937E+02  0.77000000000E+02 0.  0.
<mgrwt>
<rscale>  0 0.22525974E+03</rscale>
<asrwt>0</asrwt>
<pdfrwt beam="1">  1        2 0.32948353E-01 0.22525974E+03</pdfrwt>
<pdfrwt beam="2">  1       -2 0.91126932E-02 0.22525974E+03</pdfrwt>
<totfact> 0.11889325E+04</totfact>
</mgrwt>
</event>
<event>
 4    1  0.6122885E-004  0.3267856E+03  0.7818608E-02  0.1072568E+00
          2   -1    0    0  501    0  0.00000000000E+00  0.00000000000E+00  0.13537793724E+04  0.13537793724E+04  0.25500000000E-02 0.  1.
         -2   -1    0    0    0  501 -0.00000000000E+00 -0.00000000000E+00 -0.19720501897E+02  0.19720502062E+02  0.25500000000E-02 0. -1.
    5000001    1    1    2    0    0  0.76140694954E+02 -0.44674891140E+02  0.18826853952E+03  0.22173699353E+03  0.77000000000E+02 0.  0.
   -5000001    1    1    2    0    0 -0.76140694954E+02  0.44674891140E+02  0.11457903310E+04  0.11517628809E+04  0.77000000000E+02 0.  0.
<mgrwt>
<rscale>  0 0.32678561E+03</rscale>
<asrwt>0</asrwt>
<pdfrwt beam="1">  1        2 0.20827379E+00 0.32678561E+03</pdfrwt>
<pdfrwt beam="2">  1       -2 0.30339228E-02 0.32678561E+03</pdfrwt>
<totfact> 0.68437078E+03</totfact>
</mgrwt>
</event>
<event>
 4    1  0.6122885E-004  0.2168582E+03  0.7818608E-02  0.1136247E+00
         -2   -1    0    0    0  501 -0.00000000000E+00  0.00000000000E+00  0.37917023007E+01  0.37917031581E+01  0.25500000000E-02 0. -1.
          2   -1    0    0  501    0  0.00000000000E+00 -0.00000000000E+00 -0.31006842464E+04  0.31006842464E+04  0.25500000000E-02 0.  1.
    5000001    1    1    2    0    0  0.56065679226E+02 -0.26987575500E+02 -0.21816116599E+04  0.21838567088E+04  0.77000000000E+02 0.  0.
   -5000001    1    1    2    0    0 -0.56065679226E+02  0.26987575500E+02 -0.91528088414E+03  0.92061924078E+03  0.77000000000E+02 0.  0.
<mgrwt>
<rscale>  0 0.21685823E+03</rscale>
<asrwt>0</asrwt>
<pdfrwt beam="1">  1        2 0.47702632E+00 0.21685823E+03</pdfrwt>
<pdfrwt beam="2">  1       -2 0.58334136E-03 0.21685823E+03</pdfrwt>
<totfact> 0.84459754E+03</totfact>
</mgrwt>
</event>
<event>
 4    1  0.6122885E-004  0.3544993E+03  0.7818608E-02  0.1060783E+00
          2   -1    0    0  501    0  0.00000000000E+00  0.00000000000E+00  0.30749764475E+04  0.30749764475E+04  0.25500000000E-02 0.  1.
         -2   -1    0    0    0  501 -0.00000000000E+00 -0.00000000000E+00 -0.10217131755E+02  0.10217132074E+02  0.25500000000E-02 0. -1.
    5000001    1    1    2    0    0 -0.15594367609E+03 -0.22043945404E+02  0.17600039890E+04  0.17687134892E+04  0.77000000000E+02 0.  0.
   -5000001    1    1    2    0    0  0.15594367609E+03  0.22043945404E+02  0.13047553267E+04  0.13164800903E+04  0.77000000000E+02 0.  0.
<mgrwt>
<rscale>  0 0.35449931E+03</rscale>
<asrwt>0</asrwt>
<pdfrwt beam="1">  1        2 0.47307458E+00 0.35449931E+03</pdfrwt>
<pdfrwt beam="2">  1       -2 0.15718622E-02 0.35449931E+03</pdfrwt>
<totfact> 0.20506468E+03</totfact>
</mgrwt>
</event>
<event>
 4    1  0.6122885E-004  0.5974480E+03  0.7818608E-02  0.9910715E-01
         -2   -1    0    0    0  501 -0.00000000000E+00  0.00000000000E+00  0.85587845400E+02  0.85587845438E+02  0.25500000000E-02 0. -1.
          2   -1    0    0  501    0  0.00000000000E+00 -0.00000000000E+00 -0.10426251171E+04  0.10426251171E+04  0.25500000000E-02 0.  1.
    5000001    1    1    2    0    0 -0.24215582514E+03 -0.10611342871E+03 -0.25986061948E+03  0.37862388324E+03  0.77000000000E+02 0.  0.
   -5000001    1    1    2    0    0  0.24215582514E+03  0.10611342871E+03 -0.69717665221E+03  0.74958907929E+03  0.77000000000E+02 0.  0.
<mgrwt>
<rscale>  0 0.59744803E+03</rscale>
<asrwt>0</asrwt>
<pdfrwt beam="1">  1        2 0.16040386E+00 0.59744803E+03</pdfrwt>
<pdfrwt beam="2">  1       -2 0.13167362E-01 0.59744803E+03</pdfrwt>
<totfact> 0.10410417E+03</totfact>
</mgrwt>
</event>
<event>
 4    1  0.6122885E-004  0.4055018E+03  0.7818608E-02  0.1041891E+00
          2   -1    0    0  501    0  0.00000000000E+00  0.00000000000E+00  0.19174484197E+04  0.19174484197E+04  0.25500000000E-02 0.  1.
         -2   -1    0    0    0  501 -0.00000000000E+00 -0.00000000000E+00 -0.21438865565E+02  0.21438865717E+02  0.25500000000E-02 0. -1.
    5000001    1    1    2    0    0  0.29121727484E+02 -0.10353052491E+03  0.16827363993E+04  0.16879269635E+04  0.77000000000E+02 0.  0.
   -5000001    1    1    2    0    0 -0.29121727484E+02  0.10353052491E+03  0.21327315481E+03  0.25096032189E+03  0.77000000000E+02 0.  0.
<mgrwt>
<rscale>  0 0.40550176E+03</rscale>
<asrwt>0</asrwt>
<pdfrwt beam="1">  1        2 0.29499198E+00 0.40550176E+03</pdfrwt>
<pdfrwt beam="2">  1       -2 0.32982880E-02 0.40550176E+03</pdfrwt>
<totfact> 0.30043123E+03</totfact>
</mgrwt>
</event>
<event>
 4    1  0.6122885E-004  0.7798602E+03  0.7818608E-02  0.9589635E-01
          2   -1    0    0  501    0  0.00000000000E+00  0.00000000000E+00  0.17642670530E+04  0.17642670530E+04  0.25500000000E-02 0.  1.
         -2   -1    0    0    0  501 -0.00000000000E+00 -0.00000000000E+00 -0.86180529003E+02  0.86180529041E+02  0.25500000000E-02 0. -1.
    5000001    1    1    2    0    0  0.29170897606E+03  0.24234643183E+03  0.72548211441E+03  0.82224036513E+03  0.77000000000E+02 0.  0.
   -5000001    1    1    2    0    0 -0.29170897606E+03 -0.24234643183E+03  0.95260440960E+03  0.10282072169E+04  0.77000000000E+02 0.  0.
<mgrwt>
<rscale>  0 0.77986016E+03</rscale>
<asrwt>0</asrwt>
<pdfrwt beam="1">  1        2 0.27142570E+00 0.77986016E+03</pdfrwt>
<pdfrwt beam="2">  1       -2 0.13258543E-01 0.77986016E+03</pdfrwt>
<totfact> 0.39564933E+02</totfact>
</mgrwt>
</event>
<event>
 4    1  0.6122885E-004  0.2842401E+03  0.7818608E-02  0.1093395E+00
         -2   -1    0    0    0  501 -0.00000000000E+00  0.00000000000E+00  0.91793215194E+01  0.91793218736E+01  0.25500000000E-02 0. -1.
          2   -1    0    0  501    0  0.00000000000E+00 -0.00000000000E+00 -0.22003926068E+04  0.22003926068E+04  0.25500000000E-02 0.  1.
    5000001    1    1    2    0    0  0.52195109609E+02 -0.10523338057E+03 -0.92695015547E+03  0.93753079127E+03  0.77000000000E+02 0.  0.
   -5000001    1    1    2    0    0 -0.52195109609E+02  0.10523338057E+03 -0.12642631298E+04  0.12720411374E+04  0.77000000000E+02 0.  0.
<mgrwt>
<rscale>  0 0.28424012E+03</rscale>
<asrwt>0</asrwt>
<pdfrwt beam="1">  1        2 0.33852152E+00 0.28424012E+03</pdfrwt>
<pdfrwt beam="2">  1       -2 0.14122051E-02 0.28424012E+03</pdfrwt>
<totfact> 0.75016900E+03</totfact>
</mgrwt>
</event>
<event>
 4    1  0.6122885E-004  0.2471739E+03  0.7818608E-02  0.1115104E+00
          2   -1    0    0  501    0  0.00000000000E+00  0.00000000000E+00  0.25656554434E+04  0.25656554434E+04  0.25500000000E-02 0.  1.
         -2   -1    0    0    0  501 -0.00000000000E+00 -0.00000000000E+00 -0.59531501990E+01  0.59531507451E+01  0.25500000000E-02 0. -1.
    5000001    1    1    2    0    0 -0.41202570209E+02  0.47929813845E+01  0.21882923200E+04  0.21900394751E+04  0.77000000000E+02 0.  0.
   -5000001    1    1    2    0    0  0.41202570209E+02 -0.47929813845E+01  0.37140997320E+03  0.38156911910E+03  0.77000000000E+02 0.  0.
<mgrwt>
<rscale>  0 0.24717389E+03</rscale>
<asrwt>0</asrwt>
<pdfrwt beam="1">  1        2 0.39471649E+00 0.24717389E+03</pdfrwt>
<pdfrwt beam="2">  1       -2 0.91586867E-03 0.24717389E+03</pdfrwt>
<totfact> 0.89352696E+03</totfact>
</mgrwt>
</event>
<event>
 4    1  0.6122885E-004  0.2124029E+03  0.7818608E-02  0.1139677E+00
          2   -1    0    0  501    0  0.00000000000E+00  0.00000000000E+00  0.28626497027E+04  0.28626497027E+04  0.25500000000E-02 0.  1.
         -2   -1    0    0    0  501 -0.00000000000E+00 -0.00000000000E+00 -0.39399688209E+01  0.39399696461E+01  0.25500000000E-02 0. -1.
    5000001    1    1    2    0    0 -0.15856046455E+02 -0.70789033839E+02  0.15554180662E+04  0.15590115017E+04  0.77000000000E+02 0.  0.
   -5000001    1    1    2    0    0  0.15856046455E+02  0.70789033839E+02  0.13032916676E+04  0.13075781706E+04  0.77000000000E+02 0.  0.
<mgrwt>
<rscale>  0 0.21240294E+03</rscale>
<asrwt>0</asrwt>
<pdfrwt beam="1">  1        2 0.44040859E+00 0.21240294E+03</pdfrwt>
<pdfrwt beam="2">  1       -2 0.60614782E-03 0.21240294E+03</pdfrwt>
<totfact> 0.11022086E+04</totfact>
</mgrwt>
</event>
<event>
 4    1  0.6122885E-004  0.3716319E+03  0.7818608E-02  0.1054071E+00
         -2   -1    0    0    0  501 -0.00000000000E+00  0.00000000000E+00  0.16030224886E+02  0.16030225089E+02  0.25500000000E-02 0. -1.
          2   -1    0    0  501    0  0.00000000000E+00 -0.00000000000E+00 -0.21539046707E+04  0.21539046707E+04  0.25500000000E-02 0.  1.
    5000001    1    1    2    0    0 -0.13261219625E+03  0.72791429675E+02 -0.15103078065E+04  0.15198168499E+04  0.77000000000E+02 0.  0.
   -5000001    1    1    2    0    0  0.13261219625E+03 -0.72791429675E+02 -0.62756663931E+03  0.65011804590E+03  0.77000000000E+02 0.  0.
<mgrwt>
<rscale>  0 0.37163195E+03</rscale>
<asrwt>0</asrwt>
<pdfrwt beam="1">  1        2 0.33136972E+00 0.37163195E+03</pdfrwt>
<pdfrwt beam="2">  1       -2 0.24661902E-02 0.37163195E+03</pdfrwt>
<totfact> 0.34799658E+03</totfact>
</mgrwt>
</event>
<event>
 4    1  0.6122885E-004  0.2337419E+03  0.7818608E-02  0.1124033E+00
         -2   -1    0    0    0  501 -0.00000000000E+00  0.00000000000E+00  0.20090060726E+03  0.20090060728E+03  0.25500000000E-02 0. -1.
          2   -1    0    0  501    0  0.00000000000E+00 -0.00000000000E+00 -0.67987951381E+02  0.67987951429E+02  0.25500000000E-02 0.  1.
    5000001    1    1    2    0    0 -0.29085311046E+02  0.80153239929E+02  0.41801891730E+02  0.12225749606E+03  0.77000000000E+02 0.  0.
   -5000001    1    1    2    0    0  0.29085311046E+02 -0.80153239929E+02  0.91110764147E+02  0.14663106265E+03  0.77000000000E+02 0.  0.
<mgrwt>
<rscale>  0 0.23374192E+03</rscale>
<asrwt>0</asrwt>
<pdfrwt beam="1">  1        2 0.10459685E-01 0.23374192E+03</pdfrwt>
<pdfrwt beam="2">  1       -2 0.30907785E-01 0.23374192E+03</pdfrwt>
<totfact> 0.57696031E+03</totfact>
</mgrwt>
</event>
<event>
 4    1  0.6122885E-004  0.4038121E+03  0.7818608E-02  0.1042468E+00
         -2   -1    0    0    0  501 -0.00000000000E+00  0.00000000000E+00  0.69723827023E+02  0.69723827070E+02  0.25500000000E-02 0. -1.
          2   -1    0    0  501    0  0.00000000000E+00 -0.00000000000E+00 -0.58467890101E+03  0.58467890101E+03  0.25500000000E-02 0.  1.
    5000001    1    1    2    0    0 -0.15097563454E+03  0.65689444768E+02 -0.39994245031E+03  0.43930821634E+03  0.77000000000E+02 0.  0.
   -5000001    1    1    2    0    0  0.15097563454E+03 -0.65689444768E+02 -0.11501262367E+03  0.21509451175E+03  0.77000000000E+02 0.  0.
<mgrwt>
<rscale>  0 0.40381209E+03</rscale>
<asrwt>0</asrwt>
<pdfrwt beam="1">  1        2 0.89950597E-01 0.40381209E+03</pdfrwt>
<pdfrwt beam="2">  1       -2 0.10726743E-01 0.40381209E+03</pdfrwt>
<totfact> 0.31013736E+03</totfact>
</mgrwt>
</event>
<event>
 4    1  0.6122885E-004  0.2216598E+03  0.7818608E-02  0.1132652E+00
          2   -1    0    0  501    0  0.00000000000E+00  0.00000000000E+00  0.72657992268E+03  0.72657992269E+03  0.25500000000E-02 0.  1.
         -2   -1    0    0    0  501 -0.00000000000E+00 -0.00000000000E+00 -0.16905592058E+02  0.16905592250E+02  0.25500000000E-02 0. -1.
    5000001    1    1    2    0    0  0.52193976213E+02  0.31113119558E+02  0.52789521760E+03  0.53693072005E+03  0.77000000000E+02 0.  0.
   -5000001    1    1    2    0    0 -0.52193976213E+02 -0.31113119558E+02  0.18177911302E+03  0.20655479489E+03  0.77000000000E+02 0.  0.
<mgrwt>
<rscale>  0 0.22165977E+03</rscale>
<asrwt>0</asrwt>
<pdfrwt beam="1">  1        2 0.11178155E+00 0.22165977E+03</pdfrwt>
<pdfrwt beam="2">  1       -2 0.26008599E-02 0.22165977E+03</pdfrwt>
<totfact> 0.20611788E+04</totfact>
</mgrwt>
</event>
<event>
 4    1  0.6122885E-004  0.4748479E+03  0.7818608E-02  0.1020561E+00
          2   -1    0    0  501    0  0.00000000000E+00  0.00000000000E+00  0.13560979142E+03  0.13560979144E+03  0.25500000000E-02 0.  1.
         -2   -1    0    0    0  501 -0.00000000000E+00 -0.00000000000E+00 -0.41567898993E+03  0.41567898993E+03  0.25500000000E-02 0. -1.
    5000001    1    1    2    0    0 -0.16793699750E+03 -0.13212361501E+03 -0.22031578508E+03  0.31642934429E+03  0.77000000000E+02 0.  0.
   -5000001    1    1    2    0    0  0.16793699750E+03  0.13212361501E+03 -0.59753413428E+02  0.23485943709E+03  0.77000000000E+02 0.  0.
<mgrwt>
<rscale>  0 0.47484794E+03</rscale>
<asrwt>0</asrwt>
<pdfrwt beam="1">  1        2 0.20863045E-01 0.47484794E+03</pdfrwt>
<pdfrwt beam="2">  1       -2 0.63950613E-01 0.47484794E+03</pdfrwt>
<totfact> 0.61538326E+02</totfact>
</mgrwt>
</event>
<event>
 4    1  0.6122885E-004  0.2770196E+03  0.7818608E-02  0.1097328E+00
         -2   -1    0    0    0  501 -0.00000000000E+00  0.00000000000E+00  0.65464154964E+02  0.65464155013E+02  0.25500000000E-02 0. -1.
          2   -1    0    0  501    0  0.00000000000E+00 -0.00000000000E+00 -0.29306067818E+03  0.29306067819E+03  0.25500000000E-02 0.  1.
    5000001    1    1    2    0    0  0.18109735090E+02 -0.11114297731E+03 -0.82757283479E+02  0.15955717433E+03  0.77000000000E+02 0.  0.
   -5000001    1    1    2    0    0 -0.18109735090E+02  0.11114297731E+03 -0.14483923974E+03  0.19896765887E+03  0.77000000000E+02 0.  0.
<mgrwt>
<rscale>  0 0.27701964E+03</rscale>
<asrwt>0</asrwt>
<pdfrwt beam="1">  1        2 0.45086257E-01 0.27701964E+03</pdfrwt>
<pdfrwt beam="2">  1       -2 0.10071409E-01 0.27701964E+03</pdfrwt>
<totfact> 0.73062696E+03</totfact>
</mgrwt>
</event>
<event>
 4    1  0.6122885E-004  0.1995060E+03  0.7818608E-02  0.1150156E+00
          2   -1    0    0  501    0  0.00000000000E+00  0.00000000000E+00  0.95914541948E+03  0.95914541948E+03  0.25500000000E-02 0.  1.
         -2   -1    0    0    0  501 -0.00000000000E+00 -0.00000000000E+00 -0.10374507847E+02  0.10374508161E+02  0.25500000000E-02 0. -1.
    5000001    1    1    2    0    0  0.61962811046E+02 -0.10106854381E+02  0.43088634476E+03  0.44219179160E+03  0.77000000000E+02 0.  0.
   -5000001    1    1    2    0    0 -0.61962811046E+02  0.10106854381E+02  0.51788456687E+03  0.52732813604E+03  0.77000000000E+02 0.  0.
<mgrwt>
<rscale>  0 0.19950601E+03</rscale>
<asrwt>0</asrwt>
<pdfrwt beam="1">  1        2 0.14756087E+00 0.19950601E+03</pdfrwt>
<pdfrwt beam="2">  1       -2 0.15960777E-02 0.19950601E+03</pdfrwt>
<totfact> 0.29279526E+04</totfact>
</mgrwt>
</event>
<event>
 4    1  0.6122885E-004  0.3166711E+03  0.7818608E-02  0.1077192E+00
          2   -1    0    0  501    0  0.00000000000E+00  0.00000000000E+00  0.58979341360E+02  0.58979341415E+02  0.25500000000E-02 0.  1.
         -2   -1    0    0    0  501 -0.00000000000E+00 -0.00000000000E+00 -0.42506648091E+03  0.42506648091E+03  0.25500000000E-02 0. -1.
    5000001    1    1    2    0    0 -0.12951480437E+03  0.23259057801E+02 -0.24836220953E+03  0.29142384158E+03  0.77000000000E+02 0.  0.
   -5000001    1    1    2    0    0  0.12951480437E+03 -0.23259057801E+02 -0.11772493002E+03  0.19262198075E+03  0.77000000000E+02 0.  0.
<mgrwt>
<rscale>  0 0.31667107E+03</rscale>
<asrwt>0</asrwt>
<pdfrwt beam="1">  1        2 0.90737451E-02 0.31667107E+03</pdfrwt>
<pdfrwt beam="2">  1       -2 0.65394841E-01 0.31667107E+03</pdfrwt>
<totfact> 0.16026104E+03</totfact>
</mgrwt>
</event>
<event>
 4    1  0.6122885E-004  0.5020728E+03  0.7818608E-02  0.1013239E+00
          2   -1    0    0  501    0  0.00000000000E+00  0.00000000000E+00  0.42702407021E+02  0.42702407097E+02  0.25500000000E-02 0.  1.
         -2   -1    0    0    0  501 -0.00000000000E+00 -0.00000000000E+00 -0.14757779481E+04  0.14757779481E+04  0.25500000000E-02 0. -1.
    5000001    1    1    2    0    0 -0.11269285639E+03  0.21045701582E+03 -0.68653109435E+03  0.73092118515E+03  0.77000000000E+02 0.  0.
   -5000001    1    1    2    0    0  0.11269285639E+03 -0.21045701582E+03 -0.74654444677E+03  0.78755917009E+03  0.77000000000E+02 0.  0.
<mgrwt>
<rscale>  0 0.50207279E+03</rscale>
<asrwt>0</asrwt>
<pdfrwt beam="1">  1        2 0.65696022E-02 0.50207279E+03</pdfrwt>
<pdfrwt beam="2">  1       -2 0.22704272E+00 0.50207279E+03</pdfrwt>
<totfact> 0.10622671E+02</totfact>
</mgrwt>
</event>
<event>
 4    1  0.6122885E-004  0.2484887E+03  0.7818608E-02  0.1114264E+00
          2   -1    0    0  501    0  0.00000000000E+00  0.00000000000E+00  0.79106015109E+02  0.79106015150E+02  0.25500000000E-02 0.  1.
         -2   -1    0    0    0  501 -0.00000000000E+00 -0.00000000000E+00 -0.19513894979E+03  0.19513894981E+03  0.25500000000E-02 0. -1.
    5000001    1    1    2    0    0  0.63204932743E+02  0.27070657279E+02  0.18287128265E+02  0.10483846178E+03  0.77000000000E+02 0.  0.
   -5000001    1    1    2    0    0 -0.63204932743E+02 -0.27070657279E+02 -0.13432006295E+03  0.16940650318E+03  0.77000000000E+02 0.  0.
<mgrwt>
<rscale>  0 0.24848875E+03</rscale>
<asrwt>0</asrwt>
<pdfrwt beam="1">  1        2 0.12170156E-01 0.24848875E+03</pdfrwt>
<pdfrwt beam="2">  1       -2 0.30021377E-01 0.24848875E+03</pdfrwt>
<totfact> 0.50675874E+03</totfact>
</mgrwt>
</event>
<event>
 4    1  0.6122885E-004  0.2066880E+03  0.7818608E-02  0.1144216E+00
         -2   -1    0    0    0  501 -0.00000000000E+00  0.00000000000E+00  0.21370728227E+03  0.21370728229E+03  0.25500000000E-02 0. -1.
          2   -1    0    0  501    0  0.00000000000E+00 -0.00000000000E+00 -0.49974794874E+02  0.49974794939E+02  0.25500000000E-02 0.  1.
    5000001    1    1    2    0    0 -0.41651252552E+02  0.47238159953E+02  0.46129151643E+02  0.10965021307E+03  0.77000000000E+02 0.  0.
   -5000001    1    1    2    0    0  0.41651252552E+02 -0.47238159953E+02  0.11760333576E+03  0.15403186416E+03  0.77000000000E+02 0.  0.
<mgrwt>
<rscale>  0 0.20668795E+03</rscale>
<asrwt>0</asrwt>
<pdfrwt beam="1">  1        2 0.76884300E-02 0.20668795E+03</pdfrwt>
<pdfrwt beam="2">  1       -2 0.32878043E-01 0.20668795E+03</pdfrwt>
<totfact> 0.75247840E+03</totfact>
</mgrwt>
</event>
<event>
 4    1  0.6122885E-004  0.2103937E+03  0.7818608E-02  0.1141255E+00
         -2   -1    0    0    0  501 -0.00000000000E+00  0.00000000000E+00  0.51288843777E+03  0.51288843778E+03  0.25500000000E-02 0. -1.
          2   -1    0    0  501    0  0.00000000000E+00 -0.00000000000E+00 -0.21576576189E+02  0.21576576340E+02  0.25500000000E-02 0.  1.
    5000001    1    1    2    0    0 -0.29291959234E+02  0.53981375625E+02  0.33952262812E+03  0.35352032869E+03  0.77000000000E+02 0.  0.
   -5000001    1    1    2    0    0  0.29291959234E+02 -0.53981375625E+02  0.15178923346E+03  0.18094468543E+03  0.77000000000E+02 0.  0.
<mgrwt>
<rscale>  0 0.21039369E+03</rscale>
<asrwt>0</asrwt>
<pdfrwt beam="1">  1        2 0.33194733E-02 0.21039369E+03</pdfrwt>
<pdfrwt beam="2">  1       -2 0.78905912E-01 0.21039369E+03</pdfrwt>
<totfact> 0.39334159E+03</totfact>
</mgrwt>
</event>
<event>
 4    1  0.6122885E-004  0.3014320E+03  0.7818608E-02  0.1084527E+00
         -2   -1    0    0    0  501 -0.00000000000E+00  0.00000000000E+00  0.18192474397E+02  0.18192474575E+02  0.25500000000E-02 0. -1.
          2   -1    0    0  501    0  0.00000000000E+00 -0.00000000000E+00 -0.12486103803E+04  0.12486103803E+04  0.25500000000E-02 0.  1.
    5000001    1    1    2    0    0  0.62420890492E+02 -0.11051861040E+03 -0.72444314742E+03  0.73949821139E+03  0.77000000000E+02 0.  0.
   -5000001    1    1    2    0    0 -0.62420890492E+02  0.11051861040E+03 -0.50597475846E+03  0.52730464346E+03  0.77000000000E+02 0.  0.
<mgrwt>
<rscale>  0 0.30143200E+03</rscale>
<asrwt>0</asrwt>
<pdfrwt beam="1">  1        2 0.19209384E+00 0.30143200E+03</pdfrwt>
<pdfrwt beam="2">  1       -2 0.27988432E-02 0.30143200E+03</pdfrwt>
<totfact> 0.88226015E+03</totfact>
</mgrwt>
</event>
<event>
 4    1  0.6122885E-004  0.2144502E+03  0.7818608E-02  0.1138090E+00
         -2   -1    0    0    0  501 -0.00000000000E+00  0.00000000000E+00  0.25502250455E+02  0.25502250583E+02  0.25500000000E-02 0. -1.
          2   -1    0    0  501    0  0.00000000000E+00 -0.00000000000E+00 -0.45083178487E+03  0.45083178488E+03  0.25500000000E-02 0.  1.
    5000001    1    1    2    0    0  0.40454458062E+02 -0.62561790476E+02 -0.20332407065E+03  0.22982649653E+03  0.77000000000E+02 0.  0.
   -5000001    1    1    2    0    0 -0.40454458062E+02  0.62561790476E+02 -0.22200546377E+03  0.24650753893E+03  0.77000000000E+02 0.  0.
<mgrwt>
<rscale>  0 0.21445023E+03</rscale>
<asrwt>0</asrwt>
<pdfrwt beam="1">  1        2 0.69358730E-01 0.21445023E+03</pdfrwt>
<pdfrwt beam="2">  1       -2 0.39234235E-02 0.21445023E+03</pdfrwt>
<totfact> 0.19306399E+04</totfact>
</mgrwt>
</event>
<event>
 4    1  0.6122885E-004  0.1733327E+03  0.7818608E-02  0.1174416E+00
         -2   -1    0    0    0  501 -0.00000000000E+00  0.00000000000E+00  0.69543563028E+02  0.69543563074E+02  0.25500000000E-02 0. -1.
          2   -1    0    0  501    0  0.00000000000E+00 -0.00000000000E+00 -0.10800505061E+03  0.10800505064E+03  0.25500000000E-02 0.  1.
    5000001    1    1    2    0    0 -0.26529673233E+02 -0.19586428432E+02 -0.42011374154E+02  0.93709163366E+02  0.77000000000E+02 0.  0.
   -5000001    1    1    2    0    0  0.26529673233E+02  0.19586428432E+02  0.35498865682E+01  0.83839450351E+02  0.77000000000E+02 0.  0.
<mgrwt>
<rscale>  0 0.17333270E+03</rscale>
<asrwt>0</asrwt>
<pdfrwt beam="1">  1        2 0.16616162E-01 0.17333270E+03</pdfrwt>
<pdfrwt beam="2">  1       -2 0.10699010E-01 0.17333270E+03</pdfrwt>
<totfact> 0.19498798E+04</totfact>
</mgrwt>
</event>
<event>
 4    1  0.6122885E-004  0.5346755E+03  0.7818608E-02  0.1005105E+00
         -2   -1    0    0    0  501 -0.00000000000E+00  0.00000000000E+00  0.20914749304E+03  0.20914749306E+03  0.25500000000E-02 0. -1.
          2   -1    0    0  501    0  0.00000000000E+00 -0.00000000000E+00 -0.34171804987E+03  0.34171804988E+03  0.25500000000E-02 0.  1.
    5000001    1    1    2    0    0  0.17886077104E+03  0.15330924051E+03 -0.16954779793E+03  0.30028378981E+03  0.77000000000E+02 0.  0.
   -5000001    1    1    2    0    0 -0.17886077104E+03 -0.15330924051E+03  0.36977241101E+02  0.25058175313E+03  0.77000000000E+02 0.  0.
<mgrwt>
<rscale>  0 0.53467550E+03</rscale>
<asrwt>0</asrwt>
<pdfrwt beam="1">  1        2 0.52572008E-01 0.53467550E+03</pdfrwt>
<pdfrwt beam="2">  1       -2 0.32176537E-01 0.53467550E+03</pdfrwt>
<totfact> 0.85636957E+02</totfact>
</mgrwt>
</event>
<event>
 4    1  0.6122885E-004  0.2084010E+03  0.7818608E-02  0.1142838E+00
          2   -1    0    0  501    0  0.00000000000E+00  0.00000000000E+00  0.16913006894E+04  0.16913006894E+04  0.25500000000E-02 0.  1.
         -2   -1    0    0    0  501 -0.00000000000E+00 -0.00000000000E+00 -0.64197619718E+01  0.64197624782E+01  0.25500000000E-02 0. -1.
    5000001    1    1    2    0    0  0.55563451555E+02  0.19246113181E+02  0.52999207862E+03  0.53877482627E+03  0.77000000000E+02 0.  0.
   -5000001    1    1    2    0    0 -0.55563451555E+02 -0.19246113181E+02  0.11548888488E+04  0.11589456256E+04  0.77000000000E+02 0.  0.
<mgrwt>
<rscale>  0 0.20840104E+03</rscale>
<asrwt>0</asrwt>
<pdfrwt beam="1">  1        2 0.26020090E+00 0.20840104E+03</pdfrwt>
<pdfrwt beam="2">  1       -2 0.98765271E-03 0.20840104E+03</pdfrwt>
<totfact> 0.23153874E+04</totfact>
</mgrwt>
</event>
<event>
 4    1  0.6122885E-004  0.2584865E+03  0.7818608E-02  0.1108056E+00
         -2   -1    0    0    0  501 -0.00000000000E+00  0.00000000000E+00  0.30895276436E+02  0.30895276542E+02  0.25500000000E-02 0. -1.
          2   -1    0    0  501    0  0.00000000000E+00 -0.00000000000E+00 -0.54065920289E+03  0.54065920290E+03  0.25500000000E-02 0.  1.
    5000001    1    1    2    0    0  0.95683989967E+02 -0.24857046289E+02 -0.32485793368E+03  0.34818813272E+03  0.77000000000E+02 0.  0.
   -5000001    1    1    2    0    0 -0.95683989967E+02  0.24857046289E+02 -0.18490599277E+03  0.22336634672E+03  0.77000000000E+02 0.  0.
<mgrwt>
<rscale>  0 0.25848648E+03</rscale>
<asrwt>0</asrwt>
<pdfrwt beam="1">  1        2 0.83178332E-01 0.25848648E+03</pdfrwt>
<pdfrwt beam="2">  1       -2 0.47531198E-02 0.25848648E+03</pdfrwt>
<totfact> 0.11937014E+04</totfact>
</mgrwt>
</event>
<event>
 4    1  0.6122885E-004  0.2026090E+03  0.7818608E-02  0.1147556E+00
          2   -1    0    0  501    0  0.00000000000E+00  0.00000000000E+00  0.19204946359E+04  0.19204946359E+04  0.25500000000E-02 0.  1.
         -2   -1    0    0    0  501 -0.00000000000E+00 -0.00000000000E+00 -0.53437285891E+01  0.53437291975E+01  0.25500000000E-02 0. -1.
    5000001    1    1    2    0    0 -0.91927755589E+01 -0.44025585524E+02  0.50064896416E+03  0.50852841083E+03  0.77000000000E+02 0.  0.
   -5000001    1    1    2    0    0  0.91927755589E+01  0.44025585524E+02  0.14145019431E+04  0.14173099543E+04  0.77000000000E+02 0.  0.
<mgrwt>
<rscale>  0 0.20260901E+03</rscale>
<asrwt>0</asrwt>
<pdfrwt beam="1">  1        2 0.29546067E+00 0.20260901E+03</pdfrwt>
<pdfrwt beam="2">  1       -2 0.82211226E-03 0.20260901E+03</pdfrwt>
<totfact> 0.22896284E+04</totfact>
</mgrwt>
</event>
<event>
 4    1  0.6122885E-004  0.4176251E+03  0.7818608E-02  0.1037842E+00
         -2   -1    0    0    0  501 -0.00000000000E+00  0.00000000000E+00  0.27101204480E+02  0.27101204599E+02  0.25500000000E-02 0. -1.
          2   -1    0    0  501    0  0.00000000000E+00 -0.00000000000E+00 -0.16088832405E+04  0.16088832405E+04  0.25500000000E-02 0.  1.
    5000001    1    1    2    0    0  0.76155039514E+02 -0.82834588553E+02 -0.17134824990E+03  0.21897575630E+03  0.77000000000E+02 0.  0.
   -5000001    1    1    2    0    0 -0.76155039514E+02  0.82834588553E+02 -0.14104337861E+04  0.14170086888E+04  0.77000000000E+02 0.  0.
<mgrwt>
<rscale>  0 0.41762507E+03</rscale>
<asrwt>0</asrwt>
<pdfrwt beam="1">  1        2 0.24752042E+00 0.41762507E+03</pdfrwt>
<pdfrwt beam="2">  1       -2 0.41694173E-02 0.41762507E+03</pdfrwt>
<totfact> 0.30770003E+03</totfact>
</mgrwt>
</event>
<event>
 4    1  0.6122885E-004  0.1921040E+03  0.7818608E-02  0.1156577E+00
         -2   -1    0    0    0  501 -0.00000000000E+00  0.00000000000E+00  0.12879811535E+02  0.12879811787E+02  0.25500000000E-02 0. -1.
          2   -1    0    0  501    0  0.00000000000E+00 -0.00000000000E+00 -0.71631358277E+03  0.71631358278E+03  0.25500000000E-02 0.  1.
    5000001    1    1    2    0    0  0.49078908707E+02  0.27261635618E+02 -0.30600151675E+03  0.32049627816E+03  0.77000000000E+02 0.  0.
   -5000001    1    1    2    0    0 -0.49078908707E+02 -0.27261635618E+02 -0.39743225448E+03  0.40869711641E+03  0.77000000000E+02 0.  0.
<mgrwt>
<rscale>  0 0.19210397E+03</rscale>
<asrwt>0</asrwt>
<pdfrwt beam="1">  1        2 0.11020206E+00 0.19210397E+03</pdfrwt>
<pdfrwt beam="2">  1       -2 0.19815101E-02 0.19210397E+03</pdfrwt>
<totfact> 0.30966439E+04</totfact>
</mgrwt>
</event>
<event>
 4    1  0.6122885E-004  0.2205309E+03  0.7818608E-02  0.1133488E+00
         -2   -1    0    0    0  501 -0.00000000000E+00  0.00000000000E+00  0.25067405816E+02  0.25067405945E+02  0.25500000000E-02 0. -1.
          2   -1    0    0  501    0  0.00000000000E+00 -0.00000000000E+00 -0.48503114220E+03  0.48503114221E+03  0.25500000000E-02 0.  1.
    5000001    1    1    2    0    0 -0.73724279036E+02 -0.18459607881E+02 -0.18072719942E+03  0.21063557879E+03  0.77000000000E+02 0.  0.
   -5000001    1    1    2    0    0  0.73724279036E+02  0.18459607881E+02 -0.27923653697E+03  0.29946296937E+03  0.77000000000E+02 0.  0.
<mgrwt>
<rscale>  0 0.22053093E+03</rscale>
<asrwt>0</asrwt>
<pdfrwt beam="1">  1        2 0.74620169E-01 0.22053093E+03</pdfrwt>
<pdfrwt beam="2">  1       -2 0.38565243E-02 0.22053093E+03</pdfrwt>
<totfact> 0.18310350E+04</totfact>
</mgrwt>
</event>
<event>
 4    1  0.6122885E-004  0.2838584E+03  0.7818608E-02  0.1093600E+00
          2   -1    0    0  501    0  0.00000000000E+00  0.00000000000E+00  0.20017007336E+04  0.20017007336E+04  0.25500000000E-02 0.  1.
         -2   -1    0    0    0  501 -0.00000000000E+00 -0.00000000000E+00 -0.10063390436E+02  0.10063390759E+02  0.25500000000E-02 0. -1.
    5000001    1    1    2    0    0 -0.60496925669E+02 -0.60739310411E+02  0.40857349327E+03  0.42451200365E+03  0.77000000000E+02 0.  0.
   -5000001    1    1    2    0    0  0.60496925669E+02  0.60739310411E+02  0.15830638499E+04  0.15872521207E+04  0.77000000000E+02 0.  0.
<mgrwt>
<rscale>  0 0.28385839E+03</rscale>
<asrwt>0</asrwt>
<pdfrwt beam="1">  1        2 0.30795395E+00 0.28385839E+03</pdfrwt>
<pdfrwt beam="2">  1       -2 0.15482140E-02 0.28385839E+03</pdfrwt>
<totfact> 0.83537228E+03</totfact>
</mgrwt>
</event>
<event>
 4    1  0.6122885E-004  0.2013530E+03  0.7818608E-02  0.1148603E+00
         -2   -1    0    0    0  501 -0.00000000000E+00  0.00000000000E+00  0.56943092496E+02  0.56943092553E+02  0.25500000000E-02 0. -1.
          2   -1    0    0  501    0  0.00000000000E+00 -0.00000000000E+00 -0.17799793874E+03  0.17799793876E+03  0.25500000000E-02 0.  1.
    5000001    1    1    2    0    0 -0.44354648970E+02 -0.15431854288E+02 -0.11272548366E+03  0.14436589514E+03  0.77000000000E+02 0.  0.
   -5000001    1    1    2    0    0  0.44354648970E+02  0.15431854288E+02 -0.83293625841E+01  0.90575136175E+02  0.77000000000E+02 0.  0.
<mgrwt>
<rscale>  0 0.20135295E+03</rscale>
<asrwt>0</asrwt>
<pdfrwt beam="1">  1        2 0.27384298E-01 0.20135295E+03</pdfrwt>
<pdfrwt beam="2">  1       -2 0.87604758E-02 0.20135295E+03</pdfrwt>
<totfact> 0.15370283E+04</totfact>
</mgrwt>
</event>
<event>
 4    1  0.6122885E-004  0.3145381E+03  0.7818608E-02  0.1078191E+00
          2   -1    0    0  501    0  0.00000000000E+00  0.00000000000E+00  0.68478229674E+03  0.68478229674E+03  0.25500000000E-02 0.  1.
         -2   -1    0    0    0  501 -0.00000000000E+00 -0.00000000000E+00 -0.36118868393E+02  0.36118868483E+02  0.25500000000E-02 0. -1.
    5000001    1    1    2    0    0  0.96832726752E+02  0.24974250126E+02  0.53938650218E+03  0.55395585462E+03  0.77000000000E+02 0.  0.
   -5000001    1    1    2    0    0 -0.96832726752E+02 -0.24974250126E+02  0.10927692617E+03  0.16694531060E+03  0.77000000000E+02 0.  0.
<mgrwt>
<rscale>  0 0.31453815E+03</rscale>
<asrwt>0</asrwt>
<pdfrwt beam="1">  1        2 0.10535112E+00 0.31453815E+03</pdfrwt>
<pdfrwt beam="2">  1       -2 0.55567494E-02 0.31453815E+03</pdfrwt>
<totfact> 0.71863891E+03</totfact>
</mgrwt>
</event>
<event>
 4    1  0.6122885E-004  0.3717620E+03  0.7818608E-02  0.1054021E+00
         -2   -1    0    0    0  501 -0.00000000000E+00  0.00000000000E+00  0.14487056399E+03  0.14487056401E+03  0.25500000000E-02 0. -1.
          2   -1    0    0  501    0  0.00000000000E+00 -0.00000000000E+00 -0.23850078640E+03  0.23850078642E+03  0.25500000000E-02 0.  1.
    5000001    1    1    2    0    0 -0.14858277023E+03 -0.28341826937E+01 -0.13019721673E+03  0.21204996450E+03  0.77000000000E+02 0.  0.
   -5000001    1    1    2    0    0  0.14858277023E+03  0.28341826937E+01  0.36566994315E+02  0.17132138592E+03  0.77000000000E+02 0.  0.
<mgrwt>
<rscale>  0 0.37176199E+03</rscale>
<asrwt>0</asrwt>
<pdfrwt beam="1">  1        2 0.36692429E-01 0.37176199E+03</pdfrwt>
<pdfrwt beam="2">  1       -2 0.22287779E-01 0.37176199E+03</pdfrwt>
<totfact> 0.24583353E+03</totfact>
</mgrwt>
</event>
<event>
 4    1  0.6122885E-004  0.1765472E+03  0.7818608E-02  0.1171187E+00
         -2   -1    0    0    0  501 -0.00000000000E+00  0.00000000000E+00  0.12153100730E+03  0.12153100733E+03  0.25500000000E-02 0. -1.
          2   -1    0    0  501    0  0.00000000000E+00 -0.00000000000E+00 -0.64117201742E+02  0.64117201793E+02  0.25500000000E-02 0.  1.
    5000001    1    1    2    0    0  0.35723788054E+02 -0.41386127362E+01  0.36034506267E+01  0.85060578441E+02  0.77000000000E+02 0.  0.
   -5000001    1    1    2    0    0 -0.35723788054E+02  0.41386127362E+01  0.53810354936E+02  0.10058763068E+03  0.77000000000E+02 0.  0.
<mgrwt>
<rscale>  0 0.17654720E+03</rscale>
<asrwt>0</asrwt>
<pdfrwt beam="1">  1        2 0.98641850E-02 0.17654720E+03</pdfrwt>
<pdfrwt beam="2">  1       -2 0.18697078E-01 0.17654720E+03</pdfrwt>
<totfact> 0.14672056E+04</totfact>
</mgrwt>
</event>
<event>
 4    1  0.6122885E-004  0.1837885E+03  0.7818608E-02  0.1164186E+00
          2   -1    0    0  501    0  0.00000000000E+00  0.00000000000E+00  0.17673834435E+04  0.17673834435E+04  0.25500000000E-02 0.  1.
         -2   -1    0    0    0  501 -0.00000000000E+00 -0.00000000000E+00 -0.47779955692E+01  0.47779962496E+01  0.25500000000E-02 0. -1.
    5000001    1    1    2    0    0  0.11429754428E+02 -0.39379653169E+02  0.60281358880E+03  0.60909327629E+03  0.77000000000E+02 0.  0.
   -5000001    1    1    2    0    0 -0.11429754428E+02  0.39379653169E+02  0.11597918591E+04  0.11630681634E+04  0.77000000000E+02 0.  0.
<mgrwt>
<rscale>  0 0.18378847E+03</rscale>
<asrwt>0</asrwt>
<pdfrwt beam="1">  1        2 0.27190505E+00 0.18378847E+03</pdfrwt>
<pdfrwt beam="2">  1       -2 0.73507656E-03 0.18378847E+03</pdfrwt>
<totfact> 0.32122549E+04</totfact>
</mgrwt>
</event>
<event>
 4    1  0.6122885E-004  0.2762922E+03  0.7818608E-02  0.1097731E+00
         -2   -1    0    0    0  501 -0.00000000000E+00  0.00000000000E+00  0.22586195852E+02  0.22586195996E+02  0.25500000000E-02 0. -1.
          2   -1    0    0  501    0  0.00000000000E+00 -0.00000000000E+00 -0.84495591736E+03  0.84495591737E+03  0.25500000000E-02 0.  1.
    5000001    1    1    2    0    0 -0.45817267993E+02  0.10149441559E+03 -0.49746203132E+03  0.51555582729E+03  0.77000000000E+02 0.  0.
   -5000001    1    1    2    0    0  0.45817267993E+02 -0.10149441559E+03 -0.32490769019E+03  0.35198628608E+03  0.77000000000E+02 0.  0.
<mgrwt>
<rscale>  0 0.27629216E+03</rscale>
<asrwt>0</asrwt>
<pdfrwt beam="1">  1        2 0.12999319E+00 0.27629216E+03</pdfrwt>
<pdfrwt beam="2">  1       -2 0.34748000E-02 0.27629216E+03</pdfrwt>
<totfact> 0.11195387E+04</totfact>
</mgrwt>
</event>
<event>
 4    1  0.6122885E-004  0.2423836E+03  0.7818608E-02  0.1118215E+00
         -2   -1    0    0    0  501 -0.00000000000E+00  0.00000000000E+00  0.64535062192E+01  0.64535067230E+01  0.25500000000E-02 0. -1.
          2   -1    0    0  501    0  0.00000000000E+00 -0.00000000000E+00 -0.22758864698E+04  0.22758864698E+04  0.25500000000E-02 0.  1.
    5000001    1    1    2    0    0 -0.55127535397E+01  0.85499848961E+02 -0.78015645044E+03  0.78861505298E+03  0.77000000000E+02 0.  0.
   -5000001    1    1    2    0    0  0.55127535397E+01 -0.85499848961E+02 -0.14892765131E+04  0.14937249235E+04  0.77000000000E+02 0.  0.
<mgrwt>
<rscale>  0 0.24238356E+03</rscale>
<asrwt>0</asrwt>
<pdfrwt beam="1">  1        2 0.35013574E+00 0.24238356E+03</pdfrwt>
<pdfrwt beam="2">  1       -2 0.99284896E-03 0.24238356E+03</pdfrwt>
<totfact> 0.11404760E+04</totfact>
</mgrwt>
</event>
<event>
 4    1  0.6122885E-004  0.3043773E+03  0.7818608E-02  0.1083073E+00
         -2   -1    0    0    0  501 -0.00000000000E+00  0.00000000000E+00  0.59083528387E+03  0.59083528387E+03  0.25500000000E-02 0. -1.
          2   -1    0    0  501    0  0.00000000000E+00 -0.00000000000E+00 -0.39201080127E+02  0.39201080210E+02  0.25500000000E-02 0.  1.
    5000001    1    1    2    0    0  0.82597401979E+02  0.75922285132E+02  0.13473032311E+03  0.19148833948E+03  0.77000000000E+02 0.  0.
   -5000001    1    1    2    0    0 -0.82597401979E+02 -0.75922285132E+02  0.41690388063E+03  0.43854802460E+03  0.77000000000E+02 0.  0.
<mgrwt>
<rscale>  0 0.30437727E+03</rscale>
<asrwt>0</asrwt>
<pdfrwt beam="1">  1        2 0.60309358E-02 0.30437727E+03</pdfrwt>
<pdfrwt beam="2">  1       -2 0.90897730E-01 0.30437727E+03</pdfrwt>
<totfact> 0.13145689E+03</totfact>
</mgrwt>
</event>
<event>
 4    1  0.6122885E-004  0.4524724E+03  0.7818608E-02  0.1026987E+00
          2   -1    0    0  501    0  0.00000000000E+00  0.00000000000E+00  0.70025477223E+03  0.70025477224E+03  0.25500000000E-02 0.  1.
         -2   -1    0    0    0  501 -0.00000000000E+00 -0.00000000000E+00 -0.73091718590E+02  0.73091718634E+02  0.25500000000E-02 0. -1.
    5000001    1    1    2    0    0  0.18873879806E+03 -0.11776219623E+00  0.14584469175E+03  0.25064321629E+03  0.77000000000E+02 0.  0.
   -5000001    1    1    2    0    0 -0.18873879806E+03  0.11776219623E+00  0.48131836189E+03  0.52270327457E+03  0.77000000000E+02 0.  0.
<mgrwt>
<rscale>  0 0.45247243E+03</rscale>
<asrwt>0</asrwt>
<pdfrwt beam="1">  1        2 0.10773151E+00 0.45247243E+03</pdfrwt>
<pdfrwt beam="2">  1       -2 0.11244879E-01 0.45247243E+03</pdfrwt>
<totfact> 0.23142216E+03</totfact>
</mgrwt>
</event>
<event>
 4    1  0.6122885E-004  0.3973472E+03  0.7818608E-02  0.1044702E+00
          2   -1    0    0  501    0  0.00000000000E+00  0.00000000000E+00  0.91164198839E+03  0.91164198839E+03  0.25500000000E-02 0.  1.
         -2   -1    0    0    0  501 -0.00000000000E+00 -0.00000000000E+00 -0.43296829625E+02  0.43296829700E+02  0.25500000000E-02 0. -1.
    5000001    1    1    2    0    0  0.78639921846E+01 -0.17893105473E+03  0.52612904802E+03  0.56108728367E+03  0.77000000000E+02 0.  0.
   -5000001    1    1    2    0    0 -0.78639921846E+01  0.17893105473E+03  0.34221611074E+03  0.39385153442E+03  0.77000000000E+02 0.  0.
<mgrwt>
<rscale>  0 0.39734724E+03</rscale>
<asrwt>0</asrwt>
<pdfrwt beam="1">  1        2 0.14025262E+00 0.39734724E+03</pdfrwt>
<pdfrwt beam="2">  1       -2 0.66610505E-02 0.39734724E+03</pdfrwt>
<totfact> 0.37761079E+03</totfact>
</mgrwt>
</event>
<event>
 4    1  0.6122885E-004  0.4271758E+03  0.7818608E-02  0.1034756E+00
          2   -1    0    0  501    0  0.00000000000E+00  0.00000000000E+00  0.38339919132E+03  0.38339919132E+03  0.25500000000E-02 0.  1.
         -2   -1    0    0    0  501 -0.00000000000E+00 -0.00000000000E+00 -0.11898768202E+03  0.11898768204E+03  0.25500000000E-02 0. -1.
    5000001    1    1    2    0    0 -0.18642436922E+03  0.19861724616E+02  0.21146813086E+03  0.29291006113E+03  0.77000000000E+02 0.  0.
   -5000001    1    1    2    0    0  0.18642436922E+03 -0.19861724616E+02  0.52943378444E+02  0.20947681224E+03  0.77000000000E+02 0.  0.
<mgrwt>
<rscale>  0 0.42717575E+03</rscale>
<asrwt>0</asrwt>
<pdfrwt beam="1">  1        2 0.58984491E-01 0.42717575E+03</pdfrwt>
<pdfrwt beam="2">  1       -2 0.18305797E-01 0.42717575E+03</pdfrwt>
<totfact> 0.20601431E+03</totfact>
</mgrwt>
</event>
<event>
 4    1  0.6122885E-004  0.4272394E+03  0.7818608E-02  0.1034736E+00
          2   -1    0    0  501    0  0.00000000000E+00  0.00000000000E+00  0.15052807866E+04  0.15052807866E+04  0.25500000000E-02 0.  1.
         -2   -1    0    0    0  501 -0.00000000000E+00 -0.00000000000E+00 -0.30315518931E+02  0.30315519038E+02  0.25500000000E-02 0. -1.
    5000001    1    1    2    0    0  0.11875072081E+03 -0.80911628719E+02  0.12336418029E+04  0.12443671175E+04  0.77000000000E+02 0.  0.
   -5000001    1    1    2    0    0 -0.11875072081E+03  0.80911628719E+02  0.24132346478E+03  0.29122918811E+03  0.77000000000E+02 0.  0.
<mgrwt>
<rscale>  0 0.42723936E+03</rscale>
<asrwt>0</asrwt>
<pdfrwt beam="1">  1        2 0.23158160E+00 0.42723936E+03</pdfrwt>
<pdfrwt beam="2">  1       -2 0.46639273E-02 0.42723936E+03</pdfrwt>
<totfact> 0.29492834E+03</totfact>
</mgrwt>
</event>
<event>
 4    1  0.6122885E-004  0.1844419E+03  0.7818608E-02  0.1163572E+00
         -2   -1    0    0    0  501 -0.00000000000E+00  0.00000000000E+00  0.28281063737E+01  0.28281075233E+01  0.25500000000E-02 0. -1.
          2   -1    0    0  501    0  0.00000000000E+00 -0.00000000000E+00 -0.30072057064E+04  0.30072057064E+04  0.25500000000E-02 0.  1.
    5000001    1    1    2    0    0  0.47876270260E+02  0.19051978586E+01 -0.12291411640E+04  0.12324823602E+04  0.77000000000E+02 0.  0.
   -5000001    1    1    2    0    0 -0.47876270260E+02 -0.19051978586E+01 -0.17752364360E+04  0.17775514538E+04  0.77000000000E+02 0.  0.
<mgrwt>
<rscale>  0 0.18444185E+03</rscale>
<asrwt>0</asrwt>
<pdfrwt beam="1">  1        2 0.46264448E+00 0.18444185E+03</pdfrwt>
<pdfrwt beam="2">  1       -2 0.43509578E-03 0.18444185E+03</pdfrwt>
<totfact> 0.14573576E+04</totfact>
</mgrwt>
</event>
<event>
 4    1  0.6122885E-004  0.2386469E+03  0.7818608E-02  0.1120698E+00
         -2   -1    0    0    0  501 -0.00000000000E+00  0.00000000000E+00  0.23089406327E+02  0.23089406468E+02  0.25500000000E-02 0. -1.
          2   -1    0    0  501    0  0.00000000000E+00 -0.00000000000E+00 -0.61665011852E+03  0.61665011853E+03  0.25500000000E-02 0.  1.
    5000001    1    1    2    0    0 -0.83692234234E+01  0.88395901772E+02 -0.24150303259E+03  0.26858256477E+03  0.77000000000E+02 0.  0.
   -5000001    1    1    2    0    0  0.83692234234E+01 -0.88395901772E+02 -0.35205767960E+03  0.37115696022E+03  0.77000000000E+02 0.  0.
<mgrwt>
<rscale>  0 0.23864690E+03</rscale>
<asrwt>0</asrwt>
<pdfrwt beam="1">  1        2 0.94869237E-01 0.23864690E+03</pdfrwt>
<pdfrwt beam="2">  1       -2 0.35522168E-02 0.23864690E+03</pdfrwt>
<totfact> 0.15843056E+04</totfact>
</mgrwt>
</event>
<event>
 4    1  0.6122885E-004  0.2600752E+03  0.7818608E-02  0.1107098E+00
          2   -1    0    0  501    0  0.00000000000E+00  0.00000000000E+00  0.16253791913E+04  0.16253791913E+04  0.25500000000E-02 0.  1.
         -2   -1    0    0    0  501 -0.00000000000E+00 -0.00000000000E+00 -0.10403587923E+02  0.10403588235E+02  0.25500000000E-02 0. -1.
    5000001    1    1    2    0    0 -0.89470179906E+02 -0.36292416912E+02  0.55132642837E+03  0.56498839212E+03  0.77000000000E+02 0.  0.
   -5000001    1    1    2    0    0  0.89470179906E+02  0.36292416912E+02  0.10636491750E+04  0.10707943874E+04  0.77000000000E+02 0.  0.
<mgrwt>
<rscale>  0 0.26007519E+03</rscale>
<asrwt>0</asrwt>
<pdfrwt beam="1">  1        2 0.25005822E+00 0.26007519E+03</pdfrwt>
<pdfrwt beam="2">  1       -2 0.16005528E-02 0.26007519E+03</pdfrwt>
<totfact> 0.12530414E+04</totfact>
</mgrwt>
</event>
<event>
 4    1  0.6122885E-004  0.1813056E+03  0.7818608E-02  0.1166545E+00
          2   -1    0    0  501    0  0.00000000000E+00  0.00000000000E+00  0.19049027144E+03  0.19049027146E+03  0.25500000000E-02 0.  1.
         -2   -1    0    0    0  501 -0.00000000000E+00 -0.00000000000E+00 -0.43140922414E+02  0.43140922489E+02  0.25500000000E-02 0. -1.
    5000001    1    1    2    0    0  0.17919623339E+02  0.59831084341E+01  0.13031490695E+03  0.15253814428E+03  0.77000000000E+02 0.  0.
   -5000001    1    1    2    0    0 -0.17919623339E+02 -0.59831084341E+01  0.17034442076E+02  0.81093049665E+02  0.77000000000E+02 0.  0.
<mgrwt>
<rscale>  0 0.18130555E+03</rscale>
<asrwt>0</asrwt>
<pdfrwt beam="1">  1        2 0.29306195E-01 0.18130555E+03</pdfrwt>
<pdfrwt beam="2">  1       -2 0.66370650E-02 0.18130555E+03</pdfrwt>
<totfact> 0.21756845E+04</totfact>
</mgrwt>
</event>
<event>
 4    1  0.6122885E-004  0.2146895E+03  0.7818608E-02  0.1137905E+00
          2   -1    0    0  501    0  0.00000000000E+00  0.00000000000E+00  0.20735584505E+04  0.20735584505E+04  0.25500000000E-02 0.  1.
         -2   -1    0    0    0  501 -0.00000000000E+00 -0.00000000000E+00 -0.55570610879E+01  0.55570616730E+01  0.25500000000E-02 0. -1.
    5000001    1    1    2    0    0 -0.44942039086E+02 -0.51570908978E+02  0.13268678551E+04  0.13308593653E+04  0.77000000000E+02 0.  0.
   -5000001    1    1    2    0    0  0.44942039086E+02  0.51570908978E+02  0.74113353438E+03  0.74825614686E+03  0.77000000000E+02 0.  0.
<mgrwt>
<rscale>  0 0.21468946E+03</rscale>
<asrwt>0</asrwt>
<pdfrwt beam="1">  1        2 0.31900979E+00 0.21468946E+03</pdfrwt>
<pdfrwt beam="2">  1       -2 0.85493038E-03 0.21468946E+03</pdfrwt>
<totfact> 0.18050021E+04</totfact>
</mgrwt>
</event>
<event>
 4    1  0.6122885E-004  0.2503150E+03  0.7818608E-02  0.1113106E+00
         -2   -1    0    0    0  501 -0.00000000000E+00  0.00000000000E+00  0.43582109762E+03  0.43582109763E+03  0.25500000000E-02 0. -1.
          2   -1    0    0  501    0  0.00000000000E+00 -0.00000000000E+00 -0.35942265495E+02  0.35942265585E+02  0.25500000000E-02 0.  1.
    5000001    1    1    2    0    0 -0.83922846392E+02  0.25853728809E+01  0.29760996647E+03  0.31866976706E+03  0.77000000000E+02 0.  0.
   -5000001    1    1    2    0    0  0.83922846392E+02 -0.25853728809E+01  0.10226886566E+03  0.15309359615E+03  0.77000000000E+02 0.  0.
<mgrwt>
<rscale>  0 0.25031498E+03</rscale>
<asrwt>0</asrwt>
<pdfrwt beam="1">  1        2 0.55295793E-02 0.25031498E+03</pdfrwt>
<pdfrwt beam="2">  1       -2 0.67049400E-01 0.25031498E+03</pdfrwt>
<totfact> 0.28562893E+03</totfact>
</mgrwt>
</event>
<event>
 4    1  0.6122885E-004  0.2625099E+03  0.7818608E-02  0.1105645E+00
         -2   -1    0    0    0  501 -0.00000000000E+00  0.00000000000E+00  0.12015461837E+03  0.12015461840E+03  0.25500000000E-02 0. -1.
          2   -1    0    0  501    0  0.00000000000E+00 -0.00000000000E+00 -0.14338079394E+03  0.14338079396E+03  0.25500000000E-02 0.  1.
    5000001    1    1    2    0    0  0.61037472948E+02  0.65349755103E+02 -0.69306721010E+02  0.13685242114E+03  0.77000000000E+02 0.  0.
   -5000001    1    1    2    0    0 -0.61037472948E+02 -0.65349755103E+02  0.46080545437E+02  0.12668299122E+03  0.77000000000E+02 0.  0.
<mgrwt>
<rscale>  0 0.26250992E+03</rscale>
<asrwt>0</asrwt>
<pdfrwt beam="1">  1        2 0.22058584E-01 0.26250992E+03</pdfrwt>
<pdfrwt beam="2">  1       -2 0.18485326E-01 0.26250992E+03</pdfrwt>
<totfact> 0.59089565E+03</totfact>
</mgrwt>
</event>
<event>
 4    1  0.6122885E-004  0.2658546E+03  0.7818608E-02  0.1103676E+00
         -2   -1    0    0    0  501 -0.00000000000E+00  0.00000000000E+00  0.73165431428E+01  0.73165435872E+01  0.25500000000E-02 0. -1.
          2   -1    0    0  501    0  0.00000000000E+00 -0.00000000000E+00 -0.24150300275E+04  0.24150300275E+04  0.25500000000E-02 0.  1.
    5000001    1    1    2    0    0  0.68246995364E+02  0.67295588500E+02 -0.74335638193E+03  0.75345474925E+03  0.77000000000E+02 0.  0.
   -5000001    1    1    2    0    0 -0.68246995364E+02 -0.67295588500E+02 -0.16643571025E+04  0.16688918219E+04  0.77000000000E+02 0.  0.
<mgrwt>
<rscale>  0 0.26585464E+03</rscale>
<asrwt>0</asrwt>
<pdfrwt beam="1">  1        2 0.37154245E+00 0.26585464E+03</pdfrwt>
<pdfrwt beam="2">  1       -2 0.11256240E-02 0.26585464E+03</pdfrwt>
<totfact> 0.80080233E+03</totfact>
</mgrwt>
</event>
<event>
 4    1  0.6122885E-004  0.3252241E+03  0.7818608E-02  0.1073270E+00
          2   -1    0    0  501    0  0.00000000000E+00  0.00000000000E+00  0.21206476218E+04  0.21206476218E+04  0.25500000000E-02 0.  1.
         -2   -1    0    0    0  501 -0.00000000000E+00 -0.00000000000E+00 -0.12469149582E+02  0.12469149843E+02  0.25500000000E-02 0. -1.
    5000001    1    1    2    0    0 -0.19233899394E+02 -0.10806344432E+03  0.16575814223E+04  0.16629951360E+04  0.77000000000E+02 0.  0.
   -5000001    1    1    2    0    0  0.19233899394E+02  0.10806344432E+03  0.45059704993E+03  0.47012163563E+03  0.77000000000E+02 0.  0.
<mgrwt>
<rscale>  0 0.32522406E+03</rscale>
<asrwt>0</asrwt>
<pdfrwt beam="1">  1        2 0.32625337E+00 0.32522406E+03</pdfrwt>
<pdfrwt beam="2">  1       -2 0.19183314E-02 0.32522406E+03</pdfrwt>
<totfact> 0.52721001E+03</totfact>
</mgrwt>
</event>
<event>
 4    1  0.6122885E-004  0.3837915E+03  0.7818608E-02  0.1049541E+00
          2   -1    0    0  501    0  0.00000000000E+00  0.00000000000E+00  0.40125373379E+03  0.40125373380E+03  0.25500000000E-02 0.  1.
         -2   -1    0    0    0  501 -0.00000000000E+00 -0.00000000000E+00 -0.91772309698E+02  0.91772309733E+02  0.25500000000E-02 0. -1.
    5000001    1    1    2    0    0 -0.31642896812E+02 -0.16268730405E+03  0.22993814847E+03  0.29371582173E+03  0.77000000000E+02 0.  0.
   -5000001    1    1    2    0    0  0.31642896812E+02  0.16268730405E+03  0.79543275628E+02  0.19931022180E+03  0.77000000000E+02 0.  0.
<mgrwt>
<rscale>  0 0.38379152E+03</rscale>
<asrwt>0</asrwt>
<pdfrwt beam="1">  1        2 0.61731342E-01 0.38379152E+03</pdfrwt>
<pdfrwt beam="2">  1       -2 0.14118817E-01 0.38379152E+03</pdfrwt>
<totfact> 0.30282931E+03</totfact>
</mgrwt>
</event>
<event>
 4    1  0.6122885E-004  0.3086222E+03  0.7818608E-02  0.1081008E+00
          2   -1    0    0  501    0  0.00000000000E+00  0.00000000000E+00  0.22354549086E+04  0.22354549086E+04  0.25500000000E-02 0.  1.
         -2   -1    0    0    0  501 -0.00000000000E+00 -0.00000000000E+00 -0.10651930846E+02  0.10651931152E+02  0.25500000000E-02 0. -1.
    5000001    1    1    2    0    0  0.92624759409E+02  0.96326781270E+02  0.11485839093E+04  0.11588926575E+04  0.77000000000E+02 0.  0.
   -5000001    1    1    2    0    0 -0.92624759409E+02 -0.96326781270E+02  0.10762190685E+04  0.10872141823E+04  0.77000000000E+02 0.  0.
<mgrwt>
<rscale>  0 0.30862217E+03</rscale>
<asrwt>0</asrwt>
<pdfrwt beam="1">  1        2 0.34391641E+00 0.30862217E+03</pdfrwt>
<pdfrwt beam="2">  1       -2 0.16387573E-02 0.30862217E+03</pdfrwt>
<totfact> 0.57760093E+03</totfact>
</mgrwt>
</event>
<event>
 4    1  0.6122885E-004  0.1957711E+03  0.7818608E-02  0.1153357E+00
          2   -1    0    0  501    0  0.00000000000E+00  0.00000000000E+00  0.56202640181E+02  0.56202640239E+02  0.25500000000E-02 0.  1.
         -2   -1    0    0    0  501 -0.00000000000E+00 -0.00000000000E+00 -0.17048274866E+03  0.17048274868E+03  0.25500000000E-02 0. -1.
    5000001    1    1    2    0    0  0.27481949194E+02 -0.53805586781E+02 -0.55390923861E+02  0.11246089608E+03  0.77000000000E+02 0.  0.
   -5000001    1    1    2    0    0 -0.27481949194E+02  0.53805586781E+02 -0.58889184621E+02  0.11422449284E+03  0.77000000000E+02 0.  0.
<mgrwt>
<rscale>  0 0.19577110E+03</rscale>
<asrwt>0</asrwt>
<pdfrwt beam="1">  1        2 0.86465601E-02 0.19577110E+03</pdfrwt>
<pdfrwt beam="2">  1       -2 0.26228115E-01 0.19577110E+03</pdfrwt>
<totfact> 0.97163287E+03</totfact>
</mgrwt>
</event>
<event>
 4    1  0.6122885E-004  0.2282821E+03  0.7818608E-02  0.1127855E+00
         -2   -1    0    0    0  501 -0.00000000000E+00  0.00000000000E+00  0.25503906404E+02  0.25503906531E+02  0.25500000000E-02 0. -1.
          2   -1    0    0  501    0  0.00000000000E+00 -0.00000000000E+00 -0.51083057637E+03  0.51083057638E+03  0.25500000000E-02 0.  1.
    5000001    1    1    2    0    0 -0.30663614199E+02 -0.76325513723E+02 -0.19976862739E+03  0.22935201279E+03  0.77000000000E+02 0.  0.
   -5000001    1    1    2    0    0  0.30663614199E+02  0.76325513723E+02 -0.28555804257E+03  0.30698247012E+03  0.77000000000E+02 0.  0.
<mgrwt>
<rscale>  0 0.22828206E+03</rscale>
<asrwt>0</asrwt>
<pdfrwt beam="1">  1        2 0.78589312E-01 0.22828206E+03</pdfrwt>
<pdfrwt beam="2">  1       -2 0.39236783E-02 0.22828206E+03</pdfrwt>
<totfact> 0.16878950E+04</totfact>
</mgrwt>
</event>
<event>
 4    1  0.6122885E-004  0.4071966E+03  0.7818608E-02  0.1041316E+00
         -2   -1    0    0    0  501 -0.00000000000E+00  0.00000000000E+00  0.18742565571E+02  0.18742565744E+02  0.25500000000E-02 0. -1.
          2   -1    0    0  501    0  0.00000000000E+00 -0.00000000000E+00 -0.22116648227E+04  0.22116648227E+04  0.25500000000E-02 0.  1.
    5000001    1    1    2    0    0 -0.18075632520E+03  0.51113260274E+02 -0.10119839256E+04  0.10321462494E+04  0.77000000000E+02 0.  0.
   -5000001    1    1    2    0    0  0.18075632520E+03 -0.51113260274E+02 -0.11809383315E+04  0.11982611390E+04  0.77000000000E+02 0.  0.
<mgrwt>
<rscale>  0 0.40719663E+03</rscale>
<asrwt>0</asrwt>
<pdfrwt beam="1">  1        2 0.34025592E+00 0.40719663E+03</pdfrwt>
<pdfrwt beam="2">  1       -2 0.28834734E-02 0.40719663E+03</pdfrwt>
<totfact> 0.25586483E+03</totfact>
</mgrwt>
</event>
<event>
 4    1  0.6122885E-004  0.2075717E+03  0.7818608E-02  0.1143503E+00
          2   -1    0    0  501    0  0.00000000000E+00  0.00000000000E+00  0.12819817353E+04  0.12819817353E+04  0.25500000000E-02 0.  1.
         -2   -1    0    0    0  501 -0.00000000000E+00 -0.00000000000E+00 -0.84022283810E+01  0.84022287680E+01  0.25500000000E-02 0. -1.
    5000001    1    1    2    0    0  0.66731896040E+02 -0.19699932556E+02  0.64379624291E+03  0.65210722713E+03  0.77000000000E+02 0.  0.
   -5000001    1    1    2    0    0 -0.66731896040E+02  0.19699932556E+02  0.62978326400E+03  0.63827673693E+03  0.77000000000E+02 0.  0.
<mgrwt>
<rscale>  0 0.20757171E+03</rscale>
<asrwt>0</asrwt>
<pdfrwt beam="1">  1        2 0.19722804E+00 0.20757171E+03</pdfrwt>
<pdfrwt beam="2">  1       -2 0.12926500E-02 0.20757171E+03</pdfrwt>
<totfact> 0.25911170E+04</totfact>
</mgrwt>
</event>
<event>
 4    1  0.6122885E-004  0.2072328E+03  0.7818608E-02  0.1143776E+00
         -2   -1    0    0    0  501 -0.00000000000E+00  0.00000000000E+00  0.25370857545E+02  0.25370857673E+02  0.25500000000E-02 0. -1.
          2   -1    0    0  501    0  0.00000000000E+00 -0.00000000000E+00 -0.42317688668E+03  0.42317688668E+03  0.25500000000E-02 0.  1.
    5000001    1    1    2    0    0  0.55169864507E+02 -0.35911713992E+02 -0.15177955189E+03  0.18248122512E+03  0.77000000000E+02 0.  0.
   -5000001    1    1    2    0    0 -0.55169864507E+02  0.35911713992E+02 -0.24602647724E+03  0.26606651923E+03  0.77000000000E+02 0.  0.
<mgrwt>
<rscale>  0 0.20723282E+03</rscale>
<asrwt>0</asrwt>
<pdfrwt beam="1">  1        2 0.65104131E-01 0.20723282E+03</pdfrwt>
<pdfrwt beam="2">  1       -2 0.39032092E-02 0.20723282E+03</pdfrwt>
<totfact> 0.20798612E+04</totfact>
</mgrwt>
</event>
<event>
 4    1  0.6122885E-004  0.2106414E+03  0.7818608E-02  0.1141059E+00
          2   -1    0    0  501    0  0.00000000000E+00  0.00000000000E+00  0.42871415781E+03  0.42871415782E+03  0.25500000000E-02 0.  1.
         -2   -1    0    0    0  501 -0.00000000000E+00 -0.00000000000E+00 -0.25873756895E+02  0.25873757020E+02  0.25500000000E-02 0. -1.
    5000001    1    1    2    0    0 -0.13962487011E+02 -0.65801813795E+02  0.14688283050E+03  0.17896478882E+03  0.77000000000E+02 0.  0.
   -5000001    1    1    2    0    0  0.13962487011E+02  0.65801813795E+02  0.25595757041E+03  0.27562312602E+03  0.77000000000E+02 0.  0.
<mgrwt>
<rscale>  0 0.21064136E+03</rscale>
<asrwt>0</asrwt>
<pdfrwt beam="1">  1        2 0.65956022E-01 0.21064136E+03</pdfrwt>
<pdfrwt beam="2">  1       -2 0.39805781E-02 0.21064136E+03</pdfrwt>
<totfact> 0.19935409E+04</totfact>
</mgrwt>
</event>
<event>
 4    1  0.6122885E-004  0.1694477E+03  0.7818608E-02  0.1178425E+00
          2   -1    0    0  501    0  0.00000000000E+00  0.00000000000E+00  0.67485491698E+02  0.67485491746E+02  0.25500000000E-02 0.  1.
         -2   -1    0    0    0  501 -0.00000000000E+00 -0.00000000000E+00 -0.10636554670E+03  0.10636554673E+03  0.25500000000E-02 0. -1.
    5000001    1    1    2    0    0 -0.10761700893E+02 -0.28207853408E+02 -0.58771196227E+00  0.82709386440E+02  0.77000000000E+02 0.  0.
   -5000001    1    1    2    0    0  0.10761700893E+02  0.28207853408E+02 -0.38292343035E+02  0.91141652032E+02  0.77000000000E+02 0.  0.
<mgrwt>
<rscale>  0 0.16944771E+03</rscale>
<asrwt>0</asrwt>
<pdfrwt beam="1">  1        2 0.10382383E-01 0.16944771E+03</pdfrwt>
<pdfrwt beam="2">  1       -2 0.16363930E-01 0.16944771E+03</pdfrwt>
<totfact> 0.17150929E+04</totfact>
</mgrwt>
</event>
<event>
 4    1  0.6122885E-004  0.2210494E+03  0.7818608E-02  0.1133103E+00
         -2   -1    0    0    0  501 -0.00000000000E+00  0.00000000000E+00  0.50518528154E+01  0.50518534590E+01  0.25500000000E-02 0. -1.
          2   -1    0    0  501    0  0.00000000000E+00 -0.00000000000E+00 -0.24180646971E+04  0.24180646971E+04  0.25500000000E-02 0.  1.
    5000001    1    1    2    0    0 -0.86004080573E+01 -0.78189458168E+02 -0.10973548716E+04  0.11028618556E+04  0.77000000000E+02 0.  0.
   -5000001    1    1    2    0    0  0.86004080573E+01  0.78189458168E+02 -0.13156579727E+04  0.13202546949E+04  0.77000000000E+02 0.  0.
<mgrwt>
<rscale>  0 0.22104939E+03</rscale>
<asrwt>0</asrwt>
<pdfrwt beam="1">  1        2 0.37200903E+00 0.22104939E+03</pdfrwt>
<pdfrwt beam="2">  1       -2 0.77721011E-03 0.22104939E+03</pdfrwt>
<totfact> 0.13610470E+04</totfact>
</mgrwt>
</event>
<event>
 4    1  0.6122885E-004  0.4322725E+03  0.7818608E-02  0.1033144E+00
          2   -1    0    0  501    0  0.00000000000E+00  0.00000000000E+00  0.48873802831E+02  0.48873802898E+02  0.25500000000E-02 0.  1.
         -2   -1    0    0    0  501 -0.00000000000E+00 -0.00000000000E+00 -0.95582674835E+03  0.95582674835E+03  0.25500000000E-02 0. -1.
    5000001    1    1    2    0    0 -0.16320841103E+03 -0.93777358906E+02 -0.28339893888E+03  0.34881963396E+03  0.77000000000E+02 0.  0.
   -5000001    1    1    2    0    0  0.16320841103E+03  0.93777358906E+02 -0.62355400664E+03  0.65588091729E+03  0.77000000000E+02 0.  0.
<mgrwt>
<rscale>  0 0.43227254E+03</rscale>
<asrwt>0</asrwt>
<pdfrwt beam="1">  1        2 0.75190473E-02 0.43227254E+03</pdfrwt>
<pdfrwt beam="2">  1       -2 0.14705025E+00 0.43227254E+03</pdfrwt>
<totfact> 0.30808065E+02</totfact>
</mgrwt>
</event>
<event>
 4    1  0.6122885E-004  0.2837240E+03  0.7818608E-02  0.1093672E+00
          2   -1    0    0  501    0  0.00000000000E+00  0.00000000000E+00  0.39198747163E+03  0.39198747164E+03  0.25500000000E-02 0.  1.
         -2   -1    0    0    0  501 -0.00000000000E+00 -0.00000000000E+00 -0.51340495332E+02  0.51340495395E+02  0.25500000000E-02 0. -1.
    5000001    1    1    2    0    0 -0.86609096484E+02 -0.80965396701E+02  0.18876533626E+03  0.23583444030E+03  0.77000000000E+02 0.  0.
   -5000001    1    1    2    0    0  0.86609096484E+02  0.80965396701E+02  0.15188164004E+03  0.20749352674E+03  0.77000000000E+02 0.  0.
<mgrwt>
<rscale>  0 0.28372403E+03</rscale>
<asrwt>0</asrwt>
<pdfrwt beam="1">  1        2 0.60305768E-01 0.28372403E+03</pdfrwt>
<pdfrwt beam="2">  1       -2 0.78985373E-02 0.28372403E+03</pdfrwt>
<totfact> 0.78351960E+03</totfact>
</mgrwt>
</event>
<event>
 4    1  0.6122885E-004  0.2253764E+03  0.7818608E-02  0.1129937E+00
          2   -1    0    0  501    0  0.00000000000E+00  0.00000000000E+00  0.40350482023E+03  0.40350482024E+03  0.25500000000E-02 0.  1.
         -2   -1    0    0    0  501 -0.00000000000E+00 -0.00000000000E+00 -0.31470815739E+02  0.31470815842E+02  0.25500000000E-02 0. -1.
    5000001    1    1    2    0    0 -0.62286005109E+02 -0.21236501471E+01  0.28969159672E+03  0.30616054209E+03  0.77000000000E+02 0.  0.
   -5000001    1    1    2    0    0  0.62286005109E+02  0.21236501471E+01  0.82342407774E+02  0.12881509399E+03  0.77000000000E+02 0.  0.
<mgrwt>
<rscale>  0 0.22537636E+03</rscale>
<asrwt>0</asrwt>
<pdfrwt beam="1">  1        2 0.62077660E-01 0.22537636E+03</pdfrwt>
<pdfrwt beam="2">  1       -2 0.48416643E-02 0.22537636E+03</pdfrwt>
<totfact> 0.15925957E+04</totfact>
</mgrwt>
</event>
<event>
 4    1  0.6122885E-004  0.3908942E+03  0.7818608E-02  0.1046979E+00
          2   -1    0    0  501    0  0.00000000000E+00  0.00000000000E+00  0.93424078940E+02  0.93424078975E+02  0.25500000000E-02 0.  1.
         -2   -1    0    0    0  501 -0.00000000000E+00 -0.00000000000E+00 -0.40888358391E+03  0.40888358391E+03  0.25500000000E-02 0. -1.
    5000001    1    1    2    0    0 -0.16405873423E+03 -0.17560341116E+02 -0.24902003665E+03  0.30848600051E+03  0.77000000000E+02 0.  0.
   -5000001    1    1    2    0    0  0.16405873423E+03  0.17560341116E+02 -0.66439468315E+02  0.19382166238E+03  0.77000000000E+02 0.  0.
<mgrwt>
<rscale>  0 0.39089422E+03</rscale>
<asrwt>0</asrwt>
<pdfrwt beam="1">  1        2 0.14372935E-01 0.39089422E+03</pdfrwt>
<pdfrwt beam="2">  1       -2 0.62905166E-01 0.39089422E+03</pdfrwt>
<totfact> 0.98916618E+02</totfact>
</mgrwt>
</event>
<event>
 4    1  0.6122885E-004  0.3321867E+03  0.7818608E-02  0.1070173E+00
         -2   -1    0    0    0  501 -0.00000000000E+00  0.00000000000E+00  0.55290479171E+02  0.55290479230E+02  0.25500000000E-02 0. -1.
          2   -1    0    0  501    0  0.00000000000E+00 -0.00000000000E+00 -0.49894654216E+03  0.49894654217E+03  0.25500000000E-02 0.  1.
    5000001    1    1    2    0    0  0.13195773839E+03 -0.64853553879E+02 -0.21138651045E+03  0.26876027417E+03  0.77000000000E+02 0.  0.
   -5000001    1    1    2    0    0 -0.13195773839E+03  0.64853553879E+02 -0.23226955254E+03  0.28547674723E+03  0.77000000000E+02 0.  0.
<mgrwt>
<rscale>  0 0.33218665E+03</rscale>
<asrwt>0</asrwt>
<pdfrwt beam="1">  1        2 0.76761004E-01 0.33218665E+03</pdfrwt>
<pdfrwt beam="2">  1       -2 0.85062279E-02 0.33218665E+03</pdfrwt>
<totfact> 0.53683410E+03</totfact>
</mgrwt>
</event>
<event>
 4    1  0.6122885E-004  0.3571005E+03  0.7818608E-02  0.1059738E+00
          2   -1    0    0  501    0  0.00000000000E+00  0.00000000000E+00  0.85562735007E+03  0.85562735007E+03  0.25500000000E-02 0.  1.
         -2   -1    0    0    0  501 -0.00000000000E+00 -0.00000000000E+00 -0.37259439349E+02  0.37259439437E+02  0.25500000000E-02 0. -1.
    5000001    1    1    2    0    0 -0.15838452608E+03  0.23915569764E+02  0.45202610274E+03  0.48571000621E+03  0.77000000000E+02 0.  0.
   -5000001    1    1    2    0    0  0.15838452608E+03 -0.23915569764E+02  0.36634180798E+03  0.40717678329E+03  0.77000000000E+02 0.  0.
<mgrwt>
<rscale>  0 0.35710052E+03</rscale>
<asrwt>0</asrwt>
<pdfrwt beam="1">  1        2 0.13163498E+00 0.35710052E+03</pdfrwt>
<pdfrwt beam="2">  1       -2 0.57322215E-02 0.35710052E+03</pdfrwt>
<totfact> 0.51838574E+03</totfact>
</mgrwt>
</event>
<event>
 4    1  0.6122885E-004  0.2892208E+03  0.7818608E-02  0.1090757E+00
          2   -1    0    0  501    0  0.00000000000E+00  0.00000000000E+00  0.92623091895E+01  0.92623095405E+01  0.25500000000E-02 0.  1.
         -2   -1    0    0    0  501 -0.00000000000E+00 -0.00000000000E+00 -0.22577704012E+04  0.22577704012E+04  0.25500000000E-02 0. -1.
    5000001    1    1    2    0    0 -0.85930771277E+02  0.84559975730E+02 -0.12902880705E+04  0.12981936650E+04  0.77000000000E+02 0.  0.
   -5000001    1    1    2    0    0  0.85930771277E+02 -0.84559975730E+02 -0.95822002149E+03  0.96883904573E+03  0.77000000000E+02 0.  0.
<mgrwt>
<rscale>  0 0.28922080E+03</rscale>
<asrwt>0</asrwt>
<pdfrwt beam="1">  1        2 0.14249725E-02 0.28922080E+03</pdfrwt>
<pdfrwt beam="2">  1       -2 0.34734885E+00 0.28922080E+03</pdfrwt>
<totfact> 0.16803408E+02</totfact>
</mgrwt>
</event>
<event>
 4    1  0.6122885E-004  0.4412541E+03  0.7818608E-02  0.1030363E+00
          2   -1    0    0  501    0  0.00000000000E+00  0.00000000000E+00  0.27405498140E+03  0.27405498141E+03  0.25500000000E-02 0.  1.
         -2   -1    0    0    0  501 -0.00000000000E+00 -0.00000000000E+00 -0.17761506166E+03  0.17761506168E+03  0.25500000000E-02 0. -1.
    5000001    1    1    2    0    0  0.16702700137E+03  0.12179408388E+03  0.44193354629E+02  0.22497526675E+03  0.77000000000E+02 0.  0.
   -5000001    1    1    2    0    0 -0.16702700137E+03 -0.12179408388E+03  0.52246565106E+02  0.22669477634E+03  0.77000000000E+02 0.  0.
<mgrwt>
<rscale>  0 0.44125409E+03</rscale>
<asrwt>0</asrwt>
<pdfrwt beam="1">  1        2 0.42162305E-01 0.44125409E+03</pdfrwt>
<pdfrwt beam="2">  1       -2 0.27325394E-01 0.44125409E+03</pdfrwt>
<totfact> 0.14727888E+03</totfact>
</mgrwt>
</event>
<event>
 4    1  0.6122885E-004  0.2372394E+03  0.7818608E-02  0.1121646E+00
         -2   -1    0    0    0  501 -0.00000000000E+00  0.00000000000E+00  0.60892804623E+01  0.60892809963E+01  0.25500000000E-02 0. -1.
          2   -1    0    0  501    0  0.00000000000E+00 -0.00000000000E+00 -0.23107220041E+04  0.23107220041E+04  0.25500000000E-02 0.  1.
    5000001    1    1    2    0    0  0.29850631028E+02 -0.69837439972E+02 -0.67656421589E+03  0.68515433766E+03  0.77000000000E+02 0.  0.
   -5000001    1    1    2    0    0 -0.29850631028E+02  0.69837439972E+02 -0.16280685078E+04  0.16316569475E+04  0.77000000000E+02 0.  0.
<mgrwt>
<rscale>  0 0.23723941E+03</rscale>
<asrwt>0</asrwt>
<pdfrwt beam="1">  1        2 0.35549499E+00 0.23723941E+03</pdfrwt>
<pdfrwt beam="2">  1       -2 0.93681427E-03 0.23723941E+03</pdfrwt>
<totfact> 0.11881636E+04</totfact>
</mgrwt>
</event>
<event>
 4    1  0.6122885E-004  0.2435727E+03  0.7818608E-02  0.1117435E+00
          2   -1    0    0  501    0  0.00000000000E+00  0.00000000000E+00  0.59331521805E+03  0.59331521805E+03  0.25500000000E-02 0.  1.
         -2   -1    0    0    0  501 -0.00000000000E+00 -0.00000000000E+00 -0.24998379470E+02  0.24998379600E+02  0.25500000000E-02 0. -1.
    5000001    1    1    2    0    0 -0.84658069598E+02 -0.12199472601E+01  0.38987911647E+03  0.40632893385E+03  0.77000000000E+02 0.  0.
   -5000001    1    1    2    0    0  0.84658069598E+02  0.12199472601E+01  0.17843772210E+03  0.21198466381E+03  0.77000000000E+02 0.  0.
<mgrwt>
<rscale>  0 0.24357273E+03</rscale>
<asrwt>0</asrwt>
<pdfrwt beam="1">  1        2 0.91279263E-01 0.24357273E+03</pdfrwt>
<pdfrwt beam="2">  1       -2 0.38459046E-02 0.24357273E+03</pdfrwt>
<totfact> 0.14726562E+04</totfact>
</mgrwt>
</event>
<event>
 4    1  0.6122885E-004  0.1968567E+03  0.7818608E-02  0.1152418E+00
         -2   -1    0    0    0  501 -0.00000000000E+00  0.00000000000E+00  0.22727728944E+03  0.22727728945E+03  0.25500000000E-02 0. -1.
          2   -1    0    0  501    0  0.00000000000E+00 -0.00000000000E+00 -0.42626948986E+02  0.42626949062E+02  0.25500000000E-02 0.  1.
    5000001    1    1    2    0    0 -0.42305360192E+01 -0.61064738209E+02  0.87509269844E+02  0.13165740388E+03  0.77000000000E+02 0.  0.
   -5000001    1    1    2    0    0  0.42305360192E+01  0.61064738209E+02  0.97141070607E+02  0.13824683463E+03  0.77000000000E+02 0.  0.
<mgrwt>
<rscale>  0 0.19685667E+03</rscale>
<asrwt>0</asrwt>
<pdfrwt beam="1">  1        2 0.65579920E-02 0.19685667E+03</pdfrwt>
<pdfrwt beam="2">  1       -2 0.34965738E-01 0.19685667E+03</pdfrwt>
<totfact> 0.82058966E+03</totfact>
</mgrwt>
</event>
<event>
 4    1  0.6122885E-004  0.3580151E+03  0.7818608E-02  0.1059373E+00
          2   -1    0    0  501    0  0.00000000000E+00  0.00000000000E+00  0.18065480302E+03  0.18065480304E+03  0.25500000000E-02 0.  1.
         -2   -1    0    0    0  501 -0.00000000000E+00 -0.00000000000E+00 -0.17737527137E+03  0.17737527139E+03  0.25500000000E-02 0. -1.
    5000001    1    1    2    0    0 -0.12617416233E+03  0.12774784358E+02 -0.98522213613E+02  0.17809756015E+03  0.77000000000E+02 0.  0.
   -5000001    1    1    2    0    0  0.12617416233E+03 -0.12774784358E+02  0.10180174526E+03  0.17993251428E+03  0.77000000000E+02 0.  0.
<mgrwt>
<rscale>  0 0.35801505E+03</rscale>
<asrwt>0</asrwt>
<pdfrwt beam="1">  1        2 0.27793047E-01 0.35801505E+03</pdfrwt>
<pdfrwt beam="2">  1       -2 0.27288503E-01 0.35801505E+03</pdfrwt>
<totfact> 0.23313052E+03</totfact>
</mgrwt>
</event>
<event>
 4    1  0.6122885E-004  0.1804921E+03  0.7818608E-02  0.1167328E+00
          2   -1    0    0  501    0  0.00000000000E+00  0.00000000000E+00  0.35568844940E+04  0.35568844940E+04  0.25500000000E-02 0.  1.
         -2   -1    0    0    0  501 -0.00000000000E+00 -0.00000000000E+00 -0.22897408964E+01  0.22897423164E+01  0.25500000000E-02 0. -1.
    5000001    1    1    2    0    0 -0.36409988458E+02  0.24153279306E+02  0.21224007608E+04  0.21242464682E+04  0.77000000000E+02 0.  0.
   -5000001    1    1    2    0    0  0.36409988458E+02 -0.24153279306E+02  0.14321939923E+04  0.14349277681E+04  0.77000000000E+02 0.  0.
<mgrwt>
<rscale>  0 0.18049207E+03</rscale>
<asrwt>0</asrwt>
<pdfrwt beam="1">  1        2 0.54721345E+00 0.18049207E+03</pdfrwt>
<pdfrwt beam="2">  1       -2 0.35226765E-03 0.18049207E+03</pdfrwt>
<totfact> 0.89567117E+03</totfact>
</mgrwt>
</event>
<event>
 4    1  0.6122885E-004  0.2705377E+03  0.7818608E-02  0.1100972E+00
         -2   -1    0    0    0  501 -0.00000000000E+00  0.00000000000E+00  0.10893851120E+03  0.10893851123E+03  0.25500000000E-02 0. -1.
          2   -1    0    0  501    0  0.00000000000E+00 -0.00000000000E+00 -0.16796318608E+03  0.16796318610E+03  0.25500000000E-02 0.  1.
    5000001    1    1    2    0    0  0.60746024794E+02 -0.93144558234E+02 -0.27839517345E+02  0.13809426846E+03  0.77000000000E+02 0.  0.
   -5000001    1    1    2    0    0 -0.60746024794E+02  0.93144558234E+02 -0.31185157535E+02  0.13880742886E+03  0.77000000000E+02 0.  0.
<mgrwt>
<rscale>  0 0.27053768E+03</rscale>
<asrwt>0</asrwt>
<pdfrwt beam="1">  1        2 0.25840490E-01 0.27053768E+03</pdfrwt>
<pdfrwt beam="2">  1       -2 0.16759771E-01 0.27053768E+03</pdfrwt>
<totfact> 0.58405835E+03</totfact>
</mgrwt>
</event>
<event>
 4    1  0.6122885E-004  0.3976473E+03  0.7818608E-02  0.1044597E+00
         -2   -1    0    0    0  501 -0.00000000000E+00  0.00000000000E+00  0.14201946642E+02  0.14201946871E+02  0.25500000000E-02 0. -1.
          2   -1    0    0  501    0  0.00000000000E+00 -0.00000000000E+00 -0.27834803369E+04  0.27834803369E+04  0.25500000000E-02 0.  1.
    5000001    1    1    2    0    0 -0.12893442978E+03 -0.61947492762E+02 -0.57814292046E+03  0.60053294291E+03  0.77000000000E+02 0.  0.
   -5000001    1    1    2    0    0  0.12893442978E+03  0.61947492762E+02 -0.21911354698E+04  0.21971493409E+04  0.77000000000E+02 0.  0.
<mgrwt>
<rscale>  0 0.39764728E+03</rscale>
<asrwt>0</asrwt>
<pdfrwt beam="1">  1        2 0.42822731E+00 0.39764728E+03</pdfrwt>
<pdfrwt beam="2">  1       -2 0.21849171E-02 0.39764728E+03</pdfrwt>
<totfact> 0.18637914E+03</totfact>
</mgrwt>
</event>
<event>
 4    1  0.6122885E-004  0.2202467E+03  0.7818608E-02  0.1133699E+00
          2   -1    0    0  501    0  0.00000000000E+00  0.00000000000E+00  0.45662108062E+03  0.45662108062E+03  0.25500000000E-02 0.  1.
         -2   -1    0    0    0  501 -0.00000000000E+00 -0.00000000000E+00 -0.26558470242E+02  0.26558470364E+02  0.25500000000E-02 0. -1.
    5000001    1    1    2    0    0 -0.73976218185E+02  0.24147142453E+02  0.18883459684E+03  0.21827292620E+03  0.77000000000E+02 0.  0.
   -5000001    1    1    2    0    0  0.73976218185E+02 -0.24147142453E+02  0.24122801353E+03  0.26490662479E+03  0.77000000000E+02 0.  0.
<mgrwt>
<rscale>  0 0.22024675E+03</rscale>
<asrwt>0</asrwt>
<pdfrwt beam="1">  1        2 0.70249400E-01 0.22024675E+03</pdfrwt>
<pdfrwt beam="2">  1       -2 0.40859183E-02 0.22024675E+03</pdfrwt>
<totfact> 0.17945813E+04</totfact>
</mgrwt>
</event>
<event>
 4    1  0.6122885E-004  0.1753576E+03  0.7818608E-02  0.1172373E+00
          2   -1    0    0  501    0  0.00000000000E+00  0.00000000000E+00  0.14184557427E+04  0.14184557427E+04  0.25500000000E-02 0.  1.
         -2   -1    0    0    0  501 -0.00000000000E+00 -0.00000000000E+00 -0.54196756726E+01  0.54196762725E+01  0.25500000000E-02 0. -1.
    5000001    1    1    2    0    0  0.35330036101E+02  0.17096641992E+02  0.58661247394E+03  0.59294493944E+03  0.77000000000E+02 0.  0.
   -5000001    1    1    2    0    0 -0.35330036101E+02 -0.17096641992E+02  0.82642359307E+03  0.83093047952E+03  0.77000000000E+02 0.  0.
<mgrwt>
<rscale>  0 0.17535758E+03</rscale>
<asrwt>0</asrwt>
<pdfrwt beam="1">  1        2 0.21822395E+00 0.17535758E+03</pdfrwt>
<pdfrwt beam="2">  1       -2 0.83379636E-03 0.17535758E+03</pdfrwt>
<totfact> 0.40695399E+04</totfact>
</mgrwt>
</event>
<event>
 4    1  0.6122885E-004  0.5954516E+03  0.7818608E-02  0.9914888E-01
         -2   -1    0    0    0  501 -0.00000000000E+00  0.00000000000E+00  0.13344695506E+03  0.13344695509E+03  0.25500000000E-02 0. -1.
          2   -1    0    0  501    0  0.00000000000E+00 -0.00000000000E+00 -0.66423891266E+03  0.66423891266E+03  0.25500000000E-02 0.  1.
    5000001    1    1    2    0    0 -0.24851211814E+02  0.26978956384E+03 -0.39463863431E+03  0.48484290567E+03  0.77000000000E+02 0.  0.
   -5000001    1    1    2    0    0  0.24851211814E+02 -0.26978956384E+03 -0.13615332329E+03  0.31284296209E+03  0.77000000000E+02 0.  0.
<mgrwt>
<rscale>  0 0.59545163E+03</rscale>
<asrwt>0</asrwt>
<pdfrwt beam="1">  1        2 0.10219060E+00 0.59545163E+03</pdfrwt>
<pdfrwt beam="2">  1       -2 0.20530301E-01 0.59545163E+03</pdfrwt>
<totfact> 0.89603515E+02</totfact>
</mgrwt>
</event>
<event>
 4    1  0.6122885E-004  0.2424611E+03  0.7818608E-02  0.1118164E+00
         -2   -1    0    0    0  501 -0.00000000000E+00  0.00000000000E+00  0.16291682204E+03  0.16291682206E+03  0.25500000000E-02 0. -1.
          2   -1    0    0  501    0  0.00000000000E+00 -0.00000000000E+00 -0.90210741441E+02  0.90210741477E+02  0.25500000000E-02 0.  1.
    5000001    1    1    2    0    0  0.20054730441E+02  0.91202122316E+02  0.29133020149E+02  0.12448996823E+03  0.77000000000E+02 0.  0.
   -5000001    1    1    2    0    0 -0.20054730441E+02 -0.91202122316E+02  0.43573060447E+02  0.12863759530E+03  0.77000000000E+02 0.  0.
<mgrwt>
<rscale>  0 0.24246111E+03</rscale>
<asrwt>0</asrwt>
<pdfrwt beam="1">  1        2 0.13878576E-01 0.24246111E+03</pdfrwt>
<pdfrwt beam="2">  1       -2 0.25064126E-01 0.24246111E+03</pdfrwt>
<totfact> 0.59672222E+03</totfact>
</mgrwt>
</event>
<event>
 4    1  0.6122885E-004  0.1734708E+03  0.7818608E-02  0.1174276E+00
         -2   -1    0    0    0  501 -0.00000000000E+00  0.00000000000E+00  0.17554930501E+02  0.17554930686E+02  0.25500000000E-02 0. -1.
          2   -1    0    0  501    0  0.00000000000E+00 -0.00000000000E+00 -0.42854222628E+03  0.42854222629E+03  0.25500000000E-02 0.  1.
    5000001    1    1    2    0    0 -0.10858552401E+02  0.12598168619E+02 -0.29883263393E+03  0.30904136473E+03  0.77000000000E+02 0.  0.
   -5000001    1    1    2    0    0  0.10858552401E+02 -0.12598168619E+02 -0.11215466185E+03  0.13705579224E+03  0.77000000000E+02 0.  0.
<mgrwt>
<rscale>  0 0.17347079E+03</rscale>
<asrwt>0</asrwt>
<pdfrwt beam="1">  1        2 0.65929565E-01 0.17347079E+03</pdfrwt>
<pdfrwt beam="2">  1       -2 0.27007589E-02 0.17347079E+03</pdfrwt>
<totfact> 0.34923323E+04</totfact>
</mgrwt>
</event>
<event>
 4    1  0.6122885E-004  0.1809170E+03  0.7818608E-02  0.1166919E+00
          2   -1    0    0  501    0  0.00000000000E+00  0.00000000000E+00  0.77788681301E+03  0.77788681302E+03  0.25500000000E-02 0.  1.
         -2   -1    0    0    0  501 -0.00000000000E+00 -0.00000000000E+00 -0.10519187434E+02  0.10519187743E+02  0.25500000000E-02 0. -1.
    5000001    1    1    2    0    0 -0.69751290005E-01 -0.47439609684E+02  0.37586896484E+03  0.38659668928E+03  0.77000000000E+02 0.  0.
   -5000001    1    1    2    0    0  0.69751290005E-01  0.47439609684E+02  0.39149866074E+03  0.40180931148E+03  0.77000000000E+02 0.  0.
<mgrwt>
<rscale>  0 0.18091697E+03</rscale>
<asrwt>0</asrwt>
<pdfrwt beam="1">  1        2 0.11967490E+00 0.18091697E+03</pdfrwt>
<pdfrwt beam="2">  1       -2 0.16183365E-02 0.18091697E+03</pdfrwt>
<totfact> 0.37409883E+04</totfact>
</mgrwt>
</event>
<event>
 4    1  0.6122885E-004  0.1822614E+03  0.7818608E-02  0.1165632E+00
          2   -1    0    0  501    0  0.00000000000E+00  0.00000000000E+00  0.16261696080E+03  0.16261696082E+03  0.25500000000E-02 0.  1.
         -2   -1    0    0    0  501 -0.00000000000E+00 -0.00000000000E+00 -0.51069745639E+02  0.51069745703E+02  0.25500000000E-02 0. -1.
    5000001    1    1    2    0    0 -0.28463077128E+02 -0.39567880778E+02  0.56016399574E+02  0.10697009381E+03  0.77000000000E+02 0.  0.
   -5000001    1    1    2    0    0  0.28463077128E+02  0.39567880778E+02  0.55530815587E+02  0.10671661271E+03  0.77000000000E+02 0.  0.
<mgrwt>
<rscale>  0 0.18226143E+03</rscale>
<asrwt>0</asrwt>
<pdfrwt beam="1">  1        2 0.25017993E-01 0.18226143E+03</pdfrwt>
<pdfrwt beam="2">  1       -2 0.78568842E-02 0.18226143E+03</pdfrwt>
<totfact> 0.19972047E+04</totfact>
</mgrwt>
</event>
<event>
 4    1  0.6122885E-004  0.2652340E+03  0.7818608E-02  0.1104039E+00
         -2   -1    0    0    0  501 -0.00000000000E+00  0.00000000000E+00  0.41167440971E+02  0.41167441050E+02  0.25500000000E-02 0. -1.
          2   -1    0    0  501    0  0.00000000000E+00 -0.00000000000E+00 -0.42721296591E+03  0.42721296592E+03  0.25500000000E-02 0.  1.
    5000001    1    1    2    0    0 -0.85687541631E+02  0.52087355887E+02 -0.12232404022E+03  0.17591935155E+03  0.77000000000E+02 0.  0.
   -5000001    1    1    2    0    0  0.85687541631E+02 -0.52087355887E+02 -0.26372148472E+03  0.29246105542E+03  0.77000000000E+02 0.  0.
<mgrwt>
<rscale>  0 0.26523397E+03</rscale>
<asrwt>0</asrwt>
<pdfrwt beam="1">  1        2 0.65725069E-01 0.26523397E+03</pdfrwt>
<pdfrwt beam="2">  1       -2 0.63334528E-02 0.26523397E+03</pdfrwt>
<totfact> 0.10019265E+04</totfact>
</mgrwt>
</event>
<event>
 4    1  0.6122885E-004  0.1813096E+03  0.7818608E-02  0.1166542E+00
         -2   -1    0    0    0  501 -0.00000000000E+00  0.00000000000E+00  0.25098406055E+02  0.25098406184E+02  0.25500000000E-02 0. -1.
          2   -1    0    0  501    0  0.00000000000E+00 -0.00000000000E+00 -0.32744295186E+03  0.32744295187E+03  0.25500000000E-02 0.  1.
    5000001    1    1    2    0    0 -0.41791345199E+02 -0.22267726658E+02 -0.16449230385E+03  0.18769412939E+03  0.77000000000E+02 0.  0.
   -5000001    1    1    2    0    0  0.41791345199E+02  0.22267726658E+02 -0.13785224196E+03  0.16484722866E+03  0.77000000000E+02 0.  0.
<mgrwt>
<rscale>  0 0.18130964E+03</rscale>
<asrwt>0</asrwt>
<pdfrwt beam="1">  1        2 0.50375836E-01 0.18130964E+03</pdfrwt>
<pdfrwt beam="2">  1       -2 0.38612935E-02 0.18130964E+03</pdfrwt>
<totfact> 0.27560253E+04</totfact>
</mgrwt>
</event>
<event>
 4    1  0.6122885E-004  0.2287671E+03  0.7818608E-02  0.1127511E+00
          2   -1    0    0  501    0  0.00000000000E+00  0.00000000000E+00  0.80676818011E+03  0.80676818011E+03  0.25500000000E-02 0.  1.
         -2   -1    0    0    0  501 -0.00000000000E+00 -0.00000000000E+00 -0.16217299859E+02  0.16217300059E+02  0.25500000000E-02 0. -1.
    5000001    1    1    2    0    0 -0.59939477982E+02  0.59619981176E+02  0.38554333872E+03  0.40214418957E+03  0.77000000000E+02 0.  0.
   -5000001    1    1    2    0    0  0.59939477982E+02 -0.59619981176E+02  0.40500754153E+03  0.42084129059E+03  0.77000000000E+02 0.  0.
<mgrwt>
<rscale>  0 0.22876714E+03</rscale>
<asrwt>0</asrwt>
<pdfrwt beam="1">  1        2 0.12411816E+00 0.22876714E+03</pdfrwt>
<pdfrwt beam="2">  1       -2 0.24949697E-02 0.22876714E+03</pdfrwt>
<totfact> 0.19272792E+04</totfact>
</mgrwt>
</event>
<event>
 4    1  0.6122885E-004  0.1703234E+03  0.7818608E-02  0.1177511E+00
         -2   -1    0    0    0  501 -0.00000000000E+00  0.00000000000E+00  0.30833781066E+01  0.30833791611E+01  0.25500000000E-02 0. -1.
          2   -1    0    0  501    0  0.00000000000E+00 -0.00000000000E+00 -0.23521327252E+04  0.23521327252E+04  0.25500000000E-02 0.  1.
    5000001    1    1    2    0    0 -0.12080165653E+02 -0.31234488601E+02 -0.97799703772E+03  0.98159499259E+03  0.77000000000E+02 0.  0.
   -5000001    1    1    2    0    0  0.12080165653E+02  0.31234488601E+02 -0.13710523093E+04  0.13736211117E+04  0.77000000000E+02 0.  0.
<mgrwt>
<rscale>  0 0.17032341E+03</rscale>
<asrwt>0</asrwt>
<pdfrwt beam="1">  1        2 0.36186514E+00 0.17032341E+03</pdfrwt>
<pdfrwt beam="2">  1       -2 0.47436782E-03 0.17032341E+03</pdfrwt>
<totfact> 0.29675773E+04</totfact>
</mgrwt>
</event>
<event>
 4    1  0.6122885E-004  0.1953339E+03  0.7818608E-02  0.1153737E+00
         -2   -1    0    0    0  501 -0.00000000000E+00  0.00000000000E+00  0.11197052872E+02  0.11197053162E+02  0.25500000000E-02 0. -1.
          2   -1    0    0  501    0  0.00000000000E+00 -0.00000000000E+00 -0.85190577682E+03  0.85190577682E+03  0.25500000000E-02 0.  1.
    5000001    1    1    2    0    0 -0.56189889993E+01  0.45316845848E+02 -0.24782254125E+03  0.26349611289E+03  0.77000000000E+02 0.  0.
   -5000001    1    1    2    0    0  0.56189889993E+01 -0.45316845848E+02 -0.59288618270E+03  0.59960671710E+03  0.77000000000E+02 0.  0.
<mgrwt>
<rscale>  0 0.19533391E+03</rscale>
<asrwt>0</asrwt>
<pdfrwt beam="1">  1        2 0.13106238E+00 0.19533391E+03</pdfrwt>
<pdfrwt beam="2">  1       -2 0.17226242E-02 0.19533391E+03</pdfrwt>
<totfact> 0.30625518E+04</totfact>
</mgrwt>
</event>
<event>
 4    1  0.6122885E-004  0.3832175E+03  0.7818608E-02  0.1049751E+00
         -2   -1    0    0    0  501 -0.00000000000E+00  0.00000000000E+00  0.11526171638E+04  0.11526171638E+04  0.25500000000E-02 0. -1.
          2   -1    0    0  501    0  0.00000000000E+00 -0.00000000000E+00 -0.31852651716E+02  0.31852651818E+02  0.25500000000E-02 0.  1.
    5000001    1    1    2    0    0  0.30478257223E+02 -0.11557418180E+03  0.95739292489E+03  0.96789282892E+03  0.77000000000E+02 0.  0.
   -5000001    1    1    2    0    0 -0.30478257223E+02  0.11557418180E+03  0.16337158719E+03  0.21657698669E+03  0.77000000000E+02 0.  0.
<mgrwt>
<rscale>  0 0.38321750E+03</rscale>
<asrwt>0</asrwt>
<pdfrwt beam="1">  1        2 0.49004073E-02 0.38321750E+03</pdfrwt>
<pdfrwt beam="2">  1       -2 0.17732574E+00 0.38321750E+03</pdfrwt>
<totfact> 0.32809675E+02</totfact>
</mgrwt>
</event>
<event>
 4    1  0.6122885E-004  0.2585406E+03  0.7818608E-02  0.1108023E+00
          2   -1    0    0  501    0  0.00000000000E+00  0.00000000000E+00  0.67192349008E+03  0.67192349009E+03  0.25500000000E-02 0.  1.
         -2   -1    0    0    0  501 -0.00000000000E+00 -0.00000000000E+00 -0.24870109592E+02  0.24870109723E+02  0.25500000000E-02 0. -1.
    5000001    1    1    2    0    0  0.55787597702E+02  0.80458135363E+02  0.23031962309E+03  0.26184326683E+03  0.77000000000E+02 0.  0.
   -5000001    1    1    2    0    0 -0.55787597702E+02 -0.80458135363E+02  0.41673375740E+03  0.43495033298E+03  0.77000000000E+02 0.  0.
<mgrwt>
<rscale>  0 0.25854060E+03</rscale>
<asrwt>0</asrwt>
<pdfrwt beam="1">  1        2 0.10337284E+00 0.25854060E+03</pdfrwt>
<pdfrwt beam="2">  1       -2 0.38261709E-02 0.25854060E+03</pdfrwt>
<totfact> 0.12858237E+04</totfact>
</mgrwt>
</event>
<event>
 4    1  0.6122885E-004  0.3989604E+03  0.7818608E-02  0.1044140E+00
         -2   -1    0    0    0  501 -0.00000000000E+00  0.00000000000E+00  0.23605910919E+02  0.23605911056E+02  0.25500000000E-02 0.  1.
          2   -1    0    0  501    0  0.00000000000E+00 -0.00000000000E+00 -0.16856943416E+04  0.16856943416E+04  0.25500000000E-02 0. -1.
    5000001    1    1    2    0    0 -0.87774181487E+02  0.77528303096E+02 -0.22289673830E+03  0.26330002024E+03  0.77000000000E+02 0.  0.
   -5000001    1    1    2    0    0  0.87774181487E+02 -0.77528303096E+02 -0.14391916924E+04  0.14460002324E+04  0.77000000000E+02 0.  0.
<mgrwt>
<rscale>  0 0.39896040E+03</rscale>
<asrwt>0</asrwt>
<pdfrwt beam="1">  1        2 0.25933750E+00 0.39896040E+03</pdfrwt>
<pdfrwt beam="2">  1       -2 0.36316799E-02 0.39896040E+03</pdfrwt>
<totfact> 0.34530237E+03</totfact>
</mgrwt>
</event>
<event>
 4    1  0.6122885E-004  0.3155721E+03  0.7818608E-02  0.1077705E+00
         -2   -1    0    0    0  501 -0.00000000000E+00  0.00000000000E+00  0.10731973926E+03  0.10731973929E+03  0.25500000000E-02 0. -1.
          2   -1    0    0  501    0  0.00000000000E+00 -0.00000000000E+00 -0.23198372071E+03  0.23198372073E+03  0.25500000000E-02 0.  1.
    5000001    1    1    2    0    0 -0.13595464288E+03  0.20997305514E+02 -0.69372766289E+02  0.17223859168E+03  0.77000000000E+02 0.  0.
   -5000001    1    1    2    0    0  0.13595464288E+03 -0.20997305514E+02 -0.55291215162E+02  0.16706486834E+03  0.77000000000E+02 0.  0.
<mgrwt>
<rscale>  0 0.31557207E+03</rscale>
<asrwt>0</asrwt>
<pdfrwt beam="1">  1        2 0.35689803E-01 0.31557207E+03</pdfrwt>
<pdfrwt beam="2">  1       -2 0.16510729E-01 0.31557207E+03</pdfrwt>
<totfact> 0.42188228E+03</totfact>
</mgrwt>
</event>
<event>
 4    1  0.6122885E-004  0.2997150E+03  0.7818608E-02  0.1085383E+00
          2   -1    0    0  501    0  0.00000000000E+00  0.00000000000E+00  0.24958794730E+03  0.24958794732E+03  0.25500000000E-02 0.  1.
         -2   -1    0    0    0  501 -0.00000000000E+00 -0.00000000000E+00 -0.89977384773E+02  0.89977384809E+02  0.25500000000E-02 0. -1.
    5000001    1    1    2    0    0  0.11962736508E+02 -0.10553711969E+03  0.16187325436E+03  0.20835820400E+03  0.77000000000E+02 0.  0.
   -5000001    1    1    2    0    0 -0.11962736508E+02  0.10553711969E+03 -0.22626918272E+01  0.13120712813E+03  0.77000000000E+02 0.  0.
<mgrwt>
<rscale>  0 0.29971500E+03</rscale>
<asrwt>0</asrwt>
<pdfrwt beam="1">  1        2 0.38398146E-01 0.29971500E+03</pdfrwt>
<pdfrwt beam="2">  1       -2 0.13842675E-01 0.29971500E+03</pdfrwt>
<totfact> 0.52115959E+03</totfact>
</mgrwt>
</event>
<event>
 4    1  0.6122885E-004  0.2302589E+03  0.7818608E-02  0.1126458E+00
          2   -1    0    0  501    0  0.00000000000E+00  0.00000000000E+00  0.71621142989E+03  0.71621142990E+03  0.25500000000E-02 0.  1.
         -2   -1    0    0    0  501 -0.00000000000E+00 -0.00000000000E+00 -0.18506810477E+02  0.18506810653E+02  0.25500000000E-02 0. -1.
    5000001    1    1    2    0    0 -0.21297936363E+02 -0.64293483789E+02  0.51583196854E+03  0.52592668112E+03  0.77000000000E+02 0.  0.
   -5000001    1    1    2    0    0  0.21297936363E+02  0.64293483789E+02  0.18187265088E+03  0.20879155943E+03  0.77000000000E+02 0.  0.
<mgrwt>
<rscale>  0 0.23025889E+03</rscale>
<asrwt>0</asrwt>
<pdfrwt beam="1">  1        2 0.11018637E+00 0.23025889E+03</pdfrwt>
<pdfrwt beam="2">  1       -2 0.28472016E-02 0.23025889E+03</pdfrwt>
<totfact> 0.18389806E+04</totfact>
</mgrwt>
</event>
<event>
 4    1  0.6122885E-004  0.2981116E+03  0.7818608E-02  0.1086188E+00
         -2   -1    0    0    0  501 -0.00000000000E+00  0.00000000000E+00  0.11339541670E+02  0.11339541957E+02  0.25500000000E-02 0. -1.
          2   -1    0    0  501    0  0.00000000000E+00 -0.00000000000E+00 -0.19593060446E+04  0.19593060446E+04  0.25500000000E-02 0.  1.
    5000001    1    1    2    0    0  0.54108133339E+02 -0.11523417558E+03 -0.91411323278E+03  0.92614178593E+03  0.77000000000E+02 0.  0.
   -5000001    1    1    2    0    0 -0.54108133339E+02  0.11523417558E+03 -0.10338532702E+04  0.10445038006E+04  0.77000000000E+02 0.  0.
<mgrwt>
<rscale>  0 0.29811161E+03</rscale>
<asrwt>0</asrwt>
<pdfrwt beam="1">  1        2 0.30143143E+00 0.29811161E+03</pdfrwt>
<pdfrwt beam="2">  1       -2 0.17445465E-02 0.29811161E+03</pdfrwt>
<totfact> 0.73831816E+03</totfact>
</mgrwt>
</event>
<event>
 4    1  0.6122885E-004  0.1884185E+03  0.7818608E-02  0.1159895E+00
          2   -1    0    0  501    0  0.00000000000E+00  0.00000000000E+00  0.37135158470E+02  0.37135158558E+02  0.25500000000E-02 0.  1.
         -2   -1    0    0    0  501 -0.00000000000E+00 -0.00000000000E+00 -0.23900223936E+03  0.23900223937E+03  0.25500000000E-02 0. -1.
    5000001    1    1    2    0    0 -0.21762676869E+02 -0.35135936582E+02 -0.49362766009E+02  0.10036847519E+03  0.77000000000E+02 0.  0.
   -5000001    1    1    2    0    0  0.21762676869E+02  0.35135936582E+02 -0.15250431488E+03  0.17576892274E+03  0.77000000000E+02 0.  0.
<mgrwt>
<rscale>  0 0.18841853E+03</rscale>
<asrwt>0</asrwt>
<pdfrwt beam="1">  1        2 0.57131015E-02 0.18841853E+03</pdfrwt>
<pdfrwt beam="2">  1       -2 0.36769574E-01 0.18841853E+03</pdfrwt>
<totfact> 0.89047372E+03</totfact>
</mgrwt>
</event>
<event>
 4    1  0.6122885E-004  0.2593964E+03  0.7818608E-02  0.1107506E+00
         -2   -1    0    0    0  501 -0.00000000000E+00  0.00000000000E+00  0.74320561565E+02  0.74320561609E+02  0.25500000000E-02 0. -1.
          2   -1    0    0  501    0  0.00000000000E+00 -0.00000000000E+00 -0.22633869391E+03  0.22633869393E+03  0.25500000000E-02 0.  1.
    5000001    1    1    2    0    0  0.48372663849E+02  0.92468373763E+02 -0.77768449202E+02  0.15121919999E+03  0.77000000000E+02 0.  0.
   -5000001    1    1    2    0    0 -0.48372663849E+02 -0.92468373763E+02 -0.74249683144E+02  0.14944005554E+03  0.77000000000E+02 0.  0.
<mgrwt>
<rscale>  0 0.25939637E+03</rscale>
<asrwt>0</asrwt>
<pdfrwt beam="1">  1        2 0.34821337E-01 0.25939637E+03</pdfrwt>
<pdfrwt beam="2">  1       -2 0.11433933E-01 0.25939637E+03</pdfrwt>
<totfact> 0.78620598E+03</totfact>
</mgrwt>
</event>
<event>
 4    1  0.6122885E-004  0.7478240E+03  0.7818608E-02  0.9638770E-01
         -2   -1    0    0    0  501 -0.00000000000E+00  0.00000000000E+00  0.31702542400E+02  0.31702542503E+02  0.25500000000E-02 0. -1.
          2   -1    0    0  501    0  0.00000000000E+00 -0.00000000000E+00 -0.44100620364E+04  0.44100620364E+04  0.25500000000E-02 0.  1.
    5000001    1    1    2    0    0  0.20395087161E+03  0.99377019728E+02 -0.48410038755E+03  0.54014251389E+03  0.77000000000E+02 0.  0.
   -5000001    1    1    2    0    0 -0.20395087161E+03 -0.99377019728E+02 -0.38942591064E+04  0.39016220650E+04  0.77000000000E+02 0.  0.
<mgrwt>
<rscale>  0 0.74782399E+03</rscale>
<asrwt>0</asrwt>
<pdfrwt beam="1">  1        2 0.67847060E+00 0.74782399E+03</pdfrwt>
<pdfrwt beam="2">  1       -2 0.48773177E-02 0.74782399E+03</pdfrwt>
<totfact> 0.36315917E+01</totfact>
</mgrwt>
</event>
<event>
 4    1  0.6122885E-004  0.2365651E+03  0.7818608E-02  0.1122102E+00
          2   -1    0    0  501    0  0.00000000000E+00  0.00000000000E+00  0.49584760113E+02  0.49584760179E+02  0.25500000000E-02 0.  1.
         -2   -1    0    0    0  501 -0.00000000000E+00 -0.00000000000E+00 -0.28215843058E+03  0.28215843060E+03  0.25500000000E-02 0. -1.
    5000001    1    1    2    0    0  0.51697607360E+02  0.54988139014E+02 -0.18449015847E+03  0.21368658501E+03  0.77000000000E+02 0.  0.
   -5000001    1    1    2    0    0 -0.51697607360E+02 -0.54988139014E+02 -0.48083511998E+02  0.11805660577E+03  0.77000000000E+02 0.  0.
<mgrwt>
<rscale>  0 0.23656507E+03</rscale>
<asrwt>0</asrwt>
<pdfrwt beam="1">  1        2 0.76284248E-02 0.23656507E+03</pdfrwt>
<pdfrwt beam="2">  1       -2 0.43408988E-01 0.23656507E+03</pdfrwt>
<totfact> 0.45335780E+03</totfact>
</mgrwt>
</event>
<event>
 4    1  0.6122885E-004  0.3236463E+03  0.7818608E-02  0.1073983E+00
          2   -1    0    0  501    0  0.00000000000E+00  0.00000000000E+00  0.86905067993E+03  0.86905067994E+03  0.25500000000E-02 0.  1.
         -2   -1    0    0    0  501 -0.00000000000E+00 -0.00000000000E+00 -0.30132564341E+02  0.30132564448E+02  0.25500000000E-02 0. -1.
    5000001    1    1    2    0    0 -0.13326592781E+03  0.58899221111E+01  0.28156999523E+03  0.32094417102E+03  0.77000000000E+02 0.  0.
   -5000001    1    1    2    0    0  0.13326592781E+03 -0.58899221111E+01  0.55734812036E+03  0.57823907336E+03  0.77000000000E+02 0.  0.
<mgrwt>
<rscale>  0 0.32364626E+03</rscale>
<asrwt>0</asrwt>
<pdfrwt beam="1">  1        2 0.13370009E+00 0.32364626E+03</pdfrwt>
<pdfrwt beam="2">  1       -2 0.46357797E-02 0.32364626E+03</pdfrwt>
<totfact> 0.70153784E+03</totfact>
</mgrwt>
</event>
<event>
 4    1  0.6122885E-004  0.2742906E+03  0.7818608E-02  0.1098849E+00
         -2   -1    0    0    0  501 -0.00000000000E+00  0.00000000000E+00  0.26397681818E+02  0.26397681941E+02  0.25500000000E-02 0. -1.
          2   -1    0    0  501    0  0.00000000000E+00 -0.00000000000E+00 -0.71251824199E+03  0.71251824199E+03  0.25500000000E-02 0.  1.
    5000001    1    1    2    0    0  0.92153757295E+02 -0.54899313006E+02 -0.24321876255E+03  0.27675009667E+03  0.77000000000E+02 0.  0.
   -5000001    1    1    2    0    0 -0.92153757295E+02  0.54899313006E+02 -0.44290179762E+03  0.46216582726E+03  0.77000000000E+02 0.  0.
<mgrwt>
<rscale>  0 0.27429058E+03</rscale>
<asrwt>0</asrwt>
<pdfrwt beam="1">  1        2 0.10961818E+00 0.27429058E+03</pdfrwt>
<pdfrwt beam="2">  1       -2 0.40611824E-02 0.27429058E+03</pdfrwt>
<totfact> 0.10978140E+04</totfact>
</mgrwt>
</event>
<event>
 4    1  0.6122885E-004  0.3144174E+03  0.7818608E-02  0.1078248E+00
          2   -1    0    0  501    0  0.00000000000E+00  0.00000000000E+00  0.12592409756E+04  0.12592409756E+04  0.25500000000E-02 0.  1.
         -2   -1    0    0    0  501 -0.00000000000E+00 -0.00000000000E+00 -0.19626563807E+02  0.19626563973E+02  0.25500000000E-02 0. -1.
    5000001    1    1    2    0    0 -0.13549626787E+03 -0.66987592723E+01  0.69924814226E+03  0.71643637291E+03  0.77000000000E+02 0.  0.
   -5000001    1    1    2    0    0  0.13549626787E+03  0.66987592723E+01  0.54036626956E+03  0.56243116668E+03  0.77000000000E+02 0.  0.
<mgrwt>
<rscale>  0 0.31441739E+03</rscale>
<asrwt>0</asrwt>
<pdfrwt beam="1">  1        2 0.19372938E+00 0.31441739E+03</pdfrwt>
<pdfrwt beam="2">  1       -2 0.30194714E-02 0.31441739E+03</pdfrwt>
<totfact> 0.77766378E+03</totfact>
</mgrwt>
</event>
<event>
 4    1  0.6122885E-004  0.1763365E+03  0.7818608E-02  0.1171396E+00
          2   -1    0    0  501    0  0.00000000000E+00  0.00000000000E+00  0.14260404905E+03  0.14260404907E+03  0.25500000000E-02 0.  1.
         -2   -1    0    0    0  501 -0.00000000000E+00 -0.00000000000E+00 -0.54512073011E+02  0.54512073070E+02  0.25500000000E-02 0. -1.
    5000001    1    1    2    0    0 -0.41229411079E+02  0.10273420143E+02  0.37044089252E+02  0.95428884767E+02  0.77000000000E+02 0.  0.
   -5000001    1    1    2    0    0  0.41229411079E+02 -0.10273420143E+02  0.51047886783E+02  0.10168723737E+03  0.77000000000E+02 0.  0.
<mgrwt>
<rscale>  0 0.17633652E+03</rscale>
<asrwt>0</asrwt>
<pdfrwt beam="1">  1        2 0.21939084E-01 0.17633652E+03</pdfrwt>
<pdfrwt beam="2">  1       -2 0.83864728E-02 0.17633652E+03</pdfrwt>
<totfact> 0.20840889E+04</totfact>
</mgrwt>
</event>
<event>
 4    1  0.6122885E-004  0.2743432E+03  0.7818608E-02  0.1098819E+00
         -2   -1    0    0    0  501 -0.00000000000E+00  0.00000000000E+00  0.86151910270E+01  0.86151914044E+01  0.25500000000E-02 0. -1.
          2   -1    0    0  501    0  0.00000000000E+00 -0.00000000000E+00 -0.21840553384E+04  0.21840553384E+04  0.25500000000E-02 0.  1.
    5000001    1    1    2    0    0 -0.10665593916E+03  0.38341573034E+01 -0.13969420220E+04  0.14031272939E+04  0.77000000000E+02 0.  0.
   -5000001    1    1    2    0    0  0.10665593916E+03 -0.38341573034E+01 -0.77849812539E+03  0.78954323590E+03  0.77000000000E+02 0.  0.
<mgrwt>
<rscale>  0 0.27434325E+03</rscale>
<asrwt>0</asrwt>
<pdfrwt beam="1">  1        2 0.33600807E+00 0.27434325E+03</pdfrwt>
<pdfrwt beam="2">  1       -2 0.13254158E-02 0.27434325E+03</pdfrwt>
<totfact> 0.83954444E+03</totfact>
</mgrwt>
</event>
<event>
 4    1  0.6122885E-004  0.2710780E+03  0.7818608E-02  0.1100664E+00
          2   -1    0    0  501    0  0.00000000000E+00  0.00000000000E+00  0.31863548407E+04  0.31863548407E+04  0.25500000000E-02 0.  1.
         -2   -1    0    0    0  501 -0.00000000000E+00 -0.00000000000E+00 -0.57654636224E+01  0.57654641863E+01  0.25500000000E-02 0. -1.
    5000001    1    1    2    0    0 -0.65410417954E+02 -0.89117327060E+02  0.17655079859E+04  0.17706405251E+04  0.77000000000E+02 0.  0.
   -5000001    1    1    2    0    0  0.65410417954E+02  0.89117327060E+02  0.14150813911E+04  0.14214797798E+04  0.77000000000E+02 0.  0.
<mgrwt>
<rscale>  0 0.27107795E+03</rscale>
<asrwt>0</asrwt>
<pdfrwt beam="1">  1        2 0.49020886E+00 0.27107795E+03</pdfrwt>
<pdfrwt beam="2">  1       -2 0.88699367E-03 0.27107795E+03</pdfrwt>
<totfact> 0.40817054E+03</totfact>
</mgrwt>
</event>
<event>
 4    1  0.6122885E-004  0.2402764E+03  0.7818608E-02  0.1119609E+00
          2   -1    0    0  501    0  0.00000000000E+00  0.00000000000E+00  0.91229563655E+02  0.91229563691E+02  0.25500000000E-02 0.  1.
         -2   -1    0    0    0  501 -0.00000000000E+00 -0.00000000000E+00 -0.15820739958E+03  0.15820739960E+03  0.25500000000E-02 0. -1.
    5000001    1    1    2    0    0  0.27865335373E+02  0.84369807759E+02 -0.59117164667E+02  0.13160007802E+03  0.77000000000E+02 0.  0.
   -5000001    1    1    2    0    0 -0.27865335373E+02 -0.84369807759E+02 -0.78606712524E+01  0.11783688527E+03  0.77000000000E+02 0.  0.
<mgrwt>
<rscale>  0 0.24027644E+03</rscale>
<asrwt>0</asrwt>
<pdfrwt beam="1">  1        2 0.14035317E-01 0.24027644E+03</pdfrwt>
<pdfrwt beam="2">  1       -2 0.24339600E-01 0.24027644E+03</pdfrwt>
<totfact> 0.61968941E+03</totfact>
</mgrwt>
</event>
<event>
 4    1  0.6122885E-004  0.2512747E+03  0.7818608E-02  0.1112502E+00
         -2   -1    0    0    0  501 -0.00000000000E+00  0.00000000000E+00  0.86288805561E+02  0.86288805598E+02  0.25500000000E-02 0. -1.
          2   -1    0    0  501    0  0.00000000000E+00 -0.00000000000E+00 -0.18292924258E+03  0.18292924260E+03  0.25500000000E-02 0.  1.
    5000001    1    1    2    0    0  0.87121945518E+02  0.40939889055E+02 -0.74332259157E+02  0.14394649234E+03  0.77000000000E+02 0.  0.
   -5000001    1    1    2    0    0 -0.87121945518E+02 -0.40939889055E+02 -0.22308177864E+02  0.12527155585E+03  0.77000000000E+02 0.  0.
<mgrwt>
<rscale>  0 0.25127472E+03</rscale>
<asrwt>0</asrwt>
<pdfrwt beam="1">  1        2 0.28142960E-01 0.25127472E+03</pdfrwt>
<pdfrwt beam="2">  1       -2 0.13275201E-01 0.25127472E+03</pdfrwt>
<totfact> 0.77825863E+03</totfact>
</mgrwt>
</event>
<event>
 4    1  0.6122885E-004  0.5805575E+03  0.7818608E-02  0.9946585E-01
         -2   -1    0    0    0  501 -0.00000000000E+00  0.00000000000E+00  0.25614476258E+02  0.25614476385E+02  0.25500000000E-02 0.  1.
          2   -1    0    0  501    0  0.00000000000E+00 -0.00000000000E+00 -0.32896147284E+04  0.32896147284E+04  0.25500000000E-02 0. -1.
    5000001    1    1    2    0    0 -0.13317381167E+03  0.19911796295E+03 -0.80547614305E+03  0.84386257430E+03  0.77000000000E+02 0.  0.
   -5000001    1    1    2    0    0  0.13317381167E+03 -0.19911796295E+03 -0.24585241091E+04  0.24713666305E+04  0.77000000000E+02 0.  0.
<mgrwt>
<rscale>  0 0.58055752E+03</rscale>
<asrwt>0</asrwt>
<pdfrwt beam="1">  1        2 0.50609424E+00 0.58055752E+03</pdfrwt>
<pdfrwt beam="2">  1       -2 0.39406913E-02 0.58055752E+03</pdfrwt>
<totfact> 0.36785739E+02</totfact>
</mgrwt>
</event>
<event>
 4    1  0.6122885E-004  0.2679305E+03  0.7818608E-02  0.1102470E+00
         -2   -1    0    0    0  501 -0.00000000000E+00  0.00000000000E+00  0.31917014381E+03  0.31917014382E+03  0.25500000000E-02 0. -1.
          2   -1    0    0  501    0  0.00000000000E+00 -0.00000000000E+00 -0.56229204543E+02  0.56229204601E+02  0.25500000000E-02 0.  1.
    5000001    1    1    2    0    0  0.54334947575E+02 -0.74127326691E+02  0.47748749866E+02  0.12905847591E+03  0.77000000000E+02 0.  0.
   -5000001    1    1    2    0    0 -0.54334947575E+02  0.74127326691E+02  0.21519218940E+03  0.24634087251E+03  0.77000000000E+02 0.  0.
<mgrwt>
<rscale>  0 0.26793046E+03</rscale>
<asrwt>0</asrwt>
<pdfrwt beam="1">  1        2 0.86506467E-02 0.26793046E+03</pdfrwt>
<pdfrwt beam="2">  1       -2 0.49103100E-01 0.26793046E+03</pdfrwt>
<totfact> 0.30498028E+03</totfact>
</mgrwt>
</event>
<event>
 4    1  0.6122885E-004  0.1864710E+03  0.7818608E-02  0.1161683E+00
          2   -1    0    0  501    0  0.00000000000E+00  0.00000000000E+00  0.16388414497E+04  0.16388414497E+04  0.25500000000E-02 0.  1.
         -2   -1    0    0    0  501 -0.00000000000E+00 -0.00000000000E+00 -0.53042691543E+01  0.53042697672E+01  0.25500000000E-02 0. -1.
    5000001    1    1    2    0    0 -0.25738031149E+02 -0.45765581216E+02  0.79357092068E+03  0.79902486872E+03  0.77000000000E+02 0.  0.
   -5000001    1    1    2    0    0  0.25738031149E+02  0.45765581216E+02  0.83996625985E+03  0.84512085074E+03  0.77000000000E+02 0.  0.
<mgrwt>
<rscale>  0 0.18647098E+03</rscale>
<asrwt>0</asrwt>
<pdfrwt beam="1">  1        2 0.25212932E+00 0.18647098E+03</pdfrwt>
<pdfrwt beam="2">  1       -2 0.81604189E-03 0.18647098E+03</pdfrwt>
<totfact> 0.32269416E+04</totfact>
</mgrwt>
</event>
<event>
 4    1  0.6122885E-004  0.3032059E+03  0.7818608E-02  0.1083649E+00
         -2   -1    0    0    0  501 -0.00000000000E+00  0.00000000000E+00  0.99930924508E+03  0.99930924509E+03  0.25500000000E-02 0. -1.
          2   -1    0    0  501    0  0.00000000000E+00 -0.00000000000E+00 -0.22999341251E+02  0.22999341393E+02  0.25500000000E-02 0.  1.
    5000001    1    1    2    0    0 -0.11847106550E+03 -0.40873400053E+02  0.36434431542E+03  0.39291450517E+03  0.77000000000E+02 0.  0.
   -5000001    1    1    2    0    0  0.11847106550E+03  0.40873400053E+02  0.61196558841E+03  0.62939408131E+03  0.77000000000E+02 0.  0.
<mgrwt>
<rscale>  0 0.30320590E+03</rscale>
<asrwt>0</asrwt>
<pdfrwt beam="1">  1        2 0.35383610E-02 0.30320590E+03</pdfrwt>
<pdfrwt beam="2">  1       -2 0.15373985E+00 0.30320590E+03</pdfrwt>
<totfact> 0.74623555E+02</totfact>
</mgrwt>
</event>
<event>
 4    1  0.6122885E-004  0.2521544E+03  0.7818608E-02  0.1111951E+00
          2   -1    0    0  501    0  0.00000000000E+00  0.00000000000E+00  0.12878118641E+03  0.12878118644E+03  0.25500000000E-02 0.  1.
         -2   -1    0    0    0  501 -0.00000000000E+00 -0.00000000000E+00 -0.12342997258E+03  0.12342997260E+03  0.25500000000E-02 0. -1.
    5000001    1    1    2    0    0 -0.23672819549E+02  0.93717536328E+02  0.27642783991E+02  0.12663531304E+03  0.77000000000E+02 0.  0.
   -5000001    1    1    2    0    0  0.23672819549E+02 -0.93717536328E+02 -0.22291570154E+02  0.12557584601E+03  0.77000000000E+02 0.  0.
<mgrwt>
<rscale>  0 0.25215438E+03</rscale>
<asrwt>0</asrwt>
<pdfrwt beam="1">  1        2 0.19812490E-01 0.25215438E+03</pdfrwt>
<pdfrwt beam="2">  1       -2 0.18989227E-01 0.25215438E+03</pdfrwt>
<totfact> 0.63692063E+03</totfact>
</mgrwt>
</event>
<event>
 4    1  0.6122885E-004  0.4978808E+03  0.7818608E-02  0.1014334E+00
         -2   -1    0    0    0  501 -0.00000000000E+00  0.00000000000E+00  0.10758308237E+04  0.10758308237E+04  0.25500000000E-02 0. -1.
          2   -1    0    0  501    0  0.00000000000E+00 -0.00000000000E+00 -0.57603232716E+02  0.57603232773E+02  0.25500000000E-02 0.  1.
    5000001    1    1    2    0    0  0.15901296457E+03  0.16132602103E+03  0.66569984608E+03  0.70738708854E+03  0.77000000000E+02 0.  0.
   -5000001    1    1    2    0    0 -0.15901296457E+03 -0.16132602103E+03  0.35252774491E+03  0.42604696794E+03  0.77000000000E+02 0.  0.
<mgrwt>
<rscale>  0 0.49788084E+03</rscale>
<asrwt>0</asrwt>
<pdfrwt beam="1">  1        2 0.88620363E-02 0.49788084E+03</pdfrwt>
<pdfrwt beam="2">  1       -2 0.16551242E+00 0.49788084E+03</pdfrwt>
<totfact> 0.18179417E+02</totfact>
</mgrwt>
</event>
<event>
 4    1  0.6122885E-004  0.2024968E+03  0.7818608E-02  0.1147649E+00
          2   -1    0    0  501    0  0.00000000000E+00  0.00000000000E+00  0.31202470855E+04  0.31202470855E+04  0.25500000000E-02 0.  1.
         -2   -1    0    0    0  501 -0.00000000000E+00 -0.00000000000E+00 -0.32853915416E+01  0.32853925312E+01  0.25500000000E-02 0. -1.
    5000001    1    1    2    0    0 -0.59568767105E+02  0.16402779325E+02  0.19050295442E+04  0.19075859230E+04  0.77000000000E+02 0.  0.
   -5000001    1    1    2    0    0  0.59568767105E+02 -0.16402779325E+02  0.12119321497E+04  0.12159465550E+04  0.77000000000E+02 0.  0.
<mgrwt>
<rscale>  0 0.20249676E+03</rscale>
<asrwt>0</asrwt>
<pdfrwt beam="1">  1        2 0.48003796E+00 0.20249676E+03</pdfrwt>
<pdfrwt beam="2">  1       -2 0.50544499E-03 0.20249676E+03</pdfrwt>
<totfact> 0.10092612E+04</totfact>
</mgrwt>
</event>
<event>
 4    1  0.6122885E-004  0.1617666E+03  0.7818608E-02  0.1186717E+00
         -2   -1    0    0    0  501 -0.00000000000E+00  0.00000000000E+00  0.10476101604E+02  0.10476101914E+02  0.25500000000E-02 0. -1.
          2   -1    0    0  501    0  0.00000000000E+00 -0.00000000000E+00 -0.62447933120E+03  0.62447933121E+03  0.25500000000E-02 0.  1.
    5000001    1    1    2    0    0  0.12163491467E+01 -0.24334915503E+02 -0.32430847123E+03  0.33421348286E+03  0.77000000000E+02 0.  0.
   -5000001    1    1    2    0    0 -0.12163491467E+01  0.24334915503E+02 -0.28969475837E+03  0.30074195026E+03  0.77000000000E+02 0.  0.
<mgrwt>
<rscale>  0 0.16176661E+03</rscale>
<asrwt>0</asrwt>
<pdfrwt beam="1">  1        2 0.96073714E-01 0.16176661E+03</pdfrwt>
<pdfrwt beam="2">  1       -2 0.16117084E-02 0.16176661E+03</pdfrwt>
<totfact> 0.48460150E+04</totfact>
</mgrwt>
</event>
<event>
 4    1  0.6122885E-004  0.3162809E+03  0.7818608E-02  0.1077374E+00
         -2   -1    0    0    0  501 -0.00000000000E+00  0.00000000000E+00  0.46496740444E+02  0.46496740514E+02  0.25500000000E-02 0. -1.
          2   -1    0    0  501    0  0.00000000000E+00 -0.00000000000E+00 -0.53785285549E+03  0.53785285549E+03  0.25500000000E-02 0.  1.
    5000001    1    1    2    0    0 -0.74058214173E+02 -0.11659499274E+03 -0.24451949828E+03  0.29120061205E+03  0.77000000000E+02 0.  0.
   -5000001    1    1    2    0    0  0.74058214173E+02  0.11659499274E+03 -0.24683661676E+03  0.29314898395E+03  0.77000000000E+02 0.  0.
<mgrwt>
<rscale>  0 0.31628092E+03</rscale>
<asrwt>0</asrwt>
<pdfrwt beam="1">  1        2 0.82746589E-01 0.31628092E+03</pdfrwt>
<pdfrwt beam="2">  1       -2 0.71533451E-02 0.31628092E+03</pdfrwt>
<totfact> 0.64590521E+03</totfact>
</mgrwt>
</event>
<event>
 4    1  0.6122885E-004  0.3687121E+03  0.7818608E-02  0.1055186E+00
         -2   -1    0    0    0  501 -0.00000000000E+00  0.00000000000E+00  0.10032597884E+02  0.10032598208E+02  0.25500000000E-02 0. -1.
          2   -1    0    0  501    0  0.00000000000E+00 -0.00000000000E+00 -0.33876728063E+04  0.33876728063E+04  0.25500000000E-02 0.  1.
    5000001    1    1    2    0    0  0.16285357622E+03  0.82665981688E+01 -0.13356852889E+04  0.13478033295E+04  0.77000000000E+02 0.  0.
   -5000001    1    1    2    0    0 -0.16285357622E+03 -0.82665981688E+01 -0.20419549195E+04  0.20499020750E+04  0.77000000000E+02 0.  0.
<mgrwt>
<rscale>  0 0.36871213E+03</rscale>
<asrwt>0</asrwt>
<pdfrwt beam="1">  1        2 0.52117952E+00 0.36871213E+03</pdfrwt>
<pdfrwt beam="2">  1       -2 0.15434793E-02 0.36871213E+03</pdfrwt>
<totfact> 0.13383771E+03</totfact>
</mgrwt>
</event>
<event>
 4    1  0.6122885E-004  0.1772730E+03  0.7818608E-02  0.1170469E+00
          2   -1    0    0  501    0  0.00000000000E+00  0.00000000000E+00  0.23231672292E+04  0.23231672292E+04  0.25500000000E-02 0.  1.
         -2   -1    0    0    0  501 -0.00000000000E+00 -0.00000000000E+00 -0.33817730090E+01  0.33817739704E+01  0.25500000000E-02 0. -1.
    5000001    1    1    2    0    0  0.25571880106E+02  0.25727684553E+02  0.14844565408E+04  0.14868947697E+04  0.77000000000E+02 0.  0.
   -5000001    1    1    2    0    0 -0.25571880106E+02 -0.25727684553E+02  0.83532891546E+03  0.83965423348E+03  0.77000000000E+02 0.  0.
<mgrwt>
<rscale>  0 0.17727296E+03</rscale>
<asrwt>0</asrwt>
<pdfrwt beam="1">  1        2 0.35740942E+00 0.17727296E+03</pdfrwt>
<pdfrwt beam="2">  1       -2 0.52027418E-03 0.17727296E+03</pdfrwt>
<totfact> 0.27000409E+04</totfact>
</mgrwt>
</event>
<event>
 4    1  0.6122885E-004  0.4212526E+03  0.7818608E-02  0.1036659E+00
         -2   -1    0    0    0  501 -0.00000000000E+00  0.00000000000E+00  0.37613870411E+02  0.37613870498E+02  0.25500000000E-02 0. -1.
          2   -1    0    0  501    0  0.00000000000E+00 -0.00000000000E+00 -0.11794433694E+04  0.11794433694E+04  0.25500000000E-02 0.  1.
    5000001    1    1    2    0    0 -0.17487847276E+03 -0.33557175037E+02 -0.80785702284E+03  0.83082521242E+03  0.77000000000E+02 0.  0.
   -5000001    1    1    2    0    0  0.17487847276E+03  0.33557175037E+02 -0.33397247617E+03  0.38623202751E+03  0.77000000000E+02 0.  0.
<mgrwt>
<rscale>  0 0.42125256E+03</rscale>
<asrwt>0</asrwt>
<pdfrwt beam="1">  1        2 0.18145280E+00 0.42125256E+03</pdfrwt>
<pdfrwt beam="2">  1       -2 0.57867502E-02 0.42125256E+03</pdfrwt>
<totfact> 0.32212388E+03</totfact>
</mgrwt>
</event>
<event>
 4    1  0.6122885E-004  0.3234869E+03  0.7818608E-02  0.1074056E+00
         -2   -1    0    0    0  501 -0.00000000000E+00  0.00000000000E+00  0.17659628729E+02  0.17659628913E+02  0.25500000000E-02 0.  1.
          2   -1    0    0  501    0  0.00000000000E+00 -0.00000000000E+00 -0.14813982394E+04  0.14813982394E+04  0.25500000000E-02 0. -1.
    5000001    1    1    2    0    0  0.77280157492E+02 -0.10582922278E+03 -0.47553010127E+03  0.49922933042E+03  0.77000000000E+02 0.  0.
   -5000001    1    1    2    0    0 -0.77280157492E+02  0.10582922278E+03 -0.98820850938E+03  0.99982853787E+03  0.77000000000E+02 0.  0.
<mgrwt>
<rscale>  0 0.32348690E+03</rscale>
<asrwt>0</asrwt>
<pdfrwt beam="1">  1        2 0.22790732E+00 0.32348690E+03</pdfrwt>
<pdfrwt beam="2">  1       -2 0.27168671E-02 0.32348690E+03</pdfrwt>
<totfact> 0.68740113E+03</totfact>
</mgrwt>
</event>
<event>
 4    1  0.6122885E-004  0.2989298E+03  0.7818608E-02  0.1085777E+00
          2   -1    0    0  501    0  0.00000000000E+00  0.00000000000E+00  0.71409668044E+03  0.71409668044E+03  0.25500000000E-02 0.  1.
         -2   -1    0    0    0  501 -0.00000000000E+00 -0.00000000000E+00 -0.31283938479E+02  0.31283938583E+02  0.25500000000E-02 0. -1.
    5000001    1    1    2    0    0  0.40035144804E+02 -0.10712317202E+03  0.19746073186E+03  0.24082758860E+03  0.77000000000E+02 0.  0.
   -5000001    1    1    2    0    0 -0.40035144804E+02  0.10712317202E+03  0.48535201010E+03  0.50455303043E+03  0.77000000000E+02 0.  0.
<mgrwt>
<rscale>  0 0.29892980E+03</rscale>
<asrwt>0</asrwt>
<pdfrwt beam="1">  1        2 0.10986102E+00 0.29892980E+03</pdfrwt>
<pdfrwt beam="2">  1       -2 0.48129141E-02 0.29892980E+03</pdfrwt>
<totfact> 0.84917607E+03</totfact>
</mgrwt>
</event>
<event>
 4    1  0.6122885E-004  0.2449232E+03  0.7818608E-02  0.1116556E+00
         -2   -1    0    0    0  501 -0.00000000000E+00  0.00000000000E+00  0.88159886770E+01  0.88159890458E+01  0.25500000000E-02 0. -1.
          2   -1    0    0  501    0  0.00000000000E+00 -0.00000000000E+00 -0.17010956991E+04  0.17010956991E+04  0.25500000000E-02 0.  1.
    5000001    1    1    2    0    0  0.79807745991E+02  0.49744415158E+02 -0.74163809267E+03  0.75153166511E+03  0.77000000000E+02 0.  0.
   -5000001    1    1    2    0    0 -0.79807745991E+02 -0.49744415158E+02 -0.95064161779E+03  0.95838002308E+03  0.77000000000E+02 0.  0.
<mgrwt>
<rscale>  0 0.24492318E+03</rscale>
<asrwt>0</asrwt>
<pdfrwt beam="1">  1        2 0.26170677E+00 0.24492318E+03</pdfrwt>
<pdfrwt beam="2">  1       -2 0.13563073E-02 0.24492318E+03</pdfrwt>
<totfact> 0.14534304E+04</totfact>
</mgrwt>
</event>
<event>
 4    1  0.6122885E-004  0.3050203E+03  0.7818608E-02  0.1082758E+00
         -2   -1    0    0    0  501 -0.00000000000E+00  0.00000000000E+00  0.66975278634E+01  0.66975283488E+01  0.25500000000E-02 0. -1.
          2   -1    0    0  501    0  0.00000000000E+00 -0.00000000000E+00 -0.34728258646E+04  0.34728258646E+04  0.25500000000E-02 0.  1.
    5000001    1    1    2    0    0  0.10627976112E+03  0.10870121707E+02 -0.26105386491E+04  0.26138581801E+04  0.77000000000E+02 0.  0.
   -5000001    1    1    2    0    0 -0.10627976112E+03 -0.10870121707E+02 -0.85558968764E+03  0.86566521286E+03  0.77000000000E+02 0.  0.
<mgrwt>
<rscale>  0 0.30502032E+03</rscale>
<asrwt>0</asrwt>
<pdfrwt beam="1">  1        2 0.53427946E+00 0.30502032E+03</pdfrwt>
<pdfrwt beam="2">  1       -2 0.10303917E-02 0.30502032E+03</pdfrwt>
<totfact> 0.21482678E+03</totfact>
</mgrwt>
</event>
<event>
 4    1  0.6122885E-004  0.2125575E+03  0.7818608E-02  0.1139557E+00
          2   -1    0    0  501    0  0.00000000000E+00  0.00000000000E+00  0.25857306508E+04  0.25857306508E+04  0.25500000000E-02 0.  1.
         -2   -1    0    0    0  501 -0.00000000000E+00 -0.00000000000E+00 -0.43682704456E+01  0.43682711898E+01  0.25500000000E-02 0. -1.
    5000001    1    1    2    0    0 -0.73079292660E+02  0.66545717978E+00  0.13517857355E+04  0.13559478974E+04  0.77000000000E+02 0.  0.
   -5000001    1    1    2    0    0  0.73079292660E+02 -0.66545717978E+00  0.12295766449E+04  0.12341510246E+04  0.77000000000E+02 0.  0.
<mgrwt>
<rscale>  0 0.21255749E+03</rscale>
<asrwt>0</asrwt>
<pdfrwt beam="1">  1        2 0.39780566E+00 0.21255749E+03</pdfrwt>
<pdfrwt beam="2">  1       -2 0.67204007E-03 0.21255749E+03</pdfrwt>
<totfact> 0.13589902E+04</totfact>
</mgrwt>
</event>
<event>
 4    1  0.6122885E-004  0.2747196E+03  0.7818608E-02  0.1098608E+00
         -2   -1    0    0    0  501 -0.00000000000E+00  0.00000000000E+00  0.10435010998E+04  0.10435010998E+04  0.25500000000E-02 0. -1.
          2   -1    0    0  501    0  0.00000000000E+00 -0.00000000000E+00 -0.18081170384E+02  0.18081170564E+02  0.25500000000E-02 0.  1.
    5000001    1    1    2    0    0 -0.91917471083E+02 -0.66951294873E+02  0.52323879422E+03  0.54096130467E+03  0.77000000000E+02 0.  0.
   -5000001    1    1    2    0    0  0.91917471083E+02  0.66951294873E+02  0.50218113523E+03  0.52062096573E+03  0.77000000000E+02 0.  0.
<mgrwt>
<rscale>  0 0.27471965E+03</rscale>
<asrwt>0</asrwt>
<pdfrwt beam="1">  1        2 0.27817180E-02 0.27471965E+03</pdfrwt>
<pdfrwt beam="2">  1       -2 0.16053866E+00 0.27471965E+03</pdfrwt>
<totfact> 0.92223547E+02</totfact>
</mgrwt>
</event>
<event>
 4    1  0.6122885E-004  0.2666924E+03  0.7818608E-02  0.1103188E+00
         -2   -1    0    0    0  501 -0.00000000000E+00  0.00000000000E+00  0.11807403753E+02  0.11807404028E+02  0.25500000000E-02 0. -1.
          2   -1    0    0  501    0  0.00000000000E+00 -0.00000000000E+00 -0.15059368440E+04  0.15059368440E+04  0.25500000000E-02 0.  1.
    5000001    1    1    2    0    0  0.46652133644E+02  0.68894403714E+02 -0.11466252493E+04  0.11522158317E+04  0.77000000000E+02 0.  0.
   -5000001    1    1    2    0    0 -0.46652133644E+02 -0.68894403714E+02 -0.34750419098E+03  0.36552841639E+03  0.77000000000E+02 0.  0.
<mgrwt>
<rscale>  0 0.26669237E+03</rscale>
<asrwt>0</asrwt>
<pdfrwt beam="1">  1        2 0.23168244E+00 0.26669237E+03</pdfrwt>
<pdfrwt beam="2">  1       -2 0.18165249E-02 0.26669237E+03</pdfrwt>
<totfact> 0.12053434E+04</totfact>
</mgrwt>
</event>
<event>
 4    1  0.6122885E-004  0.2396083E+03  0.7818608E-02  0.1120054E+00
          2   -1    0    0  501    0  0.00000000000E+00  0.00000000000E+00  0.24043498800E+04  0.24043498800E+04  0.25500000000E-02 0.  1.
         -2   -1    0    0    0  501 -0.00000000000E+00 -0.00000000000E+00 -0.59696092271E+01  0.59696097717E+01  0.25500000000E-02 0. -1.
    5000001    1    1    2    0    0 -0.64490850298E+02 -0.56090255128E+02  0.86271151607E+03  0.87034783073E+03  0.77000000000E+02 0.  0.
   -5000001    1    1    2    0    0  0.64490850298E+02  0.56090255128E+02  0.15356687547E+04  0.15399716590E+04  0.77000000000E+02 0.  0.
<mgrwt>
<rscale>  0 0.23960826E+03</rscale>
<asrwt>0</asrwt>
<pdfrwt beam="1">  1        2 0.36990057E+00 0.23960826E+03</pdfrwt>
<pdfrwt beam="2">  1       -2 0.91840001E-03 0.23960826E+03</pdfrwt>
<totfact> 0.10893062E+04</totfact>
</mgrwt>
</event>
<event>
 4    1  0.6122885E-004  0.2564836E+03  0.7818608E-02  0.1109275E+00
         -2   -1    0    0    0  501 -0.00000000000E+00  0.00000000000E+00  0.11835071577E+03  0.11835071580E+03  0.25500000000E-02 0. -1.
          2   -1    0    0  501    0  0.00000000000E+00 -0.00000000000E+00 -0.13895950407E+03  0.13895950409E+03  0.25500000000E-02 0.  1.
    5000001    1    1    2    0    0 -0.21122247835E+02 -0.99461461952E+02  0.30887267945E+01  0.12758241258E+03  0.77000000000E+02 0.  0.
   -5000001    1    1    2    0    0  0.21122247835E+02  0.99461461952E+02 -0.23697515095E+02  0.12972780731E+03  0.77000000000E+02 0.  0.
<mgrwt>
<rscale>  0 0.25648358E+03</rscale>
<asrwt>0</asrwt>
<pdfrwt beam="1">  1        2 0.21378385E-01 0.25648358E+03</pdfrwt>
<pdfrwt beam="2">  1       -2 0.18207802E-01 0.25648358E+03</pdfrwt>
<totfact> 0.62751174E+03</totfact>
</mgrwt>
</event>
<event>
 4    1  0.6122885E-004  0.1857685E+03  0.7818608E-02  0.1162334E+00
         -2   -1    0    0    0  501 -0.00000000000E+00  0.00000000000E+00  0.17421055866E+02  0.17421056053E+02  0.25500000000E-02 0. -1.
          2   -1    0    0  501    0  0.00000000000E+00 -0.00000000000E+00 -0.49523307116E+03  0.49523307117E+03  0.25500000000E-02 0.  1.
    5000001    1    1    2    0    0  0.24064860599E+02 -0.20467839606E+02 -0.35270336505E+03  0.36239027814E+03  0.77000000000E+02 0.  0.
   -5000001    1    1    2    0    0 -0.24064860599E+02  0.20467839606E+02 -0.12510865025E+03  0.15026384908E+03  0.77000000000E+02 0.  0.
<mgrwt>
<rscale>  0 0.18576849E+03</rscale>
<asrwt>0</asrwt>
<pdfrwt beam="1">  1        2 0.76189693E-01 0.18576849E+03</pdfrwt>
<pdfrwt beam="2">  1       -2 0.26801628E-02 0.18576849E+03</pdfrwt>
<totfact> 0.30330468E+04</totfact>
</mgrwt>
</event>
<event>
 4    1  0.6122885E-004  0.1811083E+03  0.7818608E-02  0.1166735E+00
          2   -1    0    0  501    0  0.00000000000E+00  0.00000000000E+00  0.67207427241E+03  0.67207427242E+03  0.25500000000E-02 0.  1.
         -2   -1    0    0    0  501 -0.00000000000E+00 -0.00000000000E+00 -0.12201112824E+02  0.12201113090E+02  0.25500000000E-02 0. -1.
    5000001    1    1    2    0    0  0.83210587992E+01 -0.33133791721E+02  0.20439996857E+03  0.22107789424E+03  0.77000000000E+02 0.  0.
   -5000001    1    1    2    0    0 -0.83210587992E+01  0.33133791721E+02  0.45547319102E+03  0.46319749126E+03  0.77000000000E+02 0.  0.
<mgrwt>
<rscale>  0 0.18110830E+03</rscale>
<asrwt>0</asrwt>
<pdfrwt beam="1">  1        2 0.10339604E+00 0.18110830E+03</pdfrwt>
<pdfrwt beam="2">  1       -2 0.18770943E-02 0.18110830E+03</pdfrwt>
<totfact> 0.35997675E+04</totfact>
</mgrwt>
</event>
<event>
 4    1  0.6122885E-004  0.2779616E+03  0.7818608E-02  0.1096807E+00
          2   -1    0    0  501    0  0.00000000000E+00  0.00000000000E+00  0.12600993235E+04  0.12600993235E+04  0.25500000000E-02 0.  1.
         -2   -1    0    0    0  501 -0.00000000000E+00 -0.00000000000E+00 -0.15328687569E+02  0.15328687781E+02  0.25500000000E-02 0. -1.
    5000001    1    1    2    0    0 -0.89616308917E+02  0.72612345841E+02  0.66419698034E+03  0.67852064397E+03  0.77000000000E+02 0.  0.
   -5000001    1    1    2    0    0  0.89616308917E+02 -0.72612345841E+02  0.58057365556E+03  0.59690736729E+03  0.77000000000E+02 0.  0.
<mgrwt>
<rscale>  0 0.27796164E+03</rscale>
<asrwt>0</asrwt>
<pdfrwt beam="1">  1        2 0.19386147E+00 0.27796164E+03</pdfrwt>
<pdfrwt beam="2">  1       -2 0.23582593E-02 0.27796164E+03</pdfrwt>
<totfact> 0.11186843E+04</totfact>
</mgrwt>
</event>
<event>
 4    1  0.6122885E-004  0.1938042E+03  0.7818608E-02  0.1155074E+00
         -2   -1    0    0    0  501 -0.00000000000E+00  0.00000000000E+00  0.19595665966E+02  0.19595666132E+02  0.25500000000E-02 0. -1.
          2   -1    0    0  501    0  0.00000000000E+00 -0.00000000000E+00 -0.47918854227E+03  0.47918854227E+03  0.25500000000E-02 0.  1.
    5000001    1    1    2    0    0 -0.36638388349E+02  0.44652915041E+02 -0.20104929505E+03  0.22290373115E+03  0.77000000000E+02 0.  0.
   -5000001    1    1    2    0    0  0.36638388349E+02 -0.44652915041E+02 -0.25854358125E+03  0.27588047725E+03  0.77000000000E+02 0.  0.
<mgrwt>
<rscale>  0 0.19380422E+03</rscale>
<asrwt>0</asrwt>
<pdfrwt beam="1">  1        2 0.73721305E-01 0.19380422E+03</pdfrwt>
<pdfrwt beam="2">  1       -2 0.30147182E-02 0.19380422E+03</pdfrwt>
<totfact> 0.26530636E+04</totfact>
</mgrwt>
</event>
<event>
 4    1  0.6122885E-004  0.1563934E+03  0.7818608E-02  0.1192830E+00
          2   -1    0    0  501    0  0.00000000000E+00  0.00000000000E+00  0.27233028689E+04  0.27233028689E+04  0.25500000000E-02 0.  1.
         -2   -1    0    0    0  501 -0.00000000000E+00 -0.00000000000E+00 -0.22453339875E+01  0.22453354355E+01  0.25500000000E-02 0. -1.
    5000001    1    1    2    0    0  0.65510280581E+01  0.11806866659E+02  0.13927031611E+04  0.13948954846E+04  0.77000000000E+02 0.  0.
   -5000001    1    1    2    0    0 -0.65510280581E+01 -0.11806866659E+02  0.13283543738E+04  0.13306527197E+04  0.77000000000E+02 0.  0.
<mgrwt>
<rscale>  0 0.15639343E+03</rscale>
<asrwt>0</asrwt>
<pdfrwt beam="1">  1        2 0.41896985E+00 0.15639343E+03</pdfrwt>
<pdfrwt beam="2">  1       -2 0.34543596E-03 0.15639343E+03</pdfrwt>
<totfact> 0.29200314E+04</totfact>
</mgrwt>
</event>
<event>
 4    1  0.6122885E-004  0.3011546E+03  0.7818608E-02  0.1084665E+00
         -2   -1    0    0    0  501 -0.00000000000E+00  0.00000000000E+00  0.37135857521E+02  0.37135857608E+02  0.25500000000E-02 0. -1.
          2   -1    0    0  501    0  0.00000000000E+00 -0.00000000000E+00 -0.61055612314E+03  0.61055612314E+03  0.25500000000E-02 0.  1.
    5000001    1    1    2    0    0 -0.40633677820E+02  0.12257222582E+03 -0.26878322016E+03  0.30797478104E+03  0.77000000000E+02 0.  0.
   -5000001    1    1    2    0    0  0.40633677820E+02 -0.12257222582E+03 -0.30463704546E+03  0.33971719971E+03  0.77000000000E+02 0.  0.
<mgrwt>
<rscale>  0 0.30115461E+03</rscale>
<asrwt>0</asrwt>
<pdfrwt beam="1">  1        2 0.93931704E-01 0.30115461E+03</pdfrwt>
<pdfrwt beam="2">  1       -2 0.57132093E-02 0.30115461E+03</pdfrwt>
<totfact> 0.78852248E+03</totfact>
</mgrwt>
</event>
<event>
 4    1  0.6122885E-004  0.2514992E+03  0.7818608E-02  0.1112361E+00
         -2   -1    0    0    0  501 -0.00000000000E+00  0.00000000000E+00  0.32138911556E+02  0.32138911658E+02  0.25500000000E-02 0. -1.
          2   -1    0    0  501    0  0.00000000000E+00 -0.00000000000E+00 -0.49201914155E+03  0.49201914156E+03  0.25500000000E-02 0.  1.
    5000001    1    1    2    0    0 -0.70790838855E+02  0.67926523488E+02 -0.19642478432E+03  0.23267370147E+03  0.77000000000E+02 0.  0.
   -5000001    1    1    2    0    0  0.70790838855E+02 -0.67926523488E+02 -0.26345544568E+03  0.29148435175E+03  0.77000000000E+02 0.  0.
<mgrwt>
<rscale>  0 0.25149918E+03</rscale>
<asrwt>0</asrwt>
<pdfrwt beam="1">  1        2 0.75695247E-01 0.25149918E+03</pdfrwt>
<pdfrwt beam="2">  1       -2 0.49444483E-02 0.25149918E+03</pdfrwt>
<totfact> 0.12484078E+04</totfact>
</mgrwt>
</event>
<event>
 4    1  0.6122885E-004  0.2036828E+03  0.7818608E-02  0.1146668E+00
          2   -1    0    0  501    0  0.00000000000E+00  0.00000000000E+00  0.24242165846E+02  0.24242165980E+02  0.25500000000E-02 0.  1.
         -2   -1    0    0    0  501 -0.00000000000E+00 -0.00000000000E+00 -0.42783615266E+03  0.42783615267E+03  0.25500000000E-02 0. -1.
    5000001    1    1    2    0    0  0.56562001617E+02  0.33158740310E+02 -0.17517079786E+03  0.20226856036E+03  0.77000000000E+02 0.  0.
   -5000001    1    1    2    0    0 -0.56562001617E+02 -0.33158740310E+02 -0.22842318895E+03  0.24980975829E+03  0.77000000000E+02 0.  0.
<mgrwt>
<rscale>  0 0.20368284E+03</rscale>
<asrwt>0</asrwt>
<pdfrwt beam="1">  1        2 0.37295643E-02 0.20368284E+03</pdfrwt>
<pdfrwt beam="2">  1       -2 0.65820941E-01 0.20368284E+03</pdfrwt>
<totfact> 0.49560262E+03</totfact>
</mgrwt>
</event>
<event>
 4    1  0.6122885E-004  0.4035929E+03  0.7818608E-02  0.1042543E+00
         -2   -1    0    0    0  501 -0.00000000000E+00  0.00000000000E+00  0.25718682573E+02  0.25718682699E+02  0.25500000000E-02 0. -1.
          2   -1    0    0  501    0  0.00000000000E+00 -0.00000000000E+00 -0.15833551080E+04  0.15833551080E+04  0.25500000000E-02 0.  1.
    5000001    1    1    2    0    0 -0.14128472336E+03  0.31774816104E+02 -0.12475394958E+04  0.12582745350E+04  0.77000000000E+02 0.  0.
   -5000001    1    1    2    0    0  0.14128472336E+03 -0.31774816104E+02 -0.31009692962E+03  0.35079925563E+03  0.77000000000E+02 0.  0.
<mgrwt>
<rscale>  0 0.40359290E+03</rscale>
<asrwt>0</asrwt>
<pdfrwt beam="1">  1        2 0.24359302E+00 0.40359290E+03</pdfrwt>
<pdfrwt beam="2">  1       -2 0.39567217E-02 0.40359290E+03</pdfrwt>
<totfact> 0.34405254E+03</totfact>
</mgrwt>
</event>
<event>
 4    1  0.6122885E-004  0.2026811E+03  0.7818608E-02  0.1147496E+00
         -2   -1    0    0    0  501 -0.00000000000E+00  0.00000000000E+00  0.49829691015E+01  0.49829697540E+01  0.25500000000E-02 0. -1.
          2   -1    0    0  501    0  0.00000000000E+00 -0.00000000000E+00 -0.20610014044E+04  0.20610014044E+04  0.25500000000E-02 0.  1.
    5000001    1    1    2    0    0 -0.27348871034E+02  0.55950462346E+02 -0.80879642344E+03  0.81483683615E+03  0.77000000000E+02 0.  0.
   -5000001    1    1    2    0    0  0.27348871034E+02 -0.55950462346E+02 -0.12472220118E+04  0.12511475380E+04  0.77000000000E+02 0.  0.
<mgrwt>
<rscale>  0 0.20268110E+03</rscale>
<asrwt>0</asrwt>
<pdfrwt beam="1">  1        2 0.31707646E+00 0.20268110E+03</pdfrwt>
<pdfrwt beam="2">  1       -2 0.76661233E-03 0.20268110E+03</pdfrwt>
<totfact> 0.21395550E+04</totfact>
</mgrwt>
</event>
<event>
 4    1  0.6122885E-004  0.2256378E+03  0.7818608E-02  0.1129748E+00
          2   -1    0    0  501    0  0.00000000000E+00  0.00000000000E+00  0.81962018897E+02  0.81962018937E+02  0.25500000000E-02 0.  1.
         -2   -1    0    0    0  501 -0.00000000000E+00 -0.00000000000E+00 -0.15529270776E+03  0.15529270778E+03  0.25500000000E-02 0. -1.
    5000001    1    1    2    0    0  0.24168784832E+02 -0.77777815105E+02 -0.23134847578E+02  0.11444535751E+03  0.77000000000E+02 0.  0.
   -5000001    1    1    2    0    0 -0.24168784832E+02  0.77777815105E+02 -0.50195841282E+02  0.12280936921E+03  0.77000000000E+02 0.  0.
<mgrwt>
<rscale>  0 0.22563780E+03</rscale>
<asrwt>0</asrwt>
<pdfrwt beam="1">  1        2 0.12609541E-01 0.22563780E+03</pdfrwt>
<pdfrwt beam="2">  1       -2 0.23891186E-01 0.22563780E+03</pdfrwt>
<totfact> 0.72571160E+03</totfact>
</mgrwt>
</event>
<event>
 4    1  0.6122885E-004  0.2744242E+03  0.7818608E-02  0.1098774E+00
          2   -1    0    0  501    0  0.00000000000E+00  0.00000000000E+00  0.52404893209E+03  0.52404893210E+03  0.25500000000E-02 0.  1.
         -2   -1    0    0    0  501 -0.00000000000E+00 -0.00000000000E+00 -0.35926340802E+02  0.35926340893E+02  0.25500000000E-02 0. -1.
    5000001    1    1    2    0    0 -0.11336613963E+03 -0.45690497119E+01  0.25434587720E+03  0.28895256199E+03  0.77000000000E+02 0.  0.
   -5000001    1    1    2    0    0  0.11336613963E+03  0.45690497119E+01  0.23377671409E+03  0.27102271100E+03  0.77000000000E+02 0.  0.
<mgrwt>
<rscale>  0 0.27442420E+03</rscale>
<asrwt>0</asrwt>
<pdfrwt beam="1">  1        2 0.80622909E-01 0.27442420E+03</pdfrwt>
<pdfrwt beam="2">  1       -2 0.55271296E-02 0.27442420E+03</pdfrwt>
<totfact> 0.98549551E+03</totfact>
</mgrwt>
</event>
<event>
 4    1  0.6122885E-004  0.2031236E+03  0.7818608E-02  0.1147130E+00
          2   -1    0    0  501    0  0.00000000000E+00  0.00000000000E+00  0.13673030616E+04  0.13673030616E+04  0.25500000000E-02 0.  1.
         -2   -1    0    0    0  501 -0.00000000000E+00 -0.00000000000E+00 -0.75438995630E+01  0.75438999940E+01  0.25500000000E-02 0. -1.
    5000001    1    1    2    0    0 -0.49596119939E+02 -0.26729835942E+02  0.91547266588E+03  0.92043112791E+03  0.77000000000E+02 0.  0.
   -5000001    1    1    2    0    0  0.49596119939E+02  0.26729835942E+02  0.44428649617E+03  0.45441583370E+03  0.77000000000E+02 0.  0.
<mgrwt>
<rscale>  0 0.20312358E+03</rscale>
<asrwt>0</asrwt>
<pdfrwt beam="1">  1        2 0.21035435E+00 0.20312358E+03</pdfrwt>
<pdfrwt beam="2">  1       -2 0.11605998E-02 0.20312358E+03</pdfrwt>
<totfact> 0.27176532E+04</totfact>
</mgrwt>
</event>
<event>
 4    1  0.6122885E-004  0.2041941E+03  0.7818608E-02  0.1146248E+00
          2   -1    0    0  501    0  0.00000000000E+00  0.00000000000E+00  0.36621313695E+03  0.36621313695E+03  0.25500000000E-02 0.  1.
         -2   -1    0    0    0  501 -0.00000000000E+00 -0.00000000000E+00 -0.28463772538E+02  0.28463772653E+02  0.25500000000E-02 0. -1.
    5000001    1    1    2    0    0 -0.20687238946E+02 -0.28082592801E+02  0.27954143209E+03  0.29204281557E+03  0.77000000000E+02 0.  0.
   -5000001    1    1    2    0    0  0.20687238946E+02  0.28082592801E+02  0.58207932321E+02  0.10263409404E+03  0.77000000000E+02 0.  0.
<mgrwt>
<rscale>  0 0.20419410E+03</rscale>
<asrwt>0</asrwt>
<pdfrwt beam="1">  1        2 0.56340473E-01 0.20419410E+03</pdfrwt>
<pdfrwt beam="2">  1       -2 0.43790427E-02 0.20419410E+03</pdfrwt>
<totfact> 0.20438627E+04</totfact>
</mgrwt>
</event>
<event>
 4    1  0.6122885E-004  0.2058679E+03  0.7818608E-02  0.1144881E+00
         -2   -1    0    0    0  501 -0.00000000000E+00  0.00000000000E+00  0.95963229667E+01  0.95963233055E+01  0.25500000000E-02 0. -1.
          2   -1    0    0  501    0  0.00000000000E+00 -0.00000000000E+00 -0.11041102270E+04  0.11041102270E+04  0.25500000000E-02 0.  1.
    5000001    1    1    2    0    0  0.63446506395E+02  0.98961301961E+00 -0.68411128398E+03  0.69134917905E+03  0.77000000000E+02 0.  0.
   -5000001    1    1    2    0    0 -0.63446506395E+02 -0.98961301961E+00 -0.41040262005E+03  0.42235737126E+03  0.77000000000E+02 0.  0.
<mgrwt>
<rscale>  0 0.20586790E+03</rscale>
<asrwt>0</asrwt>
<pdfrwt beam="1">  1        2 0.16986301E+00 0.20586790E+03</pdfrwt>
<pdfrwt beam="2">  1       -2 0.14763583E-02 0.20586790E+03</pdfrwt>
<totfact> 0.26910464E+04</totfact>
</mgrwt>
</event>
<event>
 4    1  0.6122885E-004  0.3134067E+03  0.7818608E-02  0.1078724E+00
          2   -1    0    0  501    0  0.00000000000E+00  0.00000000000E+00  0.15854536953E+03  0.15854536955E+03  0.25500000000E-02 0.  1.
         -2   -1    0    0    0  501 -0.00000000000E+00 -0.00000000000E+00 -0.15488270406E+03  0.15488270408E+03  0.25500000000E-02 0. -1.
    5000001    1    1    2    0    0  0.11786437567E+00 -0.51243753301E+02  0.12833502747E+03  0.15819233679E+03  0.77000000000E+02 0.  0.
   -5000001    1    1    2    0    0 -0.11786437567E+00  0.51243753301E+02 -0.12467236200E+03  0.15523573684E+03  0.77000000000E+02 0.  0.
<mgrwt>
<rscale>  0 0.31340667E+03</rscale>
<asrwt>0</asrwt>
<pdfrwt beam="1">  1        2 0.24391595E-01 0.31340667E+03</pdfrwt>
<pdfrwt beam="2">  1       -2 0.23828108E-01 0.31340667E+03</pdfrwt>
<totfact> 0.34244729E+03</totfact>
</mgrwt>
</event>
<event>
 4    1  0.6122885E-004  0.2564903E+03  0.7818608E-02  0.1109270E+00
         -2   -1    0    0    0  501 -0.00000000000E+00  0.00000000000E+00  0.28176161188E+02  0.28176161304E+02  0.25500000000E-02 0. -1.
          2   -1    0    0  501    0  0.00000000000E+00 -0.00000000000E+00 -0.58371390156E+03  0.58371390157E+03  0.25500000000E-02 0.  1.
    5000001    1    1    2    0    0  0.40957713598E+02 -0.93156689690E+02 -0.24739413000E+03  0.27836766819E+03  0.77000000000E+02 0.  0.
   -5000001    1    1    2    0    0 -0.40957713598E+02  0.93156689690E+02 -0.30814361038E+03  0.33352239468E+03  0.77000000000E+02 0.  0.
<mgrwt>
<rscale>  0 0.25649029E+03</rscale>
<asrwt>0</asrwt>
<pdfrwt beam="1">  1        2 0.89802130E-01 0.25649029E+03</pdfrwt>
<pdfrwt beam="2">  1       -2 0.43347945E-02 0.25649029E+03</pdfrwt>
<totfact> 0.12566319E+04</totfact>
</mgrwt>
</event>
<event>
 4    1  0.6122885E-004  0.2160173E+03  0.7818608E-02  0.1136888E+00
          2   -1    0    0  501    0  0.00000000000E+00  0.00000000000E+00  0.25874209129E+02  0.25874209254E+02  0.25500000000E-02 0.  1.
         -2   -1    0    0    0  501 -0.00000000000E+00 -0.00000000000E+00 -0.45086864145E+03  0.45086864145E+03  0.25500000000E-02 0. -1.
    5000001    1    1    2    0    0  0.61329873210E+02  0.44404766699E+02 -0.21676123000E+03  0.24217259854E+03  0.77000000000E+02 0.  0.
   -5000001    1    1    2    0    0 -0.61329873210E+02 -0.44404766699E+02 -0.20823320232E+03  0.23457025217E+03  0.77000000000E+02 0.  0.
<mgrwt>
<rscale>  0 0.21601731E+03</rscale>
<asrwt>0</asrwt>
<pdfrwt beam="1">  1        2 0.39806479E-02 0.21601731E+03</pdfrwt>
<pdfrwt beam="2">  1       -2 0.69364401E-01 0.21601731E+03</pdfrwt>
<totfact> 0.40785729E+03</totfact>
</mgrwt>
</event>
<event>
 4    1  0.6122885E-004  0.2393609E+03  0.7818608E-02  0.1120219E+00
          2   -1    0    0  501    0  0.00000000000E+00  0.00000000000E+00  0.27507946260E+03  0.27507946261E+03  0.25500000000E-02 0.  1.
         -2   -1    0    0    0  501 -0.00000000000E+00 -0.00000000000E+00 -0.52070085600E+02  0.52070085663E+02  0.25500000000E-02 0. -1.
    5000001    1    1    2    0    0  0.42984860877E+02  0.51884199619E+02  0.19636229920E+03  0.22142001035E+03  0.77000000000E+02 0.  0.
   -5000001    1    1    2    0    0 -0.42984860877E+02 -0.51884199619E+02  0.26647077796E+02  0.10572953792E+03  0.77000000000E+02 0.  0.
<mgrwt>
<rscale>  0 0.23936091E+03</rscale>
<asrwt>0</asrwt>
<pdfrwt beam="1">  1        2 0.42319919E-01 0.23936091E+03</pdfrwt>
<pdfrwt beam="2">  1       -2 0.80107821E-02 0.23936091E+03</pdfrwt>
<totfact> 0.11141634E+04</totfact>
</mgrwt>
</event>
<event>
 4    1  0.6122885E-004  0.1681632E+03  0.7818608E-02  0.1179777E+00
         -2   -1    0    0    0  501 -0.00000000000E+00  0.00000000000E+00  0.17067716457E+03  0.17067716459E+03  0.25500000000E-02 0. -1.
          2   -1    0    0  501    0  0.00000000000E+00 -0.00000000000E+00 -0.41421553439E+02  0.41421553518E+02  0.25500000000E-02 0.  1.
    5000001    1    1    2    0    0 -0.29299196107E+02  0.13100715434E+02  0.77894615286E+02  0.11413431880E+03  0.77000000000E+02 0.  0.
   -5000001    1    1    2    0    0  0.29299196107E+02 -0.13100715434E+02  0.51360995845E+02  0.97964399307E+02  0.77000000000E+02 0.  0.
<mgrwt>
<rscale>  0 0.16816317E+03</rscale>
<asrwt>0</asrwt>
<pdfrwt beam="1">  1        2 0.63725466E-02 0.16816317E+03</pdfrwt>
<pdfrwt beam="2">  1       -2 0.26258025E-01 0.16816317E+03</pdfrwt>
<totfact> 0.14125398E+04</totfact>
</mgrwt>
</event>
<event>
 4    1  0.6122885E-004  0.3122237E+03  0.7818608E-02  0.1079285E+00
         -2   -1    0    0    0  501 -0.00000000000E+00  0.00000000000E+00  0.54397837556E+02  0.54397837616E+02  0.25500000000E-02 0. -1.
          2   -1    0    0  501    0  0.00000000000E+00 -0.00000000000E+00 -0.44801235694E+03  0.44801235695E+03  0.25500000000E-02 0.  1.
    5000001    1    1    2    0    0 -0.52674362513E+02  0.98705575499E+02 -0.32066392326E+03  0.34824090912E+03  0.77000000000E+02 0.  0.
   -5000001    1    1    2    0    0  0.52674362513E+02 -0.98705575499E+02 -0.72950596124E+02  0.15416928545E+03  0.77000000000E+02 0.  0.
<mgrwt>
<rscale>  0 0.31222366E+03</rscale>
<asrwt>0</asrwt>
<pdfrwt beam="1">  1        2 0.68924976E-01 0.31222366E+03</pdfrwt>
<pdfrwt beam="2">  1       -2 0.83688984E-02 0.31222366E+03</pdfrwt>
<totfact> 0.62004830E+03</totfact>
</mgrwt>
</event>
<event>
 4    1  0.6122885E-004  0.3132466E+03  0.7818608E-02  0.1078800E+00
          2   -1    0    0  501    0  0.00000000000E+00  0.00000000000E+00  0.10793879635E+04  0.10793879635E+04  0.25500000000E-02 0.  1.
         -2   -1    0    0    0  501 -0.00000000000E+00 -0.00000000000E+00 -0.22726634667E+02  0.22726634810E+02  0.25500000000E-02 0. -1.
    5000001    1    1    2    0    0 -0.99295876921E+02  0.54729730001E+02  0.26161101207E+03  0.29533766464E+03  0.77000000000E+02 0.  0.
   -5000001    1    1    2    0    0  0.99295876921E+02 -0.54729730001E+02  0.79505031678E+03  0.80677693368E+03  0.77000000000E+02 0.  0.
<mgrwt>
<rscale>  0 0.31324659E+03</rscale>
<asrwt>0</asrwt>
<pdfrwt beam="1">  1        2 0.16605973E+00 0.31324659E+03</pdfrwt>
<pdfrwt beam="2">  1       -2 0.34964045E-02 0.31324659E+03</pdfrwt>
<totfact> 0.79289009E+03</totfact>
</mgrwt>
</event>
<event>
 4    1  0.6122885E-004  0.2645081E+03  0.7818608E-02  0.1104465E+00
         -2   -1    0    0    0  501 -0.00000000000E+00  0.00000000000E+00  0.29015966963E+02  0.29015967075E+02  0.25500000000E-02 0. -1.
          2   -1    0    0  501    0  0.00000000000E+00 -0.00000000000E+00 -0.60281049680E+03  0.60281049681E+03  0.25500000000E-02 0.  1.
    5000001    1    1    2    0    0 -0.55081299767E+02 -0.91498447395E+02 -0.25704213826E+03  0.28880023597E+03  0.77000000000E+02 0.  0.
   -5000001    1    1    2    0    0  0.55081299767E+02  0.91498447395E+02 -0.31675239158E+03  0.34302622791E+03  0.77000000000E+02 0.  0.
<mgrwt>
<rscale>  0 0.26450807E+03</rscale>
<asrwt>0</asrwt>
<pdfrwt beam="1">  1        2 0.92740067E-01 0.26450807E+03</pdfrwt>
<pdfrwt beam="2">  1       -2 0.44639954E-02 0.26450807E+03</pdfrwt>
<totfact> 0.11597427E+04</totfact>
</mgrwt>
</event>
<event>
 4    1  0.6122885E-004  0.1942890E+03  0.7818608E-02  0.1154649E+00
         -2   -1    0    0    0  501 -0.00000000000E+00  0.00000000000E+00  0.15373268663E+02  0.15373268875E+02  0.25500000000E-02 0. -1.
          2   -1    0    0  501    0  0.00000000000E+00 -0.00000000000E+00 -0.61386098609E+03  0.61386098610E+03  0.25500000000E-02 0.  1.
    5000001    1    1    2    0    0  0.36166653162E+02 -0.28243271295E+02 -0.42052436828E+03  0.42997145660E+03  0.77000000000E+02 0.  0.
   -5000001    1    1    2    0    0 -0.36166653162E+02  0.28243271295E+02 -0.17796334914E+03  0.19926279837E+03  0.77000000000E+02 0.  0.
<mgrwt>
<rscale>  0 0.19428896E+03</rscale>
<asrwt>0</asrwt>
<pdfrwt beam="1">  1        2 0.94440133E-01 0.19428896E+03</pdfrwt>
<pdfrwt beam="2">  1       -2 0.23651188E-02 0.19428896E+03</pdfrwt>
<totfact> 0.28704434E+04</totfact>
</mgrwt>
</event>
<event>
 4    1  0.6122885E-004  0.3998966E+03  0.7818608E-02  0.1043815E+00
          2   -1    0    0  501    0  0.00000000000E+00  0.00000000000E+00  0.15772199735E+03  0.15772199737E+03  0.25500000000E-02 0.  1.
         -2   -1    0    0    0  501 -0.00000000000E+00 -0.00000000000E+00 -0.25347974376E+03  0.25347974377E+03  0.25500000000E-02 0. -1.
    5000001    1    1    2    0    0  0.16457413911E+03  0.70077477005E+02 -0.12671363586E+01  0.19474625973E+03  0.77000000000E+02 0.  0.
   -5000001    1    1    2    0    0 -0.16457413911E+03 -0.70077477005E+02 -0.94490610051E+02  0.21645548141E+03  0.77000000000E+02 0.  0.
<mgrwt>
<rscale>  0 0.39989664E+03</rscale>
<asrwt>0</asrwt>
<pdfrwt beam="1">  1        2 0.24264923E-01 0.39989664E+03</pdfrwt>
<pdfrwt beam="2">  1       -2 0.38996884E-01 0.39989664E+03</pdfrwt>
<totfact> 0.14019258E+03</totfact>
</mgrwt>
</event>
<event>
 4    1  0.6122885E-004  0.2955839E+03  0.7818608E-02  0.1087469E+00
          2   -1    0    0  501    0  0.00000000000E+00  0.00000000000E+00  0.35772072530E+02  0.35772072621E+02  0.25500000000E-02 0.  1.
         -2   -1    0    0    0  501 -0.00000000000E+00 -0.00000000000E+00 -0.61060097419E+03  0.61060097420E+03  0.25500000000E-02 0. -1.
    5000001    1    1    2    0    0  0.75411790874E+02  0.79177081691E+02 -0.42498126161E+03  0.44552667842E+03  0.77000000000E+02 0.  0.
   -5000001    1    1    2    0    0 -0.75411790874E+02 -0.79177081691E+02 -0.14984764005E+03  0.20084636840E+03  0.77000000000E+02 0.  0.
<mgrwt>
<rscale>  0 0.29558391E+03</rscale>
<asrwt>0</asrwt>
<pdfrwt beam="1">  1        2 0.55033962E-02 0.29558391E+03</pdfrwt>
<pdfrwt beam="2">  1       -2 0.93938604E-01 0.29558391E+03</pdfrwt>
<totfact> 0.13742662E+03</totfact>
</mgrwt>
</event>
<event>
 4    1  0.6122885E-004  0.2153963E+03  0.7818608E-02  0.1137363E+00
         -2   -1    0    0    0  501 -0.00000000000E+00  0.00000000000E+00  0.93326583486E+01  0.93326586970E+01  0.25500000000E-02 0. -1.
          2   -1    0    0  501    0  0.00000000000E+00 -0.00000000000E+00 -0.12428278704E+04  0.12428278704E+04  0.25500000000E-02 0.  1.
    5000001    1    1    2    0    0 -0.10233824047E+02  0.41093479680E+02 -0.25480411555E+03  0.26953208070E+03  0.77000000000E+02 0.  0.
   -5000001    1    1    2    0    0  0.10233824047E+02 -0.41093479680E+02 -0.97869109648E+03  0.98262844837E+03  0.77000000000E+02 0.  0.
<mgrwt>
<rscale>  0 0.21539627E+03</rscale>
<asrwt>0</asrwt>
<pdfrwt beam="1">  1        2 0.19120416E+00 0.21539627E+03</pdfrwt>
<pdfrwt beam="2">  1       -2 0.14357946E-02 0.21539627E+03</pdfrwt>
<totfact> 0.23432961E+04</totfact>
</mgrwt>
</event>
<event>
 4    1  0.6122885E-004  0.2328431E+03  0.7818608E-02  0.1124654E+00
          2   -1    0    0  501    0  0.00000000000E+00  0.00000000000E+00  0.13998866052E+03  0.13998866054E+03  0.25500000000E-02 0.  1.
         -2   -1    0    0    0  501 -0.00000000000E+00 -0.00000000000E+00 -0.96822002256E+02  0.96822002289E+02  0.25500000000E-02 0. -1.
    5000001    1    1    2    0    0  0.27344108643E+02  0.75049671621E+02 -0.14299992196E+02  0.11186439677E+03  0.77000000000E+02 0.  0.
   -5000001    1    1    2    0    0 -0.27344108643E+02 -0.75049671621E+02  0.57466650460E+02  0.12494626606E+03  0.77000000000E+02 0.  0.
<mgrwt>
<rscale>  0 0.23284314E+03</rscale>
<asrwt>0</asrwt>
<pdfrwt beam="1">  1        2 0.21536717E-01 0.23284314E+03</pdfrwt>
<pdfrwt beam="2">  1       -2 0.14895693E-01 0.23284314E+03</pdfrwt>
<totfact> 0.86578870E+03</totfact>
</mgrwt>
</event>
<event>
 4    1  0.6122885E-004  0.2840550E+03  0.7818608E-02  0.1093495E+00
          2   -1    0    0  501    0  0.00000000000E+00  0.00000000000E+00  0.31061526219E+03  0.31061526220E+03  0.25500000000E-02 0.  1.
         -2   -1    0    0    0  501 -0.00000000000E+00 -0.00000000000E+00 -0.64941474268E+02  0.64941474318E+02  0.25500000000E-02 0. -1.
    5000001    1    1    2    0    0  0.63523091089E+02  0.23482820333E+01 -0.10705209354E+02  0.10042061062E+03  0.77000000000E+02 0.  0.
   -5000001    1    1    2    0    0 -0.63523091089E+02 -0.23482820333E+01  0.25637899727E+03  0.27513612590E+03  0.77000000000E+02 0.  0.
<mgrwt>
<rscale>  0 0.28405502E+03</rscale>
<asrwt>0</asrwt>
<pdfrwt beam="1">  1        2 0.47786964E-01 0.28405502E+03</pdfrwt>
<pdfrwt beam="2">  1       -2 0.99909959E-02 0.28405502E+03</pdfrwt>
<totfact> 0.69572080E+03</totfact>
</mgrwt>
</event>
<event>
 4    1  0.6122885E-004  0.1944976E+03  0.7818608E-02  0.1154466E+00
         -2   -1    0    0    0  501 -0.00000000000E+00  0.00000000000E+00  0.62005898651E+01  0.62005903894E+01  0.25500000000E-02 0. -1.
          2   -1    0    0  501    0  0.00000000000E+00 -0.00000000000E+00 -0.15252298229E+04  0.15252298229E+04  0.25500000000E-02 0.  1.
    5000001    1    1    2    0    0  0.54427135395E+02 -0.19982185771E+01 -0.57285144951E+03  0.58056359613E+03  0.77000000000E+02 0.  0.
   -5000001    1    1    2    0    0 -0.54427135395E+02  0.19982185771E+01 -0.94617778357E+03  0.95086681721E+03  0.77000000000E+02 0.  0.
<mgrwt>
<rscale>  0 0.19449756E+03</rscale>
<asrwt>0</asrwt>
<pdfrwt beam="1">  1        2 0.23465044E+00 0.19449756E+03</pdfrwt>
<pdfrwt beam="2">  1       -2 0.95393816E-03 0.19449756E+03</pdfrwt>
<totfact> 0.29637810E+04</totfact>
</mgrwt>
</event>
<event>
 4    1  0.6122885E-004  0.6290253E+03  0.7818608E-02  0.9846953E-01
         -2   -1    0    0    0  501 -0.00000000000E+00  0.00000000000E+00  0.18240100246E+03  0.18240100248E+03  0.25500000000E-02 0. -1.
          2   -1    0    0  501    0  0.00000000000E+00 -0.00000000000E+00 -0.54231172542E+03  0.54231172542E+03  0.25500000000E-02 0.  1.
    5000001    1    1    2    0    0  0.28970833816E+03  0.89453083193E+02 -0.21740240609E+03  0.38095351615E+03  0.77000000000E+02 0.  0.
   -5000001    1    1    2    0    0 -0.28970833816E+03 -0.89453083193E+02 -0.14250831686E+03  0.34375921176E+03  0.77000000000E+02 0.  0.
<mgrwt>
<rscale>  0 0.62902529E+03</rscale>
<asrwt>0</asrwt>
<pdfrwt beam="1">  1        2 0.83432572E-01 0.62902529E+03</pdfrwt>
<pdfrwt beam="2">  1       -2 0.28061693E-01 0.62902529E+03</pdfrwt>
<totfact> 0.65333006E+02</totfact>
</mgrwt>
</event>
<event>
 4    1  0.6122885E-004  0.2980876E+03  0.7818608E-02  0.1086201E+00
          2   -1    0    0  501    0  0.00000000000E+00  0.00000000000E+00  0.11975028549E+04  0.11975028549E+04  0.25500000000E-02 0.  1.
         -2   -1    0    0    0  501 -0.00000000000E+00 -0.00000000000E+00 -0.18550312912E+02  0.18550313087E+02  0.25500000000E-02 0. -1.
    5000001    1    1    2    0    0 -0.87712066087E+02 -0.49383691209E+02  0.90947518221E+03  0.91826263266E+03  0.77000000000E+02 0.  0.
   -5000001    1    1    2    0    0  0.87712066087E+02  0.49383691209E+02  0.26947735977E+03  0.29779053531E+03  0.77000000000E+02 0.  0.
<mgrwt>
<rscale>  0 0.29808759E+03</rscale>
<asrwt>0</asrwt>
<pdfrwt beam="1">  1        2 0.18423117E+00 0.29808759E+03</pdfrwt>
<pdfrwt beam="2">  1       -2 0.28538950E-02 0.29808759E+03</pdfrwt>
<totfact> 0.91593611E+03</totfact>
</mgrwt>
</event>
<event>
 4    1  0.6122885E-004  0.1894134E+03  0.7818608E-02  0.1158991E+00
          2   -1    0    0  501    0  0.00000000000E+00  0.00000000000E+00  0.10897473930E+03  0.10897473933E+03  0.25500000000E-02 0.  1.
         -2   -1    0    0    0  501 -0.00000000000E+00 -0.00000000000E+00 -0.82306748433E+02  0.82306748472E+02  0.25500000000E-02 0. -1.
    5000001    1    1    2    0    0  0.39009108430E+02 -0.37627573406E+02  0.23573606105E+02  0.97068325038E+02  0.77000000000E+02 0.  0.
   -5000001    1    1    2    0    0 -0.39009108430E+02  0.37627573406E+02  0.30943847629E+01  0.94213162764E+02  0.77000000000E+02 0.  0.
<mgrwt>
<rscale>  0 0.18941337E+03</rscale>
<asrwt>0</asrwt>
<pdfrwt beam="1">  1        2 0.16765345E-01 0.18941337E+03</pdfrwt>
<pdfrwt beam="2">  1       -2 0.12662577E-01 0.18941337E+03</pdfrwt>
<totfact> 0.14842607E+04</totfact>
</mgrwt>
</event>
<event>
 4    1  0.6122885E-004  0.1904816E+03  0.7818608E-02  0.1158028E+00
         -2   -1    0    0    0  501 -0.00000000000E+00  0.00000000000E+00  0.29326892818E+02  0.29326892929E+02  0.25500000000E-02 0. -1.
          2   -1    0    0  501    0  0.00000000000E+00 -0.00000000000E+00 -0.30930002860E+03  0.30930002861E+03  0.25500000000E-02 0.  1.
    5000001    1    1    2    0    0  0.31265545548E+02  0.12494651831E+02 -0.60321590764E+02  0.10344730531E+03  0.77000000000E+02 0.  0.
   -5000001    1    1    2    0    0 -0.31265545548E+02 -0.12494651831E+02 -0.21965154501E+03  0.23517961623E+03  0.77000000000E+02 0.  0.
<mgrwt>
<rscale>  0 0.19048159E+03</rscale>
<asrwt>0</asrwt>
<pdfrwt beam="1">  1        2 0.47584618E-01 0.19048159E+03</pdfrwt>
<pdfrwt beam="2">  1       -2 0.45118299E-02 0.19048159E+03</pdfrwt>
<totfact> 0.23294171E+04</totfact>
</mgrwt>
</event>
<event>
 4    1  0.6122885E-004  0.2558468E+03  0.7818608E-02  0.1109665E+00
         -2   -1    0    0    0  501 -0.00000000000E+00  0.00000000000E+00  0.49466453269E+02  0.49466453335E+02  0.25500000000E-02 0. -1.
          2   -1    0    0  501    0  0.00000000000E+00 -0.00000000000E+00 -0.33081802702E+03  0.33081802703E+03  0.25500000000E-02 0.  1.
    5000001    1    1    2    0    0 -0.60822822149E+02 -0.81787565844E+02 -0.13051035966E+03  0.18262139962E+03  0.77000000000E+02 0.  0.
   -5000001    1    1    2    0    0  0.60822822149E+02  0.81787565844E+02 -0.15084121409E+03  0.19766308074E+03  0.77000000000E+02 0.  0.
<mgrwt>
<rscale>  0 0.25584679E+03</rscale>
<asrwt>0</asrwt>
<pdfrwt beam="1">  1        2 0.50895080E-01 0.25584679E+03</pdfrwt>
<pdfrwt beam="2">  1       -2 0.76102238E-02 0.25584679E+03</pdfrwt>
<totfact> 0.99312835E+03</totfact>
</mgrwt>
</event>
<event>
 4    1  0.6122885E-004  0.2408374E+03  0.7818608E-02  0.1119236E+00
         -2   -1    0    0    0  501 -0.00000000000E+00  0.00000000000E+00  0.23040990161E+03  0.23040990163E+03  0.25500000000E-02 0. -1.
          2   -1    0    0  501    0  0.00000000000E+00 -0.00000000000E+00 -0.62934200770E+02  0.62934200822E+02  0.25500000000E-02 0.  1.
    5000001    1    1    2    0    0  0.25428366592E+02  0.84136562775E+02  0.11916728991E+03  0.16689938888E+03  0.77000000000E+02 0.  0.
   -5000001    1    1    2    0    0 -0.25428366592E+02 -0.84136562775E+02  0.48308410929E+02  0.12644471357E+03  0.77000000000E+02 0.  0.
<mgrwt>
<rscale>  0 0.24083740E+03</rscale>
<asrwt>0</asrwt>
<pdfrwt beam="1">  1        2 0.96821847E-02 0.24083740E+03</pdfrwt>
<pdfrwt beam="2">  1       -2 0.35447677E-01 0.24083740E+03</pdfrwt>
<totfact> 0.49383779E+03</totfact>
</mgrwt>
</event>
<event>
 4    1  0.6122885E-004  0.2404117E+03  0.7818608E-02  0.1119519E+00
          2   -1    0    0  501    0  0.00000000000E+00  0.00000000000E+00  0.11513763809E+03  0.11513763812E+03  0.25500000000E-02 0.  1.
         -2   -1    0    0    0  501 -0.00000000000E+00 -0.00000000000E+00 -0.12549719417E+03  0.12549719420E+03  0.25500000000E-02 0. -1.
    5000001    1    1    2    0    0 -0.67562888268E+02 -0.59722734028E+02 -0.24918669137E+02  0.12116719400E+03  0.77000000000E+02 0.  0.
   -5000001    1    1    2    0    0  0.67562888268E+02  0.59722734028E+02  0.14559113058E+02  0.11946763831E+03  0.77000000000E+02 0.  0.
<mgrwt>
<rscale>  0 0.24041173E+03</rscale>
<asrwt>0</asrwt>
<pdfrwt beam="1">  1        2 0.17713483E-01 0.24041173E+03</pdfrwt>
<pdfrwt beam="2">  1       -2 0.19307261E-01 0.24041173E+03</pdfrwt>
<totfact> 0.70299657E+03</totfact>
</mgrwt>
</event>
<event>
 4    1  0.6122885E-004  0.3036483E+03  0.7818608E-02  0.1083431E+00
          2   -1    0    0  501    0  0.00000000000E+00  0.00000000000E+00  0.65641952468E+03  0.65641952468E+03  0.25500000000E-02 0.  1.
         -2   -1    0    0    0  501 -0.00000000000E+00 -0.00000000000E+00 -0.35115602038E+02  0.35115602131E+02  0.25500000000E-02 0. -1.
    5000001    1    1    2    0    0  0.11675636123E+03  0.24266530076E+02  0.18799521409E+03  0.23556763974E+03  0.77000000000E+02 0.  0.
   -5000001    1    1    2    0    0 -0.11675636123E+03 -0.24266530076E+02  0.43330870855E+03  0.45596748708E+03  0.77000000000E+02 0.  0.
<mgrwt>
<rscale>  0 0.30364826E+03</rscale>
<asrwt>0</asrwt>
<pdfrwt beam="1">  1        2 0.10098762E+00 0.30364826E+03</pdfrwt>
<pdfrwt beam="2">  1       -2 0.54024003E-02 0.30364826E+03</pdfrwt>
<totfact> 0.78872986E+03</totfact>
</mgrwt>
</event>
<event>
 4    1  0.6122885E-004  0.2182735E+03  0.7818608E-02  0.1135177E+00
          2   -1    0    0  501    0  0.00000000000E+00  0.00000000000E+00  0.85617984033E+02  0.85617984071E+02  0.25500000000E-02 0.  1.
         -2   -1    0    0    0  501 -0.00000000000E+00 -0.00000000000E+00 -0.13911594087E+03  0.13911594089E+03  0.25500000000E-02 0. -1.
    5000001    1    1    2    0    0 -0.77025267717E+02  0.23840662411E+01 -0.19977794229E+02  0.11075508070E+03  0.77000000000E+02 0.  0.
   -5000001    1    1    2    0    0  0.77025267717E+02 -0.23840662411E+01 -0.33520162608E+02  0.11397884426E+03  0.77000000000E+02 0.  0.
<mgrwt>
<rscale>  0 0.21827347E+03</rscale>
<asrwt>0</asrwt>
<pdfrwt beam="1">  1        2 0.13171998E-01 0.21827347E+03</pdfrwt>
<pdfrwt beam="2">  1       -2 0.21402452E-01 0.21827347E+03</pdfrwt>
<totfact> 0.83176374E+03</totfact>
</mgrwt>
</event>
<event>
 4    1  0.6122885E-004  0.2413922E+03  0.7818608E-02  0.1118869E+00
          2   -1    0    0  501    0  0.00000000000E+00  0.00000000000E+00  0.34731665696E+03  0.34731665697E+03  0.25500000000E-02 0.  1.
         -2   -1    0    0    0  501 -0.00000000000E+00 -0.00000000000E+00 -0.41943144869E+02  0.41943144947E+02  0.25500000000E-02 0. -1.
    5000001    1    1    2    0    0 -0.70528376796E+02 -0.32657080649E+02  0.70496476826E+02  0.13015179636E+03  0.77000000000E+02 0.  0.
   -5000001    1    1    2    0    0  0.70528376796E+02  0.32657080649E+02  0.23487703527E+03  0.25910800556E+03  0.77000000000E+02 0.  0.
<mgrwt>
<rscale>  0 0.24139224E+03</rscale>
<asrwt>0</asrwt>
<pdfrwt beam="1">  1        2 0.53433333E-01 0.24139224E+03</pdfrwt>
<pdfrwt beam="2">  1       -2 0.64527913E-02 0.24139224E+03</pdfrwt>
<totfact> 0.12129674E+04</totfact>
</mgrwt>
</event>
<event>
 4    1  0.6122885E-004  0.2627062E+03  0.7818608E-02  0.1105528E+00
         -2   -1    0    0    0  501 -0.00000000000E+00  0.00000000000E+00  0.87868876215E+01  0.87868879915E+01  0.25500000000E-02 0. -1.
          2   -1    0    0  501    0  0.00000000000E+00 -0.00000000000E+00 -0.19635657751E+04  0.19635657751E+04  0.25500000000E-02 0.  1.
    5000001    1    1    2    0    0  0.76858645392E+02  0.70560002275E+02 -0.11346362122E+04  0.11420220223E+04  0.77000000000E+02 0.  0.
   -5000001    1    1    2    0    0 -0.76858645392E+02 -0.70560002275E+02 -0.82014267526E+03  0.83033064082E+03  0.77000000000E+02 0.  0.
<mgrwt>
<rscale>  0 0.26270616E+03</rscale>
<asrwt>0</asrwt>
<pdfrwt beam="1">  1        2 0.30208669E+00 0.26270616E+03</pdfrwt>
<pdfrwt beam="2">  1       -2 0.13518305E-02 0.26270616E+03</pdfrwt>
<totfact> 0.10658008E+04</totfact>
</mgrwt>
</event>
<event>
 4    1  0.6122885E-004  0.3967105E+03  0.7818608E-02  0.1044925E+00
          2   -1    0    0  501    0  0.00000000000E+00  0.00000000000E+00  0.91092441794E+02  0.91092441830E+02  0.25500000000E-02 0.  1.
         -2   -1    0    0    0  501 -0.00000000000E+00 -0.00000000000E+00 -0.43192164693E+03  0.43192164694E+03  0.25500000000E-02 0. -1.
    5000001    1    1    2    0    0  0.17913914400E+03  0.35966597050E+02 -0.17779851362E+03  0.26631886990E+03  0.77000000000E+02 0.  0.
   -5000001    1    1    2    0    0 -0.17913914400E+03 -0.35966597050E+02 -0.16303069151E+03  0.25669521887E+03  0.77000000000E+02 0.  0.
<mgrwt>
<rscale>  0 0.39671046E+03</rscale>
<asrwt>0</asrwt>
<pdfrwt beam="1">  1        2 0.14014222E-01 0.39671046E+03</pdfrwt>
<pdfrwt beam="2">  1       -2 0.66449483E-01 0.39671046E+03</pdfrwt>
<totfact> 0.90801464E+02</totfact>
</mgrwt>
</event>
<event>
 4    1  0.6122885E-004  0.1763194E+03  0.7818608E-02  0.1171413E+00
          2   -1    0    0  501    0  0.00000000000E+00  0.00000000000E+00  0.11619832812E+03  0.11619832815E+03  0.25500000000E-02 0.  1.
         -2   -1    0    0    0  501 -0.00000000000E+00 -0.00000000000E+00 -0.66886802610E+02  0.66886802659E+02  0.25500000000E-02 0. -1.
    5000001    1    1    2    0    0 -0.15528446855E+02  0.39584264426E+02  0.30806570831E+02  0.93199203099E+02  0.77000000000E+02 0.  0.
   -5000001    1    1    2    0    0  0.15528446855E+02 -0.39584264426E+02  0.18504954676E+02  0.89885927705E+02  0.77000000000E+02 0.  0.
<mgrwt>
<rscale>  0 0.17631942E+03</rscale>
<asrwt>0</asrwt>
<pdfrwt beam="1">  1        2 0.17876666E-01 0.17631942E+03</pdfrwt>
<pdfrwt beam="2">  1       -2 0.10290277E-01 0.17631942E+03</pdfrwt>
<totfact> 0.19085117E+04</totfact>
</mgrwt>
</event>
<event>
 4    1  0.6122885E-004  0.2526376E+03  0.7818608E-02  0.1111649E+00
         -2   -1    0    0    0  501 -0.00000000000E+00  0.00000000000E+00  0.12096738815E+03  0.12096738818E+03  0.25500000000E-02 0. -1.
          2   -1    0    0  501    0  0.00000000000E+00 -0.00000000000E+00 -0.13190696324E+03  0.13190696326E+03  0.25500000000E-02 0.  1.
    5000001    1    1    2    0    0 -0.91379727687E+02  0.40141066877E+02  0.26545262211E+01  0.12608571050E+03  0.77000000000E+02 0.  0.
   -5000001    1    1    2    0    0  0.91379727687E+02 -0.40141066877E+02 -0.13594101309E+02  0.12678864094E+03  0.77000000000E+02 0.  0.
<mgrwt>
<rscale>  0 0.25263761E+03</rscale>
<asrwt>0</asrwt>
<pdfrwt beam="1">  1        2 0.20293379E-01 0.25263761E+03</pdfrwt>
<pdfrwt beam="2">  1       -2 0.18610367E-01 0.25263761E+03</pdfrwt>
<totfact> 0.64127945E+03</totfact>
</mgrwt>
</event>
<event>
 4    1  0.6122885E-004  0.1689523E+03  0.7818608E-02  0.1178945E+00
          2   -1    0    0  501    0  0.00000000000E+00  0.00000000000E+00  0.19536370137E+03  0.19536370139E+03  0.25500000000E-02 0.  1.
         -2   -1    0    0    0  501 -0.00000000000E+00 -0.00000000000E+00 -0.36527867955E+02  0.36527868044E+02  0.25500000000E-02 0. -1.
    5000001    1    1    2    0    0 -0.19644397026E+02  0.27226967855E+02  0.91694890643E+02  0.12435498817E+03  0.77000000000E+02 0.  0.
   -5000001    1    1    2    0    0  0.19644397026E+02 -0.27226967855E+02  0.67140942775E+02  0.10753658126E+03  0.77000000000E+02 0.  0.
<mgrwt>
<rscale>  0 0.16895230E+03</rscale>
<asrwt>0</asrwt>
<pdfrwt beam="1">  1        2 0.30055954E-01 0.16895230E+03</pdfrwt>
<pdfrwt beam="2">  1       -2 0.56196721E-02 0.16895230E+03</pdfrwt>
<totfact> 0.27111795E+04</totfact>
</mgrwt>
</event>
<event>
 4    1  0.6122885E-004  0.1884533E+03  0.7818608E-02  0.1159864E+00
          2   -1    0    0  501    0  0.00000000000E+00  0.00000000000E+00  0.14200205202E+04  0.14200205202E+04  0.25500000000E-02 0.  1.
         -2   -1    0    0    0  501 -0.00000000000E+00 -0.00000000000E+00 -0.62524874150E+01  0.62524879350E+01  0.25500000000E-02 0. -1.
    5000001    1    1    2    0    0  0.14006851938E+02  0.50788312044E+02  0.80672155226E+03  0.81209870547E+03  0.77000000000E+02 0.  0.
   -5000001    1    1    2    0    0 -0.14006851938E+02 -0.50788312044E+02  0.60704648048E+03  0.61417430263E+03  0.77000000000E+02 0.  0.
<mgrwt>
<rscale>  0 0.18845329E+03</rscale>
<asrwt>0</asrwt>
<pdfrwt beam="1">  1        2 0.21846502E+00 0.18845329E+03</pdfrwt>
<pdfrwt beam="2">  1       -2 0.96191976E-03 0.18845329E+03</pdfrwt>
<totfact> 0.33235610E+04</totfact>
</mgrwt>
</event>
<event>
 4    1  0.6122885E-004  0.1699482E+03  0.7818608E-02  0.1177902E+00
         -2   -1    0    0    0  501 -0.00000000000E+00  0.00000000000E+00  0.19003403069E+02  0.19003403240E+02  0.25500000000E-02 0. -1.
          2   -1    0    0  501    0  0.00000000000E+00 -0.00000000000E+00 -0.37996360358E+03  0.37996360359E+03  0.25500000000E-02 0.  1.
    5000001    1    1    2    0    0 -0.11814746342E+02 -0.31702802664E+02 -0.15202247754E+03  0.17373684009E+03  0.77000000000E+02 0.  0.
   -5000001    1    1    2    0    0  0.11814746342E+02  0.31702802664E+02 -0.20893772297E+03  0.22523016673E+03  0.77000000000E+02 0.  0.
<mgrwt>
<rscale>  0 0.16994825E+03</rscale>
<asrwt>0</asrwt>
<pdfrwt beam="1">  1        2 0.58455933E-01 0.16994825E+03</pdfrwt>
<pdfrwt beam="2">  1       -2 0.29236008E-02 0.16994825E+03</pdfrwt>
<totfact> 0.35305026E+04</totfact>
</mgrwt>
</event>
<event>
 4    1  0.6122885E-004  0.1095379E+04  0.7818608E-02  0.9209708E-01
         -2   -1    0    0    0  501 -0.00000000000E+00  0.00000000000E+00  0.15052033906E+03  0.15052033908E+03  0.25500000000E-02 0. -1.
          2   -1    0    0  501    0  0.00000000000E+00 -0.00000000000E+00 -0.19928456463E+04  0.19928456463E+04  0.25500000000E-02 0.  1.
    5000001    1    1    2    0    0 -0.12179622552E+01 -0.50855328461E+03 -0.12893558139E+04  0.13881625775E+04  0.77000000000E+02 0.  0.
   -5000001    1    1    2    0    0  0.12179622552E+01  0.50855328461E+03 -0.55296949330E+03  0.75520340785E+03  0.77000000000E+02 0.  0.
<mgrwt>
<rscale>  0 0.10953790E+04</rscale>
<asrwt>0</asrwt>
<pdfrwt beam="1">  1        2 0.30659162E+00 0.10953790E+04</pdfrwt>
<pdfrwt beam="2">  1       -2 0.23156977E-01 0.10953790E+04</pdfrwt>
<totfact> 0.11055327E+02</totfact>
</mgrwt>
</event>
<event>
 4    1  0.6122885E-004  0.2108066E+03  0.7818608E-02  0.1140929E+00
         -2   -1    0    0    0  501 -0.00000000000E+00  0.00000000000E+00  0.90490044809E+02  0.90490044845E+02  0.25500000000E-02 0. -1.
          2   -1    0    0  501    0  0.00000000000E+00 -0.00000000000E+00 -0.12277434812E+03  0.12277434814E+03  0.25500000000E-02 0.  1.
    5000001    1    1    2    0    0 -0.34880369282E+02  0.61877448679E+02 -0.43704463328E+01  0.10485017700E+03  0.77000000000E+02 0.  0.
   -5000001    1    1    2    0    0  0.34880369282E+02 -0.61877448679E+02 -0.27913856973E+02  0.10841421598E+03  0.77000000000E+02 0.  0.
<mgrwt>
<rscale>  0 0.21080661E+03</rscale>
<asrwt>0</asrwt>
<pdfrwt beam="1">  1        2 0.18888361E-01 0.21080661E+03</pdfrwt>
<pdfrwt beam="2">  1       -2 0.13921545E-01 0.21080661E+03</pdfrwt>
<totfact> 0.11169167E+04</totfact>
</mgrwt>
</event>
<event>
 4    1  0.6122885E-004  0.2699870E+03  0.7818608E-02  0.1101287E+00
         -2   -1    0    0    0  501 -0.00000000000E+00  0.00000000000E+00  0.98324447360E+01  0.98324450666E+01  0.25500000000E-02 0. -1.
          2   -1    0    0  501    0  0.00000000000E+00 -0.00000000000E+00 -0.18533785427E+04  0.18533785427E+04  0.25500000000E-02 0.  1.
    5000001    1    1    2    0    0 -0.21263727161E+02  0.80603813185E+02 -0.41723025216E+03  0.43238779366E+03  0.77000000000E+02 0.  0.
   -5000001    1    1    2    0    0  0.21263727161E+02 -0.80603813185E+02 -0.14263158458E+04  0.14308231941E+04  0.77000000000E+02 0.  0.
<mgrwt>
<rscale>  0 0.26998698E+03</rscale>
<asrwt>0</asrwt>
<pdfrwt beam="1">  1        2 0.28513488E+00 0.26998698E+03</pdfrwt>
<pdfrwt beam="2">  1       -2 0.15126853E-02 0.26998698E+03</pdfrwt>
<totfact> 0.10335535E+04</totfact>
</mgrwt>
</event>
<event>
 4    1  0.6122885E-004  0.2394877E+03  0.7818608E-02  0.1120135E+00
          2   -1    0    0  501    0  0.00000000000E+00  0.00000000000E+00  0.11546639570E+03  0.11546639573E+03  0.25500000000E-02 0.  1.
         -2   -1    0    0    0  501 -0.00000000000E+00 -0.00000000000E+00 -0.12417973536E+03  0.12417973539E+03  0.25500000000E-02 0. -1.
    5000001    1    1    2    0    0  0.52794442238E+02 -0.73208587376E+02 -0.20579616469E+02  0.12041291879E+03  0.77000000000E+02 0.  0.
   -5000001    1    1    2    0    0 -0.52794442238E+02  0.73208587376E+02  0.11866276806E+02  0.11923321233E+03  0.77000000000E+02 0.  0.
<mgrwt>
<rscale>  0 0.23948767E+03</rscale>
<asrwt>0</asrwt>
<pdfrwt beam="1">  1        2 0.17764061E-01 0.23948767E+03</pdfrwt>
<pdfrwt beam="2">  1       -2 0.19104575E-01 0.23948767E+03</pdfrwt>
<totfact> 0.71322072E+03</totfact>
</mgrwt>
</event>
<event>
 4    1  0.6122885E-004  0.2420445E+03  0.7818608E-02  0.1118438E+00
         -2   -1    0    0    0  501 -0.00000000000E+00  0.00000000000E+00  0.11250215508E+02  0.11250215797E+02  0.25500000000E-02 0. -1.
          2   -1    0    0  501    0  0.00000000000E+00 -0.00000000000E+00 -0.13018757299E+04  0.13018757299E+04  0.25500000000E-02 0.  1.
    5000001    1    1    2    0    0  0.53831477254E+02  0.41328381294E+02 -0.99317907810E+03  0.99846859952E+03  0.77000000000E+02 0.  0.
   -5000001    1    1    2    0    0 -0.53831477254E+02 -0.41328381294E+02 -0.29744643626E+03  0.31465734615E+03  0.77000000000E+02 0.  0.
<mgrwt>
<rscale>  0 0.24204448E+03</rscale>
<asrwt>0</asrwt>
<pdfrwt beam="1">  1        2 0.20028846E+00 0.24204448E+03</pdfrwt>
<pdfrwt beam="2">  1       -2 0.17308034E-02 0.24204448E+03</pdfrwt>
<totfact> 0.16637840E+04</totfact>
</mgrwt>
</event>
<event>
 4    1  0.6122885E-004  0.1902855E+03  0.7818608E-02  0.1158204E+00
          2   -1    0    0  501    0  0.00000000000E+00  0.00000000000E+00  0.20477708579E+04  0.20477708579E+04  0.25500000000E-02 0.  1.
         -2   -1    0    0    0  501 -0.00000000000E+00 -0.00000000000E+00 -0.44204850126E+01  0.44204857481E+01  0.25500000000E-02 0. -1.
    5000001    1    1    2    0    0 -0.30333518304E+02  0.15539747194E+02  0.14993256851E+04  0.15016884218E+04  0.77000000000E+02 0.  0.
   -5000001    1    1    2    0    0  0.30333518304E+02 -0.15539747194E+02  0.54402468770E+03  0.55050292180E+03  0.77000000000E+02 0.  0.
<mgrwt>
<rscale>  0 0.19028548E+03</rscale>
<asrwt>0</asrwt>
<pdfrwt beam="1">  1        2 0.31504196E+00 0.19028548E+03</pdfrwt>
<pdfrwt beam="2">  1       -2 0.68007405E-03 0.19028548E+03</pdfrwt>
<totfact> 0.25747049E+04</totfact>
</mgrwt>
</event>
<event>
 4    1  0.6122885E-004  0.1907721E+03  0.7818608E-02  0.1157767E+00
         -2   -1    0    0    0  501 -0.00000000000E+00  0.00000000000E+00  0.58068138800E+02  0.58068138856E+02  0.25500000000E-02 0. -1.
          2   -1    0    0  501    0  0.00000000000E+00 -0.00000000000E+00 -0.15668658003E+03  0.15668658005E+03  0.25500000000E-02 0.  1.
    5000001    1    1    2    0    0 -0.50235894981E+02 -0.11263900856E+02 -0.23664254961E+02  0.95600824107E+02  0.77000000000E+02 0.  0.
   -5000001    1    1    2    0    0  0.50235894981E+02  0.11263900856E+02 -0.74954186270E+02  0.11915389480E+03  0.77000000000E+02 0.  0.
<mgrwt>
<rscale>  0 0.19077210E+03</rscale>
<asrwt>0</asrwt>
<pdfrwt beam="1">  1        2 0.24105628E-01 0.19077210E+03</pdfrwt>
<pdfrwt beam="2">  1       -2 0.89335599E-02 0.19077210E+03</pdfrwt>
<totfact> 0.17102180E+04</totfact>
</mgrwt>
</event>
<event>
 4    1  0.6122885E-004  0.1889964E+03  0.7818608E-02  0.1159370E+00
         -2   -1    0    0    0  501 -0.00000000000E+00  0.00000000000E+00  0.17030978329E+02  0.17030978520E+02  0.25500000000E-02 0. -1.
          2   -1    0    0  501    0  0.00000000000E+00 -0.00000000000E+00 -0.52433351057E+03  0.52433351058E+03  0.25500000000E-02 0.  1.
    5000001    1    1    2    0    0  0.81194731184E+01  0.47075786643E+02 -0.33045060278E+03  0.34264946580E+03  0.77000000000E+02 0.  0.
   -5000001    1    1    2    0    0 -0.81194731184E+01 -0.47075786643E+02 -0.17685192946E+03  0.19871502330E+03  0.77000000000E+02 0.  0.
<mgrwt>
<rscale>  0 0.18899643E+03</rscale>
<asrwt>0</asrwt>
<pdfrwt beam="1">  1        2 0.80666681E-01 0.18899643E+03</pdfrwt>
<pdfrwt beam="2">  1       -2 0.26201509E-02 0.18899643E+03</pdfrwt>
<totfact> 0.29471392E+04</totfact>
</mgrwt>
</event>
<event>
 4    1  0.6122885E-004  0.3614721E+03  0.7818608E-02  0.1058003E+00
          2   -1    0    0  501    0  0.00000000000E+00  0.00000000000E+00  0.14668053750E+03  0.14668053752E+03  0.25500000000E-02 0.  1.
         -2   -1    0    0    0  501 -0.00000000000E+00 -0.00000000000E+00 -0.22269835835E+03  0.22269835836E+03  0.25500000000E-02 0. -1.
    5000001    1    1    2    0    0  0.96663739087E+02  0.37778384283E+02  0.91109342416E+02  0.15811703592E+03  0.77000000000E+02 0.  0.
   -5000001    1    1    2    0    0 -0.96663739087E+02 -0.37778384283E+02 -0.16712716327E+03  0.21126185996E+03  0.77000000000E+02 0.  0.
<mgrwt>
<rscale>  0 0.36147207E+03</rscale>
<asrwt>0</asrwt>
<pdfrwt beam="1">  1        2 0.22566236E-01 0.36147207E+03</pdfrwt>
<pdfrwt beam="2">  1       -2 0.34261286E-01 0.36147207E+03</pdfrwt>
<totfact> 0.19427910E+03</totfact>
</mgrwt>
</event>
<event>
 4    1  0.6122885E-004  0.6727993E+03  0.7818608E-02  0.9764914E-01
          2   -1    0    0  501    0  0.00000000000E+00  0.00000000000E+00  0.73711631901E+03  0.73711631901E+03  0.25500000000E-02 0.  1.
         -2   -1    0    0    0  501 -0.00000000000E+00 -0.00000000000E+00 -0.15352356900E+03  0.15352356902E+03  0.25500000000E-02 0. -1.
    5000001    1    1    2    0    0  0.32030506303E+03  0.78093767237E+01  0.38137848500E+03  0.50401871848E+03  0.77000000000E+02 0.  0.
   -5000001    1    1    2    0    0 -0.32030506303E+03 -0.78093767237E+01  0.20221426502E+03  0.38662116955E+03  0.77000000000E+02 0.  0.
<mgrwt>
<rscale>  0 0.67279931E+03</rscale>
<asrwt>0</asrwt>
<pdfrwt beam="1">  1        2 0.11340251E+00 0.67279931E+03</pdfrwt>
<pdfrwt beam="2">  1       -2 0.23619011E-01 0.67279931E+03</pdfrwt>
<totfact> 0.61263132E+02</totfact>
</mgrwt>
</event>
<event>
 4    1  0.6122885E-004  0.2512770E+03  0.7818608E-02  0.1112500E+00
         -2   -1    0    0    0  501 -0.00000000000E+00  0.00000000000E+00  0.29360468161E+02  0.29360468271E+02  0.25500000000E-02 0. -1.
          2   -1    0    0  501    0  0.00000000000E+00 -0.00000000000E+00 -0.53762872598E+03  0.53762872599E+03  0.25500000000E-02 0.  1.
    5000001    1    1    2    0    0 -0.63766236194E+02  0.13820548985E+02 -0.42297324070E+03  0.43484767770E+03  0.77000000000E+02 0.  0.
   -5000001    1    1    2    0    0  0.63766236194E+02 -0.13820548985E+02 -0.85295017118E+02  0.13214151656E+03  0.77000000000E+02 0.  0.
<mgrwt>
<rscale>  0 0.25127699E+03</rscale>
<asrwt>0</asrwt>
<pdfrwt beam="1">  1        2 0.82712104E-01 0.25127699E+03</pdfrwt>
<pdfrwt beam="2">  1       -2 0.45169955E-02 0.25127699E+03</pdfrwt>
<totfact> 0.12958810E+04</totfact>
</mgrwt>
</event>
<event>
 4    1  0.6122885E-004  0.2108568E+03  0.7818608E-02  0.1140889E+00
         -2   -1    0    0    0  501 -0.00000000000E+00  0.00000000000E+00  0.22391847845E+02  0.22391847991E+02  0.25500000000E-02 0. -1.
          2   -1    0    0  501    0  0.00000000000E+00 -0.00000000000E+00 -0.49639274752E+03  0.49639274753E+03  0.25500000000E-02 0.  1.
    5000001    1    1    2    0    0  0.10681366260E+02 -0.69354882608E+02 -0.19717904815E+03  0.22300844907E+03  0.77000000000E+02 0.  0.
   -5000001    1    1    2    0    0 -0.10681366260E+02  0.69354882608E+02 -0.27682185153E+03  0.29577614645E+03  0.77000000000E+02 0.  0.
<mgrwt>
<rscale>  0 0.21085683E+03</rscale>
<asrwt>0</asrwt>
<pdfrwt beam="1">  1        2 0.76368107E-01 0.21085683E+03</pdfrwt>
<pdfrwt beam="2">  1       -2 0.34449001E-02 0.21085683E+03</pdfrwt>
<totfact> 0.21059412E+04</totfact>
</mgrwt>
</event>
<event>
 4    1  0.6122885E-004  0.1808542E+03  0.7818608E-02  0.1166979E+00
          2   -1    0    0  501    0  0.00000000000E+00  0.00000000000E+00  0.43560939576E+03  0.43560939576E+03  0.25500000000E-02 0.  1.
         -2   -1    0    0    0  501 -0.00000000000E+00 -0.00000000000E+00 -0.18771542284E+02  0.18771542458E+02  0.25500000000E-02 0. -1.
    5000001    1    1    2    0    0  0.39127560947E+02 -0.24112129636E+02  0.17915177277E+03  0.20034150471E+03  0.77000000000E+02 0.  0.
   -5000001    1    1    2    0    0 -0.39127560947E+02  0.24112129636E+02  0.23768608070E+03  0.25403943351E+03  0.77000000000E+02 0.  0.
<mgrwt>
<rscale>  0 0.18085420E+03</rscale>
<asrwt>0</asrwt>
<pdfrwt beam="1">  1        2 0.67016823E-01 0.18085420E+03</pdfrwt>
<pdfrwt beam="2">  1       -2 0.28879299E-02 0.18085420E+03</pdfrwt>
<totfact> 0.31198489E+04</totfact>
</mgrwt>
</event>
<event>
 4    1  0.6122885E-004  0.9903853E+03  0.7818608E-02  0.9319153E-01
         -2   -1    0    0    0  501 -0.00000000000E+00  0.00000000000E+00  0.19113115300E+03  0.19113115301E+03  0.25500000000E-02 0. -1.
          2   -1    0    0  501    0  0.00000000000E+00 -0.00000000000E+00 -0.12829711800E+04  0.12829711800E+04  0.25500000000E-02 0.  1.
    5000001    1    1    2    0    0 -0.36369059576E+03  0.19787857893E+03 -0.93365082099E+03  0.10242361236E+04  0.77000000000E+02 0.  0.
   -5000001    1    1    2    0    0  0.36369059576E+03 -0.19787857893E+03 -0.15818920603E+03  0.44986620939E+03  0.77000000000E+02 0.  0.
<mgrwt>
<rscale>  0 0.99038530E+03</rscale>
<asrwt>0</asrwt>
<pdfrwt beam="1">  1        2 0.19738018E+00 0.99038530E+03</pdfrwt>
<pdfrwt beam="2">  1       -2 0.29404794E-01 0.99038530E+03</pdfrwt>
<totfact> 0.17959723E+02</totfact>
</mgrwt>
</event>
<event>
 4    1  0.6122885E-004  0.2368938E+03  0.7818608E-02  0.1121880E+00
         -2   -1    0    0    0  501 -0.00000000000E+00  0.00000000000E+00  0.97013765278E+02  0.97013765312E+02  0.25500000000E-02 0. -1.
          2   -1    0    0  501    0  0.00000000000E+00 -0.00000000000E+00 -0.14461525333E+03  0.14461525335E+03  0.25500000000E-02 0.  1.
    5000001    1    1    2    0    0 -0.53930699718E+02 -0.69536013521E+02 -0.45315213514E+01  0.11701842690E+03  0.77000000000E+02 0.  0.
   -5000001    1    1    2    0    0  0.53930699718E+02  0.69536013521E+02 -0.43069966702E+02  0.12461059177E+03  0.77000000000E+02 0.  0.
<mgrwt>
<rscale>  0 0.23689382E+03</rscale>
<asrwt>0</asrwt>
<pdfrwt beam="1">  1        2 0.22248501E-01 0.23689382E+03</pdfrwt>
<pdfrwt beam="2">  1       -2 0.14925195E-01 0.23689382E+03</pdfrwt>
<totfact> 0.83253975E+03</totfact>
</mgrwt>
</event>
<event>
 4    1  0.6122885E-004  0.3603856E+03  0.7818608E-02  0.1058431E+00
          2   -1    0    0  501    0  0.00000000000E+00  0.00000000000E+00  0.32891153493E+04  0.32891153493E+04  0.25500000000E-02 0.  1.
         -2   -1    0    0    0  501 -0.00000000000E+00 -0.00000000000E+00 -0.98717857175E+01  0.98717860468E+01  0.25500000000E-02 0. -1.
    5000001    1    1    2    0    0 -0.51347680304E+02 -0.13105108980E+03  0.88868453974E+03  0.90305048783E+03  0.77000000000E+02 0.  0.
   -5000001    1    1    2    0    0  0.51347680304E+02  0.13105108980E+03  0.23905590239E+04  0.23959366475E+04  0.77000000000E+02 0.  0.
<mgrwt>
<rscale>  0 0.36038559E+03</rscale>
<asrwt>0</asrwt>
<pdfrwt beam="1">  1        2 0.50601813E+00 0.36038559E+03</pdfrwt>
<pdfrwt beam="2">  1       -2 0.15187351E-02 0.36038559E+03</pdfrwt>
<totfact> 0.15876263E+03</totfact>
</mgrwt>
</event>
<event>
 4    1  0.6122885E-004  0.2111483E+03  0.7818608E-02  0.1140660E+00
         -2   -1    0    0    0  501 -0.00000000000E+00  0.00000000000E+00  0.60422643678E+02  0.60422643732E+02  0.25500000000E-02 0. -1.
          2   -1    0    0  501    0  0.00000000000E+00 -0.00000000000E+00 -0.18446556935E+03  0.18446556937E+03  0.25500000000E-02 0.  1.
    5000001    1    1    2    0    0  0.42424596820E+02 -0.54733012779E+02 -0.85828260222E+02  0.13450293438E+03  0.77000000000E+02 0.  0.
   -5000001    1    1    2    0    0 -0.42424596820E+02  0.54733012779E+02 -0.38214665449E+02  0.11038527872E+03  0.77000000000E+02 0.  0.
<mgrwt>
<rscale>  0 0.21114826E+03</rscale>
<asrwt>0</asrwt>
<pdfrwt beam="1">  1        2 0.28379318E-01 0.21114826E+03</pdfrwt>
<pdfrwt beam="2">  1       -2 0.92957914E-02 0.21114826E+03</pdfrwt>
<totfact> 0.13508201E+04</totfact>
</mgrwt>
</event>
<event>
 4    1  0.6122885E-004  0.1888673E+03  0.7818608E-02  0.1159487E+00
          2   -1    0    0  501    0  0.00000000000E+00  0.00000000000E+00  0.36951015624E+03  0.36951015624E+03  0.25500000000E-02 0.  1.
         -2   -1    0    0    0  501 -0.00000000000E+00 -0.00000000000E+00 -0.24133875828E+02  0.24133875962E+02  0.25500000000E-02 0. -1.
    5000001    1    1    2    0    0  0.37303573116E+02  0.27498457408E+02  0.23313065159E+03  0.24985320178E+03  0.77000000000E+02 0.  0.
   -5000001    1    1    2    0    0 -0.37303573116E+02 -0.27498457408E+02  0.11224562881E+03  0.14379083043E+03  0.77000000000E+02 0.  0.
<mgrwt>
<rscale>  0 0.18886728E+03</rscale>
<asrwt>0</asrwt>
<pdfrwt beam="1">  1        2 0.56847714E-01 0.18886728E+03</pdfrwt>
<pdfrwt beam="2">  1       -2 0.37129041E-02 0.18886728E+03</pdfrwt>
<totfact> 0.25760574E+04</totfact>
</mgrwt>
</event>
<event>
 4    1  0.6122885E-004  0.2917191E+03  0.7818608E-02  0.1089455E+00
          2   -1    0    0  501    0  0.00000000000E+00  0.00000000000E+00  0.20567032140E+03  0.20567032142E+03  0.25500000000E-02 0.  1.
         -2   -1    0    0    0  501 -0.00000000000E+00 -0.00000000000E+00 -0.10344225604E+03  0.10344225607E+03  0.25500000000E-02 0. -1.
    5000001    1    1    2    0    0  0.79937399105E+02  0.17832727509E+02 -0.47368379870E+02  0.12198670976E+03  0.77000000000E+02 0.  0.
   -5000001    1    1    2    0    0 -0.79937399105E+02 -0.17832727509E+02  0.14959644523E+03  0.18712586773E+03  0.77000000000E+02 0.  0.
<mgrwt>
<rscale>  0 0.29171906E+03</rscale>
<asrwt>0</asrwt>
<pdfrwt beam="1">  1        2 0.31641588E-01 0.29171906E+03</pdfrwt>
<pdfrwt beam="2">  1       -2 0.15914193E-01 0.29171906E+03</pdfrwt>
<totfact> 0.51053227E+03</totfact>
</mgrwt>
</event>
<event>
 4    1  0.6122885E-004  0.2040381E+03  0.7818608E-02  0.1146376E+00
          2   -1    0    0  501    0  0.00000000000E+00  0.00000000000E+00  0.43072521901E+04  0.43072521901E+04  0.25500000000E-02 0.  1.
         -2   -1    0    0    0  501 -0.00000000000E+00 -0.00000000000E+00 -0.24163628529E+01  0.24163641984E+01  0.25500000000E-02 0. -1.
    5000001    1    1    2    0    0  0.56416226059E+02  0.28151426137E+02  0.26264118091E+04  0.26282966507E+04  0.77000000000E+02 0.  0.
   -5000001    1    1    2    0    0 -0.56416226059E+02 -0.28151426137E+02  0.16784240182E+04  0.16813719036E+04  0.77000000000E+02 0.  0.
<mgrwt>
<rscale>  0 0.20403811E+03</rscale>
<asrwt>0</asrwt>
<pdfrwt beam="1">  1        2 0.66266122E+00 0.20403811E+03</pdfrwt>
<pdfrwt beam="2">  1       -2 0.37174429E-03 0.20403811E+03</pdfrwt>
<totfact> 0.22764843E+03</totfact>
</mgrwt>
</event>
<event>
 4    1  0.6122885E-004  0.2294380E+03  0.7818608E-02  0.1127036E+00
          2   -1    0    0  501    0  0.00000000000E+00  0.00000000000E+00  0.75963884365E+02  0.75963884407E+02  0.25500000000E-02 0.  1.
         -2   -1    0    0    0  501 -0.00000000000E+00 -0.00000000000E+00 -0.17324614240E+03  0.17324614242E+03  0.25500000000E-02 0. -1.
    5000001    1    1    2    0    0 -0.83070257911E+01 -0.39275784197E+02  0.32784803823E+02  0.92819379784E+02  0.77000000000E+02 0.  0.
   -5000001    1    1    2    0    0  0.83070257911E+01  0.39275784197E+02 -0.13006706186E+03  0.15639064704E+03  0.77000000000E+02 0.  0.
<mgrwt>
<rscale>  0 0.22943801E+03</rscale>
<asrwt>0</asrwt>
<pdfrwt beam="1">  1        2 0.11686751E-01 0.22943801E+03</pdfrwt>
<pdfrwt beam="2">  1       -2 0.26653253E-01 0.22943801E+03</pdfrwt>
<totfact> 0.65678487E+03</totfact>
</mgrwt>
</event>
<event>
 4    1  0.6122885E-004  0.1975464E+03  0.7818608E-02  0.1151826E+00
         -2   -1    0    0    0  501 -0.00000000000E+00  0.00000000000E+00  0.96416353343E+02  0.96416353377E+02  0.25500000000E-02 0. -1.
          2   -1    0    0  501    0  0.00000000000E+00 -0.00000000000E+00 -0.10118767047E+03  0.10118767051E+03  0.25500000000E-02 0.  1.
    5000001    1    1    2    0    0 -0.20931258281E+02  0.35098423469E+02 -0.48844109694E+02  0.99923790736E+02  0.77000000000E+02 0.  0.
   -5000001    1    1    2    0    0  0.20931258281E+02 -0.35098423469E+02  0.44072792564E+02  0.97680233147E+02  0.77000000000E+02 0.  0.
<mgrwt>
<rscale>  0 0.19754641E+03</rscale>
<asrwt>0</asrwt>
<pdfrwt beam="1">  1        2 0.15567334E-01 0.19754641E+03</pdfrwt>
<pdfrwt beam="2">  1       -2 0.14833285E-01 0.19754641E+03</pdfrwt>
<totfact> 0.12547931E+04</totfact>
</mgrwt>
</event>
<event>
 4    1  0.6122885E-004  0.2610454E+03  0.7818608E-02  0.1106517E+00
         -2   -1    0    0    0  501 -0.00000000000E+00  0.00000000000E+00  0.61881350295E+01  0.61881355549E+01  0.25500000000E-02 0. -1.
          2   -1    0    0  501    0  0.00000000000E+00 -0.00000000000E+00 -0.27530394601E+04  0.27530394601E+04  0.25500000000E-02 0.  1.
    5000001    1    1    2    0    0  0.55994973591E+02 -0.24152325688E+02 -0.46487977337E+03  0.47514311064E+03  0.77000000000E+02 0.  0.
   -5000001    1    1    2    0    0 -0.55994973591E+02  0.24152325688E+02 -0.22819715517E+04  0.22840844850E+04  0.77000000000E+02 0.  0.
<mgrwt>
<rscale>  0 0.26104544E+03</rscale>
<asrwt>0</asrwt>
<pdfrwt beam="1">  1        2 0.42354355E+00 0.26104544E+03</pdfrwt>
<pdfrwt beam="2">  1       -2 0.95202301E-03 0.26104544E+03</pdfrwt>
<totfact> 0.66383145E+03</totfact>
</mgrwt>
</event>
<event>
 4    1  0.6122885E-004  0.2342425E+03  0.7818608E-02  0.1123689E+00
          2   -1    0    0  501    0  0.00000000000E+00  0.00000000000E+00  0.99324776626E+03  0.99324776627E+03  0.25500000000E-02 0.  1.
         -2   -1    0    0    0  501 -0.00000000000E+00 -0.00000000000E+00 -0.13810645581E+02  0.13810645816E+02  0.25500000000E-02 0. -1.
    5000001    1    1    2    0    0 -0.53588224028E+02  0.67621887470E+02  0.56945423582E+03  0.58107791570E+03  0.77000000000E+02 0.  0.
   -5000001    1    1    2    0    0  0.53588224028E+02 -0.67621887470E+02  0.40998288486E+03  0.42598049639E+03  0.77000000000E+02 0.  0.
<mgrwt>
<rscale>  0 0.23424255E+03</rscale>
<asrwt>0</asrwt>
<pdfrwt beam="1">  1        2 0.15280742E+00 0.23424255E+03</pdfrwt>
<pdfrwt beam="2">  1       -2 0.21247137E-02 0.23424255E+03</pdfrwt>
<totfact> 0.18536529E+04</totfact>
</mgrwt>
</event>
<event>
 4    1  0.6122885E-004  0.1865273E+03  0.7818608E-02  0.1161631E+00
         -2   -1    0    0    0  501 -0.00000000000E+00  0.00000000000E+00  0.53765915415E+02  0.53765915476E+02  0.25500000000E-02 0. -1.
          2   -1    0    0  501    0  0.00000000000E+00 -0.00000000000E+00 -0.16177742641E+03  0.16177742643E+03  0.25500000000E-02 0.  1.
    5000001    1    1    2    0    0 -0.48971708929E+02 -0.18134427098E+02 -0.61496925816E+02  0.11152559171E+03  0.77000000000E+02 0.  0.
   -5000001    1    1    2    0    0  0.48971708929E+02  0.18134427098E+02 -0.46514585182E+02  0.10401775020E+03  0.77000000000E+02 0.  0.
<mgrwt>
<rscale>  0 0.18652733E+03</rscale>
<asrwt>0</asrwt>
<pdfrwt beam="1">  1        2 0.24888835E-01 0.18652733E+03</pdfrwt>
<pdfrwt beam="2">  1       -2 0.82716794E-02 0.18652733E+03</pdfrwt>
<totfact> 0.18579086E+04</totfact>
</mgrwt>
</event>
<event>
 4    1  0.6122885E-004  0.2554659E+03  0.7818608E-02  0.1109898E+00
         -2   -1    0    0    0  501 -0.00000000000E+00  0.00000000000E+00  0.24719083367E+02  0.24719083498E+02  0.25500000000E-02 0. -1.
          2   -1    0    0  501    0  0.00000000000E+00 -0.00000000000E+00 -0.66004519616E+03  0.66004519616E+03  0.25500000000E-02 0.  1.
    5000001    1    1    2    0    0 -0.92475614115E+02  0.19526572515E+02 -0.41986129063E+03  0.43720193231E+03  0.77000000000E+02 0.  0.
   -5000001    1    1    2    0    0  0.92475614115E+02 -0.19526572515E+02 -0.21546482216E+03  0.24756234735E+03  0.77000000000E+02 0.  0.
<mgrwt>
<rscale>  0 0.25546595E+03</rscale>
<asrwt>0</asrwt>
<pdfrwt beam="1">  1        2 0.10154540E+00 0.25546595E+03</pdfrwt>
<pdfrwt beam="2">  1       -2 0.38029364E-02 0.25546595E+03</pdfrwt>
<totfact> 0.13248356E+04</totfact>
</mgrwt>
</event>
<event>
 4    1  0.6122885E-004  0.2055398E+03  0.7818608E-02  0.1145147E+00
         -2   -1    0    0    0  501 -0.00000000000E+00  0.00000000000E+00  0.13818998800E+02  0.13818999035E+02  0.25500000000E-02 0. -1.
          2   -1    0    0  501    0  0.00000000000E+00 -0.00000000000E+00 -0.76428479673E+03  0.76428479673E+03  0.25500000000E-02 0.  1.
    5000001    1    1    2    0    0 -0.50223276322E+02  0.44763261027E+02 -0.41430483033E+03  0.42673600675E+03  0.77000000000E+02 0.  0.
   -5000001    1    1    2    0    0  0.50223276322E+02 -0.44763261027E+02 -0.33616096759E+03  0.35136778901E+03  0.77000000000E+02 0.  0.
<mgrwt>
<rscale>  0 0.20553978E+03</rscale>
<asrwt>0</asrwt>
<pdfrwt beam="1">  1        2 0.11758224E+00 0.20553978E+03</pdfrwt>
<pdfrwt beam="2">  1       -2 0.21260004E-02 0.20553978E+03</pdfrwt>
<totfact> 0.25927902E+04</totfact>
</mgrwt>
</event>
<event>
 4    1  0.6122885E-004  0.2171172E+03  0.7818608E-02  0.1136051E+00
          2   -1    0    0  501    0  0.00000000000E+00  0.00000000000E+00  0.18088266468E+04  0.18088266468E+04  0.25500000000E-02 0.  1.
         -2   -1    0    0    0  501 -0.00000000000E+00 -0.00000000000E+00 -0.65152539818E+01  0.65152544809E+01  0.25500000000E-02 0. -1.
    5000001    1    1    2    0    0 -0.30886581963E+02  0.49550572317E+02  0.13147331797E+04  0.13182797783E+04  0.77000000000E+02 0.  0.
   -5000001    1    1    2    0    0  0.30886581963E+02 -0.49550572317E+02  0.48757821314E+03  0.49706212297E+03  0.77000000000E+02 0.  0.
<mgrwt>
<rscale>  0 0.21711716E+03</rscale>
<asrwt>0</asrwt>
<pdfrwt beam="1">  1        2 0.27828150E+00 0.21711716E+03</pdfrwt>
<pdfrwt beam="2">  1       -2 0.10023451E-02 0.21711716E+03</pdfrwt>
<totfact> 0.19719172E+04</totfact>
</mgrwt>
</event>
<event>
 4    1  0.6122885E-004  0.3181879E+03  0.7818608E-02  0.1076486E+00
          2   -1    0    0  501    0  0.00000000000E+00  0.00000000000E+00  0.71411738662E+03  0.71411738662E+03  0.25500000000E-02 0.  1.
         -2   -1    0    0    0  501 -0.00000000000E+00 -0.00000000000E+00 -0.35443590044E+02  0.35443590136E+02  0.25500000000E-02 0. -1.
    5000001    1    1    2    0    0  0.98159919355E+02 -0.97835209185E+02  0.30819273648E+03  0.34658167976E+03  0.77000000000E+02 0.  0.
   -5000001    1    1    2    0    0 -0.98159919355E+02  0.97835209185E+02  0.37048106009E+03  0.40297929700E+03  0.77000000000E+02 0.  0.
<mgrwt>
<rscale>  0 0.31818789E+03</rscale>
<asrwt>0</asrwt>
<pdfrwt beam="1">  1        2 0.10986421E+00 0.31818789E+03</pdfrwt>
<pdfrwt beam="2">  1       -2 0.54528603E-02 0.31818789E+03</pdfrwt>
<totfact> 0.70303183E+03</totfact>
</mgrwt>
</event>
<event>
 4    1  0.6122885E-004  0.2230968E+03  0.7818608E-02  0.1131595E+00
         -2   -1    0    0    0  501 -0.00000000000E+00  0.00000000000E+00  0.37966960372E+02  0.37966960458E+02  0.25500000000E-02 0. -1.
          2   -1    0    0  501    0  0.00000000000E+00 -0.00000000000E+00 -0.32773362773E+03  0.32773362774E+03  0.25500000000E-02 0.  1.
    5000001    1    1    2    0    0  0.22653254168E+02 -0.54947130701E+02 -0.55374957618E+02  0.11192740070E+03  0.77000000000E+02 0.  0.
   -5000001    1    1    2    0    0 -0.22653254168E+02  0.54947130701E+02 -0.23439170974E+03  0.25377318749E+03  0.77000000000E+02 0.  0.
<mgrwt>
<rscale>  0 0.22309684E+03</rscale>
<asrwt>0</asrwt>
<pdfrwt beam="1">  1        2 0.50420556E-01 0.22309684E+03</pdfrwt>
<pdfrwt beam="2">  1       -2 0.58410711E-02 0.22309684E+03</pdfrwt>
<totfact> 0.14971648E+04</totfact>
</mgrwt>
</event>
<event>
 4    1  0.6122885E-004  0.4308968E+03  0.7818608E-02  0.1033577E+00
          2   -1    0    0  501    0  0.00000000000E+00  0.00000000000E+00  0.50602993571E+02  0.50602993635E+02  0.25500000000E-02 0.  1.
         -2   -1    0    0    0  501 -0.00000000000E+00 -0.00000000000E+00 -0.91729797327E+03  0.91729797328E+03  0.25500000000E-02 0. -1.
    5000001    1    1    2    0    0  0.16903076803E+03 -0.29747440327E+02 -0.66928596115E+03  0.69521867678E+03  0.77000000000E+02 0.  0.
   -5000001    1    1    2    0    0 -0.16903076803E+03  0.29747440327E+02 -0.19740901855E+03  0.27268229014E+03  0.77000000000E+02 0.  0.
<mgrwt>
<rscale>  0 0.43089685E+03</rscale>
<asrwt>0</asrwt>
<pdfrwt beam="1">  1        2 0.77850766E-02 0.43089685E+03</pdfrwt>
<pdfrwt beam="2">  1       -2 0.14112275E+00 0.43089685E+03</pdfrwt>
<totfact> 0.32754675E+02</totfact>
</mgrwt>
</event>
<event>
 4    1  0.6122885E-004  0.3050356E+03  0.7818608E-02  0.1082750E+00
          2   -1    0    0  501    0  0.00000000000E+00  0.00000000000E+00  0.21724188770E+03  0.21724188771E+03  0.25500000000E-02 0.  1.
         -2   -1    0    0    0  501 -0.00000000000E+00 -0.00000000000E+00 -0.10707732677E+03  0.10707732680E+03  0.25500000000E-02 0. -1.
    5000001    1    1    2    0    0 -0.32352179591E+02 -0.81696007116E+02  0.15931979306E+03  0.19756694452E+03  0.77000000000E+02 0.  0.
   -5000001    1    1    2    0    0  0.32352179591E+02  0.81696007116E+02 -0.49155232132E+02  0.12675226999E+03  0.77000000000E+02 0.  0.
<mgrwt>
<rscale>  0 0.30503561E+03</rscale>
<asrwt>0</asrwt>
<pdfrwt beam="1">  1        2 0.33421829E-01 0.30503561E+03</pdfrwt>
<pdfrwt beam="2">  1       -2 0.16473435E-01 0.30503561E+03</pdfrwt>
<totfact> 0.45451134E+03</totfact>
</mgrwt>
</event>
<event>
 4    1  0.6122885E-004  0.2715105E+03  0.7818608E-02  0.1100418E+00
          2   -1    0    0  501    0  0.00000000000E+00  0.00000000000E+00  0.27757411958E+04  0.27757411958E+04  0.25500000000E-02 0.  1.
         -2   -1    0    0    0  501 -0.00000000000E+00 -0.00000000000E+00 -0.66394814792E+01  0.66394819689E+01  0.25500000000E-02 0. -1.
    5000001    1    1    2    0    0  0.63088406978E+01 -0.93408692309E+02  0.75821941686E+03  0.76784807701E+03  0.77000000000E+02 0.  0.
   -5000001    1    1    2    0    0 -0.63088406978E+01  0.93408692309E+02  0.20108822974E+04  0.20145326007E+04  0.77000000000E+02 0.  0.
<mgrwt>
<rscale>  0 0.27151046E+03</rscale>
<asrwt>0</asrwt>
<pdfrwt beam="1">  1        2 0.42703743E+00 0.27151046E+03</pdfrwt>
<pdfrwt beam="2">  1       -2 0.10214579E-02 0.27151046E+03</pdfrwt>
<totfact> 0.58157410E+03</totfact>
</mgrwt>
</event>
<event>
 4    1  0.6122885E-004  0.5254356E+03  0.7818608E-02  0.1007345E+00
         -2   -1    0    0    0  501 -0.00000000000E+00  0.00000000000E+00  0.58000514995E+02  0.58000515051E+02  0.25500000000E-02 0. -1.
          2   -1    0    0  501    0  0.00000000000E+00 -0.00000000000E+00 -0.11900004308E+04  0.11900004308E+04  0.25500000000E-02 0.  1.
    5000001    1    1    2    0    0  0.19411482684E+03 -0.59261046325E+02 -0.21451271910E+03  0.30518378769E+03  0.77000000000E+02 0.  0.
   -5000001    1    1    2    0    0 -0.19411482684E+03  0.59261046325E+02 -0.91748719669E+03  0.94281715815E+03  0.77000000000E+02 0.  0.
<mgrwt>
<rscale>  0 0.52543558E+03</rscale>
<asrwt>0</asrwt>
<pdfrwt beam="1">  1        2 0.18307697E+00 0.52543558E+03</pdfrwt>
<pdfrwt beam="2">  1       -2 0.89231570E-02 0.52543558E+03</pdfrwt>
<totfact> 0.16035228E+03</totfact>
</mgrwt>
</event>
<event>
 4    1  0.6122885E-004  0.1692925E+03  0.7818608E-02  0.1178588E+00
         -2   -1    0    0    0  501 -0.00000000000E+00  0.00000000000E+00  0.25090010641E+01  0.25090023600E+01  0.25500000000E-02 0. -1.
          2   -1    0    0  501    0  0.00000000000E+00 -0.00000000000E+00 -0.28557142162E+04  0.28557142162E+04  0.25500000000E-02 0.  1.
    5000001    1    1    2    0    0 -0.31500431000E+02 -0.52956187060E+01 -0.11786582077E+04  0.11816025099E+04  0.77000000000E+02 0.  0.
   -5000001    1    1    2    0    0  0.31500431000E+02  0.52956187060E+01 -0.16745470074E+04  0.16766207087E+04  0.77000000000E+02 0.  0.
<mgrwt>
<rscale>  0 0.16929255E+03</rscale>
<asrwt>0</asrwt>
<pdfrwt beam="1">  1        2 0.43933805E+00 0.16929255E+03</pdfrwt>
<pdfrwt beam="2">  1       -2 0.38600255E-03 0.16929255E+03</pdfrwt>
<totfact> 0.21087236E+04</totfact>
</mgrwt>
</event>
<event>
 4    1  0.6122885E-004  0.2308652E+03  0.7818608E-02  0.1126032E+00
          2   -1    0    0  501    0  0.00000000000E+00  0.00000000000E+00  0.84778328037E+03  0.84778328038E+03  0.25500000000E-02 0.  1.
         -2   -1    0    0    0  501 -0.00000000000E+00 -0.00000000000E+00 -0.15717088748E+02  0.15717088955E+02  0.25500000000E-02 0. -1.
    5000001    1    1    2    0    0 -0.71374580875E+02  0.13623173598E+02  0.58807633622E+03  0.59753050037E+03  0.77000000000E+02 0.  0.
   -5000001    1    1    2    0    0  0.71374580875E+02 -0.13623173598E+02  0.24398985541E+03  0.26596986896E+03  0.77000000000E+02 0.  0.
<mgrwt>
<rscale>  0 0.23086520E+03</rscale>
<asrwt>0</asrwt>
<pdfrwt beam="1">  1        2 0.13042821E+00 0.23086520E+03</pdfrwt>
<pdfrwt beam="2">  1       -2 0.24180133E-02 0.23086520E+03</pdfrwt>
<totfact> 0.18948933E+04</totfact>
</mgrwt>
</event>
<event>
 4    1  0.6122885E-004  0.1981920E+03  0.7818608E-02  0.1151273E+00
         -2   -1    0    0    0  501 -0.00000000000E+00  0.00000000000E+00  0.12434929727E+03  0.12434929730E+03  0.25500000000E-02 0. -1.
          2   -1    0    0  501    0  0.00000000000E+00 -0.00000000000E+00 -0.78971222973E+02  0.78971223014E+02  0.25500000000E-02 0.  1.
    5000001    1    1    2    0    0  0.52762369058E+02 -0.16529148476E+02  0.52314245483E+02  0.10827215994E+03  0.77000000000E+02 0.  0.
   -5000001    1    1    2    0    0 -0.52762369058E+02  0.16529148476E+02 -0.69361711866E+01  0.95048360368E+02  0.77000000000E+02 0.  0.
<mgrwt>
<rscale>  0 0.19819199E+03</rscale>
<asrwt>0</asrwt>
<pdfrwt beam="1">  1        2 0.12149419E-01 0.19819199E+03</pdfrwt>
<pdfrwt beam="2">  1       -2 0.19130661E-01 0.19819199E+03</pdfrwt>
<totfact> 0.11036539E+04</totfact>
</mgrwt>
</event>
<event>
 4    1  0.6122885E-004  0.4290497E+03  0.7818608E-02  0.1034161E+00
         -2   -1    0    0    0  501 -0.00000000000E+00  0.00000000000E+00  0.41409694149E+02  0.41409694227E+02  0.25500000000E-02 0. -1.
          2   -1    0    0  501    0  0.00000000000E+00 -0.00000000000E+00 -0.11113560347E+04  0.11113560347E+04  0.25500000000E-02 0.  1.
    5000001    1    1    2    0    0  0.67754580417E+01  0.15503167044E+03 -0.87494679051E+03  0.89193139416E+03  0.77000000000E+02 0.  0.
   -5000001    1    1    2    0    0 -0.67754580417E+01 -0.15503167044E+03 -0.19499955000E+03  0.26083433472E+03  0.77000000000E+02 0.  0.
<mgrwt>
<rscale>  0 0.42904971E+03</rscale>
<asrwt>0</asrwt>
<pdfrwt beam="1">  1        2 0.17097783E+00 0.42904971E+03</pdfrwt>
<pdfrwt beam="2">  1       -2 0.63707230E-02 0.42904971E+03</pdfrwt>
<totfact> 0.30426230E+03</totfact>
</mgrwt>
</event>
<event>
 4    1  0.6122885E-004  0.4136275E+03  0.7818608E-02  0.1039161E+00
         -2   -1    0    0    0  501 -0.00000000000E+00  0.00000000000E+00  0.36982036631E+02  0.36982036719E+02  0.25500000000E-02 0. -1.
          2   -1    0    0  501    0  0.00000000000E+00 -0.00000000000E+00 -0.11565593316E+04  0.11565593316E+04  0.25500000000E-02 0.  1.
    5000001    1    1    2    0    0  0.19039839983E+03 -0.24318031097E+02 -0.55992791530E+03  0.59690132151E+03  0.77000000000E+02 0.  0.
   -5000001    1    1    2    0    0 -0.19039839983E+03  0.24318031097E+02 -0.55964937969E+03  0.59664004683E+03  0.77000000000E+02 0.  0.
<mgrwt>
<rscale>  0 0.41362746E+03</rscale>
<asrwt>0</asrwt>
<pdfrwt beam="1">  1        2 0.17793218E+00 0.41362746E+03</pdfrwt>
<pdfrwt beam="2">  1       -2 0.56895450E-02 0.41362746E+03</pdfrwt>
<totfact> 0.34102069E+03</totfact>
</mgrwt>
</event>
<event>
 4    1  0.6122885E-004  0.2169686E+03  0.7818608E-02  0.1136163E+00
          2   -1    0    0  501    0  0.00000000000E+00  0.00000000000E+00  0.52383141729E+02  0.52383141791E+02  0.25500000000E-02 0.  1.
         -2   -1    0    0    0  501 -0.00000000000E+00 -0.00000000000E+00 -0.22466859442E+03  0.22466859443E+03  0.25500000000E-02 0. -1.
    5000001    1    1    2    0    0  0.52253097511E+02  0.55130325941E+02 -0.96834434172E+02  0.14517453867E+03  0.77000000000E+02 0.  0.
   -5000001    1    1    2    0    0 -0.52253097511E+02 -0.55130325941E+02 -0.75451018516E+02  0.13187719755E+03  0.77000000000E+02 0.  0.
<mgrwt>
<rscale>  0 0.21696863E+03</rscale>
<asrwt>0</asrwt>
<pdfrwt beam="1">  1        2 0.80589450E-02 0.21696863E+03</pdfrwt>
<pdfrwt beam="2">  1       -2 0.34564399E-01 0.21696863E+03</pdfrwt>
<totfact> 0.64820323E+03</totfact>
</mgrwt>
</event>
<event>
 4    1  0.6122885E-004  0.5528268E+03  0.7818608E-02  0.1000842E+00
         -2   -1    0    0    0  501 -0.00000000000E+00  0.00000000000E+00  0.51552803389E+02  0.51552803452E+02  0.25500000000E-02 0. -1.
          2   -1    0    0  501    0  0.00000000000E+00 -0.00000000000E+00 -0.14820606218E+04  0.14820606218E+04  0.25500000000E-02 0.  1.
    5000001    1    1    2    0    0 -0.18300285901E+03 -0.88090893750E+02 -0.11895029650E+04  0.12091717643E+04  0.77000000000E+02 0.  0.
   -5000001    1    1    2    0    0  0.18300285901E+03  0.88090893750E+02 -0.24100485347E+03  0.32444166096E+03  0.77000000000E+02 0.  0.
<mgrwt>
<rscale>  0 0.55282684E+03</rscale>
<asrwt>0</asrwt>
<pdfrwt beam="1">  1        2 0.22800929E+00 0.55282684E+03</pdfrwt>
<pdfrwt beam="2">  1       -2 0.79312017E-02 0.55282684E+03</pdfrwt>
<totfact> 0.13210316E+03</totfact>
</mgrwt>
</event>
<event>
 4    1  0.6122885E-004  0.1754733E+03  0.7818608E-02  0.1172257E+00
          2   -1    0    0  501    0  0.00000000000E+00  0.00000000000E+00  0.43986516886E+03  0.43986516887E+03  0.25500000000E-02 0. -1.
         -2   -1    0    0    0  501 -0.00000000000E+00 -0.00000000000E+00 -0.17500176073E+02  0.17500176259E+02  0.25500000000E-02 0.  1.
    5000001    1    1    2    0    0  0.11075247496E+01  0.37266920365E+02  0.16046222658E+03  0.18184382344E+03  0.77000000000E+02 0.  0.
   -5000001    1    1    2    0    0 -0.11075247496E+01 -0.37266920365E+02  0.26190276621E+03  0.27552152169E+03  0.77000000000E+02 0.  0.
<mgrwt>
<rscale>  0 0.17547328E+03</rscale>
<asrwt>0</asrwt>
<pdfrwt beam="1">  1        2 0.67671553E-01 0.17547328E+03</pdfrwt>
<pdfrwt beam="2">  1       -2 0.26923353E-02 0.17547328E+03</pdfrwt>
<totfact> 0.34140874E+04</totfact>
</mgrwt>
</event>
<event>
 4    1  0.6122885E-004  0.4065333E+03  0.7818608E-02  0.1041541E+00
          2   -1    0    0  501    0  0.00000000000E+00  0.00000000000E+00  0.32885385987E+03  0.32885385988E+03  0.25500000000E-02 0.  1.
         -2   -1    0    0    0  501 -0.00000000000E+00 -0.00000000000E+00 -0.12564040987E+03  0.12564040989E+03  0.25500000000E-02 0. -1.
    5000001    1    1    2    0    0 -0.75093747558E+02  0.16858378590E+03  0.14235949869E+03  0.24546851256E+03  0.77000000000E+02 0.  0.
   -5000001    1    1    2    0    0  0.75093747558E+02 -0.16858378590E+03  0.60853951312E+02  0.20902575722E+03  0.77000000000E+02 0.  0.
<mgrwt>
<rscale>  0 0.40653331E+03</rscale>
<asrwt>0</asrwt>
<pdfrwt beam="1">  1        2 0.50592902E-01 0.40653331E+03</pdfrwt>
<pdfrwt beam="2">  1       -2 0.19329294E-01 0.40653331E+03</pdfrwt>
<totfact> 0.22196236E+03</totfact>
</mgrwt>
</event>
<event>
 4    1  0.6122885E-004  0.3664679E+03  0.7818608E-02  0.1056052E+00
         -2   -1    0    0    0  501 -0.00000000000E+00  0.00000000000E+00  0.21245515624E+03  0.21245515625E+03  0.25500000000E-02 0. -1.
          2   -1    0    0  501    0  0.00000000000E+00 -0.00000000000E+00 -0.15803185494E+03  0.15803185496E+03  0.25500000000E-02 0.  1.
    5000001    1    1    2    0    0 -0.10632201347E+03  0.12143249535E+03 -0.13169633518E+02  0.17931163019E+03  0.77000000000E+02 0.  0.
   -5000001    1    1    2    0    0  0.10632201347E+03 -0.12143249535E+03  0.67592934813E+02  0.19117538103E+03  0.77000000000E+02 0.  0.
<mgrwt>
<rscale>  0 0.36646791E+03</rscale>
<asrwt>0</asrwt>
<pdfrwt beam="1">  1        2 0.24312593E-01 0.36646791E+03</pdfrwt>
<pdfrwt beam="2">  1       -2 0.32685409E-01 0.36646791E+03</pdfrwt>
<totfact> 0.19491045E+03</totfact>
</mgrwt>
</event>
<event>
 4    1  0.6122885E-004  0.1928286E+03  0.7818608E-02  0.1155935E+00
         -2   -1    0    0    0  501 -0.00000000000E+00  0.00000000000E+00  0.97949468159E+01  0.97949471478E+01  0.25500000000E-02 0. -1.
          2   -1    0    0  501    0  0.00000000000E+00 -0.00000000000E+00 -0.94903178876E+03  0.94903178876E+03  0.25500000000E-02 0.  1.
    5000001    1    1    2    0    0  0.37503276774E+02  0.31115582124E+02 -0.62623346985E+03  0.63282859763E+03  0.77000000000E+02 0.  0.
   -5000001    1    1    2    0    0 -0.37503276774E+02 -0.31115582124E+02 -0.31300337210E+03  0.32599813828E+03  0.77000000000E+02 0.  0.
<mgrwt>
<rscale>  0 0.19282859E+03</rscale>
<asrwt>0</asrwt>
<pdfrwt beam="1">  1        2 0.14600482E+00 0.19282859E+03</pdfrwt>
<pdfrwt beam="2">  1       -2 0.15069157E-02 0.19282859E+03</pdfrwt>
<totfact> 0.32218286E+04</totfact>
</mgrwt>
</event>
<event>
 4    1  0.6122885E-004  0.1775602E+03  0.7818608E-02  0.1170185E+00
          2   -1    0    0  501    0  0.00000000000E+00  0.00000000000E+00  0.53260127711E+03  0.53260127712E+03  0.25500000000E-02 0.  1.
         -2   -1    0    0    0  501 -0.00000000000E+00 -0.00000000000E+00 -0.14798883163E+02  0.14798883383E+02  0.25500000000E-02 0. -1.
    5000001    1    1    2    0    0 -0.97663076607E+01 -0.42970336668E+02  0.26916013731E+03  0.28340432268E+03  0.77000000000E+02 0.  0.
   -5000001    1    1    2    0    0  0.97663076607E+01  0.42970336668E+02  0.24864225664E+03  0.26399583782E+03  0.77000000000E+02 0.  0.
<mgrwt>
<rscale>  0 0.17756018E+03</rscale>
<asrwt>0</asrwt>
<pdfrwt beam="1">  1        2 0.81938649E-01 0.17756018E+03</pdfrwt>
<pdfrwt beam="2">  1       -2 0.22767515E-02 0.17756018E+03</pdfrwt>
<totfact> 0.35407514E+04</totfact>
</mgrwt>
</event>
<event>
 4    1  0.6122885E-004  0.3911669E+03  0.7818608E-02  0.1046882E+00
         -2   -1    0    0    0  501 -0.00000000000E+00  0.00000000000E+00  0.18741903459E+03  0.18741903461E+03  0.25500000000E-02 0.  1.
          2   -1    0    0  501    0  0.00000000000E+00 -0.00000000000E+00 -0.20410351214E+03  0.20410351216E+03  0.25500000000E-02 0. -1.
    5000001    1    1    2    0    0  0.38317271777E+02 -0.85816794972E+02  0.14506533834E+03  0.18922390971E+03  0.77000000000E+02 0.  0.
   -5000001    1    1    2    0    0 -0.38317271777E+02  0.85816794972E+02 -0.16174981589E+03  0.20229863706E+03  0.77000000000E+02 0.  0.
<mgrwt>
<rscale>  0 0.39116689E+03</rscale>
<asrwt>0</asrwt>
<pdfrwt beam="1">  1        2 0.31400540E-01 0.39116689E+03</pdfrwt>
<pdfrwt beam="2">  1       -2 0.28833698E-01 0.39116689E+03</pdfrwt>
<totfact> 0.18451197E+03</totfact>
</mgrwt>
</event>
<event>
 4    1  0.6122885E-004  0.1981257E+03  0.7818608E-02  0.1151330E+00
         -2   -1    0    0    0  501 -0.00000000000E+00  0.00000000000E+00  0.49425607821E+03  0.49425607821E+03  0.25500000000E-02 0. -1.
          2   -1    0    0  501    0  0.00000000000E+00 -0.00000000000E+00 -0.19854987022E+02  0.19854987185E+02  0.25500000000E-02 0.  1.
    5000001    1    1    2    0    0  0.55738827175E+02  0.19281791244E+02  0.28947572885E+03  0.30529297719E+03  0.77000000000E+02 0.  0.
   -5000001    1    1    2    0    0 -0.55738827175E+02 -0.19281791244E+02  0.18492536234E+03  0.20881808821E+03  0.77000000000E+02 0.  0.
<mgrwt>
<rscale>  0 0.19812570E+03</rscale>
<asrwt>0</asrwt>
<pdfrwt beam="1">  1        2 0.30546136E-02 0.19812570E+03</pdfrwt>
<pdfrwt beam="2">  1       -2 0.76039392E-01 0.19812570E+03</pdfrwt>
<totfact> 0.47539677E+03</totfact>
</mgrwt>
</event>
<event>
 4    1  0.6122885E-004  0.2074264E+03  0.7818608E-02  0.1143620E+00
          2   -1    0    0  501    0  0.00000000000E+00  0.00000000000E+00  0.19173835284E+04  0.19173835284E+04  0.25500000000E-02 0.  1.
         -2   -1    0    0    0  501 -0.00000000000E+00 -0.00000000000E+00 -0.56099534232E+01  0.56099540027E+01  0.25500000000E-02 0. -1.
    5000001    1    1    2    0    0 -0.66411239624E+02 -0.19858600727E+02  0.99997498168E+03  0.10053276982E+04  0.77000000000E+02 0.  0.
   -5000001    1    1    2    0    0  0.66411239624E+02  0.19858600727E+02  0.91179859329E+03  0.91766578420E+03  0.77000000000E+02 0.  0.
<mgrwt>
<rscale>  0 0.20742645E+03</rscale>
<asrwt>0</asrwt>
<pdfrwt beam="1">  1        2 0.29498227E+00 0.20742645E+03</pdfrwt>
<pdfrwt beam="2">  1       -2 0.86306926E-03 0.20742645E+03</pdfrwt>
<totfact> 0.21448939E+04</totfact>
</mgrwt>
</event>
<event>
 4    1  0.6122885E-004  0.5125772E+03  0.7818608E-02  0.1010547E+00
          2   -1    0    0  501    0  0.00000000000E+00  0.00000000000E+00  0.12390951232E+04  0.12390951232E+04  0.25500000000E-02 0.  1.
         -2   -1    0    0    0  501 -0.00000000000E+00 -0.00000000000E+00 -0.53009532782E+02  0.53009532843E+02  0.25500000000E-02 0. -1.
    5000001    1    1    2    0    0  0.63230815105E+02 -0.23202299617E+03  0.48252801361E+03  0.54460544493E+03  0.77000000000E+02 0.  0.
   -5000001    1    1    2    0    0 -0.63230815105E+02  0.23202299617E+03  0.70355757678E+03  0.74749921109E+03  0.77000000000E+02 0.  0.
<mgrwt>
<rscale>  0 0.51257723E+03</rscale>
<asrwt>0</asrwt>
<pdfrwt beam="1">  1        2 0.19063003E+00 0.51257723E+03</pdfrwt>
<pdfrwt beam="2">  1       -2 0.81553121E-02 0.51257723E+03</pdfrwt>
<totfact> 0.17339848E+03</totfact>
</mgrwt>
</event>
<event>
 4    1  0.6122885E-004  0.5165565E+03  0.7818608E-02  0.1009546E+00
         -2   -1    0    0    0  501 -0.00000000000E+00  0.00000000000E+00  0.26377991643E+02  0.26377991767E+02  0.25500000000E-02 0.  1.
          2   -1    0    0  501    0  0.00000000000E+00 -0.00000000000E+00 -0.25289128268E+04  0.25289128269E+04  0.25500000000E-02 0. -1.
    5000001    1    1    2    0    0  0.19612607915E+03  0.42475674096E+02 -0.19596942421E+04  0.19714462063E+04  0.77000000000E+02 0.  0.
   -5000001    1    1    2    0    0 -0.19612607915E+03 -0.42475674096E+02 -0.54284059315E+03  0.58384461236E+03  0.77000000000E+02 0.  0.
<mgrwt>
<rscale>  0 0.51655645E+03</rscale>
<asrwt>0</asrwt>
<pdfrwt beam="1">  1        2 0.38906332E+00 0.51655645E+03</pdfrwt>
<pdfrwt beam="2">  1       -2 0.40581546E-02 0.51655645E+03</pdfrwt>
<totfact> 0.10107097E+03</totfact>
</mgrwt>
</event>
<event>
 4    1  0.6122885E-004  0.1953370E+03  0.7818608E-02  0.1153734E+00
         -2   -1    0    0    0  501 -0.00000000000E+00  0.00000000000E+00  0.50301215680E+01  0.50301222143E+01  0.25500000000E-02 0. -1.
          2   -1    0    0  501    0  0.00000000000E+00 -0.00000000000E+00 -0.18964025552E+04  0.18964025552E+04  0.25500000000E-02 0.  1.
    5000001    1    1    2    0    0  0.12857811423E+02  0.58392924611E+02 -0.10033390106E+04  0.10080640987E+04  0.77000000000E+02 0.  0.
   -5000001    1    1    2    0    0 -0.12857811423E+02 -0.58392924611E+02 -0.88803342308E+03  0.89336857873E+03  0.77000000000E+02 0.  0.
<mgrwt>
<rscale>  0 0.19533700E+03</rscale>
<asrwt>0</asrwt>
<pdfrwt beam="1">  1        2 0.29175367E+00 0.19533700E+03</pdfrwt>
<pdfrwt beam="2">  1       -2 0.77386642E-03 0.19533700E+03</pdfrwt>
<totfact> 0.25663280E+04</totfact>
</mgrwt>
</event>
<event>
 4    1  0.6122885E-004  0.2070765E+03  0.7818608E-02  0.1143902E+00
         -2   -1    0    0    0  501 -0.00000000000E+00  0.00000000000E+00  0.15653911698E+03  0.15653911700E+03  0.25500000000E-02 0. -1.
          2   -1    0    0  501    0  0.00000000000E+00 -0.00000000000E+00 -0.68482393735E+02  0.68482393782E+02  0.25500000000E-02 0.  1.
    5000001    1    1    2    0    0 -0.23568242420E+02  0.62617190292E+02  0.24748241999E+02  0.10496594711E+03  0.77000000000E+02 0.  0.
   -5000001    1    1    2    0    0  0.23568242420E+02 -0.62617190292E+02  0.63308481245E+02  0.12005556367E+03  0.77000000000E+02 0.  0.
<mgrwt>
<rscale>  0 0.20707654E+03</rscale>
<asrwt>0</asrwt>
<pdfrwt beam="1">  1        2 0.10535753E-01 0.20707654E+03</pdfrwt>
<pdfrwt beam="2">  1       -2 0.24082941E-01 0.20707654E+03</pdfrwt>
<totfact> 0.88635237E+03</totfact>
</mgrwt>
</event>
<event>
 4    1  0.6122885E-004  0.4534002E+03  0.7818608E-02  0.1026713E+00
          2   -1    0    0  501    0  0.00000000000E+00  0.00000000000E+00  0.11243664276E+03  0.11243664279E+03  0.25500000000E-02 0.  1.
         -2   -1    0    0    0  501 -0.00000000000E+00 -0.00000000000E+00 -0.45708351388E+03  0.45708351388E+03  0.25500000000E-02 0. -1.
    5000001    1    1    2    0    0  0.20494870666E+03 -0.97502249962E+01 -0.24518747548E+03  0.32885397578E+03  0.77000000000E+02 0.  0.
   -5000001    1    1    2    0    0 -0.20494870666E+03  0.97502249962E+01 -0.99459395630E+02  0.24066618090E+03  0.77000000000E+02 0.  0.
<mgrwt>
<rscale>  0 0.45340020E+03</rscale>
<asrwt>0</asrwt>
<pdfrwt beam="1">  1        2 0.17297945E-01 0.45340020E+03</pdfrwt>
<pdfrwt beam="2">  1       -2 0.70320540E-01 0.45340020E+03</pdfrwt>
<totfact> 0.62525555E+02</totfact>
</mgrwt>
</event>
<event>
 4    1  0.6122885E-004  0.2080924E+03  0.7818608E-02  0.1143086E+00
         -2   -1    0    0    0  501 -0.00000000000E+00  0.00000000000E+00  0.66002414949E+01  0.66002419875E+01  0.25500000000E-02 0. -1.
          2   -1    0    0  501    0  0.00000000000E+00 -0.00000000000E+00 -0.16401842999E+04  0.16401842999E+04  0.25500000000E-02 0.  1.
    5000001    1    1    2    0    0  0.38802445590E+02 -0.56278074853E+02 -0.69841345225E+03  0.70596260650E+03  0.77000000000E+02 0.  0.
   -5000001    1    1    2    0    0 -0.38802445590E+02  0.56278074853E+02 -0.93517060615E+03  0.94082193538E+03  0.77000000000E+02 0.  0.
<mgrwt>
<rscale>  0 0.20809241E+03</rscale>
<asrwt>0</asrwt>
<pdfrwt beam="1">  1        2 0.25233572E+00 0.20809241E+03</pdfrwt>
<pdfrwt beam="2">  1       -2 0.10154231E-02 0.20809241E+03</pdfrwt>
<totfact> 0.23654278E+04</totfact>
</mgrwt>
</event>
<event>
 4    1  0.6122885E-004  0.2428361E+03  0.7818608E-02  0.1117918E+00
         -2   -1    0    0    0  501 -0.00000000000E+00  0.00000000000E+00  0.43446312370E+01  0.43446319853E+01  0.25500000000E-02 0. -1.
          2   -1    0    0  501    0  0.00000000000E+00 -0.00000000000E+00 -0.33932314748E+04  0.33932314748E+04  0.25500000000E-02 0.  1.
    5000001    1    1    2    0    0  0.42926289401E+02 -0.46389374290E+02 -0.72321599784E+03  0.73004453282E+03  0.77000000000E+02 0.  0.
   -5000001    1    1    2    0    0 -0.42926289401E+02  0.46389374290E+02 -0.26656708457E+04  0.26675315740E+04  0.77000000000E+02 0.  0.
<mgrwt>
<rscale>  0 0.24283608E+03</rscale>
<asrwt>0</asrwt>
<pdfrwt beam="1">  1        2 0.52203349E+00 0.24283608E+03</pdfrwt>
<pdfrwt beam="2">  1       -2 0.66840758E-03 0.24283608E+03</pdfrwt>
<totfact> 0.45657355E+03</totfact>
</mgrwt>
</event>
<event>
 4    1  0.6122885E-004  0.2905618E+03  0.7818608E-02  0.1090056E+00
          2   -1    0    0  501    0  0.00000000000E+00  0.00000000000E+00  0.51658448330E+03  0.51658448331E+03  0.25500000000E-02 0.  1.
         -2   -1    0    0    0  501 -0.00000000000E+00 -0.00000000000E+00 -0.40857879420E+02  0.40857879499E+02  0.25500000000E-02 0. -1.
    5000001    1    1    2    0    0 -0.83195884019E+02 -0.81439959055E+02  0.16056128810E+03  0.21275090901E+03  0.77000000000E+02 0.  0.
   -5000001    1    1    2    0    0  0.83195884019E+02  0.81439959055E+02  0.31516531579E+03  0.34469145380E+03  0.77000000000E+02 0.  0.
<mgrwt>
<rscale>  0 0.29056185E+03</rscale>
<asrwt>0</asrwt>
<pdfrwt beam="1">  1        2 0.79474535E-01 0.29056185E+03</pdfrwt>
<pdfrwt beam="2">  1       -2 0.62858277E-02 0.29056185E+03</pdfrwt>
<totfact> 0.82390392E+03</totfact>
</mgrwt>
</event>
<event>
 4    1  0.6122885E-004  0.2613206E+03  0.7818608E-02  0.1106352E+00
          2   -1    0    0  501    0  0.00000000000E+00  0.00000000000E+00  0.89634170120E+03  0.89634170121E+03  0.25500000000E-02 0.  1.
         -2   -1    0    0    0  501 -0.00000000000E+00 -0.00000000000E+00 -0.19046441845E+02  0.19046442016E+02  0.25500000000E-02 0. -1.
    5000001    1    1    2    0    0  0.10169632030E+03  0.22144262136E+02  0.37691149215E+03  0.39852701643E+03  0.77000000000E+02 0.  0.
   -5000001    1    1    2    0    0 -0.10169632030E+03 -0.22144262136E+02  0.50038376720E+03  0.51686112679E+03  0.77000000000E+02 0.  0.
<mgrwt>
<rscale>  0 0.26132065E+03</rscale>
<asrwt>0</asrwt>
<pdfrwt beam="1">  1        2 0.13789870E+00 0.26132065E+03</pdfrwt>
<pdfrwt beam="2">  1       -2 0.29302222E-02 0.26132065E+03</pdfrwt>
<totfact> 0.13327487E+04</totfact>
</mgrwt>
</event>
<event>
 4    1  0.6122885E-004  0.5123436E+03  0.7818608E-02  0.1010606E+00
          2   -1    0    0  501    0  0.00000000000E+00  0.00000000000E+00  0.98947539260E+03  0.98947539260E+03  0.25500000000E-02 0.  1.
         -2   -1    0    0    0  501 -0.00000000000E+00 -0.00000000000E+00 -0.66322012255E+02  0.66322012304E+02  0.25500000000E-02 0. -1.
    5000001    1    1    2    0    0  0.19100017530E+03 -0.13944284475E+03  0.58809935644E+03  0.63852582326E+03  0.77000000000E+02 0.  0.
   -5000001    1    1    2    0    0 -0.19100017530E+03  0.13944284475E+03  0.33505402390E+03  0.41727158165E+03  0.77000000000E+02 0.  0.
<mgrwt>
<rscale>  0 0.51234363E+03</rscale>
<asrwt>0</asrwt>
<pdfrwt beam="1">  1        2 0.15222698E+00 0.51234363E+03</pdfrwt>
<pdfrwt beam="2">  1       -2 0.10203386E-01 0.51234363E+03</pdfrwt>
<totfact> 0.17105533E+03</totfact>
</mgrwt>
</event>
<event>
 4    1  0.6122885E-004  0.2128969E+03  0.7818608E-02  0.1139292E+00
          2   -1    0    0  501    0  0.00000000000E+00  0.00000000000E+00  0.13118440449E+03  0.13118440451E+03  0.25500000000E-02 0.  1.
         -2   -1    0    0    0  501 -0.00000000000E+00 -0.00000000000E+00 -0.86376643370E+02  0.86376643407E+02  0.25500000000E-02 0. -1.
    5000001    1    1    2    0    0  0.71662090191E+02 -0.50926016872E+00  0.57197149302E+01  0.10534433851E+03  0.77000000000E+02 0.  0.
   -5000001    1    1    2    0    0 -0.71662090191E+02  0.50926016872E+00  0.39088046185E+02  0.11221670941E+03  0.77000000000E+02 0.  0.
<mgrwt>
<rscale>  0 0.21289686E+03</rscale>
<asrwt>0</asrwt>
<pdfrwt beam="1">  1        2 0.20182216E-01 0.21289686E+03</pdfrwt>
<pdfrwt beam="2">  1       -2 0.13288714E-01 0.21289686E+03</pdfrwt>
<totfact> 0.11176438E+04</totfact>
</mgrwt>
</event>
<event>
 4    1  0.6122885E-004  0.1907202E+03  0.7818608E-02  0.1157813E+00
         -2   -1    0    0    0  501 -0.00000000000E+00  0.00000000000E+00  0.42361576899E+03  0.42361576899E+03  0.25500000000E-02 0. -1.
          2   -1    0    0  501    0  0.00000000000E+00 -0.00000000000E+00 -0.21466509401E+02  0.21466509553E+02  0.25500000000E-02 0.  1.
    5000001    1    1    2    0    0  0.36128490199E+02 -0.14463551787E+02  0.29587222489E+03  0.30819447691E+03  0.77000000000E+02 0.  0.
   -5000001    1    1    2    0    0 -0.36128490199E+02  0.14463551787E+02  0.10627703470E+03  0.13688780164E+03  0.77000000000E+02 0.  0.
<mgrwt>
<rscale>  0 0.19072023E+03</rscale>
<asrwt>0</asrwt>
<pdfrwt beam="1">  1        2 0.33025401E-02 0.19072023E+03</pdfrwt>
<pdfrwt beam="2">  1       -2 0.65171654E-01 0.19072023E+03</pdfrwt>
<totfact> 0.59330255E+03</totfact>
</mgrwt>
</event>
<event>
 4    1  0.6122885E-004  0.5730158E+03  0.7818608E-02  0.9963027E-01
          2   -1    0    0  501    0  0.00000000000E+00  0.00000000000E+00  0.15075258991E+04  0.15075258991E+04  0.25500000000E-02 0.  1.
         -2   -1    0    0    0  501 -0.00000000000E+00 -0.00000000000E+00 -0.54451318872E+02  0.54451318932E+02  0.25500000000E-02 0. -1.
    5000001    1    1    2    0    0 -0.25631929456E+03  0.76016902319E+02  0.91300925775E+03  0.95445956171E+03  0.77000000000E+02 0.  0.
   -5000001    1    1    2    0    0  0.25631929456E+03 -0.76016902319E+02  0.54006532248E+03  0.60751765633E+03  0.77000000000E+02 0.  0.
<mgrwt>
<rscale>  0 0.57301579E+03</rscale>
<asrwt>0</asrwt>
<pdfrwt beam="1">  1        2 0.23192708E+00 0.57301579E+03</pdfrwt>
<pdfrwt beam="2">  1       -2 0.83771252E-02 0.57301579E+03</pdfrwt>
<totfact> 0.11711819E+03</totfact>
</mgrwt>
</event>
<event>
 4    1  0.6122885E-004  0.4810747E+03  0.7818608E-02  0.1018840E+00
         -2   -1    0    0    0  501 -0.00000000000E+00  0.00000000000E+00  0.22140847862E+03  0.22140847863E+03  0.25500000000E-02 0. -1.
          2   -1    0    0  501    0  0.00000000000E+00 -0.00000000000E+00 -0.26131893031E+03  0.26131893032E+03  0.25500000000E-02 0.  1.
    5000001    1    1    2    0    0  0.57808784780E+02 -0.19327601031E+03  0.86388828729E+02  0.23257149758E+03  0.77000000000E+02 0.  0.
   -5000001    1    1    2    0    0 -0.57808784780E+02  0.19327601031E+03 -0.12629928042E+03  0.25015591137E+03  0.77000000000E+02 0.  0.
<mgrwt>
<rscale>  0 0.48107474E+03</rscale>
<asrwt>0</asrwt>
<pdfrwt beam="1">  1        2 0.40202913E-01 0.48107474E+03</pdfrwt>
<pdfrwt beam="2">  1       -2 0.34062843E-01 0.48107474E+03</pdfrwt>
<totfact> 0.10339994E+03</totfact>
</mgrwt>
</event>
<event>
 4    1  0.6122885E-004  0.2212795E+03  0.7818608E-02  0.1132933E+00
          2   -1    0    0  501    0  0.00000000000E+00  0.00000000000E+00  0.59953567127E+02  0.59953567181E+02  0.25500000000E-02 0.  1.
         -2   -1    0    0    0  501 -0.00000000000E+00 -0.00000000000E+00 -0.20417729624E+03  0.20417729626E+03  0.25500000000E-02 0. -1.
    5000001    1    1    2    0    0  0.51455489370E+02 -0.48276619373E+02 -0.28517264616E+02  0.10826141393E+03  0.77000000000E+02 0.  0.
   -5000001    1    1    2    0    0 -0.51455489370E+02  0.48276619373E+02 -0.11570646450E+03  0.15586944951E+03  0.77000000000E+02 0.  0.
<mgrwt>
<rscale>  0 0.22127953E+03</rscale>
<asrwt>0</asrwt>
<pdfrwt beam="1">  1        2 0.92236258E-02 0.22127953E+03</pdfrwt>
<pdfrwt beam="2">  1       -2 0.31411891E-01 0.22127953E+03</pdfrwt>
<totfact> 0.65295351E+03</totfact>
</mgrwt>
</event>
<event>
 4    1  0.6122885E-004  0.5606676E+03  0.7818608E-02  0.9990545E-01
          2   -1    0    0  501    0  0.00000000000E+00  0.00000000000E+00  0.26480200334E+04  0.26480200334E+04  0.25500000000E-02 0.  1.
         -2   -1    0    0    0  501 -0.00000000000E+00 -0.00000000000E+00 -0.29677662868E+02  0.29677662978E+02  0.25500000000E-02 0. -1.
    5000001    1    1    2    0    0 -0.21745175403E+03  0.14119825663E+03  0.95705246198E+03  0.99453538297E+03  0.77000000000E+02 0.  0.
   -5000001    1    1    2    0    0  0.21745175403E+03 -0.14119825663E+03  0.16612899085E+04  0.16831623134E+04  0.77000000000E+02 0.  0.
<mgrwt>
<rscale>  0 0.56066762E+03</rscale>
<asrwt>0</asrwt>
<pdfrwt beam="1">  1        2 0.40738769E+00 0.56066762E+03</pdfrwt>
<pdfrwt beam="2">  1       -2 0.45657944E-02 0.56066762E+03</pdfrwt>
<totfact> 0.71876489E+02</totfact>
</mgrwt>
</event>
<event>
 4    1  0.6122885E-004  0.2155345E+03  0.7818608E-02  0.1137257E+00
         -2   -1    0    0    0  501 -0.00000000000E+00  0.00000000000E+00  0.68014613461E+01  0.68014618241E+01  0.25500000000E-02 0. -1.
          2   -1    0    0  501    0  0.00000000000E+00 -0.00000000000E+00 -0.17075421629E+04  0.17075421629E+04  0.25500000000E-02 0.  1.
    5000001    1    1    2    0    0 -0.27440426225E+02 -0.16740378273E+02 -0.30789427055E+03  0.31900015532E+03  0.77000000000E+02 0.  0.
   -5000001    1    1    2    0    0  0.27440426225E+02  0.16740378273E+02 -0.13928464311E+04  0.13953434695E+04  0.77000000000E+02 0.  0.
<mgrwt>
<rscale>  0 0.21553452E+03</rscale>
<asrwt>0</asrwt>
<pdfrwt beam="1">  1        2 0.26269845E+00 0.21553452E+03</pdfrwt>
<pdfrwt beam="2">  1       -2 0.10463801E-02 0.21553452E+03</pdfrwt>
<totfact> 0.20919408E+04</totfact>
</mgrwt>
</event>
<event>
 4    1  0.6122885E-004  0.3482794E+03  0.7818608E-02  0.1063323E+00
         -2   -1    0    0    0  501 -0.00000000000E+00  0.00000000000E+00  0.17229118543E+02  0.17229118732E+02  0.25500000000E-02 0.  1.
          2   -1    0    0  501    0  0.00000000000E+00 -0.00000000000E+00 -0.17600806565E+04  0.17600806565E+04  0.25500000000E-02 0. -1.
    5000001    1    1    2    0    0 -0.13247953457E+02 -0.15561573705E+03 -0.86138344363E+03  0.87880726149E+03  0.77000000000E+02 0.  0.
   -5000001    1    1    2    0    0  0.13247953457E+02  0.15561573705E+03 -0.88146809433E+03  0.89850251375E+03  0.77000000000E+02 0.  0.
<mgrwt>
<rscale>  0 0.34827942E+03</rscale>
<asrwt>0</asrwt>
<pdfrwt beam="1">  1        2 0.27078150E+00 0.34827942E+03</pdfrwt>
<pdfrwt beam="2">  1       -2 0.26506350E-02 0.34827942E+03</pdfrwt>
<totfact> 0.50638616E+03</totfact>
</mgrwt>
</event>
<event>
 4    1  0.6122885E-004  0.2037232E+03  0.7818608E-02  0.1146635E+00
          2   -1    0    0  501    0  0.00000000000E+00  0.00000000000E+00  0.15104917803E+04  0.15104917803E+04  0.25500000000E-02 0.  1.
         -2   -1    0    0    0  501 -0.00000000000E+00 -0.00000000000E+00 -0.68691469989E+01  0.68691474722E+01  0.25500000000E-02 0. -1.
    5000001    1    1    2    0    0  0.36868175416E+02 -0.30288237148E+02  0.40484025170E+03  0.41485089980E+03  0.77000000000E+02 0.  0.
   -5000001    1    1    2    0    0 -0.36868175416E+02  0.30288237148E+02  0.10987823816E+04  0.11025100280E+04  0.77000000000E+02 0.  0.
<mgrwt>
<rscale>  0 0.20372325E+03</rscale>
<asrwt>0</asrwt>
<pdfrwt beam="1">  1        2 0.23238376E+00 0.20372325E+03</pdfrwt>
<pdfrwt beam="2">  1       -2 0.10567900E-02 0.20372325E+03</pdfrwt>
<totfact> 0.26096763E+04</totfact>
</mgrwt>
</event>
<event>
 4    1  0.6122885E-004  0.3070113E+03  0.7818608E-02  0.1081787E+00
         -2   -1    0    0    0  501 -0.00000000000E+00  0.00000000000E+00  0.32759268389E+03  0.32759268390E+03  0.25500000000E-02 0. -1.
          2   -1    0    0  501    0  0.00000000000E+00 -0.00000000000E+00 -0.71930760100E+02  0.71930760145E+02  0.25500000000E-02 0.  1.
    5000001    1    1    2    0    0  0.10812592403E+03  0.56120111232E+02  0.19662091637E+03  0.24378159710E+03  0.77000000000E+02 0.  0.
   -5000001    1    1    2    0    0 -0.10812592403E+03 -0.56120111232E+02  0.59041007426E+02  0.15574184695E+03  0.77000000000E+02 0.  0.
<mgrwt>
<rscale>  0 0.30701134E+03</rscale>
<asrwt>0</asrwt>
<pdfrwt beam="1">  1        2 0.11066271E-01 0.30701134E+03</pdfrwt>
<pdfrwt beam="2">  1       -2 0.50398874E-01 0.30701134E+03</pdfrwt>
<totfact> 0.21374418E+03</totfact>
</mgrwt>
</event>
<event>
 4    1  0.6122885E-004  0.1915998E+03  0.7818608E-02  0.1157026E+00
          2   -1    0    0  501    0  0.00000000000E+00  0.00000000000E+00  0.32845736054E+04  0.32845736054E+04  0.25500000000E-02 0.  1.
         -2   -1    0    0    0  501 -0.00000000000E+00 -0.00000000000E+00 -0.27941578625E+01  0.27941590261E+01  0.25500000000E-02 0. -1.
    5000001    1    1    2    0    0  0.32180568240E+02 -0.46816914282E+02  0.17199010318E+04  0.17225608760E+04  0.77000000000E+02 0.  0.
   -5000001    1    1    2    0    0 -0.32180568240E+02  0.46816914282E+02  0.15618784158E+04  0.15648068884E+04  0.77000000000E+02 0.  0.
<mgrwt>
<rscale>  0 0.19159978E+03</rscale>
<asrwt>0</asrwt>
<pdfrwt beam="1">  1        2 0.50532124E+00 0.19159978E+03</pdfrwt>
<pdfrwt beam="2">  1       -2 0.42986864E-03 0.19159978E+03</pdfrwt>
<totfact> 0.10089224E+04</totfact>
</mgrwt>
</event>
<event>
 4    1  0.6122885E-004  0.2961234E+03  0.7818608E-02  0.1087195E+00
          2   -1    0    0  501    0  0.00000000000E+00  0.00000000000E+00  0.91997720031E+02  0.91997720067E+02  0.25500000000E-02 0.  1.
         -2   -1    0    0    0  501 -0.00000000000E+00 -0.00000000000E+00 -0.23829142689E+03  0.23829142691E+03  0.25500000000E-02 0. -1.
    5000001    1    1    2    0    0 -0.12385796490E+03  0.11846898188E+02 -0.47905715692E+02  0.15396461302E+03  0.77000000000E+02 0.  0.
   -5000001    1    1    2    0    0  0.12385796490E+03 -0.11846898188E+02 -0.98387991170E+02  0.17632453395E+03  0.77000000000E+02 0.  0.
<mgrwt>
<rscale>  0 0.29612341E+03</rscale>
<asrwt>0</asrwt>
<pdfrwt beam="1">  1        2 0.14153495E-01 0.29612341E+03</pdfrwt>
<pdfrwt beam="2">  1       -2 0.36660219E-01 0.29612341E+03</pdfrwt>
<totfact> 0.29378752E+03</totfact>
</mgrwt>
</event>
<event>
 4    1  0.6122885E-004  0.2508309E+03  0.7818608E-02  0.1112781E+00
         -2   -1    0    0    0  501 -0.00000000000E+00  0.00000000000E+00  0.35255210434E+02  0.35255210526E+02  0.25500000000E-02 0. -1.
          2   -1    0    0  501    0  0.00000000000E+00 -0.00000000000E+00 -0.44614775885E+03  0.44614775886E+03  0.25500000000E-02 0.  1.
    5000001    1    1    2    0    0  0.41200187363E+02 -0.42647497432E+02 -0.53308222763E+02  0.11084688128E+03  0.77000000000E+02 0.  0.
   -5000001    1    1    2    0    0 -0.41200187363E+02  0.42647497432E+02 -0.35758432566E+03  0.37055608810E+03  0.77000000000E+02 0.  0.
<mgrwt>
<rscale>  0 0.25083088E+03</rscale>
<asrwt>0</asrwt>
<pdfrwt beam="1">  1        2 0.68638113E-01 0.25083088E+03</pdfrwt>
<pdfrwt beam="2">  1       -2 0.54238789E-02 0.25083088E+03</pdfrwt>
<totfact> 0.12083193E+04</totfact>
</mgrwt>
</event>
<event>
 4    1  0.6122885E-004  0.2478212E+03  0.7818608E-02  0.1114690E+00
          2   -1    0    0  501    0  0.00000000000E+00  0.00000000000E+00  0.44062671453E+03  0.44062671454E+03  0.25500000000E-02 0.  1.
         -2   -1    0    0    0  501 -0.00000000000E+00 -0.00000000000E+00 -0.34845448750E+02  0.34845448844E+02  0.25500000000E-02 0. -1.
    5000001    1    1    2    0    0  0.70373480766E+02  0.64014546194E+02  0.16575937631E+03  0.20604722700E+03  0.77000000000E+02 0.  0.
   -5000001    1    1    2    0    0 -0.70373480766E+02 -0.64014546194E+02  0.24002188947E+03  0.26942493638E+03  0.77000000000E+02 0.  0.
<mgrwt>
<rscale>  0 0.24782119E+03</rscale>
<asrwt>0</asrwt>
<pdfrwt beam="1">  1        2 0.67788725E-01 0.24782119E+03</pdfrwt>
<pdfrwt beam="2">  1       -2 0.53608383E-02 0.24782119E+03</pdfrwt>
<totfact> 0.12462139E+04</totfact>
</mgrwt>
</event>
<event>
 4    1  0.6122885E-004  0.4246646E+03  0.7818608E-02  0.1035559E+00
          2   -1    0    0  501    0  0.00000000000E+00  0.00000000000E+00  0.81887454543E+03  0.81887454543E+03  0.25500000000E-02 0.  1.
         -2   -1    0    0    0  501 -0.00000000000E+00 -0.00000000000E+00 -0.55057289721E+02  0.55057289780E+02  0.25500000000E-02 0. -1.
    5000001    1    1    2    0    0  0.19461455533E+03  0.35787754410E+02  0.38324961801E+03  0.43813794428E+03  0.77000000000E+02 0.  0.
   -5000001    1    1    2    0    0 -0.19461455533E+03 -0.35787754410E+02  0.38056763769E+03  0.43579389093E+03  0.77000000000E+02 0.  0.
<mgrwt>
<rscale>  0 0.42466464E+03</rscale>
<asrwt>0</asrwt>
<pdfrwt beam="1">  1        2 0.12598069E+00 0.42466464E+03</pdfrwt>
<pdfrwt beam="2">  1       -2 0.84703528E-02 0.42466464E+03</pdfrwt>
<totfact> 0.29884802E+03</totfact>
</mgrwt>
</event>
<event>
 4    1  0.6122885E-004  0.3545499E+03  0.7818608E-02  0.1060763E+00
          2   -1    0    0  501    0  0.00000000000E+00  0.00000000000E+00  0.40866699293E+03  0.40866699294E+03  0.25500000000E-02 0. -1.
         -2   -1    0    0    0  501 -0.00000000000E+00 -0.00000000000E+00 -0.76899814425E+02  0.76899814468E+02  0.25500000000E-02 0.  1.
    5000001    1    1    2    0    0  0.31154177612E+02 -0.12862492275E+03  0.28824374168E+03  0.32638689948E+03  0.77000000000E+02 0.  0.
   -5000001    1    1    2    0    0 -0.31154177612E+02  0.12862492275E+03  0.43523436826E+02  0.15917990793E+03  0.77000000000E+02 0.  0.
<mgrwt>
<rscale>  0 0.35454995E+03</rscale>
<asrwt>0</asrwt>
<pdfrwt beam="1">  1        2 0.62871845E-01 0.35454995E+03</pdfrwt>
<pdfrwt beam="2">  1       -2 0.11830741E-01 0.35454995E+03</pdfrwt>
<totfact> 0.39599674E+03</totfact>
</mgrwt>
</event>
<event>
 4    1  0.6122885E-004  0.2846377E+03  0.7818608E-02  0.1093183E+00
         -2   -1    0    0    0  501 -0.00000000000E+00  0.00000000000E+00  0.10110684632E+02  0.10110684953E+02  0.25500000000E-02 0. -1.
          2   -1    0    0  501    0  0.00000000000E+00 -0.00000000000E+00 -0.20032926789E+04  0.20032926789E+04  0.25500000000E-02 0.  1.
    5000001    1    1    2    0    0 -0.36903143543E+02  0.95815644465E+02 -0.14316687455E+04  0.14374097803E+04  0.77000000000E+02 0.  0.
   -5000001    1    1    2    0    0  0.36903143543E+02 -0.95815644465E+02 -0.56151324879E+03  0.57599358355E+03  0.77000000000E+02 0.  0.
<mgrwt>
<rscale>  0 0.28463774E+03</rscale>
<asrwt>0</asrwt>
<pdfrwt beam="1">  1        2 0.30819856E+00 0.28463774E+03</pdfrwt>
<pdfrwt beam="2">  1       -2 0.15554916E-02 0.28463774E+03</pdfrwt>
<totfact> 0.82807046E+03</totfact>
</mgrwt>
</event>
<event>
 4    1  0.6122885E-004  0.1761468E+03  0.7818608E-02  0.1171585E+00
         -2   -1    0    0    0  501 -0.00000000000E+00  0.00000000000E+00  0.20914064116E+02  0.20914064271E+02  0.25500000000E-02 0. -1.
          2   -1    0    0  501    0  0.00000000000E+00 -0.00000000000E+00 -0.37089514873E+03  0.37089514874E+03  0.25500000000E-02 0.  1.
    5000001    1    1    2    0    0  0.20849718412E+02  0.16653991670E+02 -0.24929322021E+03  0.26227500040E+03  0.77000000000E+02 0.  0.
   -5000001    1    1    2    0    0 -0.20849718412E+02 -0.16653991670E+02 -0.10068786441E+03  0.12953421261E+03  0.77000000000E+02 0.  0.
<mgrwt>
<rscale>  0 0.17614681E+03</rscale>
<asrwt>0</asrwt>
<pdfrwt beam="1">  1        2 0.57060787E-01 0.17614681E+03</pdfrwt>
<pdfrwt beam="2">  1       -2 0.32175486E-02 0.17614681E+03</pdfrwt>
<totfact> 0.31550292E+04</totfact>
</mgrwt>
</event>
<event>
 4    1  0.6122885E-004  0.3096403E+03  0.7818608E-02  0.1080518E+00
          2   -1    0    0  501    0  0.00000000000E+00  0.00000000000E+00  0.48467163150E+03  0.48467163151E+03  0.25500000000E-02 0.  1.
         -2   -1    0    0    0  501 -0.00000000000E+00 -0.00000000000E+00 -0.49454663543E+02  0.49454663608E+02  0.25500000000E-02 0. -1.
    5000001    1    1    2    0    0  0.11979426798E+03  0.46173721878E+01  0.32208486351E+03  0.35219262637E+03  0.77000000000E+02 0.  0.
   -5000001    1    1    2    0    0 -0.11979426798E+03 -0.46173721878E+01  0.11313210445E+03  0.18193366874E+03  0.77000000000E+02 0.  0.
<mgrwt>
<rscale>  0 0.30964026E+03</rscale>
<asrwt>0</asrwt>
<pdfrwt beam="1">  1        2 0.74564864E-01 0.30964026E+03</pdfrwt>
<pdfrwt beam="2">  1       -2 0.76084100E-02 0.30964026E+03</pdfrwt>
<totfact> 0.65945243E+03</totfact>
</mgrwt>
</event>
<event>
 4    1  0.6122885E-004  0.2149016E+03  0.7818608E-02  0.1137742E+00
          2   -1    0    0  501    0  0.00000000000E+00  0.00000000000E+00  0.23507111002E+04  0.23507111002E+04  0.25500000000E-02 0.  1.
         -2   -1    0    0    0  501 -0.00000000000E+00 -0.00000000000E+00 -0.49115656260E+01  0.49115662880E+01  0.25500000000E-02 0. -1.
    5000001    1    1    2    0    0  0.38299543405E+02  0.42664716306E+02  0.17019551727E+04  0.17046605360E+04  0.77000000000E+02 0.  0.
   -5000001    1    1    2    0    0 -0.38299543405E+02 -0.42664716306E+02  0.64384436189E+03  0.65096213053E+03  0.77000000000E+02 0.  0.
<mgrwt>
<rscale>  0 0.21490158E+03</rscale>
<asrwt>0</asrwt>
<pdfrwt beam="1">  1        2 0.36164722E+00 0.21490158E+03</pdfrwt>
<pdfrwt beam="2">  1       -2 0.75562687E-03 0.21490158E+03</pdfrwt>
<totfact> 0.15394359E+04</totfact>
</mgrwt>
</event>
<event>
 4    1  0.6122885E-004  0.2099073E+03  0.7818608E-02  0.1141639E+00
         -2   -1    0    0    0  501 -0.00000000000E+00  0.00000000000E+00  0.18070209749E+02  0.18070209929E+02  0.25500000000E-02 0. -1.
          2   -1    0    0  501    0  0.00000000000E+00 -0.00000000000E+00 -0.60958169765E+03  0.60958169766E+03  0.25500000000E-02 0.  1.
    5000001    1    1    2    0    0 -0.29319629416E+02 -0.59769248136E+02 -0.37223934203E+03  0.38590559914E+03  0.77000000000E+02 0.  0.
   -5000001    1    1    2    0    0  0.29319629416E+02  0.59769248136E+02 -0.21927214588E+03  0.24174630845E+03  0.77000000000E+02 0.  0.
<mgrwt>
<rscale>  0 0.20990731E+03</rscale>
<asrwt>0</asrwt>
<pdfrwt beam="1">  1        2 0.93781784E-01 0.20990731E+03</pdfrwt>
<pdfrwt beam="2">  1       -2 0.27800328E-02 0.20990731E+03</pdfrwt>
<totfact> 0.22932359E+04</totfact>
</mgrwt>
</event>
<event>
 4    1  0.6122885E-004  0.1791354E+03  0.7818608E-02  0.1168642E+00
         -2   -1    0    0    0  501 -0.00000000000E+00  0.00000000000E+00  0.36922161817E+02  0.36922161905E+02  0.25500000000E-02 0. -1.
          2   -1    0    0  501    0  0.00000000000E+00 -0.00000000000E+00 -0.21727791147E+03  0.21727791148E+03  0.25500000000E-02 0.  1.
    5000001    1    1    2    0    0  0.63824514510E+01  0.34063121430E+02 -0.47788297061E+02  0.97024498268E+02  0.77000000000E+02 0.  0.
   -5000001    1    1    2    0    0 -0.63824514510E+01 -0.34063121430E+02 -0.13256745259E+03  0.15717557512E+03  0.77000000000E+02 0.  0.
<mgrwt>
<rscale>  0 0.17913537E+03</rscale>
<asrwt>0</asrwt>
<pdfrwt beam="1">  1        2 0.33427370E-01 0.17913537E+03</pdfrwt>
<pdfrwt beam="2">  1       -2 0.56803327E-02 0.17913537E+03</pdfrwt>
<totfact> 0.23892970E+04</totfact>
</mgrwt>
</event>
<event>
 4    1  0.6122885E-004  0.3016776E+03  0.7818608E-02  0.1084405E+00
         -2   -1    0    0    0  501 -0.00000000000E+00  0.00000000000E+00  0.52553912049E+02  0.52553912111E+02  0.25500000000E-02 0. -1.
          2   -1    0    0  501    0  0.00000000000E+00 -0.00000000000E+00 -0.43293346643E+03  0.43293346643E+03  0.25500000000E-02 0.  1.
    5000001    1    1    2    0    0  0.12127349420E+03  0.29394114455E+02 -0.13324555511E+03  0.19812786860E+03  0.77000000000E+02 0.  0.
   -5000001    1    1    2    0    0 -0.12127349420E+03 -0.29394114455E+02 -0.24713399927E+03  0.28735950994E+03  0.77000000000E+02 0.  0.
<mgrwt>
<rscale>  0 0.30167762E+03</rscale>
<asrwt>0</asrwt>
<pdfrwt beam="1">  1        2 0.66605146E-01 0.30167762E+03</pdfrwt>
<pdfrwt beam="2">  1       -2 0.80852175E-02 0.30167762E+03</pdfrwt>
<totfact> 0.67903135E+03</totfact>
</mgrwt>
</event>
<event>
 4    1  0.6122885E-004  0.2481981E+03  0.7818608E-02  0.1114449E+00
          2   -1    0    0  501    0  0.00000000000E+00  0.00000000000E+00  0.38648350648E+03  0.38648350649E+03  0.25500000000E-02 0.  1.
         -2   -1    0    0    0  501 -0.00000000000E+00 -0.00000000000E+00 -0.39847939429E+02  0.39847939511E+02  0.25500000000E-02 0. -1.
    5000001    1    1    2    0    0  0.41604817746E+00 -0.78843647752E+02  0.75316983649E+02  0.13348461302E+03  0.77000000000E+02 0.  0.
   -5000001    1    1    2    0    0 -0.41604817746E+00  0.78843647752E+02  0.27131858340E+03  0.29284683298E+03  0.77000000000E+02 0.  0.
<mgrwt>
<rscale>  0 0.24819808E+03</rscale>
<asrwt>0</asrwt>
<pdfrwt beam="1">  1        2 0.59459002E-01 0.24819808E+03</pdfrwt>
<pdfrwt beam="2">  1       -2 0.61304521E-02 0.24819808E+03</pdfrwt>
<totfact> 0.11710233E+04</totfact>
</mgrwt>
</event>
<event>
 4    1  0.6122885E-004  0.2609961E+03  0.7818608E-02  0.1106546E+00
          2   -1    0    0  501    0  0.00000000000E+00  0.00000000000E+00  0.29849212560E+03  0.29849212561E+03  0.25500000000E-02 0.  1.
         -2   -1    0    0    0  501 -0.00000000000E+00 -0.00000000000E+00 -0.57052563284E+02  0.57052563341E+02  0.25500000000E-02 0. -1.
    5000001    1    1    2    0    0 -0.57458270816E+02  0.82566856007E+02  0.78030736816E+02  0.14878351550E+03  0.77000000000E+02 0.  0.
   -5000001    1    1    2    0    0  0.57458270816E+02 -0.82566856007E+02  0.16340882550E+03  0.20676117345E+03  0.77000000000E+02 0.  0.
<mgrwt>
<rscale>  0 0.26099610E+03</rscale>
<asrwt>0</asrwt>
<pdfrwt beam="1">  1        2 0.45921866E-01 0.26099610E+03</pdfrwt>
<pdfrwt beam="2">  1       -2 0.87773173E-02 0.26099610E+03</pdfrwt>
<totfact> 0.88820571E+03</totfact>
</mgrwt>
</event>
<event>
 4    1  0.6122885E-004  0.1918120E+03  0.7818608E-02  0.1156837E+00
          2   -1    0    0  501    0  0.00000000000E+00  0.00000000000E+00  0.90466901833E+03  0.90466901834E+03  0.25500000000E-02 0.  1.
         -2   -1    0    0    0  501 -0.00000000000E+00 -0.00000000000E+00 -0.10167208725E+02  0.10167209045E+02  0.25500000000E-02 0. -1.
    5000001    1    1    2    0    0 -0.36512221762E+02  0.35876342587E+02  0.32577472893E+03  0.33864203564E+03  0.77000000000E+02 0.  0.
   -5000001    1    1    2    0    0  0.36512221762E+02 -0.35876342587E+02  0.56872708068E+03  0.57619419174E+03  0.77000000000E+02 0.  0.
<mgrwt>
<rscale>  0 0.19181198E+03</rscale>
<asrwt>0</asrwt>
<pdfrwt beam="1">  1        2 0.13917985E+00 0.19181198E+03</pdfrwt>
<pdfrwt beam="2">  1       -2 0.15641860E-02 0.19181198E+03</pdfrwt>
<totfact> 0.32531458E+04</totfact>
</mgrwt>
</event>
<event>
 4    1  0.6122885E-004  0.1975312E+03  0.7818608E-02  0.1151839E+00
         -2   -1    0    0    0  501 -0.00000000000E+00  0.00000000000E+00  0.76891016144E+02  0.76891016187E+02  0.25500000000E-02 0. -1.
          2   -1    0    0  501    0  0.00000000000E+00 -0.00000000000E+00 -0.12686327946E+03  0.12686327948E+03  0.25500000000E-02 0.  1.
    5000001    1    1    2    0    0 -0.58776861697E+02 -0.13799452095E+02 -0.38844502291E+02  0.10527601677E+03  0.77000000000E+02 0.  0.
   -5000001    1    1    2    0    0  0.58776861697E+02  0.13799452095E+02 -0.11127761021E+02  0.98478278897E+02  0.77000000000E+02 0.  0.
<mgrwt>
<rscale>  0 0.19753123E+03</rscale>
<asrwt>0</asrwt>
<pdfrwt beam="1">  1        2 0.19517428E-01 0.19753123E+03</pdfrwt>
<pdfrwt beam="2">  1       -2 0.11829387E-01 0.19753123E+03</pdfrwt>
<totfact> 0.13942189E+04</totfact>
</mgrwt>
</event>
<event>
 4    1  0.6122885E-004  0.3115758E+03  0.7818608E-02  0.1079593E+00
         -2   -1    0    0    0  501 -0.00000000000E+00  0.00000000000E+00  0.28925445253E+03  0.28925445254E+03  0.25500000000E-02 0. -1.
          2   -1    0    0  501    0  0.00000000000E+00 -0.00000000000E+00 -0.83904902552E+02  0.83904902591E+02  0.25500000000E-02 0.  1.
    5000001    1    1    2    0    0 -0.12944857621E+03 -0.48762794916E+01  0.14998058375E+03  0.21261205866E+03  0.77000000000E+02 0.  0.
   -5000001    1    1    2    0    0  0.12944857621E+03  0.48762794916E+01  0.55368966224E+02  0.16054729647E+03  0.77000000000E+02 0.  0.
<mgrwt>
<rscale>  0 0.31157578E+03</rscale>
<asrwt>0</asrwt>
<pdfrwt beam="1">  1        2 0.12908447E-01 0.31157578E+03</pdfrwt>
<pdfrwt beam="2">  1       -2 0.44500685E-01 0.31157578E+03</pdfrwt>
<totfact> 0.22659153E+03</totfact>
</mgrwt>
</event>
<event>
 4    1  0.6122885E-004  0.5008643E+03  0.7818608E-02  0.1013554E+00
         -2   -1    0    0    0  501 -0.00000000000E+00  0.00000000000E+00  0.74696128042E+02  0.74696128086E+02  0.25500000000E-02 0. -1.
          2   -1    0    0  501    0  0.00000000000E+00 -0.00000000000E+00 -0.83961876358E+03  0.83961876358E+03  0.25500000000E-02 0.  1.
    5000001    1    1    2    0    0  0.69337739970E+02  0.19823085309E+03 -0.58805280408E+03  0.62915681169E+03  0.77000000000E+02 0.  0.
   -5000001    1    1    2    0    0 -0.69337739970E+02 -0.19823085309E+03 -0.17686983145E+03  0.28515807998E+03  0.77000000000E+02 0.  0.
<mgrwt>
<rscale>  0 0.50086434E+03</rscale>
<asrwt>0</asrwt>
<pdfrwt beam="1">  1        2 0.12917211E+00 0.50086434E+03</pdfrwt>
<pdfrwt beam="2">  1       -2 0.11491713E-01 0.50086434E+03</pdfrwt>
<totfact> 0.17697863E+03</totfact>
</mgrwt>
</event>
<event>
 4    1  0.6122885E-004  0.3473814E+03  0.7818608E-02  0.1063695E+00
         -2   -1    0    0    0  501 -0.00000000000E+00  0.00000000000E+00  0.12457299385E+02  0.12457299646E+02  0.25500000000E-02 0. -1.
          2   -1    0    0  501    0  0.00000000000E+00 -0.00000000000E+00 -0.24217488357E+04  0.24217488357E+04  0.25500000000E-02 0.  1.
    5000001    1    1    2    0    0  0.14241016312E+03  0.10523485092E+02 -0.76996408787E+03  0.78687044353E+03  0.77000000000E+02 0.  0.
   -5000001    1    1    2    0    0 -0.14241016312E+03 -0.10523485092E+02 -0.16393274485E+04  0.16473356919E+04  0.77000000000E+02 0.  0.
<mgrwt>
<rscale>  0 0.34738135E+03</rscale>
<asrwt>0</asrwt>
<pdfrwt beam="1">  1        2 0.37257637E+00 0.34738135E+03</pdfrwt>
<pdfrwt beam="2">  1       -2 0.19165095E-02 0.34738135E+03</pdfrwt>
<totfact> 0.36294146E+03</totfact>
</mgrwt>
</event>
<event>
 4    1  0.6122885E-004  0.3557785E+03  0.7818608E-02  0.1060268E+00
         -2   -1    0    0    0  501 -0.00000000000E+00  0.00000000000E+00  0.25207457126E+03  0.25207457128E+03  0.25500000000E-02 0. -1.
          2   -1    0    0  501    0  0.00000000000E+00 -0.00000000000E+00 -0.12553659551E+03  0.12553659554E+03  0.25500000000E-02 0.  1.
    5000001    1    1    2    0    0  0.46216794537E+02 -0.14873668572E+03  0.22756082888E+02  0.17522965812E+03  0.77000000000E+02 0.  0.
   -5000001    1    1    2    0    0 -0.46216794537E+02  0.14873668572E+03  0.10378189287E+03  0.20238150870E+03  0.77000000000E+02 0.  0.
<mgrwt>
<rscale>  0 0.35577849E+03</rscale>
<asrwt>0</asrwt>
<pdfrwt beam="1">  1        2 0.19313322E-01 0.35577849E+03</pdfrwt>
<pdfrwt beam="2">  1       -2 0.38780703E-01 0.35577849E+03</pdfrwt>
<totfact> 0.18379959E+03</totfact>
</mgrwt>
</event>
<event>
 4    1  0.6122885E-004  0.1774943E+03  0.7818608E-02  0.1170250E+00
          2   -1    0    0  501    0  0.00000000000E+00  0.00000000000E+00  0.12541798767E+04  0.12541798767E+04  0.25500000000E-02 0.  1.
         -2   -1    0    0    0  501 -0.00000000000E+00 -0.00000000000E+00 -0.62798426560E+01  0.62798431737E+01  0.25500000000E-02 0. -1.
    5000001    1    1    2    0    0  0.31974256917E+02 -0.28284913672E+02  0.70323916547E+03  0.70872894205E+03  0.77000000000E+02 0.  0.
   -5000001    1    1    2    0    0 -0.31974256917E+02  0.28284913672E+02  0.54466086861E+03  0.55173077787E+03  0.77000000000E+02 0.  0.
<mgrwt>
<rscale>  0 0.17749425E+03</rscale>
<asrwt>0</asrwt>
<pdfrwt beam="1">  1        2 0.19295076E+00 0.17749425E+03</pdfrwt>
<pdfrwt beam="2">  1       -2 0.96612961E-03 0.17749425E+03</pdfrwt>
<totfact> 0.40453262E+04</totfact>
</mgrwt>
</event>
<event>
 4    1  0.6122885E-004  0.2392408E+03  0.7818608E-02  0.1120300E+00
          2   -1    0    0  501    0  0.00000000000E+00  0.00000000000E+00  0.40624335120E+03  0.40624335121E+03  0.25500000000E-02 0.  1.
         -2   -1    0    0    0  501 -0.00000000000E+00 -0.00000000000E+00 -0.35222818844E+02  0.35222818936E+02  0.25500000000E-02 0. -1.
    5000001    1    1    2    0    0 -0.44447346975E+02  0.79682395500E+02  0.17180228544E+03  0.20921251418E+03  0.77000000000E+02 0.  0.
   -5000001    1    1    2    0    0  0.44447346975E+02 -0.79682395500E+02  0.19921824691E+03  0.23225365596E+03  0.77000000000E+02 0.  0.
<mgrwt>
<rscale>  0 0.23924077E+03</rscale>
<asrwt>0</asrwt>
<pdfrwt beam="1">  1        2 0.62498974E-01 0.23924077E+03</pdfrwt>
<pdfrwt beam="2">  1       -2 0.54188955E-02 0.23924077E+03</pdfrwt>
<totfact> 0.13371115E+04</totfact>
</mgrwt>
</event>
<event>
 4    1  0.6122885E-004  0.3037233E+03  0.7818608E-02  0.1083394E+00
          2   -1    0    0  501    0  0.00000000000E+00  0.00000000000E+00  0.79473585483E+03  0.79473585483E+03  0.25500000000E-02 0. -1.
         -2   -1    0    0    0  501 -0.00000000000E+00 -0.00000000000E+00 -0.29018393191E+02  0.29018393303E+02  0.25500000000E-02 0.  1.
    5000001    1    1    2    0    0  0.48769957183E+02 -0.88050157429E+02  0.60980278697E+03  0.62283206240E+03  0.77000000000E+02 0.  0.
   -5000001    1    1    2    0    0 -0.48769957183E+02  0.88050157429E+02  0.15591467466E+03  0.20092218574E+03  0.77000000000E+02 0.  0.
<mgrwt>
<rscale>  0 0.30372328E+03</rscale>
<asrwt>0</asrwt>
<pdfrwt beam="1">  1        2 0.12226704E+00 0.30372328E+03</pdfrwt>
<pdfrwt beam="2">  1       -2 0.44643686E-02 0.30372328E+03</pdfrwt>
<totfact> 0.83309849E+03</totfact>
</mgrwt>
</event>
<event>
 4    1  0.6122885E-004  0.3898703E+03  0.7818608E-02  0.1047345E+00
         -2   -1    0    0    0  501 -0.00000000000E+00  0.00000000000E+00  0.38294104639E+02  0.38294104724E+02  0.25500000000E-02 0. -1.
          2   -1    0    0  501    0  0.00000000000E+00 -0.00000000000E+00 -0.99231217412E+03  0.99231217412E+03  0.25500000000E-02 0.  1.
    5000001    1    1    2    0    0 -0.12744188125E+03 -0.11884760028E+03 -0.36787157079E+03  0.41427608884E+03  0.77000000000E+02 0.  0.
   -5000001    1    1    2    0    0  0.12744188125E+03  0.11884760028E+03 -0.58614649869E+03  0.61633019000E+03  0.77000000000E+02 0.  0.
<mgrwt>
<rscale>  0 0.38987027E+03</rscale>
<asrwt>0</asrwt>
<pdfrwt beam="1">  1        2 0.15266339E+00 0.38987027E+03</pdfrwt>
<pdfrwt beam="2">  1       -2 0.58914015E-02 0.38987027E+03</pdfrwt>
<totfact> 0.40586710E+03</totfact>
</mgrwt>
</event>
<event>
 4    1  0.6122885E-004  0.1786381E+03  0.7818608E-02  0.1169128E+00
          2   -1    0    0  501    0  0.00000000000E+00  0.00000000000E+00  0.59321866358E+03  0.59321866358E+03  0.25500000000E-02 0.  1.
         -2   -1    0    0    0  501 -0.00000000000E+00 -0.00000000000E+00 -0.13448486161E+02  0.13448486403E+02  0.25500000000E-02 0. -1.
    5000001    1    1    2    0    0  0.26734122627E+02 -0.21889334961E+02  0.38918955297E+03  0.39823531290E+03  0.77000000000E+02 0.  0.
   -5000001    1    1    2    0    0 -0.26734122627E+02  0.21889334961E+02  0.19058062444E+03  0.20843183709E+03  0.77000000000E+02 0.  0.
<mgrwt>
<rscale>  0 0.17863810E+03</rscale>
<asrwt>0</asrwt>
<pdfrwt beam="1">  1        2 0.91264406E-01 0.17863810E+03</pdfrwt>
<pdfrwt beam="2">  1       -2 0.20689980E-02 0.17863810E+03</pdfrwt>
<totfact> 0.36070833E+04</totfact>
</mgrwt>
</event>
<event>
 4    1  0.6122885E-004  0.2428720E+03  0.7818608E-02  0.1117894E+00
         -2   -1    0    0    0  501 -0.00000000000E+00  0.00000000000E+00  0.40699721488E+02  0.40699721568E+02  0.25500000000E-02 0. -1.
          2   -1    0    0  501    0  0.00000000000E+00 -0.00000000000E+00 -0.36232941038E+03  0.36232941039E+03  0.25500000000E-02 0.  1.
    5000001    1    1    2    0    0  0.48530876245E+02 -0.80357079218E+02 -0.15703076996E+03  0.19849475773E+03  0.77000000000E+02 0.  0.
   -5000001    1    1    2    0    0 -0.48530876245E+02  0.80357079218E+02 -0.16459891893E+03  0.20453437423E+03  0.77000000000E+02 0.  0.
<mgrwt>
<rscale>  0 0.24287203E+03</rscale>
<asrwt>0</asrwt>
<pdfrwt beam="1">  1        2 0.55742984E-01 0.24287203E+03</pdfrwt>
<pdfrwt beam="2">  1       -2 0.62614958E-02 0.24287203E+03</pdfrwt>
<totfact> 0.12141332E+04</totfact>
</mgrwt>
</event>
<event>
 4    1  0.6122885E-004  0.2357618E+03  0.7818608E-02  0.1122649E+00
          2   -1    0    0  501    0  0.00000000000E+00  0.00000000000E+00  0.10107227446E+04  0.10107227446E+04  0.25500000000E-02 0.  1.
         -2   -1    0    0    0  501 -0.00000000000E+00 -0.00000000000E+00 -0.13748480878E+02  0.13748481115E+02  0.25500000000E-02 0. -1.
    5000001    1    1    2    0    0  0.57957606665E+01  0.83529499358E+02  0.63285203708E+03  0.64299414378E+03  0.77000000000E+02 0.  0.
   -5000001    1    1    2    0    0 -0.57957606665E+01 -0.83529499358E+02  0.36412222660E+03  0.38147708189E+03  0.77000000000E+02 0.  0.
<mgrwt>
<rscale>  0 0.23576176E+03</rscale>
<asrwt>0</asrwt>
<pdfrwt beam="1">  1        2 0.15549585E+00 0.23576176E+03</pdfrwt>
<pdfrwt beam="2">  1       -2 0.21151503E-02 0.23576176E+03</pdfrwt>
<totfact> 0.18213720E+04</totfact>
</mgrwt>
</event>
<event>
 4    1  0.6122885E-004  0.2845422E+03  0.7818608E-02  0.1093234E+00
         -2   -1    0    0    0  501 -0.00000000000E+00  0.00000000000E+00  0.30386802459E+02  0.30386802566E+02  0.25500000000E-02 0. -1.
          2   -1    0    0  501    0  0.00000000000E+00 -0.00000000000E+00 -0.66611383354E+03  0.66611383354E+03  0.25500000000E-02 0.  1.
    5000001    1    1    2    0    0  0.10127968150E+03  0.54336261118E+02 -0.39912386128E+03  0.42242024076E+03  0.77000000000E+02 0.  0.
   -5000001    1    1    2    0    0 -0.10127968150E+03 -0.54336261118E+02 -0.23660316980E+03  0.27408039535E+03  0.77000000000E+02 0.  0.
<mgrwt>
<rscale>  0 0.28454223E+03</rscale>
<asrwt>0</asrwt>
<pdfrwt beam="1">  1        2 0.10247904E+00 0.28454223E+03</pdfrwt>
<pdfrwt beam="2">  1       -2 0.46748932E-02 0.28454223E+03</pdfrwt>
<totfact> 0.96405498E+03</totfact>
</mgrwt>
</event>
<event>
 4    1  0.6122885E-004  0.2266244E+03  0.7818608E-02  0.1129038E+00
         -2   -1    0    0    0  501 -0.00000000000E+00  0.00000000000E+00  0.63656233339E+02  0.63656233390E+02  0.25500000000E-02 0. -1.
          2   -1    0    0  501    0  0.00000000000E+00 -0.00000000000E+00 -0.20170304408E+03  0.20170304410E+03  0.25500000000E-02 0.  1.
    5000001    1    1    2    0    0  0.96976973155E+01  0.59212495469E+02 -0.16522806933E+01  0.97631424164E+02  0.77000000000E+02 0.  0.
   -5000001    1    1    2    0    0 -0.96976973155E+01 -0.59212495469E+02 -0.13639453005E+03  0.16772785332E+03  0.77000000000E+02 0.  0.
<mgrwt>
<rscale>  0 0.22662441E+03</rscale>
<asrwt>0</asrwt>
<pdfrwt beam="1">  1        2 0.31031237E-01 0.22662441E+03</pdfrwt>
<pdfrwt beam="2">  1       -2 0.97932668E-02 0.22662441E+03</pdfrwt>
<totfact> 0.11331977E+04</totfact>
</mgrwt>
</event>
<event>
 4    1  0.6122885E-004  0.2592434E+03  0.7818608E-02  0.1107599E+00
         -2   -1    0    0    0  501 -0.00000000000E+00  0.00000000000E+00  0.16551494995E+03  0.16551494997E+03  0.25500000000E-02 0. -1.
          2   -1    0    0  501    0  0.00000000000E+00 -0.00000000000E+00 -0.10151218664E+03  0.10151218667E+03  0.25500000000E-02 0.  1.
    5000001    1    1    2    0    0 -0.95037694029E+02  0.24102882652E+02 -0.45561176762E+01  0.12475123425E+03  0.77000000000E+02 0.  0.
   -5000001    1    1    2    0    0  0.95037694029E+02 -0.24102882652E+02  0.68558880987E+02  0.14227590239E+03  0.77000000000E+02 0.  0.
<mgrwt>
<rscale>  0 0.25924340E+03</rscale>
<asrwt>0</asrwt>
<pdfrwt beam="1">  1        2 0.15617260E-01 0.25924340E+03</pdfrwt>
<pdfrwt beam="2">  1       -2 0.25463838E-01 0.25924340E+03</pdfrwt>
<totfact> 0.50585571E+03</totfact>
</mgrwt>
</event>
<event>
 4    1  0.6122885E-004  0.1716393E+03  0.7818608E-02  0.1176149E+00
          2   -1    0    0  501    0  0.00000000000E+00  0.00000000000E+00  0.19313506142E+04  0.19313506142E+04  0.25500000000E-02 0.  1.
         -2   -1    0    0    0  501 -0.00000000000E+00 -0.00000000000E+00 -0.38134002949E+01  0.38134011475E+01  0.25500000000E-02 0. -1.
    5000001    1    1    2    0    0  0.23700503098E+02  0.33832407640E+01  0.63258443376E+03  0.63770308609E+03  0.77000000000E+02 0.  0.
   -5000001    1    1    2    0    0 -0.23700503098E+02 -0.33832407640E+01  0.12949527802E+04  0.12974609293E+04  0.77000000000E+02 0.  0.
<mgrwt>
<rscale>  0 0.17163932E+03</rscale>
<asrwt>0</asrwt>
<pdfrwt beam="1">  1        2 0.29713152E+00 0.17163932E+03</pdfrwt>
<pdfrwt beam="2">  1       -2 0.58667574E-03 0.17163932E+03</pdfrwt>
<totfact> 0.36346546E+04</totfact>
</mgrwt>
</event>
<event>
 4    1  0.6122885E-004  0.2291571E+03  0.7818608E-02  0.1127234E+00
         -2   -1    0    0    0  501 -0.00000000000E+00  0.00000000000E+00  0.27256907159E+02  0.27256907278E+02  0.25500000000E-02 0. -1.
          2   -1    0    0  501    0  0.00000000000E+00 -0.00000000000E+00 -0.48164839574E+03  0.48164839575E+03  0.25500000000E-02 0.  1.
    5000001    1    1    2    0    0 -0.81361537801E+02  0.22818312455E+02 -0.21015642637E+03  0.23923858125E+03  0.77000000000E+02 0.  0.
   -5000001    1    1    2    0    0  0.81361537801E+02 -0.22818312455E+02 -0.24423506222E+03  0.26966672177E+03  0.77000000000E+02 0.  0.
<mgrwt>
<rscale>  0 0.22915711E+03</rscale>
<asrwt>0</asrwt>
<pdfrwt beam="1">  1        2 0.74099747E-01 0.22915711E+03</pdfrwt>
<pdfrwt beam="2">  1       -2 0.41933707E-02 0.22915711E+03</pdfrwt>
<totfact> 0.16313386E+04</totfact>
</mgrwt>
</event>
<event>
 4    1  0.6122885E-004  0.4623628E+03  0.7818608E-02  0.1024098E+00
          2   -1    0    0  501    0  0.00000000000E+00  0.00000000000E+00  0.22230373626E+03  0.22230373627E+03  0.25500000000E-02 0.  1.
         -2   -1    0    0    0  501 -0.00000000000E+00 -0.00000000000E+00 -0.24041356899E+03  0.24041356900E+03  0.25500000000E-02 0. -1.
    5000001    1    1    2    0    0  0.18040836459E+03  0.46608944823E+02  0.10415238933E+03  0.22692794441E+03  0.77000000000E+02 0.  0.
   -5000001    1    1    2    0    0 -0.18040836459E+03 -0.46608944823E+02 -0.12226222207E+03  0.23578936086E+03  0.77000000000E+02 0.  0.
<mgrwt>
<rscale>  0 0.46236278E+03</rscale>
<asrwt>0</asrwt>
<pdfrwt beam="1">  1        2 0.34200575E-01 0.46236278E+03</pdfrwt>
<pdfrwt beam="2">  1       -2 0.36986703E-01 0.46236278E+03</pdfrwt>
<totfact> 0.10574446E+03</totfact>
</mgrwt>
</event>
<event>
 4    1  0.6122885E-004  0.3863718E+03  0.7818608E-02  0.1048604E+00
          2   -1    0    0  501    0  0.00000000000E+00  0.00000000000E+00  0.42317524217E+03  0.42317524217E+03  0.25500000000E-02 0.  1.
         -2   -1    0    0    0  501 -0.00000000000E+00 -0.00000000000E+00 -0.88192268675E+02  0.88192268712E+02  0.25500000000E-02 0. -1.
    5000001    1    1    2    0    0  0.17126134471E+03 -0.42422247522E+02  0.14608128253E+03  0.24165851192E+03  0.77000000000E+02 0.  0.
   -5000001    1    1    2    0    0 -0.17126134471E+03  0.42422247522E+02  0.18890169096E+03  0.26970899896E+03  0.77000000000E+02 0.  0.
<mgrwt>
<rscale>  0 0.38637176E+03</rscale>
<asrwt>0</asrwt>
<pdfrwt beam="1">  1        2 0.65103884E-01 0.38637176E+03</pdfrwt>
<pdfrwt beam="2">  1       -2 0.13568041E-01 0.38637176E+03</pdfrwt>
<totfact> 0.30499262E+03</totfact>
</mgrwt>
</event>
<event>
 4    1  0.6122885E-004  0.2043190E+03  0.7818608E-02  0.1146145E+00
         -2   -1    0    0    0  501 -0.00000000000E+00  0.00000000000E+00  0.70226424286E+01  0.70226428916E+01  0.25500000000E-02 0. -1.
          2   -1    0    0  501    0  0.00000000000E+00 -0.00000000000E+00 -0.14861298941E+04  0.14861298941E+04  0.25500000000E-02 0.  1.
    5000001    1    1    2    0    0 -0.40083224169E+02  0.53750510079E+02 -0.71447447132E+03  0.72173302015E+03  0.77000000000E+02 0.  0.
   -5000001    1    1    2    0    0  0.40083224169E+02 -0.53750510079E+02 -0.76463278034E+03  0.77141951684E+03  0.77000000000E+02 0.  0.
<mgrwt>
<rscale>  0 0.20431896E+03</rscale>
<asrwt>0</asrwt>
<pdfrwt beam="1">  1        2 0.22863512E+00 0.20431896E+03</pdfrwt>
<pdfrwt beam="2">  1       -2 0.10804077E-02 0.20431896E+03</pdfrwt>
<totfact> 0.26043169E+04</totfact>
</mgrwt>
</event>
<event>
 4    1  0.6122885E-004  0.1995539E+03  0.7818608E-02  0.1150116E+00
         -2   -1    0    0    0  501 -0.00000000000E+00  0.00000000000E+00  0.27544528631E+01  0.27544540435E+01  0.25500000000E-02 0. -1.
          2   -1    0    0  501    0  0.00000000000E+00 -0.00000000000E+00 -0.36143068203E+04  0.36143068203E+04  0.25500000000E-02 0.  1.
    5000001    1    1    2    0    0  0.39270239560E+02  0.45577433927E+02 -0.14401096445E+04  0.14434210205E+04  0.77000000000E+02 0.  0.
   -5000001    1    1    2    0    0 -0.39270239560E+02 -0.45577433927E+02 -0.21714427229E+04  0.21736402539E+04  0.77000000000E+02 0.  0.
<mgrwt>
<rscale>  0 0.19955390E+03</rscale>
<asrwt>0</asrwt>
<pdfrwt beam="1">  1        2 0.55604341E+00 0.19955390E+03</pdfrwt>
<pdfrwt beam="2">  1       -2 0.42376496E-03 0.19955390E+03</pdfrwt>
<totfact> 0.62965130E+03</totfact>
</mgrwt>
</event>
<event>
 4    1  0.6122885E-004  0.2189458E+03  0.7818608E-02  0.1134671E+00
         -2   -1    0    0    0  501 -0.00000000000E+00  0.00000000000E+00  0.14877458443E+03  0.14877458445E+03  0.25500000000E-02 0. -1.
          2   -1    0    0  501    0  0.00000000000E+00 -0.00000000000E+00 -0.80553502467E+02  0.80553502507E+02  0.25500000000E-02 0.  1.
    5000001    1    1    2    0    0 -0.37002810302E+02 -0.64707131849E+02  0.10710781400E+02  0.10770302559E+03  0.77000000000E+02 0.  0.
   -5000001    1    1    2    0    0  0.37002810302E+02  0.64707131849E+02  0.57510300558E+02  0.12162506137E+03  0.77000000000E+02 0.  0.
<mgrwt>
<rscale>  0 0.21894578E+03</rscale>
<asrwt>0</asrwt>
<pdfrwt beam="1">  1        2 0.12392847E-01 0.21894578E+03</pdfrwt>
<pdfrwt beam="2">  1       -2 0.22888397E-01 0.21894578E+03</pdfrwt>
<totfact> 0.79721181E+03</totfact>
</mgrwt>
</event>
<event>
 4    1  0.6122885E-004  0.2517316E+03  0.7818608E-02  0.1112215E+00
         -2   -1    0    0    0  501 -0.00000000000E+00  0.00000000000E+00  0.13240391309E+02  0.13240391555E+02  0.25500000000E-02 0. -1.
          2   -1    0    0  501    0  0.00000000000E+00 -0.00000000000E+00 -0.11965056092E+04  0.11965056092E+04  0.25500000000E-02 0.  1.
    5000001    1    1    2    0    0 -0.43370464272E+02  0.83802765312E+02 -0.74430727510E+03  0.75420568840E+03  0.77000000000E+02 0.  0.
   -5000001    1    1    2    0    0  0.43370464272E+02 -0.83802765312E+02 -0.43895794278E+03  0.45554031235E+03  0.77000000000E+02 0.  0.
<mgrwt>
<rscale>  0 0.25173162E+03</rscale>
<asrwt>0</asrwt>
<pdfrwt beam="1">  1        2 0.18407770E+00 0.25173162E+03</pdfrwt>
<pdfrwt beam="2">  1       -2 0.20369842E-02 0.25173162E+03</pdfrwt>
<totfact> 0.15028462E+04</totfact>
</mgrwt>
</event>
<event>
 4    1  0.6122885E-004  0.2556550E+03  0.7818608E-02  0.1109782E+00
         -2   -1    0    0    0  501 -0.00000000000E+00  0.00000000000E+00  0.28297635599E+02  0.28297635714E+02  0.25500000000E-02 0. -1.
          2   -1    0    0  501    0  0.00000000000E+00 -0.00000000000E+00 -0.57742886185E+03  0.57742886186E+03  0.25500000000E-02 0.  1.
    5000001    1    1    2    0    0 -0.74966754468E+02  0.66895416264E+02 -0.31667413132E+03  0.34103741209E+03  0.77000000000E+02 0.  0.
   -5000001    1    1    2    0    0  0.74966754468E+02 -0.66895416264E+02 -0.23245709493E+03  0.26468908549E+03  0.77000000000E+02 0.  0.
<mgrwt>
<rscale>  0 0.25565501E+03</rscale>
<asrwt>0</asrwt>
<pdfrwt beam="1">  1        2 0.88835201E-01 0.25565501E+03</pdfrwt>
<pdfrwt beam="2">  1       -2 0.43534828E-02 0.25565501E+03</pdfrwt>
<totfact> 0.12639640E+04</totfact>
</mgrwt>
</event>
<event>
 4    1  0.6122885E-004  0.2089753E+03  0.7818608E-02  0.1142380E+00
         -2   -1    0    0    0  501 -0.00000000000E+00  0.00000000000E+00  0.25863453941E+02  0.25863454067E+02  0.25500000000E-02 0. -1.
          2   -1    0    0  501    0  0.00000000000E+00 -0.00000000000E+00 -0.42212716519E+03  0.42212716520E+03  0.25500000000E-02 0.  1.
    5000001    1    1    2    0    0 -0.68690238482E+02  0.99260525453E+01 -0.17003392112E+03  0.19914168251E+03  0.77000000000E+02 0.  0.
   -5000001    1    1    2    0    0  0.68690238482E+02 -0.99260525453E+01 -0.22622979013E+03  0.24884893675E+03  0.77000000000E+02 0.  0.
<mgrwt>
<rscale>  0 0.20897528E+03</rscale>
<asrwt>0</asrwt>
<pdfrwt beam="1">  1        2 0.64942636E-01 0.20897528E+03</pdfrwt>
<pdfrwt beam="2">  1       -2 0.39789932E-02 0.20897528E+03</pdfrwt>
<totfact> 0.20274935E+04</totfact>
</mgrwt>
</event>
<event>
 4    1  0.6122885E-004  0.4777952E+03  0.7818608E-02  0.1019743E+00
         -2   -1    0    0    0  501 -0.00000000000E+00  0.00000000000E+00  0.21702001758E+03  0.21702001759E+03  0.25500000000E-02 0. -1.
          2   -1    0    0  501    0  0.00000000000E+00 -0.00000000000E+00 -0.26298066106E+03  0.26298066107E+03  0.25500000000E-02 0.  1.
    5000001    1    1    2    0    0  0.87174199016E+02  0.18469975337E+03 -0.12053534369E+03  0.24934135026E+03  0.77000000000E+02 0.  0.
   -5000001    1    1    2    0    0 -0.87174199016E+02 -0.18469975337E+03  0.74574700207E+02  0.23065932841E+03  0.77000000000E+02 0.  0.
<mgrwt>
<rscale>  0 0.47779522E+03</rscale>
<asrwt>0</asrwt>
<pdfrwt beam="1">  1        2 0.40458563E-01 0.47779522E+03</pdfrwt>
<pdfrwt beam="2">  1       -2 0.33387695E-01 0.47779522E+03</pdfrwt>
<totfact> 0.10661001E+03</totfact>
</mgrwt>
</event>
<event>
 4    1  0.6122885E-004  0.2112314E+03  0.7818608E-02  0.1140595E+00
          2   -1    0    0  501    0  0.00000000000E+00  0.00000000000E+00  0.11774337123E+04  0.11774337123E+04  0.25500000000E-02 0.  1.
         -2   -1    0    0    0  501 -0.00000000000E+00 -0.00000000000E+00 -0.94737165612E+01  0.94737169043E+01  0.25500000000E-02 0. -1.
    5000001    1    1    2    0    0  0.70910787298E+02 -0.80791490173E+01  0.51940776369E+03  0.52991229217E+03  0.77000000000E+02 0.  0.
   -5000001    1    1    2    0    0 -0.70910787298E+02  0.80791490173E+01  0.64855223206E+03  0.65699513705E+03  0.77000000000E+02 0.  0.
<mgrwt>
<rscale>  0 0.21123138E+03</rscale>
<asrwt>0</asrwt>
<pdfrwt beam="1">  1        2 0.18114350E+00 0.21123138E+03</pdfrwt>
<pdfrwt beam="2">  1       -2 0.14574961E-02 0.21123138E+03</pdfrwt>
<totfact> 0.24924710E+04</totfact>
</mgrwt>
</event>
<event>
 4    1  0.6122885E-004  0.1743981E+03  0.7818608E-02  0.1173337E+00
         -2   -1    0    0    0  501 -0.00000000000E+00  0.00000000000E+00  0.78370695807E+02  0.78370695848E+02  0.25500000000E-02 0. -1.
          2   -1    0    0  501    0  0.00000000000E+00 -0.00000000000E+00 -0.97021863473E+02  0.97021863507E+02  0.25500000000E-02 0.  1.
    5000001    1    1    2    0    0 -0.26038416002E+02 -0.31413981244E+02 -0.61718397895E+01  0.87360911922E+02  0.77000000000E+02 0.  0.
   -5000001    1    1    2    0    0  0.26038416002E+02  0.31413981244E+02 -0.12479327877E+02  0.88031647433E+02  0.77000000000E+02 0.  0.
<mgrwt>
<rscale>  0 0.17439806E+03</rscale>
<asrwt>0</asrwt>
<pdfrwt beam="1">  1        2 0.14926441E-01 0.17439806E+03</pdfrwt>
<pdfrwt beam="2">  1       -2 0.12057030E-01 0.17439806E+03</pdfrwt>
<totfact> 0.18276937E+04</totfact>
</mgrwt>
</event>
<event>
 4    1  0.6122885E-004  0.1871131E+03  0.7818608E-02  0.1161091E+00
          2   -1    0    0  501    0  0.00000000000E+00  0.00000000000E+00  0.16773535840E+03  0.16773535842E+03  0.25500000000E-02 0.  1.
         -2   -1    0    0    0  501 -0.00000000000E+00 -0.00000000000E+00 -0.52182372948E+02  0.52182373010E+02  0.25500000000E-02 0. -1.
    5000001    1    1    2    0    0 -0.36944699947E+02 -0.24806349399E+02  0.91912666802E+02  0.12789528585E+03  0.77000000000E+02 0.  0.
   -5000001    1    1    2    0    0  0.36944699947E+02  0.24806349399E+02  0.23640318654E+02  0.92022445581E+02  0.77000000000E+02 0.  0.
<mgrwt>
<rscale>  0 0.18711311E+03</rscale>
<asrwt>0</asrwt>
<pdfrwt beam="1">  1        2 0.25805440E-01 0.18711311E+03</pdfrwt>
<pdfrwt beam="2">  1       -2 0.80280573E-02 0.18711311E+03</pdfrwt>
<totfact> 0.18702886E+04</totfact>
</mgrwt>
</event>
<event>
 4    1  0.6122885E-004  0.1653977E+03  0.7818608E-02  0.1182734E+00
         -2   -1    0    0    0  501 -0.00000000000E+00  0.00000000000E+00  0.45991070265E+01  0.45991077334E+01  0.25500000000E-02 0. -1.
          2   -1    0    0  501    0  0.00000000000E+00 -0.00000000000E+00 -0.14870486335E+04  0.14870486335E+04  0.25500000000E-02 0.  1.
    5000001    1    1    2    0    0 -0.25324999374E+02  0.16249488710E+02 -0.72168367416E+03  0.72640328126E+03  0.77000000000E+02 0.  0.
   -5000001    1    1    2    0    0  0.25324999374E+02 -0.16249488710E+02 -0.76076585233E+03  0.76524445999E+03  0.77000000000E+02 0.  0.
<mgrwt>
<rscale>  0 0.16539766E+03</rscale>
<asrwt>0</asrwt>
<pdfrwt beam="1">  1        2 0.22877633E+00 0.16539766E+03</pdfrwt>
<pdfrwt beam="2">  1       -2 0.70755617E-03 0.16539766E+03</pdfrwt>
<totfact> 0.47148233E+04</totfact>
</mgrwt>
</event>
<event>
 4    1  0.6122885E-004  0.2168732E+03  0.7818608E-02  0.1136236E+00
          2   -1    0    0  501    0  0.00000000000E+00  0.00000000000E+00  0.94845464363E+03  0.94845464363E+03  0.25500000000E-02 0.  1.
         -2   -1    0    0    0  501 -0.00000000000E+00 -0.00000000000E+00 -0.12397530736E+02  0.12397530998E+02  0.25500000000E-02 0. -1.
    5000001    1    1    2    0    0  0.29167111159E+02 -0.52398223318E+02  0.25865845735E+03  0.27645884276E+03  0.77000000000E+02 0.  0.
   -5000001    1    1    2    0    0 -0.29167111159E+02  0.52398223318E+02  0.67739865554E+03  0.68439333187E+03  0.77000000000E+02 0.  0.
<mgrwt>
<rscale>  0 0.21687320E+03</rscale>
<asrwt>0</asrwt>
<pdfrwt beam="1">  1        2 0.14591612E+00 0.21687320E+03</pdfrwt>
<pdfrwt beam="2">  1       -2 0.19073122E-02 0.21687320E+03</pdfrwt>
<totfact> 0.23046850E+04</totfact>
</mgrwt>
</event>
<event>
 4    1  0.6122885E-004  0.3074668E+03  0.7818608E-02  0.1081566E+00
          2   -1    0    0  501    0  0.00000000000E+00  0.00000000000E+00  0.15380022461E+04  0.15380022461E+04  0.25500000000E-02 0.  1.
         -2   -1    0    0    0  501 -0.00000000000E+00 -0.00000000000E+00 -0.15366660630E+02  0.15366660842E+02  0.25500000000E-02 0. -1.
    5000001    1    1    2    0    0  0.20349816281E+02  0.71178194733E+02  0.20272918303E+03  0.22914748980E+03  0.77000000000E+02 0.  0.
   -5000001    1    1    2    0    0 -0.20349816281E+02 -0.71178194733E+02  0.13199064024E+04  0.13242214171E+04  0.77000000000E+02 0.  0.
<mgrwt>
<rscale>  0 0.30746680E+03</rscale>
<asrwt>0</asrwt>
<pdfrwt beam="1">  1        2 0.23661574E+00 0.30746680E+03</pdfrwt>
<pdfrwt beam="2">  1       -2 0.23641015E-02 0.30746680E+03</pdfrwt>
<totfact> 0.78762664E+03</totfact>
</mgrwt>
</event>
<event>
 4    1  0.6122885E-004  0.2110745E+03  0.7818608E-02  0.1140718E+00
         -2   -1    0    0    0  501 -0.00000000000E+00  0.00000000000E+00  0.93540870543E+01  0.93540874019E+01  0.25500000000E-02 0. -1.
          2   -1    0    0  501    0  0.00000000000E+00 -0.00000000000E+00 -0.11907210633E+04  0.11907210633E+04  0.25500000000E-02 0.  1.
    5000001    1    1    2    0    0 -0.15098549935E+02 -0.70510519370E+02 -0.60812353831E+03  0.61720574965E+03  0.77000000000E+02 0.  0.
   -5000001    1    1    2    0    0  0.15098549935E+02  0.70510519370E+02 -0.57324343795E+03  0.58286940107E+03  0.77000000000E+02 0.  0.
<mgrwt>
<rscale>  0 0.21107448E+03</rscale>
<asrwt>0</asrwt>
<pdfrwt beam="1">  1        2 0.18318774E+00 0.21107448E+03</pdfrwt>
<pdfrwt beam="2">  1       -2 0.14390913E-02 0.21107448E+03</pdfrwt>
<totfact> 0.24952575E+04</totfact>
</mgrwt>
</event>
<event>
 4    1  0.6122885E-004  0.3368098E+03  0.7818608E-02  0.1068163E+00
          2   -1    0    0  501    0  0.00000000000E+00  0.00000000000E+00  0.86677439215E+02  0.86677439253E+02  0.25500000000E-02 0.  1.
         -2   -1    0    0    0  501 -0.00000000000E+00 -0.00000000000E+00 -0.32719252164E+03  0.32719252165E+03  0.25500000000E-02 0. -1.
    5000001    1    1    2    0    0  0.60551577411E+02  0.13051442997E+03 -0.69137631083E+02  0.17722731727E+03  0.77000000000E+02 0.  0.
   -5000001    1    1    2    0    0 -0.60551577411E+02 -0.13051442997E+03 -0.17137745134E+03  0.23664264363E+03  0.77000000000E+02 0.  0.
<mgrwt>
<rscale>  0 0.33680980E+03</rscale>
<asrwt>0</asrwt>
<pdfrwt beam="1">  1        2 0.13334991E-01 0.33680980E+03</pdfrwt>
<pdfrwt beam="2">  1       -2 0.50337310E-01 0.33680980E+03</pdfrwt>
<totfact> 0.17093355E+03</totfact>
</mgrwt>
</event>
<event>
 4    1  0.6122885E-004  0.2357944E+03  0.7818608E-02  0.1122627E+00
          2   -1    0    0  501    0  0.00000000000E+00  0.00000000000E+00  0.24579138449E+04  0.24579138449E+04  0.25500000000E-02 0.  1.
         -2   -1    0    0    0  501 -0.00000000000E+00 -0.00000000000E+00 -0.56550981409E+01  0.56550987159E+01  0.25500000000E-02 0. -1.
    5000001    1    1    2    0    0 -0.28294543666E+02  0.84666593575E+02  0.12398772954E+04  0.12454692774E+04  0.77000000000E+02 0.  0.
   -5000001    1    1    2    0    0  0.28294543666E+02 -0.84666593575E+02  0.12123814514E+04  0.12180996663E+04  0.77000000000E+02 0.  0.
<mgrwt>
<rscale>  0 0.23579436E+03</rscale>
<asrwt>0</asrwt>
<pdfrwt beam="1">  1        2 0.37814091E+00 0.23579436E+03</pdfrwt>
<pdfrwt beam="2">  1       -2 0.87001441E-03 0.23579436E+03</pdfrwt>
<totfact> 0.11017076E+04</totfact>
</mgrwt>
</event>
<event>
 4    1  0.6122885E-004  0.2885471E+03  0.7818608E-02  0.1091110E+00
         -2   -1    0    0    0  501 -0.00000000000E+00  0.00000000000E+00  0.28896879148E+02  0.28896879261E+02  0.25500000000E-02 0. -1.
          2   -1    0    0  501    0  0.00000000000E+00 -0.00000000000E+00 -0.72031518377E+03  0.72031518378E+03  0.25500000000E-02 0.  1.
    5000001    1    1    2    0    0 -0.47198667940E+02 -0.10255119591E+03 -0.22555555185E+03  0.26372100600E+03  0.77000000000E+02 0.  0.
   -5000001    1    1    2    0    0  0.47198667940E+02  0.10255119591E+03 -0.46586275277E+03  0.48549105703E+03  0.77000000000E+02 0.  0.
<mgrwt>
<rscale>  0 0.28854713E+03</rscale>
<asrwt>0</asrwt>
<pdfrwt beam="1">  1        2 0.11081771E+00 0.28854713E+03</pdfrwt>
<pdfrwt beam="2">  1       -2 0.44456742E-02 0.28854713E+03</pdfrwt>
<totfact> 0.94667555E+03</totfact>
</mgrwt>
</event>
<event>
 4    1  0.6122885E-004  0.3119641E+03  0.7818608E-02  0.1079408E+00
          2   -1    0    0  501    0  0.00000000000E+00  0.00000000000E+00  0.11475390211E+04  0.11475390211E+04  0.25500000000E-02 0.  1.
         -2   -1    0    0    0  501 -0.00000000000E+00 -0.00000000000E+00 -0.21202244945E+02  0.21202245098E+02  0.25500000000E-02 0. -1.
    5000001    1    1    2    0    0  0.12449393105E+03 -0.75483844076E+01  0.76301981609E+03  0.77697101408E+03  0.77000000000E+02 0.  0.
   -5000001    1    1    2    0    0 -0.12449393105E+03  0.75483844076E+01  0.36331696004E+03  0.39177025210E+03  0.77000000000E+02 0.  0.
<mgrwt>
<rscale>  0 0.31196412E+03</rscale>
<asrwt>0</asrwt>
<pdfrwt beam="1">  1        2 0.17654442E+00 0.31196412E+03</pdfrwt>
<pdfrwt beam="2">  1       -2 0.32618846E-02 0.31196412E+03</pdfrwt>
<totfact> 0.80231573E+03</totfact>
</mgrwt>
</event>
<event>
 4    1  0.6122885E-004  0.2022943E+03  0.7818608E-02  0.1147818E+00
         -2   -1    0    0    0  501 -0.00000000000E+00  0.00000000000E+00  0.72496326151E+01  0.72496330636E+01  0.25500000000E-02 0. -1.
          2   -1    0    0  501    0  0.00000000000E+00 -0.00000000000E+00 -0.14112089961E+04  0.14112089961E+04  0.25500000000E-02 0.  1.
    5000001    1    1    2    0    0  0.10767552290E+02  0.64693099702E+02 -0.69650435456E+03  0.70380995535E+03  0.77000000000E+02 0.  0.
   -5000001    1    1    2    0    0 -0.10767552290E+02 -0.64693099702E+02 -0.70745500895E+03  0.71464867384E+03  0.77000000000E+02 0.  0.
<mgrwt>
<rscale>  0 0.20229431E+03</rscale>
<asrwt>0</asrwt>
<pdfrwt beam="1">  1        2 0.21710886E+00 0.20229431E+03</pdfrwt>
<pdfrwt beam="2">  1       -2 0.11153292E-02 0.20229431E+03</pdfrwt>
<totfact> 0.27255043E+04</totfact>
</mgrwt>
</event>
<event>
 4    1  0.6122885E-004  0.2150215E+03  0.7818608E-02  0.1137650E+00
          2   -1    0    0  501    0  0.00000000000E+00  0.00000000000E+00  0.49724137269E+03  0.49724137270E+03  0.25500000000E-02 0.  1.
         -2   -1    0    0    0  501 -0.00000000000E+00 -0.00000000000E+00 -0.23245378924E+02  0.23245379064E+02  0.25500000000E-02 0. -1.
    5000001    1    1    2    0    0  0.61709665108E+01  0.53433553390E+02  0.36362101673E+03  0.37555621319E+03  0.77000000000E+02 0.  0.
   -5000001    1    1    2    0    0 -0.61709665108E+01 -0.53433553390E+02  0.11037497704E+03  0.14493053857E+03  0.77000000000E+02 0.  0.
<mgrwt>
<rscale>  0 0.21502153E+03</rscale>
<asrwt>0</asrwt>
<pdfrwt beam="1">  1        2 0.76498666E-01 0.21502153E+03</pdfrwt>
<pdfrwt beam="2">  1       -2 0.35762125E-02 0.21502153E+03</pdfrwt>
<totfact> 0.19905619E+04</totfact>
</mgrwt>
</event>
<event>
 4    1  0.6122885E-004  0.3374422E+03  0.7818608E-02  0.1067891E+00
          2   -1    0    0  501    0  0.00000000000E+00  0.00000000000E+00  0.17724439017E+04  0.17724439017E+04  0.25500000000E-02 0.  1.
         -2   -1    0    0    0  501 -0.00000000000E+00 -0.00000000000E+00 -0.16060765562E+02  0.16060765765E+02  0.25500000000E-02 0. -1.
    5000001    1    1    2    0    0 -0.13378594934E+03 -0.67765465014E+02  0.91451528034E+03  0.92992367238E+03  0.77000000000E+02 0.  0.
   -5000001    1    1    2    0    0  0.13378594934E+03  0.67765465014E+02  0.84186785580E+03  0.85858099508E+03  0.77000000000E+02 0.  0.
<mgrwt>
<rscale>  0 0.33744218E+03</rscale>
<asrwt>0</asrwt>
<pdfrwt beam="1">  1        2 0.27268383E+00 0.33744218E+03</pdfrwt>
<pdfrwt beam="2">  1       -2 0.24708857E-02 0.33744218E+03</pdfrwt>
<totfact> 0.55385519E+03</totfact>
</mgrwt>
</event>
<event>
 4    1  0.6122885E-004  0.3060960E+03  0.7818608E-02  0.1082232E+00
         -2   -1    0    0    0  501 -0.00000000000E+00  0.00000000000E+00  0.20968893479E+02  0.20968893634E+02  0.25500000000E-02 0. -1.
          2   -1    0    0  501    0  0.00000000000E+00 -0.00000000000E+00 -0.11170685191E+04  0.11170685191E+04  0.25500000000E-02 0.  1.
    5000001    1    1    2    0    0  0.10156244995E+03 -0.84705644538E+02 -0.55612154827E+03  0.57679299051E+03  0.77000000000E+02 0.  0.
   -5000001    1    1    2    0    0 -0.10156244995E+03  0.84705644538E+02 -0.53997807739E+03  0.56124442226E+03  0.77000000000E+02 0.  0.
<mgrwt>
<rscale>  0 0.30609600E+03</rscale>
<asrwt>0</asrwt>
<pdfrwt beam="1">  1        2 0.17185665E+00 0.30609600E+03</pdfrwt>
<pdfrwt beam="2">  1       -2 0.32259845E-02 0.30609600E+03</pdfrwt>
<totfact> 0.84948649E+03</totfact>
</mgrwt>
</event>
<event>
 4    1  0.6122885E-004  0.2337302E+03  0.7818608E-02  0.1124041E+00
          2   -1    0    0  501    0  0.00000000000E+00  0.00000000000E+00  0.40250338571E+02  0.40250338652E+02  0.25500000000E-02 0.  1.
         -2   -1    0    0    0  501 -0.00000000000E+00 -0.00000000000E+00 -0.33931280926E+03  0.33931280927E+03  0.25500000000E-02 0. -1.
    5000001    1    1    2    0    0  0.56583013207E+02  0.65304499941E+02 -0.17582399103E+03  0.21049795942E+03  0.77000000000E+02 0.  0.
   -5000001    1    1    2    0    0 -0.56583013207E+02 -0.65304499941E+02 -0.12323847966E+03  0.16906518851E+03  0.77000000000E+02 0.  0.
<mgrwt>
<rscale>  0 0.23373023E+03</rscale>
<asrwt>0</asrwt>
<pdfrwt beam="1">  1        2 0.61923600E-02 0.23373023E+03</pdfrwt>
<pdfrwt beam="2">  1       -2 0.52201969E-01 0.23373023E+03</pdfrwt>
<totfact> 0.41182450E+03</totfact>
</mgrwt>
</event>
<event>
 4    1  0.6122885E-004  0.3029644E+03  0.7818608E-02  0.1083768E+00
         -2   -1    0    0    0  501 -0.00000000000E+00  0.00000000000E+00  0.12440731208E+02  0.12440731470E+02  0.25500000000E-02 0. -1.
          2   -1    0    0  501    0  0.00000000000E+00 -0.00000000000E+00 -0.18444939749E+04  0.18444939749E+04  0.25500000000E-02 0.  1.
    5000001    1    1    2    0    0 -0.63628020898E+02  0.11326781949E+03 -0.98847854729E+03  0.99994847988E+03  0.77000000000E+02 0.  0.
   -5000001    1    1    2    0    0  0.63628020898E+02 -0.11326781949E+03 -0.84357469640E+03  0.85698622648E+03  0.77000000000E+02 0.  0.
<mgrwt>
<rscale>  0 0.30296438E+03</rscale>
<asrwt>0</asrwt>
<pdfrwt beam="1">  1        2 0.28376809E+00 0.30296438E+03</pdfrwt>
<pdfrwt beam="2">  1       -2 0.19139601E-02 0.30296438E+03</pdfrwt>
<totfact> 0.74046489E+03</totfact>
</mgrwt>
</event>
<event>
 4    1  0.6122885E-004  0.3851218E+03  0.7818608E-02  0.1049057E+00
          2   -1    0    0  501    0  0.00000000000E+00  0.00000000000E+00  0.11930297038E+03  0.11930297040E+03  0.25500000000E-02 0.  1.
         -2   -1    0    0    0  501 -0.00000000000E+00 -0.00000000000E+00 -0.31080288948E+03  0.31080288950E+03  0.25500000000E-02 0. -1.
    5000001    1    1    2    0    0 -0.12428236098E+03  0.81710557040E+02  0.10364040800E+02  0.16780683456E+03  0.77000000000E+02 0.  0.
   -5000001    1    1    2    0    0  0.12428236098E+03 -0.81710557040E+02 -0.20186395991E+03  0.26229902534E+03  0.77000000000E+02 0.  0.
<mgrwt>
<rscale>  0 0.38512184E+03</rscale>
<asrwt>0</asrwt>
<pdfrwt beam="1">  1        2 0.18354303E-01 0.38512184E+03</pdfrwt>
<pdfrwt beam="2">  1       -2 0.47815829E-01 0.38512184E+03</pdfrwt>
<totfact> 0.12976406E+03</totfact>
</mgrwt>
</event>
<event>
 4    1  0.6122885E-004  0.4058133E+03  0.7818608E-02  0.1041785E+00
         -2   -1    0    0    0  501 -0.00000000000E+00  0.00000000000E+00  0.60842570207E+02  0.60842570261E+02  0.25500000000E-02 0. -1.
          2   -1    0    0  501    0  0.00000000000E+00 -0.00000000000E+00 -0.67668274212E+03  0.67668274212E+03  0.25500000000E-02 0.  1.
    5000001    1    1    2    0    0 -0.13602287729E+03 -0.49664185367E+02 -0.52504705043E+03  0.55006559574E+03  0.77000000000E+02 0.  0.
   -5000001    1    1    2    0    0  0.13602287729E+03  0.49664185367E+02 -0.90793121477E+02  0.18745971664E+03  0.77000000000E+02 0.  0.
<mgrwt>
<rscale>  0 0.40581334E+03</rscale>
<asrwt>0</asrwt>
<pdfrwt beam="1">  1        2 0.10410503E+00 0.40581334E+03</pdfrwt>
<pdfrwt beam="2">  1       -2 0.93603959E-02 0.40581334E+03</pdfrwt>
<totfact> 0.32414989E+03</totfact>
</mgrwt>
</event>
<event>
 4    1  0.6122885E-004  0.3509495E+03  0.7818608E-02  0.1062226E+00
          2   -1    0    0  501    0  0.00000000000E+00  0.00000000000E+00  0.29738166773E+04  0.29738166773E+04  0.25500000000E-02 0.  1.
         -2   -1    0    0    0  501 -0.00000000000E+00 -0.00000000000E+00 -0.10354166357E+02  0.10354166671E+02  0.25500000000E-02 0. -1.
    5000001    1    1    2    0    0 -0.12380534776E+03 -0.28137856282E+02  0.22768033757E+04  0.22816402247E+04  0.77000000000E+02 0.  0.
   -5000001    1    1    2    0    0  0.12380534776E+03  0.28137856282E+02  0.68665913523E+03  0.70253061932E+03  0.77000000000E+02 0.  0.
<mgrwt>
<rscale>  0 0.35094953E+03</rscale>
<asrwt>0</asrwt>
<pdfrwt beam="1">  1        2 0.45751035E+00 0.35094953E+03</pdfrwt>
<pdfrwt beam="2">  1       -2 0.15929484E-02 0.35094953E+03</pdfrwt>
<totfact> 0.23135387E+03</totfact>
</mgrwt>
</event>
<event>
 4    1  0.6122885E-004  0.1780388E+03  0.7818608E-02  0.1169715E+00
          2   -1    0    0  501    0  0.00000000000E+00  0.00000000000E+00  0.15217836408E+03  0.15217836410E+03  0.25500000000E-02 0.  1.
         -2   -1    0    0    0  501 -0.00000000000E+00 -0.00000000000E+00 -0.52073445233E+02  0.52073445295E+02  0.25500000000E-02 0. -1.
    5000001    1    1    2    0    0 -0.85379879466E+01 -0.43653965290E+02  0.54766703118E+02  0.10443638108E+03  0.77000000000E+02 0.  0.
   -5000001    1    1    2    0    0  0.85379879466E+01  0.43653965290E+02  0.45338215731E+02  0.99815428313E+02  0.77000000000E+02 0.  0.
<mgrwt>
<rscale>  0 0.17803878E+03</rscale>
<asrwt>0</asrwt>
<pdfrwt beam="1">  1        2 0.23412056E-01 0.17803878E+03</pdfrwt>
<pdfrwt beam="2">  1       -2 0.80112993E-02 0.17803878E+03</pdfrwt>
<totfact> 0.20822678E+04</totfact>
</mgrwt>
</event>
<event>
 4    1  0.6122885E-004  0.2940610E+03  0.7818608E-02  0.1088248E+00
          2   -1    0    0  501    0  0.00000000000E+00  0.00000000000E+00  0.18186918153E+04  0.18186918153E+04  0.25500000000E-02 0.  1.
         -2   -1    0    0    0  501 -0.00000000000E+00 -0.00000000000E+00 -0.11886551570E+02  0.11886551843E+02  0.25500000000E-02 0. -1.
    5000001    1    1    2    0    0  0.45835596649E+02  0.26875169517E+02  0.16095074749E+04  0.16122240814E+04  0.77000000000E+02 0.  0.
   -5000001    1    1    2    0    0 -0.45835596649E+02 -0.26875169517E+02  0.19729778882E+03  0.21835428580E+03  0.77000000000E+02 0.  0.
<mgrwt>
<rscale>  0 0.29406104E+03</rscale>
<asrwt>0</asrwt>
<pdfrwt beam="1">  1        2 0.27979855E+00 0.29406104E+03</pdfrwt>
<pdfrwt beam="2">  1       -2 0.18287015E-02 0.29406104E+03</pdfrwt>
<totfact> 0.81684534E+03</totfact>
</mgrwt>
</event>
<event>
 4    1  0.6122885E-004  0.2651544E+03  0.7818608E-02  0.1104085E+00
         -2   -1    0    0    0  501 -0.00000000000E+00  0.00000000000E+00  0.27837385782E+02  0.27837385899E+02  0.25500000000E-02 0. -1.
          2   -1    0    0  501    0  0.00000000000E+00 -0.00000000000E+00 -0.63140674350E+03  0.63140674351E+03  0.25500000000E-02 0.  1.
    5000001    1    1    2    0    0 -0.32856464047E+02 -0.10270491737E+03 -0.31286624533E+03  0.33976776591E+03  0.77000000000E+02 0.  0.
   -5000001    1    1    2    0    0  0.32856464047E+02  0.10270491737E+03 -0.29070311239E+03  0.31947636350E+03  0.77000000000E+02 0.  0.
<mgrwt>
<rscale>  0 0.26515439E+03</rscale>
<asrwt>0</asrwt>
<pdfrwt beam="1">  1        2 0.97139488E-01 0.26515439E+03</pdfrwt>
<pdfrwt beam="2">  1       -2 0.42826752E-02 0.26515439E+03</pdfrwt>
<totfact> 0.11696656E+04</totfact>
</mgrwt>
</event>
<event>
 4    1  0.6122885E-004  0.2137461E+03  0.7818608E-02  0.1138633E+00
         -2   -1    0    0    0  501 -0.00000000000E+00  0.00000000000E+00  0.15800393633E+03  0.15800393635E+03  0.25500000000E-02 0. -1.
          2   -1    0    0  501    0  0.00000000000E+00 -0.00000000000E+00 -0.72288379229E+02  0.72288379274E+02  0.25500000000E-02 0.  1.
    5000001    1    1    2    0    0  0.39043755954E+02  0.57299569810E+02  0.14655273868E+02  0.10464909284E+03  0.77000000000E+02 0.  0.
   -5000001    1    1    2    0    0 -0.39043755954E+02 -0.57299569810E+02  0.71060283233E+02  0.12564322279E+03  0.77000000000E+02 0.  0.
<mgrwt>
<rscale>  0 0.21374610E+03</rscale>
<asrwt>0</asrwt>
<pdfrwt beam="1">  1        2 0.11121289E-01 0.21374610E+03</pdfrwt>
<pdfrwt beam="2">  1       -2 0.24308298E-01 0.21374610E+03</pdfrwt>
<totfact> 0.81762054E+03</totfact>
</mgrwt>
</event>
<event>
 4    1  0.6122885E-004  0.2448880E+03  0.7818608E-02  0.1116579E+00
          2   -1    0    0  501    0  0.00000000000E+00  0.00000000000E+00  0.12366473766E+04  0.12366473766E+04  0.25500000000E-02 0.  1.
         -2   -1    0    0    0  501 -0.00000000000E+00 -0.00000000000E+00 -0.12123532655E+02  0.12123532923E+02  0.25500000000E-02 0. -1.
    5000001    1    1    2    0    0  0.86580519534E+02  0.31925195511E+01  0.41103718428E+03  0.42706784637E+03  0.77000000000E+02 0.  0.
   -5000001    1    1    2    0    0 -0.86580519534E+02 -0.31925195511E+01  0.81348665971E+03  0.82170306320E+03  0.77000000000E+02 0.  0.
<mgrwt>
<rscale>  0 0.24488802E+03</rscale>
<asrwt>0</asrwt>
<pdfrwt beam="1">  1        2 0.19025345E+00 0.24488802E+03</pdfrwt>
<pdfrwt beam="2">  1       -2 0.18651588E-02 0.24488802E+03</pdfrwt>
<totfact> 0.16217963E+04</totfact>
</mgrwt>
</event>
<event>
 4    1  0.6122885E-004  0.2182025E+03  0.7818608E-02  0.1135230E+00
         -2   -1    0    0    0  501 -0.00000000000E+00  0.00000000000E+00  0.67760196650E+01  0.67760201448E+01  0.25500000000E-02 0. -1.
          2   -1    0    0  501    0  0.00000000000E+00 -0.00000000000E+00 -0.17566481405E+04  0.17566481405E+04  0.25500000000E-02 0.  1.
    5000001    1    1    2    0    0  0.66261722224E+02 -0.23971503165E+02 -0.61824726388E+03  0.62699595540E+03  0.77000000000E+02 0.  0.
   -5000001    1    1    2    0    0 -0.66261722224E+02  0.23971503165E+02 -0.11316248570E+04  0.11364282053E+04  0.77000000000E+02 0.  0.
<mgrwt>
<rscale>  0 0.21820250E+03</rscale>
<asrwt>0</asrwt>
<pdfrwt beam="1">  1        2 0.27025320E+00 0.21820250E+03</pdfrwt>
<pdfrwt beam="2">  1       -2 0.10424660E-02 0.21820250E+03</pdfrwt>
<totfact> 0.19838529E+04</totfact>
</mgrwt>
</event>
<event>
 4    1  0.6122885E-004  0.2759913E+03  0.7818608E-02  0.1097899E+00
         -2   -1    0    0    0  501 -0.00000000000E+00  0.00000000000E+00  0.18956223194E+02  0.18956223365E+02  0.25500000000E-02 0. -1.
          2   -1    0    0  501    0  0.00000000000E+00 -0.00000000000E+00 -0.10045675104E+04  0.10045675104E+04  0.25500000000E-02 0.  1.
    5000001    1    1    2    0    0  0.99481811016E+02  0.54990150239E+02 -0.54436078199E+03  0.56140734616E+03  0.77000000000E+02 0.  0.
   -5000001    1    1    2    0    0 -0.99481811016E+02 -0.54990150239E+02 -0.44125050516E+03  0.46211638756E+03  0.77000000000E+02 0.  0.
<mgrwt>
<rscale>  0 0.27599135E+03</rscale>
<asrwt>0</asrwt>
<pdfrwt beam="1">  1        2 0.15454881E+00 0.27599135E+03</pdfrwt>
<pdfrwt beam="2">  1       -2 0.29163428E-02 0.27599135E+03</pdfrwt>
<totfact> 0.11499523E+04</totfact>
</mgrwt>
</event>
<event>
 4    1  0.6122885E-004  0.2035197E+03  0.7818608E-02  0.1146803E+00
          2   -1    0    0  501    0  0.00000000000E+00  0.00000000000E+00  0.69829770914E+03  0.69829770915E+03  0.25500000000E-02 0.  1.
         -2   -1    0    0    0  501 -0.00000000000E+00 -0.00000000000E+00 -0.14829016834E+02  0.14829017054E+02  0.25500000000E-02 0. -1.
    5000001    1    1    2    0    0 -0.57790497945E+02  0.31783330735E+02  0.37231072515E+03  0.38586810937E+03  0.77000000000E+02 0.  0.
   -5000001    1    1    2    0    0  0.57790497945E+02 -0.31783330735E+02  0.31115796716E+03  0.32725861683E+03  0.77000000000E+02 0.  0.
<mgrwt>
<rscale>  0 0.20351971E+03</rscale>
<asrwt>0</asrwt>
<pdfrwt beam="1">  1        2 0.10743041E+00 0.20351971E+03</pdfrwt>
<pdfrwt beam="2">  1       -2 0.22813874E-02 0.20351971E+03</pdfrwt>
<totfact> 0.26085556E+04</totfact>
</mgrwt>
</event>
<event>
 4    1  0.6122885E-004  0.2549517E+03  0.7818608E-02  0.1110215E+00
          2   -1    0    0  501    0  0.00000000000E+00  0.00000000000E+00  0.69641124902E+03  0.69641124903E+03  0.25500000000E-02 0.  1.
         -2   -1    0    0    0  501 -0.00000000000E+00 -0.00000000000E+00 -0.23334043864E+02  0.23334044003E+02  0.25500000000E-02 0. -1.
    5000001    1    1    2    0    0 -0.57067542363E+02  0.47981500946E+02  0.53135388368E+03  0.54205615809E+03  0.77000000000E+02 0.  0.
   -5000001    1    1    2    0    0  0.57067542363E+02 -0.47981500946E+02  0.14172332149E+03  0.17768913494E+03  0.77000000000E+02 0.  0.
<mgrwt>
<rscale>  0 0.25495169E+03</rscale>
<asrwt>0</asrwt>
<pdfrwt beam="1">  1        2 0.10714019E+00 0.25495169E+03</pdfrwt>
<pdfrwt beam="2">  1       -2 0.35898531E-02 0.25495169E+03</pdfrwt>
<totfact> 0.13542450E+04</totfact>
</mgrwt>
</event>
<event>
 4    1  0.6122885E-004  0.2634020E+03  0.7818608E-02  0.1105116E+00
          2   -1    0    0  501    0  0.00000000000E+00  0.00000000000E+00  0.12881338971E+04  0.12881338971E+04  0.25500000000E-02 0.  1.
         -2   -1    0    0    0  501 -0.00000000000E+00 -0.00000000000E+00 -0.13465337270E+02  0.13465337511E+02  0.25500000000E-02 0. -1.
    5000001    1    1    2    0    0 -0.36924595714E+02  0.98996860604E+02  0.71583302335E+03  0.72767418636E+03  0.77000000000E+02 0.  0.
   -5000001    1    1    2    0    0  0.36924595714E+02 -0.98996860604E+02  0.55883553645E+03  0.57392504822E+03  0.77000000000E+02 0.  0.
<mgrwt>
<rscale>  0 0.26340203E+03</rscale>
<asrwt>0</asrwt>
<pdfrwt beam="1">  1        2 0.19817445E+00 0.26340203E+03</pdfrwt>
<pdfrwt beam="2">  1       -2 0.20715903E-02 0.26340203E+03</pdfrwt>
<totfact> 0.13045219E+04</totfact>
</mgrwt>
</event>
<event>
 4    1  0.6122885E-004  0.4703972E+03  0.7818608E-02  0.1021808E+00
         -2   -1    0    0    0  501 -0.00000000000E+00  0.00000000000E+00  0.91691049304E+02  0.91691049340E+02  0.25500000000E-02 0. -1.
          2   -1    0    0  501    0  0.00000000000E+00 -0.00000000000E+00 -0.60331281916E+03  0.60331281917E+03  0.25500000000E-02 0.  1.
    5000001    1    1    2    0    0 -0.14054377443E+03  0.14239206363E+03 -0.11285852521E+03  0.24226865053E+03  0.77000000000E+02 0.  0.
   -5000001    1    1    2    0    0  0.14054377443E+03 -0.14239206363E+03 -0.39876324465E+03  0.45273521798E+03  0.77000000000E+02 0.  0.
<mgrwt>
<rscale>  0 0.47039722E+03</rscale>
<asrwt>0</asrwt>
<pdfrwt beam="1">  1        2 0.92817354E-01 0.47039722E+03</pdfrwt>
<pdfrwt beam="2">  1       -2 0.14106316E-01 0.47039722E+03</pdfrwt>
<totfact> 0.19100478E+03</totfact>
</mgrwt>
</event>
<event>
 4    1  0.6122885E-004  0.2682544E+03  0.7818608E-02  0.1102283E+00
         -2   -1    0    0    0  501 -0.00000000000E+00  0.00000000000E+00  0.59321612395E+01  0.59321617876E+01  0.25500000000E-02 0. -1.
          2   -1    0    0  501    0  0.00000000000E+00 -0.00000000000E+00 -0.30326391767E+04  0.30326391767E+04  0.25500000000E-02 0.  1.
    5000001    1    1    2    0    0 -0.89211504112E+02  0.43628477316E+02 -0.20445217877E+04  0.20483799640E+04  0.77000000000E+02 0.  0.
   -5000001    1    1    2    0    0  0.89211504112E+02 -0.43628477316E+02 -0.98218522775E+03  0.99019137449E+03  0.77000000000E+02 0.  0.
<mgrwt>
<rscale>  0 0.26825440E+03</rscale>
<asrwt>0</asrwt>
<pdfrwt beam="1">  1        2 0.46655864E+00 0.26825440E+03</pdfrwt>
<pdfrwt beam="2">  1       -2 0.91264265E-03 0.26825440E+03</pdfrwt>
<totfact> 0.48537418E+03</totfact>
</mgrwt>
</event>
<event>
 4    1  0.6122885E-004  0.3559133E+03  0.7818608E-02  0.1060214E+00
         -2   -1    0    0    0  501 -0.00000000000E+00  0.00000000000E+00  0.58729072689E+03  0.58729072690E+03  0.25500000000E-02 0.  1.
          2   -1    0    0  501    0  0.00000000000E+00 -0.00000000000E+00 -0.53923145776E+02  0.53923145836E+02  0.25500000000E-02 0. -1.
    5000001    1    1    2    0    0  0.44899911381E+02  0.14117715520E+03  0.15573420944E+03  0.22831805706E+03  0.77000000000E+02 0.  0.
   -5000001    1    1    2    0    0 -0.44899911381E+02 -0.14117715520E+03  0.37763337168E+03  0.41289581567E+03  0.77000000000E+02 0.  0.
<mgrwt>
<rscale>  0 0.35591327E+03</rscale>
<asrwt>0</asrwt>
<pdfrwt beam="1">  1        2 0.82958685E-02 0.35591327E+03</pdfrwt>
<pdfrwt beam="2">  1       -2 0.90352420E-01 0.35591327E+03</pdfrwt>
<totfact> 0.88454747E+02</totfact>
</mgrwt>
</event>
<event>
 4    1  0.6122885E-004  0.1893738E+03  0.7818608E-02  0.1159027E+00
          2   -1    0    0  501    0  0.00000000000E+00  0.00000000000E+00  0.17320719372E+04  0.17320719372E+04  0.25500000000E-02 0.  1.
         -2   -1    0    0    0  501 -0.00000000000E+00 -0.00000000000E+00 -0.51762356256E+01  0.51762362537E+01  0.25500000000E-02 0. -1.
    5000001    1    1    2    0    0  0.42621457081E+02 -0.26582225903E+02  0.10713092750E+04  0.10752468396E+04  0.77000000000E+02 0.  0.
   -5000001    1    1    2    0    0 -0.42621457081E+02  0.26582225903E+02  0.65558642661E+03  0.66200133391E+03  0.77000000000E+02 0.  0.
<mgrwt>
<rscale>  0 0.18937384E+03</rscale>
<asrwt>0</asrwt>
<pdfrwt beam="1">  1        2 0.26647274E+00 0.18937384E+03</pdfrwt>
<pdfrwt beam="2">  1       -2 0.79634360E-03 0.18937384E+03</pdfrwt>
<totfact> 0.29918863E+04</totfact>
</mgrwt>
</event>
<event>
 4    1  0.6122885E-004  0.3979185E+03  0.7818608E-02  0.1044503E+00
          2   -1    0    0  501    0  0.00000000000E+00  0.00000000000E+00  0.13592514559E+04  0.13592514559E+04  0.25500000000E-02 0.  1.
         -2   -1    0    0    0  501 -0.00000000000E+00 -0.00000000000E+00 -0.29122493755E+02  0.29122493867E+02  0.25500000000E-02 0. -1.
    5000001    1    1    2    0    0  0.93094301448E+02  0.91669498820E+02  0.11144120556E+04  0.11246835447E+04  0.77000000000E+02 0.  0.
   -5000001    1    1    2    0    0 -0.93094301448E+02 -0.91669498820E+02  0.21571690657E+03  0.26369040512E+03  0.77000000000E+02 0.  0.
<mgrwt>
<rscale>  0 0.39791855E+03</rscale>
<asrwt>0</asrwt>
<pdfrwt beam="1">  1        2 0.20911565E+00 0.39791855E+03</pdfrwt>
<pdfrwt beam="2">  1       -2 0.44803827E-02 0.39791855E+03</pdfrwt>
<totfact> 0.37742753E+03</totfact>
</mgrwt>
</event>
<event>
 4    1  0.6122885E-004  0.3946357E+03  0.7818608E-02  0.1045653E+00
          2   -1    0    0  501    0  0.00000000000E+00  0.00000000000E+00  0.39677282027E+04  0.39677282027E+04  0.25500000000E-02 0.  1.
         -2   -1    0    0    0  501 -0.00000000000E+00 -0.00000000000E+00 -0.98127509120E+01  0.98127512433E+01  0.25500000000E-02 0. -1.
    5000001    1    1    2    0    0 -0.15879826315E+03 -0.87210409432E+02  0.18426912706E+04  0.18531763712E+04  0.77000000000E+02 0.  0.
   -5000001    1    1    2    0    0  0.15879826315E+03  0.87210409432E+02  0.21152241812E+04  0.21243645828E+04  0.77000000000E+02 0.  0.
<mgrwt>
<rscale>  0 0.39463568E+03</rscale>
<asrwt>0</asrwt>
<pdfrwt beam="1">  1        2 0.61042040E+00 0.39463568E+03</pdfrwt>
<pdfrwt beam="2">  1       -2 0.15096523E-02 0.39463568E+03</pdfrwt>
<totfact> 0.53766263E+02</totfact>
</mgrwt>
</event>
<event>
 4    1  0.6122885E-004  0.5915721E+03  0.7818608E-02  0.9923047E-01
          2   -1    0    0  501    0  0.00000000000E+00  0.00000000000E+00  0.28607560217E+04  0.28607560217E+04  0.25500000000E-02 0.  1.
         -2   -1    0    0    0  501 -0.00000000000E+00 -0.00000000000E+00 -0.30582613723E+02  0.30582613829E+02  0.25500000000E-02 0. -1.
    5000001    1    1    2    0    0  0.17620646442E+03 -0.12707892816E+03  0.23210996768E+04  0.23325159124E+04  0.77000000000E+02 0.  0.
   -5000001    1    1    2    0    0 -0.17620646442E+03  0.12707892816E+03  0.50907373122E+03  0.55882272315E+03  0.77000000000E+02 0.  0.
<mgrwt>
<rscale>  0 0.59157213E+03</rscale>
<asrwt>0</asrwt>
<pdfrwt beam="1">  1        2 0.44011639E+00 0.59157213E+03</pdfrwt>
<pdfrwt beam="2">  1       -2 0.47050167E-02 0.59157213E+03</pdfrwt>
<totfact> 0.51421192E+02</totfact>
</mgrwt>
</event>
<event>
 4    1  0.6122885E-004  0.1921382E+03  0.7818608E-02  0.1156547E+00
          2   -1    0    0  501    0  0.00000000000E+00  0.00000000000E+00  0.57554802393E+03  0.57554802393E+03  0.25500000000E-02 0.  1.
         -2   -1    0    0    0  501 -0.00000000000E+00 -0.00000000000E+00 -0.16035624636E+02  0.16035624838E+02  0.25500000000E-02 0. -1.
    5000001    1    1    2    0    0 -0.55166421352E+02 -0.14234188812E+02  0.25706245657E+03  0.27432836666E+03  0.77000000000E+02 0.  0.
   -5000001    1    1    2    0    0  0.55166421352E+02  0.14234188812E+02  0.30244994272E+03  0.31725528211E+03  0.77000000000E+02 0.  0.
<mgrwt>
<rscale>  0 0.19213820E+03</rscale>
<asrwt>0</asrwt>
<pdfrwt beam="1">  1        2 0.88545853E-01 0.19213820E+03</pdfrwt>
<pdfrwt beam="2">  1       -2 0.24670191E-02 0.19213820E+03</pdfrwt>
<totfact> 0.29026555E+04</totfact>
</mgrwt>
</event>
<event>
 4    1  0.6122885E-004  0.2324963E+03  0.7818608E-02  0.1124895E+00
         -2   -1    0    0    0  501 -0.00000000000E+00  0.00000000000E+00  0.13573848892E+02  0.13573849132E+02  0.25500000000E-02 0. -1.
          2   -1    0    0  501    0  0.00000000000E+00 -0.00000000000E+00 -0.99556380049E+03  0.99556380049E+03  0.25500000000E-02 0.  1.
    5000001    1    1    2    0    0  0.49472242930E+02  0.30853344506E+02 -0.77179201215E+03  0.77781189352E+03  0.77000000000E+02 0.  0.
   -5000001    1    1    2    0    0 -0.49472242930E+02 -0.30853344506E+02 -0.21019793945E+03  0.23132575610E+03  0.77000000000E+02 0.  0.
<mgrwt>
<rscale>  0 0.23249630E+03</rscale>
<asrwt>0</asrwt>
<pdfrwt beam="1">  1        2 0.15316360E+00 0.23249630E+03</pdfrwt>
<pdfrwt beam="2">  1       -2 0.20882852E-02 0.23249630E+03</pdfrwt>
<totfact> 0.18944629E+04</totfact>
</mgrwt>
</event>
<event>
 4    1  0.6122885E-004  0.2500706E+03  0.7818608E-02  0.1113260E+00
          2   -1    0    0  501    0  0.00000000000E+00  0.00000000000E+00  0.17274483030E+03  0.17274483032E+03  0.25500000000E-02 0.  1.
         -2   -1    0    0    0  501 -0.00000000000E+00 -0.00000000000E+00 -0.90502417049E+02  0.90502417085E+02  0.25500000000E-02 0. -1.
    5000001    1    1    2    0    0  0.76257561247E+02  0.59550873498E+02  0.21616487184E+02  0.12553005497E+03  0.77000000000E+02 0.  0.
   -5000001    1    1    2    0    0 -0.76257561247E+02 -0.59550873498E+02  0.60625926070E+02  0.13771719244E+03  0.77000000000E+02 0.  0.
<mgrwt>
<rscale>  0 0.25007059E+03</rscale>
<asrwt>0</asrwt>
<pdfrwt beam="1">  1        2 0.26576128E-01 0.25007059E+03</pdfrwt>
<pdfrwt beam="2">  1       -2 0.13923449E-01 0.25007059E+03</pdfrwt>
<totfact> 0.76685834E+03</totfact>
</mgrwt>
</event>
<event>
 4    1  0.6122885E-004  0.2401088E+03  0.7818608E-02  0.1119720E+00
          2   -1    0    0  501    0  0.00000000000E+00  0.00000000000E+00  0.14433470800E+04  0.14433470800E+04  0.25500000000E-02 0.  1.
         -2   -1    0    0    0  501 -0.00000000000E+00 -0.00000000000E+00 -0.99858610307E+01  0.99858613563E+01  0.25500000000E-02 0. -1.
    5000001    1    1    2    0    0  0.83947340540E+02  0.34290416744E+02  0.61888045095E+03  0.63021028335E+03  0.77000000000E+02 0.  0.
   -5000001    1    1    2    0    0 -0.83947340540E+02 -0.34290416744E+02  0.81448076805E+03  0.82312265804E+03  0.77000000000E+02 0.  0.
<mgrwt>
<rscale>  0 0.24010884E+03</rscale>
<asrwt>0</asrwt>
<pdfrwt beam="1">  1        2 0.22205339E+00 0.24010884E+03</pdfrwt>
<pdfrwt beam="2">  1       -2 0.15362864E-02 0.24010884E+03</pdfrwt>
<totfact> 0.16584866E+04</totfact>
</mgrwt>
</event>
<event>
 4    1  0.6122885E-004  0.1956973E+03  0.7818608E-02  0.1153421E+00
         -2   -1    0    0    0  501 -0.00000000000E+00  0.00000000000E+00  0.81579446407E+03  0.81579446407E+03  0.25500000000E-02 0. -1.
          2   -1    0    0  501    0  0.00000000000E+00 -0.00000000000E+00 -0.11736239970E+02  0.11736240247E+02  0.25500000000E-02 0.  1.
    5000001    1    1    2    0    0 -0.40455590259E+02 -0.10853118611E+02  0.58590942117E+03  0.59242999146E+03  0.77000000000E+02 0.  0.
   -5000001    1    1    2    0    0  0.40455590259E+02  0.10853118611E+02  0.21814880292E+03  0.23510071285E+03  0.77000000000E+02 0.  0.
<mgrwt>
<rscale>  0 0.19569731E+03</rscale>
<asrwt>0</asrwt>
<pdfrwt beam="1">  1        2 0.18055757E-02 0.19569731E+03</pdfrwt>
<pdfrwt beam="2">  1       -2 0.12550682E+00 0.19569731E+03</pdfrwt>
<totfact> 0.30738645E+03</totfact>
</mgrwt>
</event>
<event>
 4    1  0.6122885E-004  0.2436253E+03  0.7818608E-02  0.1117401E+00
          2   -1    0    0  501    0  0.00000000000E+00  0.00000000000E+00  0.70006540941E+03  0.70006540942E+03  0.25500000000E-02 0.  1.
         -2   -1    0    0    0  501 -0.00000000000E+00 -0.00000000000E+00 -0.21195616685E+02  0.21195616838E+02  0.25500000000E-02 0. -1.
    5000001    1    1    2    0    0  0.74630355221E+02  0.20176933459E+02  0.49975596165E+03  0.51152890414E+03  0.77000000000E+02 0.  0.
   -5000001    1    1    2    0    0 -0.74630355221E+02 -0.20176933459E+02  0.17911383108E+03  0.20973212212E+03  0.77000000000E+02 0.  0.
<mgrwt>
<rscale>  0 0.24362527E+03</rscale>
<asrwt>0</asrwt>
<pdfrwt beam="1">  1        2 0.10770236E+00 0.24362527E+03</pdfrwt>
<pdfrwt beam="2">  1       -2 0.32608646E-02 0.24362527E+03</pdfrwt>
<totfact> 0.15500569E+04</totfact>
</mgrwt>
</event>
<event>
 4    1  0.6122885E-004  0.4525493E+03  0.7818608E-02  0.1026965E+00
          2   -1    0    0  501    0  0.00000000000E+00  0.00000000000E+00  0.19330200063E+03  0.19330200064E+03  0.25500000000E-02 0.  1.
         -2   -1    0    0    0  501 -0.00000000000E+00 -0.00000000000E+00 -0.26487164086E+03  0.26487164088E+03  0.25500000000E-02 0. -1.
    5000001    1    1    2    0    0 -0.13687137839E+03  0.12964135590E+03  0.64084749365E+02  0.21348655808E+03  0.77000000000E+02 0.  0.
   -5000001    1    1    2    0    0  0.13687137839E+03 -0.12964135590E+03 -0.13565438960E+03  0.24468708343E+03  0.77000000000E+02 0.  0.
<mgrwt>
<rscale>  0 0.45254930E+03</rscale>
<asrwt>0</asrwt>
<pdfrwt beam="1">  1        2 0.29738769E-01 0.45254930E+03</pdfrwt>
<pdfrwt beam="2">  1       -2 0.40749483E-01 0.45254930E+03</pdfrwt>
<totfact> 0.10253197E+03</totfact>
</mgrwt>
</event>
<event>
 4    1  0.6122885E-004  0.2224363E+03  0.7818608E-02  0.1132080E+00
         -2   -1    0    0    0  501 -0.00000000000E+00  0.00000000000E+00  0.59157533908E+02  0.59157533963E+02  0.25500000000E-02 0. -1.
          2   -1    0    0  501    0  0.00000000000E+00 -0.00000000000E+00 -0.20909387842E+03  0.20909387843E+03  0.25500000000E-02 0.  1.
    5000001    1    1    2    0    0 -0.18763450595E+02  0.76681166519E+02 -0.57558305933E+02  0.12439464200E+03  0.77000000000E+02 0.  0.
   -5000001    1    1    2    0    0  0.18763450595E+02 -0.76681166519E+02 -0.92378038574E+02  0.14385677039E+03  0.77000000000E+02 0.  0.
<mgrwt>
<rscale>  0 0.22243631E+03</rscale>
<asrwt>0</asrwt>
<pdfrwt beam="1">  1        2 0.32168288E-01 0.22243631E+03</pdfrwt>
<pdfrwt beam="2">  1       -2 0.91011592E-02 0.22243631E+03</pdfrwt>
<totfact> 0.12218158E+04</totfact>
</mgrwt>
</event>
<event>
 4    1  0.6122885E-004  0.3073147E+03  0.7818608E-02  0.1081640E+00
         -2   -1    0    0    0  501 -0.00000000000E+00  0.00000000000E+00  0.20495296104E+03  0.20495296106E+03  0.25500000000E-02 0. -1.
          2   -1    0    0  501    0  0.00000000000E+00 -0.00000000000E+00 -0.11520002501E+03  0.11520002504E+03  0.25500000000E-02 0.  1.
    5000001    1    1    2    0    0  0.10805005964E+03  0.77247290260E+02  0.51434443575E+02  0.16191498148E+03  0.77000000000E+02 0.  0.
   -5000001    1    1    2    0    0 -0.10805005964E+03 -0.77247290260E+02  0.38318492460E+02  0.15823800462E+03  0.77000000000E+02 0.  0.
<mgrwt>
<rscale>  0 0.30731473E+03</rscale>
<asrwt>0</asrwt>
<pdfrwt beam="1">  1        2 0.17723081E-01 0.30731473E+03</pdfrwt>
<pdfrwt beam="2">  1       -2 0.31531225E-01 0.30731473E+03</pdfrwt>
<totfact> 0.29835450E+03</totfact>
</mgrwt>
</event>
<event>
 4    1  0.6122885E-004  0.2633646E+03  0.7818608E-02  0.1105138E+00
         -2   -1    0    0    0  501 -0.00000000000E+00  0.00000000000E+00  0.44713073670E+02  0.44713073743E+02  0.25500000000E-02 0. -1.
          2   -1    0    0  501    0  0.00000000000E+00 -0.00000000000E+00 -0.38781107341E+03  0.38781107342E+03  0.25500000000E-02 0.  1.
    5000001    1    1    2    0    0 -0.10522632105E+03  0.17935923001E+02 -0.16478775296E+03  0.21089874229E+03  0.77000000000E+02 0.  0.
   -5000001    1    1    2    0    0  0.10522632105E+03 -0.17935923001E+02 -0.17831024678E+03  0.22162540487E+03  0.77000000000E+02 0.  0.
<mgrwt>
<rscale>  0 0.26336458E+03</rscale>
<asrwt>0</asrwt>
<pdfrwt beam="1">  1        2 0.59663240E-01 0.26336458E+03</pdfrwt>
<pdfrwt beam="2">  1       -2 0.68789347E-02 0.26336458E+03</pdfrwt>
<totfact> 0.97970202E+03</totfact>
</mgrwt>
</event>
<event>
 4    1  0.6122885E-004  0.2656772E+03  0.7818608E-02  0.1103779E+00
          2   -1    0    0  501    0  0.00000000000E+00  0.00000000000E+00  0.19606634517E+04  0.19606634517E+04  0.25500000000E-02 0.  1.
         -2   -1    0    0    0  501 -0.00000000000E+00 -0.00000000000E+00 -0.90000623849E+01  0.90000627462E+01  0.25500000000E-02 0. -1.
    5000001    1    1    2    0    0  0.28035575043E+02 -0.10429116875E+03  0.92112427503E+03  0.93062429121E+03  0.77000000000E+02 0.  0.
   -5000001    1    1    2    0    0 -0.28035575043E+02  0.10429116875E+03  0.10305391143E+04  0.10390392233E+04  0.77000000000E+02 0.  0.
<mgrwt>
<rscale>  0 0.26567720E+03</rscale>
<asrwt>0</asrwt>
<pdfrwt beam="1">  1        2 0.30164059E+00 0.26567720E+03</pdfrwt>
<pdfrwt beam="2">  1       -2 0.13846247E-02 0.26567720E+03</pdfrwt>
<totfact> 0.10329549E+04</totfact>
</mgrwt>
</event>
<event>
 4    1  0.6122885E-004  0.1895126E+03  0.7818608E-02  0.1158902E+00
         -2   -1    0    0    0  501 -0.00000000000E+00  0.00000000000E+00  0.62356456233E+02  0.62356456285E+02  0.25500000000E-02 0. -1.
          2   -1    0    0  501    0  0.00000000000E+00 -0.00000000000E+00 -0.14399074989E+03  0.14399074991E+03  0.25500000000E-02 0.  1.
    5000001    1    1    2    0    0 -0.32615113897E+02  0.44397672279E+02 -0.45013591074E+02  0.10483378434E+03  0.77000000000E+02 0.  0.
   -5000001    1    1    2    0    0  0.32615113897E+02 -0.44397672279E+02 -0.36620702579E+02  0.10151342185E+03  0.77000000000E+02 0.  0.
<mgrwt>
<rscale>  0 0.18951256E+03</rscale>
<asrwt>0</asrwt>
<pdfrwt beam="1">  1        2 0.22152423E-01 0.18951256E+03</pdfrwt>
<pdfrwt beam="2">  1       -2 0.95933010E-02 0.18951256E+03</pdfrwt>
<totfact> 0.16800223E+04</totfact>
</mgrwt>
</event>
<event>
 4    1  0.6122885E-004  0.2414876E+03  0.7818608E-02  0.1118806E+00
          2   -1    0    0  501    0  0.00000000000E+00  0.00000000000E+00  0.69413965705E+02  0.69413965752E+02  0.25500000000E-02 0.  1.
         -2   -1    0    0    0  501 -0.00000000000E+00 -0.00000000000E+00 -0.21003075437E+03  0.21003075439E+03  0.25500000000E-02 0. -1.
    5000001    1    1    2    0    0 -0.42468480019E+02 -0.72501984362E+02 -0.11645012418E+03  0.16294091246E+03  0.77000000000E+02 0.  0.
   -5000001    1    1    2    0    0  0.42468480019E+02  0.72501984362E+02 -0.24166664488E+02  0.11650380768E+03  0.77000000000E+02 0.  0.
<mgrwt>
<rscale>  0 0.24148762E+03</rscale>
<asrwt>0</asrwt>
<pdfrwt beam="1">  1        2 0.10679072E-01 0.24148762E+03</pdfrwt>
<pdfrwt beam="2">  1       -2 0.32312423E-01 0.24148762E+03</pdfrwt>
<totfact> 0.51925385E+03</totfact>
</mgrwt>
</event>
<event>
 4    1  0.6122885E-004  0.2485714E+03  0.7818608E-02  0.1114211E+00
          2   -1    0    0  501    0  0.00000000000E+00  0.00000000000E+00  0.11035735804E+04  0.11035735804E+04  0.25500000000E-02 0.  1.
         -2   -1    0    0    0  501 -0.00000000000E+00 -0.00000000000E+00 -0.13997200478E+02  0.13997200710E+02  0.25500000000E-02 0. -1.
    5000001    1    1    2    0    0 -0.84724691916E+02  0.28243170472E+02  0.36823942796E+03  0.38665905705E+03  0.77000000000E+02 0.  0.
   -5000001    1    1    2    0    0  0.84724691916E+02 -0.28243170472E+02  0.72133695199E+03  0.73091172408E+03  0.77000000000E+02 0.  0.
<mgrwt>
<rscale>  0 0.24857144E+03</rscale>
<asrwt>0</asrwt>
<pdfrwt beam="1">  1        2 0.16978053E+00 0.24857144E+03</pdfrwt>
<pdfrwt beam="2">  1       -2 0.21534158E-02 0.24857144E+03</pdfrwt>
<totfact> 0.15656449E+04</totfact>
</mgrwt>
</event>
<event>
 4    1  0.6122885E-004  0.4703895E+03  0.7818608E-02  0.1021810E+00
          2   -1    0    0  501    0  0.00000000000E+00  0.00000000000E+00  0.83017231055E+03  0.83017231055E+03  0.25500000000E-02 0.  1.
         -2   -1    0    0    0  501 -0.00000000000E+00 -0.00000000000E+00 -0.66632638309E+02  0.66632638358E+02  0.25500000000E-02 0. -1.
    5000001    1    1    2    0    0 -0.14795596224E+03 -0.71610264156E+01  0.69761523667E+03  0.71731322690E+03  0.77000000000E+02 0.  0.
   -5000001    1    1    2    0    0  0.14795596224E+03  0.71610264156E+01  0.65924435570E+02  0.17949172200E+03  0.77000000000E+02 0.  0.
<mgrwt>
<rscale>  0 0.47038950E+03</rscale>
<asrwt>0</asrwt>
<pdfrwt beam="1">  1        2 0.12771882E+00 0.47038950E+03</pdfrwt>
<pdfrwt beam="2">  1       -2 0.10251175E-01 0.47038950E+03</pdfrwt>
<totfact> 0.21630725E+03</totfact>
</mgrwt>
</event>
<event>
 4    1  0.6122885E-004  0.1966574E+03  0.7818608E-02  0.1152590E+00
         -2   -1    0    0    0  501 -0.00000000000E+00  0.00000000000E+00  0.59213643689E+01  0.59213649179E+01  0.25500000000E-02 0. -1.
          2   -1    0    0  501    0  0.00000000000E+00 -0.00000000000E+00 -0.16328226208E+04  0.16328226208E+04  0.25500000000E-02 0.  1.
    5000001    1    1    2    0    0 -0.23803778266E+02 -0.41789631504E+02 -0.49871678684E+03  0.50691264202E+03  0.77000000000E+02 0.  0.
   -5000001    1    1    2    0    0  0.23803778266E+02  0.41789631504E+02 -0.11281844696E+04  0.11318313437E+04  0.77000000000E+02 0.  0.
<mgrwt>
<rscale>  0 0.19665745E+03</rscale>
<asrwt>0</asrwt>
<pdfrwt beam="1">  1        2 0.25120312E+00 0.19665745E+03</pdfrwt>
<pdfrwt beam="2">  1       -2 0.91098048E-03 0.19665745E+03</pdfrwt>
<totfact> 0.27828929E+04</totfact>
</mgrwt>
</event>
<event>
 4    1  0.6122885E-004  0.2419215E+03  0.7818608E-02  0.1118519E+00
         -2   -1    0    0    0  501 -0.00000000000E+00  0.00000000000E+00  0.21463249478E+03  0.21463249480E+03  0.25500000000E-02 0. -1.
          2   -1    0    0  501    0  0.00000000000E+00 -0.00000000000E+00 -0.68170019952E+02  0.68170020000E+02  0.25500000000E-02 0.  1.
    5000001    1    1    2    0    0 -0.78913002948E+02 -0.20524093949E+01  0.13134079554E+03  0.17149600284E+03  0.77000000000E+02 0.  0.
   -5000001    1    1    2    0    0  0.78913002948E+02  0.20524093949E+01  0.15121679292E+02  0.11130651195E+03  0.77000000000E+02 0.  0.
<mgrwt>
<rscale>  0 0.24192149E+03</rscale>
<asrwt>0</asrwt>
<pdfrwt beam="1">  1        2 0.10487696E-01 0.24192149E+03</pdfrwt>
<pdfrwt beam="2">  1       -2 0.33020383E-01 0.24192149E+03</pdfrwt>
<totfact> 0.51024679E+03</totfact>
</mgrwt>
</event>
<event>
 4    1  0.6122885E-004  0.4552459E+03  0.7818608E-02  0.1026169E+00
          2   -1    0    0  501    0  0.00000000000E+00  0.00000000000E+00  0.18909985394E+04  0.18909985394E+04  0.25500000000E-02 0.  1.
         -2   -1    0    0    0  501 -0.00000000000E+00 -0.00000000000E+00 -0.27399395038E+02  0.27399395156E+02  0.25500000000E-02 0. -1.
    5000001    1    1    2    0    0  0.64284466557E+02 -0.20052012477E+03  0.76630202787E+03  0.79842883903E+03  0.77000000000E+02 0.  0.
   -5000001    1    1    2    0    0 -0.64284466557E+02  0.20052012477E+03  0.10972971165E+04  0.11199690956E+04  0.77000000000E+02 0.  0.
<mgrwt>
<rscale>  0 0.45524594E+03</rscale>
<asrwt>0</asrwt>
<pdfrwt beam="1">  1        2 0.29092305E+00 0.45524594E+03</pdfrwt>
<pdfrwt beam="2">  1       -2 0.42152886E-02 0.45524594E+03</pdfrwt>
<totfact> 0.21334978E+03</totfact>
</mgrwt>
</event>
<event>
 4    1  0.6122885E-004  0.3847734E+03  0.7818608E-02  0.1049183E+00
          2   -1    0    0  501    0  0.00000000000E+00  0.00000000000E+00  0.43779039421E+03  0.43779039421E+03  0.25500000000E-02 0.  1.
         -2   -1    0    0    0  501 -0.00000000000E+00 -0.00000000000E+00 -0.84544207979E+02  0.84544208017E+02  0.25500000000E-02 0. -1.
    5000001    1    1    2    0    0 -0.10716909708E+03 -0.89456294292E+00  0.36666330046E+03  0.38968832612E+03  0.77000000000E+02 0.  0.
   -5000001    1    1    2    0    0  0.10716909708E+03  0.89456294292E+00 -0.13417114231E+02  0.13264627611E+03  0.77000000000E+02 0.  0.
<mgrwt>
<rscale>  0 0.38477340E+03</rscale>
<asrwt>0</asrwt>
<pdfrwt beam="1">  1        2 0.67352368E-01 0.38477340E+03</pdfrwt>
<pdfrwt beam="2">  1       -2 0.13006801E-01 0.38477340E+03</pdfrwt>
<totfact> 0.31484093E+03</totfact>
</mgrwt>
</event>
<event>
 4    1  0.6122885E-004  0.2254169E+03  0.7818608E-02  0.1129908E+00
          2   -1    0    0  501    0  0.00000000000E+00  0.00000000000E+00  0.34581318188E+03  0.34581318189E+03  0.25500000000E-02 0.  1.
         -2   -1    0    0    0  501 -0.00000000000E+00 -0.00000000000E+00 -0.36734267762E+02  0.36734267850E+02  0.25500000000E-02 0. -1.
    5000001    1    1    2    0    0 -0.32132663149E+02 -0.10883546972E+02  0.28179946415E+03  0.29409334850E+03  0.77000000000E+02 0.  0.
   -5000001    1    1    2    0    0  0.32132663149E+02  0.10883546972E+02  0.27279449967E+02  0.88454101240E+02  0.77000000000E+02 0.  0.
<mgrwt>
<rscale>  0 0.22541689E+03</rscale>
<asrwt>0</asrwt>
<pdfrwt beam="1">  1        2 0.53202028E-01 0.22541689E+03</pdfrwt>
<pdfrwt beam="2">  1       -2 0.56514258E-02 0.22541689E+03</pdfrwt>
<totfact> 0.14872391E+04</totfact>
</mgrwt>
</event>
<event>
 4    1  0.6122885E-004  0.4030095E+03  0.7818608E-02  0.1042743E+00
          2   -1    0    0  501    0  0.00000000000E+00  0.00000000000E+00  0.13250711603E+03  0.13250711606E+03  0.25500000000E-02 0.  1.
         -2   -1    0    0    0  501 -0.00000000000E+00 -0.00000000000E+00 -0.30643000366E+03  0.30643000367E+03  0.25500000000E-02 0. -1.
    5000001    1    1    2    0    0  0.98601897406E+02 -0.15728417811E+03 -0.71009631370E+02  0.21314787027E+03  0.77000000000E+02 0.  0.
   -5000001    1    1    2    0    0 -0.98601897406E+02  0.15728417811E+03 -0.10291325626E+03  0.22578924945E+03  0.77000000000E+02 0.  0.
<mgrwt>
<rscale>  0 0.40300946E+03</rscale>
<asrwt>0</asrwt>
<pdfrwt beam="1">  1        2 0.20385710E-01 0.40300946E+03</pdfrwt>
<pdfrwt beam="2">  1       -2 0.47143077E-01 0.40300946E+03</pdfrwt>
<totfact> 0.11819088E+03</totfact>
</mgrwt>
</event>
<event>
 4    1  0.6122885E-004  0.2261245E+03  0.7818608E-02  0.1129398E+00
          2   -1    0    0  501    0  0.00000000000E+00  0.00000000000E+00  0.10903577849E+04  0.10903577849E+04  0.25500000000E-02 0.  1.
         -2   -1    0    0    0  501 -0.00000000000E+00 -0.00000000000E+00 -0.11723741458E+02  0.11723741735E+02  0.25500000000E-02 0. -1.
    5000001    1    1    2    0    0 -0.40271156969E+02 -0.72015688866E+02  0.57238964375E+03  0.58340974435E+03  0.77000000000E+02 0.  0.
   -5000001    1    1    2    0    0  0.40271156969E+02  0.72015688866E+02  0.50624439970E+03  0.51867178230E+03  0.77000000000E+02 0.  0.
<mgrwt>
<rscale>  0 0.22612450E+03</rscale>
<asrwt>0</asrwt>
<pdfrwt beam="1">  1        2 0.16774736E+00 0.22612450E+03</pdfrwt>
<pdfrwt beam="2">  1       -2 0.18036525E-02 0.22612450E+03</pdfrwt>
<totfact> 0.20580628E+04</totfact>
</mgrwt>
</event>
<event>
 4    1  0.6122885E-004  0.3326436E+03  0.7818608E-02  0.1069973E+00
         -2   -1    0    0    0  501 -0.00000000000E+00  0.00000000000E+00  0.18289086136E+02  0.18289086314E+02  0.25500000000E-02 0. -1.
          2   -1    0    0  501    0  0.00000000000E+00 -0.00000000000E+00 -0.15125382550E+04  0.15125382550E+04  0.25500000000E-02 0.  1.
    5000001    1    1    2    0    0 -0.13236528278E+03  0.42927884647E+02 -0.97118932972E+03  0.98412452744E+03  0.77000000000E+02 0.  0.
   -5000001    1    1    2    0    0  0.13236528278E+03 -0.42927884647E+02 -0.52305983918E+03  0.54670281390E+03  0.77000000000E+02 0.  0.
<mgrwt>
<rscale>  0 0.33264361E+03</rscale>
<asrwt>0</asrwt>
<pdfrwt beam="1">  1        2 0.23269809E+00 0.33264361E+03</pdfrwt>
<pdfrwt beam="2">  1       -2 0.28137068E-02 0.33264361E+03</pdfrwt>
<totfact> 0.62779854E+03</totfact>
</mgrwt>
</event>
<event>
 4    1  0.6122885E-004  0.2025127E+03  0.7818608E-02  0.1147636E+00
         -2   -1    0    0    0  501 -0.00000000000E+00  0.00000000000E+00  0.37653171929E+03  0.37653171930E+03  0.25500000000E-02 0. -1.
          2   -1    0    0  501    0  0.00000000000E+00 -0.00000000000E+00 -0.27229697864E+02  0.27229697983E+02  0.25500000000E-02 0.  1.
    5000001    1    1    2    0    0  0.92456606945E+01  0.56753985758E+02  0.11105829701E+03  0.14686538897E+03  0.77000000000E+02 0.  0.
   -5000001    1    1    2    0    0 -0.92456606945E+01 -0.56753985758E+02  0.23824372441E+03  0.25689602831E+03  0.77000000000E+02 0.  0.
<mgrwt>
<rscale>  0 0.20251267E+03</rscale>
<asrwt>0</asrwt>
<pdfrwt beam="1">  1        2 0.41891848E-02 0.20251267E+03</pdfrwt>
<pdfrwt beam="2">  1       -2 0.57927949E-01 0.20251267E+03</pdfrwt>
<totfact> 0.55308499E+03</totfact>
</mgrwt>
</event>
<event>
 4    1  0.6122885E-004  0.2644442E+03  0.7818608E-02  0.1104502E+00
          2   -1    0    0  501    0  0.00000000000E+00  0.00000000000E+00  0.21511422146E+03  0.21511422147E+03  0.25500000000E-02 0.  1.
         -2   -1    0    0    0  501 -0.00000000000E+00 -0.00000000000E+00 -0.81271607230E+02  0.81271607270E+02  0.25500000000E-02 0. -1.
    5000001    1    1    2    0    0  0.10417828712E+03  0.10697745575E+02  0.39787096674E+02  0.13593958338E+03  0.77000000000E+02 0.  0.
   -5000001    1    1    2    0    0 -0.10417828712E+03 -0.10697745575E+02  0.94055517551E+02  0.16044624536E+03  0.77000000000E+02 0.  0.
<mgrwt>
<rscale>  0 0.26444416E+03</rscale>
<asrwt>0</asrwt>
<pdfrwt beam="1">  1        2 0.33094495E-01 0.26444416E+03</pdfrwt>
<pdfrwt beam="2">  1       -2 0.12503324E-01 0.26444416E+03</pdfrwt>
<totfact> 0.71987655E+03</totfact>
</mgrwt>
</event>
<event>
 4    1  0.6122885E-004  0.2094936E+03  0.7818608E-02  0.1141968E+00
          2   -1    0    0  501    0  0.00000000000E+00  0.00000000000E+00  0.69163914890E+03  0.69163914890E+03  0.25500000000E-02 0.  1.
         -2   -1    0    0    0  501 -0.00000000000E+00 -0.00000000000E+00 -0.15863603297E+02  0.15863603502E+02  0.25500000000E-02 0. -1.
    5000001    1    1    2    0    0 -0.61497434594E+02 -0.10450037577E+02  0.45250154557E+03  0.46322541650E+03  0.77000000000E+02 0.  0.
   -5000001    1    1    2    0    0  0.61497434594E+02  0.10450037577E+02  0.22327400003E+03  0.24427733590E+03  0.77000000000E+02 0.  0.
<mgrwt>
<rscale>  0 0.20949357E+03</rscale>
<asrwt>0</asrwt>
<pdfrwt beam="1">  1        2 0.10640603E+00 0.20949357E+03</pdfrwt>
<pdfrwt beam="2">  1       -2 0.24405543E-02 0.20949357E+03</pdfrwt>
<totfact> 0.23943758E+04</totfact>
</mgrwt>
</event>
<event>
 4    1  0.6122885E-004  0.2312676E+03  0.7818608E-02  0.1125751E+00
         -2   -1    0    0    0  501 -0.00000000000E+00  0.00000000000E+00  0.16342999989E+03  0.16342999991E+03  0.25500000000E-02 0. -1.
          2   -1    0    0  501    0  0.00000000000E+00 -0.00000000000E+00 -0.81815920675E+02  0.81815920715E+02  0.25500000000E-02 0.  1.
    5000001    1    1    2    0    0  0.61503626536E+02  0.59484031694E+02  0.29135920162E+02  0.11873899085E+03  0.77000000000E+02 0.  0.
   -5000001    1    1    2    0    0 -0.61503626536E+02 -0.59484031694E+02  0.52478159051E+02  0.12650692977E+03  0.77000000000E+02 0.  0.
<mgrwt>
<rscale>  0 0.23126760E+03</rscale>
<asrwt>0</asrwt>
<pdfrwt beam="1">  1        2 0.12587065E-01 0.23126760E+03</pdfrwt>
<pdfrwt beam="2">  1       -2 0.25143077E-01 0.23126760E+03</pdfrwt>
<totfact> 0.66579808E+03</totfact>
</mgrwt>
</event>
<event>
 4    1  0.6122885E-004  0.2828924E+03  0.7818608E-02  0.1094120E+00
         -2   -1    0    0    0  501 -0.00000000000E+00  0.00000000000E+00  0.19114582087E+03  0.19114582088E+03  0.25500000000E-02 0. -1.
          2   -1    0    0  501    0  0.00000000000E+00 -0.00000000000E+00 -0.10466889952E+03  0.10466889955E+03  0.25500000000E-02 0.  1.
    5000001    1    1    2    0    0  0.96918243676E+02  0.68370676508E+02  0.46598878341E+02  0.14888972707E+03  0.77000000000E+02 0.  0.
   -5000001    1    1    2    0    0 -0.96918243676E+02 -0.68370676508E+02  0.39878043003E+02  0.14692499337E+03  0.77000000000E+02 0.  0.
<mgrwt>
<rscale>  0 0.28289237E+03</rscale>
<asrwt>0</asrwt>
<pdfrwt beam="1">  1        2 0.16102908E-01 0.28289237E+03</pdfrwt>
<pdfrwt beam="2">  1       -2 0.29407049E-01 0.28289237E+03</pdfrwt>
<totfact> 0.37826241E+03</totfact>
</mgrwt>
</event>
<event>
 4    1  0.6122885E-004  0.2670941E+03  0.7818608E-02  0.1102954E+00
         -2   -1    0    0    0  501 -0.00000000000E+00  0.00000000000E+00  0.97751243678E+01  0.97751247004E+01  0.25500000000E-02 0. -1.
          2   -1    0    0  501    0  0.00000000000E+00 -0.00000000000E+00 -0.18245105704E+04  0.18245105704E+04  0.25500000000E-02 0.  1.
    5000001    1    1    2    0    0 -0.70442090179E+02 -0.79472081053E+02 -0.73527828570E+03  0.74688758000E+03  0.77000000000E+02 0.  0.
   -5000001    1    1    2    0    0  0.70442090179E+02  0.79472081053E+02 -0.10794571603E+04  0.10873981151E+04  0.77000000000E+02 0.  0.
<mgrwt>
<rscale>  0 0.26709413E+03</rscale>
<asrwt>0</asrwt>
<pdfrwt beam="1">  1        2 0.28069366E+00 0.26709413E+03</pdfrwt>
<pdfrwt beam="2">  1       -2 0.15038668E-02 0.26709413E+03</pdfrwt>
<totfact> 0.10792218E+04</totfact>
</mgrwt>
</event>
<event>
 4    1  0.6122885E-004  0.2666747E+03  0.7818608E-02  0.1103198E+00
         -2   -1    0    0    0  501 -0.00000000000E+00  0.00000000000E+00  0.12655964483E+04  0.12655964483E+04  0.25500000000E-02 0. -1.
          2   -1    0    0  501    0  0.00000000000E+00 -0.00000000000E+00 -0.14047800299E+02  0.14047800530E+02  0.25500000000E-02 0.  1.
    5000001    1    1    2    0    0  0.55205009625E+02 -0.74027234170E+02  0.34919368273E+03  0.36931402972E+03  0.77000000000E+02 0.  0.
   -5000001    1    1    2    0    0 -0.55205009625E+02  0.74027234170E+02  0.90235496523E+03  0.91033021907E+03  0.77000000000E+02 0.  0.
<mgrwt>
<rscale>  0 0.26667468E+03</rscale>
<asrwt>0</asrwt>
<pdfrwt beam="1">  1        2 0.21611990E-02 0.26667468E+03</pdfrwt>
<pdfrwt beam="2">  1       -2 0.19470725E+00 0.26667468E+03</pdfrwt>
<totfact> 0.76623049E+02</totfact>
</mgrwt>
</event>
<event>
 4    1  0.6122885E-004  0.3411486E+03  0.7818608E-02  0.1066308E+00
          2   -1    0    0  501    0  0.00000000000E+00  0.00000000000E+00  0.82494454161E+03  0.82494454161E+03  0.25500000000E-02 0.  1.
         -2   -1    0    0    0  501 -0.00000000000E+00 -0.00000000000E+00 -0.35269748238E+02  0.35269748330E+02  0.25500000000E-02 0. -1.
    5000001    1    1    2    0    0 -0.73386862549E+02 -0.67607177314E+02  0.10502417382E+03  0.16405925486E+03  0.77000000000E+02 0.  0.
   -5000001    1    1    2    0    0  0.73386862549E+02  0.67607177314E+02  0.68465061955E+03  0.69615503508E+03  0.77000000000E+02 0.  0.
<mgrwt>
<rscale>  0 0.34114857E+03</rscale>
<asrwt>0</asrwt>
<pdfrwt beam="1">  1        2 0.12691455E+00 0.34114857E+03</pdfrwt>
<pdfrwt beam="2">  1       -2 0.54261147E-02 0.34114857E+03</pdfrwt>
<totfact> 0.59127226E+03</totfact>
</mgrwt>
</event>
<event>
 4    1  0.6122885E-004  0.2006598E+03  0.7818608E-02  0.1149184E+00
         -2   -1    0    0    0  501 -0.00000000000E+00  0.00000000000E+00  0.27073418587E+02  0.27073418707E+02  0.25500000000E-02 0. -1.
          2   -1    0    0  501    0  0.00000000000E+00 -0.00000000000E+00 -0.37180714580E+03  0.37180714581E+03  0.25500000000E-02 0.  1.
    5000001    1    1    2    0    0 -0.15528490649E+02 -0.62417490376E+02 -0.17213682954E+03  0.19924147462E+03  0.77000000000E+02 0.  0.
   -5000001    1    1    2    0    0  0.15528490649E+02  0.62417490376E+02 -0.17259689768E+03  0.19963908990E+03  0.77000000000E+02 0.  0.
<mgrwt>
<rscale>  0 0.20065982E+03</rscale>
<asrwt>0</asrwt>
<pdfrwt beam="1">  1        2 0.57201096E-01 0.20065982E+03</pdfrwt>
<pdfrwt beam="2">  1       -2 0.41651416E-02 0.20065982E+03</pdfrwt>
<totfact> 0.21650823E+04</totfact>
</mgrwt>
</event>
<event>
 4    1  0.6122885E-004  0.2081626E+03  0.7818608E-02  0.1143029E+00
          2   -1    0    0  501    0  0.00000000000E+00  0.00000000000E+00  0.85079490142E+03  0.85079490143E+03  0.25500000000E-02 0.  1.
         -2   -1    0    0    0  501 -0.00000000000E+00 -0.00000000000E+00 -0.12732706610E+02  0.12732706866E+02  0.25500000000E-02 0. -1.
    5000001    1    1    2    0    0  0.67218274915E+02  0.57299637319E+01  0.34111388440E+03  0.35614436834E+03  0.77000000000E+02 0.  0.
   -5000001    1    1    2    0    0 -0.67218274915E+02 -0.57299637319E+01  0.49694831041E+03  0.50738323995E+03  0.77000000000E+02 0.  0.
<mgrwt>
<rscale>  0 0.20816265E+03</rscale>
<asrwt>0</asrwt>
<pdfrwt beam="1">  1        2 0.13089152E+00 0.20816265E+03</pdfrwt>
<pdfrwt beam="2">  1       -2 0.19588780E-02 0.20816265E+03</pdfrwt>
<totfact> 0.25539497E+04</totfact>
</mgrwt>
</event>
<event>
 4    1  0.6122885E-004  0.3069861E+03  0.7818608E-02  0.1081800E+00
         -2   -1    0    0    0  501 -0.00000000000E+00  0.00000000000E+00  0.52484531711E+02  0.52484531773E+02  0.25500000000E-02 0. -1.
          2   -1    0    0  501    0  0.00000000000E+00 -0.00000000000E+00 -0.44889624137E+03  0.44889624137E+03  0.25500000000E-02 0.  1.
    5000001    1    1    2    0    0 -0.76946001456E+01  0.61528224810E+02 -0.38997158562E+03  0.40230804977E+03  0.77000000000E+02 0.  0.
   -5000001    1    1    2    0    0  0.76946001456E+01 -0.61528224810E+02 -0.64401240358E+01  0.99072723377E+02  0.77000000000E+02 0.  0.
<mgrwt>
<rscale>  0 0.30698605E+03</rscale>
<asrwt>0</asrwt>
<pdfrwt beam="1">  1        2 0.69060958E-01 0.30698605E+03</pdfrwt>
<pdfrwt beam="2">  1       -2 0.80745436E-02 0.30698605E+03</pdfrwt>
<totfact> 0.65415529E+03</totfact>
</mgrwt>
</event>
<event>
 4    1  0.6122885E-004  0.3683204E+03  0.7818608E-02  0.1055337E+00
         -2   -1    0    0    0  501 -0.00000000000E+00  0.00000000000E+00  0.22221633452E+02  0.22221633598E+02  0.25500000000E-02 0. -1.
          2   -1    0    0  501    0  0.00000000000E+00 -0.00000000000E+00 -0.15262144100E+04  0.15262144100E+04  0.25500000000E-02 0.  1.
    5000001    1    1    2    0    0 -0.41824109064E+02 -0.14472619191E+03 -0.10577970829E+04  0.10712416138E+04  0.77000000000E+02 0.  0.
   -5000001    1    1    2    0    0  0.41824109064E+02  0.14472619191E+03 -0.44619569365E+03  0.47719442972E+03  0.77000000000E+02 0.  0.
<mgrwt>
<rscale>  0 0.36832039E+03</rscale>
<asrwt>0</asrwt>
<pdfrwt beam="1">  1        2 0.23480214E+00 0.36832039E+03</pdfrwt>
<pdfrwt beam="2">  1       -2 0.34187140E-02 0.36832039E+03</pdfrwt>
<totfact> 0.46097588E+03</totfact>
</mgrwt>
</event>
<event>
 4    1  0.6122885E-004  0.5851272E+03  0.7818608E-02  0.9936752E-01
          2   -1    0    0  501    0  0.00000000000E+00  0.00000000000E+00  0.90884605747E+03  0.90884605747E+03  0.25500000000E-02 0.  1.
         -2   -1    0    0    0  501 -0.00000000000E+00 -0.00000000000E+00 -0.94178166533E+02  0.94178166568E+02  0.25500000000E-02 0. -1.
    5000001    1    1    2    0    0 -0.14020453835E+03 -0.24401251742E+03  0.37036785129E+03  0.47148782222E+03  0.77000000000E+02 0.  0.
   -5000001    1    1    2    0    0  0.14020453835E+03  0.24401251742E+03  0.44430003964E+03  0.53153640182E+03  0.77000000000E+02 0.  0.
<mgrwt>
<rscale>  0 0.58512718E+03</rscale>
<asrwt>0</asrwt>
<pdfrwt beam="1">  1        2 0.13982247E+00 0.58512718E+03</pdfrwt>
<pdfrwt beam="2">  1       -2 0.14488949E-01 0.58512718E+03</pdfrwt>
<totfact> 0.10813996E+03</totfact>
</mgrwt>
</event>
<event>
 4    1  0.6122885E-004  0.2721515E+03  0.7818608E-02  0.1100055E+00
         -2   -1    0    0    0  501 -0.00000000000E+00  0.00000000000E+00  0.22514844715E+02  0.22514844860E+02  0.25500000000E-02 0. -1.
          2   -1    0    0  501    0  0.00000000000E+00 -0.00000000000E+00 -0.82241806914E+03  0.82241806914E+03  0.25500000000E-02 0.  1.
    5000001    1    1    2    0    0  0.36479596675E+02  0.10298169222E+03 -0.32069958277E+03  0.34743806973E+03  0.77000000000E+02 0.  0.
   -5000001    1    1    2    0    0 -0.36479596675E+02 -0.10298169222E+03 -0.47920364165E+03  0.49749484428E+03  0.77000000000E+02 0.  0.
<mgrwt>
<rscale>  0 0.27215154E+03</rscale>
<asrwt>0</asrwt>
<pdfrwt beam="1">  1        2 0.12652583E+00 0.27215154E+03</pdfrwt>
<pdfrwt beam="2">  1       -2 0.34638229E-02 0.27215154E+03</pdfrwt>
<totfact> 0.11642952E+04</totfact>
</mgrwt>
</event>
<event>
 4    1  0.6122885E-004  0.3366736E+03  0.7818608E-02  0.1068222E+00
         -2   -1    0    0    0  501 -0.00000000000E+00  0.00000000000E+00  0.14721763983E+02  0.14721764204E+02  0.25500000000E-02 0. -1.
          2   -1    0    0  501    0  0.00000000000E+00 -0.00000000000E+00 -0.19248556938E+04  0.19248556938E+04  0.25500000000E-02 0.  1.
    5000001    1    1    2    0    0 -0.41504426099E+02  0.10642726366E+03 -0.39773965343E+03  0.42092185943E+03  0.77000000000E+02 0.  0.
   -5000001    1    1    2    0    0  0.41504426099E+02 -0.10642726366E+03 -0.15123942764E+04  0.15186555986E+04  0.77000000000E+02 0.  0.
<mgrwt>
<rscale>  0 0.33667356E+03</rscale>
<asrwt>0</asrwt>
<pdfrwt beam="1">  1        2 0.29613145E+00 0.33667356E+03</pdfrwt>
<pdfrwt beam="2">  1       -2 0.22648883E-02 0.33667356E+03</pdfrwt>
<totfact> 0.52353992E+03</totfact>
</mgrwt>
</event>
<event>
 4    1  0.6122885E-004  0.2213799E+03  0.7818608E-02  0.1132858E+00
         -2   -1    0    0    0  501 -0.00000000000E+00  0.00000000000E+00  0.10135162088E+02  0.10135162409E+02  0.25500000000E-02 0. -1.
          2   -1    0    0  501    0  0.00000000000E+00 -0.00000000000E+00 -0.12088868232E+04  0.12088868232E+04  0.25500000000E-02 0.  1.
    5000001    1    1    2    0    0  0.68858752645E+02 -0.11831383937E+02 -0.80845898625E+03  0.81511744056E+03  0.77000000000E+02 0.  0.
   -5000001    1    1    2    0    0 -0.68858752645E+02  0.11831383937E+02 -0.39029267490E+03  0.40390454509E+03  0.77000000000E+02 0.  0.
<mgrwt>
<rscale>  0 0.22137989E+03</rscale>
<asrwt>0</asrwt>
<pdfrwt beam="1">  1        2 0.18598247E+00 0.22137989E+03</pdfrwt>
<pdfrwt beam="2">  1       -2 0.15592567E-02 0.22137989E+03</pdfrwt>
<totfact> 0.21742077E+04</totfact>
</mgrwt>
</event>
<event>
 4    1  0.6122885E-004  0.2156399E+03  0.7818608E-02  0.1137176E+00
         -2   -1    0    0    0  501 -0.00000000000E+00  0.00000000000E+00  0.64544034094E+01  0.64544039132E+01  0.25500000000E-02 0. -1.
          2   -1    0    0  501    0  0.00000000000E+00 -0.00000000000E+00 -0.18011171429E+04  0.18011171429E+04  0.25500000000E-02 0.  1.
    5000001    1    1    2    0    0  0.43882069887E+02 -0.34391110727E+02 -0.13237418109E+04  0.13271509961E+04  0.77000000000E+02 0.  0.
   -5000001    1    1    2    0    0 -0.43882069887E+02  0.34391110727E+02 -0.47092092864E+03  0.48042055075E+03  0.77000000000E+02 0.  0.
<mgrwt>
<rscale>  0 0.21563986E+03</rscale>
<asrwt>0</asrwt>
<pdfrwt beam="1">  1        2 0.27709454E+00 0.21563986E+03</pdfrwt>
<pdfrwt beam="2">  1       -2 0.99298662E-03 0.21563986E+03</pdfrwt>
<totfact> 0.20168647E+04</totfact>
</mgrwt>
</event>
<event>
 4    1  0.6122885E-004  0.2314300E+03  0.7818608E-02  0.1125637E+00
          2   -1    0    0  501    0  0.00000000000E+00  0.00000000000E+00  0.19481123320E+04  0.19481123320E+04  0.25500000000E-02 0.  1.
         -2   -1    0    0    0  501 -0.00000000000E+00 -0.00000000000E+00 -0.68732974436E+01  0.68732979166E+01  0.25500000000E-02 0. -1.
    5000001    1    1    2    0    0 -0.69451271439E+02  0.51314093519E+02  0.98821911496E+03  0.99496866004E+03  0.77000000000E+02 0.  0.
   -5000001    1    1    2    0    0  0.69451271439E+02 -0.51314093519E+02  0.95301991958E+03  0.96001696985E+03  0.77000000000E+02 0.  0.
<mgrwt>
<rscale>  0 0.23142995E+03</rscale>
<asrwt>0</asrwt>
<pdfrwt beam="1">  1        2 0.29970985E+00 0.23142995E+03</pdfrwt>
<pdfrwt beam="2">  1       -2 0.10574295E-02 0.23142995E+03</pdfrwt>
<totfact> 0.15473812E+04</totfact>
</mgrwt>
</event>
<event>
 4    1  0.6122885E-004  0.1688973E+03  0.7818608E-02  0.1179003E+00
          2   -1    0    0  501    0  0.00000000000E+00  0.00000000000E+00  0.73973856443E+03  0.73973856444E+03  0.25500000000E-02 0.  1.
         -2   -1    0    0    0  501 -0.00000000000E+00 -0.00000000000E+00 -0.96406698343E+01  0.96406701715E+01  0.25500000000E-02 0. -1.
    5000001    1    1    2    0    0  0.30253821986E+02 -0.16879370590E+02  0.37187728777E+03  0.38134226628E+03  0.77000000000E+02 0.  0.
   -5000001    1    1    2    0    0 -0.30253821986E+02  0.16879370590E+02  0.35822060683E+03  0.36803696833E+03  0.77000000000E+02 0.  0.
<mgrwt>
<rscale>  0 0.16889731E+03</rscale>
<asrwt>0</asrwt>
<pdfrwt beam="1">  1        2 0.11380595E+00 0.16889731E+03</pdfrwt>
<pdfrwt beam="2">  1       -2 0.14831798E-02 0.16889731E+03</pdfrwt>
<totfact> 0.44896405E+04</totfact>
</mgrwt>
</event>
<event>
 4    1  0.6122885E-004  0.2595219E+03  0.7818608E-02  0.1107431E+00
          2   -1    0    0  501    0  0.00000000000E+00  0.00000000000E+00  0.50311124387E+03  0.50311124388E+03  0.25500000000E-02 0.  1.
         -2   -1    0    0    0  501 -0.00000000000E+00 -0.00000000000E+00 -0.33467561356E+02  0.33467561453E+02  0.25500000000E-02 0. -1.
    5000001    1    1    2    0    0  0.83241569111E+02  0.19182371732E+02  0.11056498215E+03  0.15953287276E+03  0.77000000000E+02 0.  0.
   -5000001    1    1    2    0    0 -0.83241569111E+02 -0.19182371732E+02  0.35907870036E+03  0.37704593257E+03  0.77000000000E+02 0.  0.
<mgrwt>
<rscale>  0 0.25952192E+03</rscale>
<asrwt>0</asrwt>
<pdfrwt beam="1">  1        2 0.77401726E-01 0.25952192E+03</pdfrwt>
<pdfrwt beam="2">  1       -2 0.51488559E-02 0.25952192E+03</pdfrwt>
<totfact> 0.11467248E+04</totfact>
</mgrwt>
</event>
<event>
 4    1  0.6122885E-004  0.2796539E+03  0.7818608E-02  0.1095878E+00
          2   -1    0    0  501    0  0.00000000000E+00  0.00000000000E+00  0.49130156137E+03  0.49130156137E+03  0.25500000000E-02 0.  1.
         -2   -1    0    0    0  501 -0.00000000000E+00 -0.00000000000E+00 -0.39795480963E+02  0.39795481045E+02  0.25500000000E-02 0. -1.
    5000001    1    1    2    0    0 -0.27785541477E+02 -0.10993058314E+03  0.17319802451E+03  0.22086947530E+03  0.77000000000E+02 0.  0.
   -5000001    1    1    2    0    0  0.27785541477E+02  0.10993058314E+03  0.27830805590E+03  0.31022756712E+03  0.77000000000E+02 0.  0.
<mgrwt>
<rscale>  0 0.27965394E+03</rscale>
<asrwt>0</asrwt>
<pdfrwt beam="1">  1        2 0.75584858E-01 0.27965394E+03</pdfrwt>
<pdfrwt beam="2">  1       -2 0.61223815E-02 0.27965394E+03</pdfrwt>
<totfact> 0.90649600E+03</totfact>
</mgrwt>
</event>
<event>
 4    1  0.6122885E-004  0.2176854E+03  0.7818608E-02  0.1135621E+00
         -2   -1    0    0    0  501 -0.00000000000E+00  0.00000000000E+00  0.15541941590E+03  0.15541941592E+03  0.25500000000E-02 0. -1.
          2   -1    0    0  501    0  0.00000000000E+00 -0.00000000000E+00 -0.76224254248E+02  0.76224254291E+02  0.25500000000E-02 0.  1.
    5000001    1    1    2    0    0  0.94763904788E+01  0.42081896278E+02  0.10737669951E+03  0.13899440121E+03  0.77000000000E+02 0.  0.
   -5000001    1    1    2    0    0 -0.94763904788E+01 -0.42081896278E+02 -0.28181537854E+02  0.92649269002E+02  0.77000000000E+02 0.  0.
<mgrwt>
<rscale>  0 0.21768536E+03</rscale>
<asrwt>0</asrwt>
<pdfrwt beam="1">  1        2 0.11726808E-01 0.21768536E+03</pdfrwt>
<pdfrwt beam="2">  1       -2 0.23910679E-01 0.21768536E+03</pdfrwt>
<totfact> 0.78969651E+03</totfact>
</mgrwt>
</event>
<event>
 4    1  0.6122885E-004  0.2133701E+03  0.7818608E-02  0.1138925E+00
         -2   -1    0    0    0  501 -0.00000000000E+00  0.00000000000E+00  0.26788935112E+02  0.26788935233E+02  0.25500000000E-02 0. -1.
          2   -1    0    0  501    0  0.00000000000E+00 -0.00000000000E+00 -0.42486579780E+03  0.42486579781E+03  0.25500000000E-02 0.  1.
    5000001    1    1    2    0    0  0.20545873911E+02 -0.69636743334E+02 -0.22753968140E+03  0.25094763512E+03  0.77000000000E+02 0.  0.
   -5000001    1    1    2    0    0 -0.20545873911E+02  0.69636743334E+02 -0.17053718128E+03  0.20070709792E+03  0.77000000000E+02 0.  0.
<mgrwt>
<rscale>  0 0.21337012E+03</rscale>
<asrwt>0</asrwt>
<pdfrwt beam="1">  1        2 0.65363964E-01 0.21337012E+03</pdfrwt>
<pdfrwt beam="2">  1       -2 0.41213750E-02 0.21337012E+03</pdfrwt>
<totfact> 0.19126578E+04</totfact>
</mgrwt>
</event>
<event>
 4    1  0.6122885E-004  0.1907874E+03  0.7818608E-02  0.1157753E+00
          2   -1    0    0  501    0  0.00000000000E+00  0.00000000000E+00  0.81928579261E+03  0.81928579261E+03  0.25500000000E-02 0.  1.
         -2   -1    0    0    0  501 -0.00000000000E+00 -0.00000000000E+00 -0.11107186579E+02  0.11107186872E+02  0.25500000000E-02 0. -1.
    5000001    1    1    2    0    0 -0.91490745707E+00 -0.56127942782E+02  0.38473323850E+03  0.39635823168E+03  0.77000000000E+02 0.  0.
   -5000001    1    1    2    0    0  0.91490745707E+00  0.56127942782E+02  0.42344536753E+03  0.43403474780E+03  0.77000000000E+02 0.  0.
<mgrwt>
<rscale>  0 0.19078742E+03</rscale>
<asrwt>0</asrwt>
<pdfrwt beam="1">  1        2 0.12604398E+00 0.19078742E+03</pdfrwt>
<pdfrwt beam="2">  1       -2 0.17087978E-02 0.19078742E+03</pdfrwt>
<totfact> 0.32520609E+04</totfact>
</mgrwt>
</event>
<event>
 4    1  0.6122885E-004  0.1678564E+03  0.7818608E-02  0.1180102E+00
          2   -1    0    0  501    0  0.00000000000E+00  0.00000000000E+00  0.63077563170E+02  0.63077563221E+02  0.25500000000E-02 0.  1.
         -2   -1    0    0    0  501 -0.00000000000E+00 -0.00000000000E+00 -0.11167108763E+03  0.11167108765E+03  0.25500000000E-02 0. -1.
    5000001    1    1    2    0    0 -0.19523223096E+02  0.27077122285E+02 -0.25112052719E+02  0.87601038710E+02  0.77000000000E+02 0.  0.
   -5000001    1    1    2    0    0  0.19523223096E+02 -0.27077122285E+02 -0.23481471737E+02  0.87147612166E+02  0.77000000000E+02 0.  0.
<mgrwt>
<rscale>  0 0.16785637E+03</rscale>
<asrwt>0</asrwt>
<pdfrwt beam="1">  1        2 0.97042405E-02 0.16785637E+03</pdfrwt>
<pdfrwt beam="2">  1       -2 0.17180167E-01 0.16785637E+03</pdfrwt>
<totfact> 0.17177525E+04</totfact>
</mgrwt>
</event>
<event>
 4    1  0.6122885E-004  0.1974804E+03  0.7818608E-02  0.1151882E+00
          2   -1    0    0  501    0  0.00000000000E+00  0.00000000000E+00  0.34721686693E+04  0.34721686693E+04  0.25500000000E-02 0.  1.
         -2   -1    0    0    0  501 -0.00000000000E+00 -0.00000000000E+00 -0.28079344058E+01  0.28079355636E+01  0.25500000000E-02 0. -1.
    5000001    1    1    2    0    0 -0.92427747674E+01  0.59690495661E+02  0.15037427825E+04  0.15069239331E+04  0.77000000000E+02 0.  0.
   -5000001    1    1    2    0    0  0.92427747674E+01 -0.59690495661E+02  0.19656179524E+04  0.19680526718E+04  0.77000000000E+02 0.  0.
<mgrwt>
<rscale>  0 0.19748037E+03</rscale>
<asrwt>0</asrwt>
<pdfrwt beam="1">  1        2 0.53417846E+00 0.19748037E+03</pdfrwt>
<pdfrwt beam="2">  1       -2 0.43199108E-03 0.19748037E+03</pdfrwt>
<totfact> 0.76119084E+03</totfact>
</mgrwt>
</event>
<event>
 4    1  0.6122885E-004  0.2712342E+03  0.7818608E-02  0.1100575E+00
          2   -1    0    0  501    0  0.00000000000E+00  0.00000000000E+00  0.95179898660E+01  0.95179902076E+01  0.25500000000E-02 0.  1.
         -2   -1    0    0    0  501 -0.00000000000E+00 -0.00000000000E+00 -0.19323405108E+04  0.19323405108E+04  0.25500000000E-02 0. -1.
    5000001    1    1    2    0    0  0.68094910150E+02  0.77336669614E+02 -0.65388267051E+03  0.66641535401E+03  0.77000000000E+02 0.  0.
   -5000001    1    1    2    0    0 -0.68094910150E+02 -0.77336669614E+02 -0.12689398504E+04  0.12754431470E+04  0.77000000000E+02 0.  0.
<mgrwt>
<rscale>  0 0.27123420E+03</rscale>
<asrwt>0</asrwt>
<pdfrwt beam="1">  1        2 0.14643077E-02 0.27123420E+03</pdfrwt>
<pdfrwt beam="2">  1       -2 0.29728284E+00 0.27123420E+03</pdfrwt>
<totfact> 0.32090986E+02</totfact>
</mgrwt>
</event>
<event>
 4    1  0.6122885E-004  0.3491310E+03  0.7818608E-02  0.1062972E+00
         -2   -1    0    0    0  501 -0.00000000000E+00  0.00000000000E+00  0.17828242118E+02  0.17828242300E+02  0.25500000000E-02 0. -1.
          2   -1    0    0  501    0  0.00000000000E+00 -0.00000000000E+00 -0.17092611781E+04  0.17092611781E+04  0.25500000000E-02 0.  1.
    5000001    1    1    2    0    0  0.14868667480E+03  0.11870758102E+02 -0.10827245301E+04  0.10956596416E+04  0.77000000000E+02 0.  0.
   -5000001    1    1    2    0    0 -0.14868667480E+03 -0.11870758102E+02 -0.60870840589E+03  0.63142977880E+03  0.77000000000E+02 0.  0.
<mgrwt>
<rscale>  0 0.34913105E+03</rscale>
<asrwt>0</asrwt>
<pdfrwt beam="1">  1        2 0.26296313E+00 0.34913105E+03</pdfrwt>
<pdfrwt beam="2">  1       -2 0.27428078E-02 0.34913105E+03</pdfrwt>
<totfact> 0.51202576E+03</totfact>
</mgrwt>
</event>
<event>
 4    1  0.6122885E-004  0.1897596E+03  0.7818608E-02  0.1158678E+00
          2   -1    0    0  501    0  0.00000000000E+00  0.00000000000E+00  0.61282305307E+03  0.61282305307E+03  0.25500000000E-02 0.  1.
         -2   -1    0    0    0  501 -0.00000000000E+00 -0.00000000000E+00 -0.14689682683E+02  0.14689682904E+02  0.25500000000E-02 0. -1.
    5000001    1    1    2    0    0 -0.54103246660E+02 -0.11979298252E+02  0.29382616234E+03  0.30876119990E+03  0.77000000000E+02 0.  0.
   -5000001    1    1    2    0    0  0.54103246660E+02  0.11979298252E+02  0.30430720804E+03  0.31875153608E+03  0.77000000000E+02 0.  0.
<mgrwt>
<rscale>  0 0.18975960E+03</rscale>
<asrwt>0</asrwt>
<pdfrwt beam="1">  1        2 0.94280444E-01 0.18975960E+03</pdfrwt>
<pdfrwt beam="2">  1       -2 0.22599518E-02 0.18975960E+03</pdfrwt>
<totfact> 0.30689101E+04</totfact>
</mgrwt>
</event>
<event>
 4    1  0.6122885E-004  0.2504725E+03  0.7818608E-02  0.1113007E+00
         -2   -1    0    0    0  501 -0.00000000000E+00  0.00000000000E+00  0.19022122892E+02  0.19022123063E+02  0.25500000000E-02 0. -1.
          2   -1    0    0  501    0  0.00000000000E+00 -0.00000000000E+00 -0.82451992797E+03  0.82451992797E+03  0.25500000000E-02 0.  1.
    5000001    1    1    2    0    0  0.14251104378E+02  0.87983015633E+02 -0.54606917630E+03  0.55862747008E+03  0.77000000000E+02 0.  0.
   -5000001    1    1    2    0    0 -0.14251104378E+02 -0.87983015633E+02 -0.25942862877E+03  0.28491458096E+03  0.77000000000E+02 0.  0.
<mgrwt>
<rscale>  0 0.25047251E+03</rscale>
<asrwt>0</asrwt>
<pdfrwt beam="1">  1        2 0.12684919E+00 0.25047251E+03</pdfrwt>
<pdfrwt beam="2">  1       -2 0.29264811E-02 0.25047251E+03</pdfrwt>
<totfact> 0.14869280E+04</totfact>
</mgrwt>
</event>
<event>
 4    1  0.6122885E-004  0.2328888E+03  0.7818608E-02  0.1124623E+00
         -2   -1    0    0    0  501 -0.00000000000E+00  0.00000000000E+00  0.34275229436E+02  0.34275229531E+02  0.25500000000E-02 0. -1.
          2   -1    0    0  501    0  0.00000000000E+00 -0.00000000000E+00 -0.39560040394E+03  0.39560040395E+03  0.25500000000E-02 0.  1.
    5000001    1    1    2    0    0  0.76704636446E+02  0.36246684411E+01 -0.10380918173E+03  0.15033990051E+03  0.77000000000E+02 0.  0.
   -5000001    1    1    2    0    0 -0.76704636446E+02 -0.36246684411E+01 -0.25751599277E+03  0.27953573297E+03  0.77000000000E+02 0.  0.
<mgrwt>
<rscale>  0 0.23288877E+03</rscale>
<asrwt>0</asrwt>
<pdfrwt beam="1">  1        2 0.60861597E-01 0.23288877E+03</pdfrwt>
<pdfrwt beam="2">  1       -2 0.52731125E-02 0.23288877E+03</pdfrwt>
<totfact> 0.14323572E+04</totfact>
</mgrwt>
</event>
<event>
 4    1  0.6122885E-004  0.3048690E+03  0.7818608E-02  0.1082832E+00
         -2   -1    0    0    0  501 -0.00000000000E+00  0.00000000000E+00  0.88602658341E+02  0.88602658377E+02  0.25500000000E-02 0. -1.
          2   -1    0    0  501    0  0.00000000000E+00 -0.00000000000E+00 -0.26225256410E+03  0.26225256411E+03  0.25500000000E-02 0.  1.
    5000001    1    1    2    0    0  0.34616273317E+01  0.12036107448E+03 -0.25835861140E+02  0.14524208356E+03  0.77000000000E+02 0.  0.
   -5000001    1    1    2    0    0 -0.34616273317E+01 -0.12036107448E+03 -0.14781404462E+03  0.20561313893E+03  0.77000000000E+02 0.  0.
<mgrwt>
<rscale>  0 0.30486898E+03</rscale>
<asrwt>0</asrwt>
<pdfrwt beam="1">  1        2 0.40346548E-01 0.30486898E+03</pdfrwt>
<pdfrwt beam="2">  1       -2 0.13631178E-01 0.30486898E+03</pdfrwt>
<totfact> 0.50685859E+03</totfact>
</mgrwt>
</event>
<event>
 4    1  0.6122885E-004  0.4233402E+03  0.7818608E-02  0.1035985E+00
         -2   -1    0    0    0  501 -0.00000000000E+00  0.00000000000E+00  0.85760528509E+02  0.85760528547E+02  0.25500000000E-02 0. -1.
          2   -1    0    0  501    0  0.00000000000E+00 -0.00000000000E+00 -0.52243416258E+03  0.52243416258E+03  0.25500000000E-02 0.  1.
    5000001    1    1    2    0    0  0.30073051835E+02 -0.14477510805E+03 -0.30959004390E+02  0.16956320447E+03  0.77000000000E+02 0.  0.
   -5000001    1    1    2    0    0 -0.30073051835E+02  0.14477510805E+03 -0.40571462968E+03  0.43863148666E+03  0.77000000000E+02 0.  0.
<mgrwt>
<rscale>  0 0.42334019E+03</rscale>
<asrwt>0</asrwt>
<pdfrwt beam="1">  1        2 0.80374485E-01 0.42334019E+03</pdfrwt>
<pdfrwt beam="2">  1       -2 0.13193928E-01 0.42334019E+03</pdfrwt>
<totfact> 0.25223334E+03</totfact>
</mgrwt>
</event>
<event>
 4    1  0.6122885E-004  0.5922720E+03  0.7818608E-02  0.9921570E-01
          2   -1    0    0  501    0  0.00000000000E+00  0.00000000000E+00  0.12422613006E+03  0.12422613008E+03  0.25500000000E-02 0.  1.
         -2   -1    0    0    0  501 -0.00000000000E+00 -0.00000000000E+00 -0.70594261070E+03  0.70594261070E+03  0.25500000000E-02 0. -1.
    5000001    1    1    2    0    0  0.14328217130E+03  0.22600657021E+03 -0.43213337486E+03  0.51407879168E+03  0.77000000000E+02 0.  0.
   -5000001    1    1    2    0    0 -0.14328217130E+03 -0.22600657021E+03 -0.14958310578E+03  0.31608994910E+03  0.77000000000E+02 0.  0.
<mgrwt>
<rscale>  0 0.59227196E+03</rscale>
<asrwt>0</asrwt>
<pdfrwt beam="1">  1        2 0.19111713E-01 0.59227196E+03</pdfrwt>
<pdfrwt beam="2">  1       -2 0.10860655E+00 0.59227196E+03</pdfrwt>
<totfact> 0.20575572E+02</totfact>
</mgrwt>
</event>
<event>
 4    1  0.6122885E-004  0.3228251E+03  0.7818608E-02  0.1074356E+00
         -2   -1    0    0    0  501 -0.00000000000E+00  0.00000000000E+00  0.11308382122E+03  0.11308382125E+03  0.25500000000E-02 0. -1.
          2   -1    0    0  501    0  0.00000000000E+00 -0.00000000000E+00 -0.23039555649E+03  0.23039555650E+03  0.25500000000E-02 0.  1.
    5000001    1    1    2    0    0 -0.93509345942E+02  0.48874287458E+02  0.42239021837E+02  0.13728011043E+03  0.77000000000E+02 0.  0.
   -5000001    1    1    2    0    0  0.93509345942E+02 -0.48874287458E+02 -0.15955075711E+03  0.20619926733E+03  0.77000000000E+02 0.  0.
<mgrwt>
<rscale>  0 0.32282509E+03</rscale>
<asrwt>0</asrwt>
<pdfrwt beam="1">  1        2 0.35445470E-01 0.32282509E+03</pdfrwt>
<pdfrwt beam="2">  1       -2 0.17397511E-01 0.32282509E+03</pdfrwt>
<totfact> 0.38949779E+03</totfact>
</mgrwt>
</event>
<event>
 4    1  0.6122885E-004  0.2912145E+03  0.7818608E-02  0.1089717E+00
         -2   -1    0    0    0  501 -0.00000000000E+00  0.00000000000E+00  0.82897936685E+01  0.82897940607E+01  0.25500000000E-02 0. -1.
          2   -1    0    0  501    0  0.00000000000E+00 -0.00000000000E+00 -0.25575394232E+04  0.25575394232E+04  0.25500000000E-02 0.  1.
    5000001    1    1    2    0    0 -0.17186125463E+02 -0.12004321132E+03 -0.10648727154E+04  0.10745178619E+04  0.77000000000E+02 0.  0.
   -5000001    1    1    2    0    0  0.17186125463E+02  0.12004321132E+03 -0.14843769141E+04  0.14913113554E+04  0.77000000000E+02 0.  0.
<mgrwt>
<rscale>  0 0.29121452E+03</rscale>
<asrwt>0</asrwt>
<pdfrwt beam="1">  1        2 0.39346697E+00 0.29121452E+03</pdfrwt>
<pdfrwt beam="2">  1       -2 0.12753549E-02 0.29121452E+03</pdfrwt>
<totfact> 0.55753635E+03</totfact>
</mgrwt>
</event>
<event>
 4    1  0.6122885E-004  0.2149555E+03  0.7818608E-02  0.1137701E+00
         -2   -1    0    0    0  501 -0.00000000000E+00  0.00000000000E+00  0.51016725134E+02  0.51016725198E+02  0.25500000000E-02 0. -1.
          2   -1    0    0  501    0  0.00000000000E+00 -0.00000000000E+00 -0.22642500957E+03  0.22642500959E+03  0.25500000000E-02 0.  1.
    5000001    1    1    2    0    0  0.37683323444E+02 -0.63310416092E+02 -0.10569165930E+03  0.15009319937E+03  0.77000000000E+02 0.  0.
   -5000001    1    1    2    0    0 -0.37683323444E+02  0.63310416092E+02 -0.69716625136E+02  0.12734853541E+03  0.77000000000E+02 0.  0.
<mgrwt>
<rscale>  0 0.21495546E+03</rscale>
<asrwt>0</asrwt>
<pdfrwt beam="1">  1        2 0.34834616E-01 0.21495546E+03</pdfrwt>
<pdfrwt beam="2">  1       -2 0.78487271E-02 0.21495546E+03</pdfrwt>
<totfact> 0.14095459E+04</totfact>
</mgrwt>
</event>
<event>
 4    1  0.6122885E-004  0.2280733E+03  0.7818608E-02  0.1128003E+00
         -2   -1    0    0    0  501 -0.00000000000E+00  0.00000000000E+00  0.16732500028E+02  0.16732500222E+02  0.25500000000E-02 0. -1.
          2   -1    0    0  501    0  0.00000000000E+00 -0.00000000000E+00 -0.77719173180E+03  0.77719173180E+03  0.25500000000E-02 0.  1.
    5000001    1    1    2    0    0  0.54137940152E+02 -0.23896777770E+02 -0.17214275573E+03  0.19764640372E+03  0.77000000000E+02 0.  0.
   -5000001    1    1    2    0    0 -0.54137940152E+02  0.23896777770E+02 -0.58831647604E+03  0.59627782831E+03  0.77000000000E+02 0.  0.
<mgrwt>
<rscale>  0 0.22807333E+03</rscale>
<asrwt>0</asrwt>
<pdfrwt beam="1">  1        2 0.11956793E+00 0.22807333E+03</pdfrwt>
<pdfrwt beam="2">  1       -2 0.25742314E-02 0.22807333E+03</pdfrwt>
<totfact> 0.19287852E+04</totfact>
</mgrwt>
</event>
<event>
 4    1  0.6122885E-004  0.2270048E+03  0.7818608E-02  0.1128766E+00
          2   -1    0    0  501    0  0.00000000000E+00  0.00000000000E+00  0.35620808520E+03  0.35620808521E+03  0.25500000000E-02 0.  1.
         -2   -1    0    0    0  501 -0.00000000000E+00 -0.00000000000E+00 -0.36166486944E+02  0.36166487034E+02  0.25500000000E-02 0. -1.
    5000001    1    1    2    0    0 -0.18678752663E+02  0.66766143322E+02  0.79926763420E+02  0.13085832494E+03  0.77000000000E+02 0.  0.
   -5000001    1    1    2    0    0  0.18678752663E+02 -0.66766143322E+02  0.24011483484E+03  0.26151624730E+03  0.77000000000E+02 0.  0.
<mgrwt>
<rscale>  0 0.22700480E+03</rscale>
<asrwt>0</asrwt>
<pdfrwt beam="1">  1        2 0.54801246E-01 0.22700480E+03</pdfrwt>
<pdfrwt beam="2">  1       -2 0.55640747E-02 0.22700480E+03</pdfrwt>
<totfact> 0.14758515E+04</totfact>
</mgrwt>
</event>
<event>
 4    1  0.6122885E-004  0.2666606E+03  0.7818608E-02  0.1103206E+00
          2   -1    0    0  501    0  0.00000000000E+00  0.00000000000E+00  0.70113073202E+03  0.70113073202E+03  0.25500000000E-02 0.  1.
         -2   -1    0    0    0  501 -0.00000000000E+00 -0.00000000000E+00 -0.25354719628E+02  0.25354719756E+02  0.25500000000E-02 0. -1.
    5000001    1    1    2    0    0  0.37457350923E+02  0.73683157848E+02  0.14494265201E+03  0.18376515791E+03  0.77000000000E+02 0.  0.
   -5000001    1    1    2    0    0 -0.37457350923E+02 -0.73683157848E+02  0.53083336038E+03  0.54272029387E+03  0.77000000000E+02 0.  0.
<mgrwt>
<rscale>  0 0.26666063E+03</rscale>
<asrwt>0</asrwt>
<pdfrwt beam="1">  1        2 0.10786625E+00 0.26666063E+03</pdfrwt>
<pdfrwt beam="2">  1       -2 0.39007268E-02 0.26666063E+03</pdfrwt>
<totfact> 0.11882200E+04</totfact>
</mgrwt>
</event>
<event>
 4    1  0.6122885E-004  0.3678871E+03  0.7818608E-02  0.1055504E+00
         -2   -1    0    0    0  501 -0.00000000000E+00  0.00000000000E+00  0.14332611468E+02  0.14332611695E+02  0.25500000000E-02 0. -1.
          2   -1    0    0  501    0  0.00000000000E+00 -0.00000000000E+00 -0.23607161530E+04  0.23607161530E+04  0.25500000000E-02 0.  1.
    5000001    1    1    2    0    0  0.11908915034E+01 -0.15941931007E+03 -0.14953603714E+04  0.15058046271E+04  0.77000000000E+02 0.  0.
   -5000001    1    1    2    0    0 -0.11908915034E+01  0.15941931007E+03 -0.85102317014E+03  0.86924413760E+03  0.77000000000E+02 0.  0.
<mgrwt>
<rscale>  0 0.36788709E+03</rscale>
<asrwt>0</asrwt>
<pdfrwt beam="1">  1        2 0.36318679E+00 0.36788709E+03</pdfrwt>
<pdfrwt beam="2">  1       -2 0.22050190E-02 0.36788709E+03</pdfrwt>
<totfact> 0.31793263E+03</totfact>
</mgrwt>
</event>
<event>
 4    1  0.6122885E-004  0.4111838E+03  0.7818608E-02  0.1039974E+00
         -2   -1    0    0    0  501 -0.00000000000E+00  0.00000000000E+00  0.29746548626E+02  0.29746548736E+02  0.25500000000E-02 0. -1.
          2   -1    0    0  501    0  0.00000000000E+00 -0.00000000000E+00 -0.14209386640E+04  0.14209386640E+04  0.25500000000E-02 0.  1.
    5000001    1    1    2    0    0  0.97555903714E+02 -0.14663827912E+03 -0.43828670699E+03  0.47858560026E+03  0.77000000000E+02 0.  0.
   -5000001    1    1    2    0    0 -0.97555903714E+02  0.14663827912E+03 -0.95290540835E+03  0.97209961245E+03  0.77000000000E+02 0.  0.
<mgrwt>
<rscale>  0 0.41118376E+03</rscale>
<asrwt>0</asrwt>
<pdfrwt beam="1">  1        2 0.21860590E+00 0.41118376E+03</pdfrwt>
<pdfrwt beam="2">  1       -2 0.45763932E-02 0.41118376E+03</pdfrwt>
<totfact> 0.33775921E+03</totfact>
</mgrwt>
</event>
<event>
 4    1  0.6122885E-004  0.2885146E+03  0.7818608E-02  0.1091127E+00
         -2   -1    0    0    0  501 -0.00000000000E+00  0.00000000000E+00  0.25492572544E+03  0.25492572546E+03  0.25500000000E-02 0. -1.
          2   -1    0    0  501    0  0.00000000000E+00 -0.00000000000E+00 -0.81632297319E+02  0.81632297359E+02  0.25500000000E-02 0.  1.
    5000001    1    1    2    0    0 -0.11314696599E+03 -0.13426378983E+02  0.35817107643E+02  0.14210689204E+03  0.77000000000E+02 0.  0.
   -5000001    1    1    2    0    0  0.11314696599E+03  0.13426378983E+02  0.13747632048E+03  0.19445113077E+03  0.77000000000E+02 0.  0.
<mgrwt>
<rscale>  0 0.28851463E+03</rscale>
<asrwt>0</asrwt>
<pdfrwt beam="1">  1        2 0.12558815E-01 0.28851463E+03</pdfrwt>
<pdfrwt beam="2">  1       -2 0.39219341E-01 0.28851463E+03</pdfrwt>
<totfact> 0.29838735E+03</totfact>
</mgrwt>
</event>
<event>
 4    1  0.6122885E-004  0.2218851E+03  0.7818608E-02  0.1132485E+00
         -2   -1    0    0    0  501 -0.00000000000E+00  0.00000000000E+00  0.18676155486E+02  0.18676155660E+02  0.25500000000E-02 0. -1.
          2   -1    0    0  501    0  0.00000000000E+00 -0.00000000000E+00 -0.65903550362E+03  0.65903550362E+03  0.25500000000E-02 0.  1.
    5000001    1    1    2    0    0 -0.25558245077E+02 -0.42772380810E+02 -0.51083849079E+03  0.51900642011E+03  0.77000000000E+02 0.  0.
   -5000001    1    1    2    0    0  0.25558245077E+02  0.42772380810E+02 -0.12952085734E+03  0.15870523917E+03  0.77000000000E+02 0.  0.
<mgrwt>
<rscale>  0 0.22188510E+03</rscale>
<asrwt>0</asrwt>
<pdfrwt beam="1">  1        2 0.10139006E+00 0.22188510E+03</pdfrwt>
<pdfrwt beam="2">  1       -2 0.28732552E-02 0.22188510E+03</pdfrwt>
<totfact> 0.20005021E+04</totfact>
</mgrwt>
</event>
<event>
 4    1  0.6122885E-004  0.6798146E+03  0.7818608E-02  0.9752388E-01
         -2   -1    0    0    0  501 -0.00000000000E+00  0.00000000000E+00  0.43540541512E+02  0.43540541587E+02  0.25500000000E-02 0. -1.
          2   -1    0    0  501    0  0.00000000000E+00 -0.00000000000E+00 -0.26535491406E+04  0.26535491406E+04  0.25500000000E-02 0.  1.
    5000001    1    1    2    0    0 -0.19214575821E+03 -0.26767010180E+03 -0.11770173253E+04  0.12246901893E+04  0.77000000000E+02 0.  0.
   -5000001    1    1    2    0    0  0.19214575821E+03  0.26767010180E+03 -0.14329912738E+04  0.14723994928E+04  0.77000000000E+02 0.  0.
<mgrwt>
<rscale>  0 0.67981458E+03</rscale>
<asrwt>0</asrwt>
<pdfrwt beam="1">  1        2 0.40823820E+00 0.67981458E+03</pdfrwt>
<pdfrwt beam="2">  1       -2 0.66985469E-02 0.67981458E+03</pdfrwt>
<totfact> 0.38777862E+02</totfact>
</mgrwt>
</event>
<event>
 4    1  0.6122885E-004  0.1768650E+03  0.7818608E-02  0.1170872E+00
          2   -1    0    0  501    0  0.00000000000E+00  0.00000000000E+00  0.93918759933E+02  0.93918759968E+02  0.25500000000E-02 0.  1.
         -2   -1    0    0    0  501 -0.00000000000E+00 -0.00000000000E+00 -0.83266746412E+02  0.83266746451E+02  0.25500000000E-02 0. -1.
    5000001    1    1    2    0    0 -0.15167458758E+02  0.31940501319E+02 -0.20039076460E+02  0.87067858680E+02  0.77000000000E+02 0.  0.
   -5000001    1    1    2    0    0  0.15167458758E+02 -0.31940501319E+02  0.30691089981E+02  0.90117647739E+02  0.77000000000E+02 0.  0.
<mgrwt>
<rscale>  0 0.17686503E+03</rscale>
<asrwt>0</asrwt>
<pdfrwt beam="1">  1        2 0.14449040E-01 0.17686503E+03</pdfrwt>
<pdfrwt beam="2">  1       -2 0.12810269E-01 0.17686503E+03</pdfrwt>
<totfact> 0.17247102E+04</totfact>
</mgrwt>
</event>
<event>
 4    1  0.6122885E-004  0.2589255E+03  0.7818608E-02  0.1107791E+00
         -2   -1    0    0    0  501 -0.00000000000E+00  0.00000000000E+00  0.16896392155E+02  0.16896392348E+02  0.25500000000E-02 0. -1.
          2   -1    0    0  501    0  0.00000000000E+00 -0.00000000000E+00 -0.99196311090E+03  0.99196311090E+03  0.25500000000E-02 0.  1.
    5000001    1    1    2    0    0 -0.88511578297E+02  0.41431579709E+02 -0.62697210478E+03  0.63919785314E+03  0.77000000000E+02 0.  0.
   -5000001    1    1    2    0    0  0.88511578297E+02 -0.41431579709E+02 -0.34809461396E+03  0.36966165011E+03  0.77000000000E+02 0.  0.
<mgrwt>
<rscale>  0 0.25892546E+03</rscale>
<asrwt>0</asrwt>
<pdfrwt beam="1">  1        2 0.15260966E+00 0.25892546E+03</pdfrwt>
<pdfrwt beam="2">  1       -2 0.25994457E-02 0.25892546E+03</pdfrwt>
<totfact> 0.13853180E+04</totfact>
</mgrwt>
</event>
<event>
 4    1  0.6122885E-004  0.5943710E+03  0.7818608E-02  0.9917154E-01
          2   -1    0    0  501    0  0.00000000000E+00  0.00000000000E+00  0.16273472673E+04  0.16273472673E+04  0.25500000000E-02 0.  1.
         -2   -1    0    0    0  501 -0.00000000000E+00 -0.00000000000E+00 -0.54271896761E+02  0.54271896821E+02  0.25500000000E-02 0. -1.
    5000001    1    1    2    0    0 -0.19096195457E+03 -0.18805060037E+03  0.10772858160E+04  0.11127907377E+04  0.77000000000E+02 0.  0.
   -5000001    1    1    2    0    0  0.19096195457E+03  0.18805060037E+03  0.49578955446E+03  0.56882842642E+03  0.77000000000E+02 0.  0.
<mgrwt>
<rscale>  0 0.59437101E+03</rscale>
<asrwt>0</asrwt>
<pdfrwt beam="1">  1        2 0.25036115E+00 0.59437101E+03</pdfrwt>
<pdfrwt beam="2">  1       -2 0.83495216E-02 0.59437101E+03</pdfrwt>
<totfact> 0.10111369E+03</totfact>
</mgrwt>
</event>
<event>
 4    1  0.6122885E-004  0.1941716E+03  0.7818608E-02  0.1154752E+00
         -2   -1    0    0    0  501 -0.00000000000E+00  0.00000000000E+00  0.39573959451E+02  0.39573959533E+02  0.25500000000E-02 0. -1.
          2   -1    0    0  501    0  0.00000000000E+00 -0.00000000000E+00 -0.23817825033E+03  0.23817825035E+03  0.25500000000E-02 0.  1.
    5000001    1    1    2    0    0 -0.36445714181E+02  0.46058663411E+02 -0.10910523434E+03  0.14588571801E+03  0.77000000000E+02 0.  0.
   -5000001    1    1    2    0    0  0.36445714181E+02 -0.46058663411E+02 -0.89499056541E+02  0.13186649187E+03  0.77000000000E+02 0.  0.
<mgrwt>
<rscale>  0 0.19417164E+03</rscale>
<asrwt>0</asrwt>
<pdfrwt beam="1">  1        2 0.36642807E-01 0.19417164E+03</pdfrwt>
<pdfrwt beam="2">  1       -2 0.60883016E-02 0.19417164E+03</pdfrwt>
<totfact> 0.19598891E+04</totfact>
</mgrwt>
</event>
<event>
 4    1  0.6122885E-004  0.3191405E+03  0.7818608E-02  0.1076046E+00
         -2   -1    0    0    0  501 -0.00000000000E+00  0.00000000000E+00  0.96674715232E+02  0.96674715265E+02  0.25500000000E-02 0. -1.
          2   -1    0    0  501    0  0.00000000000E+00 -0.00000000000E+00 -0.26338496983E+03  0.26338496984E+03  0.25500000000E-02 0.  1.
    5000001    1    1    2    0    0 -0.68213799155E+02 -0.11222123099E+03 -0.13730866557E+03  0.20501072343E+03  0.77000000000E+02 0.  0.
   -5000001    1    1    2    0    0  0.68213799155E+02  0.11222123099E+03 -0.29401589028E+02  0.15504896168E+03  0.77000000000E+02 0.  0.
<mgrwt>
<rscale>  0 0.31914051E+03</rscale>
<asrwt>0</asrwt>
<pdfrwt beam="1">  1        2 0.40520764E-01 0.31914051E+03</pdfrwt>
<pdfrwt beam="2">  1       -2 0.14873033E-01 0.31914051E+03</pdfrwt>
<totfact> 0.43752503E+03</totfact>
</mgrwt>
</event>
<event>
 4    1  0.6122885E-004  0.3216408E+03  0.7818608E-02  0.1074897E+00
         -2   -1    0    0    0  501 -0.00000000000E+00  0.00000000000E+00  0.14453673134E+03  0.14453673136E+03  0.25500000000E-02 0. -1.
          2   -1    0    0  501    0  0.00000000000E+00 -0.00000000000E+00 -0.17893861415E+03  0.17893861417E+03  0.25500000000E-02 0.  1.
    5000001    1    1    2    0    0 -0.36407407000E+02  0.85355786499E+02  0.89816009845E+02  0.15035632743E+03  0.77000000000E+02 0.  0.
   -5000001    1    1    2    0    0  0.36407407000E+02 -0.85355786499E+02 -0.12421789266E+03  0.17311901811E+03  0.77000000000E+02 0.  0.
<mgrwt>
<rscale>  0 0.32164081E+03</rscale>
<asrwt>0</asrwt>
<pdfrwt beam="1">  1        2 0.27529018E-01 0.32164081E+03</pdfrwt>
<pdfrwt beam="2">  1       -2 0.22236420E-01 0.32164081E+03</pdfrwt>
<totfact> 0.33776851E+03</totfact>
</mgrwt>
</event>
<event>
 4    1  0.6122885E-004  0.3168953E+03  0.7818608E-02  0.1077087E+00
          2   -1    0    0  501    0  0.00000000000E+00  0.00000000000E+00  0.82230925023E+03  0.82230925024E+03  0.25500000000E-02 0.  1.
         -2   -1    0    0    0  501 -0.00000000000E+00 -0.00000000000E+00 -0.30530679275E+02  0.30530679381E+02  0.25500000000E-02 0. -1.
    5000001    1    1    2    0    0 -0.67979559053E+02  0.81929546107E+02  0.63422685856E+03  0.64769312107E+03  0.77000000000E+02 0.  0.
   -5000001    1    1    2    0    0  0.67979559053E+02 -0.81929546107E+02  0.15755171240E+03  0.20514680854E+03  0.77000000000E+02 0.  0.
<mgrwt>
<rscale>  0 0.31689531E+03</rscale>
<asrwt>0</asrwt>
<pdfrwt beam="1">  1        2 0.12650910E+00 0.31689531E+03</pdfrwt>
<pdfrwt beam="2">  1       -2 0.46970282E-02 0.31689531E+03</pdfrwt>
<totfact> 0.73898633E+03</totfact>
</mgrwt>
</event>
<event>
 4    1  0.6122885E-004  0.2714185E+03  0.7818608E-02  0.1100471E+00
          2   -1    0    0  501    0  0.00000000000E+00  0.00000000000E+00  0.97782131485E+03  0.97782131486E+03  0.25500000000E-02 0.  1.
         -2   -1    0    0    0  501 -0.00000000000E+00 -0.00000000000E+00 -0.18834729619E+02  0.18834729792E+02  0.25500000000E-02 0. -1.
    5000001    1    1    2    0    0 -0.51608371161E+02  0.80260421463E+02  0.69306644226E+03  0.70382899387E+03  0.77000000000E+02 0.  0.
   -5000001    1    1    2    0    0  0.51608371161E+02 -0.80260421463E+02  0.26592014298E+03  0.29282705078E+03  0.77000000000E+02 0.  0.
<mgrwt>
<rscale>  0 0.27141850E+03</rscale>
<asrwt>0</asrwt>
<pdfrwt beam="1">  1        2 0.15043408E+00 0.27141850E+03</pdfrwt>
<pdfrwt beam="2">  1       -2 0.28976501E-02 0.27141850E+03</pdfrwt>
<totfact> 0.12051694E+04</totfact>
</mgrwt>
</event>
<event>
 4    1  0.6122885E-004  0.3171532E+03  0.7818608E-02  0.1076967E+00
          2   -1    0    0  501    0  0.00000000000E+00  0.00000000000E+00  0.10447574832E+03  0.10447574835E+03  0.25500000000E-02 0.  1.
         -2   -1    0    0    0  501 -0.00000000000E+00 -0.00000000000E+00 -0.24069265959E+03  0.24069265960E+03  0.25500000000E-02 0. -1.
    5000001    1    1    2    0    0 -0.39237903558E+02  0.97962366683E+02  0.29728445450E+02  0.13397394833E+03  0.77000000000E+02 0.  0.
   -5000001    1    1    2    0    0  0.39237903558E+02 -0.97962366683E+02 -0.16594535672E+03  0.21119445963E+03  0.77000000000E+02 0.  0.
<mgrwt>
<rscale>  0 0.31715325E+03</rscale>
<asrwt>0</asrwt>
<pdfrwt beam="1">  1        2 0.16073192E-01 0.31715325E+03</pdfrwt>
<pdfrwt beam="2">  1       -2 0.37029640E-01 0.31715325E+03</pdfrwt>
<totfact> 0.24823386E+03</totfact>
</mgrwt>
</event>
<event>
 4    1  0.6122885E-004  0.2238380E+03  0.7818608E-02  0.1131054E+00
          2   -1    0    0  501    0  0.00000000000E+00  0.00000000000E+00  0.20600212201E+04  0.20600212201E+04  0.25500000000E-02 0.  1.
         -2   -1    0    0    0  501 -0.00000000000E+00 -0.00000000000E+00 -0.60804504061E+01  0.60804509408E+01  0.25500000000E-02 0. -1.
    5000001    1    1    2    0    0 -0.30123948898E+02 -0.47027553968E+02  0.15713115206E+04  0.15741880249E+04  0.77000000000E+02 0.  0.
   -5000001    1    1    2    0    0  0.30123948898E+02  0.47027553968E+02  0.48262924908E+03  0.49191364608E+03  0.77000000000E+02 0.  0.
<mgrwt>
<rscale>  0 0.22383795E+03</rscale>
<asrwt>0</asrwt>
<pdfrwt beam="1">  1        2 0.31692671E+00 0.22383795E+03</pdfrwt>
<pdfrwt beam="2">  1       -2 0.93545286E-03 0.22383795E+03</pdfrwt>
<totfact> 0.16132358E+04</totfact>
</mgrwt>
</event>
<event>
 4    1  0.6122885E-004  0.1841458E+03  0.7818608E-02  0.1163850E+00
         -2   -1    0    0    0  501 -0.00000000000E+00  0.00000000000E+00  0.81363719918E+01  0.81363723914E+01  0.25500000000E-02 0. -1.
          2   -1    0    0  501    0  0.00000000000E+00 -0.00000000000E+00 -0.10419163667E+04  0.10419163667E+04  0.25500000000E-02 0.  1.
    5000001    1    1    2    0    0  0.18473223236E+01  0.46710903922E+02 -0.40823208991E+03  0.41805234167E+03  0.77000000000E+02 0.  0.
   -5000001    1    1    2    0    0 -0.18473223236E+01 -0.46710903922E+02 -0.62554790480E+03  0.63200039743E+03  0.77000000000E+02 0.  0.
<mgrwt>
<rscale>  0 0.18414580E+03</rscale>
<asrwt>0</asrwt>
<pdfrwt beam="1">  1        2 0.16029472E+00 0.18414580E+03</pdfrwt>
<pdfrwt beam="2">  1       -2 0.12517504E-02 0.18414580E+03</pdfrwt>
<totfact> 0.36898665E+04</totfact>
</mgrwt>
</event>
<event>
 4    1  0.6122885E-004  0.1833377E+03  0.7818608E-02  0.1164611E+00
         -2   -1    0    0    0  501 -0.00000000000E+00  0.00000000000E+00  0.80926973934E+01  0.80926977952E+01  0.25500000000E-02 0. -1.
          2   -1    0    0  501    0  0.00000000000E+00 -0.00000000000E+00 -0.10383653358E+04  0.10383653358E+04  0.25500000000E-02 0.  1.
    5000001    1    1    2    0    0  0.32154115221E+02  0.20133226268E+02 -0.69875980751E+03  0.70401243065E+03  0.77000000000E+02 0.  0.
   -5000001    1    1    2    0    0 -0.32154115221E+02 -0.20133226268E+02 -0.33151283088E+03  0.34244560292E+03  0.77000000000E+02 0.  0.
<mgrwt>
<rscale>  0 0.18333768E+03</rscale>
<asrwt>0</asrwt>
<pdfrwt beam="1">  1        2 0.15974841E+00 0.18333768E+03</pdfrwt>
<pdfrwt beam="2">  1       -2 0.12450312E-02 0.18333768E+03</pdfrwt>
<totfact> 0.37355327E+04</totfact>
</mgrwt>
</event>
<event>
 4    1  0.6122885E-004  0.1860918E+03  0.7818608E-02  0.1162034E+00
          2   -1    0    0  501    0  0.00000000000E+00  0.00000000000E+00  0.11198283829E+04  0.11198283829E+04  0.25500000000E-02 0.  1.
         -2   -1    0    0    0  501 -0.00000000000E+00 -0.00000000000E+00 -0.77311287810E+01  0.77311292015E+01  0.25500000000E-02 0. -1.
    5000001    1    1    2    0    0 -0.25020830119E+02  0.44970545239E+02  0.50180450712E+03  0.51027948739E+03  0.77000000000E+02 0.  0.
   -5000001    1    1    2    0    0  0.25020830119E+02 -0.44970545239E+02  0.61029274697E+03  0.61728002470E+03  0.77000000000E+02 0.  0.
<mgrwt>
<rscale>  0 0.18609178E+03</rscale>
<asrwt>0</asrwt>
<pdfrwt beam="1">  1        2 0.17228121E+00 0.18609178E+03</pdfrwt>
<pdfrwt beam="2">  1       -2 0.11894050E-02 0.18609178E+03</pdfrwt>
<totfact> 0.35802314E+04</totfact>
</mgrwt>
</event>
<event>
 4    1  0.6122885E-004  0.1932689E+03  0.7818608E-02  0.1155546E+00
         -2   -1    0    0    0  501 -0.00000000000E+00  0.00000000000E+00  0.64841286256E+01  0.64841291270E+01  0.25500000000E-02 0. -1.
          2   -1    0    0  501    0  0.00000000000E+00 -0.00000000000E+00 -0.14401655999E+04  0.14401655999E+04  0.25500000000E-02 0.  1.
    5000001    1    1    2    0    0 -0.79875782375E+01 -0.57039600573E+02 -0.64508383983E+03  0.65221122181E+03  0.77000000000E+02 0.  0.
   -5000001    1    1    2    0    0  0.79875782375E+01  0.57039600573E+02 -0.78859763144E+03  0.79443850722E+03  0.77000000000E+02 0.  0.
<mgrwt>
<rscale>  0 0.19326893E+03</rscale>
<asrwt>0</asrwt>
<pdfrwt beam="1">  1        2 0.22156368E+00 0.19326893E+03</pdfrwt>
<pdfrwt beam="2">  1       -2 0.99755943E-03 0.19326893E+03</pdfrwt>
<totfact> 0.30815851E+04</totfact>
</mgrwt>
</event>
<event>
 4    1  0.6122885E-004  0.2282025E+03  0.7818608E-02  0.1127911E+00
          2   -1    0    0  501    0  0.00000000000E+00  0.00000000000E+00  0.29797134121E+02  0.29797134230E+02  0.25500000000E-02 0.  1.
         -2   -1    0    0    0  501 -0.00000000000E+00 -0.00000000000E+00 -0.43692427101E+03  0.43692427102E+03  0.25500000000E-02 0. -1.
    5000001    1    1    2    0    0 -0.28757273807E+02  0.61611744968E+02 -0.30514891113E+03  0.32197491498E+03  0.77000000000E+02 0.  0.
   -5000001    1    1    2    0    0  0.28757273807E+02 -0.61611744968E+02 -0.10197822576E+03  0.14474649026E+03  0.77000000000E+02 0.  0.
<mgrwt>
<rscale>  0 0.22820246E+03</rscale>
<asrwt>0</asrwt>
<pdfrwt beam="1">  1        2 0.45841748E-02 0.22820246E+03</pdfrwt>
<pdfrwt beam="2">  1       -2 0.67219114E-01 0.22820246E+03</pdfrwt>
<totfact> 0.36234986E+03</totfact>
</mgrwt>
</event>
<event>
 4    1  0.6122885E-004  0.2226887E+03  0.7818608E-02  0.1131894E+00
          2   -1    0    0  501    0  0.00000000000E+00  0.00000000000E+00  0.12044819432E+04  0.12044819432E+04  0.25500000000E-02 0.  1.
         -2   -1    0    0    0  501 -0.00000000000E+00 -0.00000000000E+00 -0.10292862893E+02  0.10292863208E+02  0.25500000000E-02 0. -1.
    5000001    1    1    2    0    0 -0.36840546783E+01 -0.79638627955E+02  0.65500131484E+03  0.66431288243E+03  0.77000000000E+02 0.  0.
   -5000001    1    1    2    0    0  0.36840546783E+01  0.79638627955E+02  0.53918776543E+03  0.55046192394E+03  0.77000000000E+02 0.  0.
<mgrwt>
<rscale>  0 0.22268873E+03</rscale>
<asrwt>0</asrwt>
<pdfrwt beam="1">  1        2 0.18530481E+00 0.22268873E+03</pdfrwt>
<pdfrwt beam="2">  1       -2 0.15835183E-02 0.22268873E+03</pdfrwt>
<totfact> 0.21386441E+04</totfact>
</mgrwt>
</event>
<event>
 4    1  0.6122885E-004  0.3312919E+03  0.7818608E-02  0.1070567E+00
          2   -1    0    0  501    0  0.00000000000E+00  0.00000000000E+00  0.25943744555E+03  0.25943744556E+03  0.25500000000E-02 0.  1.
         -2   -1    0    0    0  501 -0.00000000000E+00 -0.00000000000E+00 -0.10576185172E+03  0.10576185175E+03  0.25500000000E-02 0. -1.
    5000001    1    1    2    0    0  0.24452674435E+01 -0.11402324567E+03 -0.24807530441E+02  0.13982737018E+03  0.77000000000E+02 0.  0.
   -5000001    1    1    2    0    0 -0.24452674435E+01  0.11402324567E+03  0.17848312427E+03  0.22537192712E+03  0.77000000000E+02 0.  0.
<mgrwt>
<rscale>  0 0.33129192E+03</rscale>
<asrwt>0</asrwt>
<pdfrwt beam="1">  1        2 0.39913453E-01 0.33129192E+03</pdfrwt>
<pdfrwt beam="2">  1       -2 0.16271054E-01 0.33129192E+03</pdfrwt>
<totfact> 0.38329845E+03</totfact>
</mgrwt>
</event>
<event>
 4    1  0.6122885E-004  0.3473083E+03  0.7818608E-02  0.1063725E+00
          2   -1    0    0  501    0  0.00000000000E+00  0.00000000000E+00  0.95827376337E+03  0.95827376337E+03  0.25500000000E-02 0.  1.
         -2   -1    0    0    0  501 -0.00000000000E+00 -0.00000000000E+00 -0.31468833113E+02  0.31468833216E+02  0.25500000000E-02 0. -1.
    5000001    1    1    2    0    0 -0.12611030314E+03  0.17781316885E+02  0.71839996132E+03  0.73365352055E+03  0.77000000000E+02 0.  0.
   -5000001    1    1    2    0    0  0.12611030314E+03 -0.17781316885E+02  0.20840496894E+03  0.25608907604E+03  0.77000000000E+02 0.  0.
<mgrwt>
<rscale>  0 0.34730826E+03</rscale>
<asrwt>0</asrwt>
<pdfrwt beam="1">  1        2 0.14742671E+00 0.34730826E+03</pdfrwt>
<pdfrwt beam="2">  1       -2 0.48413597E-02 0.34730826E+03</pdfrwt>
<totfact> 0.57571400E+03</totfact>
</mgrwt>
</event>
<event>
 4    1  0.6122885E-004  0.2468205E+03  0.7818608E-02  0.1115331E+00
          2   -1    0    0  501    0  0.00000000000E+00  0.00000000000E+00  0.24448370649E+04  0.24448370649E+04  0.25500000000E-02 0.  1.
         -2   -1    0    0    0  501 -0.00000000000E+00 -0.00000000000E+00 -0.62294901035E+01  0.62294906254E+01  0.25500000000E-02 0. -1.
    5000001    1    1    2    0    0  0.13551017254E+02  0.95393556364E+02  0.12608798646E+04  0.12668980202E+04  0.77000000000E+02 0.  0.
   -5000001    1    1    2    0    0 -0.13551017254E+02 -0.95393556364E+02  0.11777277102E+04  0.11841685354E+04  0.77000000000E+02 0.  0.
<mgrwt>
<rscale>  0 0.24682049E+03</rscale>
<asrwt>0</asrwt>
<pdfrwt beam="1">  1        2 0.37612821E+00 0.24682049E+03</pdfrwt>
<pdfrwt beam="2">  1       -2 0.95838458E-03 0.24682049E+03</pdfrwt>
<totfact> 0.97408825E+03</totfact>
</mgrwt>
</event>
<event>
 4    1  0.6122885E-004  0.2173934E+03  0.7818608E-02  0.1135841E+00
         -2   -1    0    0    0  501 -0.00000000000E+00  0.00000000000E+00  0.69925262236E+01  0.69925266885E+01  0.25500000000E-02 0. -1.
          2   -1    0    0  501    0  0.00000000000E+00 -0.00000000000E+00 -0.16896578134E+04  0.16896578134E+04  0.25500000000E-02 0.  1.
    5000001    1    1    2    0    0 -0.72730741434E+02 -0.23834157813E+02 -0.88274009048E+03  0.88939130599E+03  0.77000000000E+02 0.  0.
   -5000001    1    1    2    0    0  0.72730741434E+02  0.23834157813E+02 -0.79992519666E+03  0.80725903407E+03  0.77000000000E+02 0.  0.
<mgrwt>
<rscale>  0 0.21739344E+03</rscale>
<asrwt>0</asrwt>
<pdfrwt beam="1">  1        2 0.25994703E+00 0.21739344E+03</pdfrwt>
<pdfrwt beam="2">  1       -2 0.10757746E-02 0.21739344E+03</pdfrwt>
<totfact> 0.20541897E+04</totfact>
</mgrwt>
</event>
<event>
 4    1  0.6122885E-004  0.3169129E+03  0.7818608E-02  0.1077079E+00
          2   -1    0    0  501    0  0.00000000000E+00  0.00000000000E+00  0.34513570282E+04  0.34513570282E+04  0.25500000000E-02 0. -1.
         -2   -1    0    0    0  501 -0.00000000000E+00 -0.00000000000E+00 -0.72749496897E+01  0.72749501366E+01  0.25500000000E-02 0.  1.
    5000001    1    1    2    0    0 -0.92803152960E+02  0.33664017402E+02  0.66203880485E+03  0.67377301103E+03  0.77000000000E+02 0.  0.
   -5000001    1    1    2    0    0  0.92803152960E+02 -0.33664017402E+02  0.27820432736E+04  0.27848589673E+04  0.77000000000E+02 0.  0.
<mgrwt>
<rscale>  0 0.31691292E+03</rscale>
<asrwt>0</asrwt>
<pdfrwt beam="1">  1        2 0.53097901E+00 0.31691292E+03</pdfrwt>
<pdfrwt beam="2">  1       -2 0.11192209E-02 0.31691292E+03</pdfrwt>
<totfact> 0.19637023E+03</totfact>
</mgrwt>
</event>
<event>
 4    1  0.6122885E-004  0.4964884E+03  0.7818608E-02  0.1014700E+00
         -2   -1    0    0    0  501 -0.00000000000E+00  0.00000000000E+00  0.69199450937E+03  0.69199450938E+03  0.25500000000E-02 0. -1.
          2   -1    0    0  501    0  0.00000000000E+00 -0.00000000000E+00 -0.89054449362E+02  0.89054449398E+02  0.25500000000E-02 0.  1.
    5000001    1    1    2    0    0 -0.18520355969E+03  0.13474327470E+03  0.21192384507E+03  0.32139823383E+03  0.77000000000E+02 0.  0.
   -5000001    1    1    2    0    0  0.18520355969E+03 -0.13474327470E+03  0.39101621494E+03  0.45965072495E+03  0.77000000000E+02 0.  0.
<mgrwt>
<rscale>  0 0.49648843E+03</rscale>
<asrwt>0</asrwt>
<pdfrwt beam="1">  1        2 0.13700684E-01 0.49648843E+03</pdfrwt>
<pdfrwt beam="2">  1       -2 0.10646070E+00 0.49648843E+03</pdfrwt>
<totfact> 0.32242968E+02</totfact>
</mgrwt>
</event>
<event>
 4    1  0.6122885E-004  0.2615802E+03  0.7818608E-02  0.1106197E+00
          2   -1    0    0  501    0  0.00000000000E+00  0.00000000000E+00  0.25911662401E+03  0.25911662402E+03  0.25500000000E-02 0.  1.
         -2   -1    0    0    0  501 -0.00000000000E+00 -0.00000000000E+00 -0.66016819614E+02  0.66016819664E+02  0.25500000000E-02 0. -1.
    5000001    1    1    2    0    0  0.32437285485E+02  0.95372024022E+02  0.56677169597E+02  0.13888593165E+03  0.77000000000E+02 0.  0.
   -5000001    1    1    2    0    0 -0.32437285485E+02 -0.95372024022E+02  0.13642263480E+03  0.18624751204E+03  0.77000000000E+02 0.  0.
<mgrwt>
<rscale>  0 0.26158024E+03</rscale>
<asrwt>0</asrwt>
<pdfrwt beam="1">  1        2 0.39864096E-01 0.26158024E+03</pdfrwt>
<pdfrwt beam="2">  1       -2 0.10156434E-01 0.26158024E+03</pdfrwt>
<totfact> 0.82111842E+03</totfact>
</mgrwt>
</event>
<event>
 4    1  0.6122885E-004  0.2573883E+03  0.7818608E-02  0.1108723E+00
          2   -1    0    0  501    0  0.00000000000E+00  0.00000000000E+00  0.12698598497E+04  0.12698598497E+04  0.25500000000E-02 0.  1.
         -2   -1    0    0    0  501 -0.00000000000E+00 -0.00000000000E+00 -0.13042527952E+02  0.13042528201E+02  0.25500000000E-02 0. -1.
    5000001    1    1    2    0    0  0.99280297505E+02 -0.27734666392E+02  0.64196153655E+03  0.65472849610E+03  0.77000000000E+02 0.  0.
   -5000001    1    1    2    0    0 -0.99280297505E+02  0.27734666392E+02  0.61485578521E+03  0.62817388182E+03  0.77000000000E+02 0.  0.
<mgrwt>
<rscale>  0 0.25738829E+03</rscale>
<asrwt>0</asrwt>
<pdfrwt beam="1">  1        2 0.19536311E+00 0.25738829E+03</pdfrwt>
<pdfrwt beam="2">  1       -2 0.20065422E-02 0.25738829E+03</pdfrwt>
<totfact> 0.13984952E+04</totfact>
</mgrwt>
</event>
<event>
 4    1  0.6122885E-004  0.2495822E+03  0.7818608E-02  0.1113569E+00
          2   -1    0    0  501    0  0.00000000000E+00  0.00000000000E+00  0.20730779527E+04  0.20730779527E+04  0.25500000000E-02 0.  1.
         -2   -1    0    0    0  501 -0.00000000000E+00 -0.00000000000E+00 -0.75119299751E+01  0.75119304079E+01  0.25500000000E-02 0. -1.
    5000001    1    1    2    0    0 -0.32377189851E+02 -0.92627495204E+02  0.10657946996E+04  0.10730682536E+04  0.77000000000E+02 0.  0.
   -5000001    1    1    2    0    0  0.32377189851E+02  0.92627495204E+02  0.99977132309E+03  0.10075216294E+04  0.77000000000E+02 0.  0.
<mgrwt>
<rscale>  0 0.24958219E+03</rscale>
<asrwt>0</asrwt>
<pdfrwt beam="1">  1        2 0.31893512E+00 0.24958219E+03</pdfrwt>
<pdfrwt beam="2">  1       -2 0.11556814E-02 0.24958219E+03</pdfrwt>
<totfact> 0.11719353E+04</totfact>
</mgrwt>
</event>
<event>
 4    1  0.6122885E-004  0.3006465E+03  0.7818608E-02  0.1084918E+00
         -2   -1    0    0    0  501 -0.00000000000E+00  0.00000000000E+00  0.35956777230E+03  0.35956777231E+03  0.25500000000E-02 0. -1.
          2   -1    0    0  501    0  0.00000000000E+00 -0.00000000000E+00 -0.62845100998E+02  0.62845101050E+02  0.25500000000E-02 0.  1.
    5000001    1    1    2    0    0  0.80625332600E+01  0.12702378261E+03  0.11796532441E+03  0.18985484864E+03  0.77000000000E+02 0.  0.
   -5000001    1    1    2    0    0 -0.80625332600E+01 -0.12702378261E+03  0.17875734689E+03  0.23255802472E+03  0.77000000000E+02 0.  0.
<mgrwt>
<rscale>  0 0.30064646E+03</rscale>
<asrwt>0</asrwt>
<pdfrwt beam="1">  1        2 0.96684772E-02 0.30064646E+03</pdfrwt>
<pdfrwt beam="2">  1       -2 0.55318118E-01 0.30064646E+03</pdfrwt>
<totfact> 0.20928183E+03</totfact>
</mgrwt>
</event>
<event>
 4    1  0.6122885E-004  0.1992572E+03  0.7818608E-02  0.1150367E+00
          2   -1    0    0  501    0  0.00000000000E+00  0.00000000000E+00  0.57370961027E+03  0.57370961028E+03  0.25500000000E-02 0.  1.
         -2   -1    0    0    0  501 -0.00000000000E+00 -0.00000000000E+00 -0.17301183290E+02  0.17301183478E+02  0.25500000000E-02 0. -1.
    5000001    1    1    2    0    0  0.61150383129E+00  0.55606172094E+02  0.36740529052E+03  0.37948394935E+03  0.77000000000E+02 0.  0.
   -5000001    1    1    2    0    0 -0.61150383129E+00 -0.55606172094E+02  0.18900313647E+03  0.21152684441E+03  0.77000000000E+02 0.  0.
<mgrwt>
<rscale>  0 0.19925717E+03</rscale>
<asrwt>0</asrwt>
<pdfrwt beam="1">  1        2 0.88263012E-01 0.19925717E+03</pdfrwt>
<pdfrwt beam="2">  1       -2 0.26617207E-02 0.19925717E+03</pdfrwt>
<totfact> 0.26121419E+04</totfact>
</mgrwt>
</event>
<event>
 4    1  0.6122885E-004  0.1706689E+03  0.7818608E-02  0.1177152E+00
         -2   -1    0    0    0  501 -0.00000000000E+00  0.00000000000E+00  0.50155505139E+02  0.50155505204E+02  0.25500000000E-02 0. -1.
          2   -1    0    0  501    0  0.00000000000E+00 -0.00000000000E+00 -0.14518776028E+03  0.14518776031E+03  0.25500000000E-02 0.  1.
    5000001    1    1    2    0    0  0.15381910674E+01  0.23895229092E+02 -0.79474519527E+02  0.11321902340E+03  0.77000000000E+02 0.  0.
   -5000001    1    1    2    0    0 -0.15381910674E+01 -0.23895229092E+02 -0.15557735619E+02  0.82124242113E+02  0.77000000000E+02 0.  0.
<mgrwt>
<rscale>  0 0.17066887E+03</rscale>
<asrwt>0</asrwt>
<pdfrwt beam="1">  1        2 0.22336578E-01 0.17066887E+03</pdfrwt>
<pdfrwt beam="2">  1       -2 0.77162316E-02 0.17066887E+03</pdfrwt>
<totfact> 0.23177102E+04</totfact>
</mgrwt>
</event>
<event>
 4    1  0.6122885E-004  0.4385430E+03  0.7818608E-02  0.1031195E+00
         -2   -1    0    0    0  501 -0.00000000000E+00  0.00000000000E+00  0.42145855902E+02  0.42145855979E+02  0.25500000000E-02 0.  1.
          2   -1    0    0  501    0  0.00000000000E+00 -0.00000000000E+00 -0.11407997175E+04  0.11407997175E+04  0.25500000000E-02 0. -1.
    5000001    1    1    2    0    0  0.14569470102E+03  0.73386815763E+02 -0.88557199149E+03  0.90375844269E+03  0.77000000000E+02 0.  0.
   -5000001    1    1    2    0    0 -0.14569470102E+03 -0.73386815763E+02 -0.21308187015E+03  0.27918713083E+03  0.77000000000E+02 0.  0.
<mgrwt>
<rscale>  0 0.43854295E+03</rscale>
<asrwt>0</asrwt>
<pdfrwt beam="1">  1        2 0.17550763E+00 0.43854295E+03</pdfrwt>
<pdfrwt beam="2">  1       -2 0.64839787E-02 0.43854295E+03</pdfrwt>
<totfact> 0.28433310E+03</totfact>
</mgrwt>
</event>
<event>
 4    1  0.6122885E-004  0.3042874E+03  0.7818608E-02  0.1083117E+00
          2   -1    0    0  501    0  0.00000000000E+00  0.00000000000E+00  0.17861763385E+04  0.17861763385E+04  0.25500000000E-02 0.  1.
         -2   -1    0    0    0  501 -0.00000000000E+00 -0.00000000000E+00 -0.12959365517E+02  0.12959365768E+02  0.25500000000E-02 0. -1.
    5000001    1    1    2    0    0 -0.40509056504E+02  0.12399515995E+03  0.97083559040E+03  0.98258156248E+03  0.77000000000E+02 0.  0.
   -5000001    1    1    2    0    0  0.40509056504E+02 -0.12399515995E+03  0.80238138259E+03  0.81655414179E+03  0.77000000000E+02 0.  0.
<mgrwt>
<rscale>  0 0.30428744E+03</rscale>
<asrwt>0</asrwt>
<pdfrwt beam="1">  1        2 0.27479628E+00 0.30428744E+03</pdfrwt>
<pdfrwt beam="2">  1       -2 0.19937492E-02 0.30428744E+03</pdfrwt>
<totfact> 0.74832402E+03</totfact>
</mgrwt>
</event>
<event>
 4    1  0.6122885E-004  0.1993705E+03  0.7818608E-02  0.1150271E+00
         -2   -1    0    0    0  501 -0.00000000000E+00  0.00000000000E+00  0.39544399260E+01  0.39544407482E+01  0.25500000000E-02 0. -1.
          2   -1    0    0  501    0  0.00000000000E+00 -0.00000000000E+00 -0.25129088130E+04  0.25129088130E+04  0.25500000000E-02 0.  1.
    5000001    1    1    2    0    0 -0.33966507783E+02 -0.17109087480E+02 -0.18934217403E+04  0.18953683893E+04  0.77000000000E+02 0.  0.
   -5000001    1    1    2    0    0  0.33966507783E+02  0.17109087480E+02 -0.61553263284E+03  0.62149486451E+03  0.77000000000E+02 0.  0.
<mgrwt>
<rscale>  0 0.19937049E+03</rscale>
<asrwt>0</asrwt>
<pdfrwt beam="1">  1        2 0.38660008E+00 0.19937049E+03</pdfrwt>
<pdfrwt beam="2">  1       -2 0.60837744E-03 0.19937049E+03</pdfrwt>
<totfact> 0.17154172E+04</totfact>
</mgrwt>
</event>
<event>
 4    1  0.6122885E-004  0.6550546E+03  0.7818608E-02  0.9797341E-01
          2   -1    0    0  501    0  0.00000000000E+00  0.00000000000E+00  0.73638186199E+03  0.73638186199E+03  0.25500000000E-02 0.  1.
         -2   -1    0    0    0  501 -0.00000000000E+00 -0.00000000000E+00 -0.14567730266E+03  0.14567730268E+03  0.25500000000E-02 0. -1.
    5000001    1    1    2    0    0 -0.99754816086E+02 -0.19532139043E+03  0.60606151501E+03  0.64910787152E+03  0.77000000000E+02 0.  0.
   -5000001    1    1    2    0    0  0.99754816086E+02  0.19532139043E+03 -0.15356955683E+02  0.23295129315E+03  0.77000000000E+02 0.  0.
<mgrwt>
<rscale>  0 0.65505457E+03</rscale>
<asrwt>0</asrwt>
<pdfrwt beam="1">  1        2 0.11328952E+00 0.65505457E+03</pdfrwt>
<pdfrwt beam="2">  1       -2 0.22411893E-01 0.65505457E+03</pdfrwt>
<totfact> 0.67375452E+02</totfact>
</mgrwt>
</event>
<event>
 4    1  0.6122885E-004  0.2990728E+03  0.7818608E-02  0.1085705E+00
          2   -1    0    0  501    0  0.00000000000E+00  0.00000000000E+00  0.19845685681E+03  0.19845685683E+03  0.25500000000E-02 0.  1.
         -2   -1    0    0    0  501 -0.00000000000E+00 -0.00000000000E+00 -0.11267503368E+03  0.11267503371E+03  0.25500000000E-02 0. -1.
    5000001    1    1    2    0    0  0.12720504548E+03 -0.14933802405E+02  0.48394889642E+02  0.15708344086E+03  0.77000000000E+02 0.  0.
   -5000001    1    1    2    0    0 -0.12720504548E+03  0.14933802405E+02  0.37386933487E+02  0.15404844967E+03  0.77000000000E+02 0.  0.
<mgrwt>
<rscale>  0 0.29907279E+03</rscale>
<asrwt>0</asrwt>
<pdfrwt beam="1">  1        2 0.30531824E-01 0.29907279E+03</pdfrwt>
<pdfrwt beam="2">  1       -2 0.17334621E-01 0.29907279E+03</pdfrwt>
<totfact> 0.46046657E+03</totfact>
</mgrwt>
</event>
<event>
 4    1  0.6122885E-004  0.1972303E+03  0.7818608E-02  0.1152097E+00
          2   -1    0    0  501    0  0.00000000000E+00  0.00000000000E+00  0.14434976459E+04  0.14434976459E+04  0.25500000000E-02 0.  1.
         -2   -1    0    0    0  501 -0.00000000000E+00 -0.00000000000E+00 -0.67370727065E+01  0.67370731891E+01  0.25500000000E-02 0. -1.
    5000001    1    1    2    0    0 -0.16201626143E+02  0.58753092700E+02  0.78477359278E+03  0.79089380483E+03  0.77000000000E+02 0.  0.
   -5000001    1    1    2    0    0  0.16201626143E+02 -0.58753092700E+02  0.65198698036E+03  0.65934091421E+03  0.77000000000E+02 0.  0.
<mgrwt>
<rscale>  0 0.19723031E+03</rscale>
<asrwt>0</asrwt>
<pdfrwt beam="1">  1        2 0.22207674E+00 0.19723031E+03</pdfrwt>
<pdfrwt beam="2">  1       -2 0.10364719E-02 0.19723031E+03</pdfrwt>
<totfact> 0.29076938E+04</totfact>
</mgrwt>
</event>
<event>
 4    1  0.6122885E-004  0.2454308E+03  0.7818608E-02  0.1116227E+00
          2   -1    0    0  501    0  0.00000000000E+00  0.00000000000E+00  0.18366881528E+02  0.18366881705E+02  0.25500000000E-02 0.  1.
         -2   -1    0    0    0  501 -0.00000000000E+00 -0.00000000000E+00 -0.81990310747E+03  0.81990310748E+03  0.25500000000E-02 0. -1.
    5000001    1    1    2    0    0  0.94399308107E+02 -0.92546230039E+01 -0.36135106792E+03  0.38144524077E+03  0.77000000000E+02 0.  0.
   -5000001    1    1    2    0    0 -0.94399308107E+02  0.92546230039E+01 -0.44018515803E+03  0.45682474842E+03  0.77000000000E+02 0.  0.
<mgrwt>
<rscale>  0 0.24543075E+03</rscale>
<asrwt>0</asrwt>
<pdfrwt beam="1">  1        2 0.28256747E-02 0.24543075E+03</pdfrwt>
<pdfrwt beam="2">  1       -2 0.12613891E+00 0.24543075E+03</pdfrwt>
<totfact> 0.16619312E+03</totfact>
</mgrwt>
</event>
<event>
 4    1  0.6122885E-004  0.2043093E+03  0.7818608E-02  0.1146153E+00
          2   -1    0    0  501    0  0.00000000000E+00  0.00000000000E+00  0.24971784187E+03  0.24971784188E+03  0.25500000000E-02 0.  1.
         -2   -1    0    0    0  501 -0.00000000000E+00 -0.00000000000E+00 -0.41789466290E+02  0.41789466368E+02  0.25500000000E-02 0. -1.
    5000001    1    1    2    0    0 -0.20596932918E+02 -0.25184451399E+02  0.20182280843E+02  0.85993108433E+02  0.77000000000E+02 0.  0.
   -5000001    1    1    2    0    0  0.20596932918E+02  0.25184451399E+02  0.18774609474E+03  0.20551419982E+03  0.77000000000E+02 0.  0.
<mgrwt>
<rscale>  0 0.20430933E+03</rscale>
<asrwt>0</asrwt>
<pdfrwt beam="1">  1        2 0.38418130E-01 0.20430933E+03</pdfrwt>
<pdfrwt beam="2">  1       -2 0.64291485E-02 0.20430933E+03</pdfrwt>
<totfact> 0.17199309E+04</totfact>
</mgrwt>
</event>
<event>
 4    1  0.6122885E-004  0.2254835E+03  0.7818608E-02  0.1129860E+00
          2   -1    0    0  501    0  0.00000000000E+00  0.00000000000E+00  0.31080181513E+03  0.31080181514E+03  0.25500000000E-02 0.  1.
         -2   -1    0    0    0  501 -0.00000000000E+00 -0.00000000000E+00 -0.40896481758E+02  0.40896481837E+02  0.25500000000E-02 0. -1.
    5000001    1    1    2    0    0  0.47153822380E+00 -0.75752064171E+02  0.84577190805E+02  0.13718928085E+03  0.77000000000E+02 0.  0.
   -5000001    1    1    2    0    0 -0.47153822380E+00  0.75752064171E+02  0.18532814256E+03  0.21450901613E+03  0.77000000000E+02 0.  0.
<mgrwt>
<rscale>  0 0.22548349E+03</rscale>
<asrwt>0</asrwt>
<pdfrwt beam="1">  1        2 0.47815665E-01 0.22548349E+03</pdfrwt>
<pdfrwt beam="2">  1       -2 0.62917663E-02 0.22548349E+03</pdfrwt>
<totfact> 0.14152996E+04</totfact>
</mgrwt>
</event>
<event>
 4    1  0.6122885E-004  0.3271677E+03  0.7818608E-02  0.1072397E+00
         -2   -1    0    0    0  501 -0.00000000000E+00  0.00000000000E+00  0.25205866892E+02  0.25205867021E+02  0.25500000000E-02 0. -1.
          2   -1    0    0  501    0  0.00000000000E+00 -0.00000000000E+00 -0.10616449698E+04  0.10616449698E+04  0.25500000000E-02 0.  1.
    5000001    1    1    2    0    0 -0.12130433342E+03  0.71337056371E+02 -0.62467730211E+03  0.64494530674E+03  0.77000000000E+02 0.  0.
   -5000001    1    1    2    0    0  0.12130433342E+03 -0.71337056371E+02 -0.41176180076E+03  0.44190553004E+03  0.77000000000E+02 0.  0.
<mgrwt>
<rscale>  0 0.32716774E+03</rscale>
<asrwt>0</asrwt>
<pdfrwt beam="1">  1        2 0.16332996E+00 0.32716774E+03</pdfrwt>
<pdfrwt beam="2">  1       -2 0.38778265E-02 0.32716774E+03</pdfrwt>
<totfact> 0.69578808E+03</totfact>
</mgrwt>
</event>
<event>
 4    1  0.6122885E-004  0.1963859E+03  0.7818608E-02  0.1152825E+00
          2   -1    0    0  501    0  0.00000000000E+00  0.00000000000E+00  0.28318982506E+03  0.28318982507E+03  0.25500000000E-02 0.  1.
         -2   -1    0    0    0  501 -0.00000000000E+00 -0.00000000000E+00 -0.34047330213E+02  0.34047330308E+02  0.25500000000E-02 0. -1.
    5000001    1    1    2    0    0  0.14523251162E+02 -0.59169177759E+02  0.12300418023E+03  0.15738788001E+03  0.77000000000E+02 0.  0.
   -5000001    1    1    2    0    0 -0.14523251162E+02  0.59169177759E+02  0.12613831462E+03  0.15984927537E+03  0.77000000000E+02 0.  0.
<mgrwt>
<rscale>  0 0.19638592E+03</rscale>
<asrwt>0</asrwt>
<pdfrwt beam="1">  1        2 0.43567665E-01 0.19638592E+03</pdfrwt>
<pdfrwt beam="2">  1       -2 0.52380508E-02 0.19638592E+03</pdfrwt>
<totfact> 0.20481831E+04</totfact>
</mgrwt>
</event>
<event>
 4    1  0.6122885E-004  0.6467372E+03  0.7818608E-02  0.9812921E-01
         -2   -1    0    0    0  501 -0.00000000000E+00  0.00000000000E+00  0.72694779566E+02  0.72694779611E+02  0.25500000000E-02 0. -1.
          2   -1    0    0  501    0  0.00000000000E+00 -0.00000000000E+00 -0.14384423236E+04  0.14384423236E+04  0.25500000000E-02 0.  1.
    5000001    1    1    2    0    0  0.92978113257E+02  0.28558041994E+03 -0.46825203241E+03  0.56159600395E+03  0.77000000000E+02 0.  0.
   -5000001    1    1    2    0    0 -0.92978113257E+02 -0.28558041994E+03 -0.89749551163E+03  0.94954109927E+03  0.77000000000E+02 0.  0.
<mgrwt>
<rscale>  0 0.64673719E+03</rscale>
<asrwt>0</asrwt>
<pdfrwt beam="1">  1        2 0.22129880E+00 0.64673719E+03</pdfrwt>
<pdfrwt beam="2">  1       -2 0.11183813E-01 0.64673719E+03</pdfrwt>
<totfact> 0.79878079E+02</totfact>
</mgrwt>
</event>
<event>
 4    1  0.6122885E-004  0.4255746E+03  0.7818608E-02  0.1035267E+00
          2   -1    0    0  501    0  0.00000000000E+00  0.00000000000E+00  0.16180365577E+04  0.16180365577E+04  0.25500000000E-02 0.  1.
         -2   -1    0    0    0  501 -0.00000000000E+00 -0.00000000000E+00 -0.27983572405E+02  0.27983572521E+02  0.25500000000E-02 0. -1.
    5000001    1    1    2    0    0  0.28883238459E+02 -0.14954603292E+03  0.12865695996E+04  0.12978399717E+04  0.77000000000E+02 0.  0.
   -5000001    1    1    2    0    0 -0.28883238459E+02  0.14954603292E+03  0.30348338575E+03  0.34818015861E+03  0.77000000000E+02 0.  0.
<mgrwt>
<rscale>  0 0.42557464E+03</rscale>
<asrwt>0</asrwt>
<pdfrwt beam="1">  1        2 0.24892873E+00 0.42557464E+03</pdfrwt>
<pdfrwt beam="2">  1       -2 0.43051645E-02 0.42557464E+03</pdfrwt>
<totfact> 0.28965137E+03</totfact>
</mgrwt>
</event>
<event>
 4    1  0.6122885E-004  0.1770571E+03  0.7818608E-02  0.1170682E+00
          2   -1    0    0  501    0  0.00000000000E+00  0.00000000000E+00  0.39554167467E+03  0.39554167468E+03  0.25500000000E-02 0.  1.
         -2   -1    0    0    0  501 -0.00000000000E+00 -0.00000000000E+00 -0.19814103057E+02  0.19814103221E+02  0.25500000000E-02 0. -1.
    5000001    1    1    2    0    0 -0.42428295462E+02  0.12319876575E+01  0.16364025478E+03  0.18576547320E+03  0.77000000000E+02 0.  0.
   -5000001    1    1    2    0    0  0.42428295462E+02 -0.12319876575E+01  0.21208731684E+03  0.22959030471E+03  0.77000000000E+02 0.  0.
<mgrwt>
<rscale>  0 0.17705709E+03</rscale>
<asrwt>0</asrwt>
<pdfrwt beam="1">  1        2 0.60852563E-01 0.17705709E+03</pdfrwt>
<pdfrwt beam="2">  1       -2 0.30483237E-02 0.17705709E+03</pdfrwt>
<totfact> 0.31910606E+04</totfact>
</mgrwt>
</event>
<event>
 4    1  0.6122885E-004  0.4027708E+03  0.7818608E-02  0.1042824E+00
         -2   -1    0    0    0  501 -0.00000000000E+00  0.00000000000E+00  0.24212503021E+03  0.24212503023E+03  0.25500000000E-02 0. -1.
          2   -1    0    0  501    0  0.00000000000E+00 -0.00000000000E+00 -0.16750054512E+03  0.16750054514E+03  0.25500000000E-02 0.  1.
    5000001    1    1    2    0    0  0.90963627604E+02  0.62113132993E+02 -0.11522249146E+03  0.17702442028E+03  0.77000000000E+02 0.  0.
   -5000001    1    1    2    0    0 -0.90963627604E+02 -0.62113132993E+02  0.18984697656E+03  0.23260115508E+03  0.77000000000E+02 0.  0.
<mgrwt>
<rscale>  0 0.40277078E+03</rscale>
<asrwt>0</asrwt>
<pdfrwt beam="1">  1        2 0.25769315E-01 0.40277078E+03</pdfrwt>
<pdfrwt beam="2">  1       -2 0.37250005E-01 0.40277078E+03</pdfrwt>
<totfact> 0.14295611E+03</totfact>
</mgrwt>
</event>
<event>
 4    1  0.6122885E-004  0.2576558E+03  0.7818608E-02  0.1108560E+00
         -2   -1    0    0    0  501 -0.00000000000E+00  0.00000000000E+00  0.11288941933E+02  0.11288942221E+02  0.25500000000E-02 0. -1.
          2   -1    0    0  501    0  0.00000000000E+00 -0.00000000000E+00 -0.14701666191E+04  0.14701666191E+04  0.25500000000E-02 0.  1.
    5000001    1    1    2    0    0  0.60325713387E+02  0.74136058857E+02 -0.50436882295E+03  0.51908790824E+03  0.77000000000E+02 0.  0.
   -5000001    1    1    2    0    0 -0.60325713387E+02 -0.74136058857E+02 -0.95450885422E+03  0.96236765308E+03  0.77000000000E+02 0.  0.
<mgrwt>
<rscale>  0 0.25765578E+03</rscale>
<asrwt>0</asrwt>
<pdfrwt beam="1">  1        2 0.22617933E+00 0.25765578E+03</pdfrwt>
<pdfrwt beam="2">  1       -2 0.17367615E-02 0.25765578E+03</pdfrwt>
<totfact> 0.13441557E+04</totfact>
</mgrwt>
</event>
<event>
 4    1  0.6122885E-004  0.2757949E+03  0.7818608E-02  0.1098008E+00
         -2   -1    0    0    0  501 -0.00000000000E+00  0.00000000000E+00  0.18739803521E+03  0.18739803523E+03  0.25500000000E-02 0. -1.
          2   -1    0    0  501    0  0.00000000000E+00 -0.00000000000E+00 -0.10147226008E+03  0.10147226011E+03  0.25500000000E-02 0.  1.
    5000001    1    1    2    0    0  0.35342110926E+02 -0.69150442584E+02  0.13094441326E+03  0.17060565019E+03  0.77000000000E+02 0.  0.
   -5000001    1    1    2    0    0 -0.35342110926E+02  0.69150442584E+02 -0.45018638123E+02  0.11826464515E+03  0.77000000000E+02 0.  0.
<mgrwt>
<rscale>  0 0.27579487E+03</rscale>
<asrwt>0</asrwt>
<pdfrwt beam="1">  1        2 0.15611117E-01 0.27579487E+03</pdfrwt>
<pdfrwt beam="2">  1       -2 0.28830467E-01 0.27579487E+03</pdfrwt>
<totfact> 0.40632097E+03</totfact>
</mgrwt>
</event>
<event>
 4    1  0.6122885E-004  0.2636957E+03  0.7818608E-02  0.1104943E+00
          2   -1    0    0  501    0  0.00000000000E+00  0.00000000000E+00  0.47100856994E+03  0.47100856995E+03  0.25500000000E-02 0.  1.
         -2   -1    0    0    0  501 -0.00000000000E+00 -0.00000000000E+00 -0.36907718283E+02  0.36907718371E+02  0.25500000000E-02 0. -1.
    5000001    1    1    2    0    0 -0.15897396951E+02 -0.10371811904E+03  0.25766772834E+03  0.28867253710E+03  0.77000000000E+02 0.  0.
   -5000001    1    1    2    0    0  0.15897396951E+02  0.10371811904E+03  0.17643312332E+03  0.21924375122E+03  0.77000000000E+02 0.  0.
<mgrwt>
<rscale>  0 0.26369567E+03</rscale>
<asrwt>0</asrwt>
<pdfrwt beam="1">  1        2 0.72462857E-01 0.26369567E+03</pdfrwt>
<pdfrwt beam="2">  1       -2 0.56781105E-02 0.26369567E+03</pdfrwt>
<totfact> 0.10637609E+04</totfact>
</mgrwt>
</event>
<event>
 4    1  0.6122885E-004  0.3216886E+03  0.7818608E-02  0.1074875E+00
         -2   -1    0    0    0  501 -0.00000000000E+00  0.00000000000E+00  0.81614029552E+02  0.81614029592E+02  0.25500000000E-02 0. -1.
          2   -1    0    0  501    0  0.00000000000E+00 -0.00000000000E+00 -0.31699068492E+03  0.31699068493E+03  0.25500000000E-02 0.  1.
    5000001    1    1    2    0    0  0.11260321326E+03  0.16398406450E+02 -0.14065859421E+02  0.13811314120E+03  0.77000000000E+02 0.  0.
   -5000001    1    1    2    0    0 -0.11260321326E+03 -0.16398406450E+02 -0.22131079595E+03  0.26049157332E+03  0.77000000000E+02 0.  0.
<mgrwt>
<rscale>  0 0.32168859E+03</rscale>
<asrwt>0</asrwt>
<pdfrwt beam="1">  1        2 0.48767797E-01 0.32168859E+03</pdfrwt>
<pdfrwt beam="2">  1       -2 0.12556005E-01 0.32168859E+03</pdfrwt>
<totfact> 0.47301106E+03</totfact>
</mgrwt>
</event>
<event>
 4    1  0.6122885E-004  0.2576719E+03  0.7818608E-02  0.1108550E+00
         -2   -1    0    0    0  501 -0.00000000000E+00  0.00000000000E+00  0.28418011484E+03  0.28418011486E+03  0.25500000000E-02 0. -1.
          2   -1    0    0  501    0  0.00000000000E+00 -0.00000000000E+00 -0.58409090004E+02  0.58409090059E+02  0.25500000000E-02 0.  1.
    5000001    1    1    2    0    0 -0.64436793656E+02  0.69011058410E+02  0.57185601619E+02  0.13458759078E+03  0.77000000000E+02 0.  0.
   -5000001    1    1    2    0    0  0.64436793656E+02 -0.69011058410E+02  0.16858542322E+03  0.20800161413E+03  0.77000000000E+02 0.  0.
<mgrwt>
<rscale>  0 0.25767190E+03</rscale>
<asrwt>0</asrwt>
<pdfrwt beam="1">  1        2 0.89860137E-02 0.25767190E+03</pdfrwt>
<pdfrwt beam="2">  1       -2 0.43720018E-01 0.25767190E+03</pdfrwt>
<totfact> 0.36470959E+03</totfact>
</mgrwt>
</event>
<event>
 4    1  0.6122885E-004  0.3505141E+03  0.7818608E-02  0.1062404E+00
          2   -1    0    0  501    0  0.00000000000E+00  0.00000000000E+00  0.19263512118E+04  0.19263512118E+04  0.25500000000E-02 0.  1.
         -2   -1    0    0    0  501 -0.00000000000E+00 -0.00000000000E+00 -0.15944666975E+02  0.15944667179E+02  0.25500000000E-02 0. -1.
    5000001    1    1    2    0    0 -0.39268729372E+02 -0.14068535528E+03  0.62965018055E+03  0.65093989904E+03  0.77000000000E+02 0.  0.
   -5000001    1    1    2    0    0  0.39268729372E+02  0.14068535528E+03  0.12807563642E+04  0.12913559799E+04  0.77000000000E+02 0.  0.
<mgrwt>
<rscale>  0 0.35051407E+03</rscale>
<asrwt>0</asrwt>
<pdfrwt beam="1">  1        2 0.29636157E+00 0.35051407E+03</pdfrwt>
<pdfrwt beam="2">  1       -2 0.24530270E-02 0.35051407E+03</pdfrwt>
<totfact> 0.46401318E+03</totfact>
</mgrwt>
</event>
<event>
 4    1  0.6122885E-004  0.2674430E+03  0.7818608E-02  0.1102752E+00
          2   -1    0    0  501    0  0.00000000000E+00  0.00000000000E+00  0.11736555832E+04  0.11736555832E+04  0.25500000000E-02 0.  1.
         -2   -1    0    0    0  501 -0.00000000000E+00 -0.00000000000E+00 -0.15235681548E+02  0.15235681761E+02  0.25500000000E-02 0. -1.
    5000001    1    1    2    0    0  0.96296101552E+02  0.11912604635E+02  0.35527499610E+03  0.37625014575E+03  0.77000000000E+02 0.  0.
   -5000001    1    1    2    0    0 -0.96296101552E+02 -0.11912604635E+02  0.80314490557E+03  0.81264111924E+03  0.77000000000E+02 0.  0.
<mgrwt>
<rscale>  0 0.26744302E+03</rscale>
<asrwt>0</asrwt>
<pdfrwt beam="1">  1        2 0.18056242E+00 0.26744302E+03</pdfrwt>
<pdfrwt beam="2">  1       -2 0.23439508E-02 0.26744302E+03</pdfrwt>
<totfact> 0.12619032E+04</totfact>
</mgrwt>
</event>
<event>
 4    1  0.6122885E-004  0.1933331E+03  0.7818608E-02  0.1155489E+00
          2   -1    0    0  501    0  0.00000000000E+00  0.00000000000E+00  0.52067016444E+03  0.52067016445E+03  0.25500000000E-02 0.  1.
         -2   -1    0    0    0  501 -0.00000000000E+00 -0.00000000000E+00 -0.17946921270E+02  0.17946921451E+02  0.25500000000E-02 0. -1.
    5000001    1    1    2    0    0  0.35711603802E+01  0.46361482640E+02  0.15273391378E+03  0.17725345886E+03  0.77000000000E+02 0.  0.
   -5000001    1    1    2    0    0 -0.35711603802E+01 -0.46361482640E+02  0.34998932939E+03  0.36136362704E+03  0.77000000000E+02 0.  0.
<mgrwt>
<rscale>  0 0.19333315E+03</rscale>
<asrwt>0</asrwt>
<pdfrwt beam="1">  1        2 0.80103093E-01 0.19333315E+03</pdfrwt>
<pdfrwt beam="2">  1       -2 0.27610652E-02 0.19333315E+03</pdfrwt>
<totfact> 0.27546362E+04</totfact>
</mgrwt>
</event>
<event>
 4    1  0.6122885E-004  0.8193393E+03  0.7818608E-02  0.9532439E-01
          2   -1    0    0  501    0  0.00000000000E+00  0.00000000000E+00  0.58582469119E+03  0.58582469119E+03  0.25500000000E-02 0.  1.
         -2   -1    0    0    0  501 -0.00000000000E+00 -0.00000000000E+00 -0.28648370413E+03  0.28648370414E+03  0.25500000000E-02 0. -1.
    5000001    1    1    2    0    0  0.29971887449E+03  0.73509319534E+02  0.42455854582E+03  0.53048466765E+03  0.77000000000E+02 0.  0.
   -5000001    1    1    2    0    0 -0.29971887449E+03 -0.73509319534E+02 -0.12521755876E+03  0.34182372768E+03  0.77000000000E+02 0.  0.
<mgrwt>
<rscale>  0 0.81933931E+03</rscale>
<asrwt>0</asrwt>
<pdfrwt beam="1">  1        2 0.90126875E-01 0.81933931E+03</pdfrwt>
<pdfrwt beam="2">  1       -2 0.44074416E-01 0.81933931E+03</pdfrwt>
<totfact> 0.25068071E+02</totfact>
</mgrwt>
</event>
<event>
 4    1  0.6122885E-004  0.2406094E+03  0.7818608E-02  0.1119388E+00
         -2   -1    0    0    0  501 -0.00000000000E+00  0.00000000000E+00  0.62185290735E+02  0.62185290787E+02  0.25500000000E-02 0. -1.
          2   -1    0    0  501    0  0.00000000000E+00 -0.00000000000E+00 -0.23274341430E+03  0.23274341431E+03  0.25500000000E-02 0.  1.
    5000001    1    1    2    0    0 -0.66306368230E+02 -0.13980963170E+02 -0.16233831562E+03  0.19202794203E+03  0.77000000000E+02 0.  0.
   -5000001    1    1    2    0    0  0.66306368230E+02  0.13980963170E+02 -0.82198079426E+01  0.10290076308E+03  0.77000000000E+02 0.  0.
<mgrwt>
<rscale>  0 0.24060937E+03</rscale>
<asrwt>0</asrwt>
<pdfrwt beam="1">  1        2 0.35806679E-01 0.24060937E+03</pdfrwt>
<pdfrwt beam="2">  1       -2 0.95669679E-02 0.24060937E+03</pdfrwt>
<totfact> 0.10098114E+04</totfact>
</mgrwt>
</event>
<event>
 4    1  0.6122885E-004  0.2608824E+03  0.7818608E-02  0.1106614E+00
         -2   -1    0    0    0  501 -0.00000000000E+00  0.00000000000E+00  0.95469305879E+01  0.95469309284E+01  0.25500000000E-02 0. -1.
          2   -1    0    0  501    0  0.00000000000E+00 -0.00000000000E+00 -0.17822384569E+04  0.17822384569E+04  0.25500000000E-02 0.  1.
    5000001    1    1    2    0    0 -0.72700449610E+02  0.74573945183E+02 -0.78010455111E+03  0.79078362359E+03  0.77000000000E+02 0.  0.
   -5000001    1    1    2    0    0  0.72700449610E+02 -0.74573945183E+02 -0.99258697519E+03  0.10010017642E+04  0.77000000000E+02 0.  0.
<mgrwt>
<rscale>  0 0.26088240E+03</rscale>
<asrwt>0</asrwt>
<pdfrwt beam="1">  1        2 0.27419027E+00 0.26088240E+03</pdfrwt>
<pdfrwt beam="2">  1       -2 0.14687600E-02 0.26088240E+03</pdfrwt>
<totfact> 0.11751001E+04</totfact>
</mgrwt>
</event>
<event>
 4    1  0.6122885E-004  0.3009987E+03  0.7818608E-02  0.1084742E+00
         -2   -1    0    0    0  501 -0.00000000000E+00  0.00000000000E+00  0.13231408870E+03  0.13231408873E+03  0.25500000000E-02 0. -1.
          2   -1    0    0  501    0  0.00000000000E+00 -0.00000000000E+00 -0.17118404957E+03  0.17118404959E+03  0.25500000000E-02 0.  1.
    5000001    1    1    2    0    0 -0.12587897044E+03 -0.21915010141E+02  0.61172576084E+00  0.14918162446E+03  0.77000000000E+02 0.  0.
   -5000001    1    1    2    0    0  0.12587897044E+03  0.21915010141E+02 -0.39481686627E+02  0.15431651385E+03  0.77000000000E+02 0.  0.
<mgrwt>
<rscale>  0 0.30099875E+03</rscale>
<asrwt>0</asrwt>
<pdfrwt beam="1">  1        2 0.26336008E-01 0.30099875E+03</pdfrwt>
<pdfrwt beam="2">  1       -2 0.20356014E-01 0.30099875E+03</pdfrwt>
<totfact> 0.41273355E+03</totfact>
</mgrwt>
</event>
<event>
 4    1  0.6122885E-004  0.1863102E+03  0.7818608E-02  0.1161832E+00
         -2   -1    0    0    0  501 -0.00000000000E+00  0.00000000000E+00  0.17209555753E+02  0.17209555942E+02  0.25500000000E-02 0. -1.
          2   -1    0    0  501    0  0.00000000000E+00 -0.00000000000E+00 -0.50424743598E+03  0.50424743598E+03  0.25500000000E-02 0.  1.
    5000001    1    1    2    0    0 -0.13975384637E+02  0.50524566179E+02 -0.24607074649E+03  0.26311186869E+03  0.77000000000E+02 0.  0.
   -5000001    1    1    2    0    0  0.13975384637E+02 -0.50524566179E+02 -0.24096713373E+03  0.25834512324E+03  0.77000000000E+02 0.  0.
<mgrwt>
<rscale>  0 0.18631022E+03</rscale>
<asrwt>0</asrwt>
<pdfrwt beam="1">  1        2 0.77576517E-01 0.18631022E+03</pdfrwt>
<pdfrwt beam="2">  1       -2 0.26476244E-02 0.18631022E+03</pdfrwt>
<totfact> 0.30277149E+04</totfact>
</mgrwt>
</event>
<event>
 4    1  0.6122885E-004  0.1935689E+03  0.7818608E-02  0.1155281E+00
         -2   -1    0    0    0  501 -0.00000000000E+00  0.00000000000E+00  0.66557990345E+02  0.66557990393E+02  0.25500000000E-02 0. -1.
          2   -1    0    0  501    0  0.00000000000E+00 -0.00000000000E+00 -0.14073782742E+03  0.14073782744E+03  0.25500000000E-02 0.  1.
    5000001    1    1    2    0    0 -0.27207838878E+02 -0.31595299877E+02 -0.81240948600E+02  0.11944714815E+03  0.77000000000E+02 0.  0.
   -5000001    1    1    2    0    0  0.27207838878E+02  0.31595299877E+02  0.70611115232E+01  0.87848669692E+02  0.77000000000E+02 0.  0.
<mgrwt>
<rscale>  0 0.19356887E+03</rscale>
<asrwt>0</asrwt>
<pdfrwt beam="1">  1        2 0.21651973E-01 0.19356887E+03</pdfrwt>
<pdfrwt beam="2">  1       -2 0.10239691E-01 0.19356887E+03</pdfrwt>
<totfact> 0.15576350E+04</totfact>
</mgrwt>
</event>
<event>
 4    1  0.6122885E-004  0.1836834E+03  0.7818608E-02  0.1164285E+00
          2   -1    0    0  501    0  0.00000000000E+00  0.00000000000E+00  0.16459868866E+04  0.16459868866E+04  0.25500000000E-02 0.  1.
         -2   -1    0    0    0  501 -0.00000000000E+00 -0.00000000000E+00 -0.51245251905E+01  0.51245258249E+01  0.25500000000E-02 0. -1.
    5000001    1    1    2    0    0  0.14103571268E+02  0.44491183352E+02  0.98310926175E+03  0.98722398505E+03  0.77000000000E+02 0.  0.
   -5000001    1    1    2    0    0 -0.14103571268E+02 -0.44491183352E+02  0.65775309971E+03  0.66388742743E+03  0.77000000000E+02 0.  0.
<mgrwt>
<rscale>  0 0.18368344E+03</rscale>
<asrwt>0</asrwt>
<pdfrwt beam="1">  1        2 0.25322894E+00 0.18368344E+03</pdfrwt>
<pdfrwt beam="2">  1       -2 0.78838797E-03 0.18368344E+03</pdfrwt>
<totfact> 0.33587122E+04</totfact>
</mgrwt>
</event>
<event>
 4    1  0.6122885E-004  0.1947725E+03  0.7818608E-02  0.1154226E+00
          2   -1    0    0  501    0  0.00000000000E+00  0.00000000000E+00  0.43888630363E+03  0.43888630364E+03  0.25500000000E-02 0.  1.
         -2   -1    0    0    0  501 -0.00000000000E+00 -0.00000000000E+00 -0.21609430768E+02  0.21609430918E+02  0.25500000000E-02 0. -1.
    5000001    1    1    2    0    0  0.12958710845E+02  0.35922101068E+02  0.10037742981E+03  0.13214747045E+03  0.77000000000E+02 0.  0.
   -5000001    1    1    2    0    0 -0.12958710845E+02 -0.35922101068E+02  0.31689944306E+03  0.32834826411E+03  0.77000000000E+02 0.  0.
<mgrwt>
<rscale>  0 0.19477252E+03</rscale>
<asrwt>0</asrwt>
<pdfrwt beam="1">  1        2 0.67520962E-01 0.19477252E+03</pdfrwt>
<pdfrwt beam="2">  1       -2 0.33245282E-02 0.19477252E+03</pdfrwt>
<totfact> 0.25276938E+04</totfact>
</mgrwt>
</event>
<event>
 4    1  0.6122885E-004  0.1988910E+03  0.7818608E-02  0.1150678E+00
          2   -1    0    0  501    0  0.00000000000E+00  0.00000000000E+00  0.26052240645E+04  0.26052240645E+04  0.25500000000E-02 0.  1.
         -2   -1    0    0    0  501 -0.00000000000E+00 -0.00000000000E+00 -0.37959914745E+01  0.37959923310E+01  0.25500000000E-02 0. -1.
    5000001    1    1    2    0    0 -0.36919665639E+02  0.50859044081E+02  0.12577936808E+04  0.12617145666E+04  0.77000000000E+02 0.  0.
   -5000001    1    1    2    0    0  0.36919665639E+02 -0.50859044081E+02  0.13436343922E+04  0.13473054903E+04  0.77000000000E+02 0.  0.
<mgrwt>
<rscale>  0 0.19889102E+03</rscale>
<asrwt>0</asrwt>
<pdfrwt beam="1">  1        2 0.40080416E+00 0.19889102E+03</pdfrwt>
<pdfrwt beam="2">  1       -2 0.58399808E-03 0.19889102E+03</pdfrwt>
<totfact> 0.16194238E+04</totfact>
</mgrwt>
</event>
<event>
 4    1  0.6122885E-004  0.1989047E+03  0.7818608E-02  0.1150666E+00
          2   -1    0    0  501    0  0.00000000000E+00  0.00000000000E+00  0.11361354096E+04  0.11361354096E+04  0.25500000000E-02 0.  1.
         -2   -1    0    0    0  501 -0.00000000000E+00 -0.00000000000E+00 -0.87056214192E+01  0.87056217927E+01  0.25500000000E-02 0. -1.
    5000001    1    1    2    0    0 -0.44423306448E+02  0.20443565595E+02  0.33562567274E+03  0.34780017500E+03  0.77000000000E+02 0.  0.
   -5000001    1    1    2    0    0  0.44423306448E+02 -0.20443565595E+02  0.79180411547E+03  0.79704085643E+03  0.77000000000E+02 0.  0.
<mgrwt>
<rscale>  0 0.19890465E+03</rscale>
<asrwt>0</asrwt>
<pdfrwt beam="1">  1        2 0.17478999E+00 0.19890465E+03</pdfrwt>
<pdfrwt beam="2">  1       -2 0.13393269E-02 0.19890465E+03</pdfrwt>
<totfact> 0.29642298E+04</totfact>
</mgrwt>
</event>
<event>
 4    1  0.6122885E-004  0.2100827E+03  0.7818608E-02  0.1141501E+00
         -2   -1    0    0    0  501 -0.00000000000E+00  0.00000000000E+00  0.51949373043E+02  0.51949373106E+02  0.25500000000E-02 0. -1.
          2   -1    0    0  501    0  0.00000000000E+00 -0.00000000000E+00 -0.21239303486E+03  0.21239303487E+03  0.25500000000E-02 0.  1.
    5000001    1    1    2    0    0  0.62444906063E+02  0.77798926507E+01 -0.37648282823E+02  0.10633102192E+03  0.77000000000E+02 0.  0.
   -5000001    1    1    2    0    0 -0.62444906063E+02 -0.77798926507E+01 -0.12279537899E+03  0.15801138606E+03  0.77000000000E+02 0.  0.
<mgrwt>
<rscale>  0 0.21008270E+03</rscale>
<asrwt>0</asrwt>
<pdfrwt beam="1">  1        2 0.32675851E-01 0.21008270E+03</pdfrwt>
<pdfrwt beam="2">  1       -2 0.79922114E-02 0.21008270E+03</pdfrwt>
<totfact> 0.14665569E+04</totfact>
</mgrwt>
</event>
<event>
 4    1  0.6122885E-004  0.2597814E+03  0.7818608E-02  0.1107275E+00
          2   -1    0    0  501    0  0.00000000000E+00  0.00000000000E+00  0.12017393410E+04  0.12017393410E+04  0.25500000000E-02 0.  1.
         -2   -1    0    0    0  501 -0.00000000000E+00 -0.00000000000E+00 -0.14039313387E+02  0.14039313619E+02  0.25500000000E-02 0. -1.
    5000001    1    1    2    0    0 -0.50320051759E+01 -0.10391065416E+03  0.54261511387E+03  0.55783770662E+03  0.77000000000E+02 0.  0.
   -5000001    1    1    2    0    0  0.50320051759E+01  0.10391065416E+03  0.64508491377E+03  0.65794094803E+03  0.77000000000E+02 0.  0.
<mgrwt>
<rscale>  0 0.25978141E+03</rscale>
<asrwt>0</asrwt>
<pdfrwt beam="1">  1        2 0.18488305E+00 0.25978141E+03</pdfrwt>
<pdfrwt beam="2">  1       -2 0.21598935E-02 0.25978141E+03</pdfrwt>
<totfact> 0.13708648E+04</totfact>
</mgrwt>
</event>
<event>
 4    1  0.6122885E-004  0.2525956E+03  0.7818608E-02  0.1111675E+00
         -2   -1    0    0    0  501 -0.00000000000E+00  0.00000000000E+00  0.18036154482E+04  0.18036154482E+04  0.25500000000E-02 0. -1.
          2   -1    0    0  501    0  0.00000000000E+00 -0.00000000000E+00 -0.88439790239E+01  0.88439793915E+01  0.25500000000E-02 0.  1.
    5000001    1    1    2    0    0  0.20777802616E+02  0.97898090550E+02  0.91551580536E+03  0.92418285154E+03  0.77000000000E+02 0.  0.
   -5000001    1    1    2    0    0 -0.20777802616E+02 -0.97898090550E+02  0.87925566386E+03  0.88827657610E+03  0.77000000000E+02 0.  0.
<mgrwt>
<rscale>  0 0.25259563E+03</rscale>
<asrwt>0</asrwt>
<pdfrwt beam="1">  1        2 0.13606114E-02 0.25259563E+03</pdfrwt>
<pdfrwt beam="2">  1       -2 0.27747946E+00 0.25259563E+03</pdfrwt>
<totfact> 0.46367718E+02</totfact>
</mgrwt>
</event>
<event>
 4    1  0.6122885E-004  0.3370124E+03  0.7818608E-02  0.1068076E+00
         -2   -1    0    0    0  501 -0.00000000000E+00  0.00000000000E+00  0.13633639043E+03  0.13633639046E+03  0.25500000000E-02 0. -1.
          2   -1    0    0  501    0  0.00000000000E+00 -0.00000000000E+00 -0.20826681872E+03  0.20826681873E+03  0.25500000000E-02 0.  1.
    5000001    1    1    2    0    0  0.41083712188E+02  0.60088772692E+02  0.98008080978E+02  0.14433681425E+03  0.77000000000E+02 0.  0.
   -5000001    1    1    2    0    0 -0.41083712188E+02 -0.60088772692E+02 -0.16993850926E+03  0.20026639494E+03  0.77000000000E+02 0.  0.
<mgrwt>
<rscale>  0 0.33701244E+03</rscale>
<asrwt>0</asrwt>
<pdfrwt beam="1">  1        2 0.32041049E-01 0.33701244E+03</pdfrwt>
<pdfrwt beam="2">  1       -2 0.20974829E-01 0.33701244E+03</pdfrwt>
<totfact> 0.31643059E+03</totfact>
</mgrwt>
</event>
<event>
 4    1  0.6122885E-004  0.2875171E+03  0.7818608E-02  0.1091653E+00
          2   -1    0    0  501    0  0.00000000000E+00  0.00000000000E+00  0.21184856265E+03  0.21184856266E+03  0.25500000000E-02 0.  1.
         -2   -1    0    0    0  501 -0.00000000000E+00 -0.00000000000E+00 -0.97553261429E+02  0.97553261463E+02  0.25500000000E-02 0. -1.
    5000001    1    1    2    0    0  0.11800331401E+03  0.45030971146E+01  0.87441007716E+02  0.16589150018E+03  0.77000000000E+02 0.  0.
   -5000001    1    1    2    0    0 -0.11800331401E+03 -0.45030971146E+01  0.26854293503E+02  0.14351032395E+03  0.77000000000E+02 0.  0.
<mgrwt>
<rscale>  0 0.28751708E+03</rscale>
<asrwt>0</asrwt>
<pdfrwt beam="1">  1        2 0.32592087E-01 0.28751708E+03</pdfrwt>
<pdfrwt beam="2">  1       -2 0.15008194E-01 0.28751708E+03</pdfrwt>
<totfact> 0.54452603E+03</totfact>
</mgrwt>
</event>
<event>
 4    1  0.6122885E-004  0.2090532E+03  0.7818608E-02  0.1142318E+00
          2   -1    0    0  501    0  0.00000000000E+00  0.00000000000E+00  0.13380027041E+04  0.13380027041E+04  0.25500000000E-02 0.  1.
         -2   -1    0    0    0  501 -0.00000000000E+00 -0.00000000000E+00 -0.81657613670E+01  0.81657617652E+01  0.25500000000E-02 0. -1.
    5000001    1    1    2    0    0 -0.60516078119E+02 -0.92983199114E+01  0.43742071792E+03  0.44834644967E+03  0.77000000000E+02 0.  0.
   -5000001    1    1    2    0    0  0.60516078119E+02  0.92983199114E+01  0.89241622484E+03  0.89782201623E+03  0.77000000000E+02 0.  0.
<mgrwt>
<rscale>  0 0.20905321E+03</rscale>
<asrwt>0</asrwt>
<pdfrwt beam="1">  1        2 0.20584629E+00 0.20905321E+03</pdfrwt>
<pdfrwt beam="2">  1       -2 0.12562727E-02 0.20905321E+03</pdfrwt>
<totfact> 0.25174791E+04</totfact>
</mgrwt>
</event>
<event>
 4    1  0.6122885E-004  0.2389344E+03  0.7818608E-02  0.1120505E+00
          2   -1    0    0  501    0  0.00000000000E+00  0.00000000000E+00  0.55595091674E+03  0.55595091675E+03  0.25500000000E-02 0.  1.
         -2   -1    0    0    0  501 -0.00000000000E+00 -0.00000000000E+00 -0.25672078663E+02  0.25672078789E+02  0.25500000000E-02 0. -1.
    5000001    1    1    2    0    0  0.90837092935E+02 -0.93437143809E+01  0.27043535539E+03  0.29563992270E+03  0.77000000000E+02 0.  0.
   -5000001    1    1    2    0    0 -0.90837092935E+02  0.93437143809E+01  0.25984348269E+03  0.28598307284E+03  0.77000000000E+02 0.  0.
<mgrwt>
<rscale>  0 0.23893443E+03</rscale>
<asrwt>0</asrwt>
<pdfrwt beam="1">  1        2 0.85530904E-01 0.23893443E+03</pdfrwt>
<pdfrwt beam="2">  1       -2 0.39495509E-02 0.23893443E+03</pdfrwt>
<totfact> 0.15230891E+04</totfact>
</mgrwt>
</event>
<event>
 4    1  0.6122885E-004  0.3319324E+03  0.7818608E-02  0.1070285E+00
         -2   -1    0    0    0  501 -0.00000000000E+00  0.00000000000E+00  0.39343039279E+02  0.39343039361E+02  0.25500000000E-02 0. -1.
          2   -1    0    0  501    0  0.00000000000E+00 -0.00000000000E+00 -0.70011823730E+03  0.70011823731E+03  0.25500000000E-02 0.  1.
    5000001    1    1    2    0    0 -0.14518859619E+03 -0.13436975318E+02 -0.28838417233E+03  0.33219679652E+03  0.77000000000E+02 0.  0.
   -5000001    1    1    2    0    0  0.14518859619E+03  0.13436975318E+02 -0.37239102569E+03  0.40726448014E+03  0.77000000000E+02 0.  0.
<mgrwt>
<rscale>  0 0.33193240E+03</rscale>
<asrwt>0</asrwt>
<pdfrwt beam="1">  1        2 0.10771049E+00 0.33193240E+03</pdfrwt>
<pdfrwt beam="2">  1       -2 0.60527758E-02 0.33193240E+03</pdfrwt>
<totfact> 0.61414446E+03</totfact>
</mgrwt>
</event>
<event>
 4    1  0.6122885E-004  0.4073003E+03  0.7818608E-02  0.1041281E+00
         -2   -1    0    0    0  501 -0.00000000000E+00  0.00000000000E+00  0.41427893835E+02  0.41427893913E+02  0.25500000000E-02 0. -1.
          2   -1    0    0  501    0  0.00000000000E+00 -0.00000000000E+00 -0.10010979929E+04  0.10010979929E+04  0.25500000000E-02 0.  1.
    5000001    1    1    2    0    0 -0.71005985053E+01  0.11205475967E+03 -0.92178608657E+02  0.16441588597E+03  0.77000000000E+02 0.  0.
   -5000001    1    1    2    0    0  0.71005985053E+01 -0.11205475967E+03 -0.86749149041E+03  0.87811000086E+03  0.77000000000E+02 0.  0.
<mgrwt>
<rscale>  0 0.40730029E+03</rscale>
<asrwt>0</asrwt>
<pdfrwt beam="1">  1        2 0.15401506E+00 0.40730029E+03</pdfrwt>
<pdfrwt beam="2">  1       -2 0.63735229E-02 0.40730029E+03</pdfrwt>
<totfact> 0.35483311E+03</totfact>
</mgrwt>
</event>
<event>
 4    1  0.6122885E-004  0.5028245E+03  0.7818608E-02  0.1013044E+00
         -2   -1    0    0    0  501 -0.00000000000E+00  0.00000000000E+00  0.31014862823E+02  0.31014862927E+02  0.25500000000E-02 0. -1.
          2   -1    0    0  501    0  0.00000000000E+00 -0.00000000000E+00 -0.20379940875E+04  0.20379940875E+04  0.25500000000E-02 0.  1.
    5000001    1    1    2    0    0  0.23858744789E+03  0.12487299032E+02 -0.94541380320E+03  0.97816980234E+03  0.77000000000E+02 0.  0.
   -5000001    1    1    2    0    0 -0.23858744789E+03 -0.12487299032E+02 -0.10615654215E+04  0.10908391481E+04  0.77000000000E+02 0.  0.
<mgrwt>
<rscale>  0 0.50282445E+03</rscale>
<asrwt>0</asrwt>
<pdfrwt beam="1">  1        2 0.31353745E+00 0.50282445E+03</pdfrwt>
<pdfrwt beam="2">  1       -2 0.47715189E-02 0.50282445E+03</pdfrwt>
<totfact> 0.14667861E+03</totfact>
</mgrwt>
</event>
<event>
 4    1  0.6122885E-004  0.1790517E+03  0.7818608E-02  0.1168724E+00
         -2   -1    0    0    0  501 -0.00000000000E+00  0.00000000000E+00  0.24043269687E+02  0.24043269822E+02  0.25500000000E-02 0. -1.
          2   -1    0    0  501    0  0.00000000000E+00 -0.00000000000E+00 -0.33335238330E+03  0.33335238330E+03  0.25500000000E-02 0.  1.
    5000001    1    1    2    0    0 -0.31100606968E+02  0.27911443446E+02 -0.11787174913E+03  0.14686403805E+03  0.77000000000E+02 0.  0.
   -5000001    1    1    2    0    0  0.31100606968E+02 -0.27911443446E+02 -0.19143736448E+03  0.21053161508E+03  0.77000000000E+02 0.  0.
<mgrwt>
<rscale>  0 0.17905174E+03</rscale>
<asrwt>0</asrwt>
<pdfrwt beam="1">  1        2 0.51284979E-01 0.17905174E+03</pdfrwt>
<pdfrwt beam="2">  1       -2 0.36989648E-02 0.17905174E+03</pdfrwt>
<totfact> 0.28794841E+04</totfact>
</mgrwt>
</event>
<event>
 4    1  0.6122885E-004  0.2708468E+03  0.7818608E-02  0.1100796E+00
         -2   -1    0    0    0  501 -0.00000000000E+00  0.00000000000E+00  0.51184647080E+02  0.51184647144E+02  0.25500000000E-02 0. -1.
          2   -1    0    0  501    0  0.00000000000E+00 -0.00000000000E+00 -0.35830065755E+03  0.35830065756E+03  0.25500000000E-02 0.  1.
    5000001    1    1    2    0    0  0.89941406437E+00  0.42694690887E+02 -0.30911802407E+03  0.32141343840E+03  0.77000000000E+02 0.  0.
   -5000001    1    1    2    0    0 -0.89941406437E+00 -0.42694690887E+02  0.20020136065E+01  0.88071866303E+02  0.77000000000E+02 0.  0.
<mgrwt>
<rscale>  0 0.27084677E+03</rscale>
<asrwt>0</asrwt>
<pdfrwt beam="1">  1        2 0.55123177E-01 0.27084677E+03</pdfrwt>
<pdfrwt beam="2">  1       -2 0.78745613E-02 0.27084677E+03</pdfrwt>
<totfact> 0.86617904E+03</totfact>
</mgrwt>
</event>
<event>
 4    1  0.6122885E-004  0.2369070E+03  0.7818608E-02  0.1121871E+00
         -2   -1    0    0    0  501 -0.00000000000E+00  0.00000000000E+00  0.18571890626E+02  0.18571890801E+02  0.25500000000E-02 0. -1.
          2   -1    0    0  501    0  0.00000000000E+00 -0.00000000000E+00 -0.75550921516E+03  0.75550921517E+03  0.25500000000E-02 0.  1.
    5000001    1    1    2    0    0  0.63630173496E+02 -0.58592349260E+02 -0.44985184988E+03  0.46451862095E+03  0.77000000000E+02 0.  0.
   -5000001    1    1    2    0    0 -0.63630173496E+02  0.58592349260E+02 -0.28708547466E+03  0.30956248502E+03  0.77000000000E+02 0.  0.
<mgrwt>
<rscale>  0 0.23690702E+03</rscale>
<asrwt>0</asrwt>
<pdfrwt beam="1">  1        2 0.11623216E+00 0.23690702E+03</pdfrwt>
<pdfrwt beam="2">  1       -2 0.28572145E-02 0.23690702E+03</pdfrwt>
<totfact> 0.17158719E+04</totfact>
</mgrwt>
</event>
<event>
 4    1  0.6122885E-004  0.2435669E+03  0.7818608E-02  0.1117439E+00
         -2   -1    0    0    0  501 -0.00000000000E+00  0.00000000000E+00  0.54953457959E+01  0.54953463875E+01  0.25500000000E-02 0. -1.
          2   -1    0    0  501    0  0.00000000000E+00 -0.00000000000E+00 -0.26988660290E+04  0.26988660290E+04  0.25500000000E-02 0.  1.
    5000001    1    1    2    0    0 -0.70202259067E+02 -0.49505575299E+02 -0.17799993473E+04  0.17837336784E+04  0.77000000000E+02 0.  0.
   -5000001    1    1    2    0    0  0.70202259067E+02  0.49505575299E+02 -0.91337133596E+03  0.92062769702E+03  0.77000000000E+02 0.  0.
<mgrwt>
<rscale>  0 0.24356685E+03</rscale>
<asrwt>0</asrwt>
<pdfrwt beam="1">  1        2 0.41520910E+00 0.24356685E+03</pdfrwt>
<pdfrwt beam="2">  1       -2 0.84544002E-03 0.24356685E+03</pdfrwt>
<totfact> 0.84592157E+03</totfact>
</mgrwt>
</event>
<event>
 4    1  0.6122885E-004  0.2961014E+03  0.7818608E-02  0.1087206E+00
         -2   -1    0    0    0  501 -0.00000000000E+00  0.00000000000E+00  0.43066067153E+02  0.43066067228E+02  0.25500000000E-02 0. -1.
          2   -1    0    0  501    0  0.00000000000E+00 -0.00000000000E+00 -0.50896226389E+03  0.50896226390E+03  0.25500000000E-02 0.  1.
    5000001    1    1    2    0    0 -0.15932403806E+02 -0.11966938526E+03 -0.16280894206E+03  0.21681871431E+03  0.77000000000E+02 0.  0.
   -5000001    1    1    2    0    0  0.15932403806E+02  0.11966938526E+03 -0.30308725468E+03  0.33520961682E+03  0.77000000000E+02 0.  0.
<mgrwt>
<rscale>  0 0.29610135E+03</rscale>
<asrwt>0</asrwt>
<pdfrwt beam="1">  1        2 0.78301883E-01 0.29610135E+03</pdfrwt>
<pdfrwt beam="2">  1       -2 0.66255491E-02 0.29610135E+03</pdfrwt>
<totfact> 0.77290444E+03</totfact>
</mgrwt>
</event>
<event>
 4    1  0.6122885E-004  0.2203761E+03  0.7818608E-02  0.1133603E+00
          2   -1    0    0  501    0  0.00000000000E+00  0.00000000000E+00  0.21383891392E+04  0.21383891392E+04  0.25500000000E-02 0.  1.
         -2   -1    0    0    0  501 -0.00000000000E+00 -0.00000000000E+00 -0.56778285294E+01  0.56778291020E+01  0.25500000000E-02 0. -1.
    5000001    1    1    2    0    0  0.32886906941E+02  0.41640799573E+02  0.16333978579E+04  0.16360724517E+04  0.77000000000E+02 0.  0.
   -5000001    1    1    2    0    0 -0.32886906941E+02 -0.41640799573E+02  0.49931345272E+03  0.50799451661E+03  0.77000000000E+02 0.  0.
<mgrwt>
<rscale>  0 0.22037611E+03</rscale>
<asrwt>0</asrwt>
<pdfrwt beam="1">  1        2 0.32898302E+00 0.22037611E+03</pdfrwt>
<pdfrwt beam="2">  1       -2 0.87351194E-03 0.22037611E+03</pdfrwt>
<totfact> 0.16194269E+04</totfact>
</mgrwt>
</event>
<event>
 4    1  0.6122885E-004  0.4539704E+03  0.7818608E-02  0.1026545E+00
         -2   -1    0    0    0  501 -0.00000000000E+00  0.00000000000E+00  0.23728491274E+03  0.23728491275E+03  0.25500000000E-02 0. -1.
          2   -1    0    0  501    0  0.00000000000E+00 -0.00000000000E+00 -0.21713254313E+03  0.21713254315E+03  0.25500000000E-02 0.  1.
    5000001    1    1    2    0    0 -0.20233707847E+03  0.50328623807E+02  0.56165126465E+02  0.22925266657E+03  0.77000000000E+02 0.  0.
   -5000001    1    1    2    0    0  0.20233707847E+03 -0.50328623807E+02 -0.36012756858E+02  0.22516478933E+03  0.77000000000E+02 0.  0.
<mgrwt>
<rscale>  0 0.45397038E+03</rscale>
<asrwt>0</asrwt>
<pdfrwt beam="1">  1        2 0.33405007E-01 0.45397038E+03</pdfrwt>
<pdfrwt beam="2">  1       -2 0.36505371E-01 0.45397038E+03</pdfrwt>
<totfact> 0.11126673E+03</totfact>
</mgrwt>
</event>
<event>
 4    1  0.6122885E-004  0.2472758E+03  0.7818608E-02  0.1115039E+00
         -2   -1    0    0    0  501 -0.00000000000E+00  0.00000000000E+00  0.29030369843E+03  0.29030369844E+03  0.25500000000E-02 0. -1.
          2   -1    0    0  501    0  0.00000000000E+00 -0.00000000000E+00 -0.52656349587E+02  0.52656349649E+02  0.25500000000E-02 0.  1.
    5000001    1    1    2    0    0 -0.86947421293E+02  0.29158389906E+02  0.76136427772E+02  0.14190074491E+03  0.77000000000E+02 0.  0.
   -5000001    1    1    2    0    0  0.86947421293E+02 -0.29158389906E+02  0.16151092107E+03  0.20105930318E+03  0.77000000000E+02 0.  0.
<mgrwt>
<rscale>  0 0.24727582E+03</rscale>
<asrwt>0</asrwt>
<pdfrwt beam="1">  1        2 0.81009767E-02 0.24727582E+03</pdfrwt>
<pdfrwt beam="2">  1       -2 0.44662108E-01 0.24727582E+03</pdfrwt>
<totfact> 0.39816886E+03</totfact>
</mgrwt>
</event>
<event>
 4    1  0.6122885E-004  0.1680933E+03  0.7818608E-02  0.1179851E+00
          2   -1    0    0  501    0  0.00000000000E+00  0.00000000000E+00  0.80196700337E+03  0.80196700337E+03  0.25500000000E-02 0.  1.
         -2   -1    0    0    0  501 -0.00000000000E+00 -0.00000000000E+00 -0.88081388003E+01  0.88081391694E+01  0.25500000000E-02 0. -1.
    5000001    1    1    2    0    0  0.22401173251E+01 -0.33153240988E+02  0.42329639569E+03  0.43152403655E+03  0.77000000000E+02 0.  0.
   -5000001    1    1    2    0    0 -0.22401173251E+01  0.33153240988E+02  0.36986246888E+03  0.37925110599E+03  0.77000000000E+02 0.  0.
<mgrwt>
<rscale>  0 0.16809327E+03</rscale>
<asrwt>0</asrwt>
<pdfrwt beam="1">  1        2 0.12337956E+00 0.16809327E+03</pdfrwt>
<pdfrwt beam="2">  1       -2 0.13550981E-02 0.16809327E+03</pdfrwt>
<totfact> 0.46281151E+04</totfact>
</mgrwt>
</event>
<event>
 4    1  0.6122885E-004  0.3902707E+03  0.7818608E-02  0.1047202E+00
          2   -1    0    0  501    0  0.00000000000E+00  0.00000000000E+00  0.64634008184E+03  0.64634008185E+03  0.25500000000E-02 0.  1.
         -2   -1    0    0    0  501 -0.00000000000E+00 -0.00000000000E+00 -0.58912966295E+02  0.58912966350E+02  0.25500000000E-02 0. -1.
    5000001    1    1    2    0    0  0.12854342450E+03 -0.37840315334E+02  0.50900357430E+03  0.53194824945E+03  0.77000000000E+02 0.  0.
   -5000001    1    1    2    0    0 -0.12854342450E+03  0.37840315334E+02  0.78423541245E+02  0.17330479874E+03  0.77000000000E+02 0.  0.
<mgrwt>
<rscale>  0 0.39027073E+03</rscale>
<asrwt>0</asrwt>
<pdfrwt beam="1">  1        2 0.99436939E-01 0.39027073E+03</pdfrwt>
<pdfrwt beam="2">  1       -2 0.90635330E-02 0.39027073E+03</pdfrwt>
<totfact> 0.36056687E+03</totfact>
</mgrwt>
</event>
<event>
 4    1  0.6122885E-004  0.4460149E+03  0.7818608E-02  0.1028917E+00
          2   -1    0    0  501    0  0.00000000000E+00  0.00000000000E+00  0.10530397910E+03  0.10530397913E+03  0.25500000000E-02 0.  1.
         -2   -1    0    0    0  501 -0.00000000000E+00 -0.00000000000E+00 -0.47227394138E+03  0.47227394139E+03  0.25500000000E-02 0. -1.
    5000001    1    1    2    0    0 -0.77536700835E+02 -0.15219393853E+03 -0.34010940086E+03  0.38830186641E+03  0.77000000000E+02 0.  0.
   -5000001    1    1    2    0    0  0.77536700835E+02  0.15219393853E+03 -0.26860561417E+02  0.18927605412E+03  0.77000000000E+02 0.  0.
<mgrwt>
<rscale>  0 0.44601491E+03</rscale>
<asrwt>0</asrwt>
<pdfrwt beam="1">  1        2 0.16200612E-01 0.44601491E+03</pdfrwt>
<pdfrwt beam="2">  1       -2 0.72657528E-01 0.44601491E+03</pdfrwt>
<totfact> 0.62953311E+02</totfact>
</mgrwt>
</event>
<event>
 4    1  0.6122885E-004  0.2361589E+03  0.7818608E-02  0.1122378E+00
          2   -1    0    0  501    0  0.00000000000E+00  0.00000000000E+00  0.15202606896E+04  0.15202606896E+04  0.25500000000E-02 0.  1.
         -2   -1    0    0    0  501 -0.00000000000E+00 -0.00000000000E+00 -0.91712943074E+01  0.91712946619E+01  0.25500000000E-02 0. -1.
    5000001    1    1    2    0    0  0.55734785438E+02 -0.69236838948E+02  0.68650244601E+03  0.69650176924E+03  0.77000000000E+02 0.  0.
   -5000001    1    1    2    0    0 -0.55734785438E+02  0.69236838948E+02  0.82458694932E+03  0.83293021506E+03  0.77000000000E+02 0.  0.
<mgrwt>
<rscale>  0 0.23615892E+03</rscale>
<asrwt>0</asrwt>
<pdfrwt beam="1">  1        2 0.23388614E+00 0.23615892E+03</pdfrwt>
<pdfrwt beam="2">  1       -2 0.14109691E-02 0.23615892E+03</pdfrwt>
<totfact> 0.17070567E+04</totfact>
</mgrwt>
</event>
<event>
 4    1  0.6122885E-004  0.2382939E+03  0.7818608E-02  0.1120935E+00
          2   -1    0    0  501    0  0.00000000000E+00  0.00000000000E+00  0.49101251976E+03  0.49101251977E+03  0.25500000000E-02 0.  1.
         -2   -1    0    0    0  501 -0.00000000000E+00 -0.00000000000E+00 -0.28911667877E+02  0.28911667989E+02  0.25500000000E-02 0. -1.
    5000001    1    1    2    0    0  0.77434431150E+02  0.34050034745E+01  0.12734184935E+03  0.16778746012E+03  0.77000000000E+02 0.  0.
   -5000001    1    1    2    0    0 -0.77434431150E+02 -0.34050034745E+01  0.33475900253E+03  0.35213672764E+03  0.77000000000E+02 0.  0.
<mgrwt>
<rscale>  0 0.23829386E+03</rscale>
<asrwt>0</asrwt>
<pdfrwt beam="1">  1        2 0.75540379E-01 0.23829386E+03</pdfrwt>
<pdfrwt beam="2">  1       -2 0.44479494E-02 0.23829386E+03</pdfrwt>
<totfact> 0.14644597E+04</totfact>
</mgrwt>
</event>
<event>
 4    1  0.6122885E-004  0.1720966E+03  0.7818608E-02  0.1175679E+00
         -2   -1    0    0    0  501 -0.00000000000E+00  0.00000000000E+00  0.34417602510E+02  0.34417602605E+02  0.25500000000E-02 0. -1.
          2   -1    0    0  501    0  0.00000000000E+00 -0.00000000000E+00 -0.21513159680E+03  0.21513159681E+03  0.25500000000E-02 0.  1.
    5000001    1    1    2    0    0 -0.15070055258E+02 -0.28038984242E+02 -0.59188534214E+02  0.10220358988E+03  0.77000000000E+02 0.  0.
   -5000001    1    1    2    0    0  0.15070055258E+02  0.28038984242E+02 -0.12152546007E+03  0.14734560953E+03  0.77000000000E+02 0.  0.
<mgrwt>
<rscale>  0 0.17209664E+03</rscale>
<asrwt>0</asrwt>
<pdfrwt beam="1">  1        2 0.33097168E-01 0.17209664E+03</pdfrwt>
<pdfrwt beam="2">  1       -2 0.52950159E-02 0.17209664E+03</pdfrwt>
<totfact> 0.26769681E+04</totfact>
</mgrwt>
</event>
<event>
 4    1  0.6122885E-004  0.2879263E+03  0.7818608E-02  0.1091437E+00
          2   -1    0    0  501    0  0.00000000000E+00  0.00000000000E+00  0.34934540773E+03  0.34934540774E+03  0.25500000000E-02 0.  1.
         -2   -1    0    0    0  501 -0.00000000000E+00 -0.00000000000E+00 -0.59326355418E+02  0.59326355473E+02  0.25500000000E-02 0. -1.
    5000001    1    1    2    0    0 -0.10408537895E+03 -0.58543772935E+02  0.11217189869E+03  0.18103224662E+03  0.77000000000E+02 0.  0.
   -5000001    1    1    2    0    0  0.10408537895E+03  0.58543772935E+02  0.17784715362E+03  0.22763951659E+03  0.77000000000E+02 0.  0.
<mgrwt>
<rscale>  0 0.28792631E+03</rscale>
<asrwt>0</asrwt>
<pdfrwt beam="1">  1        2 0.53745447E-01 0.28792631E+03</pdfrwt>
<pdfrwt beam="2">  1       -2 0.91271317E-02 0.28792631E+03</pdfrwt>
<totfact> 0.70768434E+03</totfact>
</mgrwt>
</event>
<event>
 4    1  0.6122885E-004  0.2823062E+03  0.7818608E-02  0.1094436E+00
          2   -1    0    0  501    0  0.00000000000E+00  0.00000000000E+00  0.13533101060E+04  0.13533101060E+04  0.25500000000E-02 0.  1.
         -2   -1    0    0    0  501 -0.00000000000E+00 -0.00000000000E+00 -0.14722568914E+02  0.14722569135E+02  0.25500000000E-02 0. -1.
    5000001    1    1    2    0    0 -0.11535107760E+02 -0.11264516824E+03  0.50331074517E+03  0.52160588459E+03  0.77000000000E+02 0.  0.
   -5000001    1    1    2    0    0  0.11535107760E+02  0.11264516824E+03  0.83527679190E+03  0.84642679053E+03  0.77000000000E+02 0.  0.
<mgrwt>
<rscale>  0 0.28230623E+03</rscale>
<asrwt>0</asrwt>
<pdfrwt beam="1">  1        2 0.20820151E+00 0.28230623E+03</pdfrwt>
<pdfrwt beam="2">  1       -2 0.22650111E-02 0.28230623E+03</pdfrwt>
<totfact> 0.10547693E+04</totfact>
</mgrwt>
</event>
<event>
 4    1  0.6122885E-004  0.2803649E+03  0.7818608E-02  0.1095490E+00
          2   -1    0    0  501    0  0.00000000000E+00  0.00000000000E+00  0.58441542731E+03  0.58441542732E+03  0.25500000000E-02 0.  1.
         -2   -1    0    0    0  501 -0.00000000000E+00 -0.00000000000E+00 -0.33625260303E+02  0.33625260400E+02  0.25500000000E-02 0. -1.
    5000001    1    1    2    0    0 -0.71657195056E+02 -0.49238378249E+02  0.44845150094E+03  0.46324606872E+03  0.77000000000E+02 0.  0.
   -5000001    1    1    2    0    0  0.71657195056E+02  0.49238378249E+02  0.10233866607E+03  0.15479461899E+03  0.77000000000E+02 0.  0.
<mgrwt>
<rscale>  0 0.28036491E+03</rscale>
<asrwt>0</asrwt>
<pdfrwt beam="1">  1        2 0.89910071E-01 0.28036491E+03</pdfrwt>
<pdfrwt beam="2">  1       -2 0.51731167E-02 0.28036491E+03</pdfrwt>
<totfact> 0.96344426E+03</totfact>
</mgrwt>
</event>
<event>
 4    1  0.6122885E-004  0.2840598E+03  0.7818608E-02  0.1093492E+00
          2   -1    0    0  501    0  0.00000000000E+00  0.00000000000E+00  0.23103832660E+03  0.23103832662E+03  0.25500000000E-02 0.  1.
         -2   -1    0    0    0  501 -0.00000000000E+00 -0.00000000000E+00 -0.87312301572E+02  0.87312301609E+02  0.25500000000E-02 0. -1.
    5000001    1    1    2    0    0 -0.10464046160E+03  0.55275173645E+02  0.89171362903E+02  0.16698952957E+03  0.77000000000E+02 0.  0.
   -5000001    1    1    2    0    0  0.10464046160E+03 -0.55275173645E+02  0.54554662130E+02  0.15136109865E+03  0.77000000000E+02 0.  0.
<mgrwt>
<rscale>  0 0.28405977E+03</rscale>
<asrwt>0</asrwt>
<pdfrwt beam="1">  1        2 0.35544357E-01 0.28405977E+03</pdfrwt>
<pdfrwt beam="2">  1       -2 0.13432662E-01 0.28405977E+03</pdfrwt>
<totfact> 0.59433236E+03</totfact>
</mgrwt>
</event>
<event>
 4    1  0.6122885E-004  0.1949496E+03  0.7818608E-02  0.1154071E+00
         -2   -1    0    0    0  501 -0.00000000000E+00  0.00000000000E+00  0.44017325736E+01  0.44017333122E+01  0.25500000000E-02 0. -1.
          2   -1    0    0  501    0  0.00000000000E+00 -0.00000000000E+00 -0.21585434861E+04  0.21585434861E+04  0.25500000000E-02 0.  1.
    5000001    1    1    2    0    0 -0.12761763738E+02  0.58180945520E+02 -0.11319283155E+04  0.11361067715E+04  0.77000000000E+02 0.  0.
   -5000001    1    1    2    0    0  0.12761763738E+02 -0.58180945520E+02 -0.10222134381E+04  0.10268384479E+04  0.77000000000E+02 0.  0.
<mgrwt>
<rscale>  0 0.19494955E+03</rscale>
<asrwt>0</asrwt>
<pdfrwt beam="1">  1        2 0.33208277E+00 0.19494955E+03</pdfrwt>
<pdfrwt beam="2">  1       -2 0.67719141E-03 0.19494955E+03</pdfrwt>
<totfact> 0.22698907E+04</totfact>
</mgrwt>
</event>
<event>
 4    1  0.6122885E-004  0.1977294E+03  0.7818608E-02  0.1151669E+00
          2   -1    0    0  501    0  0.00000000000E+00  0.00000000000E+00  0.18620611507E+03  0.18620611509E+03  0.25500000000E-02 0.  1.
         -2   -1    0    0    0  501 -0.00000000000E+00 -0.00000000000E+00 -0.52491439953E+02  0.52491440015E+02  0.25500000000E-02 0. -1.
    5000001    1    1    2    0    0 -0.37748077048E+02  0.47885289875E+02  0.53236431682E+02  0.11171855694E+03  0.77000000000E+02 0.  0.
   -5000001    1    1    2    0    0  0.37748077048E+02 -0.47885289875E+02  0.80478243438E+02  0.12697899816E+03  0.77000000000E+02 0.  0.
<mgrwt>
<rscale>  0 0.19772938E+03</rscale>
<asrwt>0</asrwt>
<pdfrwt beam="1">  1        2 0.28647095E-01 0.19772938E+03</pdfrwt>
<pdfrwt beam="2">  1       -2 0.80756062E-02 0.19772938E+03</pdfrwt>
<totfact> 0.16587717E+04</totfact>
</mgrwt>
</event>
<event>
 4    1  0.6122885E-004  0.2494820E+03  0.7818608E-02  0.1113633E+00
         -2   -1    0    0    0  501 -0.00000000000E+00  0.00000000000E+00  0.78353716494E+02  0.78353716536E+02  0.25500000000E-02 0. -1.
          2   -1    0    0  501    0  0.00000000000E+00 -0.00000000000E+00 -0.19859073184E+03  0.19859073185E+03  0.25500000000E-02 0.  1.
    5000001    1    1    2    0    0  0.57431995361E+02  0.70307989155E+02 -0.10150035939E+03  0.15643839167E+03  0.77000000000E+02 0.  0.
   -5000001    1    1    2    0    0 -0.57431995361E+02 -0.70307989155E+02 -0.18736655946E+02  0.12050605672E+03  0.77000000000E+02 0.  0.
<mgrwt>
<rscale>  0 0.24948204E+03</rscale>
<asrwt>0</asrwt>
<pdfrwt beam="1">  1        2 0.30552420E-01 0.24948204E+03</pdfrwt>
<pdfrwt beam="2">  1       -2 0.12054418E-01 0.24948204E+03</pdfrwt>
<totfact> 0.83123068E+03</totfact>
</mgrwt>
</event>
<event>
 4    1  0.6122885E-004  0.2529567E+03  0.7818608E-02  0.1111450E+00
         -2   -1    0    0    0  501 -0.00000000000E+00  0.00000000000E+00  0.12013729864E+02  0.12013730135E+02  0.25500000000E-02 0. -1.
          2   -1    0    0  501    0  0.00000000000E+00 -0.00000000000E+00 -0.13315405498E+04  0.13315405498E+04  0.25500000000E-02 0.  1.
    5000001    1    1    2    0    0 -0.62799685324E+01  0.99478118263E+02 -0.72088714385E+03  0.73180776723E+03  0.77000000000E+02 0.  0.
   -5000001    1    1    2    0    0  0.62799685324E+01 -0.99478118263E+02 -0.59863967606E+03  0.61174651268E+03  0.77000000000E+02 0.  0.
<mgrwt>
<rscale>  0 0.25295667E+03</rscale>
<asrwt>0</asrwt>
<pdfrwt beam="1">  1        2 0.20485228E+00 0.25295667E+03</pdfrwt>
<pdfrwt beam="2">  1       -2 0.18482672E-02 0.25295667E+03</pdfrwt>
<totfact> 0.14578559E+04</totfact>
</mgrwt>
</event>
<event>
 4    1  0.6122885E-004  0.3144031E+03  0.7818608E-02  0.1078254E+00
          2   -1    0    0  501    0  0.00000000000E+00  0.00000000000E+00  0.27009231773E+03  0.27009231774E+03  0.25500000000E-02 0.  1.
         -2   -1    0    0    0  501 -0.00000000000E+00 -0.00000000000E+00 -0.91495850627E+02  0.91495850663E+02  0.25500000000E-02 0. -1.
    5000001    1    1    2    0    0  0.77535504169E+02  0.79427826460E+02 -0.31582775806E+01  0.13512774970E+03  0.77000000000E+02 0.  0.
   -5000001    1    1    2    0    0 -0.77535504169E+02 -0.79427826460E+02  0.18175474468E+03  0.22646041870E+03  0.77000000000E+02 0.  0.
<mgrwt>
<rscale>  0 0.31440309E+03</rscale>
<asrwt>0</asrwt>
<pdfrwt beam="1">  1        2 0.41552664E-01 0.31440309E+03</pdfrwt>
<pdfrwt beam="2">  1       -2 0.14076285E-01 0.31440309E+03</pdfrwt>
<totfact> 0.46612500E+03</totfact>
</mgrwt>
</event>
<event>
 4    1  0.6122885E-004  0.3801490E+03  0.7818608E-02  0.1050879E+00
          2   -1    0    0  501    0  0.00000000000E+00  0.00000000000E+00  0.17128367396E+03  0.17128367397E+03  0.25500000000E-02 0.  1.
         -2   -1    0    0    0  501 -0.00000000000E+00 -0.00000000000E+00 -0.21092682403E+03  0.21092682405E+03  0.25500000000E-02 0. -1.
    5000001    1    1    2    0    0 -0.28778736799E+02 -0.17137544242E+03 -0.18564432088E+02  0.19097485723E+03  0.77000000000E+02 0.  0.
   -5000001    1    1    2    0    0  0.28778736799E+02  0.17137544242E+03 -0.21078717986E+02  0.19123564079E+03  0.77000000000E+02 0.  0.
<mgrwt>
<rscale>  0 0.38014903E+03</rscale>
<asrwt>0</asrwt>
<pdfrwt beam="1">  1        2 0.26351334E-01 0.38014903E+03</pdfrwt>
<pdfrwt beam="2">  1       -2 0.32450281E-01 0.38014903E+03</pdfrwt>
<totfact> 0.18048894E+03</totfact>
</mgrwt>
</event>
<event>
 4    1  0.6122885E-004  0.2037455E+03  0.7818608E-02  0.1146617E+00
          2   -1    0    0  501    0  0.00000000000E+00  0.00000000000E+00  0.50398637180E+04  0.50398637180E+04  0.25500000000E-02 0.  1.
         -2   -1    0    0    0  501 -0.00000000000E+00 -0.00000000000E+00 -0.20591934468E+01  0.20591950257E+01  0.25500000000E-02 0. -1.
    5000001    1    1    2    0    0  0.36024916984E+02 -0.52236345511E+02  0.30276321198E+04  0.30292757688E+04  0.77000000000E+02 0.  0.
   -5000001    1    1    2    0    0 -0.36024916984E+02  0.52236345511E+02  0.20101724048E+04  0.20126471443E+04  0.77000000000E+02 0.  0.
<mgrwt>
<rscale>  0 0.20374551E+03</rscale>
<asrwt>0</asrwt>
<pdfrwt beam="1">  1        2 0.77537235E+00 0.20374551E+03</pdfrwt>
<pdfrwt beam="2">  1       -2 0.31679556E-03 0.20374551E+03</pdfrwt>
<totfact> 0.52059850E+02</totfact>
</mgrwt>
</event>
<event>
 4    1  0.6122885E-004  0.3286535E+03  0.7818608E-02  0.1071734E+00
         -2   -1    0    0    0  501 -0.00000000000E+00  0.00000000000E+00  0.34735960975E+02  0.34735961068E+02  0.25500000000E-02 0. -1.
          2   -1    0    0  501    0  0.00000000000E+00 -0.00000000000E+00 -0.77738684420E+03  0.77738684421E+03  0.25500000000E-02 0.  1.
    5000001    1    1    2    0    0  0.10038968724E+02 -0.14064608569E+03 -0.45664602034E+03  0.48408335047E+03  0.77000000000E+02 0.  0.
   -5000001    1    1    2    0    0 -0.10038968724E+02  0.14064608569E+03 -0.28600486289E+03  0.32803945481E+03  0.77000000000E+02 0.  0.
<mgrwt>
<rscale>  0 0.32865349E+03</rscale>
<asrwt>0</asrwt>
<pdfrwt beam="1">  1        2 0.11959796E+00 0.32865349E+03</pdfrwt>
<pdfrwt beam="2">  1       -2 0.53439946E-02 0.32865349E+03</pdfrwt>
<totfact> 0.65271224E+03</totfact>
</mgrwt>
</event>
<event>
 4    1  0.6122885E-004  0.2227209E+03  0.7818608E-02  0.1131871E+00
          2   -1    0    0  501    0  0.00000000000E+00  0.00000000000E+00  0.13253677842E+04  0.13253677842E+04  0.25500000000E-02 0.  1.
         -2   -1    0    0    0  501 -0.00000000000E+00 -0.00000000000E+00 -0.93567637041E+01  0.93567640516E+01  0.25500000000E-02 0. -1.
    5000001    1    1    2    0    0  0.80134936791E+02  0.70394953709E+01  0.66397075643E+03  0.67324388447E+03  0.77000000000E+02 0.  0.
   -5000001    1    1    2    0    0 -0.80134936791E+02 -0.70394953709E+01  0.65204026406E+03  0.66148066377E+03  0.77000000000E+02 0.  0.
<mgrwt>
<rscale>  0 0.22272093E+03</rscale>
<asrwt>0</asrwt>
<pdfrwt beam="1">  1        2 0.20390252E+00 0.22272093E+03</pdfrwt>
<pdfrwt beam="2">  1       -2 0.14395037E-02 0.22272093E+03</pdfrwt>
<totfact> 0.21057047E+04</totfact>
</mgrwt>
</event>
<event>
 4    1  0.6122885E-004  0.1773774E+03  0.7818608E-02  0.1170366E+00
         -2   -1    0    0    0  501 -0.00000000000E+00  0.00000000000E+00  0.53562686019E+01  0.53562692089E+01  0.25500000000E-02 0. -1.
          2   -1    0    0  501    0  0.00000000000E+00 -0.00000000000E+00 -0.14685010990E+04  0.14685010990E+04  0.25500000000E-02 0.  1.
    5000001    1    1    2    0    0  0.27480427848E+02 -0.31020253660E+02 -0.60853601981E+03  0.61478656252E+03  0.77000000000E+02 0.  0.
   -5000001    1    1    2    0    0 -0.27480427848E+02  0.31020253660E+02 -0.85460881057E+03  0.85907080567E+03  0.77000000000E+02 0.  0.
<mgrwt>
<rscale>  0 0.17737741E+03</rscale>
<asrwt>0</asrwt>
<pdfrwt beam="1">  1        2 0.22592293E+00 0.17737741E+03</pdfrwt>
<pdfrwt beam="2">  1       -2 0.82404254E-03 0.17737741E+03</pdfrwt>
<totfact> 0.38964020E+04</totfact>
</mgrwt>
</event>
<event>
 4    1  0.6122885E-004  0.1084896E+04  0.7818608E-02  0.9220040E-01
          2   -1    0    0  501    0  0.00000000000E+00  0.00000000000E+00  0.21039742165E+04  0.21039742165E+04  0.25500000000E-02 0.  1.
         -2   -1    0    0    0  501 -0.00000000000E+00 -0.00000000000E+00 -0.13985423858E+03  0.13985423860E+03  0.25500000000E-02 0. -1.
    5000001    1    1    2    0    0 -0.40369798656E+03  0.35008766999E+03  0.10912520925E+04  0.12174947928E+04  0.77000000000E+02 0.  0.
   -5000001    1    1    2    0    0  0.40369798656E+03 -0.35008766999E+03  0.87286788535E+03  0.10263336623E+04  0.77000000000E+02 0.  0.
<mgrwt>
<rscale>  0 0.10848958E+04</rscale>
<asrwt>0</asrwt>
<pdfrwt beam="1">  1        2 0.32368833E+00 0.10848958E+04</pdfrwt>
<pdfrwt beam="2">  1       -2 0.21516038E-01 0.10848958E+04</pdfrwt>
<totfact> 0.10950578E+02</totfact>
</mgrwt>
</event>
<event>
 4    1  0.6122885E-004  0.6400424E+03  0.7818608E-02  0.9825645E-01
          2   -1    0    0  501    0  0.00000000000E+00  0.00000000000E+00  0.11194962240E+04  0.11194962240E+04  0.25500000000E-02 0. -1.
         -2   -1    0    0    0  501 -0.00000000000E+00 -0.00000000000E+00 -0.91481839798E+02  0.91481839834E+02  0.25500000000E-02 0.  1.
    5000001    1    1    2    0    0 -0.12902761152E+03 -0.26697909542E+03  0.33897046019E+03  0.45689816678E+03  0.77000000000E+02 0.  0.
   -5000001    1    1    2    0    0  0.12902761152E+03  0.26697909542E+03  0.68904392401E+03  0.75407989705E+03  0.77000000000E+02 0.  0.
<mgrwt>
<rscale>  0 0.64004242E+03</rscale>
<asrwt>0</asrwt>
<pdfrwt beam="1">  1        2 0.17223018E+00 0.64004242E+03</pdfrwt>
<pdfrwt beam="2">  1       -2 0.14074130E-01 0.64004242E+03</pdfrwt>
<totfact> 0.83470182E+02</totfact>
</mgrwt>
</event>
<event>
 4    1  0.6122885E-004  0.1947063E+03  0.7818608E-02  0.1154284E+00
          2   -1    0    0  501    0  0.00000000000E+00  0.00000000000E+00  0.80446230848E+03  0.80446230849E+03  0.25500000000E-02 0.  1.
         -2   -1    0    0    0  501 -0.00000000000E+00 -0.00000000000E+00 -0.11781327754E+02  0.11781328029E+02  0.25500000000E-02 0. -1.
    5000001    1    1    2    0    0 -0.61361819576E+01  0.47835550320E+02  0.54293145087E+03  0.55048111044E+03  0.77000000000E+02 0.  0.
   -5000001    1    1    2    0    0  0.61361819576E+01 -0.47835550320E+02  0.24974952986E+03  0.26576252608E+03  0.77000000000E+02 0.  0.
<mgrwt>
<rscale>  0 0.19470628E+03</rscale>
<asrwt>0</asrwt>
<pdfrwt beam="1">  1        2 0.12376346E+00 0.19470628E+03</pdfrwt>
<pdfrwt beam="2">  1       -2 0.18125115E-02 0.19470628E+03</pdfrwt>
<totfact> 0.30589587E+04</totfact>
</mgrwt>
</event>
<event>
 4    1  0.6122885E-004  0.2518192E+03  0.7818608E-02  0.1112160E+00
          2   -1    0    0  501    0  0.00000000000E+00  0.00000000000E+00  0.58653122925E+03  0.58653122925E+03  0.25500000000E-02 0.  1.
         -2   -1    0    0    0  501 -0.00000000000E+00 -0.00000000000E+00 -0.27028786945E+02  0.27028787066E+02  0.25500000000E-02 0. -1.
    5000001    1    1    2    0    0  0.95403640740E+02  0.66979121295E+01  0.34769058421E+03  0.36873358817E+03  0.77000000000E+02 0.  0.
   -5000001    1    1    2    0    0 -0.95403640740E+02 -0.66979121295E+01  0.21181185809E+03  0.24482642815E+03  0.77000000000E+02 0.  0.
<mgrwt>
<rscale>  0 0.25181920E+03</rscale>
<asrwt>0</asrwt>
<pdfrwt beam="1">  1        2 0.90235567E-01 0.25181920E+03</pdfrwt>
<pdfrwt beam="2">  1       -2 0.41582752E-02 0.25181920E+03</pdfrwt>
<totfact> 0.13293234E+04</totfact>
</mgrwt>
</event>
<event>
 4    1  0.6122885E-004  0.2429417E+03  0.7818608E-02  0.1117848E+00
          2   -1    0    0  501    0  0.00000000000E+00  0.00000000000E+00  0.10408444811E+04  0.10408444811E+04  0.25500000000E-02 0.  1.
         -2   -1    0    0    0  501 -0.00000000000E+00 -0.00000000000E+00 -0.14176154768E+02  0.14176154997E+02  0.25500000000E-02 0. -1.
    5000001    1    1    2    0    0 -0.67934276097E+02  0.63606276089E+02  0.56917587777E+03  0.58185135907E+03  0.77000000000E+02 0.  0.
   -5000001    1    1    2    0    0  0.67934276097E+02 -0.63606276089E+02  0.45749244861E+03  0.47316927707E+03  0.77000000000E+02 0.  0.
<mgrwt>
<rscale>  0 0.24294174E+03</rscale>
<asrwt>0</asrwt>
<pdfrwt beam="1">  1        2 0.16012994E+00 0.24294174E+03</pdfrwt>
<pdfrwt beam="2">  1       -2 0.21809467E-02 0.24294174E+03</pdfrwt>
<totfact> 0.16721480E+04</totfact>
</mgrwt>
</event>
<event>
 4    1  0.6122885E-004  0.2184072E+03  0.7818608E-02  0.1135076E+00
         -2   -1    0    0    0  501 -0.00000000000E+00  0.00000000000E+00  0.41375417431E+01  0.41375425289E+01  0.25500000000E-02 0. -1.
          2   -1    0    0  501    0  0.00000000000E+00 -0.00000000000E+00 -0.28822483733E+04  0.28822483733E+04  0.25500000000E-02 0.  1.
    5000001    1    1    2    0    0  0.58578697275E+02  0.32523820574E+02 -0.19521144844E+04  0.19547811189E+04  0.77000000000E+02 0.  0.
   -5000001    1    1    2    0    0 -0.58578697275E+02 -0.32523820574E+02 -0.92599634716E+03  0.93160479692E+03  0.77000000000E+02 0.  0.
<mgrwt>
<rscale>  0 0.21840718E+03</rscale>
<asrwt>0</asrwt>
<pdfrwt beam="1">  1        2 0.44342122E+00 0.21840718E+03</pdfrwt>
<pdfrwt beam="2">  1       -2 0.63654725E-03 0.21840718E+03</pdfrwt>
<totfact> 0.10013468E+04</totfact>
</mgrwt>
</event>
<event>
 4    1  0.6122885E-004  0.2214237E+03  0.7818608E-02  0.1132826E+00
          2   -1    0    0  501    0  0.00000000000E+00  0.00000000000E+00  0.41259888288E+03  0.41259888289E+03  0.25500000000E-02 0.  1.
         -2   -1    0    0    0  501 -0.00000000000E+00 -0.00000000000E+00 -0.29707081652E+02  0.29707081762E+02  0.25500000000E-02 0. -1.
    5000001    1    1    2    0    0  0.20627306839E+02 -0.75629345220E+02  0.21845540849E+03  0.24453435167E+03  0.77000000000E+02 0.  0.
   -5000001    1    1    2    0    0 -0.20627306839E+02  0.75629345220E+02  0.16443639273E+03  0.19777161298E+03  0.77000000000E+02 0.  0.
<mgrwt>
<rscale>  0 0.22142365E+03</rscale>
<asrwt>0</asrwt>
<pdfrwt beam="1">  1        2 0.63476747E-01 0.22142365E+03</pdfrwt>
<pdfrwt beam="2">  1       -2 0.45703206E-02 0.22142365E+03</pdfrwt>
<totfact> 0.16941970E+04</totfact>
</mgrwt>
</event>
<event>
 4    1  0.6122885E-004  0.2454242E+03  0.7818608E-02  0.1116231E+00
          2   -1    0    0  501    0  0.00000000000E+00  0.00000000000E+00  0.11042432364E+04  0.11042432364E+04  0.25500000000E-02 0.  1.
         -2   -1    0    0    0  501 -0.00000000000E+00 -0.00000000000E+00 -0.13636724719E+02  0.13636724957E+02  0.25500000000E-02 0. -1.
    5000001    1    1    2    0    0  0.73331794193E+02  0.16069970766E+02  0.81452242016E+03  0.82159087686E+03  0.77000000000E+02 0.  0.
   -5000001    1    1    2    0    0 -0.73331794193E+02 -0.16069970766E+02  0.27608409149E+03  0.29628908446E+03  0.77000000000E+02 0.  0.
<mgrwt>
<rscale>  0 0.24542421E+03</rscale>
<asrwt>0</asrwt>
<pdfrwt beam="1">  1        2 0.16988365E+00 0.24542421E+03</pdfrwt>
<pdfrwt beam="2">  1       -2 0.20979567E-02 0.24542421E+03</pdfrwt>
<totfact> 0.16245801E+04</totfact>
</mgrwt>
</event>
<event>
 4    1  0.6122885E-004  0.3077809E+03  0.7818608E-02  0.1081414E+00
          2   -1    0    0  501    0  0.00000000000E+00  0.00000000000E+00  0.56328821622E+03  0.56328821622E+03  0.25500000000E-02 0.  1.
         -2   -1    0    0    0  501 -0.00000000000E+00 -0.00000000000E+00 -0.42042902792E+02  0.42042902869E+02  0.25500000000E-02 0. -1.
    5000001    1    1    2    0    0 -0.10911286728E+02 -0.13227528761E+03  0.28368192816E+03  0.32252169579E+03  0.77000000000E+02 0.  0.
   -5000001    1    1    2    0    0  0.10911286728E+02  0.13227528761E+03  0.23756338526E+03  0.28280942330E+03  0.77000000000E+02 0.  0.
<mgrwt>
<rscale>  0 0.30778091E+03</rscale>
<asrwt>0</asrwt>
<pdfrwt beam="1">  1        2 0.86659722E-01 0.30778091E+03</pdfrwt>
<pdfrwt beam="2">  1       -2 0.64681391E-02 0.30778091E+03</pdfrwt>
<totfact> 0.71564407E+03</totfact>
</mgrwt>
</event>
<event>
 4    1  0.6122885E-004  0.2525610E+03  0.7818608E-02  0.1111697E+00
         -2   -1    0    0    0  501 -0.00000000000E+00  0.00000000000E+00  0.44472100336E+01  0.44472107646E+01  0.25500000000E-02 0. -1.
          2   -1    0    0  501    0  0.00000000000E+00 -0.00000000000E+00 -0.35857918555E+04  0.35857918556E+04  0.25500000000E-02 0.  1.
    5000001    1    1    2    0    0 -0.40750633131E+02 -0.81832763965E+02 -0.12113987841E+04  0.12172810807E+04  0.77000000000E+02 0.  0.
   -5000001    1    1    2    0    0  0.40750633131E+02  0.81832763965E+02 -0.23699458614E+04  0.23729579856E+04  0.77000000000E+02 0.  0.
<mgrwt>
<rscale>  0 0.25256105E+03</rscale>
<asrwt>0</asrwt>
<pdfrwt beam="1">  1        2 0.55165797E+00 0.25256105E+03</pdfrwt>
<pdfrwt beam="2">  1       -2 0.68418908E-03 0.25256105E+03</pdfrwt>
<totfact> 0.32930012E+03</totfact>
</mgrwt>
</event>
<event>
 4    1  0.6122885E-004  0.2968377E+03  0.7818608E-02  0.1086832E+00
         -2   -1    0    0    0  501 -0.00000000000E+00  0.00000000000E+00  0.20803348631E+02  0.20803348788E+02  0.25500000000E-02 0.  1.
          2   -1    0    0  501    0  0.00000000000E+00 -0.00000000000E+00 -0.10588756366E+04  0.10588756366E+04  0.25500000000E-02 0. -1.
    5000001    1    1    2    0    0  0.66908569529E+02  0.97230308896E+02 -0.68842008490E+03  0.70269602456E+03  0.77000000000E+02 0.  0.
   -5000001    1    1    2    0    0 -0.66908569529E+02 -0.97230308896E+02 -0.34965220310E+03  0.37698296086E+03  0.77000000000E+02 0.  0.
<mgrwt>
<rscale>  0 0.29683773E+03</rscale>
<asrwt>0</asrwt>
<pdfrwt beam="1">  1        2 0.16290390E+00 0.29683773E+03</pdfrwt>
<pdfrwt beam="2">  1       -2 0.32005160E-02 0.29683773E+03</pdfrwt>
<totfact> 0.92999736E+03</totfact>
</mgrwt>
</event>
<event>
 4    1  0.6122885E-004  0.2031539E+03  0.7818608E-02  0.1147105E+00
         -2   -1    0    0    0  501 -0.00000000000E+00  0.00000000000E+00  0.94595487654E+01  0.94595491091E+01  0.25500000000E-02 0. -1.
          2   -1    0    0  501    0  0.00000000000E+00 -0.00000000000E+00 -0.10907371716E+04  0.10907371716E+04  0.25500000000E-02 0.  1.
    5000001    1    1    2    0    0  0.57141237891E+02 -0.25170962942E+02 -0.66054022302E+03  0.66793793474E+03  0.77000000000E+02 0.  0.
   -5000001    1    1    2    0    0 -0.57141237891E+02  0.25170962942E+02 -0.42073739980E+03  0.43225878595E+03  0.77000000000E+02 0.  0.
<mgrwt>
<rscale>  0 0.20315395E+03</rscale>
<asrwt>0</asrwt>
<pdfrwt beam="1">  1        2 0.16780562E+00 0.20315395E+03</pdfrwt>
<pdfrwt beam="2">  1       -2 0.14553161E-02 0.20315395E+03</pdfrwt>
<totfact> 0.27951800E+04</totfact>
</mgrwt>
</event>
<event>
 4    1  0.6122885E-004  0.2353401E+03  0.7818608E-02  0.1122937E+00
         -2   -1    0    0    0  501 -0.00000000000E+00  0.00000000000E+00  0.15444560165E+02  0.15444560375E+02  0.25500000000E-02 0. -1.
          2   -1    0    0  501    0  0.00000000000E+00 -0.00000000000E+00 -0.89651216334E+03  0.89651216335E+03  0.25500000000E-02 0.  1.
    5000001    1    1    2    0    0 -0.50581550816E+02  0.23330341219E+02 -0.70940926248E+03  0.71574667292E+03  0.77000000000E+02 0.  0.
   -5000001    1    1    2    0    0  0.50581550816E+02 -0.23330341219E+02 -0.17165834070E+03  0.19621005081E+03  0.77000000000E+02 0.  0.
<mgrwt>
<rscale>  0 0.23534006E+03</rscale>
<asrwt>0</asrwt>
<pdfrwt beam="1">  1        2 0.13792491E+00 0.23534006E+03</pdfrwt>
<pdfrwt beam="2">  1       -2 0.23760869E-02 0.23534006E+03</pdfrwt>
<totfact> 0.18085814E+04</totfact>
</mgrwt>
</event>
<event>
 4    1  0.6122885E-004  0.2012809E+03  0.7818608E-02  0.1148663E+00
         -2   -1    0    0    0  501 -0.00000000000E+00  0.00000000000E+00  0.46922356064E+02  0.46922356133E+02  0.25500000000E-02 0. -1.
          2   -1    0    0  501    0  0.00000000000E+00 -0.00000000000E+00 -0.21585659100E+03  0.21585659101E+03  0.25500000000E-02 0.  1.
    5000001    1    1    2    0    0  0.18505722171E+01 -0.51764901143E+02 -0.13530704861E+03  0.16407323673E+03  0.77000000000E+02 0.  0.
   -5000001    1    1    2    0    0 -0.18505722171E+01  0.51764901143E+02 -0.33627186319E+02  0.98705710410E+02  0.77000000000E+02 0.  0.
<mgrwt>
<rscale>  0 0.20128090E+03</rscale>
<asrwt>0</asrwt>
<pdfrwt beam="1">  1        2 0.33208706E-01 0.20128090E+03</pdfrwt>
<pdfrwt beam="2">  1       -2 0.72188241E-02 0.20128090E+03</pdfrwt>
<totfact> 0.16823693E+04</totfact>
</mgrwt>
</event>
<event>
 4    1  0.6122885E-004  0.2351855E+03  0.7818608E-02  0.1123042E+00
         -2   -1    0    0    0  501 -0.00000000000E+00  0.00000000000E+00  0.19288725848E+03  0.19288725849E+03  0.25500000000E-02 0. -1.
          2   -1    0    0  501    0  0.00000000000E+00 -0.00000000000E+00 -0.71689820145E+02  0.71689820190E+02  0.25500000000E-02 0.  1.
    5000001    1    1    2    0    0 -0.44180741610E+02  0.54703419235E+02 -0.55104563439E+00  0.10427706199E+03  0.77000000000E+02 0.  0.
   -5000001    1    1    2    0    0  0.44180741610E+02 -0.54703419235E+02  0.12174848397E+03  0.16030001670E+03  0.77000000000E+02 0.  0.
<mgrwt>
<rscale>  0 0.23518548E+03</rscale>
<asrwt>0</asrwt>
<pdfrwt beam="1">  1        2 0.11029203E-01 0.23518548E+03</pdfrwt>
<pdfrwt beam="2">  1       -2 0.29674963E-01 0.23518548E+03</pdfrwt>
<totfact> 0.58216292E+03</totfact>
</mgrwt>
</event>
<event>
 4    1  0.6122885E-004  0.2419479E+03  0.7818608E-02  0.1118502E+00
         -2   -1    0    0    0  501 -0.00000000000E+00  0.00000000000E+00  0.67203214753E+01  0.67203219591E+01  0.25500000000E-02 0. -1.
          2   -1    0    0  501    0  0.00000000000E+00 -0.00000000000E+00 -0.21776771089E+04  0.21776771089E+04  0.25500000000E-02 0.  1.
    5000001    1    1    2    0    0 -0.45556738103E+02 -0.77593922838E+02 -0.86259300070E+03  0.87068474094E+03  0.77000000000E+02 0.  0.
   -5000001    1    1    2    0    0  0.45556738103E+02  0.77593922838E+02 -0.13083637868E+04  0.13137126900E+04  0.77000000000E+02 0.  0.
<mgrwt>
<rscale>  0 0.24194785E+03</rscale>
<asrwt>0</asrwt>
<pdfrwt beam="1">  1        2 0.33502668E+00 0.24194785E+03</pdfrwt>
<pdfrwt beam="2">  1       -2 0.10338974E-02 0.24194785E+03</pdfrwt>
<totfact> 0.12125498E+04</totfact>
</mgrwt>
</event>
<event>
 4    1  0.6122885E-004  0.1929564E+03  0.7818608E-02  0.1155822E+00
          2   -1    0    0  501    0  0.00000000000E+00  0.00000000000E+00  0.95434106091E+03  0.95434106091E+03  0.25500000000E-02 0.  1.
         -2   -1    0    0    0  501 -0.00000000000E+00 -0.00000000000E+00 -0.97533735560E+01  0.97533738893E+01  0.25500000000E-02 0. -1.
    5000001    1    1    2    0    0  0.51599387481E+02  0.25565131145E+02  0.51194311004E+03  0.52089425091E+03  0.77000000000E+02 0.  0.
   -5000001    1    1    2    0    0 -0.51599387481E+02 -0.25565131145E+02  0.43264457731E+03  0.44320018388E+03  0.77000000000E+02 0.  0.
<mgrwt>
<rscale>  0 0.19295642E+03</rscale>
<asrwt>0</asrwt>
<pdfrwt beam="1">  1        2 0.14682180E+00 0.19295642E+03</pdfrwt>
<pdfrwt beam="2">  1       -2 0.15005181E-02 0.19295642E+03</pdfrwt>
<totfact> 0.32174494E+04</totfact>
</mgrwt>
</event>
<event>
 4    1  0.6122885E-004  0.2309805E+03  0.7818608E-02  0.1125952E+00
          2   -1    0    0  501    0  0.00000000000E+00  0.00000000000E+00  0.72865157083E+02  0.72865157127E+02  0.25500000000E-02 0.  1.
         -2   -1    0    0    0  501 -0.00000000000E+00 -0.00000000000E+00 -0.18305047923E+03  0.18305047925E+03  0.25500000000E-02 0. -1.
    5000001    1    1    2    0    0 -0.16690376202E+02  0.84059265701E+02 -0.63988989211E+02  0.13178816164E+03  0.77000000000E+02 0.  0.
   -5000001    1    1    2    0    0  0.16690376202E+02 -0.84059265701E+02 -0.46196332940E+02  0.12412747474E+03  0.77000000000E+02 0.  0.
<mgrwt>
<rscale>  0 0.23098054E+03</rscale>
<asrwt>0</asrwt>
<pdfrwt beam="1">  1        2 0.11210024E-01 0.23098054E+03</pdfrwt>
<pdfrwt beam="2">  1       -2 0.28161612E-01 0.23098054E+03</pdfrwt>
<totfact> 0.62656346E+03</totfact>
</mgrwt>
</event>
<event>
 4    1  0.6122885E-004  0.1742944E+03  0.7818608E-02  0.1173442E+00
          2   -1    0    0  501    0  0.00000000000E+00  0.00000000000E+00  0.51761494885E+03  0.51761494886E+03  0.25500000000E-02 0.  1.
         -2   -1    0    0    0  501 -0.00000000000E+00 -0.00000000000E+00 -0.14672371364E+02  0.14672371586E+02  0.25500000000E-02 0. -1.
    5000001    1    1    2    0    0 -0.24055023993E+02 -0.93225126235E+01  0.34804993313E+03  0.35739797058E+03  0.77000000000E+02 0.  0.
   -5000001    1    1    2    0    0  0.24055023993E+02  0.93225126235E+01  0.15489264436E+03  0.17488934987E+03  0.77000000000E+02 0.  0.
<mgrwt>
<rscale>  0 0.17429445E+03</rscale>
<asrwt>0</asrwt>
<pdfrwt beam="1">  1        2 0.79633074E-01 0.17429445E+03</pdfrwt>
<pdfrwt beam="2">  1       -2 0.22572878E-02 0.17429445E+03</pdfrwt>
<totfact> 0.36954988E+04</totfact>
</mgrwt>
</event>
<event>
 4    1  0.6122885E-004  0.2301969E+03  0.7818608E-02  0.1126501E+00
         -2   -1    0    0    0  501 -0.00000000000E+00  0.00000000000E+00  0.10933095359E+03  0.10933095362E+03  0.25500000000E-02 0. -1.
          2   -1    0    0  501    0  0.00000000000E+00 -0.00000000000E+00 -0.12117017639E+03  0.12117017641E+03  0.25500000000E-02 0.  1.
    5000001    1    1    2    0    0  0.66796570747E+02 -0.53267179465E+02 -0.10338681916E+02  0.11547754161E+03  0.77000000000E+02 0.  0.
   -5000001    1    1    2    0    0 -0.66796570747E+02  0.53267179465E+02 -0.15005408796E+01  0.11502358843E+03  0.77000000000E+02 0.  0.
<mgrwt>
<rscale>  0 0.23019688E+03</rscale>
<asrwt>0</asrwt>
<pdfrwt beam="1">  1        2 0.18641566E-01 0.23019688E+03</pdfrwt>
<pdfrwt beam="2">  1       -2 0.16820147E-01 0.23019688E+03</pdfrwt>
<totfact> 0.83413546E+03</totfact>
</mgrwt>
</event>
<event>
 4    1  0.6122885E-004  0.3222744E+03  0.7818608E-02  0.1074607E+00
         -2   -1    0    0    0  501 -0.00000000000E+00  0.00000000000E+00  0.97491640309E+02  0.97491640342E+02  0.25500000000E-02 0. -1.
          2   -1    0    0  501    0  0.00000000000E+00 -0.00000000000E+00 -0.26633246798E+03  0.26633246799E+03  0.25500000000E-02 0.  1.
    5000001    1    1    2    0    0 -0.14657020269E+02  0.81157579152E+02  0.45454286849E+02  0.12164075423E+03  0.77000000000E+02 0.  0.
   -5000001    1    1    2    0    0  0.14657020269E+02 -0.81157579152E+02 -0.21429511452E+03  0.24218335410E+03  0.77000000000E+02 0.  0.
<mgrwt>
<rscale>  0 0.32227435E+03</rscale>
<asrwt>0</asrwt>
<pdfrwt beam="1">  1        2 0.40974225E-01 0.32227435E+03</pdfrwt>
<pdfrwt beam="2">  1       -2 0.14998714E-01 0.32227435E+03</pdfrwt>
<totfact> 0.42640645E+03</totfact>
</mgrwt>
</event>
<event>
 4    1  0.6122885E-004  0.2079056E+03  0.7818608E-02  0.1143235E+00
         -2   -1    0    0    0  501 -0.00000000000E+00  0.00000000000E+00  0.10136167258E+02  0.10136167579E+02  0.25500000000E-02 0. -1.
          2   -1    0    0  501    0  0.00000000000E+00 -0.00000000000E+00 -0.10661012967E+04  0.10661012967E+04  0.25500000000E-02 0.  1.
    5000001    1    1    2    0    0  0.54305815908E+02 -0.43440044976E+02 -0.49482742683E+03  0.50558811447E+03  0.77000000000E+02 0.  0.
   -5000001    1    1    2    0    0 -0.54305815908E+02  0.43440044976E+02 -0.56113770261E+03  0.57064934981E+03  0.77000000000E+02 0.  0.
<mgrwt>
<rscale>  0 0.20790557E+03</rscale>
<asrwt>0</asrwt>
<pdfrwt beam="1">  1        2 0.16401550E+00 0.20790557E+03</pdfrwt>
<pdfrwt beam="2">  1       -2 0.15594112E-02 0.20790557E+03</pdfrwt>
<totfact> 0.26173041E+04</totfact>
</mgrwt>
</event>
<event>
 4    1  0.6122885E-004  0.3071588E+03  0.7818608E-02  0.1081716E+00
          2   -1    0    0  501    0  0.00000000000E+00  0.00000000000E+00  0.39445970676E+03  0.39445970677E+03  0.25500000000E-02 0.  1.
         -2   -1    0    0    0  501 -0.00000000000E+00 -0.00000000000E+00 -0.59794787715E+02  0.59794787770E+02  0.25500000000E-02 0. -1.
    5000001    1    1    2    0    0 -0.17854404518E+02  0.12677562478E+03  0.21996926570E+03  0.26590659385E+03  0.77000000000E+02 0.  0.
   -5000001    1    1    2    0    0  0.17854404518E+02 -0.12677562478E+03  0.11469565335E+03  0.18834790069E+03  0.77000000000E+02 0.  0.
<mgrwt>
<rscale>  0 0.30715882E+03</rscale>
<asrwt>0</asrwt>
<pdfrwt beam="1">  1        2 0.60686109E-01 0.30715882E+03</pdfrwt>
<pdfrwt beam="2">  1       -2 0.91991981E-02 0.30715882E+03</pdfrwt>
<totfact> 0.61386811E+03</totfact>
</mgrwt>
</event>
<event>
 4    1  0.6122885E-004  0.2688109E+03  0.7818608E-02  0.1101962E+00
         -2   -1    0    0    0  501 -0.00000000000E+00  0.00000000000E+00  0.98842859894E+01  0.98842863184E+01  0.25500000000E-02 0. -1.
          2   -1    0    0  501    0  0.00000000000E+00 -0.00000000000E+00 -0.18276310228E+04  0.18276310228E+04  0.25500000000E-02 0.  1.
    5000001    1    1    2    0    0  0.66721285998E+02  0.46153443753E+02 -0.39944240698E+03  0.41480731294E+03  0.77000000000E+02 0.  0.
   -5000001    1    1    2    0    0 -0.66721285998E+02 -0.46153443753E+02 -0.14183043298E+04  0.14227079961E+04  0.77000000000E+02 0.  0.
<mgrwt>
<rscale>  0 0.26881092E+03</rscale>
<asrwt>0</asrwt>
<pdfrwt beam="1">  1        2 0.28117373E+00 0.26881092E+03</pdfrwt>
<pdfrwt beam="2">  1       -2 0.15206609E-02 0.26881092E+03</pdfrwt>
<totfact> 0.10579560E+04</totfact>
</mgrwt>
</event>
<event>
 4    1  0.6122885E-004  0.3314522E+03  0.7818608E-02  0.1070496E+00
          2   -1    0    0  501    0  0.00000000000E+00  0.00000000000E+00  0.33662700033E+02  0.33662700130E+02  0.25500000000E-02 0.  1.
         -2   -1    0    0    0  501 -0.00000000000E+00 -0.00000000000E+00 -0.81589240934E+03  0.81589240934E+03  0.25500000000E-02 0. -1.
    5000001    1    1    2    0    0 -0.20083370354E+02 -0.12168579177E+03 -0.59496617645E+03  0.61247410133E+03  0.77000000000E+02 0.  0.
   -5000001    1    1    2    0    0  0.20083370354E+02  0.12168579177E+03 -0.18726353286E+03  0.23708100814E+03  0.77000000000E+02 0.  0.
<mgrwt>
<rscale>  0 0.33145221E+03</rscale>
<asrwt>0</asrwt>
<pdfrwt beam="1">  1        2 0.51788775E-02 0.33145221E+03</pdfrwt>
<pdfrwt beam="2">  1       -2 0.12552189E+00 0.33145221E+03</pdfrwt>
<totfact> 0.74941545E+02</totfact>
</mgrwt>
</event>
<event>
 4    1  0.6122885E-004  0.2222577E+03  0.7818608E-02  0.1132211E+00
          2   -1    0    0  501    0  0.00000000000E+00  0.00000000000E+00  0.17462884183E+04  0.17462884183E+04  0.25500000000E-02 0.  1.
         -2   -1    0    0    0  501 -0.00000000000E+00 -0.00000000000E+00 -0.70719252620E+01  0.70719257217E+01  0.25500000000E-02 0. -1.
    5000001    1    1    2    0    0  0.68688314632E+02  0.31688715489E+02  0.66113287275E+03  0.66988650881E+03  0.77000000000E+02 0.  0.
   -5000001    1    1    2    0    0 -0.68688314632E+02 -0.31688715489E+02  0.10780836202E+04  0.10834738352E+04  0.77000000000E+02 0.  0.
<mgrwt>
<rscale>  0 0.22225770E+03</rscale>
<asrwt>0</asrwt>
<pdfrwt beam="1">  1        2 0.26865992E+00 0.22225770E+03</pdfrwt>
<pdfrwt beam="2">  1       -2 0.10879879E-02 0.22225770E+03</pdfrwt>
<totfact> 0.18895374E+04</totfact>
</mgrwt>
</event>
<event>
 4    1  0.6122885E-004  0.3301151E+03  0.7818608E-02  0.1071086E+00
         -2   -1    0    0    0  501 -0.00000000000E+00  0.00000000000E+00  0.48645291385E+02  0.48645291452E+02  0.25500000000E-02 0. -1.
          2   -1    0    0  501    0  0.00000000000E+00 -0.00000000000E+00 -0.56005423766E+03  0.56005423767E+03  0.25500000000E-02 0.  1.
    5000001    1    1    2    0    0  0.92446099465E+02 -0.10329276672E+03 -0.34018902859E+03  0.37533085689E+03  0.77000000000E+02 0.  0.
   -5000001    1    1    2    0    0 -0.92446099465E+02  0.10329276672E+03 -0.17121991769E+03  0.23336867223E+03  0.77000000000E+02 0.  0.
<mgrwt>
<rscale>  0 0.33011514E+03</rscale>
<asrwt>0</asrwt>
<pdfrwt beam="1">  1        2 0.86162186E-01 0.33011514E+03</pdfrwt>
<pdfrwt beam="2">  1       -2 0.74838914E-02 0.33011514E+03</pdfrwt>
<totfact> 0.57535850E+03</totfact>
</mgrwt>
</event>
<event>
 4    1  0.6122885E-004  0.2205203E+03  0.7818608E-02  0.1133496E+00
          2   -1    0    0  501    0  0.00000000000E+00  0.00000000000E+00  0.95817368848E+03  0.95817368848E+03  0.25500000000E-02 0.  1.
         -2   -1    0    0    0  501 -0.00000000000E+00 -0.00000000000E+00 -0.12687990678E+02  0.12687990935E+02  0.25500000000E-02 0. -1.
    5000001    1    1    2    0    0  0.62436703234E+02  0.47206599972E+02  0.51709645332E+03  0.52862514793E+03  0.77000000000E+02 0.  0.
   -5000001    1    1    2    0    0 -0.62436703234E+02 -0.47206599972E+02  0.42838924448E+03  0.44223653148E+03  0.77000000000E+02 0.  0.
<mgrwt>
<rscale>  0 0.22052028E+03</rscale>
<asrwt>0</asrwt>
<pdfrwt beam="1">  1        2 0.14741131E+00 0.22052028E+03</pdfrwt>
<pdfrwt beam="2">  1       -2 0.19519989E-02 0.22052028E+03</pdfrwt>
<totfact> 0.21991658E+04</totfact>
</mgrwt>
</event>
<event>
 4    1  0.6122885E-004  0.4365653E+03  0.7818608E-02  0.1031806E+00
         -2   -1    0    0    0  501 -0.00000000000E+00  0.00000000000E+00  0.43593092059E+02  0.43593092133E+02  0.25500000000E-02 0. -1.
          2   -1    0    0  501    0  0.00000000000E+00 -0.00000000000E+00 -0.10930016680E+04  0.10930016680E+04  0.25500000000E-02 0.  1.
    5000001    1    1    2    0    0  0.11075557255E+03  0.14770994207E+03 -0.75216821252E+03  0.77831294719E+03  0.77000000000E+02 0.  0.
   -5000001    1    1    2    0    0 -0.11075557255E+03 -0.14770994207E+03 -0.29724036340E+03  0.35828181292E+03  0.77000000000E+02 0.  0.
<mgrwt>
<rscale>  0 0.43656533E+03</rscale>
<asrwt>0</asrwt>
<pdfrwt beam="1">  1        2 0.16815408E+00 0.43656533E+03</pdfrwt>
<pdfrwt beam="2">  1       -2 0.67066304E-02 0.43656533E+03</pdfrwt>
<totfact> 0.28799482E+03</totfact>
</mgrwt>
</event>
<event>
 4    1  0.6122885E-004  0.2682180E+03  0.7818608E-02  0.1102304E+00
         -2   -1    0    0    0  501 -0.00000000000E+00  0.00000000000E+00  0.41405236296E+02  0.41405236374E+02  0.25500000000E-02 0. -1.
          2   -1    0    0  501    0  0.00000000000E+00 -0.00000000000E+00 -0.43437073028E+03  0.43437073029E+03  0.25500000000E-02 0.  1.
    5000001    1    1    2    0    0 -0.10200315830E+03 -0.19390265669E+02 -0.25983632912E+03  0.29021465269E+03  0.77000000000E+02 0.  0.
   -5000001    1    1    2    0    0  0.10200315830E+03  0.19390265669E+02 -0.13312916487E+03  0.18556131398E+03  0.77000000000E+02 0.  0.
<mgrwt>
<rscale>  0 0.26821799E+03</rscale>
<asrwt>0</asrwt>
<pdfrwt beam="1">  1        2 0.66826263E-01 0.26821799E+03</pdfrwt>
<pdfrwt beam="2">  1       -2 0.63700367E-02 0.26821799E+03</pdfrwt>
<totfact> 0.97564317E+03</totfact>
</mgrwt>
</event>
<event>
 4    1  0.6122885E-004  0.2072010E+03  0.7818608E-02  0.1143802E+00
          2   -1    0    0  501    0  0.00000000000E+00  0.00000000000E+00  0.58484644777E+03  0.58484644778E+03  0.25500000000E-02 0.  1.
         -2   -1    0    0    0  501 -0.00000000000E+00 -0.00000000000E+00 -0.18351933335E+02  0.18351933513E+02  0.25500000000E-02 0. -1.
    5000001    1    1    2    0    0  0.13968932714E+02 -0.67802581538E+02  0.27327167836E+03  0.29223061328E+03  0.77000000000E+02 0.  0.
   -5000001    1    1    2    0    0 -0.13968932714E+02  0.67802581538E+02  0.29322283608E+03  0.31096776801E+03  0.77000000000E+02 0.  0.
<mgrwt>
<rscale>  0 0.20720099E+03</rscale>
<asrwt>0</asrwt>
<pdfrwt beam="1">  1        2 0.89976354E-01 0.20720099E+03</pdfrwt>
<pdfrwt beam="2">  1       -2 0.28233751E-02 0.20720099E+03</pdfrwt>
<totfact> 0.23488607E+04</totfact>
</mgrwt>
</event>
<event>
 4    1  0.6122885E-004  0.3873269E+03  0.7818608E-02  0.1048258E+00
         -2   -1    0    0    0  501 -0.00000000000E+00  0.00000000000E+00  0.21218673823E+02  0.21218673976E+02  0.25500000000E-02 0. -1.
          2   -1    0    0  501    0  0.00000000000E+00 -0.00000000000E+00 -0.17675714506E+04  0.17675714506E+04  0.25500000000E-02 0.  1.
    5000001    1    1    2    0    0  0.43041231700E+02 -0.16397895710E+03 -0.11190708993E+04  0.11344559594E+04  0.77000000000E+02 0.  0.
   -5000001    1    1    2    0    0 -0.43041231700E+02  0.16397895710E+03 -0.62728187742E+03  0.65433416520E+03  0.77000000000E+02 0.  0.
<mgrwt>
<rscale>  0 0.38732685E+03</rscale>
<asrwt>0</asrwt>
<pdfrwt beam="1">  1        2 0.27193395E+00 0.38732685E+03</pdfrwt>
<pdfrwt beam="2">  1       -2 0.32644128E-02 0.38732685E+03</pdfrwt>
<totfact> 0.36692286E+03</totfact>
</mgrwt>
</event>
<event>
 4    1  0.6122885E-004  0.2230409E+03  0.7818608E-02  0.1131636E+00
          2   -1    0    0  501    0  0.00000000000E+00  0.00000000000E+00  0.76765781798E+03  0.76765781798E+03  0.25500000000E-02 0.  1.
         -2   -1    0    0    0  501 -0.00000000000E+00 -0.00000000000E+00 -0.16200977227E+02  0.16200977427E+02  0.25500000000E-02 0. -1.
    5000001    1    1    2    0    0  0.89334830446E+01  0.78032042145E+02  0.44043573293E+03  0.45396193845E+03  0.77000000000E+02 0.  0.
   -5000001    1    1    2    0    0 -0.89334830446E+01 -0.78032042145E+02  0.31102110782E+03  0.32989685695E+03  0.77000000000E+02 0.  0.
<mgrwt>
<rscale>  0 0.22304087E+03</rscale>
<asrwt>0</asrwt>
<pdfrwt beam="1">  1        2 0.11810118E+00 0.22304087E+03</pdfrwt>
<pdfrwt beam="2">  1       -2 0.24924585E-02 0.22304087E+03</pdfrwt>
<totfact> 0.20516474E+04</totfact>
</mgrwt>
</event>
<event>
 4    1  0.6122885E-004  0.2849006E+03  0.7818608E-02  0.1093042E+00
         -2   -1    0    0    0  501 -0.00000000000E+00  0.00000000000E+00  0.51937114343E+03  0.51937114344E+03  0.25500000000E-02 0. -1.
          2   -1    0    0  501    0  0.00000000000E+00 -0.00000000000E+00 -0.39070506568E+02  0.39070506651E+02  0.25500000000E-02 0.  1.
    5000001    1    1    2    0    0  0.80545986764E+02  0.35395954313E+02  0.39966382523E+03  0.41641410010E+03  0.77000000000E+02 0.  0.
   -5000001    1    1    2    0    0 -0.80545986764E+02 -0.35395954313E+02  0.80636811638E+02  0.14202754999E+03  0.77000000000E+02 0.  0.
<mgrwt>
<rscale>  0 0.28490064E+03</rscale>
<asrwt>0</asrwt>
<pdfrwt beam="1">  1        2 0.60108471E-02 0.28490064E+03</pdfrwt>
<pdfrwt beam="2">  1       -2 0.79903254E-01 0.28490064E+03</pdfrwt>
<totfact> 0.17596840E+03</totfact>
</mgrwt>
</event>
<event>
 4    1  0.6122885E-004  0.2537266E+03  0.7818608E-02  0.1110972E+00
         -2   -1    0    0    0  501 -0.00000000000E+00  0.00000000000E+00  0.52337568919E+02  0.52337568981E+02  0.25500000000E-02 0. -1.
          2   -1    0    0  501    0  0.00000000000E+00 -0.00000000000E+00 -0.30750952466E+03  0.30750952467E+03  0.25500000000E-02 0.  1.
    5000001    1    1    2    0    0 -0.29941183039E+02 -0.85383221892E+02 -0.64501360035E+02  0.13518947618E+03  0.77000000000E+02 0.  0.
   -5000001    1    1    2    0    0  0.29941183039E+02  0.85383221892E+02 -0.19067059570E+03  0.22465761747E+03  0.77000000000E+02 0.  0.
<mgrwt>
<rscale>  0 0.25372663E+03</rscale>
<asrwt>0</asrwt>
<pdfrwt beam="1">  1        2 0.47309157E-01 0.25372663E+03</pdfrwt>
<pdfrwt beam="2">  1       -2 0.80519339E-02 0.25372663E+03</pdfrwt>
<totfact> 0.98346385E+03</totfact>
</mgrwt>
</event>
<event>
 4    1  0.6122885E-004  0.2701672E+03  0.7818608E-02  0.1101184E+00
         -2   -1    0    0    0  501 -0.00000000000E+00  0.00000000000E+00  0.39501708664E+02  0.39501708746E+02  0.25500000000E-02 0. -1.
          2   -1    0    0  501    0  0.00000000000E+00 -0.00000000000E+00 -0.46194410867E+03  0.46194410868E+03  0.25500000000E-02 0.  1.
    5000001    1    1    2    0    0 -0.94612144209E+02  0.33544787933E+02 -0.12333986029E+03  0.17668738429E+03  0.77000000000E+02 0.  0.
   -5000001    1    1    2    0    0  0.94612144209E+02 -0.33544787933E+02 -0.29910253971E+03  0.32475843313E+03  0.77000000000E+02 0.  0.
<mgrwt>
<rscale>  0 0.27016722E+03</rscale>
<asrwt>0</asrwt>
<pdfrwt beam="1">  1        2 0.71068320E-01 0.27016722E+03</pdfrwt>
<pdfrwt beam="2">  1       -2 0.60771863E-02 0.27016722E+03</pdfrwt>
<totfact> 0.98046863E+03</totfact>
</mgrwt>
</event>
<event>
 4    1  0.6122885E-004  0.1848814E+03  0.7818608E-02  0.1163161E+00
          2   -1    0    0  501    0  0.00000000000E+00  0.00000000000E+00  0.70730653787E+03  0.70730653787E+03  0.25500000000E-02 0.  1.
         -2   -1    0    0    0  501 -0.00000000000E+00 -0.00000000000E+00 -0.12081444308E+02  0.12081444577E+02  0.25500000000E-02 0. -1.
    5000001    1    1    2    0    0 -0.34298300180E+02  0.37686445826E+02  0.33036710283E+03  0.34302778929E+03  0.77000000000E+02 0.  0.
   -5000001    1    1    2    0    0  0.34298300180E+02 -0.37686445826E+02  0.36485799073E+03  0.37636019315E+03  0.77000000000E+02 0.  0.
<mgrwt>
<rscale>  0 0.18488142E+03</rscale>
<asrwt>0</asrwt>
<pdfrwt beam="1">  1        2 0.10881642E+00 0.18488142E+03</pdfrwt>
<pdfrwt beam="2">  1       -2 0.18586832E-02 0.18488142E+03</pdfrwt>
<totfact> 0.34416264E+04</totfact>
</mgrwt>
</event>
<event>
 4    1  0.6122885E-004  0.2474329E+03  0.7818608E-02  0.1114938E+00
         -2   -1    0    0    0  501 -0.00000000000E+00  0.00000000000E+00  0.12657325270E+02  0.12657325527E+02  0.25500000000E-02 0. -1.
          2   -1    0    0  501    0  0.00000000000E+00 -0.00000000000E+00 -0.12092413142E+04  0.12092413142E+04  0.25500000000E-02 0.  1.
    5000001    1    1    2    0    0  0.82727446165E+01 -0.91256298935E+02 -0.44365052321E+03  0.45951162895E+03  0.77000000000E+02 0.  0.
   -5000001    1    1    2    0    0 -0.82727446165E+01  0.91256298935E+02 -0.75293346571E+03  0.76238701076E+03  0.77000000000E+02 0.  0.
<mgrwt>
<rscale>  0 0.24743291E+03</rscale>
<asrwt>0</asrwt>
<pdfrwt beam="1">  1        2 0.18603703E+00 0.24743291E+03</pdfrwt>
<pdfrwt beam="2">  1       -2 0.19472818E-02 0.24743291E+03</pdfrwt>
<totfact> 0.15781403E+04</totfact>
</mgrwt>
</event>
<event>
 4    1  0.6122885E-004  0.2371684E+03  0.7818608E-02  0.1121694E+00
          2   -1    0    0  501    0  0.00000000000E+00  0.00000000000E+00  0.19953259232E+04  0.19953259232E+04  0.25500000000E-02 0.  1.
         -2   -1    0    0    0  501 -0.00000000000E+00 -0.00000000000E+00 -0.70475790302E+01  0.70475794916E+01  0.25500000000E-02 0. -1.
    5000001    1    1    2    0    0  0.37554822578E+02  0.51358808179E+02  0.15337627291E+04  0.15370117765E+04  0.77000000000E+02 0.  0.
   -5000001    1    1    2    0    0 -0.37554822578E+02 -0.51358808179E+02  0.45451561502E+03  0.46536172616E+03  0.77000000000E+02 0.  0.
<mgrwt>
<rscale>  0 0.23716844E+03</rscale>
<asrwt>0</asrwt>
<pdfrwt beam="1">  1        2 0.30697293E+00 0.23716844E+03</pdfrwt>
<pdfrwt beam="2">  1       -2 0.10842440E-02 0.23716844E+03</pdfrwt>
<totfact> 0.14107226E+04</totfact>
</mgrwt>
</event>
<event>
 4    1  0.6122885E-004  0.2087130E+03  0.7818608E-02  0.1142589E+00
         -2   -1    0    0    0  501 -0.00000000000E+00  0.00000000000E+00  0.19256347566E+02  0.19256347735E+02  0.25500000000E-02 0. -1.
          2   -1    0    0  501    0  0.00000000000E+00 -0.00000000000E+00 -0.56554223542E+03  0.56554223543E+03  0.25500000000E-02 0.  1.
    5000001    1    1    2    0    0 -0.12397344706E+01 -0.57844444177E+02 -0.38570097162E+03  0.39754465934E+03  0.77000000000E+02 0.  0.
   -5000001    1    1    2    0    0  0.12397344706E+01  0.57844444177E+02 -0.16058491624E+03  0.18725392383E+03  0.77000000000E+02 0.  0.
<mgrwt>
<rscale>  0 0.20871299E+03</rscale>
<asrwt>0</asrwt>
<pdfrwt beam="1">  1        2 0.87006485E-01 0.20871299E+03</pdfrwt>
<pdfrwt beam="2">  1       -2 0.29625155E-02 0.20871299E+03</pdfrwt>
<totfact> 0.22740787E+04</totfact>
</mgrwt>
</event>
<event>
 4    1  0.6122885E-004  0.2630722E+03  0.7818608E-02  0.1105311E+00
          2   -1    0    0  501    0  0.00000000000E+00  0.00000000000E+00  0.17699100279E+03  0.17699100281E+03  0.25500000000E-02 0.  1.
         -2   -1    0    0    0  501 -0.00000000000E+00 -0.00000000000E+00 -0.97754961145E+02  0.97754961178E+02  0.25500000000E-02 0. -1.
    5000001    1    1    2    0    0  0.90534297699E+02  0.44264783106E+02  0.31856798336E+01  0.12686598693E+03  0.77000000000E+02 0.  0.
   -5000001    1    1    2    0    0 -0.90534297699E+02 -0.44264783106E+02  0.76050361814E+02  0.14787997706E+03  0.77000000000E+02 0.  0.
<mgrwt>
<rscale>  0 0.26307222E+03</rscale>
<asrwt>0</asrwt>
<pdfrwt beam="1">  1        2 0.27229385E-01 0.26307222E+03</pdfrwt>
<pdfrwt beam="2">  1       -2 0.15039225E-01 0.26307222E+03</pdfrwt>
<totfact> 0.65904825E+03</totfact>
</mgrwt>
</event>
<event>
 4    1  0.6122885E-004  0.5483696E+03  0.7818608E-02  0.1001872E+00
          2   -1    0    0  501    0  0.00000000000E+00  0.00000000000E+00  0.14312776917E+04  0.14312776918E+04  0.25500000000E-02 0.  1.
         -2   -1    0    0    0  501 -0.00000000000E+00 -0.00000000000E+00 -0.52524619365E+02  0.52524619427E+02  0.25500000000E-02 0. -1.
    5000001    1    1    2    0    0  0.19701407385E+03  0.17438250950E+03  0.70277281044E+03  0.75434900941E+03  0.77000000000E+02 0.  0.
   -5000001    1    1    2    0    0 -0.19701407385E+03 -0.17438250950E+03  0.67598026195E+03  0.72945330176E+03  0.77000000000E+02 0.  0.
<mgrwt>
<rscale>  0 0.54836964E+03</rscale>
<asrwt>0</asrwt>
<pdfrwt beam="1">  1        2 0.22019657E+00 0.54836964E+03</pdfrwt>
<pdfrwt beam="2">  1       -2 0.80807108E-02 0.54836964E+03</pdfrwt>
<totfact> 0.13684139E+03</totfact>
</mgrwt>
</event>
<event>
 4    1  0.6122885E-004  0.2202462E+03  0.7818608E-02  0.1133700E+00
          2   -1    0    0  501    0  0.00000000000E+00  0.00000000000E+00  0.18619244994E+03  0.18619244996E+03  0.25500000000E-02 0.  1.
         -2   -1    0    0    0  501 -0.00000000000E+00 -0.00000000000E+00 -0.65132044410E+02  0.65132044460E+02  0.25500000000E-02 0. -1.
    5000001    1    1    2    0    0  0.76349426116E+02  0.17485470897E+02  0.51464440894E+02  0.12129536363E+03  0.77000000000E+02 0.  0.
   -5000001    1    1    2    0    0 -0.76349426116E+02 -0.17485470897E+02  0.69595964636E+02  0.13002913079E+03  0.77000000000E+02 0.  0.
<mgrwt>
<rscale>  0 0.22024618E+03</rscale>
<asrwt>0</asrwt>
<pdfrwt beam="1">  1        2 0.28644993E-01 0.22024618E+03</pdfrwt>
<pdfrwt beam="2">  1       -2 0.10020314E-01 0.22024618E+03</pdfrwt>
<totfact> 0.11907888E+04</totfact>
</mgrwt>
</event>
<event>
 4    1  0.6122885E-004  0.1756314E+03  0.7818608E-02  0.1172099E+00
         -2   -1    0    0    0  501 -0.00000000000E+00  0.00000000000E+00  0.72963928162E+01  0.72963932618E+01  0.25500000000E-02 0. -1.
          2   -1    0    0  501    0  0.00000000000E+00 -0.00000000000E+00 -0.10569052802E+04  0.10569052802E+04  0.25500000000E-02 0.  1.
    5000001    1    1    2    0    0  0.41842531414E+02 -0.55974307765E+01 -0.52894815641E+03  0.53618772910E+03  0.77000000000E+02 0.  0.
   -5000001    1    1    2    0    0 -0.41842531414E+02  0.55974307765E+01 -0.52066073093E+03  0.52801394432E+03  0.77000000000E+02 0.  0.
<mgrwt>
<rscale>  0 0.17563139E+03</rscale>
<asrwt>0</asrwt>
<pdfrwt beam="1">  1        2 0.16260069E+00 0.17563139E+03</pdfrwt>
<pdfrwt beam="2">  1       -2 0.11225228E-02 0.17563139E+03</pdfrwt>
<totfact> 0.42156752E+04</totfact>
</mgrwt>
</event>
<event>
 4    1  0.6122885E-004  0.3608761E+03  0.7818608E-02  0.1058238E+00
          2   -1    0    0  501    0  0.00000000000E+00  0.00000000000E+00  0.50964267136E+03  0.50964267137E+03  0.25500000000E-02 0.  1.
         -2   -1    0    0    0  501 -0.00000000000E+00 -0.00000000000E+00 -0.63883744838E+02  0.63883744889E+02  0.25500000000E-02 0. -1.
    5000001    1    1    2    0    0 -0.82244822416E+02  0.14086844742E+03  0.21563966641E+03  0.28113625882E+03  0.77000000000E+02 0.  0.
   -5000001    1    1    2    0    0  0.82244822416E+02 -0.14086844742E+03  0.23011926011E+03  0.29239015744E+03  0.77000000000E+02 0.  0.
<mgrwt>
<rscale>  0 0.36087606E+03</rscale>
<asrwt>0</asrwt>
<pdfrwt beam="1">  1        2 0.78406562E-01 0.36087606E+03</pdfrwt>
<pdfrwt beam="2">  1       -2 0.98282688E-02 0.36087606E+03</pdfrwt>
<totfact> 0.41742946E+03</totfact>
</mgrwt>
</event>
<event>
 4    1  0.6122885E-004  0.2132105E+03  0.7818608E-02  0.1139049E+00
          2   -1    0    0  501    0  0.00000000000E+00  0.00000000000E+00  0.24399792903E+03  0.24399792904E+03  0.25500000000E-02 0.  1.
         -2   -1    0    0    0  501 -0.00000000000E+00 -0.00000000000E+00 -0.46576966229E+02  0.46576966299E+02  0.25500000000E-02 0. -1.
    5000001    1    1    2    0    0  0.14730336416E+02 -0.70517564941E+02  0.77336096891E+02  0.13076536873E+03  0.77000000000E+02 0.  0.
   -5000001    1    1    2    0    0 -0.14730336416E+02  0.70517564941E+02  0.12008486591E+03  0.15980952662E+03  0.77000000000E+02 0.  0.
<mgrwt>
<rscale>  0 0.21321054E+03</rscale>
<asrwt>0</asrwt>
<pdfrwt beam="1">  1        2 0.37538143E-01 0.21321054E+03</pdfrwt>
<pdfrwt beam="2">  1       -2 0.71656872E-02 0.21321054E+03</pdfrwt>
<totfact> 0.14965421E+04</totfact>
</mgrwt>
</event>
<event>
 4    1  0.6122885E-004  0.2966766E+03  0.7818608E-02  0.1086914E+00
          2   -1    0    0  501    0  0.00000000000E+00  0.00000000000E+00  0.18651192276E+04  0.18651192276E+04  0.25500000000E-02 0.  1.
         -2   -1    0    0    0  501 -0.00000000000E+00 -0.00000000000E+00 -0.11797774384E+02  0.11797774659E+02  0.25500000000E-02 0. -1.
    5000001    1    1    2    0    0  0.79444958914E+02 -0.59375742386E+02  0.14263430817E+04  0.14318591296E+04  0.77000000000E+02 0.  0.
   -5000001    1    1    2    0    0 -0.79444958914E+02  0.59375742386E+02  0.42697837146E+03  0.44505787262E+03  0.77000000000E+02 0.  0.
<mgrwt>
<rscale>  0 0.29667663E+03</rscale>
<asrwt>0</asrwt>
<pdfrwt beam="1">  1        2 0.28694156E+00 0.29667663E+03</pdfrwt>
<pdfrwt beam="2">  1       -2 0.18150413E-02 0.29667663E+03</pdfrwt>
<totfact> 0.78077500E+03</totfact>
</mgrwt>
</event>
<event>
 4    1  0.6122885E-004  0.1841802E+03  0.7818608E-02  0.1163818E+00
          2   -1    0    0  501    0  0.00000000000E+00  0.00000000000E+00  0.34903085566E+03  0.34903085567E+03  0.25500000000E-02 0.  1.
         -2   -1    0    0    0  501 -0.00000000000E+00 -0.00000000000E+00 -0.24297535182E+02  0.24297535316E+02  0.25500000000E-02 0. -1.
    5000001    1    1    2    0    0  0.24816940136E+01 -0.43414704930E+02  0.11026934409E+03  0.14134823542E+03  0.77000000000E+02 0.  0.
   -5000001    1    1    2    0    0 -0.24816940136E+01  0.43414704930E+02  0.21446397639E+03  0.23198015557E+03  0.77000000000E+02 0.  0.
<mgrwt>
<rscale>  0 0.18418023E+03</rscale>
<asrwt>0</asrwt>
<pdfrwt beam="1">  1        2 0.53697057E-01 0.18418023E+03</pdfrwt>
<pdfrwt beam="2">  1       -2 0.37380822E-02 0.18418023E+03</pdfrwt>
<totfact> 0.27053409E+04</totfact>
</mgrwt>
</event>
<event>
 4    1  0.6122885E-004  0.4472020E+03  0.7818608E-02  0.1028560E+00
         -2   -1    0    0    0  501 -0.00000000000E+00  0.00000000000E+00  0.16368305645E+04  0.16368305645E+04  0.25500000000E-02 0. -1.
          2   -1    0    0  501    0  0.00000000000E+00 -0.00000000000E+00 -0.30545256498E+02  0.30545256605E+02  0.25500000000E-02 0.  1.
    5000001    1    1    2    0    0  0.72898023230E+01 -0.17710672773E+03  0.12224658051E+04  0.12376475989E+04  0.77000000000E+02 0.  0.
   -5000001    1    1    2    0    0 -0.72898023230E+01  0.17710672773E+03  0.38381950291E+03  0.42972822229E+03  0.77000000000E+02 0.  0.
<mgrwt>
<rscale>  0 0.44720201E+03</rscale>
<asrwt>0</asrwt>
<pdfrwt beam="1">  1        2 0.46992698E-02 0.44720201E+03</pdfrwt>
<pdfrwt beam="2">  1       -2 0.25182011E+00 0.44720201E+03</pdfrwt>
<totfact> 0.11809422E+02</totfact>
</mgrwt>
</event>
<event>
 4    1  0.6122885E-004  0.3746116E+03  0.7818608E-02  0.1052944E+00
         -2   -1    0    0    0  501 -0.00000000000E+00  0.00000000000E+00  0.42604416499E+02  0.42604416576E+02  0.25500000000E-02 0. -1.
          2   -1    0    0  501    0  0.00000000000E+00 -0.00000000000E+00 -0.82347000537E+03  0.82347000537E+03  0.25500000000E-02 0.  1.
    5000001    1    1    2    0    0 -0.16508942247E+03  0.26281228139E+02 -0.31003760886E+03  0.36055171512E+03  0.77000000000E+02 0.  0.
   -5000001    1    1    2    0    0  0.16508942247E+03 -0.26281228139E+02 -0.47082798001E+03  0.50552270683E+03  0.77000000000E+02 0.  0.
<mgrwt>
<rscale>  0 0.37461158E+03</rscale>
<asrwt>0</asrwt>
<pdfrwt beam="1">  1        2 0.12668768E+00 0.37461158E+03</pdfrwt>
<pdfrwt beam="2">  1       -2 0.65545262E-02 0.37461158E+03</pdfrwt>
<totfact> 0.44327597E+03</totfact>
</mgrwt>
</event>
<event>
 4    1  0.6122885E-004  0.2532045E+03  0.7818608E-02  0.1111296E+00
         -2   -1    0    0    0  501 -0.00000000000E+00  0.00000000000E+00  0.70012064291E+02  0.70012064338E+02  0.25500000000E-02 0. -1.
          2   -1    0    0  501    0  0.00000000000E+00 -0.00000000000E+00 -0.22893377725E+03  0.22893377726E+03  0.25500000000E-02 0.  1.
    5000001    1    1    2    0    0  0.72466846913E+02  0.61077321382E+02 -0.11892430309E+03  0.17045196671E+03  0.77000000000E+02 0.  0.
   -5000001    1    1    2    0    0 -0.72466846913E+02 -0.61077321382E+02 -0.39997409866E+02  0.12849387489E+03  0.77000000000E+02 0.  0.
<mgrwt>
<rscale>  0 0.25320447E+03</rscale>
<asrwt>0</asrwt>
<pdfrwt beam="1">  1        2 0.35220581E-01 0.25320447E+03</pdfrwt>
<pdfrwt beam="2">  1       -2 0.10771087E-01 0.25320447E+03</pdfrwt>
<totfact> 0.85359397E+03</totfact>
</mgrwt>
</event>
<event>
 4    1  0.6122885E-004  0.1654822E+03  0.7818608E-02  0.1182643E+00
          2   -1    0    0  501    0  0.00000000000E+00  0.00000000000E+00  0.12292163142E+03  0.12292163144E+03  0.25500000000E-02 0.  1.
         -2   -1    0    0    0  501 -0.00000000000E+00 -0.00000000000E+00 -0.55694777802E+02  0.55694777861E+02  0.25500000000E-02 0. -1.
    5000001    1    1    2    0    0  0.22731227494E+02  0.18838214791E+02  0.40894642494E+02  0.92048676387E+02  0.77000000000E+02 0.  0.
   -5000001    1    1    2    0    0 -0.22731227494E+02 -0.18838214791E+02  0.26332211121E+02  0.86567732917E+02  0.77000000000E+02 0.  0.
<mgrwt>
<rscale>  0 0.16548224E+03</rscale>
<asrwt>0</asrwt>
<pdfrwt beam="1">  1        2 0.18911020E-01 0.16548224E+03</pdfrwt>
<pdfrwt beam="2">  1       -2 0.85684274E-02 0.16548224E+03</pdfrwt>
<totfact> 0.23718624E+04</totfact>
</mgrwt>
</event>
<event>
 4    1  0.6122885E-004  0.2608275E+03  0.7818608E-02  0.1106647E+00
         -2   -1    0    0    0  501 -0.00000000000E+00  0.00000000000E+00  0.13914714411E+02  0.13914714645E+02  0.25500000000E-02 0. -1.
          2   -1    0    0  501    0  0.00000000000E+00 -0.00000000000E+00 -0.12222850383E+04  0.12222850383E+04  0.25500000000E-02 0.  1.
    5000001    1    1    2    0    0  0.97408937897E+02  0.19911218081E+02 -0.44042843357E+03  0.45802965285E+03  0.77000000000E+02 0.  0.
   -5000001    1    1    2    0    0 -0.97408937897E+02 -0.19911218081E+02 -0.76794189029E+03  0.77817010007E+03  0.77000000000E+02 0.  0.
<mgrwt>
<rscale>  0 0.26082751E+03</rscale>
<asrwt>0</asrwt>
<pdfrwt beam="1">  1        2 0.18804377E+00 0.26082751E+03</pdfrwt>
<pdfrwt beam="2">  1       -2 0.21407263E-02 0.26082751E+03</pdfrwt>
<totfact> 0.13525049E+04</totfact>
</mgrwt>
</event>
<event>
 4    1  0.6122885E-004  0.1778652E+03  0.7818608E-02  0.1169885E+00
         -2   -1    0    0    0  501 -0.00000000000E+00  0.00000000000E+00  0.24278839160E+01  0.24278852552E+01  0.25500000000E-02 0. -1.
          2   -1    0    0  501    0  0.00000000000E+00 -0.00000000000E+00 -0.32575706043E+04  0.32575706043E+04  0.25500000000E-02 0.  1.
    5000001    1    1    2    0    0 -0.27413387013E+00  0.39354362653E+02 -0.20081530926E+04  0.20100141006E+04  0.77000000000E+02 0.  0.
   -5000001    1    1    2    0    0  0.27413387013E+00 -0.39354362653E+02 -0.12469896278E+04  0.12499843890E+04  0.77000000000E+02 0.  0.
<mgrwt>
<rscale>  0 0.17786518E+03</rscale>
<asrwt>0</asrwt>
<pdfrwt beam="1">  1        2 0.50116121E+00 0.17786518E+03</pdfrwt>
<pdfrwt beam="2">  1       -2 0.37352331E-03 0.17786518E+03</pdfrwt>
<totfact> 0.12801692E+04</totfact>
</mgrwt>
</event>
<event>
 4    1  0.6122885E-004  0.1821679E+03  0.7818608E-02  0.1165721E+00
          2   -1    0    0  501    0  0.00000000000E+00  0.00000000000E+00  0.99747242856E+03  0.99747242856E+03  0.25500000000E-02 0.  1.
         -2   -1    0    0    0  501 -0.00000000000E+00 -0.00000000000E+00 -0.83173113966E+01  0.83173117875E+01  0.25500000000E-02 0. -1.
    5000001    1    1    2    0    0  0.43414888625E+01 -0.32094354094E+02  0.69505139355E+03  0.70005309496E+03  0.77000000000E+02 0.  0.
   -5000001    1    1    2    0    0 -0.43414888625E+01  0.32094354094E+02  0.29410372362E+03  0.30573664539E+03  0.77000000000E+02 0.  0.
<mgrwt>
<rscale>  0 0.18216793E+03</rscale>
<asrwt>0</asrwt>
<pdfrwt beam="1">  1        2 0.15345732E+00 0.18216793E+03</pdfrwt>
<pdfrwt beam="2">  1       -2 0.12795862E-02 0.18216793E+03</pdfrwt>
<totfact> 0.37971924E+04</totfact>
</mgrwt>
</event>
<event>
 4    1  0.6122885E-004  0.2514818E+03  0.7818608E-02  0.1112372E+00
         -2   -1    0    0    0  501 -0.00000000000E+00  0.00000000000E+00  0.55856147766E+01  0.55856153587E+01  0.25500000000E-02 0. -1.
          2   -1    0    0  501    0  0.00000000000E+00 -0.00000000000E+00 -0.28306243759E+04  0.28306243759E+04  0.25500000000E-02 0.  1.
    5000001    1    1    2    0    0 -0.88299114919E+02 -0.14304324198E+02 -0.92346129871E+03  0.93097320993E+03  0.77000000000E+02 0.  0.
   -5000001    1    1    2    0    0  0.88299114919E+02  0.14304324198E+02 -0.19015774625E+04  0.19052367814E+04  0.77000000000E+02 0.  0.
<mgrwt>
<rscale>  0 0.25148183E+03</rscale>
<asrwt>0</asrwt>
<pdfrwt beam="1">  1        2 0.43547953E+00 0.25148183E+03</pdfrwt>
<pdfrwt beam="2">  1       -2 0.85932766E-03 0.25148183E+03</pdfrwt>
<totfact> 0.69559974E+03</totfact>
</mgrwt>
</event>
<event>
 4    1  0.6122885E-004  0.4119426E+03  0.7818608E-02  0.1039721E+00
          2   -1    0    0  501    0  0.00000000000E+00  0.00000000000E+00  0.14666303508E+03  0.14666303510E+03  0.25500000000E-02 0.  1.
         -2   -1    0    0    0  501 -0.00000000000E+00 -0.00000000000E+00 -0.28926291704E+03  0.28926291705E+03  0.25500000000E-02 0. -1.
    5000001    1    1    2    0    0 -0.14698973198E+03  0.73977333705E+02 -0.17398846841E+03  0.25155439640E+03  0.77000000000E+02 0.  0.
   -5000001    1    1    2    0    0  0.14698973198E+03 -0.73977333705E+02  0.31388586447E+02  0.18437155575E+03  0.77000000000E+02 0.  0.
<mgrwt>
<rscale>  0 0.41194260E+03</rscale>
<asrwt>0</asrwt>
<pdfrwt beam="1">  1        2 0.22563544E-01 0.41194260E+03</pdfrwt>
<pdfrwt beam="2">  1       -2 0.44501987E-01 0.41194260E+03</pdfrwt>
<totfact> 0.11788641E+03</totfact>
</mgrwt>
</event>
<event>
 4    1  0.6122885E-004  0.3113544E+03  0.7818608E-02  0.1079699E+00
         -2   -1    0    0    0  501 -0.00000000000E+00  0.00000000000E+00  0.24043681337E+03  0.24043681338E+03  0.25500000000E-02 0. -1.
          2   -1    0    0  501    0  0.00000000000E+00 -0.00000000000E+00 -0.10079732778E+03  0.10079732781E+03  0.25500000000E-02 0.  1.
    5000001    1    1    2    0    0 -0.81757614019E+02  0.98262600654E+02  0.11842118093E+03  0.19050570131E+03  0.77000000000E+02 0.  0.
   -5000001    1    1    2    0    0  0.81757614019E+02 -0.98262600654E+02  0.21218304664E+02  0.15072843988E+03  0.77000000000E+02 0.  0.
<mgrwt>
<rscale>  0 0.31135439E+03</rscale>
<asrwt>0</asrwt>
<pdfrwt beam="1">  1        2 0.15507281E-01 0.31135439E+03</pdfrwt>
<pdfrwt beam="2">  1       -2 0.36990279E-01 0.31135439E+03</pdfrwt>
<totfact> 0.25940054E+03</totfact>
</mgrwt>
</event>
<event>
 4    1  0.6122885E-004  0.1866324E+03  0.7818608E-02  0.1161534E+00
         -2   -1    0    0    0  501 -0.00000000000E+00  0.00000000000E+00  0.60738254597E+01  0.60738259949E+01  0.25500000000E-02 0. -1.
          2   -1    0    0  501    0  0.00000000000E+00 -0.00000000000E+00 -0.14336779323E+04  0.14336779323E+04  0.25500000000E-02 0.  1.
    5000001    1    1    2    0    0 -0.51025044649E+02 -0.13052123088E+02 -0.69655768613E+03  0.70277700816E+03  0.77000000000E+02 0.  0.
   -5000001    1    1    2    0    0  0.51025044649E+02  0.13052123088E+02 -0.73104642067E+03  0.73697475009E+03  0.77000000000E+02 0.  0.
<mgrwt>
<rscale>  0 0.18663236E+03</rscale>
<asrwt>0</asrwt>
<pdfrwt beam="1">  1        2 0.22056557E+00 0.18663236E+03</pdfrwt>
<pdfrwt beam="2">  1       -2 0.93443587E-03 0.18663236E+03</pdfrwt>
<totfact> 0.34054323E+04</totfact>
</mgrwt>
</event>
<event>
 4    1  0.6122885E-004  0.2673942E+03  0.7818608E-02  0.1102780E+00
         -2   -1    0    0    0  501 -0.00000000000E+00  0.00000000000E+00  0.31180362896E+02  0.31180363000E+02  0.25500000000E-02 0. -1.
          2   -1    0    0  501    0  0.00000000000E+00 -0.00000000000E+00 -0.57327456907E+03  0.57327456908E+03  0.25500000000E-02 0.  1.
    5000001    1    1    2    0    0  0.96259379138E+02  0.21069865668E+02 -0.37794220274E+03  0.39809435555E+03  0.77000000000E+02 0.  0.
   -5000001    1    1    2    0    0 -0.96259379138E+02 -0.21069865668E+02 -0.16415200343E+03  0.20636057652E+03  0.77000000000E+02 0.  0.
<mgrwt>
<rscale>  0 0.26739416E+03</rscale>
<asrwt>0</asrwt>
<pdfrwt beam="1">  1        2 0.88196080E-01 0.26739416E+03</pdfrwt>
<pdfrwt beam="2">  1       -2 0.47969793E-02 0.26739416E+03</pdfrwt>
<totfact> 0.11027309E+04</totfact>
</mgrwt>
</event>
<event>
 4    1  0.6122885E-004  0.1807409E+03  0.7818608E-02  0.1167088E+00
         -2   -1    0    0    0  501 -0.00000000000E+00  0.00000000000E+00  0.18601559750E+03  0.18601559752E+03  0.25500000000E-02 0. -1.
          2   -1    0    0  501    0  0.00000000000E+00 -0.00000000000E+00 -0.43903931779E+02  0.43903931853E+02  0.25500000000E-02 0.  1.
    5000001    1    1    2    0    0 -0.36965904416E+02 -0.68328809429E+01  0.10758621763E+03  0.13753894203E+03  0.77000000000E+02 0.  0.
   -5000001    1    1    2    0    0  0.36965904416E+02  0.68328809429E+01  0.34525448092E+02  0.92380587340E+02  0.77000000000E+02 0.  0.
<mgrwt>
<rscale>  0 0.18074088E+03</rscale>
<asrwt>0</asrwt>
<pdfrwt beam="1">  1        2 0.67544511E-02 0.18074088E+03</pdfrwt>
<pdfrwt beam="2">  1       -2 0.28617784E-01 0.18074088E+03</pdfrwt>
<totfact> 0.11313777E+04</totfact>
</mgrwt>
</event>
<event>
 4    1  0.6122885E-004  0.2164458E+03  0.7818608E-02  0.1136561E+00
          2   -1    0    0  501    0  0.00000000000E+00  0.00000000000E+00  0.93074614455E+03  0.93074614456E+03  0.25500000000E-02 0.  1.
         -2   -1    0    0    0  501 -0.00000000000E+00 -0.00000000000E+00 -0.12583666873E+02  0.12583667132E+02  0.25500000000E-02 0. -1.
    5000001    1    1    2    0    0  0.51039348540E+02 -0.48818054658E+02  0.33619790727E+03  0.35206000967E+03  0.77000000000E+02 0.  0.
   -5000001    1    1    2    0    0 -0.51039348540E+02  0.48818054658E+02  0.58196457041E+03  0.59126980202E+03  0.77000000000E+02 0.  0.
<mgrwt>
<rscale>  0 0.21644583E+03</rscale>
<asrwt>0</asrwt>
<pdfrwt beam="1">  1        2 0.14319168E+00 0.21644583E+03</pdfrwt>
<pdfrwt beam="2">  1       -2 0.19359493E-02 0.21644583E+03</pdfrwt>
<totfact> 0.23130914E+04</totfact>
</mgrwt>
</event>
<event>
 4    1  0.6122885E-004  0.2516902E+03  0.7818608E-02  0.1112241E+00
         -2   -1    0    0    0  501 -0.00000000000E+00  0.00000000000E+00  0.14178673561E+04  0.14178673561E+04  0.25500000000E-02 0. -1.
          2   -1    0    0  501    0  0.00000000000E+00 -0.00000000000E+00 -0.11169583091E+02  0.11169583382E+02  0.25500000000E-02 0.  1.
    5000001    1    1    2    0    0  0.68117588051E+02 -0.71709277535E+02  0.76702117433E+03  0.77719541182E+03  0.77000000000E+02 0.  0.
   -5000001    1    1    2    0    0 -0.68117588051E+02  0.71709277535E+02  0.63967659863E+03  0.65184152762E+03  0.77000000000E+02 0.  0.
<mgrwt>
<rscale>  0 0.25169019E+03</rscale>
<asrwt>0</asrwt>
<pdfrwt beam="1">  1        2 0.17183972E-02 0.25169019E+03</pdfrwt>
<pdfrwt beam="2">  1       -2 0.21813347E+00 0.25169019E+03</pdfrwt>
<totfact> 0.75062109E+02</totfact>
</mgrwt>
</event>
<event>
 4    1  0.6122885E-004  0.2996219E+03  0.7818608E-02  0.1085430E+00
          2   -1    0    0  501    0  0.00000000000E+00  0.00000000000E+00  0.29968657535E+04  0.29968657535E+04  0.25500000000E-02 0.  1.
         -2   -1    0    0    0  501 -0.00000000000E+00 -0.00000000000E+00 -0.74889309401E+01  0.74889313742E+01  0.25500000000E-02 0. -1.
    5000001    1    1    2    0    0  0.79814358642E+02  0.99603469900E+02  0.16444721482E+04  0.16512143498E+04  0.77000000000E+02 0.  0.
   -5000001    1    1    2    0    0 -0.79814358642E+02 -0.99603469900E+02  0.13449046744E+04  0.13531403350E+04  0.77000000000E+02 0.  0.
<mgrwt>
<rscale>  0 0.29962190E+03</rscale>
<asrwt>0</asrwt>
<pdfrwt beam="1">  1        2 0.46105666E+00 0.29962190E+03</pdfrwt>
<pdfrwt beam="2">  1       -2 0.11521423E-02 0.29962190E+03</pdfrwt>
<totfact> 0.36231244E+03</totfact>
</mgrwt>
</event>
<event>
 4    1  0.6122885E-004  0.2405155E+03  0.7818608E-02  0.1119450E+00
          2   -1    0    0  501    0  0.00000000000E+00  0.00000000000E+00  0.25771527949E+03  0.25771527950E+03  0.25500000000E-02 0.  1.
         -2   -1    0    0    0  501 -0.00000000000E+00 -0.00000000000E+00 -0.56115916072E+02  0.56115916130E+02  0.25500000000E-02 0. -1.
    5000001    1    1    2    0    0  0.70380797320E+02 -0.37981791546E+02  0.40482558531E+02  0.11816899198E+03  0.77000000000E+02 0.  0.
   -5000001    1    1    2    0    0 -0.70380797320E+02  0.37981791546E+02  0.16111680489E+03  0.19566220365E+03  0.77000000000E+02 0.  0.
<mgrwt>
<rscale>  0 0.24051552E+03</rscale>
<asrwt>0</asrwt>
<pdfrwt beam="1">  1        2 0.39648504E-01 0.24051552E+03</pdfrwt>
<pdfrwt beam="2">  1       -2 0.86332180E-02 0.24051552E+03</pdfrwt>
<totfact> 0.10633298E+04</totfact>
</mgrwt>
</event>
<event>
 4    1  0.6122885E-004  0.3145309E+03  0.7818608E-02  0.1078194E+00
          2   -1    0    0  501    0  0.00000000000E+00  0.00000000000E+00  0.18537629879E+02  0.18537630054E+02  0.25500000000E-02 0. -1.
         -2   -1    0    0    0  501 -0.00000000000E+00 -0.00000000000E+00 -0.13341738036E+04  0.13341738036E+04  0.25500000000E-02 0.  1.
    5000001    1    1    2    0    0 -0.55325439687E+02 -0.10435768250E+03 -0.95739049452E+03  0.96771741183E+03  0.77000000000E+02 0.  0.
   -5000001    1    1    2    0    0  0.55325439687E+02  0.10435768250E+03 -0.35824567921E+03  0.38499402183E+03  0.77000000000E+02 0.  0.
<mgrwt>
<rscale>  0 0.31453089E+03</rscale>
<asrwt>0</asrwt>
<pdfrwt beam="1">  1        2 0.28519441E-02 0.31453089E+03</pdfrwt>
<pdfrwt beam="2">  1       -2 0.20525743E+00 0.31453089E+03</pdfrwt>
<totfact> 0.44938267E+02</totfact>
</mgrwt>
</event>
<event>
 4    1  0.6122885E-004  0.2316518E+03  0.7818608E-02  0.1125483E+00
         -2   -1    0    0    0  501 -0.00000000000E+00  0.00000000000E+00  0.23875912391E+02  0.23875912527E+02  0.25500000000E-02 0. -1.
          2   -1    0    0  501    0  0.00000000000E+00 -0.00000000000E+00 -0.56188995042E+03  0.56188995043E+03  0.25500000000E-02 0.  1.
    5000001    1    1    2    0    0 -0.52639544596E+02 -0.35482024690E+02 -0.12033755692E+03  0.15633305261E+03  0.77000000000E+02 0.  0.
   -5000001    1    1    2    0    0  0.52639544596E+02  0.35482024690E+02 -0.41767648111E+03  0.42943281035E+03  0.77000000000E+02 0.  0.
<mgrwt>
<rscale>  0 0.23165177E+03</rscale>
<asrwt>0</asrwt>
<pdfrwt beam="1">  1        2 0.86444597E-01 0.23165177E+03</pdfrwt>
<pdfrwt beam="2">  1       -2 0.36732177E-02 0.23165177E+03</pdfrwt>
<totfact> 0.16746321E+04</totfact>
</mgrwt>
</event>
<event>
 4    1  0.6122885E-004  0.1608491E+03  0.7818608E-02  0.1187741E+00
         -2   -1    0    0    0  501 -0.00000000000E+00  0.00000000000E+00  0.12175764664E+02  0.12175764931E+02  0.25500000000E-02 0. -1.
          2   -1    0    0  501    0  0.00000000000E+00 -0.00000000000E+00 -0.53122826445E+03  0.53122826445E+03  0.25500000000E-02 0.  1.
    5000001    1    1    2    0    0  0.14432493608E+01  0.11260562025E+02 -0.32795149502E+03  0.33706092374E+03  0.77000000000E+02 0.  0.
   -5000001    1    1    2    0    0 -0.14432493608E+01 -0.11260562025E+02 -0.19110100477E+03  0.20634310565E+03  0.77000000000E+02 0.  0.
<mgrwt>
<rscale>  0 0.16084913E+03</rscale>
<asrwt>0</asrwt>
<pdfrwt beam="1">  1        2 0.81727407E-01 0.16084913E+03</pdfrwt>
<pdfrwt beam="2">  1       -2 0.18731950E-02 0.16084913E+03</pdfrwt>
<totfact> 0.46775667E+04</totfact>
</mgrwt>
</event>
<event>
 4    1  0.6122885E-004  0.2053454E+03  0.7818608E-02  0.1145306E+00
          2   -1    0    0  501    0  0.00000000000E+00  0.00000000000E+00  0.86846221269E+03  0.86846221269E+03  0.25500000000E-02 0.  1.
         -2   -1    0    0    0  501 -0.00000000000E+00 -0.00000000000E+00 -0.12138337542E+02  0.12138337810E+02  0.25500000000E-02 0. -1.
    5000001    1    1    2    0    0 -0.28499781065E+02 -0.14147502576E+02  0.68547576555E+03  0.69052039398E+03  0.77000000000E+02 0.  0.
   -5000001    1    1    2    0    0  0.28499781065E+02  0.14147502576E+02  0.17084810960E+03  0.19008015652E+03  0.77000000000E+02 0.  0.
<mgrwt>
<rscale>  0 0.20534544E+03</rscale>
<asrwt>0</asrwt>
<pdfrwt beam="1">  1        2 0.13360959E+00 0.20534544E+03</pdfrwt>
<pdfrwt beam="2">  1       -2 0.18674363E-02 0.20534544E+03</pdfrwt>
<totfact> 0.26642346E+04</totfact>
</mgrwt>
</event>
<event>
 4    1  0.6122885E-004  0.1957733E+03  0.7818608E-02  0.1153355E+00
         -2   -1    0    0    0  501 -0.00000000000E+00  0.00000000000E+00  0.32383020512E+02  0.32383020613E+02  0.25500000000E-02 0. -1.
          2   -1    0    0  501    0  0.00000000000E+00 -0.00000000000E+00 -0.29588937861E+03  0.29588937862E+03  0.25500000000E-02 0.  1.
    5000001    1    1    2    0    0  0.44466135076E+01 -0.56485490047E+02 -0.96484197052E+02  0.13582556180E+03  0.77000000000E+02 0.  0.
   -5000001    1    1    2    0    0 -0.44466135076E+01  0.56485490047E+02 -0.16702216104E+03  0.19244683743E+03  0.77000000000E+02 0.  0.
<mgrwt>
<rscale>  0 0.19577325E+03</rscale>
<asrwt>0</asrwt>
<pdfrwt beam="1">  1        2 0.45521441E-01 0.19577325E+03</pdfrwt>
<pdfrwt beam="2">  1       -2 0.49820034E-02 0.19577325E+03</pdfrwt>
<totfact> 0.21078725E+04</totfact>
</mgrwt>
</event>
<event>
 4    1  0.6122885E-004  0.2013136E+03  0.7818608E-02  0.1148635E+00
          2   -1    0    0  501    0  0.00000000000E+00  0.00000000000E+00  0.14307543125E+03  0.14307543128E+03  0.25500000000E-02 0.  1.
         -2   -1    0    0    0  501 -0.00000000000E+00 -0.00000000000E+00 -0.70814324298E+02  0.70814324344E+02  0.25500000000E-02 0. -1.
    5000001    1    1    2    0    0 -0.36794887137E+02 -0.40907013151E+02  0.72558616208E+02  0.11925183533E+03  0.77000000000E+02 0.  0.
   -5000001    1    1    2    0    0  0.36794887137E+02  0.40907013151E+02 -0.29750925352E+00  0.94637920286E+02  0.77000000000E+02 0.  0.
<mgrwt>
<rscale>  0 0.20131359E+03</rscale>
<asrwt>0</asrwt>
<pdfrwt beam="1">  1        2 0.22011605E-01 0.20131359E+03</pdfrwt>
<pdfrwt beam="2">  1       -2 0.10894512E-01 0.20131359E+03</pdfrwt>
<totfact> 0.13893837E+04</totfact>
</mgrwt>
</event>
<event>
 4    1  0.6122885E-004  0.2757223E+03  0.7818608E-02  0.1098049E+00
         -2   -1    0    0    0  501 -0.00000000000E+00  0.00000000000E+00  0.18357391659E+02  0.18357391837E+02  0.25500000000E-02 0. -1.
          2   -1    0    0  501    0  0.00000000000E+00 -0.00000000000E+00 -0.10353157569E+04  0.10353157569E+04  0.25500000000E-02 0.  1.
    5000001    1    1    2    0    0 -0.10609673312E+03  0.38446879613E+02 -0.43780541454E+03  0.45862540306E+03  0.77000000000E+02 0.  0.
   -5000001    1    1    2    0    0  0.10609673312E+03 -0.38446879613E+02 -0.57915295065E+03  0.59504774563E+03  0.77000000000E+02 0.  0.
<mgrwt>
<rscale>  0 0.27572230E+03</rscale>
<asrwt>0</asrwt>
<pdfrwt beam="1">  1        2 0.15927930E+00 0.27572230E+03</pdfrwt>
<pdfrwt beam="2">  1       -2 0.28242149E-02 0.27572230E+03</pdfrwt>
<totfact> 0.11553614E+04</totfact>
</mgrwt>
</event>
<event>
 4    1  0.6122885E-004  0.2105504E+03  0.7818608E-02  0.1141131E+00
          2   -1    0    0  501    0  0.00000000000E+00  0.00000000000E+00  0.32973423084E+04  0.32973423084E+04  0.25500000000E-02 0.  1.
         -2   -1    0    0    0  501 -0.00000000000E+00 -0.00000000000E+00 -0.33611509259E+01  0.33611518932E+01  0.25500000000E-02 0. -1.
    5000001    1    1    2    0    0  0.20830287563E+02  0.48758962885E+02  0.88825057407E+03  0.89315699610E+03  0.77000000000E+02 0.  0.
   -5000001    1    1    2    0    0 -0.20830287563E+02 -0.48758962885E+02  0.24057305834E+04  0.24075464642E+04  0.77000000000E+02 0.  0.
<mgrwt>
<rscale>  0 0.21055039E+03</rscale>
<asrwt>0</asrwt>
<pdfrwt beam="1">  1        2 0.50728201E+00 0.21055039E+03</pdfrwt>
<pdfrwt beam="2">  1       -2 0.51710167E-03 0.21055039E+03</pdfrwt>
<totfact> 0.76081057E+03</totfact>
</mgrwt>
</event>
<event>
 4    1  0.6122885E-004  0.2504355E+03  0.7818608E-02  0.1113030E+00
          2   -1    0    0  501    0  0.00000000000E+00  0.00000000000E+00  0.68892983823E+03  0.68892983824E+03  0.25500000000E-02 0.  1.
         -2   -1    0    0    0  501 -0.00000000000E+00 -0.00000000000E+00 -0.22759192856E+02  0.22759192999E+02  0.25500000000E-02 0. -1.
    5000001    1    1    2    0    0 -0.67514713870E+02  0.58761474052E+02  0.45160393379E+03  0.46678288362E+03  0.77000000000E+02 0.  0.
   -5000001    1    1    2    0    0  0.67514713870E+02 -0.58761474052E+02  0.21456671158E+03  0.24490614762E+03  0.77000000000E+02 0.  0.
<mgrwt>
<rscale>  0 0.25043552E+03</rscale>
<asrwt>0</asrwt>
<pdfrwt beam="1">  1        2 0.10598920E+00 0.25043552E+03</pdfrwt>
<pdfrwt beam="2">  1       -2 0.35014146E-02 0.25043552E+03</pdfrwt>
<totfact> 0.14229972E+04</totfact>
</mgrwt>
</event>
<event>
 4    1  0.6122885E-004  0.2152839E+03  0.7818608E-02  0.1137449E+00
         -2   -1    0    0    0  501 -0.00000000000E+00  0.00000000000E+00  0.84450339569E+01  0.84450343418E+01  0.25500000000E-02 0. -1.
          2   -1    0    0  501    0  0.00000000000E+00 -0.00000000000E+00 -0.13720237014E+04  0.13720237014E+04  0.25500000000E-02 0.  1.
    5000001    1    1    2    0    0  0.64603730893E+01 -0.61558354577E+02 -0.40773345553E+03  0.41953156996E+03  0.77000000000E+02 0.  0.
   -5000001    1    1    2    0    0 -0.64603730893E+01  0.61558354577E+02 -0.95584521189E+03  0.96093716576E+03  0.77000000000E+02 0.  0.
<mgrwt>
<rscale>  0 0.21528388E+03</rscale>
<asrwt>0</asrwt>
<pdfrwt beam="1">  1        2 0.21108039E+00 0.21528388E+03</pdfrwt>
<pdfrwt beam="2">  1       -2 0.12992371E-02 0.21528388E+03</pdfrwt>
<totfact> 0.23013956E+04</totfact>
</mgrwt>
</event>
<event>
 4    1  0.6122885E-004  0.3521441E+03  0.7818608E-02  0.1061738E+00
          2   -1    0    0  501    0  0.00000000000E+00  0.00000000000E+00  0.94322749905E+02  0.94322749940E+02  0.25500000000E-02 0.  1.
         -2   -1    0    0    0  501 -0.00000000000E+00 -0.00000000000E+00 -0.32867327073E+03  0.32867327074E+03  0.25500000000E-02 0. -1.
    5000001    1    1    2    0    0  0.79082182147E+02 -0.13412129031E+03 -0.15177851027E+03  0.23066908815E+03  0.77000000000E+02 0.  0.
   -5000001    1    1    2    0    0 -0.79082182147E+02  0.13412129031E+03 -0.82572010552E+02  0.19232693253E+03  0.77000000000E+02 0.  0.
<mgrwt>
<rscale>  0 0.35214410E+03</rscale>
<asrwt>0</asrwt>
<pdfrwt beam="1">  1        2 0.14511192E-01 0.35214410E+03</pdfrwt>
<pdfrwt beam="2">  1       -2 0.50565118E-01 0.35214410E+03</pdfrwt>
<totfact> 0.15309348E+03</totfact>
</mgrwt>
</event>
<event>
 4    1  0.6122885E-004  0.3977290E+03  0.7818608E-02  0.1044569E+00
         -2   -1    0    0    0  501 -0.00000000000E+00  0.00000000000E+00  0.36599237216E+02  0.36599237305E+02  0.25500000000E-02 0. -1.
          2   -1    0    0  501    0  0.00000000000E+00 -0.00000000000E+00 -0.10805438222E+04  0.10805438222E+04  0.25500000000E-02 0.  1.
    5000001    1    1    2    0    0 -0.12539801211E+03 -0.13043996950E+03 -0.60523962939E+03  0.63638294766E+03  0.77000000000E+02 0.  0.
   -5000001    1    1    2    0    0  0.12539801211E+03  0.13043996950E+03 -0.43870495560E+03  0.48076011186E+03  0.77000000000E+02 0.  0.
<mgrwt>
<rscale>  0 0.39772895E+03</rscale>
<asrwt>0</asrwt>
<pdfrwt beam="1">  1        2 0.16623749E+00 0.39772895E+03</pdfrwt>
<pdfrwt beam="2">  1       -2 0.56306527E-02 0.39772895E+03</pdfrwt>
<totfact> 0.38443073E+03</totfact>
</mgrwt>
</event>
<event>
 4    1  0.6122885E-004  0.2740100E+03  0.7818608E-02  0.1099006E+00
          2   -1    0    0  501    0  0.00000000000E+00  0.00000000000E+00  0.29973729533E+04  0.29973729533E+04  0.25500000000E-02 0. -1.
         -2   -1    0    0    0  501 -0.00000000000E+00 -0.00000000000E+00 -0.62622751924E+01  0.62622757116E+01  0.25500000000E-02 0.  1.
    5000001    1    1    2    0    0 -0.22571643079E+02  0.44549764391E+02  0.38051021151E+03  0.39142199943E+03  0.77000000000E+02 0.  0.
   -5000001    1    1    2    0    0  0.22571643079E+02 -0.44549764391E+02  0.26106004666E+04  0.26122132296E+04  0.77000000000E+02 0.  0.
<mgrwt>
<rscale>  0 0.27401004E+03</rscale>
<asrwt>0</asrwt>
<pdfrwt beam="1">  1        2 0.46113676E+00 0.27401004E+03</pdfrwt>
<pdfrwt beam="2">  1       -2 0.96342186E-03 0.27401004E+03</pdfrwt>
<totfact> 0.47067063E+03</totfact>
</mgrwt>
</event>
<event>
 4    1  0.6122885E-004  0.2424128E+03  0.7818608E-02  0.1118196E+00
          2   -1    0    0  501    0  0.00000000000E+00  0.00000000000E+00  0.46205818938E+02  0.46205819008E+02  0.25500000000E-02 0.  1.
         -2   -1    0    0    0  501 -0.00000000000E+00 -0.00000000000E+00 -0.31794676934E+03  0.31794676935E+03  0.25500000000E-02 0. -1.
    5000001    1    1    2    0    0 -0.71595647185E+02  0.49872342557E+02 -0.84954887696E+02  0.14408164419E+03  0.77000000000E+02 0.  0.
   -5000001    1    1    2    0    0  0.71595647185E+02 -0.49872342557E+02 -0.18678606271E+03  0.22007094417E+03  0.77000000000E+02 0.  0.
<mgrwt>
<rscale>  0 0.24241280E+03</rscale>
<asrwt>0</asrwt>
<pdfrwt beam="1">  1        2 0.71085877E-02 0.24241280E+03</pdfrwt>
<pdfrwt beam="2">  1       -2 0.48914886E-01 0.24241280E+03</pdfrwt>
<totfact> 0.39305288E+03</totfact>
</mgrwt>
</event>
<event>
 4    1  0.6122885E-004  0.2791020E+03  0.7818608E-02  0.1096180E+00
          2   -1    0    0  501    0  0.00000000000E+00  0.00000000000E+00  0.60823032673E+03  0.60823032674E+03  0.25500000000E-02 0.  1.
         -2   -1    0    0    0  501 -0.00000000000E+00 -0.00000000000E+00 -0.32018256943E+02  0.32018257044E+02  0.25500000000E-02 0. -1.
    5000001    1    1    2    0    0  0.10629373139E+03 -0.59017246058E+01  0.18020974568E+03  0.22301959583E+03  0.77000000000E+02 0.  0.
   -5000001    1    1    2    0    0 -0.10629373139E+03  0.59017246058E+01  0.39600232411E+03  0.41722898795E+03  0.77000000000E+02 0.  0.
<mgrwt>
<rscale>  0 0.27910195E+03</rscale>
<asrwt>0</asrwt>
<pdfrwt beam="1">  1        2 0.93573897E-01 0.27910195E+03</pdfrwt>
<pdfrwt beam="2">  1       -2 0.49258857E-02 0.27910195E+03</pdfrwt>
<totfact> 0.99076988E+03</totfact>
</mgrwt>
</event>
<event>
 4    1  0.6122885E-004  0.2092010E+03  0.7818608E-02  0.1142200E+00
         -2   -1    0    0    0  501 -0.00000000000E+00  0.00000000000E+00  0.42092336548E+01  0.42092344272E+01  0.25500000000E-02 0. -1.
          2   -1    0    0  501    0  0.00000000000E+00 -0.00000000000E+00 -0.25993475447E+04  0.25993475447E+04  0.25500000000E-02 0.  1.
    5000001    1    1    2    0    0  0.66135308902E+02 -0.17325725622E+02 -0.15264406139E+04  0.15299098038E+04  0.77000000000E+02 0.  0.
   -5000001    1    1    2    0    0 -0.66135308902E+02  0.17325725622E+02 -0.10686976971E+04  0.10736469753E+04  0.77000000000E+02 0.  0.
<mgrwt>
<rscale>  0 0.20920098E+03</rscale>
<asrwt>0</asrwt>
<pdfrwt beam="1">  1        2 0.39989834E+00 0.20920098E+03</pdfrwt>
<pdfrwt beam="2">  1       -2 0.64757654E-03 0.20920098E+03</pdfrwt>
<totfact> 0.14084393E+04</totfact>
</mgrwt>
</event>
<event>
 4    1  0.6122885E-004  0.4907946E+03  0.7818608E-02  0.1016210E+00
         -2   -1    0    0    0  501 -0.00000000000E+00  0.00000000000E+00  0.28634678744E+02  0.28634678858E+02  0.25500000000E-02 0. -1.
          2   -1    0    0  501    0  0.00000000000E+00 -0.00000000000E+00 -0.21030386487E+04  0.21030386487E+04  0.25500000000E-02 0.  1.
    5000001    1    1    2    0    0  0.21390970329E+03  0.74655020586E+02 -0.80089624076E+03  0.83587948995E+03  0.77000000000E+02 0.  0.
   -5000001    1    1    2    0    0 -0.21390970329E+03 -0.74655020586E+02 -0.12735077292E+04  0.12957938376E+04  0.77000000000E+02 0.  0.
<mgrwt>
<rscale>  0 0.49079461E+03</rscale>
<asrwt>0</asrwt>
<pdfrwt beam="1">  1        2 0.32354429E+00 0.49079461E+03</pdfrwt>
<pdfrwt beam="2">  1       -2 0.44053368E-02 0.49079461E+03</pdfrwt>
<totfact> 0.15308948E+03</totfact>
</mgrwt>
</event>
<event>
 4    1  0.6122885E-004  0.2768417E+03  0.7818608E-02  0.1097427E+00
         -2   -1    0    0    0  501 -0.00000000000E+00  0.00000000000E+00  0.16222316608E+02  0.16222316809E+02  0.25500000000E-02 0. -1.
          2   -1    0    0  501    0  0.00000000000E+00 -0.00000000000E+00 -0.11811096179E+04  0.11811096179E+04  0.25500000000E-02 0.  1.
    5000001    1    1    2    0    0  0.30742890635E+02  0.10033772792E+03 -0.37873119983E+03  0.40047360299E+03  0.77000000000E+02 0.  0.
   -5000001    1    1    2    0    0 -0.30742890635E+02 -0.10033772792E+03 -0.78615610150E+03  0.79685833176E+03  0.77000000000E+02 0.  0.
<mgrwt>
<rscale>  0 0.27684172E+03</rscale>
<asrwt>0</asrwt>
<pdfrwt beam="1">  1        2 0.18170910E+00 0.27684172E+03</pdfrwt>
<pdfrwt beam="2">  1       -2 0.24957420E-02 0.27684172E+03</pdfrwt>
<totfact> 0.11400298E+04</totfact>
</mgrwt>
</event>
<event>
 4    1  0.6122885E-004  0.5698402E+03  0.7818608E-02  0.9970032E-01
          2   -1    0    0  501    0  0.00000000000E+00  0.00000000000E+00  0.10122996191E+03  0.10122996194E+03  0.25500000000E-02 0.  1.
         -2   -1    0    0    0  501 -0.00000000000E+00 -0.00000000000E+00 -0.80193119778E+03  0.80193119778E+03  0.25500000000E-02 0. -1.
    5000001    1    1    2    0    0  0.11767468186E+03 -0.21866986653E+03 -0.53509359312E+03  0.59491007276E+03  0.77000000000E+02 0.  0.
   -5000001    1    1    2    0    0 -0.11767468186E+03  0.21866986653E+03 -0.16560764274E+03  0.30825108696E+03  0.77000000000E+02 0.  0.
<mgrwt>
<rscale>  0 0.56984020E+03</rscale>
<asrwt>0</asrwt>
<pdfrwt beam="1">  1        2 0.15573841E-01 0.56984020E+03</pdfrwt>
<pdfrwt beam="2">  1       -2 0.12337403E+00 0.56984020E+03</pdfrwt>
<totfact> 0.19252974E+02</totfact>
</mgrwt>
</event>
<event>
 4    1  0.6122885E-004  0.9675361E+03  0.7818608E-02  0.9344885E-01
         -2   -1    0    0    0  501 -0.00000000000E+00  0.00000000000E+00  0.27441276070E+03  0.27441276072E+03  0.25500000000E-02 0. -1.
          2   -1    0    0  501    0  0.00000000000E+00 -0.00000000000E+00 -0.85284485473E+03  0.85284485473E+03  0.25500000000E-02 0.  1.
    5000001    1    1    2    0    0  0.10142625698E+03  0.44909064669E+03 -0.43719880290E+03  0.63956351350E+03  0.77000000000E+02 0.  0.
   -5000001    1    1    2    0    0 -0.10142625698E+03 -0.44909064669E+03 -0.14123329113E+03  0.48769410194E+03  0.77000000000E+02 0.  0.
<mgrwt>
<rscale>  0 0.96753607E+03</rscale>
<asrwt>0</asrwt>
<pdfrwt beam="1">  1        2 0.13120690E+00 0.96753607E+03</pdfrwt>
<pdfrwt beam="2">  1       -2 0.42217348E-01 0.96753607E+03</pdfrwt>
<totfact> 0.16791093E+02</totfact>
</mgrwt>
</event>
<event>
 4    1  0.6122885E-004  0.2313953E+03  0.7818608E-02  0.1125661E+00
          2   -1    0    0  501    0  0.00000000000E+00  0.00000000000E+00  0.25933036671E+04  0.25933036671E+04  0.25500000000E-02 0.  1.
         -2   -1    0    0    0  501 -0.00000000000E+00 -0.00000000000E+00 -0.51617367773E+01  0.51617374072E+01  0.25500000000E-02 0. -1.
    5000001    1    1    2    0    0 -0.50725676888E+02  0.60374477766E+02  0.16893095960E+04  0.16929010848E+04  0.77000000000E+02 0.  0.
   -5000001    1    1    2    0    0  0.50725676888E+02 -0.60374477766E+02  0.89883233432E+03  0.90556431968E+03  0.77000000000E+02 0.  0.
<mgrwt>
<rscale>  0 0.23139535E+03</rscale>
<asrwt>0</asrwt>
<pdfrwt beam="1">  1        2 0.39897086E+00 0.23139535E+03</pdfrwt>
<pdfrwt beam="2">  1       -2 0.79411128E-03 0.23139535E+03</pdfrwt>
<totfact> 0.10596663E+04</totfact>
</mgrwt>
</event>
<event>
 4    1  0.6122885E-004  0.3022377E+03  0.7818608E-02  0.1084127E+00
         -2   -1    0    0    0  501 -0.00000000000E+00  0.00000000000E+00  0.29941637484E+02  0.29941637592E+02  0.25500000000E-02 0. -1.
          2   -1    0    0  501    0  0.00000000000E+00 -0.00000000000E+00 -0.76271410480E+03  0.76271410480E+03  0.25500000000E-02 0.  1.
    5000001    1    1    2    0    0  0.73383929698E+02 -0.10578100924E+03 -0.41425081723E+03  0.44057639817E+03  0.77000000000E+02 0.  0.
   -5000001    1    1    2    0    0 -0.73383929698E+02  0.10578100924E+03 -0.31852165009E+03  0.35207934422E+03  0.77000000000E+02 0.  0.
<mgrwt>
<rscale>  0 0.30223772E+03</rscale>
<asrwt>0</asrwt>
<pdfrwt beam="1">  1        2 0.11734062E+00 0.30223772E+03</pdfrwt>
<pdfrwt beam="2">  1       -2 0.46064063E-02 0.30223772E+03</pdfrwt>
<totfact> 0.83675444E+03</totfact>
</mgrwt>
</event>
<event>
 4    1  0.6122885E-004  0.2457958E+03  0.7818608E-02  0.1115991E+00
          2   -1    0    0  501    0  0.00000000000E+00  0.00000000000E+00  0.64337196750E+03  0.64337196751E+03  0.25500000000E-02 0.  1.
         -2   -1    0    0    0  501 -0.00000000000E+00 -0.00000000000E+00 -0.23476140077E+02  0.23476140215E+02  0.25500000000E-02 0. -1.
    5000001    1    1    2    0    0  0.66969953943E+02 -0.66375165913E+02  0.26420697045E+03  0.29090369646E+03  0.77000000000E+02 0.  0.
   -5000001    1    1    2    0    0 -0.66969953943E+02  0.66375165913E+02  0.35568885698E+03  0.37594441126E+03  0.77000000000E+02 0.  0.
<mgrwt>
<rscale>  0 0.24579577E+03</rscale>
<asrwt>0</asrwt>
<pdfrwt beam="1">  1        2 0.98980298E-01 0.24579577E+03</pdfrwt>
<pdfrwt beam="2">  1       -2 0.36117141E-02 0.24579577E+03</pdfrwt>
<totfact> 0.14726438E+04</totfact>
</mgrwt>
</event>
<event>
 4    1  0.6122885E-004  0.2679560E+03  0.7818608E-02  0.1102455E+00
         -2   -1    0    0    0  501 -0.00000000000E+00  0.00000000000E+00  0.17811863998E+03  0.17811864000E+03  0.25500000000E-02 0. -1.
          2   -1    0    0  501    0  0.00000000000E+00 -0.00000000000E+00 -0.10077609801E+03  0.10077609804E+03  0.25500000000E-02 0.  1.
    5000001    1    1    2    0    0  0.86159949324E+00 -0.96681298277E+02  0.92483789020E+02  0.15437055102E+03  0.77000000000E+02 0.  0.
   -5000001    1    1    2    0    0 -0.86159949324E+00  0.96681298277E+02 -0.15141247045E+02  0.12452418702E+03  0.77000000000E+02 0.  0.
<mgrwt>
<rscale>  0 0.26795598E+03</rscale>
<asrwt>0</asrwt>
<pdfrwt beam="1">  1        2 0.15504015E-01 0.26795598E+03</pdfrwt>
<pdfrwt beam="2">  1       -2 0.27402867E-01 0.26795598E+03</pdfrwt>
<totfact> 0.44834070E+03</totfact>
</mgrwt>
</event>
<event>
 4    1  0.6122885E-004  0.2807832E+03  0.7818608E-02  0.1095262E+00
         -2   -1    0    0    0  501 -0.00000000000E+00  0.00000000000E+00  0.81450429513E+02  0.81450429553E+02  0.25500000000E-02 0. -1.
          2   -1    0    0  501    0  0.00000000000E+00 -0.00000000000E+00 -0.24198524033E+03  0.24198524035E+03  0.25500000000E-02 0.  1.
    5000001    1    1    2    0    0  0.71157116863E+02  0.34181018464E+02  0.19816693440E+02  0.11204186112E+03  0.77000000000E+02 0.  0.
   -5000001    1    1    2    0    0 -0.71157116863E+02 -0.34181018464E+02 -0.18035150426E+03  0.21139380879E+03  0.77000000000E+02 0.  0.
<mgrwt>
<rscale>  0 0.28078320E+03</rscale>
<asrwt>0</asrwt>
<pdfrwt beam="1">  1        2 0.37228498E-01 0.28078320E+03</pdfrwt>
<pdfrwt beam="2">  1       -2 0.12530835E-01 0.28078320E+03</pdfrwt>
<totfact> 0.63270752E+03</totfact>
</mgrwt>
</event>
<event>
 4    1  0.6122885E-004  0.3870697E+03  0.7818608E-02  0.1048351E+00
         -2   -1    0    0    0  501 -0.00000000000E+00  0.00000000000E+00  0.15867338420E+02  0.15867338625E+02  0.25500000000E-02 0. -1.
          2   -1    0    0  501    0  0.00000000000E+00 -0.00000000000E+00 -0.23605563608E+04  0.23605563608E+04  0.25500000000E-02 0.  1.
    5000001    1    1    2    0    0  0.17162664273E+03 -0.13933190740E+02 -0.14383289374E+04  0.14506443294E+04  0.77000000000E+02 0.  0.
   -5000001    1    1    2    0    0 -0.17162664273E+03  0.13933190740E+02 -0.90636008505E+03  0.92577937008E+03  0.77000000000E+02 0.  0.
<mgrwt>
<rscale>  0 0.38706975E+03</rscale>
<asrwt>0</asrwt>
<pdfrwt beam="1">  1        2 0.36316224E+00 0.38706975E+03</pdfrwt>
<pdfrwt beam="2">  1       -2 0.24411309E-02 0.38706975E+03</pdfrwt>
<totfact> 0.27293755E+03</totfact>
</mgrwt>
</event>
<event>
 4    1  0.6122885E-004  0.2526348E+03  0.7818608E-02  0.1111651E+00
         -2   -1    0    0    0  501 -0.00000000000E+00  0.00000000000E+00  0.13643021680E+02  0.13643021918E+02  0.25500000000E-02 0. -1.
          2   -1    0    0  501    0  0.00000000000E+00 -0.00000000000E+00 -0.11695417906E+04  0.11695417906E+04  0.25500000000E-02 0.  1.
    5000001    1    1    2    0    0 -0.85136857522E+02  0.33676137103E+02 -0.38801435039E+03  0.40603756332E+03  0.77000000000E+02 0.  0.
   -5000001    1    1    2    0    0  0.85136857522E+02 -0.33676137103E+02 -0.76788441855E+03  0.77714724922E+03  0.77000000000E+02 0.  0.
<mgrwt>
<rscale>  0 0.25263479E+03</rscale>
<asrwt>0</asrwt>
<pdfrwt beam="1">  1        2 0.17992943E+00 0.25263479E+03</pdfrwt>
<pdfrwt beam="2">  1       -2 0.20989274E-02 0.25263479E+03</pdfrwt>
<totfact> 0.14900527E+04</totfact>
</mgrwt>
</event>
<event>
 4    1  0.6122885E-004  0.1802170E+03  0.7818608E-02  0.1167593E+00
          2   -1    0    0  501    0  0.00000000000E+00  0.00000000000E+00  0.53574760769E+03  0.53574760770E+03  0.25500000000E-02 0.  1.
         -2   -1    0    0    0  501 -0.00000000000E+00 -0.00000000000E+00 -0.15155530512E+02  0.15155530726E+02  0.25500000000E-02 0. -1.
    5000001    1    1    2    0    0 -0.11330969035E+02  0.39457420828E+02  0.19158331390E+03  0.21051946486E+03  0.77000000000E+02 0.  0.
   -5000001    1    1    2    0    0  0.11330969035E+02 -0.39457420828E+02  0.32900876328E+03  0.34038367357E+03  0.77000000000E+02 0.  0.
<mgrwt>
<rscale>  0 0.18021697E+03</rscale>
<asrwt>0</asrwt>
<pdfrwt beam="1">  1        2 0.82422700E-01 0.18021697E+03</pdfrwt>
<pdfrwt beam="2">  1       -2 0.23316204E-02 0.18021697E+03</pdfrwt>
<totfact> 0.34012344E+04</totfact>
</mgrwt>
</event>
<event>
 4    1  0.6122885E-004  0.1719813E+03  0.7818608E-02  0.1175797E+00
          2   -1    0    0  501    0  0.00000000000E+00  0.00000000000E+00  0.13996309730E+02  0.13996309963E+02  0.25500000000E-02 0.  1.
         -2   -1    0    0    0  501 -0.00000000000E+00 -0.00000000000E+00 -0.52831001230E+03  0.52831001231E+03  0.25500000000E-02 0. -1.
    5000001    1    1    2    0    0 -0.25283824108E+02  0.26471160867E+02 -0.22184616130E+03  0.23766512870E+03  0.77000000000E+02 0.  0.
   -5000001    1    1    2    0    0  0.25283824108E+02 -0.26471160867E+02 -0.29246754128E+03  0.30464119357E+03  0.77000000000E+02 0.  0.
<mgrwt>
<rscale>  0 0.17198129E+03</rscale>
<asrwt>0</asrwt>
<pdfrwt beam="1">  1        2 0.21532788E-02 0.17198129E+03</pdfrwt>
<pdfrwt beam="2">  1       -2 0.81278448E-01 0.17198129E+03</pdfrwt>
<totfact> 0.65440189E+03</totfact>
</mgrwt>
</event>
<event>
 4    1  0.6122885E-004  0.3138316E+03  0.7818608E-02  0.1078524E+00
          2   -1    0    0  501    0  0.00000000000E+00  0.00000000000E+00  0.85759805645E+03  0.85759805646E+03  0.25500000000E-02 0.  1.
         -2   -1    0    0    0  501 -0.00000000000E+00 -0.00000000000E+00 -0.28711078555E+02  0.28711078668E+02  0.25500000000E-02 0. -1.
    5000001    1    1    2    0    0 -0.45014045706E+02  0.12891586585E+03  0.39487707698E+03  0.42485582343E+03  0.77000000000E+02 0.  0.
   -5000001    1    1    2    0    0  0.45014045706E+02 -0.12891586585E+03  0.43400990092E+03  0.46145331170E+03  0.77000000000E+02 0.  0.
<mgrwt>
<rscale>  0 0.31383158E+03</rscale>
<asrwt>0</asrwt>
<pdfrwt beam="1">  1        2 0.13193813E+00 0.31383158E+03</pdfrwt>
<pdfrwt beam="2">  1       -2 0.44170900E-02 0.31383158E+03</pdfrwt>
<totfact> 0.76777151E+03</totfact>
</mgrwt>
</event>
<event>
 4    1  0.6122885E-004  0.2931123E+03  0.7818608E-02  0.1088735E+00
         -2   -1    0    0    0  501 -0.00000000000E+00  0.00000000000E+00  0.43124703710E+02  0.43124703786E+02  0.25500000000E-02 0. -1.
          2   -1    0    0  501    0  0.00000000000E+00 -0.00000000000E+00 -0.49806029319E+03  0.49806029320E+03  0.25500000000E-02 0.  1.
    5000001    1    1    2    0    0  0.89035266961E+02 -0.61957595853E+00 -0.38866122636E+03  0.40609630818E+03  0.77000000000E+02 0.  0.
   -5000001    1    1    2    0    0 -0.89035266961E+02  0.61957595853E+00 -0.66274363122E+02  0.13508868881E+03  0.77000000000E+02 0.  0.
<mgrwt>
<rscale>  0 0.29311228E+03</rscale>
<asrwt>0</asrwt>
<pdfrwt beam="1">  1        2 0.76624656E-01 0.29311228E+03</pdfrwt>
<pdfrwt beam="2">  1       -2 0.66345702E-02 0.29311228E+03</pdfrwt>
<totfact> 0.79001122E+03</totfact>
</mgrwt>
</event>
<event>
 4    1  0.6122885E-004  0.3076354E+03  0.7818608E-02  0.1081485E+00
          2   -1    0    0  501    0  0.00000000000E+00  0.00000000000E+00  0.20976034403E+04  0.20976034403E+04  0.25500000000E-02 0.  1.
         -2   -1    0    0    0  501 -0.00000000000E+00 -0.00000000000E+00 -0.11279483449E+02  0.11279483737E+02  0.25500000000E-02 0. -1.
    5000001    1    1    2    0    0  0.10088273020E+03 -0.83567824466E+02  0.12068228497E+04  0.12163516338E+04  0.77000000000E+02 0.  0.
   -5000001    1    1    2    0    0 -0.10088273020E+03  0.83567824466E+02  0.87950110720E+03  0.89253129027E+03  0.77000000000E+02 0.  0.
<mgrwt>
<rscale>  0 0.30763539E+03</rscale>
<asrwt>0</asrwt>
<pdfrwt beam="1">  1        2 0.32270834E+00 0.30763539E+03</pdfrwt>
<pdfrwt beam="2">  1       -2 0.17353046E-02 0.30763539E+03</pdfrwt>
<totfact> 0.62883805E+03</totfact>
</mgrwt>
</event>
<event>
 4    1  0.6122885E-004  0.6086184E+03  0.7818608E-02  0.9887685E-01
          2   -1    0    0  501    0  0.00000000000E+00  0.00000000000E+00  0.69931136510E+03  0.69931136511E+03  0.25500000000E-02 0.  1.
         -2   -1    0    0    0  501 -0.00000000000E+00 -0.00000000000E+00 -0.13242184226E+03  0.13242184229E+03  0.25500000000E-02 0. -1.
    5000001    1    1    2    0    0 -0.27522298846E+01  0.19736053950E+03  0.58196412759E+03  0.61933028597E+03  0.77000000000E+02 0.  0.
   -5000001    1    1    2    0    0  0.27522298846E+01 -0.19736053950E+03 -0.15074604751E+02  0.21240292142E+03  0.77000000000E+02 0.  0.
<mgrwt>
<rscale>  0 0.60861843E+03</rscale>
<asrwt>0</asrwt>
<pdfrwt beam="1">  1        2 0.10758636E+00 0.60861843E+03</pdfrwt>
<pdfrwt beam="2">  1       -2 0.20372592E-01 0.60861843E+03</pdfrwt>
<totfact> 0.85171594E+02</totfact>
</mgrwt>
</event>
<event>
 4    1  0.6122885E-004  0.2717699E+03  0.7818608E-02  0.1100271E+00
         -2   -1    0    0    0  501 -0.00000000000E+00  0.00000000000E+00  0.53874796693E+03  0.53874796693E+03  0.25500000000E-02 0. -1.
          2   -1    0    0  501    0  0.00000000000E+00 -0.00000000000E+00 -0.34273397040E+02  0.34273397135E+02  0.25500000000E-02 0.  1.
    5000001    1    1    2    0    0  0.10953815927E+03  0.23133261231E+02  0.25519434194E+03  0.28911400566E+03  0.77000000000E+02 0.  0.
   -5000001    1    1    2    0    0 -0.10953815927E+03 -0.23133261231E+02  0.24928022795E+03  0.28390735841E+03  0.77000000000E+02 0.  0.
<mgrwt>
<rscale>  0 0.27176992E+03</rscale>
<asrwt>0</asrwt>
<pdfrwt beam="1">  1        2 0.52728301E-02 0.27176992E+03</pdfrwt>
<pdfrwt beam="2">  1       -2 0.82884307E-01 0.27176992E+03</pdfrwt>
<totfact> 0.19241605E+03</totfact>
</mgrwt>
</event>
<event>
 4    1  0.6122885E-004  0.2324624E+03  0.7818608E-02  0.1124918E+00
         -2   -1    0    0    0  501 -0.00000000000E+00  0.00000000000E+00  0.66325579124E+03  0.66325579124E+03  0.25500000000E-02 0. -1.
          2   -1    0    0  501    0  0.00000000000E+00 -0.00000000000E+00 -0.20368758165E+02  0.20368758325E+02  0.25500000000E-02 0.  1.
    5000001    1    1    2    0    0  0.11514185462E+02  0.42539367612E+02  0.54226814851E+03  0.54947786048E+03  0.77000000000E+02 0.  0.
   -5000001    1    1    2    0    0 -0.11514185462E+02 -0.42539367612E+02  0.10061888456E+03  0.13414668909E+03  0.77000000000E+02 0.  0.
<mgrwt>
<rscale>  0 0.23246244E+03</rscale>
<asrwt>0</asrwt>
<pdfrwt beam="1">  1        2 0.31336547E-02 0.23246244E+03</pdfrwt>
<pdfrwt beam="2">  1       -2 0.10203937E+00 0.23246244E+03</pdfrwt>
<totfact> 0.23916188E+03</totfact>
</mgrwt>
</event>
<event>
 4    1  0.6122885E-004  0.2656433E+03  0.7818608E-02  0.1103799E+00
          2   -1    0    0  501    0  0.00000000000E+00  0.00000000000E+00  0.16002085603E+04  0.16002085603E+04  0.25500000000E-02 0.  1.
         -2   -1    0    0    0  501 -0.00000000000E+00 -0.00000000000E+00 -0.11024559710E+02  0.11024560005E+02  0.25500000000E-02 0. -1.
    5000001    1    1    2    0    0  0.17305751416E+02 -0.99235836488E+02  0.55461708173E+03  0.56892560816E+03  0.77000000000E+02 0.  0.
   -5000001    1    1    2    0    0 -0.17305751416E+02  0.99235836488E+02  0.10345669189E+04  0.10423075121E+04  0.77000000000E+02 0.  0.
<mgrwt>
<rscale>  0 0.26564333E+03</rscale>
<asrwt>0</asrwt>
<pdfrwt beam="1">  1        2 0.24618577E+00 0.26564333E+03</pdfrwt>
<pdfrwt beam="2">  1       -2 0.16960873E-02 0.26564333E+03</pdfrwt>
<totfact> 0.11874843E+04</totfact>
</mgrwt>
</event>
<event>
 4    1  0.6122885E-004  0.2015774E+03  0.7818608E-02  0.1148415E+00
         -2   -1    0    0    0  501 -0.00000000000E+00  0.00000000000E+00  0.23034734821E+02  0.23034734962E+02  0.25500000000E-02 0. -1.
          2   -1    0    0  501    0  0.00000000000E+00 -0.00000000000E+00 -0.44100203832E+03  0.44100203832E+03  0.25500000000E-02 0.  1.
    5000001    1    1    2    0    0 -0.34502524777E+02  0.13863477202E+02 -0.86159219586E+02  0.12138793736E+03  0.77000000000E+02 0.  0.
   -5000001    1    1    2    0    0  0.34502524777E+02 -0.13863477202E+02 -0.33180808391E+03  0.34264883593E+03  0.77000000000E+02 0.  0.
<mgrwt>
<rscale>  0 0.20157743E+03</rscale>
<asrwt>0</asrwt>
<pdfrwt beam="1">  1        2 0.67846461E-01 0.20157743E+03</pdfrwt>
<pdfrwt beam="2">  1       -2 0.35438057E-02 0.20157743E+03</pdfrwt>
<totfact> 0.22924322E+04</totfact>
</mgrwt>
</event>
<event>
 4    1  0.6122885E-004  0.3502639E+03  0.7818608E-02  0.1062507E+00
          2   -1    0    0  501    0  0.00000000000E+00  0.00000000000E+00  0.68778418095E+02  0.68778418142E+02  0.25500000000E-02 0.  1.
         -2   -1    0    0    0  501 -0.00000000000E+00 -0.00000000000E+00 -0.44594225398E+03  0.44594225398E+03  0.25500000000E-02 0. -1.
    5000001    1    1    2    0    0  0.10883851953E+03  0.13236999970E+02 -0.35432659542E+03  0.37881047732E+03  0.77000000000E+02 0.  0.
   -5000001    1    1    2    0    0 -0.10883851953E+03 -0.13236999970E+02 -0.22837240459E+02  0.13591019481E+03  0.77000000000E+02 0.  0.
<mgrwt>
<rscale>  0 0.35026392E+03</rscale>
<asrwt>0</asrwt>
<pdfrwt beam="1">  1        2 0.10581295E-01 0.35026392E+03</pdfrwt>
<pdfrwt beam="2">  1       -2 0.68606499E-01 0.35026392E+03</pdfrwt>
<totfact> 0.11956192E+03</totfact>
</mgrwt>
</event>
<event>
 4    1  0.6122885E-004  0.2624149E+03  0.7818608E-02  0.1105701E+00
          2   -1    0    0  501    0  0.00000000000E+00  0.00000000000E+00  0.86739900622E+03  0.86739900622E+03  0.25500000000E-02 0.  1.
         -2   -1    0    0    0  501 -0.00000000000E+00 -0.00000000000E+00 -0.19847143533E+02  0.19847143697E+02  0.25500000000E-02 0. -1.
    5000001    1    1    2    0    0 -0.43028617939E+00 -0.79723545461E+02  0.66118381945E+03  0.67040962996E+03  0.77000000000E+02 0.  0.
   -5000001    1    1    2    0    0  0.43028617939E+00  0.79723545461E+02  0.18636804324E+03  0.21683651996E+03  0.77000000000E+02 0.  0.
<mgrwt>
<rscale>  0 0.26241488E+03</rscale>
<asrwt>0</asrwt>
<pdfrwt beam="1">  1        2 0.13344602E+00 0.26241488E+03</pdfrwt>
<pdfrwt beam="2">  1       -2 0.30534062E-02 0.26241488E+03</pdfrwt>
<totfact> 0.13094929E+04</totfact>
</mgrwt>
</event>
<event>
 4    1  0.6122885E-004  0.2477068E+03  0.7818608E-02  0.1114763E+00
         -2   -1    0    0    0  501 -0.00000000000E+00  0.00000000000E+00  0.18655803059E+03  0.18655803061E+03  0.25500000000E-02 0. -1.
          2   -1    0    0  501    0  0.00000000000E+00 -0.00000000000E+00 -0.82224634858E+02  0.82224634897E+02  0.25500000000E-02 0.  1.
    5000001    1    1    2    0    0  0.85677996688E+02  0.18695853905E+02  0.97173642019E+02  0.15186168303E+03  0.77000000000E+02 0.  0.
   -5000001    1    1    2    0    0 -0.85677996688E+02 -0.18695853905E+02  0.71597537142E+01  0.11692098247E+03  0.77000000000E+02 0.  0.
<mgrwt>
<rscale>  0 0.24770681E+03</rscale>
<asrwt>0</asrwt>
<pdfrwt beam="1">  1        2 0.12649944E-01 0.24770681E+03</pdfrwt>
<pdfrwt beam="2">  1       -2 0.28701235E-01 0.24770681E+03</pdfrwt>
<totfact> 0.52445755E+03</totfact>
</mgrwt>
</event>
<event>
 4    1  0.6122885E-004  0.2214839E+03  0.7818608E-02  0.1132782E+00
         -2   -1    0    0    0  501 -0.00000000000E+00  0.00000000000E+00  0.80134488301E+01  0.80134492358E+01  0.25500000000E-02 0. -1.
          2   -1    0    0  501    0  0.00000000000E+00 -0.00000000000E+00 -0.15304002166E+04  0.15304002166E+04  0.25500000000E-02 0.  1.
    5000001    1    1    2    0    0  0.24916453225E+02  0.28237000076E+02 -0.27415354660E+03  0.28724088310E+03  0.77000000000E+02 0.  0.
   -5000001    1    1    2    0    0 -0.24916453225E+02 -0.28237000076E+02 -0.12482332212E+04  0.12511727827E+04  0.77000000000E+02 0.  0.
<mgrwt>
<rscale>  0 0.22148394E+03</rscale>
<asrwt>0</asrwt>
<pdfrwt beam="1">  1        2 0.23544595E+00 0.22148394E+03</pdfrwt>
<pdfrwt beam="2">  1       -2 0.12328395E-02 0.22148394E+03</pdfrwt>
<totfact> 0.20461414E+04</totfact>
</mgrwt>
</event>
<event>
 4    1  0.6122885E-004  0.2380694E+03  0.7818608E-02  0.1121086E+00
          2   -1    0    0  501    0  0.00000000000E+00  0.00000000000E+00  0.83001595096E+03  0.83001595097E+03  0.25500000000E-02 0.  1.
         -2   -1    0    0    0  501 -0.00000000000E+00 -0.00000000000E+00 -0.17071075676E+02  0.17071075866E+02  0.25500000000E-02 0. -1.
    5000001    1    1    2    0    0  0.16102404675E+01  0.68866338059E+02  0.19611679738E+03  0.22166633395E+03  0.77000000000E+02 0.  0.
   -5000001    1    1    2    0    0 -0.16102404675E+01 -0.68866338059E+02  0.61682807791E+03  0.62542069288E+03  0.77000000000E+02 0.  0.
<mgrwt>
<rscale>  0 0.23806945E+03</rscale>
<asrwt>0</asrwt>
<pdfrwt beam="1">  1        2 0.12769472E+00 0.23806945E+03</pdfrwt>
<pdfrwt beam="2">  1       -2 0.26263202E-02 0.23806945E+03</pdfrwt>
<totfact> 0.17265298E+04</totfact>
</mgrwt>
</event>
<event>
 4    1  0.6122885E-004  0.2751037E+03  0.7818608E-02  0.1098394E+00
         -2   -1    0    0    0  501 -0.00000000000E+00  0.00000000000E+00  0.37422795356E+02  0.37422795443E+02  0.25500000000E-02 0. -1.
          2   -1    0    0  501    0  0.00000000000E+00 -0.00000000000E+00 -0.50558787781E+03  0.50558787782E+03  0.25500000000E-02 0.  1.
    5000001    1    1    2    0    0 -0.43938612718E+02  0.10506796551E+03 -0.24326305053E+03  0.27942045526E+03  0.77000000000E+02 0.  0.
   -5000001    1    1    2    0    0  0.43938612718E+02 -0.10506796551E+03 -0.22490203193E+03  0.26359021801E+03  0.77000000000E+02 0.  0.
<mgrwt>
<rscale>  0 0.27510370E+03</rscale>
<asrwt>0</asrwt>
<pdfrwt beam="1">  1        2 0.77782745E-01 0.27510370E+03</pdfrwt>
<pdfrwt beam="2">  1       -2 0.57573535E-02 0.27510370E+03</pdfrwt>
<totfact> 0.96408002E+03</totfact>
</mgrwt>
</event>
<event>
 4    1  0.6122885E-004  0.2754853E+03  0.7818608E-02  0.1098181E+00
         -2   -1    0    0    0  501 -0.00000000000E+00  0.00000000000E+00  0.61711576959E+02  0.61711577012E+02  0.25500000000E-02 0.  1.
          2   -1    0    0  501    0  0.00000000000E+00 -0.00000000000E+00 -0.30744701976E+03  0.30744701977E+03  0.25500000000E-02 0. -1.
    5000001    1    1    2    0    0  0.86661639759E+02 -0.23785462080E+02 -0.21731894958E+03  0.24745204355E+03  0.77000000000E+02 0.  0.
   -5000001    1    1    2    0    0 -0.86661639759E+02  0.23785462080E+02 -0.28416493221E+02  0.12170655323E+03  0.77000000000E+02 0.  0.
<mgrwt>
<rscale>  0 0.27548532E+03</rscale>
<asrwt>0</asrwt>
<pdfrwt beam="1">  1        2 0.47299541E-01 0.27548532E+03</pdfrwt>
<pdfrwt beam="2">  1       -2 0.94940889E-02 0.27548532E+03</pdfrwt>
<totfact> 0.76189841E+03</totfact>
</mgrwt>
</event>
<event>
 4    1  0.6122885E-004  0.2887410E+03  0.7818608E-02  0.1091008E+00
          2   -1    0    0  501    0  0.00000000000E+00  0.00000000000E+00  0.14750217632E+04  0.14750217632E+04  0.25500000000E-02 0.  1.
         -2   -1    0    0    0  501 -0.00000000000E+00 -0.00000000000E+00 -0.14130535841E+02  0.14130536071E+02  0.25500000000E-02 0. -1.
    5000001    1    1    2    0    0 -0.96570841106E+02  0.57039496632E+02  0.97962939093E+03  0.98903092727E+03  0.77000000000E+02 0.  0.
   -5000001    1    1    2    0    0  0.96570841106E+02 -0.57039496632E+02  0.48126183641E+03  0.50012137198E+03  0.77000000000E+02 0.  0.
<mgrwt>
<rscale>  0 0.28874105E+03</rscale>
<asrwt>0</asrwt>
<pdfrwt beam="1">  1        2 0.22692640E+00 0.28874105E+03</pdfrwt>
<pdfrwt beam="2">  1       -2 0.21739289E-02 0.28874105E+03</pdfrwt>
<totfact> 0.96295175E+03</totfact>
</mgrwt>
</event>
<event>
 4    1  0.6122885E-004  0.4326715E+03  0.7818608E-02  0.1033019E+00
         -2   -1    0    0    0  501 -0.00000000000E+00  0.00000000000E+00  0.15576295433E+03  0.15576295435E+03  0.25500000000E-02 0. -1.
          2   -1    0    0  501    0  0.00000000000E+00 -0.00000000000E+00 -0.30046402357E+03  0.30046402359E+03  0.25500000000E-02 0.  1.
    5000001    1    1    2    0    0  0.19866228312E+03  0.28924468761E+02 -0.47201789712E+02  0.22013708588E+03  0.77000000000E+02 0.  0.
   -5000001    1    1    2    0    0 -0.19866228312E+03 -0.28924468761E+02 -0.97499279529E+02  0.23608989206E+03  0.77000000000E+02 0.  0.
<mgrwt>
<rscale>  0 0.43267153E+03</rscale>
<asrwt>0</asrwt>
<pdfrwt beam="1">  1        2 0.46225235E-01 0.43267153E+03</pdfrwt>
<pdfrwt beam="2">  1       -2 0.23963531E-01 0.43267153E+03</pdfrwt>
<totfact> 0.16844742E+03</totfact>
</mgrwt>
</event>
<event>
 4    1  0.6122885E-004  0.2701554E+03  0.7818608E-02  0.1101191E+00
         -2   -1    0    0    0  501 -0.00000000000E+00  0.00000000000E+00  0.24517664836E+03  0.24517664838E+03  0.25500000000E-02 0. -1.
          2   -1    0    0  501    0  0.00000000000E+00 -0.00000000000E+00 -0.74419735844E+02  0.74419735888E+02  0.25500000000E-02 0.  1.
    5000001    1    1    2    0    0 -0.10129370167E+03  0.13396857114E+02  0.34124076195E+02  0.13241352784E+03  0.77000000000E+02 0.  0.
   -5000001    1    1    2    0    0  0.10129370167E+03 -0.13396857114E+02  0.13663283632E+03  0.18718285643E+03  0.77000000000E+02 0.  0.
<mgrwt>
<rscale>  0 0.27015537E+03</rscale>
<asrwt>0</asrwt>
<pdfrwt beam="1">  1        2 0.11449190E-01 0.27015537E+03</pdfrwt>
<pdfrwt beam="2">  1       -2 0.37719485E-01 0.27015537E+03</pdfrwt>
<totfact> 0.35892211E+03</totfact>
</mgrwt>
</event>
<event>
 4    1  0.6122885E-004  0.2189166E+03  0.7818608E-02  0.1134693E+00
         -2   -1    0    0    0  501 -0.00000000000E+00  0.00000000000E+00  0.11995831448E+02  0.11995831719E+02  0.25500000000E-02 0. -1.
          2   -1    0    0  501    0  0.00000000000E+00 -0.00000000000E+00 -0.99877350834E+03  0.99877350835E+03  0.25500000000E-02 0.  1.
    5000001    1    1    2    0    0  0.20401466815E+02  0.70689746232E+02 -0.61009016518E+03  0.61931596921E+03  0.77000000000E+02 0.  0.
   -5000001    1    1    2    0    0 -0.20401466815E+02 -0.70689746232E+02 -0.37668751171E+03  0.39145337085E+03  0.77000000000E+02 0.  0.
<mgrwt>
<rscale>  0 0.21891659E+03</rscale>
<asrwt>0</asrwt>
<pdfrwt beam="1">  1        2 0.15365740E+00 0.21891659E+03</pdfrwt>
<pdfrwt beam="2">  1       -2 0.18455133E-02 0.21891659E+03</pdfrwt>
<totfact> 0.22530485E+04</totfact>
</mgrwt>
</event>
<event>
 4    1  0.6122885E-004  0.2165204E+03  0.7818608E-02  0.1136504E+00
         -2   -1    0    0    0  501 -0.00000000000E+00  0.00000000000E+00  0.61829915922E+02  0.61829915975E+02  0.25500000000E-02 0. -1.
          2   -1    0    0  501    0  0.00000000000E+00 -0.00000000000E+00 -0.18955671382E+03  0.18955671384E+03  0.25500000000E-02 0.  1.
    5000001    1    1    2    0    0  0.72830567423E+01 -0.73506383198E+02 -0.42611661183E+02  0.11489553932E+03  0.77000000000E+02 0.  0.
   -5000001    1    1    2    0    0 -0.72830567423E+01  0.73506383198E+02 -0.85115136718E+02  0.13649109050E+03  0.77000000000E+02 0.  0.
<mgrwt>
<rscale>  0 0.21652044E+03</rscale>
<asrwt>0</asrwt>
<pdfrwt beam="1">  1        2 0.29162571E-01 0.21652044E+03</pdfrwt>
<pdfrwt beam="2">  1       -2 0.95122948E-02 0.21652044E+03</pdfrwt>
<totfact> 0.12663973E+04</totfact>
</mgrwt>
</event>
<event>
 4    1  0.6122885E-004  0.2454327E+03  0.7818608E-02  0.1116226E+00
          2   -1    0    0  501    0  0.00000000000E+00  0.00000000000E+00  0.23615381071E+03  0.23615381073E+03  0.25500000000E-02 0.  1.
         -2   -1    0    0    0  501 -0.00000000000E+00 -0.00000000000E+00 -0.63769042073E+02  0.63769042124E+02  0.25500000000E-02 0. -1.
    5000001    1    1    2    0    0  0.86744165907E+02 -0.39176623221E+02  0.75899537526E+02  0.14404547172E+03  0.77000000000E+02 0.  0.
   -5000001    1    1    2    0    0 -0.86744165907E+02  0.39176623221E+02  0.96485231116E+02  0.15587738113E+03  0.77000000000E+02 0.  0.
<mgrwt>
<rscale>  0 0.24543270E+03</rscale>
<asrwt>0</asrwt>
<pdfrwt beam="1">  1        2 0.36331356E-01 0.24543270E+03</pdfrwt>
<pdfrwt beam="2">  1       -2 0.98106218E-02 0.24543270E+03</pdfrwt>
<totfact> 0.95619124E+03</totfact>
</mgrwt>
</event>
<event>
 4    1  0.6122885E-004  0.2180511E+03  0.7818608E-02  0.1135344E+00
         -2   -1    0    0    0  501 -0.00000000000E+00  0.00000000000E+00  0.48911610846E+03  0.48911610846E+03  0.25500000000E-02 0. -1.
          2   -1    0    0  501    0  0.00000000000E+00 -0.00000000000E+00 -0.24302155579E+02  0.24302155713E+02  0.25500000000E-02 0.  1.
    5000001    1    1    2    0    0  0.30608859592E+02 -0.66398379085E+02  0.17416134307E+03  0.20397749986E+03  0.77000000000E+02 0.  0.
   -5000001    1    1    2    0    0 -0.30608859592E+02  0.66398379085E+02  0.29065260981E+03  0.30944076431E+03  0.77000000000E+02 0.  0.
<mgrwt>
<rscale>  0 0.21805115E+03</rscale>
<asrwt>0</asrwt>
<pdfrwt beam="1">  1        2 0.37387934E-02 0.21805115E+03</pdfrwt>
<pdfrwt beam="2">  1       -2 0.75248627E-01 0.21805115E+03</pdfrwt>
<totfact> 0.37248674E+03</totfact>
</mgrwt>
</event>
<event>
 4    1  0.6122885E-004  0.2161037E+03  0.7818608E-02  0.1136822E+00
         -2   -1    0    0    0  501 -0.00000000000E+00  0.00000000000E+00  0.22736564851E+03  0.22736564852E+03  0.25500000000E-02 0. -1.
          2   -1    0    0  501    0  0.00000000000E+00 -0.00000000000E+00 -0.51349910291E+02  0.51349910355E+02  0.25500000000E-02 0.  1.
    5000001    1    1    2    0    0 -0.64830758400E+01  0.36777044784E+02  0.29284241791E+01  0.85628015063E+02  0.77000000000E+02 0.  0.
   -5000001    1    1    2    0    0  0.64830758400E+01 -0.36777044784E+02  0.17308731404E+03  0.19308754381E+03  0.77000000000E+02 0.  0.
<mgrwt>
<rscale>  0 0.21610373E+03</rscale>
<asrwt>0</asrwt>
<pdfrwt beam="1">  1        2 0.78999861E-02 0.21610373E+03</pdfrwt>
<pdfrwt beam="2">  1       -2 0.34979331E-01 0.21610373E+03</pdfrwt>
<totfact> 0.65005859E+03</totfact>
</mgrwt>
</event>
<event>
 4    1  0.6122885E-004  0.1834652E+03  0.7818608E-02  0.1164491E+00
          2   -1    0    0  501    0  0.00000000000E+00  0.00000000000E+00  0.11393969484E+03  0.11393969487E+03  0.25500000000E-02 0.  1.
         -2   -1    0    0    0  501 -0.00000000000E+00 -0.00000000000E+00 -0.73853738969E+02  0.73853739013E+02  0.25500000000E-02 0. -1.
    5000001    1    1    2    0    0  0.38557981084E+02 -0.17117653703E+02 -0.71572286597E+01  0.88090623199E+02  0.77000000000E+02 0.  0.
   -5000001    1    1    2    0    0 -0.38557981084E+02  0.17117653703E+02  0.47243184532E+02  0.99702810684E+02  0.77000000000E+02 0.  0.
<mgrwt>
<rscale>  0 0.18346523E+03</rscale>
<asrwt>0</asrwt>
<pdfrwt beam="1">  1        2 0.17529184E-01 0.18346523E+03</pdfrwt>
<pdfrwt beam="2">  1       -2 0.11362114E-01 0.18346523E+03</pdfrwt>
<totfact> 0.16731969E+04</totfact>
</mgrwt>
</event>
<event>
 4    1  0.6122885E-004  0.1958093E+03  0.7818608E-02  0.1153324E+00
         -2   -1    0    0    0  501 -0.00000000000E+00  0.00000000000E+00  0.41085153391E+02  0.41085153470E+02  0.25500000000E-02 0. -1.
          2   -1    0    0  501    0  0.00000000000E+00 -0.00000000000E+00 -0.23330382170E+03  0.23330382171E+03  0.25500000000E-02 0.  1.
    5000001    1    1    2    0    0  0.55389752518E+02  0.89460017666E+01 -0.64517159112E+02  0.11506311073E+03  0.77000000000E+02 0.  0.
   -5000001    1    1    2    0    0 -0.55389752518E+02 -0.89460017666E+01 -0.12770150919E+03  0.15932586445E+03  0.77000000000E+02 0.  0.
<mgrwt>
<rscale>  0 0.19580933E+03</rscale>
<asrwt>0</asrwt>
<pdfrwt beam="1">  1        2 0.35892895E-01 0.19580933E+03</pdfrwt>
<pdfrwt beam="2">  1       -2 0.63207930E-02 0.19580933E+03</pdfrwt>
<totfact> 0.18935998E+04</totfact>
</mgrwt>
</event>
<event>
 4    1  0.6122885E-004  0.2876091E+03  0.7818608E-02  0.1091604E+00
          2   -1    0    0  501    0  0.00000000000E+00  0.00000000000E+00  0.36313515460E+04  0.36313515460E+04  0.25500000000E-02 0.  1.
         -2   -1    0    0    0  501 -0.00000000000E+00 -0.00000000000E+00 -0.56947797155E+01  0.56947802864E+01  0.25500000000E-02 0. -1.
    5000001    1    1    2    0    0 -0.77940251340E+02 -0.66955769173E+02  0.26316855346E+04  0.26348160297E+04  0.77000000000E+02 0.  0.
   -5000001    1    1    2    0    0  0.77940251340E+02  0.66955769173E+02  0.99397123168E+03  0.10022302965E+04  0.77000000000E+02 0.  0.
<mgrwt>
<rscale>  0 0.28760910E+03</rscale>
<asrwt>0</asrwt>
<pdfrwt beam="1">  1        2 0.55867034E+00 0.28760910E+03</pdfrwt>
<pdfrwt beam="2">  1       -2 0.87611864E-03 0.28760910E+03</pdfrwt>
<totfact> 0.21325920E+03</totfact>
</mgrwt>
</event>
<event>
 4    1  0.6122885E-004  0.3420138E+03  0.7818608E-02  0.1065941E+00
         -2   -1    0    0    0  501 -0.00000000000E+00  0.00000000000E+00  0.16064836048E+02  0.16064836250E+02  0.25500000000E-02 0. -1.
          2   -1    0    0  501    0  0.00000000000E+00 -0.00000000000E+00 -0.18203330301E+04  0.18203330301E+04  0.25500000000E-02 0.  1.
    5000001    1    1    2    0    0  0.97655625236E+02 -0.11565742435E+03 -0.79460038810E+03  0.81254663726E+03  0.77000000000E+02 0.  0.
   -5000001    1    1    2    0    0 -0.97655625236E+02  0.11565742435E+03 -0.10096678059E+04  0.10238512291E+04  0.77000000000E+02 0.  0.
<mgrwt>
<rscale>  0 0.34201375E+03</rscale>
<asrwt>0</asrwt>
<pdfrwt beam="1">  1        2 0.28005107E+00 0.34201375E+03</pdfrwt>
<pdfrwt beam="2">  1       -2 0.24715147E-02 0.34201375E+03</pdfrwt>
<totfact> 0.52223753E+03</totfact>
</mgrwt>
</event>
<event>
 4    1  0.6122885E-004  0.2580768E+03  0.7818608E-02  0.1108304E+00
          2   -1    0    0  501    0  0.00000000000E+00  0.00000000000E+00  0.60448929171E+03  0.60448929172E+03  0.25500000000E-02 0.  1.
         -2   -1    0    0    0  501 -0.00000000000E+00 -0.00000000000E+00 -0.27545417411E+02  0.27545417529E+02  0.25500000000E-02 0. -1.
    5000001    1    1    2    0    0  0.65482324970E+02  0.42758563468E+02  0.12226894408E+03  0.16430132173E+03  0.77000000000E+02 0.  0.
   -5000001    1    1    2    0    0 -0.65482324970E+02 -0.42758563468E+02  0.45467493022E+03  0.46773338752E+03  0.77000000000E+02 0.  0.
<mgrwt>
<rscale>  0 0.25807681E+03</rscale>
<asrwt>0</asrwt>
<pdfrwt beam="1">  1        2 0.92998360E-01 0.25807681E+03</pdfrwt>
<pdfrwt beam="2">  1       -2 0.42377562E-02 0.25807681E+03</pdfrwt>
<totfact> 0.12490466E+04</totfact>
</mgrwt>
</event>
<event>
 4    1  0.6122885E-004  0.4048354E+03  0.7818608E-02  0.1042118E+00
         -2   -1    0    0    0  501 -0.00000000000E+00  0.00000000000E+00  0.10252044851E+04  0.10252044851E+04  0.25500000000E-02 0. -1.
          2   -1    0    0  501    0  0.00000000000E+00 -0.00000000000E+00 -0.39965602946E+02  0.39965603027E+02  0.25500000000E-02 0.  1.
    5000001    1    1    2    0    0 -0.94751158643E+02  0.15825351034E+03  0.57673134163E+03  0.61038512106E+03  0.77000000000E+02 0.  0.
   -5000001    1    1    2    0    0  0.94751158643E+02 -0.15825351034E+03  0.40850754049E+03  0.45478496703E+03  0.77000000000E+02 0.  0.
<mgrwt>
<rscale>  0 0.40483535E+03</rscale>
<asrwt>0</asrwt>
<pdfrwt beam="1">  1        2 0.61485550E-02 0.40483535E+03</pdfrwt>
<pdfrwt beam="2">  1       -2 0.15772375E+00 0.40483535E+03</pdfrwt>
<totfact> 0.33356971E+02</totfact>
</mgrwt>
</event>
<event>
 4    1  0.6122885E-004  0.2242335E+03  0.7818608E-02  0.1130766E+00
         -2   -1    0    0    0  501 -0.00000000000E+00  0.00000000000E+00  0.14627774553E+03  0.14627774555E+03  0.25500000000E-02 0. -1.
          2   -1    0    0  501    0  0.00000000000E+00 -0.00000000000E+00 -0.85933564024E+02  0.85933564062E+02  0.25500000000E-02 0.  1.
    5000001    1    1    2    0    0  0.27704118235E+02  0.60687126295E+02  0.78642481450E+02  0.12870153594E+03  0.77000000000E+02 0.  0.
   -5000001    1    1    2    0    0 -0.27704118235E+02 -0.60687126295E+02 -0.18298299943E+02  0.10350977367E+03  0.77000000000E+02 0.  0.
<mgrwt>
<rscale>  0 0.22423352E+03</rscale>
<asrwt>0</asrwt>
<pdfrwt beam="1">  1        2 0.13220548E-01 0.22423352E+03</pdfrwt>
<pdfrwt beam="2">  1       -2 0.22504268E-01 0.22423352E+03</pdfrwt>
<totfact> 0.76049584E+03</totfact>
</mgrwt>
</event>
<event>
 4    1  0.6122885E-004  0.1975426E+03  0.7818608E-02  0.1151829E+00
          2   -1    0    0  501    0  0.00000000000E+00  0.00000000000E+00  0.11477295491E+04  0.11477295491E+04  0.25500000000E-02 0.  1.
         -2   -1    0    0    0  501 -0.00000000000E+00 -0.00000000000E+00 -0.85000571065E+01  0.85000574890E+01  0.25500000000E-02 0. -1.
    5000001    1    1    2    0    0  0.22264866683E+01 -0.47744254699E+02  0.33975272300E+03  0.35163245567E+03  0.77000000000E+02 0.  0.
   -5000001    1    1    2    0    0 -0.22264866683E+01  0.47744254699E+02  0.79947676903E+03  0.80459715095E+03  0.77000000000E+02 0.  0.
<mgrwt>
<rscale>  0 0.19754257E+03</rscale>
<asrwt>0</asrwt>
<pdfrwt beam="1">  1        2 0.17657371E+00 0.19754257E+03</pdfrwt>
<pdfrwt beam="2">  1       -2 0.13077016E-02 0.19754257E+03</pdfrwt>
<totfact> 0.30208126E+04</totfact>
</mgrwt>
</event>
<event>
 4    1  0.6122885E-004  0.2699412E+03  0.7818608E-02  0.1101313E+00
          2   -1    0    0  501    0  0.00000000000E+00  0.00000000000E+00  0.49394373967E+03  0.49394373967E+03  0.25500000000E-02 0.  1.
         -2   -1    0    0    0  501 -0.00000000000E+00 -0.00000000000E+00 -0.36880835500E+02  0.36880835588E+02  0.25500000000E-02 0. -1.
    5000001    1    1    2    0    0  0.10359040886E+03 -0.11490692012E+02  0.30276441738E+03  0.32933007946E+03  0.77000000000E+02 0.  0.
   -5000001    1    1    2    0    0 -0.10359040886E+03  0.11490692012E+02  0.15429848679E+03  0.20149449580E+03  0.77000000000E+02 0.  0.
<mgrwt>
<rscale>  0 0.26994116E+03</rscale>
<asrwt>0</asrwt>
<pdfrwt beam="1">  1        2 0.75991339E-01 0.26994116E+03</pdfrwt>
<pdfrwt beam="2">  1       -2 0.56739751E-02 0.26994116E+03</pdfrwt>
<totfact> 0.10111113E+04</totfact>
</mgrwt>
</event>
<event>
 4    1  0.6122885E-004  0.4054354E+03  0.7818608E-02  0.1041914E+00
         -2   -1    0    0    0  501 -0.00000000000E+00  0.00000000000E+00  0.88762935073E+02  0.88762935109E+02  0.25500000000E-02 0. -1.
          2   -1    0    0  501    0  0.00000000000E+00 -0.00000000000E+00 -0.46296887111E+03  0.46296887111E+03  0.25500000000E-02 0.  1.
    5000001    1    1    2    0    0 -0.72329252612E+02 -0.16134303439E+03 -0.27211318003E+03  0.33352313005E+03  0.77000000000E+02 0.  0.
   -5000001    1    1    2    0    0  0.72329252612E+02  0.16134303439E+03 -0.10209275600E+03  0.21820867618E+03  0.77000000000E+02 0.  0.
<mgrwt>
<rscale>  0 0.40543545E+03</rscale>
<asrwt>0</asrwt>
<pdfrwt beam="1">  1        2 0.71225979E-01 0.40543545E+03</pdfrwt>
<pdfrwt beam="2">  1       -2 0.13655836E-01 0.40543545E+03</pdfrwt>
<totfact> 0.27318919E+03</totfact>
</mgrwt>
</event>
<event>
 4    1  0.6122885E-004  0.2141885E+03  0.7818608E-02  0.1138291E+00
         -2   -1    0    0    0  501 -0.00000000000E+00  0.00000000000E+00  0.11783908910E+02  0.11783909186E+02  0.25500000000E-02 0. -1.
          2   -1    0    0  501    0  0.00000000000E+00 -0.00000000000E+00 -0.97329120099E+03  0.97329120099E+03  0.25500000000E-02 0.  1.
    5000001    1    1    2    0    0  0.55235116206E+02  0.12913337415E+02 -0.70239529347E+03  0.70887644949E+03  0.77000000000E+02 0.  0.
   -5000001    1    1    2    0    0 -0.55235116206E+02 -0.12913337415E+02 -0.25911199861E+03  0.27619866069E+03  0.77000000000E+02 0.  0.
<mgrwt>
<rscale>  0 0.21418847E+03</rscale>
<asrwt>0</asrwt>
<pdfrwt beam="1">  1        2 0.14973705E+00 0.21418847E+03</pdfrwt>
<pdfrwt beam="2">  1       -2 0.18129098E-02 0.21418847E+03</pdfrwt>
<totfact> 0.23940334E+04</totfact>
</mgrwt>
</event>
<event>
 4    1  0.6122885E-004  0.2460890E+03  0.7818608E-02  0.1115802E+00
         -2   -1    0    0    0  501 -0.00000000000E+00  0.00000000000E+00  0.69746110196E+02  0.69746110242E+02  0.25500000000E-02 0. -1.
          2   -1    0    0  501    0  0.00000000000E+00 -0.00000000000E+00 -0.21707229925E+03  0.21707229926E+03  0.25500000000E-02 0.  1.
    5000001    1    1    2    0    0 -0.83603885088E+02 -0.46909474996E+02 -0.78983740696E+02  0.14614219015E+03  0.77000000000E+02 0.  0.
   -5000001    1    1    2    0    0  0.83603885088E+02  0.46909474996E+02 -0.68342448357E+02  0.14067621936E+03  0.77000000000E+02 0.  0.
<mgrwt>
<rscale>  0 0.24608900E+03</rscale>
<asrwt>0</asrwt>
<pdfrwt beam="1">  1        2 0.33395738E-01 0.24608900E+03</pdfrwt>
<pdfrwt beam="2">  1       -2 0.10730171E-01 0.24608900E+03</pdfrwt>
<totfact> 0.90865166E+03</totfact>
</mgrwt>
</event>
<event>
 4    1  0.6122885E-004  0.2331352E+03  0.7818608E-02  0.1124452E+00
          2   -1    0    0  501    0  0.00000000000E+00  0.00000000000E+00  0.43162814672E+04  0.43162814672E+04  0.25500000000E-02 0.  1.
         -2   -1    0    0    0  501 -0.00000000000E+00 -0.00000000000E+00 -0.31480815355E+01  0.31480825683E+01  0.25500000000E-02 0. -1.
    5000001    1    1    2    0    0 -0.57183743455E+02 -0.49390033409E+02  0.13384842303E+04  0.13428247803E+04  0.77000000000E+02 0.  0.
   -5000001    1    1    2    0    0  0.57183743455E+02  0.49390033409E+02  0.29746491554E+04  0.29766047694E+04  0.77000000000E+02 0.  0.
<mgrwt>
<rscale>  0 0.23313522E+03</rscale>
<asrwt>0</asrwt>
<pdfrwt beam="1">  1        2 0.66404365E+00 0.23313522E+03</pdfrwt>
<pdfrwt beam="2">  1       -2 0.48432006E-03 0.23313522E+03</pdfrwt>
<totfact> 0.15214297E+03</totfact>
</mgrwt>
</event>
<event>
 4    1  0.6122885E-004  0.2064560E+03  0.7818608E-02  0.1144404E+00
          2   -1    0    0  501    0  0.00000000000E+00  0.00000000000E+00  0.25687382137E+04  0.25687382137E+04  0.25500000000E-02 0.  1.
         -2   -1    0    0    0  501 -0.00000000000E+00 -0.00000000000E+00 -0.41483480379E+01  0.41483488217E+01  0.25500000000E-02 0. -1.
    5000001    1    1    2    0    0 -0.68044583307E+02  0.94899162693E+01  0.12495659138E+04  0.12538198023E+04  0.77000000000E+02 0.  0.
   -5000001    1    1    2    0    0  0.68044583307E+02 -0.94899162693E+01  0.13150239519E+04  0.13190667602E+04  0.77000000000E+02 0.  0.
<mgrwt>
<rscale>  0 0.20645601E+03</rscale>
<asrwt>0</asrwt>
<pdfrwt beam="1">  1        2 0.39518989E+00 0.20645601E+03</pdfrwt>
<pdfrwt beam="2">  1       -2 0.63820842E-03 0.20645601E+03</pdfrwt>
<totfact> 0.14945034E+04</totfact>
</mgrwt>
</event>
<event>
 4    1  0.6122885E-004  0.3025068E+03  0.7818608E-02  0.1083994E+00
         -2   -1    0    0    0  501 -0.00000000000E+00  0.00000000000E+00  0.19401852329E+02  0.19401852497E+02  0.25500000000E-02 0. -1.
          2   -1    0    0  501    0  0.00000000000E+00 -0.00000000000E+00 -0.11791445378E+04  0.11791445378E+04  0.25500000000E-02 0.  1.
    5000001    1    1    2    0    0  0.12181482696E+03  0.16742793352E+02 -0.41040796347E+03  0.43529630101E+03  0.77000000000E+02 0.  0.
   -5000001    1    1    2    0    0 -0.12181482696E+03 -0.16742793352E+02 -0.74933472198E+03  0.76325008927E+03  0.77000000000E+02 0.  0.
<mgrwt>
<rscale>  0 0.30250678E+03</rscale>
<asrwt>0</asrwt>
<pdfrwt beam="1">  1        2 0.18140680E+00 0.30250678E+03</pdfrwt>
<pdfrwt beam="2">  1       -2 0.29849013E-02 0.30250678E+03</pdfrwt>
<totfact> 0.87790944E+03</totfact>
</mgrwt>
</event>
<event>
 4    1  0.6122885E-004  0.2788147E+03  0.7818608E-02  0.1096338E+00
          2   -1    0    0  501    0  0.00000000000E+00  0.00000000000E+00  0.33739679401E+03  0.33739679402E+03  0.25500000000E-02 0.  1.
         -2   -1    0    0    0  501 -0.00000000000E+00 -0.00000000000E+00 -0.57601057589E+02  0.57601057645E+02  0.25500000000E-02 0. -1.
    5000001    1    1    2    0    0  0.73051416391E+02 -0.74425966268E+02  0.21254698573E+03  0.24895974581E+03  0.77000000000E+02 0.  0.
   -5000001    1    1    2    0    0 -0.73051416391E+02  0.74425966268E+02  0.67248750690E+02  0.14603810585E+03  0.77000000000E+02 0.  0.
<mgrwt>
<rscale>  0 0.27881472E+03</rscale>
<asrwt>0</asrwt>
<pdfrwt beam="1">  1        2 0.51907199E-01 0.27881472E+03</pdfrwt>
<pdfrwt beam="2">  1       -2 0.88617012E-02 0.27881472E+03</pdfrwt>
<totfact> 0.76893491E+03</totfact>
</mgrwt>
</event>
<event>
 4    1  0.6122885E-004  0.4897588E+03  0.7818608E-02  0.1016487E+00
         -2   -1    0    0    0  501 -0.00000000000E+00  0.00000000000E+00  0.73023515516E+03  0.73023515516E+03  0.25500000000E-02 0. -1.
          2   -1    0    0  501    0  0.00000000000E+00 -0.00000000000E+00 -0.82118660273E+02  0.82118660313E+02  0.25500000000E-02 0.  1.
    5000001    1    1    2    0    0  0.20775020293E+03  0.10223491270E+03  0.35824513049E+03  0.43345207084E+03  0.77000000000E+02 0.  0.
   -5000001    1    1    2    0    0 -0.20775020293E+03 -0.10223491270E+03  0.28987136439E+03  0.37890174464E+03  0.77000000000E+02 0.  0.
<mgrwt>
<rscale>  0 0.48975885E+03</rscale>
<asrwt>0</asrwt>
<pdfrwt beam="1">  1        2 0.12633639E-01 0.48975885E+03</pdfrwt>
<pdfrwt beam="2">  1       -2 0.11234388E+00 0.48975885E+03</pdfrwt>
<totfact> 0.31302756E+02</totfact>
</mgrwt>
</event>
<event>
 4    1  0.6122885E-004  0.3136557E+03  0.7818608E-02  0.1078607E+00
         -2   -1    0    0    0  501 -0.00000000000E+00  0.00000000000E+00  0.77026339170E+01  0.77026343391E+01  0.25500000000E-02 0. -1.
          2   -1    0    0  501    0  0.00000000000E+00 -0.00000000000E+00 -0.31930594387E+04  0.31930594387E+04  0.25500000000E-02 0.  1.
    5000001    1    1    2    0    0  0.66660372175E+02  0.85234945717E+01 -0.37880307995E+03  0.39234809615E+03  0.77000000000E+02 0.  0.
   -5000001    1    1    2    0    0 -0.66660372175E+02 -0.85234945717E+01 -0.28065537248E+04  0.28084139769E+04  0.77000000000E+02 0.  0.
<mgrwt>
<rscale>  0 0.31365566E+03</rscale>
<asrwt>0</asrwt>
<pdfrwt beam="1">  1        2 0.49123886E+00 0.31365566E+03</pdfrwt>
<pdfrwt beam="2">  1       -2 0.11850232E-02 0.31365566E+03</pdfrwt>
<totfact> 0.26404732E+03</totfact>
</mgrwt>
</event>
<event>
 4    1  0.6122885E-004  0.2091385E+03  0.7818608E-02  0.1142250E+00
         -2   -1    0    0    0  501 -0.00000000000E+00  0.00000000000E+00  0.57310174556E+01  0.57310180229E+01  0.25500000000E-02 0. -1.
          2   -1    0    0  501    0  0.00000000000E+00 -0.00000000000E+00 -0.19079912378E+04  0.19079912378E+04  0.25500000000E-02 0.  1.
    5000001    1    1    2    0    0 -0.68909187603E+02  0.13288911038E+02 -0.10333117633E+04  0.10385505627E+04  0.77000000000E+02 0.  0.
   -5000001    1    1    2    0    0  0.68909187603E+02 -0.13288911038E+02 -0.86894845706E+03  0.87517169305E+03  0.77000000000E+02 0.  0.
<mgrwt>
<rscale>  0 0.20913853E+03</rscale>
<asrwt>0</asrwt>
<pdfrwt beam="1">  1        2 0.29353661E+00 0.20913853E+03</pdfrwt>
<pdfrwt beam="2">  1       -2 0.88169656E-03 0.20913853E+03</pdfrwt>
<totfact> 0.21041206E+04</totfact>
</mgrwt>
</event>
<event>
 4    1  0.6122885E-004  0.1834474E+03  0.7818608E-02  0.1164508E+00
          2   -1    0    0  501    0  0.00000000000E+00  0.00000000000E+00  0.22666081129E+04  0.22666081129E+04  0.25500000000E-02 0.  1.
         -2   -1    0    0    0  501 -0.00000000000E+00 -0.00000000000E+00 -0.37118187256E+01  0.37118196016E+01  0.25500000000E-02 0. -1.
    5000001    1    1    2    0    0  0.37579676036E+02 -0.32738996347E+02  0.11364828594E+04  0.11401782158E+04  0.77000000000E+02 0.  0.
   -5000001    1    1    2    0    0 -0.37579676036E+02  0.32738996347E+02  0.11264134347E+04  0.11301417167E+04  0.77000000000E+02 0.  0.
<mgrwt>
<rscale>  0 0.18344742E+03</rscale>
<asrwt>0</asrwt>
<pdfrwt beam="1">  1        2 0.34870859E+00 0.18344742E+03</pdfrwt>
<pdfrwt beam="2">  1       -2 0.57104968E-03 0.18344742E+03</pdfrwt>
<totfact> 0.25359427E+04</totfact>
</mgrwt>
</event>
<event>
 4    1  0.6122885E-004  0.2456535E+03  0.7818608E-02  0.1116083E+00
         -2   -1    0    0    0  501 -0.00000000000E+00  0.00000000000E+00  0.10514429506E+03  0.10514429509E+03  0.25500000000E-02 0.  1.
          2   -1    0    0  501    0  0.00000000000E+00 -0.00000000000E+00 -0.14348297410E+03  0.14348297413E+03  0.25500000000E-02 0. -1.
    5000001    1    1    2    0    0  0.71644010721E+02  0.60291740899E+02  0.80424305223E+00  0.12123367973E+03  0.77000000000E+02 0.  0.
   -5000001    1    1    2    0    0 -0.71644010721E+02 -0.60291740899E+02 -0.39142922099E+02  0.12739358949E+03  0.77000000000E+02 0.  0.
<mgrwt>
<rscale>  0 0.24565355E+03</rscale>
<asrwt>0</asrwt>
<pdfrwt beam="1">  1        2 0.22074304E-01 0.24565355E+03</pdfrwt>
<pdfrwt beam="2">  1       -2 0.16176045E-01 0.24565355E+03</pdfrwt>
<totfact> 0.73644784E+03</totfact>
</mgrwt>
</event>
<event>
 4    1  0.6122885E-004  0.6442259E+03  0.7818608E-02  0.9817675E-01
         -2   -1    0    0    0  501 -0.00000000000E+00  0.00000000000E+00  0.11719901363E+03  0.11719901365E+03  0.25500000000E-02 0. -1.
          2   -1    0    0  501    0  0.00000000000E+00 -0.00000000000E+00 -0.88530396044E+03  0.88530396045E+03  0.25500000000E-02 0.  1.
    5000001    1    1    2    0    0 -0.19566217829E+02  0.30403860958E+03 -0.27395723586E+03  0.41689792525E+03  0.77000000000E+02 0.  0.
   -5000001    1    1    2    0    0  0.19566217829E+02 -0.30403860958E+03 -0.49414771096E+03  0.58560504885E+03  0.77000000000E+02 0.  0.
<mgrwt>
<rscale>  0 0.64422589E+03</rscale>
<asrwt>0</asrwt>
<pdfrwt beam="1">  1        2 0.13620060E+00 0.64422589E+03</pdfrwt>
<pdfrwt beam="2">  1       -2 0.18030618E-01 0.64422589E+03</pdfrwt>
<totfact> 0.77211667E+02</totfact>
</mgrwt>
</event>
<event>
 4    1  0.6122885E-004  0.2950090E+03  0.7818608E-02  0.1087763E+00
         -2   -1    0    0    0  501 -0.00000000000E+00  0.00000000000E+00  0.62122116730E+02  0.62122116782E+02  0.25500000000E-02 0. -1.
          2   -1    0    0  501    0  0.00000000000E+00 -0.00000000000E+00 -0.35023887745E+03  0.35023887746E+03  0.25500000000E-02 0.  1.
    5000001    1    1    2    0    0 -0.67167801739E+02 -0.99992966901E+02 -0.19481327997E+03  0.24164296198E+03  0.77000000000E+02 0.  0.
   -5000001    1    1    2    0    0  0.67167801739E+02  0.99992966901E+02 -0.93303480749E+02  0.17071803226E+03  0.77000000000E+02 0.  0.
<mgrwt>
<rscale>  0 0.29500902E+03</rscale>
<asrwt>0</asrwt>
<pdfrwt beam="1">  1        2 0.53882903E-01 0.29500902E+03</pdfrwt>
<pdfrwt beam="2">  1       -2 0.95572489E-02 0.29500902E+03</pdfrwt>
<totfact> 0.65663148E+03</totfact>
</mgrwt>
</event>
<event>
 4    1  0.6122885E-004  0.1758040E+03  0.7818608E-02  0.1171927E+00
         -2   -1    0    0    0  501 -0.00000000000E+00  0.00000000000E+00  0.10720425829E+02  0.10720426132E+02  0.25500000000E-02 0. -1.
          2   -1    0    0  501    0  0.00000000000E+00 -0.00000000000E+00 -0.72075107688E+03  0.72075107688E+03  0.25500000000E-02 0.  1.
    5000001    1    1    2    0    0 -0.19930384469E+01 -0.31585664695E+02 -0.23761715547E+03  0.25177875008E+03  0.77000000000E+02 0.  0.
   -5000001    1    1    2    0    0  0.19930384469E+01  0.31585664695E+02 -0.47241349558E+03  0.47969275294E+03  0.77000000000E+02 0.  0.
<mgrwt>
<rscale>  0 0.17580397E+03</rscale>
<asrwt>0</asrwt>
<pdfrwt beam="1">  1        2 0.11088474E+00 0.17580397E+03</pdfrwt>
<pdfrwt beam="2">  1       -2 0.16492969E-02 0.17580397E+03</pdfrwt>
<totfact> 0.39865160E+04</totfact>
</mgrwt>
</event>
<event>
 4    1  0.6122885E-004  0.3043568E+03  0.7818608E-02  0.1083083E+00
         -2   -1    0    0    0  501 -0.00000000000E+00  0.00000000000E+00  0.51431569140E+02  0.51431569203E+02  0.25500000000E-02 0. -1.
          2   -1    0    0  501    0  0.00000000000E+00 -0.00000000000E+00 -0.45027331530E+03  0.45027331531E+03  0.25500000000E-02 0.  1.
    5000001    1    1    2    0    0  0.45064743466E+01 -0.12431980991E+03 -0.26844853206E+03  0.30572755487E+03  0.77000000000E+02 0.  0.
   -5000001    1    1    2    0    0 -0.45064743466E+01  0.12431980991E+03 -0.13039321411E+03  0.19597732964E+03  0.77000000000E+02 0.  0.
<mgrwt>
<rscale>  0 0.30435679E+03</rscale>
<asrwt>0</asrwt>
<pdfrwt beam="1">  1        2 0.69272815E-01 0.30435679E+03</pdfrwt>
<pdfrwt beam="2">  1       -2 0.79125494E-02 0.30435679E+03</pdfrwt>
<totfact> 0.67280111E+03</totfact>
</mgrwt>
</event>
<event>
 4    1  0.6122885E-004  0.2541599E+03  0.7818608E-02  0.1110704E+00
         -2   -1    0    0    0  501 -0.00000000000E+00  0.00000000000E+00  0.92698361881E+01  0.92698365388E+01  0.25500000000E-02 0. -1.
          2   -1    0    0  501    0  0.00000000000E+00 -0.00000000000E+00 -0.17421359771E+04  0.17421359771E+04  0.25500000000E-02 0.  1.
    5000001    1    1    2    0    0 -0.15805120950E+02  0.97922883184E+02 -0.10010490880E+04  0.10088939337E+04  0.77000000000E+02 0.  0.
   -5000001    1    1    2    0    0  0.15805120950E+02 -0.97922883184E+02 -0.73181705293E+03  0.74251187995E+03  0.77000000000E+02 0.  0.
<mgrwt>
<rscale>  0 0.25415991E+03</rscale>
<asrwt>0</asrwt>
<pdfrwt beam="1">  1        2 0.26802066E+00 0.25415991E+03</pdfrwt>
<pdfrwt beam="2">  1       -2 0.14261301E-02 0.25415991E+03</pdfrwt>
<totfact> 0.12868289E+04</totfact>
</mgrwt>
</event>
<event>
 4    1  0.6122885E-004  0.3548788E+03  0.7818608E-02  0.1060630E+00
          2   -1    0    0  501    0  0.00000000000E+00  0.00000000000E+00  0.14872475088E+04  0.14872475088E+04  0.25500000000E-02 0.  1.
         -2   -1    0    0    0  501 -0.00000000000E+00 -0.00000000000E+00 -0.21169806864E+02  0.21169807018E+02  0.25500000000E-02 0. -1.
    5000001    1    1    2    0    0  0.13946590049E+03 -0.73035511810E+02  0.61502914812E+03  0.63951135754E+03  0.77000000000E+02 0.  0.
   -5000001    1    1    2    0    0 -0.13946590049E+03  0.73035511810E+02  0.85104855385E+03  0.86890595832E+03  0.77000000000E+02 0.  0.
<mgrwt>
<rscale>  0 0.35487881E+03</rscale>
<asrwt>0</asrwt>
<pdfrwt beam="1">  1        2 0.22880731E+00 0.35487881E+03</pdfrwt>
<pdfrwt beam="2">  1       -2 0.32568934E-02 0.35487881E+03</pdfrwt>
<totfact> 0.52052247E+03</totfact>
</mgrwt>
</event>
<event>
 4    1  0.6122885E-004  0.2526362E+03  0.7818608E-02  0.1111650E+00
          2   -1    0    0  501    0  0.00000000000E+00  0.00000000000E+00  0.10100085634E+04  0.10100085634E+04  0.25500000000E-02 0.  1.
         -2   -1    0    0    0  501 -0.00000000000E+00 -0.00000000000E+00 -0.15798141156E+02  0.15798141361E+02  0.25500000000E-02 0. -1.
    5000001    1    1    2    0    0 -0.41670727025E+02 -0.90960715187E+02  0.48038501104E+03  0.49669815787E+03  0.77000000000E+02 0.  0.
   -5000001    1    1    2    0    0  0.41670727025E+02  0.90960715187E+02  0.51382541117E+03  0.52910854687E+03  0.77000000000E+02 0.  0.
<mgrwt>
<rscale>  0 0.25263616E+03</rscale>
<asrwt>0</asrwt>
<pdfrwt beam="1">  1        2 0.15538593E+00 0.25263616E+03</pdfrwt>
<pdfrwt beam="2">  1       -2 0.24304833E-02 0.25263616E+03</pdfrwt>
<totfact> 0.14902372E+04</totfact>
</mgrwt>
</event>
<event>
 4    1  0.6122885E-004  0.2198116E+03  0.7818608E-02  0.1134024E+00
         -2   -1    0    0    0  501 -0.00000000000E+00  0.00000000000E+00  0.78618900229E+01  0.78618904364E+01  0.25500000000E-02 0. -1.
          2   -1    0    0  501    0  0.00000000000E+00 -0.00000000000E+00 -0.15364349772E+04  0.15364349772E+04  0.25500000000E-02 0.  1.
    5000001    1    1    2    0    0  0.67741177415E+02  0.78180314691E+01 -0.49216153288E+03  0.50279415587E+03  0.77000000000E+02 0.  0.
   -5000001    1    1    2    0    0 -0.67741177415E+02 -0.78180314691E+01 -0.10364115543E+04  0.10415027117E+04  0.77000000000E+02 0.  0.
<mgrwt>
<rscale>  0 0.21981158E+03</rscale>
<asrwt>0</asrwt>
<pdfrwt beam="1">  1        2 0.23637437E+00 0.21981158E+03</pdfrwt>
<pdfrwt beam="2">  1       -2 0.12095228E-02 0.21981158E+03</pdfrwt>
<totfact> 0.20874922E+04</totfact>
</mgrwt>
</event>
<event>
 4    1  0.6122885E-004  0.1773853E+03  0.7818608E-02  0.1170358E+00
         -2   -1    0    0    0  501 -0.00000000000E+00  0.00000000000E+00  0.55475172733E+01  0.55475178593E+01  0.25500000000E-02 0. -1.
          2   -1    0    0  501    0  0.00000000000E+00 -0.00000000000E+00 -0.14180004551E+04  0.14180004551E+04  0.25500000000E-02 0.  1.
    5000001    1    1    2    0    0 -0.20414030891E+02  0.38994055761E+02 -0.70892888267E+03  0.71445533781E+03  0.77000000000E+02 0.  0.
   -5000001    1    1    2    0    0  0.20414030891E+02 -0.38994055761E+02 -0.70352405518E+03  0.70909263517E+03  0.77000000000E+02 0.  0.
<mgrwt>
<rscale>  0 0.17738526E+03</rscale>
<asrwt>0</asrwt>
<pdfrwt beam="1">  1        2 0.21815363E+00 0.17738526E+03</pdfrwt>
<pdfrwt beam="2">  1       -2 0.85346537E-03 0.17738526E+03</pdfrwt>
<totfact> 0.39410507E+04</totfact>
</mgrwt>
</event>
<event>
 4    1  0.6122885E-004  0.2579182E+03  0.7818608E-02  0.1108400E+00
          2   -1    0    0  501    0  0.00000000000E+00  0.00000000000E+00  0.21803865820E+04  0.21803865820E+04  0.25500000000E-02 0.  1.
         -2   -1    0    0    0  501 -0.00000000000E+00 -0.00000000000E+00 -0.76272960624E+01  0.76272964887E+01  0.25500000000E-02 0. -1.
    5000001    1    1    2    0    0  0.50883885683E+02 -0.87994180995E+02  0.12494078737E+04  0.12558985551E+04  0.77000000000E+02 0.  0.
   -5000001    1    1    2    0    0 -0.50883885683E+02  0.87994180995E+02  0.92335141217E+03  0.93211532338E+03  0.77000000000E+02 0.  0.
<mgrwt>
<rscale>  0 0.25791824E+03</rscale>
<asrwt>0</asrwt>
<pdfrwt beam="1">  1        2 0.33544406E+00 0.25791824E+03</pdfrwt>
<pdfrwt beam="2">  1       -2 0.11734303E-02 0.25791824E+03</pdfrwt>
<totfact> 0.10065624E+04</totfact>
</mgrwt>
</event>
<event>
 4    1  0.6122885E-004  0.2782729E+03  0.7818608E-02  0.1096636E+00
         -2   -1    0    0    0  501 -0.00000000000E+00  0.00000000000E+00  0.64366777065E+02  0.64366777115E+02  0.25500000000E-02 0. -1.
          2   -1    0    0  501    0  0.00000000000E+00 -0.00000000000E+00 -0.30076004137E+03  0.30076004138E+03  0.25500000000E-02 0.  1.
    5000001    1    1    2    0    0 -0.11536634373E+03 -0.80627202649E+01 -0.12797642711E+03  0.18889512069E+03  0.77000000000E+02 0.  0.
   -5000001    1    1    2    0    0  0.11536634373E+03  0.80627202649E+01 -0.10841683720E+03  0.17623169781E+03  0.77000000000E+02 0.  0.
<mgrwt>
<rscale>  0 0.27827292E+03</rscale>
<asrwt>0</asrwt>
<pdfrwt beam="1">  1        2 0.46270775E-01 0.27827292E+03</pdfrwt>
<pdfrwt beam="2">  1       -2 0.99025812E-02 0.27827292E+03</pdfrwt>
<totfact> 0.73000367E+03</totfact>
</mgrwt>
</event>
<event>
 4    1  0.6122885E-004  0.3500709E+03  0.7818608E-02  0.1062586E+00
         -2   -1    0    0    0  501 -0.00000000000E+00  0.00000000000E+00  0.12301213588E+03  0.12301213591E+03  0.25500000000E-02 0. -1.
          2   -1    0    0  501    0  0.00000000000E+00 -0.00000000000E+00 -0.24905998253E+03  0.24905998255E+03  0.25500000000E-02 0.  1.
    5000001    1    1    2    0    0 -0.62762248302E+02 -0.14105629073E+03 -0.94417069465E+02  0.19667119762E+03  0.77000000000E+02 0.  0.
   -5000001    1    1    2    0    0  0.62762248302E+02  0.14105629073E+03 -0.31630777186E+02  0.17540092084E+03  0.77000000000E+02 0.  0.
<mgrwt>
<rscale>  0 0.35007085E+03</rscale>
<asrwt>0</asrwt>
<pdfrwt beam="1">  1        2 0.38316920E-01 0.35007085E+03</pdfrwt>
<pdfrwt beam="2">  1       -2 0.18924944E-01 0.35007085E+03</pdfrwt>
<totfact> 0.31072840E+03</totfact>
</mgrwt>
</event>
<event>
 4    1  0.6122885E-004  0.3592208E+03  0.7818608E-02  0.1058893E+00
          2   -1    0    0  501    0  0.00000000000E+00  0.00000000000E+00  0.37986799942E+03  0.37986799942E+03  0.25500000000E-02 0.  1.
         -2   -1    0    0    0  501 -0.00000000000E+00 -0.00000000000E+00 -0.84923984867E+02  0.84923984905E+02  0.25500000000E-02 0. -1.
    5000001    1    1    2    0    0  0.11062100256E+03  0.74970452927E+02  0.28368613236E+02  0.15681630411E+03  0.77000000000E+02 0.  0.
   -5000001    1    1    2    0    0 -0.11062100256E+03 -0.74970452927E+02  0.26657540131E+03  0.30797568021E+03  0.77000000000E+02 0.  0.
<mgrwt>
<rscale>  0 0.35922085E+03</rscale>
<asrwt>0</asrwt>
<pdfrwt beam="1">  1        2 0.58441231E-01 0.35922085E+03</pdfrwt>
<pdfrwt beam="2">  1       -2 0.13065228E-01 0.35922085E+03</pdfrwt>
<totfact> 0.36499622E+03</totfact>
</mgrwt>
</event>
<event>
 4    1  0.6122885E-004  0.2722297E+03  0.7818608E-02  0.1100010E+00
         -2   -1    0    0    0  501 -0.00000000000E+00  0.00000000000E+00  0.23750283519E+02  0.23750283656E+02  0.25500000000E-02 0. -1.
          2   -1    0    0  501    0  0.00000000000E+00 -0.00000000000E+00 -0.78008532197E+03  0.78008532197E+03  0.25500000000E-02 0.  1.
    5000001    1    1    2    0    0 -0.83381872782E+02 -0.52805155814E+02 -0.53600557401E+03  0.55042882970E+03  0.77000000000E+02 0.  0.
   -5000001    1    1    2    0    0  0.83381872782E+02  0.52805155814E+02 -0.22032946444E+03  0.25340677593E+03  0.77000000000E+02 0.  0.
<mgrwt>
<rscale>  0 0.27222966E+03</rscale>
<asrwt>0</asrwt>
<pdfrwt beam="1">  1        2 0.12001311E+00 0.27222966E+03</pdfrwt>
<pdfrwt beam="2">  1       -2 0.36538904E-02 0.27222966E+03</pdfrwt>
<totfact> 0.11496329E+04</totfact>
</mgrwt>
</event>
<event>
 4    1  0.6122885E-004  0.2661377E+03  0.7818608E-02  0.1103511E+00
          2   -1    0    0  501    0  0.00000000000E+00  0.00000000000E+00  0.52319240835E+03  0.52319240836E+03  0.25500000000E-02 0.  1.
         -2   -1    0    0    0  501 -0.00000000000E+00 -0.00000000000E+00 -0.33844762308E+02  0.33844762404E+02  0.25500000000E-02 0. -1.
    5000001    1    1    2    0    0  0.37247559080E+02 -0.90012281290E+02  0.34480633998E+03  0.36648329229E+03  0.77000000000E+02 0.  0.
   -5000001    1    1    2    0    0 -0.37247559080E+02  0.90012281290E+02  0.14454130606E+03  0.19055387847E+03  0.77000000000E+02 0.  0.
<mgrwt>
<rscale>  0 0.26613773E+03</rscale>
<asrwt>0</asrwt>
<pdfrwt beam="1">  1        2 0.80491141E-01 0.26613773E+03</pdfrwt>
<pdfrwt beam="2">  1       -2 0.52068864E-02 0.26613773E+03</pdfrwt>
<totfact> 0.10800421E+04</totfact>
</mgrwt>
</event>
<event>
 4    1  0.6122885E-004  0.3063583E+03  0.7818608E-02  0.1082105E+00
          2   -1    0    0  501    0  0.00000000000E+00  0.00000000000E+00  0.16333648647E+04  0.16333648647E+04  0.25500000000E-02 0.  1.
         -2   -1    0    0    0  501 -0.00000000000E+00 -0.00000000000E+00 -0.14365350096E+02  0.14365350322E+02  0.25500000000E-02 0. -1.
    5000001    1    1    2    0    0 -0.21693828338E+01 -0.12370475718E+03  0.55566896494E+03  0.57446024386E+03  0.77000000000E+02 0.  0.
   -5000001    1    1    2    0    0  0.21693828338E+01  0.12370475718E+03  0.10633305496E+04  0.10732699711E+04  0.77000000000E+02 0.  0.
<mgrwt>
<rscale>  0 0.30635834E+03</rscale>
<asrwt>0</asrwt>
<pdfrwt beam="1">  1        2 0.25128694E+00 0.30635834E+03</pdfrwt>
<pdfrwt beam="2">  1       -2 0.22100536E-02 0.30635834E+03</pdfrwt>
<totfact> 0.77412800E+03</totfact>
</mgrwt>
</event>
<event>
 4    1  0.6122885E-004  0.3701771E+03  0.7818608E-02  0.1054625E+00
          2   -1    0    0  501    0  0.00000000000E+00  0.00000000000E+00  0.13801907674E+03  0.13801907676E+03  0.25500000000E-02 0.  1.
         -2   -1    0    0    0  501 -0.00000000000E+00 -0.00000000000E+00 -0.24821047298E+03  0.24821047299E+03  0.25500000000E-02 0. -1.
    5000001    1    1    2    0    0  0.14279785266E+03  0.64408033806E+02  0.91297723649E+01  0.17479123057E+03  0.77000000000E+02 0.  0.
   -5000001    1    1    2    0    0 -0.14279785266E+03 -0.64408033806E+02 -0.11932116860E+03  0.21143831918E+03  0.77000000000E+02 0.  0.
<mgrwt>
<rscale>  0 0.37017715E+03</rscale>
<asrwt>0</asrwt>
<pdfrwt beam="1">  1        2 0.21233704E-01 0.37017715E+03</pdfrwt>
<pdfrwt beam="2">  1       -2 0.38186227E-01 0.37017715E+03</pdfrwt>
<totfact> 0.16978540E+03</totfact>
</mgrwt>
</event>
<event>
 4    1  0.6122885E-004  0.3367590E+03  0.7818608E-02  0.1068185E+00
         -2   -1    0    0    0  501 -0.00000000000E+00  0.00000000000E+00  0.47486122093E+02  0.47486122162E+02  0.25500000000E-02 0.  1.
          2   -1    0    0  501    0  0.00000000000E+00 -0.00000000000E+00 -0.59705130432E+03  0.59705130433E+03  0.25500000000E-02 0. -1.
    5000001    1    1    2    0    0 -0.81843830218E+02 -0.11601847848E+03 -0.36584990007E+03  0.39991730305E+03  0.77000000000E+02 0.  0.
   -5000001    1    1    2    0    0  0.81843830218E+02  0.11601847848E+03 -0.18371528216E+03  0.24462012344E+03  0.77000000000E+02 0.  0.
<mgrwt>
<rscale>  0 0.33675897E+03</rscale>
<asrwt>0</asrwt>
<pdfrwt beam="1">  1        2 0.91854042E-01 0.33675897E+03</pdfrwt>
<pdfrwt beam="2">  1       -2 0.73055577E-02 0.33675897E+03</pdfrwt>
<totfact> 0.55497691E+03</totfact>
</mgrwt>
</event>
<event>
 4    1  0.6122885E-004  0.4463467E+03  0.7818608E-02  0.1028817E+00
         -2   -1    0    0    0  501 -0.00000000000E+00  0.00000000000E+00  0.61467917042E+02  0.61467917095E+02  0.25500000000E-02 0. -1.
          2   -1    0    0  501    0  0.00000000000E+00 -0.00000000000E+00 -0.81028181065E+03  0.81028181065E+03  0.25500000000E-02 0.  1.
    5000001    1    1    2    0    0  0.14582751465E+03 -0.92135137083E+02 -0.14230448561E+03  0.23650394106E+03  0.77000000000E+02 0.  0.
   -5000001    1    1    2    0    0 -0.14582751465E+03  0.92135137083E+02 -0.60650940799E+03  0.63524578668E+03  0.77000000000E+02 0.  0.
<mgrwt>
<rscale>  0 0.44634666E+03</rscale>
<asrwt>0</asrwt>
<pdfrwt beam="1">  1        2 0.12465873E+00 0.44634666E+03</pdfrwt>
<pdfrwt beam="2">  1       -2 0.94566032E-02 0.44634666E+03</pdfrwt>
<totfact> 0.25424235E+03</totfact>
</mgrwt>
</event>
<event>
 4    1  0.6122885E-004  0.9966281E+03  0.7818608E-02  0.9312251E-01
          2   -1    0    0  501    0  0.00000000000E+00  0.00000000000E+00  0.28301943119E+03  0.28301943120E+03  0.25500000000E-02 0.  1.
         -2   -1    0    0    0  501 -0.00000000000E+00 -0.00000000000E+00 -0.87738462374E+03  0.87738462374E+03  0.25500000000E-02 0. -1.
    5000001    1    1    2    0    0  0.29198045961E+03  0.36648198325E+03 -0.47309381058E+03  0.67030469672E+03  0.77000000000E+02 0.  0.
   -5000001    1    1    2    0    0 -0.29198045961E+03 -0.36648198325E+03 -0.12127138197E+03  0.49009935822E+03  0.77000000000E+02 0.  0.
<mgrwt>
<rscale>  0 0.99662811E+03</rscale>
<asrwt>0</asrwt>
<pdfrwt beam="1">  1        2 0.43541451E-01 0.99662811E+03</pdfrwt>
<pdfrwt beam="2">  1       -2 0.13498225E+00 0.99662811E+03</pdfrwt>
<totfact> 0.46136918E+01</totfact>
</mgrwt>
</event>
<event>
 4    1  0.6122885E-004  0.2304576E+03  0.7818608E-02  0.1126318E+00
         -2   -1    0    0    0  501 -0.00000000000E+00  0.00000000000E+00  0.74252256426E+02  0.74252256469E+02  0.25500000000E-02 0. -1.
          2   -1    0    0  501    0  0.00000000000E+00 -0.00000000000E+00 -0.17881850968E+03  0.17881850970E+03  0.25500000000E-02 0.  1.
    5000001    1    1    2    0    0 -0.42635772240E+01 -0.85596663112E+02 -0.50167703222E+02  0.12566131176E+03  0.77000000000E+02 0.  0.
   -5000001    1    1    2    0    0  0.42635772240E+01  0.85596663112E+02 -0.54398550032E+02  0.12740945441E+03  0.77000000000E+02 0.  0.
<mgrwt>
<rscale>  0 0.23045761E+03</rscale>
<asrwt>0</asrwt>
<pdfrwt beam="1">  1        2 0.27510540E-01 0.23045761E+03</pdfrwt>
<pdfrwt beam="2">  1       -2 0.11423424E-01 0.23045761E+03</pdfrwt>
<totfact> 0.10129425E+04</totfact>
</mgrwt>
</event>
<event>
 4    1  0.6122885E-004  0.4246571E+03  0.7818608E-02  0.1035561E+00
          2   -1    0    0  501    0  0.00000000000E+00  0.00000000000E+00  0.32973392989E+03  0.32973392990E+03  0.25500000000E-02 0.  1.
         -2   -1    0    0    0  501 -0.00000000000E+00 -0.00000000000E+00 -0.13672667071E+03  0.13672667073E+03  0.25500000000E-02 0. -1.
    5000001    1    1    2    0    0  0.19120345833E+03 -0.37983332653E+02  0.13380092402E+03  0.24866279035E+03  0.77000000000E+02 0.  0.
   -5000001    1    1    2    0    0 -0.19120345833E+03  0.37983332653E+02  0.59206335161E+02  0.21779781028E+03  0.77000000000E+02 0.  0.
<mgrwt>
<rscale>  0 0.42465714E+03</rscale>
<asrwt>0</asrwt>
<pdfrwt beam="1">  1        2 0.50728296E-01 0.42465714E+03</pdfrwt>
<pdfrwt beam="2">  1       -2 0.21034873E-01 0.42465714E+03</pdfrwt>
<totfact> 0.19128337E+03</totfact>
</mgrwt>
</event>
<event>
 4    1  0.6122885E-004  0.2174516E+03  0.7818608E-02  0.1135797E+00
         -2   -1    0    0    0  501 -0.00000000000E+00  0.00000000000E+00  0.12768423207E+02  0.12768423462E+02  0.25500000000E-02 0. -1.
          2   -1    0    0  501    0  0.00000000000E+00 -0.00000000000E+00 -0.92582264945E+03  0.92582264945E+03  0.25500000000E-02 0.  1.
    5000001    1    1    2    0    0  0.42933843403E+02 -0.62956370345E+02 -0.49643292063E+03  0.50811560118E+03  0.77000000000E+02 0.  0.
   -5000001    1    1    2    0    0 -0.42933843403E+02  0.62956370345E+02 -0.41662130561E+03  0.43047547174E+03  0.77000000000E+02 0.  0.
<mgrwt>
<rscale>  0 0.21745156E+03</rscale>
<asrwt>0</asrwt>
<pdfrwt beam="1">  1        2 0.14243420E+00 0.21745156E+03</pdfrwt>
<pdfrwt beam="2">  1       -2 0.19643736E-02 0.21745156E+03</pdfrwt>
<totfact> 0.22811381E+04</totfact>
</mgrwt>
</event>
<event>
 4    1  0.6122885E-004  0.2558105E+03  0.7818608E-02  0.1109687E+00
          2   -1    0    0  501    0  0.00000000000E+00  0.00000000000E+00  0.85736119522E+03  0.85736119522E+03  0.25500000000E-02 0.  1.
         -2   -1    0    0    0  501 -0.00000000000E+00 -0.00000000000E+00 -0.19081512915E+02  0.19081513086E+02  0.25500000000E-02 0. -1.
    5000001    1    1    2    0    0  0.26289594278E+02  0.97547963787E+02  0.36786196894E+03  0.38917627908E+03  0.77000000000E+02 0.  0.
   -5000001    1    1    2    0    0 -0.26289594278E+02 -0.97547963787E+02  0.47041771337E+03  0.48726642923E+03  0.77000000000E+02 0.  0.
<mgrwt>
<rscale>  0 0.25581047E+03</rscale>
<asrwt>0</asrwt>
<pdfrwt beam="1">  1        2 0.13190172E+00 0.25581047E+03</pdfrwt>
<pdfrwt beam="2">  1       -2 0.29356175E-02 0.25581047E+03</pdfrwt>
<totfact> 0.14082787E+04</totfact>
</mgrwt>
</event>
<event>
 4    1  0.6122885E-004  0.2172741E+03  0.7818608E-02  0.1135932E+00
         -2   -1    0    0    0  501 -0.00000000000E+00  0.00000000000E+00  0.36467221577E+02  0.36467221666E+02  0.25500000000E-02 0. -1.
          2   -1    0    0  501    0  0.00000000000E+00 -0.00000000000E+00 -0.32363332325E+03  0.32363332326E+03  0.25500000000E-02 0.  1.
    5000001    1    1    2    0    0  0.27064367239E+02 -0.23664283703E+02 -0.31413834404E+02  0.90599709101E+02  0.77000000000E+02 0.  0.
   -5000001    1    1    2    0    0 -0.27064367239E+02  0.23664283703E+02 -0.25575226727E+03  0.26950083582E+03  0.77000000000E+02 0.  0.
<mgrwt>
<rscale>  0 0.21727410E+03</rscale>
<asrwt>0</asrwt>
<pdfrwt beam="1">  1        2 0.49789740E-01 0.21727410E+03</pdfrwt>
<pdfrwt beam="2">  1       -2 0.56103420E-02 0.21727410E+03</pdfrwt>
<totfact> 0.16110031E+04</totfact>
</mgrwt>
</event>
<event>
 4    1  0.6122885E-004  0.3147235E+03  0.7818608E-02  0.1078104E+00
          2   -1    0    0  501    0  0.00000000000E+00  0.00000000000E+00  0.28151828972E+02  0.28151829088E+02  0.25500000000E-02 0.  1.
         -2   -1    0    0    0  501 -0.00000000000E+00 -0.00000000000E+00 -0.87961315647E+03  0.87961315647E+03  0.25500000000E-02 0. -1.
    5000001    1    1    2    0    0 -0.81867514686E+02  0.73908336581E+02 -0.66127583257E+03  0.67481809321E+03  0.77000000000E+02 0.  0.
   -5000001    1    1    2    0    0  0.81867514686E+02 -0.73908336581E+02 -0.19018549492E+03  0.23294689235E+03  0.77000000000E+02 0.  0.
<mgrwt>
<rscale>  0 0.31472349E+03</rscale>
<asrwt>0</asrwt>
<pdfrwt beam="1">  1        2 0.43310513E-02 0.31472349E+03</pdfrwt>
<pdfrwt beam="2">  1       -2 0.13532508E+00 0.31472349E+03</pdfrwt>
<totfact> 0.78843755E+02</totfact>
</mgrwt>
</event>
<event>
 4    1  0.6122885E-004  0.3002320E+03  0.7818608E-02  0.1085125E+00
          2   -1    0    0  501    0  0.00000000000E+00  0.00000000000E+00  0.57500667786E+03  0.57500667787E+03  0.25500000000E-02 0.  1.
         -2   -1    0    0    0  501 -0.00000000000E+00 -0.00000000000E+00 -0.39190516869E+02  0.39190516952E+02  0.25500000000E-02 0. -1.
    5000001    1    1    2    0    0 -0.35393681590E+02  0.16430878090E+02  0.51915255640E+03  0.52628040365E+03  0.77000000000E+02 0.  0.
   -5000001    1    1    2    0    0  0.35393681590E+02 -0.16430878090E+02  0.16663604593E+02  0.87916791169E+02  0.77000000000E+02 0.  0.
<mgrwt>
<rscale>  0 0.30023197E+03</rscale>
<asrwt>0</asrwt>
<pdfrwt beam="1">  1        2 0.88462570E-01 0.30023197E+03</pdfrwt>
<pdfrwt beam="2">  1       -2 0.60293100E-02 0.30023197E+03</pdfrwt>
<totfact> 0.77827009E+03</totfact>
</mgrwt>
</event>
<event>
 4    1  0.6122885E-004  0.2265440E+03  0.7818608E-02  0.1129096E+00
          2   -1    0    0  501    0  0.00000000000E+00  0.00000000000E+00  0.91499039785E+03  0.91499039785E+03  0.25500000000E-02 0.  1.
         -2   -1    0    0    0  501 -0.00000000000E+00 -0.00000000000E+00 -0.14022603203E+02  0.14022603435E+02  0.25500000000E-02 0. -1.
    5000001    1    1    2    0    0 -0.67080446786E+01  0.72068798959E+02  0.61769612068E+03  0.62667089221E+03  0.77000000000E+02 0.  0.
   -5000001    1    1    2    0    0  0.67080446786E+01 -0.72068798959E+02  0.28327167397E+03  0.30234210908E+03  0.77000000000E+02 0.  0.
<mgrwt>
<rscale>  0 0.22654401E+03</rscale>
<asrwt>0</asrwt>
<pdfrwt beam="1">  1        2 0.14076778E+00 0.22654401E+03</pdfrwt>
<pdfrwt beam="2">  1       -2 0.21573231E-02 0.22654401E+03</pdfrwt>
<totfact> 0.20246664E+04</totfact>
</mgrwt>
</event>
<event>
 4    1  0.6122885E-004  0.2198816E+03  0.7818608E-02  0.1133971E+00
          2   -1    0    0  501    0  0.00000000000E+00  0.00000000000E+00  0.48856622697E+03  0.48856622697E+03  0.25500000000E-02 0.  1.
         -2   -1    0    0    0  501 -0.00000000000E+00 -0.00000000000E+00 -0.24739686342E+02  0.24739686474E+02  0.25500000000E-02 0. -1.
    5000001    1    1    2    0    0  0.20767639209E+02  0.75101666200E+02  0.25361502989E+03  0.27626280692E+03  0.77000000000E+02 0.  0.
   -5000001    1    1    2    0    0 -0.20767639209E+02 -0.75101666200E+02  0.21021151074E+03  0.23704310652E+03  0.77000000000E+02 0.  0.
<mgrwt>
<rscale>  0 0.21988156E+03</rscale>
<asrwt>0</asrwt>
<pdfrwt beam="1">  1        2 0.75164031E-01 0.21988156E+03</pdfrwt>
<pdfrwt beam="2">  1       -2 0.38061058E-02 0.21988156E+03</pdfrwt>
<totfact> 0.18521315E+04</totfact>
</mgrwt>
</event>
<event>
 4    1  0.6122885E-004  0.2089610E+03  0.7818608E-02  0.1142391E+00
         -2   -1    0    0    0  501 -0.00000000000E+00  0.00000000000E+00  0.17828336020E+02  0.17828336203E+02  0.25500000000E-02 0. -1.
          2   -1    0    0  501    0  0.00000000000E+00 -0.00000000000E+00 -0.61229378008E+03  0.61229378008E+03  0.25500000000E-02 0.  1.
    5000001    1    1    2    0    0 -0.12514058803E+02  0.62910496486E+02 -0.20814282070E+03  0.23101248028E+03  0.77000000000E+02 0.  0.
   -5000001    1    1    2    0    0  0.12514058803E+02 -0.62910496486E+02 -0.38632262335E+03  0.39910963600E+03  0.77000000000E+02 0.  0.
<mgrwt>
<rscale>  0 0.20896104E+03</rscale>
<asrwt>0</asrwt>
<pdfrwt beam="1">  1        2 0.94199027E-01 0.20896104E+03</pdfrwt>
<pdfrwt beam="2">  1       -2 0.27428214E-02 0.20896104E+03</pdfrwt>
<totfact> 0.23266383E+04</totfact>
</mgrwt>
</event>
<event>
 4    1  0.6122885E-004  0.4627848E+03  0.7818608E-02  0.1023977E+00
         -2   -1    0    0    0  501 -0.00000000000E+00  0.00000000000E+00  0.51113403262E+02  0.51113403325E+02  0.25500000000E-02 0. -1.
          2   -1    0    0  501    0  0.00000000000E+00 -0.00000000000E+00 -0.10475224770E+04  0.10475224770E+04  0.25500000000E-02 0.  1.
    5000001    1    1    2    0    0  0.20117817430E+03  0.80150434524E+02 -0.56175811932E+03  0.60695793477E+03  0.77000000000E+02 0.  0.
   -5000001    1    1    2    0    0 -0.20117817430E+03 -0.80150434524E+02 -0.43465095444E+03  0.49167794557E+03  0.77000000000E+02 0.  0.
<mgrwt>
<rscale>  0 0.46278478E+03</rscale>
<asrwt>0</asrwt>
<pdfrwt beam="1">  1        2 0.16115729E+00 0.46278478E+03</pdfrwt>
<pdfrwt beam="2">  1       -2 0.78636013E-02 0.46278478E+03</pdfrwt>
<totfact> 0.23889468E+03</totfact>
</mgrwt>
</event>
<event>
 4    1  0.6122885E-004  0.2321803E+03  0.7818608E-02  0.1125115E+00
         -2   -1    0    0    0  501 -0.00000000000E+00  0.00000000000E+00  0.45028672622E+03  0.45028672623E+03  0.25500000000E-02 0. -1.
          2   -1    0    0  501    0  0.00000000000E+00 -0.00000000000E+00 -0.29929639835E+02  0.29929639944E+02  0.25500000000E-02 0.  1.
    5000001    1    1    2    0    0  0.35903668151E+02  0.75855210381E+02  0.25664992792E+03  0.28078687973E+03  0.77000000000E+02 0.  0.
   -5000001    1    1    2    0    0 -0.35903668151E+02 -0.75855210381E+02  0.16370715847E+03  0.19942948644E+03  0.77000000000E+02 0.  0.
<mgrwt>
<rscale>  0 0.23218027E+03</rscale>
<asrwt>0</asrwt>
<pdfrwt beam="1">  1        2 0.46045605E-02 0.23218027E+03</pdfrwt>
<pdfrwt beam="2">  1       -2 0.69274873E-01 0.23218027E+03</pdfrwt>
<totfact> 0.33816752E+03</totfact>
</mgrwt>
</event>
<event>
 4    1  0.6122885E-004  0.2236171E+03  0.7818608E-02  0.1131215E+00
         -2   -1    0    0    0  501 -0.00000000000E+00  0.00000000000E+00  0.28137899614E+02  0.28137899729E+02  0.25500000000E-02 0. -1.
          2   -1    0    0  501    0  0.00000000000E+00 -0.00000000000E+00 -0.44428150519E+03  0.44428150519E+03  0.25500000000E-02 0.  1.
    5000001    1    1    2    0    0  0.76447438147E+02  0.24096333525E+02 -0.18243106374E+03  0.21362335337E+03  0.77000000000E+02 0.  0.
   -5000001    1    1    2    0    0 -0.76447438147E+02 -0.24096333525E+02 -0.23371254183E+03  0.25879605155E+03  0.77000000000E+02 0.  0.
<mgrwt>
<rscale>  0 0.22361707E+03</rscale>
<asrwt>0</asrwt>
<pdfrwt beam="1">  1        2 0.68350996E-01 0.22361707E+03</pdfrwt>
<pdfrwt beam="2">  1       -2 0.43289080E-02 0.22361707E+03</pdfrwt>
<totfact> 0.16971699E+04</totfact>
</mgrwt>
</event>
<event>
 4    1  0.6122885E-004  0.2565680E+03  0.7818608E-02  0.1109223E+00
          2   -1    0    0  501    0  0.00000000000E+00  0.00000000000E+00  0.13761488424E+04  0.13761488424E+04  0.25500000000E-02 0.  1.
         -2   -1    0    0    0  501 -0.00000000000E+00 -0.00000000000E+00 -0.11958576695E+02  0.11958576967E+02  0.25500000000E-02 0. -1.
    5000001    1    1    2    0    0  0.10063887716E+03 -0.19532115467E+02  0.70510925105E+03  0.71667129358E+03  0.77000000000E+02 0.  0.
   -5000001    1    1    2    0    0 -0.10063887716E+03  0.19532115467E+02  0.65908101470E+03  0.67143612583E+03  0.77000000000E+02 0.  0.
<mgrwt>
<rscale>  0 0.25656798E+03</rscale>
<asrwt>0</asrwt>
<pdfrwt beam="1">  1        2 0.21171521E+00 0.25656798E+03</pdfrwt>
<pdfrwt beam="2">  1       -2 0.18397810E-02 0.25656798E+03</pdfrwt>
<totfact> 0.13882770E+04</totfact>
</mgrwt>
</event>
<event>
 4    1  0.6122885E-004  0.2169061E+03  0.7818608E-02  0.1136211E+00
         -2   -1    0    0    0  501 -0.00000000000E+00  0.00000000000E+00  0.50136723345E+02  0.50136723410E+02  0.25500000000E-02 0. -1.
          2   -1    0    0  501    0  0.00000000000E+00 -0.00000000000E+00 -0.23459969111E+03  0.23459969112E+03  0.25500000000E-02 0.  1.
    5000001    1    1    2    0    0 -0.48779528362E+02 -0.24403970564E+02 -0.16241049963E+03  0.18783281544E+03  0.77000000000E+02 0.  0.
   -5000001    1    1    2    0    0  0.48779528362E+02  0.24403970564E+02 -0.22052468137E+02  0.96903599094E+02  0.77000000000E+02 0.  0.
<mgrwt>
<rscale>  0 0.21690606E+03</rscale>
<asrwt>0</asrwt>
<pdfrwt beam="1">  1        2 0.36092259E-01 0.21690606E+03</pdfrwt>
<pdfrwt beam="2">  1       -2 0.77133422E-02 0.21690606E+03</pdfrwt>
<totfact> 0.13945233E+04</totfact>
</mgrwt>
</event>
<event>
 4    1  0.6122885E-004  0.2837489E+03  0.7818608E-02  0.1093659E+00
          2   -1    0    0  501    0  0.00000000000E+00  0.00000000000E+00  0.46594171385E+03  0.46594171385E+03  0.25500000000E-02 0.  1.
         -2   -1    0    0    0  501 -0.00000000000E+00 -0.00000000000E+00 -0.43199294056E+02  0.43199294131E+02  0.25500000000E-02 0. -1.
    5000001    1    1    2    0    0 -0.10504352058E+03 -0.33160194849E+02  0.12982036194E+03  0.18685841194E+03  0.77000000000E+02 0.  0.
   -5000001    1    1    2    0    0  0.10504352058E+03  0.33160194849E+02  0.29292205785E+03  0.32228259604E+03  0.77000000000E+02 0.  0.
<mgrwt>
<rscale>  0 0.28374885E+03</rscale>
<asrwt>0</asrwt>
<pdfrwt beam="1">  1        2 0.71683340E-01 0.28374885E+03</pdfrwt>
<pdfrwt beam="2">  1       -2 0.66460453E-02 0.28374885E+03</pdfrwt>
<totfact> 0.84773467E+03</totfact>
</mgrwt>
</event>
<event>
 4    1  0.6122885E-004  0.1922814E+03  0.7818608E-02  0.1156420E+00
          2   -1    0    0  501    0  0.00000000000E+00  0.00000000000E+00  0.39311614857E+02  0.39311614940E+02  0.25500000000E-02 0.  1.
         -2   -1    0    0    0  501 -0.00000000000E+00 -0.00000000000E+00 -0.23512222183E+03  0.23512222184E+03  0.25500000000E-02 0. -1.
    5000001    1    1    2    0    0  0.17532933837E+02  0.54616033358E+02 -0.90954228302E+02  0.13225727396E+03  0.77000000000E+02 0.  0.
   -5000001    1    1    2    0    0 -0.17532933837E+02 -0.54616033358E+02 -0.10485637867E+03  0.14217656282E+03  0.77000000000E+02 0.  0.
<mgrwt>
<rscale>  0 0.19228140E+03</rscale>
<asrwt>0</asrwt>
<pdfrwt beam="1">  1        2 0.60479409E-02 0.19228140E+03</pdfrwt>
<pdfrwt beam="2">  1       -2 0.36172649E-01 0.19228140E+03</pdfrwt>
<totfact> 0.85394249E+03</totfact>
</mgrwt>
</event>
<event>
 4    1  0.6122885E-004  0.3074022E+03  0.7818608E-02  0.1081598E+00
         -2   -1    0    0    0  501 -0.00000000000E+00  0.00000000000E+00  0.11855516486E+02  0.11855516760E+02  0.25500000000E-02 0. -1.
          2   -1    0    0  501    0  0.00000000000E+00 -0.00000000000E+00 -0.19926607578E+04  0.19926607579E+04  0.25500000000E-02 0.  1.
    5000001    1    1    2    0    0  0.29486644276E+00  0.12001451513E+03 -0.61629511207E+03  0.63257587367E+03  0.77000000000E+02 0.  0.
   -5000001    1    1    2    0    0 -0.29486644276E+00 -0.12001451513E+03 -0.13645101293E+04  0.13719404009E+04  0.77000000000E+02 0.  0.
<mgrwt>
<rscale>  0 0.30740216E+03</rscale>
<asrwt>0</asrwt>
<pdfrwt beam="1">  1        2 0.30656293E+00 0.30740216E+03</pdfrwt>
<pdfrwt beam="2">  1       -2 0.18239272E-02 0.30740216E+03</pdfrwt>
<totfact> 0.66410783E+03</totfact>
</mgrwt>
</event>
<event>
 4    1  0.6122885E-004  0.3896194E+03  0.7818608E-02  0.1047435E+00
          2   -1    0    0  501    0  0.00000000000E+00  0.00000000000E+00  0.41115765946E+03  0.41115765947E+03  0.25500000000E-02 0.  1.
         -2   -1    0    0    0  501 -0.00000000000E+00 -0.00000000000E+00 -0.92302330394E+02  0.92302330429E+02  0.25500000000E-02 0. -1.
    5000001    1    1    2    0    0 -0.59481831671E+02  0.99460372283E+02 -0.16761816842E+02  0.14014425588E+03  0.77000000000E+02 0.  0.
   -5000001    1    1    2    0    0  0.59481831671E+02 -0.99460372283E+02  0.33561714591E+03  0.36331573402E+03  0.77000000000E+02 0.  0.
<mgrwt>
<rscale>  0 0.38961935E+03</rscale>
<asrwt>0</asrwt>
<pdfrwt beam="1">  1        2 0.63255023E-01 0.38961935E+03</pdfrwt>
<pdfrwt beam="2">  1       -2 0.14200359E-01 0.38961935E+03</pdfrwt>
<totfact> 0.29206506E+03</totfact>
</mgrwt>
</event>
<event>
 4    1  0.6122885E-004  0.1862729E+03  0.7818608E-02  0.1161867E+00
         -2   -1    0    0    0  501 -0.00000000000E+00  0.00000000000E+00  0.11849622220E+02  0.11849622494E+02  0.25500000000E-02 0. -1.
          2   -1    0    0  501    0  0.00000000000E+00 -0.00000000000E+00 -0.73204018672E+03  0.73204018672E+03  0.25500000000E-02 0.  1.
    5000001    1    1    2    0    0 -0.40446069165E+01  0.51202840280E+02 -0.31872589081E+03  0.33189348167E+03  0.77000000000E+02 0.  0.
   -5000001    1    1    2    0    0  0.40446069165E+01 -0.51202840280E+02 -0.40146467369E+03  0.41199632755E+03  0.77000000000E+02 0.  0.
<mgrwt>
<rscale>  0 0.18627292E+03</rscale>
<asrwt>0</asrwt>
<pdfrwt beam="1">  1        2 0.11262153E+00 0.18627292E+03</pdfrwt>
<pdfrwt beam="2">  1       -2 0.18230194E-02 0.18627292E+03</pdfrwt>
<totfact> 0.33979672E+04</totfact>
</mgrwt>
</event>
<event>
 4    1  0.6122885E-004  0.1987453E+03  0.7818608E-02  0.1150802E+00
          2   -1    0    0  501    0  0.00000000000E+00  0.00000000000E+00  0.37377977612E+03  0.37377977613E+03  0.25500000000E-02 0.  1.
         -2   -1    0    0    0  501 -0.00000000000E+00 -0.00000000000E+00 -0.26419095749E+02  0.26419095872E+02  0.25500000000E-02 0. -1.
    5000001    1    1    2    0    0  0.40488715917E+02  0.40651165343E+02  0.22517844233E+03  0.24479825214E+03  0.77000000000E+02 0.  0.
   -5000001    1    1    2    0    0 -0.40488715917E+02 -0.40651165343E+02  0.12218223804E+03  0.15540061986E+03  0.77000000000E+02 0.  0.
<mgrwt>
<rscale>  0 0.19874530E+03</rscale>
<asrwt>0</asrwt>
<pdfrwt beam="1">  1        2 0.57504579E-01 0.19874530E+03</pdfrwt>
<pdfrwt beam="2">  1       -2 0.40644764E-02 0.19874530E+03</pdfrwt>
<totfact> 0.22316171E+04</totfact>
</mgrwt>
</event>
<event>
 4    1  0.6122885E-004  0.2142911E+03  0.7818608E-02  0.1138212E+00
          2   -1    0    0  501    0  0.00000000000E+00  0.00000000000E+00  0.13954320767E+03  0.13954320769E+03  0.25500000000E-02 0.  1.
         -2   -1    0    0    0  501 -0.00000000000E+00 -0.00000000000E+00 -0.82269659295E+02  0.82269659335E+02  0.25500000000E-02 0. -1.
    5000001    1    1    2    0    0 -0.70864614923E+02 -0.11905525679E+02  0.49016349694E+02  0.11616857461E+03  0.77000000000E+02 0.  0.
   -5000001    1    1    2    0    0  0.70864614923E+02  0.11905525679E+02  0.82571986797E+01  0.10564429242E+03  0.77000000000E+02 0.  0.
<mgrwt>
<rscale>  0 0.21429113E+03</rscale>
<asrwt>0</asrwt>
<pdfrwt beam="1">  1        2 0.21468186E-01 0.21429113E+03</pdfrwt>
<pdfrwt beam="2">  1       -2 0.12656871E-01 0.21429113E+03</pdfrwt>
<totfact> 0.11280489E+04</totfact>
</mgrwt>
</event>
<event>
 4    1  0.6122885E-004  0.1897298E+03  0.7818608E-02  0.1158705E+00
         -2   -1    0    0    0  501 -0.00000000000E+00  0.00000000000E+00  0.38955220038E+02  0.38955220122E+02  0.25500000000E-02 0. -1.
          2   -1    0    0  501    0  0.00000000000E+00 -0.00000000000E+00 -0.23101792130E+03  0.23101792131E+03  0.25500000000E-02 0.  1.
    5000001    1    1    2    0    0  0.47701485855E+02  0.14228323874E+02 -0.13066678603E+03  0.15962670805E+03  0.77000000000E+02 0.  0.
   -5000001    1    1    2    0    0 -0.47701485855E+02 -0.14228323874E+02 -0.61395915235E+02  0.11034643338E+03  0.77000000000E+02 0.  0.
<mgrwt>
<rscale>  0 0.18972985E+03</rscale>
<asrwt>0</asrwt>
<pdfrwt beam="1">  1        2 0.35541218E-01 0.18972985E+03</pdfrwt>
<pdfrwt beam="2">  1       -2 0.59931109E-02 0.18972985E+03</pdfrwt>
<totfact> 0.20709479E+04</totfact>
</mgrwt>
</event>
<event>
 4    1  0.6122885E-004  0.1864208E+03  0.7818608E-02  0.1161730E+00
          2   -1    0    0  501    0  0.00000000000E+00  0.00000000000E+00  0.42930802952E+03  0.42930802953E+03  0.25500000000E-02 0.  1.
         -2   -1    0    0    0  501 -0.00000000000E+00 -0.00000000000E+00 -0.20237632471E+02  0.20237632631E+02  0.25500000000E-02 0. -1.
    5000001    1    1    2    0    0 -0.42179252042E+02 -0.30829011345E+02  0.21766843345E+03  0.23672360289E+03  0.77000000000E+02 0.  0.
   -5000001    1    1    2    0    0  0.42179252042E+02  0.30829011345E+02  0.19140196360E+03  0.21282205928E+03  0.77000000000E+02 0.  0.
<mgrwt>
<rscale>  0 0.18642079E+03</rscale>
<asrwt>0</asrwt>
<pdfrwt beam="1">  1        2 0.66047389E-01 0.18642079E+03</pdfrwt>
<pdfrwt beam="2">  1       -2 0.31134819E-02 0.18642079E+03</pdfrwt>
<totfact> 0.28434502E+04</totfact>
</mgrwt>
</event>
<event>
 4    1  0.6122885E-004  0.2526554E+03  0.7818608E-02  0.1111638E+00
         -2   -1    0    0    0  501 -0.00000000000E+00  0.00000000000E+00  0.42520740148E+02  0.42520740225E+02  0.25500000000E-02 0. -1.
          2   -1    0    0  501    0  0.00000000000E+00 -0.00000000000E+00 -0.37531551574E+03  0.37531551575E+03  0.25500000000E-02 0.  1.
    5000001    1    1    2    0    0  0.83040565994E+02 -0.12071618749E+02 -0.75993989406E+02  0.13691437472E+03  0.77000000000E+02 0.  0.
   -5000001    1    1    2    0    0 -0.83040565994E+02  0.12071618749E+02 -0.25680078618E+03  0.28092188125E+03  0.77000000000E+02 0.  0.
<mgrwt>
<rscale>  0 0.25265545E+03</rscale>
<asrwt>0</asrwt>
<pdfrwt beam="1">  1        2 0.57740846E-01 0.25265545E+03</pdfrwt>
<pdfrwt beam="2">  1       -2 0.65416526E-02 0.25265545E+03</pdfrwt>
<totfact> 0.10948611E+04</totfact>
</mgrwt>
</event>
<event>
 4    1  0.6122885E-004  0.2697955E+03  0.7818608E-02  0.1101397E+00
         -2   -1    0    0    0  501 -0.00000000000E+00  0.00000000000E+00  0.48916012641E+01  0.48916019287E+01  0.25500000000E-02 0. -1.
          2   -1    0    0  501    0  0.00000000000E+00 -0.00000000000E+00 -0.37201329189E+04  0.37201329189E+04  0.25500000000E-02 0.  1.
    5000001    1    1    2    0    0 -0.64094251835E+02 -0.32079678670E+02 -0.69167966838E+03  0.69963343442E+03  0.77000000000E+02 0.  0.
   -5000001    1    1    2    0    0  0.64094251835E+02  0.32079678670E+02 -0.30235616492E+04  0.30253910864E+04  0.77000000000E+02 0.  0.
<mgrwt>
<rscale>  0 0.26979554E+03</rscale>
<asrwt>0</asrwt>
<pdfrwt beam="1">  1        2 0.57232588E+00 0.26979554E+03</pdfrwt>
<pdfrwt beam="2">  1       -2 0.75255707E-03 0.26979554E+03</pdfrwt>
<totfact> 0.23129331E+03</totfact>
</mgrwt>
</event>
<event>
 4    1  0.6122885E-004  0.3601416E+03  0.7818608E-02  0.1058528E+00
         -2   -1    0    0    0  501 -0.00000000000E+00  0.00000000000E+00  0.22970387393E+02  0.22970387534E+02  0.25500000000E-02 0. -1.
          2   -1    0    0  501    0  0.00000000000E+00 -0.00000000000E+00 -0.14116218877E+04  0.14116218877E+04  0.25500000000E-02 0.  1.
    5000001    1    1    2    0    0  0.10735790281E+03 -0.11117036430E+03 -0.89790622194E+03  0.91435723467E+03  0.77000000000E+02 0.  0.
   -5000001    1    1    2    0    0 -0.10735790281E+03  0.11117036430E+03 -0.49074527837E+03  0.52023504057E+03  0.77000000000E+02 0.  0.
<mgrwt>
<rscale>  0 0.36014165E+03</rscale>
<asrwt>0</asrwt>
<pdfrwt beam="1">  1        2 0.21717253E+00 0.36014165E+03</pdfrwt>
<pdfrwt beam="2">  1       -2 0.35339069E-02 0.36014165E+03</pdfrwt>
<totfact> 0.50615458E+03</totfact>
</mgrwt>
</event>
<event>
 4    1  0.6122885E-004  0.2211265E+03  0.7818608E-02  0.1133046E+00
          2   -1    0    0  501    0  0.00000000000E+00  0.00000000000E+00  0.89114981872E+03  0.89114981872E+03  0.25500000000E-02 0.  1.
         -2   -1    0    0    0  501 -0.00000000000E+00 -0.00000000000E+00 -0.13717364773E+02  0.13717365010E+02  0.25500000000E-02 0. -1.
    5000001    1    1    2    0    0 -0.18591128513E+02  0.71870992499E+02  0.55330598917E+03  0.56354909926E+03  0.77000000000E+02 0.  0.
   -5000001    1    1    2    0    0  0.18591128513E+02 -0.71870992499E+02  0.32412646477E+03  0.34131808447E+03  0.77000000000E+02 0.  0.
<mgrwt>
<rscale>  0 0.22112645E+03</rscale>
<asrwt>0</asrwt>
<pdfrwt beam="1">  1        2 0.13709998E+00 0.22112645E+03</pdfrwt>
<pdfrwt beam="2">  1       -2 0.21103637E-02 0.22112645E+03</pdfrwt>
<totfact> 0.21630832E+04</totfact>
</mgrwt>
</event>
<event>
 4    1  0.6122885E-004  0.2674622E+03  0.7818608E-02  0.1102741E+00
          2   -1    0    0  501    0  0.00000000000E+00  0.00000000000E+00  0.11009772851E+04  0.11009772851E+04  0.25500000000E-02 0.  1.
         -2   -1    0    0    0  501 -0.00000000000E+00 -0.00000000000E+00 -0.16243759174E+02  0.16243759374E+02  0.25500000000E-02 0. -1.
    5000001    1    1    2    0    0 -0.61072610992E+02  0.86050082954E+02  0.66201980188E+03  0.67478418674E+03  0.77000000000E+02 0.  0.
   -5000001    1    1    2    0    0  0.61072610992E+02 -0.86050082954E+02  0.42271372407E+03  0.44243685776E+03  0.77000000000E+02 0.  0.
<mgrwt>
<rscale>  0 0.26746222E+03</rscale>
<asrwt>0</asrwt>
<pdfrwt beam="1">  1        2 0.16938117E+00 0.26746222E+03</pdfrwt>
<pdfrwt beam="2">  1       -2 0.24990391E-02 0.26746222E+03</pdfrwt>
<totfact> 0.12647439E+04</totfact>
</mgrwt>
</event>
<event>
 4    1  0.6122885E-004  0.2001315E+03  0.7818608E-02  0.1149628E+00
         -2   -1    0    0    0  501 -0.00000000000E+00  0.00000000000E+00  0.34636066360E+02  0.34636066454E+02  0.25500000000E-02 0. -1.
          2   -1    0    0  501    0  0.00000000000E+00 -0.00000000000E+00 -0.28909622849E+03  0.28909622850E+03  0.25500000000E-02 0.  1.
    5000001    1    1    2    0    0 -0.56910924143E+01  0.49784967295E+02 -0.19139031068E+03  0.21229739170E+03  0.77000000000E+02 0.  0.
   -5000001    1    1    2    0    0  0.56910924143E+01 -0.49784967295E+02 -0.63069851455E+02  0.11143490326E+03  0.77000000000E+02 0.  0.
<mgrwt>
<rscale>  0 0.20013152E+03</rscale>
<asrwt>0</asrwt>
<pdfrwt beam="1">  1        2 0.44476341E-01 0.20013152E+03</pdfrwt>
<pdfrwt beam="2">  1       -2 0.53286258E-02 0.20013152E+03</pdfrwt>
<totfact> 0.19547917E+04</totfact>
</mgrwt>
</event>
<event>
 4    1  0.6122885E-004  0.2010593E+03  0.7818608E-02  0.1148848E+00
          2   -1    0    0  501    0  0.00000000000E+00  0.00000000000E+00  0.79735100775E+03  0.79735100775E+03  0.25500000000E-02 0.  1.
         -2   -1    0    0    0  501 -0.00000000000E+00 -0.00000000000E+00 -0.12674733745E+02  0.12674734002E+02  0.25500000000E-02 0. -1.
    5000001    1    1    2    0    0 -0.33329292988E+02  0.14436730187E+02  0.17695980635E+03  0.19637472855E+03  0.77000000000E+02 0.  0.
   -5000001    1    1    2    0    0  0.33329292988E+02 -0.14436730187E+02  0.60771646765E+03  0.61365101321E+03  0.77000000000E+02 0.  0.
<mgrwt>
<rscale>  0 0.20105931E+03</rscale>
<asrwt>0</asrwt>
<pdfrwt beam="1">  1        2 0.12266937E+00 0.20105931E+03</pdfrwt>
<pdfrwt beam="2">  1       -2 0.19499593E-02 0.20105931E+03</pdfrwt>
<totfact> 0.27865925E+04</totfact>
</mgrwt>
</event>
<event>
 4    1  0.6122885E-004  0.1695837E+03  0.7818608E-02  0.1178283E+00
          2   -1    0    0  501    0  0.00000000000E+00  0.00000000000E+00  0.13959076281E+03  0.13959076283E+03  0.25500000000E-02 0.  1.
         -2   -1    0    0    0  501 -0.00000000000E+00 -0.00000000000E+00 -0.51505247907E+02  0.51505247970E+02  0.25500000000E-02 0. -1.
    5000001    1    1    2    0    0  0.29863598311E+02  0.18009942461E+02  0.51556795232E+02  0.99011593594E+02  0.77000000000E+02 0.  0.
   -5000001    1    1    2    0    0 -0.29863598311E+02 -0.18009942461E+02  0.36528719666E+02  0.92084417205E+02  0.77000000000E+02 0.  0.
<mgrwt>
<rscale>  0 0.16958369E+03</rscale>
<asrwt>0</asrwt>
<pdfrwt beam="1">  1        2 0.21475502E-01 0.16958369E+03</pdfrwt>
<pdfrwt beam="2">  1       -2 0.79238844E-02 0.16958369E+03</pdfrwt>
<totfact> 0.23235421E+04</totfact>
</mgrwt>
</event>
<event>
 4    1  0.6122885E-004  0.2587424E+03  0.7818608E-02  0.1107901E+00
         -2   -1    0    0    0  501 -0.00000000000E+00  0.00000000000E+00  0.22450342695E+02  0.22450342839E+02  0.25500000000E-02 0. -1.
          2   -1    0    0  501    0  0.00000000000E+00 -0.00000000000E+00 -0.74550804970E+03  0.74550804970E+03  0.25500000000E-02 0.  1.
    5000001    1    1    2    0    0 -0.46016563767E+02  0.68839157137E+02 -0.17495353371E+03  0.20831248799E+03  0.77000000000E+02 0.  0.
   -5000001    1    1    2    0    0  0.46016563767E+02 -0.68839157137E+02 -0.54810417330E+03  0.55964590455E+03  0.77000000000E+02 0.  0.
<mgrwt>
<rscale>  0 0.25874243E+03</rscale>
<asrwt>0</asrwt>
<pdfrwt beam="1">  1        2 0.11469353E+00 0.25874243E+03</pdfrwt>
<pdfrwt beam="2">  1       -2 0.34538995E-02 0.25874243E+03</pdfrwt>
<totfact> 0.13208666E+04</totfact>
</mgrwt>
</event>
<event>
 4    1  0.6122885E-004  0.3680675E+03  0.7818608E-02  0.1055434E+00
          2   -1    0    0  501    0  0.00000000000E+00  0.00000000000E+00  0.11432926799E+03  0.11432926802E+03  0.25500000000E-02 0.  1.
         -2   -1    0    0    0  501 -0.00000000000E+00 -0.00000000000E+00 -0.29623572287E+03  0.29623572288E+03  0.25500000000E-02 0. -1.
    5000001    1    1    2    0    0 -0.76532363274E+02 -0.14855132700E+03 -0.95232002935E+02  0.20717826567E+03  0.77000000000E+02 0.  0.
   -5000001    1    1    2    0    0  0.76532363274E+02  0.14855132700E+03 -0.86674451941E+02  0.20338672524E+03  0.77000000000E+02 0.  0.
<mgrwt>
<rscale>  0 0.36806746E+03</rscale>
<asrwt>0</asrwt>
<pdfrwt beam="1">  1        2 0.17589118E-01 0.36806746E+03</pdfrwt>
<pdfrwt beam="2">  1       -2 0.45574726E-01 0.36806746E+03</pdfrwt>
<totfact> 0.14993509E+03</totfact>
</mgrwt>
</event>
<event>
 4    1  0.6122885E-004  0.1936826E+03  0.7818608E-02  0.1155181E+00
         -2   -1    0    0    0  501 -0.00000000000E+00  0.00000000000E+00  0.74805682272E+01  0.74805686618E+01  0.25500000000E-02 0. -1.
          2   -1    0    0  501    0  0.00000000000E+00 -0.00000000000E+00 -0.12536791406E+04  0.12536791406E+04  0.25500000000E-02 0.  1.
    5000001    1    1    2    0    0  0.25973704005E+02  0.45692739169E+02 -0.79374137917E+03  0.79919762057E+03  0.77000000000E+02 0.  0.
   -5000001    1    1    2    0    0 -0.25973704005E+02 -0.45692739169E+02 -0.45245719317E+03  0.46196208867E+03  0.77000000000E+02 0.  0.
<mgrwt>
<rscale>  0 0.19368255E+03</rscale>
<asrwt>0</asrwt>
<pdfrwt beam="1">  1        2 0.19287355E+00 0.19368255E+03</pdfrwt>
<pdfrwt beam="2">  1       -2 0.11508577E-02 0.19368255E+03</pdfrwt>
<totfact> 0.31646915E+04</totfact>
</mgrwt>
</event>
<event>
 4    1  0.6122885E-004  0.2700820E+03  0.7818608E-02  0.1101233E+00
          2   -1    0    0  501    0  0.00000000000E+00  0.00000000000E+00  0.47539985628E+02  0.47539985697E+02  0.25500000000E-02 0.  1.
         -2   -1    0    0    0  501 -0.00000000000E+00 -0.00000000000E+00 -0.38359450905E+03  0.38359450906E+03  0.25500000000E-02 0. -1.
    5000001    1    1    2    0    0 -0.77668509557E+02  0.62378286649E+02 -0.24596296029E+03  0.27631544628E+03  0.77000000000E+02 0.  0.
   -5000001    1    1    2    0    0  0.77668509557E+02 -0.62378286649E+02 -0.90091563140E+02  0.15481904848E+03  0.77000000000E+02 0.  0.
<mgrwt>
<rscale>  0 0.27008204E+03</rscale>
<asrwt>0</asrwt>
<pdfrwt beam="1">  1        2 0.73138442E-02 0.27008204E+03</pdfrwt>
<pdfrwt beam="2">  1       -2 0.59014538E-01 0.27008204E+03</pdfrwt>
<totfact> 0.26023849E+03</totfact>
</mgrwt>
</event>
<event>
 4    1  0.6122885E-004  0.2196829E+03  0.7818608E-02  0.1134120E+00
         -2   -1    0    0    0  501 -0.00000000000E+00  0.00000000000E+00  0.19382630744E+03  0.19382630745E+03  0.25500000000E-02 0. -1.
          2   -1    0    0  501    0  0.00000000000E+00 -0.00000000000E+00 -0.62247197705E+02  0.62247197757E+02  0.25500000000E-02 0.  1.
    5000001    1    1    2    0    0  0.69045460757E+02  0.33611641504E+02  0.47764269747E+02  0.11877475978E+03  0.77000000000E+02 0.  0.
   -5000001    1    1    2    0    0 -0.69045460757E+02 -0.33611641504E+02  0.83814839984E+02  0.13729874543E+03  0.77000000000E+02 0.  0.
<mgrwt>
<rscale>  0 0.21968290E+03</rscale>
<asrwt>0</asrwt>
<pdfrwt beam="1">  1        2 0.95764919E-02 0.21968290E+03</pdfrwt>
<pdfrwt beam="2">  1       -2 0.29819432E-01 0.21968290E+03</pdfrwt>
<totfact> 0.68460689E+03</totfact>
</mgrwt>
</event>
<event>
 4    1  0.6122885E-004  0.4816054E+03  0.7818608E-02  0.1018695E+00
          2   -1    0    0  501    0  0.00000000000E+00  0.00000000000E+00  0.19745598821E+03  0.19745598823E+03  0.25500000000E-02 0.  1.
         -2   -1    0    0    0  501 -0.00000000000E+00 -0.00000000000E+00 -0.29366508402E+03  0.29366508403E+03  0.25500000000E-02 0. -1.
    5000001    1    1    2    0    0  0.47788158878E+02  0.21117718598E+03 -0.12148051696E+03  0.25993466104E+03  0.77000000000E+02 0.  0.
   -5000001    1    1    2    0    0 -0.47788158878E+02 -0.21117718598E+03  0.25271421147E+02  0.23118641122E+03  0.77000000000E+02 0.  0.
<mgrwt>
<rscale>  0 0.48160535E+03</rscale>
<asrwt>0</asrwt>
<pdfrwt beam="1">  1        2 0.30377844E-01 0.48160535E+03</pdfrwt>
<pdfrwt beam="2">  1       -2 0.45179244E-01 0.48160535E+03</pdfrwt>
<totfact> 0.81816632E+02</totfact>
</mgrwt>
</event>
<event>
 4    1  0.6122885E-004  0.2034188E+03  0.7818608E-02  0.1146886E+00
         -2   -1    0    0    0  501 -0.00000000000E+00  0.00000000000E+00  0.98906900934E+01  0.98906904222E+01  0.25500000000E-02 0. -1.
          2   -1    0    0  501    0  0.00000000000E+00 -0.00000000000E+00 -0.10459132123E+04  0.10459132123E+04  0.25500000000E-02 0.  1.
    5000001    1    1    2    0    0 -0.55421868009E+02  0.33805301564E+02 -0.59167357034E+03  0.60018413483E+03  0.77000000000E+02 0.  0.
   -5000001    1    1    2    0    0  0.55421868009E+02 -0.33805301564E+02 -0.44434895182E+03  0.45561976785E+03  0.77000000000E+02 0.  0.
<mgrwt>
<rscale>  0 0.20341882E+03</rscale>
<asrwt>0</asrwt>
<pdfrwt beam="1">  1        2 0.16090964E+00 0.20341882E+03</pdfrwt>
<pdfrwt beam="2">  1       -2 0.15216455E-02 0.20341882E+03</pdfrwt>
<totfact> 0.27842262E+04</totfact>
</mgrwt>
</event>
<event>
 4    1  0.6122885E-004  0.1869583E+03  0.7818608E-02  0.1161234E+00
          2   -1    0    0  501    0  0.00000000000E+00  0.00000000000E+00  0.28486936568E+02  0.28486936682E+02  0.25500000000E-02 0.  1.
         -2   -1    0    0    0  501 -0.00000000000E+00 -0.00000000000E+00 -0.30674936505E+03  0.30674936506E+03  0.25500000000E-02 0. -1.
    5000001    1    1    2    0    0  0.50516836873E+02 -0.11221794089E+02 -0.11857135737E+03  0.15055247012E+03  0.77000000000E+02 0.  0.
   -5000001    1    1    2    0    0 -0.50516836873E+02  0.11221794089E+02 -0.15969107111E+03  0.18468383162E+03  0.77000000000E+02 0.  0.
<mgrwt>
<rscale>  0 0.18695828E+03</rscale>
<asrwt>0</asrwt>
<pdfrwt beam="1">  1        2 0.43826059E-02 0.18695828E+03</pdfrwt>
<pdfrwt beam="2">  1       -2 0.47192208E-01 0.18695828E+03</pdfrwt>
<totfact> 0.78152466E+03</totfact>
</mgrwt>
</event>
<event>
 4    1  0.6122885E-004  0.1877966E+03  0.7818608E-02  0.1160464E+00
          2   -1    0    0  501    0  0.00000000000E+00  0.00000000000E+00  0.48006701437E+02  0.48006701505E+02  0.25500000000E-02 0.  1.
         -2   -1    0    0    0  501 -0.00000000000E+00 -0.00000000000E+00 -0.18365962166E+03  0.18365962167E+03  0.25500000000E-02 0. -1.
    5000001    1    1    2    0    0 -0.31466824484E+02  0.43548868641E+02 -0.69193272352E+02  0.11663350266E+03  0.77000000000E+02 0.  0.
   -5000001    1    1    2    0    0  0.31466824484E+02 -0.43548868641E+02 -0.66459647868E+02  0.11503282052E+03  0.77000000000E+02 0.  0.
<mgrwt>
<rscale>  0 0.18779662E+03</rscale>
<asrwt>0</asrwt>
<pdfrwt beam="1">  1        2 0.73856465E-02 0.18779662E+03</pdfrwt>
<pdfrwt beam="2">  1       -2 0.28255326E-01 0.18779662E+03</pdfrwt>
<totfact> 0.10356559E+04</totfact>
</mgrwt>
</event>
<event>
 4    1  0.6122885E-004  0.2047294E+03  0.7818608E-02  0.1145809E+00
          2   -1    0    0  501    0  0.00000000000E+00  0.00000000000E+00  0.84592040871E+03  0.84592040872E+03  0.25500000000E-02 0.  1.
         -2   -1    0    0    0  501 -0.00000000000E+00 -0.00000000000E+00 -0.12387142100E+02  0.12387142362E+02  0.25500000000E-02 0. -1.
    5000001    1    1    2    0    0 -0.48702498521E+02 -0.18812043197E+02  0.59580269853E+03  0.60302212389E+03  0.77000000000E+02 0.  0.
   -5000001    1    1    2    0    0  0.48702498521E+02  0.18812043197E+02  0.23773056809E+03  0.25528542719E+03  0.77000000000E+02 0.  0.
<mgrwt>
<rscale>  0 0.20472945E+03</rscale>
<asrwt>0</asrwt>
<pdfrwt beam="1">  1        2 0.13014160E+00 0.20472945E+03</pdfrwt>
<pdfrwt beam="2">  1       -2 0.19057142E-02 0.20472945E+03</pdfrwt>
<totfact> 0.26756971E+04</totfact>
</mgrwt>
</event>
<event>
 4    1  0.6122885E-004  0.2213990E+03  0.7818608E-02  0.1132844E+00
          2   -1    0    0  501    0  0.00000000000E+00  0.00000000000E+00  0.26549712254E+03  0.26549712255E+03  0.25500000000E-02 0.  1.
         -2   -1    0    0    0  501 -0.00000000000E+00 -0.00000000000E+00 -0.46156368651E+02  0.46156368721E+02  0.25500000000E-02 0. -1.
    5000001    1    1    2    0    0 -0.56442600356E+02 -0.46977663433E+02  0.15266070643E+03  0.18608320527E+03  0.77000000000E+02 0.  0.
   -5000001    1    1    2    0    0  0.56442600356E+02  0.46977663433E+02  0.66680047454E+02  0.12557028600E+03  0.77000000000E+02 0.  0.
<mgrwt>
<rscale>  0 0.22139903E+03</rscale>
<asrwt>0</asrwt>
<pdfrwt beam="1">  1        2 0.40845710E-01 0.22139903E+03</pdfrwt>
<pdfrwt beam="2">  1       -2 0.71009800E-02 0.22139903E+03</pdfrwt>
<totfact> 0.13892939E+04</totfact>
</mgrwt>
</event>
<event>
 4    1  0.6122885E-004  0.1876981E+03  0.7818608E-02  0.1160554E+00
          2   -1    0    0  501    0  0.00000000000E+00  0.00000000000E+00  0.29178596309E+03  0.29178596310E+03  0.25500000000E-02 0.  1.
         -2   -1    0    0    0  501 -0.00000000000E+00 -0.00000000000E+00 -0.30185298557E+02  0.30185298665E+02  0.25500000000E-02 0. -1.
    5000001    1    1    2    0    0  0.43071934816E+02  0.11980145746E+02  0.79916304703E+02  0.11964251426E+03  0.77000000000E+02 0.  0.
   -5000001    1    1    2    0    0 -0.43071934816E+02 -0.11980145746E+02  0.18168435983E+03  0.20232874751E+03  0.77000000000E+02 0.  0.
<mgrwt>
<rscale>  0 0.18769812E+03</rscale>
<asrwt>0</asrwt>
<pdfrwt beam="1">  1        2 0.44890145E-01 0.18769812E+03</pdfrwt>
<pdfrwt beam="2">  1       -2 0.46438924E-02 0.18769812E+03</pdfrwt>
<totfact> 0.23708619E+04</totfact>
</mgrwt>
</event>
<event>
 4    1  0.6122885E-004  0.2009540E+03  0.7818608E-02  0.1148937E+00
         -2   -1    0    0    0  501 -0.00000000000E+00  0.00000000000E+00  0.16204843592E+02  0.16204843793E+02  0.25500000000E-02 0. -1.
          2   -1    0    0  501    0  0.00000000000E+00 -0.00000000000E+00 -0.62300077639E+03  0.62300077640E+03  0.25500000000E-02 0.  1.
    5000001    1    1    2    0    0 -0.50959237082E+02  0.18485917806E+01 -0.42928787591E+03  0.43910971470E+03  0.77000000000E+02 0.  0.
   -5000001    1    1    2    0    0  0.50959237082E+02 -0.18485917806E+01 -0.17750805689E+03  0.20009590550E+03  0.77000000000E+02 0.  0.
<mgrwt>
<rscale>  0 0.20095403E+03</rscale>
<asrwt>0</asrwt>
<pdfrwt beam="1">  1        2 0.95846255E-01 0.20095403E+03</pdfrwt>
<pdfrwt beam="2">  1       -2 0.24930534E-02 0.20095403E+03</pdfrwt>
<totfact> 0.26178255E+04</totfact>
</mgrwt>
</event>
<event>
 4    1  0.6122885E-004  0.1606435E+03  0.7818608E-02  0.1187972E+00
         -2   -1    0    0    0  501 -0.00000000000E+00  0.00000000000E+00  0.32610010107E+01  0.32610020077E+01  0.25500000000E-02 0. -1.
          2   -1    0    0  501    0  0.00000000000E+00 -0.00000000000E+00 -0.19784053863E+04  0.19784053863E+04  0.25500000000E-02 0.  1.
    5000001    1    1    2    0    0 -0.49433348659E+01  0.19425893039E+02 -0.85200117750E+03  0.85570836641E+03  0.77000000000E+02 0.  0.
   -5000001    1    1    2    0    0  0.49433348659E+01 -0.19425893039E+02 -0.11231432078E+04  0.11259580219E+04  0.77000000000E+02 0.  0.
<mgrwt>
<rscale>  0 0.16064349E+03</rscale>
<asrwt>0</asrwt>
<pdfrwt beam="1">  1        2 0.30436910E+00 0.16064349E+03</pdfrwt>
<pdfrwt beam="2">  1       -2 0.50169412E-03 0.16064349E+03</pdfrwt>
<totfact> 0.42778848E+04</totfact>
</mgrwt>
</event>
<event>
 4    1  0.6122885E-004  0.1869270E+03  0.7818608E-02  0.1161262E+00
          2   -1    0    0  501    0  0.00000000000E+00  0.00000000000E+00  0.18035693100E+03  0.18035693102E+03  0.25500000000E-02 0.  1.
         -2   -1    0    0    0  501 -0.00000000000E+00 -0.00000000000E+00 -0.48434124139E+02  0.48434124206E+02  0.25500000000E-02 0. -1.
    5000001    1    1    2    0    0 -0.43214917668E+02  0.26533871035E+01  0.10332445467E+03  0.13593937069E+03  0.77000000000E+02 0.  0.
   -5000001    1    1    2    0    0  0.43214917668E+02 -0.26533871035E+01  0.28598352195E+02  0.92851684532E+02  0.77000000000E+02 0.  0.
<mgrwt>
<rscale>  0 0.18692704E+03</rscale>
<asrwt>0</asrwt>
<pdfrwt beam="1">  1        2 0.27747220E-01 0.18692704E+03</pdfrwt>
<pdfrwt beam="2">  1       -2 0.74514038E-02 0.18692704E+03</pdfrwt>
<totfact> 0.19377498E+04</totfact>
</mgrwt>
</event>
<event>
 4    1  0.6122885E-004  0.1834403E+03  0.7818608E-02  0.1164514E+00
          2   -1    0    0  501    0  0.00000000000E+00  0.00000000000E+00  0.86648167930E+03  0.86648167930E+03  0.25500000000E-02 0.  1.
         -2   -1    0    0    0  501 -0.00000000000E+00 -0.00000000000E+00 -0.97088997170E+01  0.97089000519E+01  0.25500000000E-02 0. -1.
    5000001    1    1    2    0    0  0.17264170971E+02  0.46404911289E+02  0.40131765820E+03  0.41162644494E+03  0.77000000000E+02 0.  0.
   -5000001    1    1    2    0    0 -0.17264170971E+02 -0.46404911289E+02  0.45545512138E+03  0.46456413441E+03  0.77000000000E+02 0.  0.
<mgrwt>
<rscale>  0 0.18344028E+03</rscale>
<asrwt>0</asrwt>
<pdfrwt beam="1">  1        2 0.13330495E+00 0.18344028E+03</pdfrwt>
<pdfrwt beam="2">  1       -2 0.14936761E-02 0.18344028E+03</pdfrwt>
<totfact> 0.36685356E+04</totfact>
</mgrwt>
</event>
<event>
 4    1  0.6122885E-004  0.1629776E+03  0.7818608E-02  0.1185375E+00
         -2   -1    0    0    0  501 -0.00000000000E+00  0.00000000000E+00  0.15785913490E+02  0.15785913696E+02  0.25500000000E-02 0. -1.
          2   -1    0    0  501    0  0.00000000000E+00 -0.00000000000E+00 -0.42065512996E+03  0.42065512997E+03  0.25500000000E-02 0.  1.
    5000001    1    1    2    0    0  0.26008669867E+02 -0.56558433078E+01 -0.19780709897E+03  0.21392776321E+03  0.77000000000E+02 0.  0.
   -5000001    1    1    2    0    0 -0.26008669867E+02  0.56558433078E+01 -0.20706211751E+03  0.22251328046E+03  0.77000000000E+02 0.  0.
<mgrwt>
<rscale>  0 0.16297761E+03</rscale>
<asrwt>0</asrwt>
<pdfrwt beam="1">  1        2 0.64716165E-01 0.16297761E+03</pdfrwt>
<pdfrwt beam="2">  1       -2 0.24286024E-02 0.16297761E+03</pdfrwt>
<totfact> 0.41401652E+04</totfact>
</mgrwt>
</event>
<event>
 4    1  0.6122885E-004  0.1806338E+03  0.7818608E-02  0.1167191E+00
         -2   -1    0    0    0  501 -0.00000000000E+00  0.00000000000E+00  0.37142146688E+03  0.37142146689E+03  0.25500000000E-02 0. -1.
          2   -1    0    0  501    0  0.00000000000E+00 -0.00000000000E+00 -0.21961947392E+02  0.21961947540E+02  0.25500000000E-02 0.  1.
    5000001    1    1    2    0    0  0.44523309592E+02 -0.11528699018E+01  0.14067774391E+03  0.16644182719E+03  0.77000000000E+02 0.  0.
   -5000001    1    1    2    0    0 -0.44523309592E+02  0.11528699018E+01  0.20878177557E+03  0.22694158724E+03  0.77000000000E+02 0.  0.
<mgrwt>
<rscale>  0 0.18063376E+03</rscale>
<asrwt>0</asrwt>
<pdfrwt beam="1">  1        2 0.33787613E-02 0.18063376E+03</pdfrwt>
<pdfrwt beam="2">  1       -2 0.57141762E-01 0.18063376E+03</pdfrwt>
<totfact> 0.75225435E+03</totfact>
</mgrwt>
</event>
<event>
 4    1  0.6122885E-004  0.1893481E+03  0.7818608E-02  0.1159051E+00
         -2   -1    0    0    0  501 -0.00000000000E+00  0.00000000000E+00  0.36596006777E+01  0.36596015662E+01  0.25500000000E-02 0.  1.
          2   -1    0    0  501    0  0.00000000000E+00 -0.00000000000E+00 -0.24492231769E+04  0.24492231769E+04  0.25500000000E-02 0. -1.
    5000001    1    1    2    0    0 -0.33320498367E+02  0.36108001544E+02 -0.15453780939E+04  0.15480750940E+04  0.77000000000E+02 0.  0.
   -5000001    1    1    2    0    0  0.33320498367E+02 -0.36108001544E+02 -0.90018548229E+03  0.90480768449E+03  0.77000000000E+02 0.  0.
<mgrwt>
<rscale>  0 0.18934814E+03</rscale>
<asrwt>0</asrwt>
<pdfrwt beam="1">  1        2 0.37680225E+00 0.18934814E+03</pdfrwt>
<pdfrwt beam="2">  1       -2 0.56301752E-03 0.18934814E+03</pdfrwt>
<totfact> 0.20714014E+04</totfact>
</mgrwt>
</event>
<event>
 4    1  0.6122885E-004  0.3374904E+03  0.7818608E-02  0.1067870E+00
         -2   -1    0    0    0  501 -0.00000000000E+00  0.00000000000E+00  0.31032174278E+02  0.31032174383E+02  0.25500000000E-02 0. -1.
          2   -1    0    0  501    0  0.00000000000E+00 -0.00000000000E+00 -0.91759419735E+03  0.91759419735E+03  0.25500000000E-02 0.  1.
    5000001    1    1    2    0    0  0.83854221571E+02 -0.12325730942E+03 -0.39283878240E+03  0.42717116448E+03  0.77000000000E+02 0.  0.
   -5000001    1    1    2    0    0 -0.83854221571E+02  0.12325730942E+03 -0.49372324067E+03  0.52145520726E+03  0.77000000000E+02 0.  0.
<mgrwt>
<rscale>  0 0.33749040E+03</rscale>
<asrwt>0</asrwt>
<pdfrwt beam="1">  1        2 0.14116832E+00 0.33749040E+03</pdfrwt>
<pdfrwt beam="2">  1       -2 0.47741814E-02 0.33749040E+03</pdfrwt>
<totfact> 0.62405904E+03</totfact>
</mgrwt>
</event>
<event>
 4    1  0.6122885E-004  0.2990065E+03  0.7818608E-02  0.1085738E+00
          2   -1    0    0  501    0  0.00000000000E+00  0.00000000000E+00  0.34204103622E+03  0.34204103623E+03  0.25500000000E-02 0.  1.
         -2   -1    0    0    0  501 -0.00000000000E+00 -0.00000000000E+00 -0.65346594746E+02  0.65346594796E+02  0.25500000000E-02 0. -1.
    5000001    1    1    2    0    0  0.10150098627E+03 -0.17074779846E+02  0.34332412003E+02  0.13304778403E+03  0.77000000000E+02 0.  0.
   -5000001    1    1    2    0    0 -0.10150098627E+03  0.17074779846E+02  0.24236202947E+03  0.27433984700E+03  0.77000000000E+02 0.  0.
<mgrwt>
<rscale>  0 0.29900647E+03</rscale>
<asrwt>0</asrwt>
<pdfrwt beam="1">  1        2 0.52621699E-01 0.29900647E+03</pdfrwt>
<pdfrwt beam="2">  1       -2 0.10053322E-01 0.29900647E+03</pdfrwt>
<totfact> 0.62185783E+03</totfact>
</mgrwt>
</event>
<event>
 4    1  0.6122885E-004  0.2760708E+03  0.7818608E-02  0.1097855E+00
         -2   -1    0    0    0  501 -0.00000000000E+00  0.00000000000E+00  0.10256287046E+03  0.10256287049E+03  0.25500000000E-02 0. -1.
          2   -1    0    0  501    0  0.00000000000E+00 -0.00000000000E+00 -0.18577655894E+03  0.18577655895E+03  0.25500000000E-02 0.  1.
    5000001    1    1    2    0    0  0.10563062420E+03  0.39439807480E+02 -0.62792505165E+02  0.15028381779E+03  0.77000000000E+02 0.  0.
   -5000001    1    1    2    0    0 -0.10563062420E+03 -0.39439807480E+02 -0.20421183309E+02  0.13805561166E+03  0.77000000000E+02 0.  0.
<mgrwt>
<rscale>  0 0.27607084E+03</rscale>
<asrwt>0</asrwt>
<pdfrwt beam="1">  1        2 0.28581009E-01 0.27607084E+03</pdfrwt>
<pdfrwt beam="2">  1       -2 0.15778903E-01 0.27607084E+03</pdfrwt>
<totfact> 0.57802054E+03</totfact>
</mgrwt>
</event>
<event>
 4    1  0.6122885E-004  0.2119332E+03  0.7818608E-02  0.1140044E+00
         -2   -1    0    0    0  501 -0.00000000000E+00  0.00000000000E+00  0.59024925750E+01  0.59024931258E+01  0.25500000000E-02 0. -1.
          2   -1    0    0  501    0  0.00000000000E+00 -0.00000000000E+00 -0.19024036863E+04  0.19024036863E+04  0.25500000000E-02 0.  1.
    5000001    1    1    2    0    0 -0.71421427671E+02  0.65836629384E+01 -0.83594617565E+03  0.84254339564E+03  0.77000000000E+02 0.  0.
   -5000001    1    1    2    0    0  0.71421427671E+02 -0.65836629384E+01 -0.10605550181E+04  0.10657627838E+04  0.77000000000E+02 0.  0.
<mgrwt>
<rscale>  0 0.21193324E+03</rscale>
<asrwt>0</asrwt>
<pdfrwt beam="1">  1        2 0.29267700E+00 0.21193324E+03</pdfrwt>
<pdfrwt beam="2">  1       -2 0.90807734E-03 0.21193324E+03</pdfrwt>
<totfact> 0.20311443E+04</totfact>
</mgrwt>
</event>
<event>
 4    1  0.6122885E-004  0.2371087E+03  0.7818608E-02  0.1121734E+00
         -2   -1    0    0    0  501 -0.00000000000E+00  0.00000000000E+00  0.57278993928E+02  0.57278993985E+02  0.25500000000E-02 0. -1.
          2   -1    0    0  501    0  0.00000000000E+00 -0.00000000000E+00 -0.24538018064E+03  0.24538018065E+03  0.25500000000E-02 0.  1.
    5000001    1    1    2    0    0 -0.94732272733E+01 -0.87143562657E+02 -0.67202851641E+02  0.13464384804E+03  0.77000000000E+02 0.  0.
   -5000001    1    1    2    0    0  0.94732272733E+01  0.87143562657E+02 -0.12089833507E+03  0.16801532659E+03  0.77000000000E+02 0.  0.
<mgrwt>
<rscale>  0 0.23710867E+03</rscale>
<asrwt>0</asrwt>
<pdfrwt beam="1">  1        2 0.37750797E-01 0.23710867E+03</pdfrwt>
<pdfrwt beam="2">  1       -2 0.88121530E-02 0.23710867E+03</pdfrwt>
<totfact> 0.10847609E+04</totfact>
</mgrwt>
</event>
<event>
 4    1  0.6122885E-004  0.2583683E+03  0.7818608E-02  0.1108128E+00
         -2   -1    0    0    0  501 -0.00000000000E+00  0.00000000000E+00  0.35519847097E+03  0.35519847098E+03  0.25500000000E-02 0. -1.
          2   -1    0    0  501    0  0.00000000000E+00 -0.00000000000E+00 -0.46983723830E+02  0.46983723899E+02  0.25500000000E-02 0.  1.
    5000001    1    1    2    0    0  0.10458616131E+02 -0.10092724164E+03  0.12058187616E+03  0.17539863059E+03  0.77000000000E+02 0.  0.
   -5000001    1    1    2    0    0 -0.10458616131E+02  0.10092724164E+03  0.18763287099E+03  0.22678356429E+03  0.77000000000E+02 0.  0.
<mgrwt>
<rscale>  0 0.25836832E+03</rscale>
<asrwt>0</asrwt>
<pdfrwt beam="1">  1        2 0.72282658E-02 0.25836832E+03</pdfrwt>
<pdfrwt beam="2">  1       -2 0.54645914E-01 0.25836832E+03</pdfrwt>
<totfact> 0.30878644E+03</totfact>
</mgrwt>
</event>
<event>
 4    1  0.6122885E-004  0.4213539E+03  0.7818608E-02  0.1036627E+00
          2   -1    0    0  501    0  0.00000000000E+00  0.00000000000E+00  0.88150791387E+03  0.88150791387E+03  0.25500000000E-02 0.  1.
         -2   -1    0    0    0  501 -0.00000000000E+00 -0.00000000000E+00 -0.50350962787E+02  0.50350962851E+02  0.25500000000E-02 0. -1.
    5000001    1    1    2    0    0  0.11434107755E+03  0.15564714199E+03  0.49076764326E+03  0.53299324057E+03  0.77000000000E+02 0.  0.
   -5000001    1    1    2    0    0 -0.11434107755E+03 -0.15564714199E+03  0.34038930782E+03  0.39886563615E+03  0.77000000000E+02 0.  0.
<mgrwt>
<rscale>  0 0.42135388E+03</rscale>
<asrwt>0</asrwt>
<pdfrwt beam="1">  1        2 0.13561659E+00 0.42135388E+03</pdfrwt>
<pdfrwt beam="2">  1       -2 0.77463025E-02 0.42135388E+03</pdfrwt>
<totfact> 0.31208411E+03</totfact>
</mgrwt>
</event>
<event>
 4    1  0.6122885E-004  0.5950621E+03  0.7818608E-02  0.9915704E-01
          2   -1    0    0  501    0  0.00000000000E+00  0.00000000000E+00  0.14169533007E+04  0.14169533007E+04  0.25500000000E-02 0.  1.
         -2   -1    0    0    0  501 -0.00000000000E+00 -0.00000000000E+00 -0.62475392657E+02  0.62475392709E+02  0.25500000000E-02 0. -1.
    5000001    1    1    2    0    0 -0.20601181093E+03  0.17813462773E+03  0.90541111259E+03  0.94861535652E+03  0.77000000000E+02 0.  0.
   -5000001    1    1    2    0    0  0.20601181093E+03 -0.17813462773E+03  0.44906679547E+03  0.53081333690E+03  0.77000000000E+02 0.  0.
<mgrwt>
<rscale>  0 0.59506206E+03</rscale>
<asrwt>0</asrwt>
<pdfrwt beam="1">  1        2 0.21799281E+00 0.59506206E+03</pdfrwt>
<pdfrwt beam="2">  1       -2 0.96115992E-02 0.59506206E+03</pdfrwt>
<totfact> 0.10532604E+03</totfact>
</mgrwt>
</event>
<event>
 4    1  0.6122885E-004  0.1863855E+03  0.7818608E-02  0.1161762E+00
          2   -1    0    0  501    0  0.00000000000E+00  0.00000000000E+00  0.16447877640E+04  0.16447877640E+04  0.25500000000E-02 0.  1.
         -2   -1    0    0    0  501 -0.00000000000E+00 -0.00000000000E+00 -0.52802484449E+01  0.52802490606E+01  0.25500000000E-02 0. -1.
    5000001    1    1    2    0    0  0.27960824941E+02  0.87004520546E+01  0.12054821766E+04  0.12082937489E+04  0.77000000000E+02 0.  0.
   -5000001    1    1    2    0    0 -0.27960824941E+02 -0.87004520546E+01  0.43402533899E+03  0.44177426417E+03  0.77000000000E+02 0.  0.
<mgrwt>
<rscale>  0 0.18638550E+03</rscale>
<asrwt>0</asrwt>
<pdfrwt beam="1">  1        2 0.25304402E+00 0.18638550E+03</pdfrwt>
<pdfrwt beam="2">  1       -2 0.81234676E-03 0.18638550E+03</pdfrwt>
<totfact> 0.32248732E+04</totfact>
</mgrwt>
</event>
<event>
 4    1  0.6122885E-004  0.1835803E+03  0.7818608E-02  0.1164382E+00
          2   -1    0    0  501    0  0.00000000000E+00  0.00000000000E+00  0.11398643982E+03  0.11398643985E+03  0.25500000000E-02 0.  1.
         -2   -1    0    0    0  501 -0.00000000000E+00 -0.00000000000E+00 -0.73916097615E+02  0.73916097659E+02  0.25500000000E-02 0. -1.
    5000001    1    1    2    0    0 -0.47358443798E+02 -0.15554760238E+02  0.23530248727E+02  0.94696596402E+02  0.77000000000E+02 0.  0.
   -5000001    1    1    2    0    0  0.47358443798E+02  0.15554760238E+02  0.16540093477E+02  0.93205941105E+02  0.77000000000E+02 0.  0.
<mgrwt>
<rscale>  0 0.18358031E+03</rscale>
<asrwt>0</asrwt>
<pdfrwt beam="1">  1        2 0.17536375E-01 0.18358031E+03</pdfrwt>
<pdfrwt beam="2">  1       -2 0.11371707E-01 0.18358031E+03</pdfrwt>
<totfact> 0.16702348E+04</totfact>
</mgrwt>
</event>
<event>
 4    1  0.6122885E-004  0.3055770E+03  0.7818608E-02  0.1082485E+00
         -2   -1    0    0    0  501 -0.00000000000E+00  0.00000000000E+00  0.14354577892E+02  0.14354578118E+02  0.25500000000E-02 0. -1.
          2   -1    0    0  501    0  0.00000000000E+00 -0.00000000000E+00 -0.16262637976E+04  0.16262637976E+04  0.25500000000E-02 0.  1.
    5000001    1    1    2    0    0 -0.93367861388E+02 -0.66343988647E+02 -0.11578645581E+04  0.11660610693E+04  0.77000000000E+02 0.  0.
   -5000001    1    1    2    0    0  0.93367861388E+02  0.66343988647E+02 -0.45404466166E+03  0.47455730650E+03  0.77000000000E+02 0.  0.
<mgrwt>
<rscale>  0 0.30557703E+03</rscale>
<asrwt>0</asrwt>
<pdfrwt beam="1">  1        2 0.25019428E+00 0.30557703E+03</pdfrwt>
<pdfrwt beam="2">  1       -2 0.22083979E-02 0.30557703E+03</pdfrwt>
<totfact> 0.78172646E+03</totfact>
</mgrwt>
</event>
<event>
 4    1  0.6122885E-004  0.3377909E+03  0.7818608E-02  0.1067741E+00
         -2   -1    0    0    0  501 -0.00000000000E+00  0.00000000000E+00  0.11472791101E+02  0.11472791384E+02  0.25500000000E-02 0. -1.
          2   -1    0    0  501    0  0.00000000000E+00 -0.00000000000E+00 -0.24863760030E+04  0.24863760030E+04  0.25500000000E-02 0.  1.
    5000001    1    1    2    0    0  0.17359612998E+02 -0.13300099751E+03 -0.73559159943E+03  0.75167454570E+03  0.77000000000E+02 0.  0.
   -5000001    1    1    2    0    0 -0.17359612998E+02  0.13300099751E+03 -0.17393116125E+04  0.17461742487E+04  0.77000000000E+02 0.  0.
<mgrwt>
<rscale>  0 0.33779090E+03</rscale>
<asrwt>0</asrwt>
<pdfrwt beam="1">  1        2 0.38251896E+00 0.33779090E+03</pdfrwt>
<pdfrwt beam="2">  1       -2 0.17650468E-02 0.33779090E+03</pdfrwt>
<totfact> 0.37792002E+03</totfact>
</mgrwt>
</event>
<event>
 4    1  0.6122885E-004  0.2263966E+03  0.7818608E-02  0.1129202E+00
         -2   -1    0    0    0  501 -0.00000000000E+00  0.00000000000E+00  0.10151184165E+03  0.10151184168E+03  0.25500000000E-02 0. -1.
          2   -1    0    0  501    0  0.00000000000E+00 -0.00000000000E+00 -0.12623009559E+03  0.12623009562E+03  0.25500000000E-02 0.  1.
    5000001    1    1    2    0    0  0.17230756196E+01  0.80936715700E+02 -0.30664202087E+02  0.11585773271E+03  0.77000000000E+02 0.  0.
   -5000001    1    1    2    0    0 -0.17230756196E+01 -0.80936715700E+02  0.59459481409E+01  0.11188420459E+03  0.77000000000E+02 0.  0.
<mgrwt>
<rscale>  0 0.22639655E+03</rscale>
<asrwt>0</asrwt>
<pdfrwt beam="1">  1        2 0.19420015E-01 0.22639655E+03</pdfrwt>
<pdfrwt beam="2">  1       -2 0.15617206E-01 0.22639655E+03</pdfrwt>
<totfact> 0.89948609E+03</totfact>
</mgrwt>
</event>
<event>
 4    1  0.6122885E-004  0.3355205E+03  0.7818608E-02  0.1068720E+00
         -2   -1    0    0    0  501 -0.00000000000E+00  0.00000000000E+00  0.34413722387E+02  0.34413722481E+02  0.25500000000E-02 0. -1.
          2   -1    0    0  501    0  0.00000000000E+00 -0.00000000000E+00 -0.81779864408E+03  0.81779864408E+03  0.25500000000E-02 0.  1.
    5000001    1    1    2    0    0  0.14981807150E+02  0.14179308400E+03 -0.50196239472E+03  0.52747035834E+03  0.77000000000E+02 0.  0.
   -5000001    1    1    2    0    0 -0.14981807150E+02 -0.14179308400E+03 -0.28142252697E+03  0.32474200822E+03  0.77000000000E+02 0.  0.
<mgrwt>
<rscale>  0 0.33552046E+03</rscale>
<asrwt>0</asrwt>
<pdfrwt beam="1">  1        2 0.12581516E+00 0.33552046E+03</pdfrwt>
<pdfrwt beam="2">  1       -2 0.52944195E-02 0.33552046E+03</pdfrwt>
<totfact> 0.62074400E+03</totfact>
</mgrwt>
</event>
<event>
 4    1  0.6122885E-004  0.2613072E+03  0.7818608E-02  0.1106360E+00
          2   -1    0    0  501    0  0.00000000000E+00  0.00000000000E+00  0.35582058058E+04  0.35582058058E+04  0.25500000000E-02 0.  1.
         -2   -1    0    0    0  501 -0.00000000000E+00 -0.00000000000E+00 -0.47974637920E+01  0.47974644697E+01  0.25500000000E-02 0. -1.
    5000001    1    1    2    0    0 -0.10762670906E+02  0.10281323783E+03  0.20675448437E+04  0.20715590934E+04  0.77000000000E+02 0.  0.
   -5000001    1    1    2    0    0  0.10762670906E+02 -0.10281323783E+03  0.14858634983E+04  0.14914441768E+04  0.77000000000E+02 0.  0.
<mgrwt>
<rscale>  0 0.26130721E+03</rscale>
<asrwt>0</asrwt>
<pdfrwt beam="1">  1        2 0.54741552E+00 0.26130721E+03</pdfrwt>
<pdfrwt beam="2">  1       -2 0.73807242E-03 0.26130721E+03</pdfrwt>
<totfact> 0.30770577E+03</totfact>
</mgrwt>
</event>
<event>
 4    1  0.6122885E-004  0.2072284E+03  0.7818608E-02  0.1143780E+00
          2   -1    0    0  501    0  0.00000000000E+00  0.00000000000E+00  0.43527072867E+03  0.43527072868E+03  0.25500000000E-02 0.  1.
         -2   -1    0    0    0  501 -0.00000000000E+00 -0.00000000000E+00 -0.24664875706E+02  0.24664875838E+02  0.25500000000E-02 0. -1.
    5000001    1    1    2    0    0  0.30867443820E+02 -0.51771026020E+02  0.28134536440E+03  0.29785441459E+03  0.77000000000E+02 0.  0.
   -5000001    1    1    2    0    0 -0.30867443820E+02  0.51771026020E+02  0.12926048857E+03  0.16208118993E+03  0.77000000000E+02 0.  0.
<mgrwt>
<rscale>  0 0.20722836E+03</rscale>
<asrwt>0</asrwt>
<pdfrwt beam="1">  1        2 0.66964729E-01 0.20722836E+03</pdfrwt>
<pdfrwt beam="2">  1       -2 0.37945962E-02 0.20722836E+03</pdfrwt>
<totfact> 0.21039840E+04</totfact>
</mgrwt>
</event>
<event>
 4    1  0.6122885E-004  0.2002613E+03  0.7818608E-02  0.1149519E+00
         -2   -1    0    0    0  501 -0.00000000000E+00  0.00000000000E+00  0.38936257239E+01  0.38936265589E+01  0.25500000000E-02 0. -1.
          2   -1    0    0  501    0  0.00000000000E+00 -0.00000000000E+00 -0.25750144025E+04  0.25750144025E+04  0.25500000000E-02 0.  1.
    5000001    1    1    2    0    0 -0.45946462589E+02  0.30105562676E+02 -0.17087107246E+04  0.17113266090E+04  0.77000000000E+02 0.  0.
   -5000001    1    1    2    0    0  0.45946462589E+02 -0.30105562676E+02 -0.86241005211E+03  0.86758141999E+03  0.77000000000E+02 0.  0.
<mgrwt>
<rscale>  0 0.20026126E+03</rscale>
<asrwt>0</asrwt>
<pdfrwt beam="1">  1        2 0.39615470E+00 0.20026126E+03</pdfrwt>
<pdfrwt beam="2">  1       -2 0.59902146E-03 0.20026126E+03</pdfrwt>
<totfact> 0.16225930E+04</totfact>
</mgrwt>
</event>
<event>
 4    1  0.6122885E-004  0.1885814E+03  0.7818608E-02  0.1159747E+00
         -2   -1    0    0    0  501 -0.00000000000E+00  0.00000000000E+00  0.81187062291E+01  0.81187066296E+01  0.25500000000E-02 0. -1.
          2   -1    0    0  501    0  0.00000000000E+00 -0.00000000000E+00 -0.10950923674E+04  0.10950923674E+04  0.25500000000E-02 0.  1.
    5000001    1    1    2    0    0 -0.42677777901E+02 -0.15299850364E+02 -0.36737639078E+03  0.37808714690E+03  0.77000000000E+02 0.  0.
   -5000001    1    1    2    0    0  0.42677777901E+02  0.15299850364E+02 -0.71959727040E+03  0.72512392714E+03  0.77000000000E+02 0.  0.
<mgrwt>
<rscale>  0 0.18858137E+03</rscale>
<asrwt>0</asrwt>
<pdfrwt beam="1">  1        2 0.16847563E+00 0.18858137E+03</pdfrwt>
<pdfrwt beam="2">  1       -2 0.12490326E-02 0.18858137E+03</pdfrwt>
<totfact> 0.34508385E+04</totfact>
</mgrwt>
</event>
<event>
 4    1  0.6122885E-004  0.2099455E+03  0.7818608E-02  0.1141609E+00
          2   -1    0    0  501    0  0.00000000000E+00  0.00000000000E+00  0.27479214407E+03  0.27479214408E+03  0.25500000000E-02 0.  1.
         -2   -1    0    0    0  501 -0.00000000000E+00 -0.00000000000E+00 -0.40100408464E+02  0.40100408545E+02  0.25500000000E-02 0. -1.
    5000001    1    1    2    0    0 -0.39708500986E+02 -0.56040011569E+02  0.14631445428E+03  0.17903677689E+03  0.77000000000E+02 0.  0.
   -5000001    1    1    2    0    0  0.39708500986E+02  0.56040011569E+02  0.88377281330E+02  0.13585577574E+03  0.77000000000E+02 0.  0.
<mgrwt>
<rscale>  0 0.20994549E+03</rscale>
<asrwt>0</asrwt>
<pdfrwt beam="1">  1        2 0.42275715E-01 0.20994549E+03</pdfrwt>
<pdfrwt beam="2">  1       -2 0.61692936E-02 0.20994549E+03</pdfrwt>
<totfact> 0.16565693E+04</totfact>
</mgrwt>
</event>
<event>
 4    1  0.6122885E-004  0.2770478E+03  0.7818608E-02  0.1097312E+00
          2   -1    0    0  501    0  0.00000000000E+00  0.00000000000E+00  0.21814179734E+04  0.21814179734E+04  0.25500000000E-02 0.  1.
         -2   -1    0    0    0  501 -0.00000000000E+00 -0.00000000000E+00 -0.87965113610E+01  0.87965117306E+01  0.25500000000E-02 0. -1.
    5000001    1    1    2    0    0 -0.97782816903E+02 -0.18609977795E+01  0.60576488246E+03  0.61842140601E+03  0.77000000000E+02 0.  0.
   -5000001    1    1    2    0    0  0.97782816903E+02  0.18609977795E+01  0.15668565796E+04  0.15717930791E+04  0.77000000000E+02 0.  0.
<mgrwt>
<rscale>  0 0.27704778E+03</rscale>
<asrwt>0</asrwt>
<pdfrwt beam="1">  1        2 0.33560323E+00 0.27704778E+03</pdfrwt>
<pdfrwt beam="2">  1       -2 0.13533076E-02 0.27704778E+03</pdfrwt>
<totfact> 0.81706418E+03</totfact>
</mgrwt>
</event>
<event>
 4    1  0.6122885E-004  0.2305566E+03  0.7818608E-02  0.1126249E+00
          2   -1    0    0  501    0  0.00000000000E+00  0.00000000000E+00  0.30991594430E+04  0.30991594430E+04  0.25500000000E-02 0.  1.
         -2   -1    0    0    0  501 -0.00000000000E+00 -0.00000000000E+00 -0.42879632837E+01  0.42879640419E+01  0.25500000000E-02 0. -1.
    5000001    1    1    2    0    0 -0.45507148620E+02  0.52307195284E+02  0.86728654841E+03  0.87345400583E+03  0.77000000000E+02 0.  0.
   -5000001    1    1    2    0    0  0.45507148620E+02 -0.52307195284E+02  0.22275849313E+04  0.22299934012E+04  0.77000000000E+02 0.  0.
<mgrwt>
<rscale>  0 0.23055657E+03</rscale>
<asrwt>0</asrwt>
<pdfrwt beam="1">  1        2 0.47679390E+00 0.23055657E+03</pdfrwt>
<pdfrwt beam="2">  1       -2 0.65968652E-03 0.23055657E+03</pdfrwt>
<totfact> 0.70902752E+03</totfact>
</mgrwt>
</event>
<event>
 4    1  0.6122885E-004  0.2448835E+03  0.7818608E-02  0.1116582E+00
         -2   -1    0    0    0  501 -0.00000000000E+00  0.00000000000E+00  0.13106128884E+03  0.13106128887E+03  0.25500000000E-02 0. -1.
          2   -1    0    0  501    0  0.00000000000E+00 -0.00000000000E+00 -0.11438906513E+03  0.11438906516E+03  0.25500000000E-02 0.  1.
    5000001    1    1    2    0    0  0.70376377722E+02 -0.58004620848E+02  0.35705141236E+02  0.12458421927E+03  0.77000000000E+02 0.  0.
   -5000001    1    1    2    0    0 -0.70376377722E+02  0.58004620848E+02 -0.19032917523E+02  0.12086613475E+03  0.77000000000E+02 0.  0.
<mgrwt>
<rscale>  0 0.24488347E+03</rscale>
<asrwt>0</asrwt>
<pdfrwt beam="1">  1        2 0.17598318E-01 0.24488347E+03</pdfrwt>
<pdfrwt beam="2">  1       -2 0.20163275E-01 0.24488347E+03</pdfrwt>
<totfact> 0.65839761E+03</totfact>
</mgrwt>
</event>
<event>
 4    1  0.6122885E-004  0.3711793E+03  0.7818608E-02  0.1054243E+00
          2   -1    0    0  501    0  0.00000000000E+00  0.00000000000E+00  0.78733620728E+03  0.78733620729E+03  0.25500000000E-02 0.  1.
         -2   -1    0    0    0  501 -0.00000000000E+00 -0.00000000000E+00 -0.43746909416E+02  0.43746909490E+02  0.25500000000E-02 0. -1.
    5000001    1    1    2    0    0 -0.11011588652E+03 -0.12561640679E+03  0.31651564355E+03  0.36608215298E+03  0.77000000000E+02 0.  0.
   -5000001    1    1    2    0    0  0.11011588652E+03  0.12561640679E+03  0.42707365432E+03  0.46500096380E+03  0.77000000000E+02 0.  0.
<mgrwt>
<rscale>  0 0.37117934E+03</rscale>
<asrwt>0</asrwt>
<pdfrwt beam="1">  1        2 0.12112863E+00 0.37117934E+03</pdfrwt>
<pdfrwt beam="2">  1       -2 0.67302948E-02 0.37117934E+03</pdfrwt>
<totfact> 0.45074140E+03</totfact>
</mgrwt>
</event>
<event>
 4    1  0.6122885E-004  0.2960827E+03  0.7818608E-02  0.1087215E+00
          2   -1    0    0  501    0  0.00000000000E+00  0.00000000000E+00  0.15414770637E+03  0.15414770640E+03  0.25500000000E-02 0.  1.
         -2   -1    0    0    0  501 -0.00000000000E+00 -0.00000000000E+00 -0.14217690054E+03  0.14217690056E+03  0.25500000000E-02 0. -1.
    5000001    1    1    2    0    0  0.12300362268E+03 -0.61868222079E+01  0.34628273787E+02  0.14931940700E+03  0.77000000000E+02 0.  0.
   -5000001    1    1    2    0    0 -0.12300362268E+03  0.61868222079E+01 -0.22657467955E+02  0.14700519996E+03  0.77000000000E+02 0.  0.
<mgrwt>
<rscale>  0 0.29608271E+03</rscale>
<asrwt>0</asrwt>
<pdfrwt beam="1">  1        2 0.23715032E-01 0.29608271E+03</pdfrwt>
<pdfrwt beam="2">  1       -2 0.21873369E-01 0.29608271E+03</pdfrwt>
<totfact> 0.40981359E+03</totfact>
</mgrwt>
</event>
<event>
 4    1  0.6122885E-004  0.2191662E+03  0.7818608E-02  0.1134506E+00
         -2   -1    0    0    0  501 -0.00000000000E+00  0.00000000000E+00  0.46367235225E+03  0.46367235226E+03  0.25500000000E-02 0. -1.
          2   -1    0    0  501    0  0.00000000000E+00 -0.00000000000E+00 -0.25898572326E+02  0.25898572451E+02  0.25500000000E-02 0.  1.
    5000001    1    1    2    0    0  0.72771907983E+02 -0.26568840279E+02  0.23858963116E+03  0.26240363177E+03  0.77000000000E+02 0.  0.
   -5000001    1    1    2    0    0 -0.72771907983E+02  0.26568840279E+02  0.19918414876E+03  0.22716729294E+03  0.77000000000E+02 0.  0.
<mgrwt>
<rscale>  0 0.21916617E+03</rscale>
<asrwt>0</asrwt>
<pdfrwt beam="1">  1        2 0.39843957E-02 0.21916617E+03</pdfrwt>
<pdfrwt beam="2">  1       -2 0.71334209E-01 0.21916617E+03</pdfrwt>
<totfact> 0.38397110E+03</totfact>
</mgrwt>
</event>
<event>
 4    1  0.6122885E-004  0.2168715E+03  0.7818608E-02  0.1136237E+00
         -2   -1    0    0    0  501 -0.00000000000E+00  0.00000000000E+00  0.10347595616E+04  0.10347595616E+04  0.25500000000E-02 0. -1.
          2   -1    0    0  501    0  0.00000000000E+00 -0.00000000000E+00 -0.11363330716E+02  0.11363331003E+02  0.25500000000E-02 0.  1.
    5000001    1    1    2    0    0  0.65607727924E+02 -0.11562705455E+02  0.69161917104E+03  0.69907377856E+03  0.77000000000E+02 0.  0.
   -5000001    1    1    2    0    0 -0.65607727924E+02  0.11562705455E+02  0.33177705983E+03  0.34704911404E+03  0.77000000000E+02 0.  0.
<mgrwt>
<rscale>  0 0.21687153E+03</rscale>
<asrwt>0</asrwt>
<pdfrwt beam="1">  1        2 0.17482051E-02 0.21687153E+03</pdfrwt>
<pdfrwt beam="2">  1       -2 0.15919375E+00 0.21687153E+03</pdfrwt>
<totfact> 0.17713761E+03</totfact>
</mgrwt>
</event>
<event>
 4    1  0.6122885E-004  0.2024306E+03  0.7818608E-02  0.1147704E+00
         -2   -1    0    0    0  501 -0.00000000000E+00  0.00000000000E+00  0.10761961614E+04  0.10761961614E+04  0.25500000000E-02 0. -1.
          2   -1    0    0  501    0  0.00000000000E+00 -0.00000000000E+00 -0.95192094277E+01  0.95192097693E+01  0.25500000000E-02 0.  1.
    5000001    1    1    2    0    0 -0.10631631181E+02  0.64221383740E+02  0.48593409255E+03  0.49628455548E+03  0.77000000000E+02 0.  0.
   -5000001    1    1    2    0    0  0.10631631181E+02 -0.64221383740E+02  0.58074285942E+03  0.58943081569E+03  0.77000000000E+02 0.  0.
<mgrwt>
<rscale>  0 0.20243060E+03</rscale>
<asrwt>0</asrwt>
<pdfrwt beam="1">  1        2 0.14644941E-02 0.20243060E+03</pdfrwt>
<pdfrwt beam="2">  1       -2 0.16556860E+00 0.20243060E+03</pdfrwt>
<totfact> 0.20326718E+03</totfact>
</mgrwt>
</event>
<event>
 4    1  0.6122885E-004  0.2086431E+03  0.7818608E-02  0.1142645E+00
          2   -1    0    0  501    0  0.00000000000E+00  0.00000000000E+00  0.14668737685E+04  0.14668737685E+04  0.25500000000E-02 0.  1.
         -2   -1    0    0    0  501 -0.00000000000E+00 -0.00000000000E+00 -0.74191694931E+01  0.74191699313E+01  0.25500000000E-02 0. -1.
    5000001    1    1    2    0    0  0.28254367357E+02 -0.60877491564E+02  0.87955647404E+03  0.88546765569E+03  0.77000000000E+02 0.  0.
   -5000001    1    1    2    0    0 -0.28254367357E+02  0.60877491564E+02  0.57989812499E+03  0.58882528277E+03  0.77000000000E+02 0.  0.
<mgrwt>
<rscale>  0 0.20864310E+03</rscale>
<asrwt>0</asrwt>
<pdfrwt beam="1">  1        2 0.22567274E+00 0.20864310E+03</pdfrwt>
<pdfrwt beam="2">  1       -2 0.11414115E-02 0.20864310E+03</pdfrwt>
<totfact> 0.24655264E+04</totfact>
</mgrwt>
</event>
<event>
 4    1  0.6122885E-004  0.2261585E+03  0.7818608E-02  0.1129373E+00
          2   -1    0    0  501    0  0.00000000000E+00  0.00000000000E+00  0.82676521337E+03  0.82676521338E+03  0.25500000000E-02 0.  1.
         -2   -1    0    0    0  501 -0.00000000000E+00 -0.00000000000E+00 -0.15466203707E+02  0.15466203917E+02  0.25500000000E-02 0. -1.
    5000001    1    1    2    0    0 -0.93258785522E+01  0.48004874152E+02  0.65453589274E+03  0.66086131286E+03  0.77000000000E+02 0.  0.
   -5000001    1    1    2    0    0  0.93258785522E+01 -0.48004874152E+02  0.15676311693E+03  0.18137010443E+03  0.77000000000E+02 0.  0.
<mgrwt>
<rscale>  0 0.22615852E+03</rscale>
<asrwt>0</asrwt>
<pdfrwt beam="1">  1        2 0.12719467E+00 0.22615852E+03</pdfrwt>
<pdfrwt beam="2">  1       -2 0.23794155E-02 0.22615852E+03</pdfrwt>
<totfact> 0.20019244E+04</totfact>
</mgrwt>
</event>
<event>
 4    1  0.6122885E-004  0.3010828E+03  0.7818608E-02  0.1084701E+00
          2   -1    0    0  501    0  0.00000000000E+00  0.00000000000E+00  0.11014219582E+04  0.11014219582E+04  0.25500000000E-02 0.  1.
         -2   -1    0    0    0  501 -0.00000000000E+00 -0.00000000000E+00 -0.20575873764E+02  0.20575873922E+02  0.25500000000E-02 0. -1.
    5000001    1    1    2    0    0 -0.37313465470E+02  0.12285957350E+03  0.59898428891E+03  0.61741229974E+03  0.77000000000E+02 0.  0.
   -5000001    1    1    2    0    0  0.37313465470E+02 -0.12285957350E+03  0.48186179548E+03  0.50458553234E+03  0.77000000000E+02 0.  0.
<mgrwt>
<rscale>  0 0.30108284E+03</rscale>
<asrwt>0</asrwt>
<pdfrwt beam="1">  1        2 0.16944949E+00 0.30108284E+03</pdfrwt>
<pdfrwt beam="2">  1       -2 0.31655198E-02 0.30108284E+03</pdfrwt>
<totfact> 0.89225771E+03</totfact>
</mgrwt>
</event>
<event>
 4    1  0.6122885E-004  0.1761918E+03  0.7818608E-02  0.1171540E+00
         -2   -1    0    0    0  501 -0.00000000000E+00  0.00000000000E+00  0.68818237528E+01  0.68818242253E+01  0.25500000000E-02 0. -1.
          2   -1    0    0  501    0  0.00000000000E+00 -0.00000000000E+00 -0.11277368177E+04  0.11277368177E+04  0.25500000000E-02 0.  1.
    5000001    1    1    2    0    0 -0.33294385742E+02  0.23641969544E+02 -0.64300303477E+03  0.64888316480E+03  0.77000000000E+02 0.  0.
   -5000001    1    1    2    0    0  0.33294385742E+02 -0.23641969544E+02 -0.47785195923E+03  0.48573547717E+03  0.77000000000E+02 0.  0.
<mgrwt>
<rscale>  0 0.17619179E+03</rscale>
<asrwt>0</asrwt>
<pdfrwt beam="1">  1        2 0.17349783E+00 0.17619179E+03</pdfrwt>
<pdfrwt beam="2">  1       -2 0.10587430E-02 0.17619179E+03</pdfrwt>
<totfact> 0.41732775E+04</totfact>
</mgrwt>
</event>
<event>
 4    1  0.6122885E-004  0.1883687E+03  0.7818608E-02  0.1159941E+00
          2   -1    0    0  501    0  0.00000000000E+00  0.00000000000E+00  0.48634912742E+04  0.48634912742E+04  0.25500000000E-02 0.  1.
         -2   -1    0    0    0  501 -0.00000000000E+00 -0.00000000000E+00 -0.18239331568E+01  0.18239349394E+01  0.25500000000E-02 0. -1.
    5000001    1    1    2    0    0 -0.49472648502E+02 -0.12296495645E+02  0.29091462325E+04  0.29106115420E+04  0.77000000000E+02 0.  0.
   -5000001    1    1    2    0    0  0.49472648502E+02  0.12296495645E+02  0.19525211085E+04  0.19547036671E+04  0.77000000000E+02 0.  0.
<mgrwt>
<rscale>  0 0.18836865E+03</rscale>
<asrwt>0</asrwt>
<pdfrwt beam="1">  1        2 0.74823528E+00 0.18836865E+03</pdfrwt>
<pdfrwt beam="2">  1       -2 0.28060304E-03 0.18836865E+03</pdfrwt>
<totfact> 0.99547403E+02</totfact>
</mgrwt>
</event>
<event>
 4    1  0.6122885E-004  0.4356820E+03  0.7818608E-02  0.1032080E+00
          2   -1    0    0  501    0  0.00000000000E+00  0.00000000000E+00  0.41456318311E+03  0.41456318312E+03  0.25500000000E-02 0.  1.
         -2   -1    0    0    0  501 -0.00000000000E+00 -0.00000000000E+00 -0.11446918012E+03  0.11446918015E+03  0.25500000000E-02 0. -1.
    5000001    1    1    2    0    0 -0.13035410650E+03  0.13108831127E+03  0.25414386109E+03  0.32356520295E+03  0.77000000000E+02 0.  0.
   -5000001    1    1    2    0    0  0.13035410650E+03 -0.13108831127E+03  0.45950141902E+02  0.20546716033E+03  0.77000000000E+02 0.  0.
<mgrwt>
<rscale>  0 0.43568203E+03</rscale>
<asrwt>0</asrwt>
<pdfrwt beam="1">  1        2 0.63778953E-01 0.43568203E+03</pdfrwt>
<pdfrwt beam="2">  1       -2 0.17610643E-01 0.43568203E+03</pdfrwt>
<totfact> 0.20189272E+03</totfact>
</mgrwt>
</event>
<event>
 4    1  0.6122885E-004  0.2708796E+03  0.7818608E-02  0.1100777E+00
         -2   -1    0    0    0  501 -0.00000000000E+00  0.00000000000E+00  0.22827194548E+03  0.22827194549E+03  0.25500000000E-02 0. -1.
          2   -1    0    0  501    0  0.00000000000E+00 -0.00000000000E+00 -0.80360017783E+02  0.80360017823E+02  0.25500000000E-02 0.  1.
    5000001    1    1    2    0    0  0.57008755370E+02 -0.92399167892E+02  0.45418606323E+02  0.14063944758E+03  0.77000000000E+02 0.  0.
   -5000001    1    1    2    0    0 -0.57008755370E+02  0.92399167892E+02  0.10249332137E+03  0.16799251573E+03  0.77000000000E+02 0.  0.
<mgrwt>
<rscale>  0 0.27087959E+03</rscale>
<asrwt>0</asrwt>
<pdfrwt beam="1">  1        2 0.12363080E-01 0.27087959E+03</pdfrwt>
<pdfrwt beam="2">  1       -2 0.35118760E-01 0.27087959E+03</pdfrwt>
<totfact> 0.37380069E+03</totfact>
</mgrwt>
</event>
<event>
 4    1  0.6122885E-004  0.2083562E+03  0.7818608E-02  0.1142874E+00
          2   -1    0    0  501    0  0.00000000000E+00  0.00000000000E+00  0.90154428577E+03  0.90154428578E+03  0.25500000000E-02 0.  1.
         -2   -1    0    0    0  501 -0.00000000000E+00 -0.00000000000E+00 -0.12038314451E+02  0.12038314721E+02  0.25500000000E-02 0. -1.
    5000001    1    1    2    0    0  0.78412758069E+01  0.27503162269E+02  0.16378321123E+03  0.18322622581E+03  0.77000000000E+02 0.  0.
   -5000001    1    1    2    0    0 -0.78412758069E+01 -0.27503162269E+02  0.72572276009E+03  0.73035637469E+03  0.77000000000E+02 0.  0.
<mgrwt>
<rscale>  0 0.20835617E+03</rscale>
<asrwt>0</asrwt>
<pdfrwt beam="1">  1        2 0.13869912E+00 0.20835617E+03</pdfrwt>
<pdfrwt beam="2">  1       -2 0.18520485E-02 0.20835617E+03</pdfrwt>
<totfact> 0.25695150E+04</totfact>
</mgrwt>
</event>
<event>
 4    1  0.6122885E-004  0.3929930E+03  0.7818608E-02  0.1046233E+00
          2   -1    0    0  501    0  0.00000000000E+00  0.00000000000E+00  0.76313911700E+03  0.76313911701E+03  0.25500000000E-02 0.  1.
         -2   -1    0    0    0  501 -0.00000000000E+00 -0.00000000000E+00 -0.50594791922E+02  0.50594791987E+02  0.25500000000E-02 0. -1.
    5000001    1    1    2    0    0  0.33686688807E+02 -0.15460664334E+03  0.53730357914E+03  0.56538672015E+03  0.77000000000E+02 0.  0.
   -5000001    1    1    2    0    0 -0.33686688807E+02  0.15460664334E+03  0.17524074594E+03  0.24834718884E+03  0.77000000000E+02 0.  0.
<mgrwt>
<rscale>  0 0.39299295E+03</rscale>
<asrwt>0</asrwt>
<pdfrwt beam="1">  1        2 0.11740601E+00 0.39299295E+03</pdfrwt>
<pdfrwt beam="2">  1       -2 0.77838144E-02 0.39299295E+03</pdfrwt>
<totfact> 0.37379982E+03</totfact>
</mgrwt>
</event>
<event>
 4    1  0.6122885E-004  0.3080115E+03  0.7818608E-02  0.1081303E+00
          2   -1    0    0  501    0  0.00000000000E+00  0.00000000000E+00  0.12294233711E+04  0.12294233711E+04  0.25500000000E-02 0.  1.
         -2   -1    0    0    0  501 -0.00000000000E+00 -0.00000000000E+00 -0.19291778442E+02  0.19291778611E+02  0.25500000000E-02 0. -1.
    5000001    1    1    2    0    0  0.61071496017E+02  0.98196700748E+02  0.87448768086E+03  0.88545469881E+03  0.77000000000E+02 0.  0.
   -5000001    1    1    2    0    0 -0.61071496017E+02 -0.98196700748E+02  0.33564391176E+03  0.36326045087E+03  0.77000000000E+02 0.  0.
<mgrwt>
<rscale>  0 0.30801145E+03</rscale>
<asrwt>0</asrwt>
<pdfrwt beam="1">  1        2 0.18914201E+00 0.30801145E+03</pdfrwt>
<pdfrwt beam="2">  1       -2 0.29679667E-02 0.30801145E+03</pdfrwt>
<totfact> 0.82913222E+03</totfact>
</mgrwt>
</event>
<event>
 4    1  0.6122885E-004  0.2731051E+03  0.7818608E-02  0.1099516E+00
          2   -1    0    0  501    0  0.00000000000E+00  0.00000000000E+00  0.17070788803E+04  0.17070788803E+04  0.25500000000E-02 0.  1.
         -2   -1    0    0    0  501 -0.00000000000E+00 -0.00000000000E+00 -0.10923104590E+02  0.10923104887E+02  0.25500000000E-02 0. -1.
    5000001    1    1    2    0    0  0.78238854266E+02  0.78294672873E+02  0.71224883616E+03  0.72489915072E+03  0.77000000000E+02 0.  0.
   -5000001    1    1    2    0    0 -0.78238854266E+02 -0.78294672873E+02  0.98390693958E+03  0.99310283449E+03  0.77000000000E+02 0.  0.
<mgrwt>
<rscale>  0 0.27310512E+03</rscale>
<asrwt>0</asrwt>
<pdfrwt beam="1">  1        2 0.26262758E+00 0.27310512E+03</pdfrwt>
<pdfrwt beam="2">  1       -2 0.16804773E-02 0.27310512E+03</pdfrwt>
<totfact> 0.10576883E+04</totfact>
</mgrwt>
</event>
<event>
 4    1  0.6122885E-004  0.2750968E+03  0.7818608E-02  0.1098397E+00
          2   -1    0    0  501    0  0.00000000000E+00  0.00000000000E+00  0.81933049375E+03  0.81933049375E+03  0.25500000000E-02 0.  1.
         -2   -1    0    0    0  501 -0.00000000000E+00 -0.00000000000E+00 -0.23091498553E+02  0.23091498694E+02  0.25500000000E-02 0. -1.
    5000001    1    1    2    0    0  0.73074975899E+02  0.10547169475E+02  0.66401545082E+03  0.67253008394E+03  0.77000000000E+02 0.  0.
   -5000001    1    1    2    0    0 -0.73074975899E+02 -0.10547169475E+02  0.13222354438E+03  0.16989190850E+03  0.77000000000E+02 0.  0.
<mgrwt>
<rscale>  0 0.27509685E+03</rscale>
<asrwt>0</asrwt>
<pdfrwt beam="1">  1        2 0.12605084E+00 0.27509685E+03</pdfrwt>
<pdfrwt beam="2">  1       -2 0.35525383E-02 0.27509685E+03</pdfrwt>
<totfact> 0.11269210E+04</totfact>
</mgrwt>
</event>
<event>
 4    1  0.6122885E-004  0.2079310E+03  0.7818608E-02  0.1143215E+00
          2   -1    0    0  501    0  0.00000000000E+00  0.00000000000E+00  0.31556936348E+02  0.31556936451E+02  0.25500000000E-02 0.  1.
         -2   -1    0    0    0  501 -0.00000000000E+00 -0.00000000000E+00 -0.34251827574E+03  0.34251827575E+03  0.25500000000E-02 0. -1.
    5000001    1    1    2    0    0 -0.39746785212E+02  0.54210213483E+02 -0.12128606748E+03  0.15861230830E+03  0.77000000000E+02 0.  0.
   -5000001    1    1    2    0    0  0.39746785212E+02 -0.54210213483E+02 -0.18967527192E+03  0.21546290390E+03  0.77000000000E+02 0.  0.
<mgrwt>
<rscale>  0 0.20793102E+03</rscale>
<asrwt>0</asrwt>
<pdfrwt beam="1">  1        2 0.48549135E-02 0.20793102E+03</pdfrwt>
<pdfrwt beam="2">  1       -2 0.52695117E-01 0.20793102E+03</pdfrwt>
<totfact> 0.55216115E+03</totfact>
</mgrwt>
</event>
<event>
 4    1  0.6122885E-004  0.3028538E+03  0.7818608E-02  0.1083823E+00
         -2   -1    0    0    0  501 -0.00000000000E+00  0.00000000000E+00  0.37350891878E+03  0.37350891879E+03  0.25500000000E-02 0. -1.
          2   -1    0    0  501    0  0.00000000000E+00 -0.00000000000E+00 -0.61391058866E+02  0.61391058919E+02  0.25500000000E-02 0.  1.
    5000001    1    1    2    0    0  0.97665243802E+01 -0.87820619496E+02  0.18372495402E+02  0.11863555451E+03  0.77000000000E+02 0.  0.
   -5000001    1    1    2    0    0 -0.97665243802E+01  0.87820619496E+02  0.29374536452E+03  0.31626442320E+03  0.77000000000E+02 0.  0.
<mgrwt>
<rscale>  0 0.30285381E+03</rscale>
<asrwt>0</asrwt>
<pdfrwt beam="1">  1        2 0.94447782E-02 0.30285381E+03</pdfrwt>
<pdfrwt beam="2">  1       -2 0.57462911E-01 0.30285381E+03</pdfrwt>
<totfact> 0.19937887E+03</totfact>
</mgrwt>
</event>
<event>
 4    1  0.6122885E-004  0.4780907E+03  0.7818608E-02  0.1019661E+00
          2   -1    0    0  501    0  0.00000000000E+00  0.00000000000E+00  0.16572479808E+03  0.16572479810E+03  0.25500000000E-02 0.  1.
         -2   -1    0    0    0  501 -0.00000000000E+00 -0.00000000000E+00 -0.34480467324E+03  0.34480467325E+03  0.25500000000E-02 0. -1.
    5000001    1    1    2    0    0  0.17204959782E+03  0.12442321585E+03 -0.17315669162E+03  0.28459522239E+03  0.77000000000E+02 0.  0.
   -5000001    1    1    2    0    0 -0.17204959782E+03 -0.12442321585E+03 -0.59231835329E+01  0.22593424897E+03  0.77000000000E+02 0.  0.
<mgrwt>
<rscale>  0 0.47809072E+03</rscale>
<asrwt>0</asrwt>
<pdfrwt beam="1">  1        2 0.25496123E-01 0.47809072E+03</pdfrwt>
<pdfrwt beam="2">  1       -2 0.53046873E-01 0.47809072E+03</pdfrwt>
<totfact> 0.72161280E+02</totfact>
</mgrwt>
</event>
<event>
 4    1  0.6122885E-004  0.2548053E+03  0.7818608E-02  0.1110305E+00
          2   -1    0    0  501    0  0.00000000000E+00  0.00000000000E+00  0.26460918988E+04  0.26460918988E+04  0.25500000000E-02 0.  1.
         -2   -1    0    0    0  501 -0.00000000000E+00 -0.00000000000E+00 -0.61341175980E+01  0.61341181280E+01  0.25500000000E-02 0. -1.
    5000001    1    1    2    0    0 -0.91453962484E+02 -0.11258005160E+02  0.17630418979E+04  0.17671265669E+04  0.77000000000E+02 0.  0.
   -5000001    1    1    2    0    0  0.91453962484E+02  0.11258005160E+02  0.87691588332E+03  0.88509944998E+03  0.77000000000E+02 0.  0.
<mgrwt>
<rscale>  0 0.25480533E+03</rscale>
<asrwt>0</asrwt>
<pdfrwt beam="1">  1        2 0.40709161E+00 0.25480533E+03</pdfrwt>
<pdfrwt beam="2">  1       -2 0.94370917E-03 0.25480533E+03</pdfrwt>
<totfact> 0.77220603E+03</totfact>
</mgrwt>
</event>
<event>
 4    1  0.6122885E-004  0.6963345E+03  0.7818608E-02  0.9723521E-01
          2   -1    0    0  501    0  0.00000000000E+00  0.00000000000E+00  0.18808918073E+04  0.18808918073E+04  0.25500000000E-02 0. -1.
         -2   -1    0    0    0  501 -0.00000000000E+00 -0.00000000000E+00 -0.64448387953E+02  0.64448388004E+02  0.25500000000E-02 0.  1.
    5000001    1    1    2    0    0  0.14552925518E+03 -0.23534625461E+03  0.14579806983E+04  0.14860024699E+04  0.77000000000E+02 0.  0.
   -5000001    1    1    2    0    0 -0.14552925518E+03  0.23534625461E+03  0.35846272099E+03  0.45933772544E+03  0.77000000000E+02 0.  0.
<mgrwt>
<rscale>  0 0.69633453E+03</rscale>
<asrwt>0</asrwt>
<pdfrwt beam="1">  1        2 0.28936796E+00 0.69633453E+03</pdfrwt>
<pdfrwt beam="2">  1       -2 0.99151370E-02 0.69633453E+03</pdfrwt>
<totfact> 0.55466464E+02</totfact>
</mgrwt>
</event>
<event>
 4    1  0.6122885E-004  0.2956324E+03  0.7818608E-02  0.1087445E+00
          2   -1    0    0  501    0  0.00000000000E+00  0.00000000000E+00  0.89601828135E+03  0.89601828135E+03  0.25500000000E-02 0.  1.
         -2   -1    0    0    0  501 -0.00000000000E+00 -0.00000000000E+00 -0.24385243407E+02  0.24385243541E+02  0.25500000000E-02 0. -1.
    5000001    1    1    2    0    0 -0.77186479620E+02 -0.57668149100E+02  0.18217486584E+03  0.22000011318E+03  0.77000000000E+02 0.  0.
   -5000001    1    1    2    0    0  0.77186479620E+02  0.57668149100E+02  0.68945817211E+03  0.70040341171E+03  0.77000000000E+02 0.  0.
<mgrwt>
<rscale>  0 0.29563237E+03</rscale>
<asrwt>0</asrwt>
<pdfrwt beam="1">  1        2 0.13784897E+00 0.29563237E+03</pdfrwt>
<pdfrwt beam="2">  1       -2 0.37515757E-02 0.29563237E+03</pdfrwt>
<totfact> 0.92544478E+03</totfact>
</mgrwt>
</event>
<event>
 4    1  0.6122885E-004  0.1247168E+04  0.7818608E-02  0.9072543E-01
          2   -1    0    0  501    0  0.00000000000E+00  0.00000000000E+00  0.94591483468E+03  0.94591483469E+03  0.25500000000E-02 0.  1.
         -2   -1    0    0    0  501 -0.00000000000E+00 -0.00000000000E+00 -0.41109108277E+03  0.41109108278E+03  0.25500000000E-02 0. -1.
    5000001    1    1    2    0    0  0.13104773187E+03 -0.59219911067E+03  0.40091611145E+03  0.73111970506E+03  0.77000000000E+02 0.  0.
   -5000001    1    1    2    0    0 -0.13104773187E+03  0.59219911067E+03  0.13390764046E+03  0.62588621241E+03  0.77000000000E+02 0.  0.
<mgrwt>
<rscale>  0 0.12471682E+04</rscale>
<asrwt>0</asrwt>
<pdfrwt beam="1">  1        2 0.14552536E+00 0.12471682E+04</pdfrwt>
<pdfrwt beam="2">  1       -2 0.63244783E-01 0.12471682E+04</pdfrwt>
<totfact> 0.62233004E+01</totfact>
</mgrwt>
</event>
<event>
 4    1  0.6122885E-004  0.4840965E+03  0.7818608E-02  0.1018015E+00
          2   -1    0    0  501    0  0.00000000000E+00  0.00000000000E+00  0.15809717259E+04  0.15809717259E+04  0.25500000000E-02 0.  1.
         -2   -1    0    0    0  501 -0.00000000000E+00 -0.00000000000E+00 -0.37057811568E+02  0.37057811656E+02  0.25500000000E-02 0. -1.
    5000001    1    1    2    0    0  0.17971932028E+03  0.49516792496E+02  0.12192280684E+04  0.12357981347E+04  0.77000000000E+02 0.  0.
   -5000001    1    1    2    0    0 -0.17971932028E+03 -0.49516792496E+02  0.32468584593E+03  0.38223140291E+03  0.77000000000E+02 0.  0.
<mgrwt>
<rscale>  0 0.48409649E+03</rscale>
<asrwt>0</asrwt>
<pdfrwt beam="1">  1        2 0.24322644E+00 0.48409649E+03</pdfrwt>
<pdfrwt beam="2">  1       -2 0.57012014E-02 0.48409649E+03</pdfrwt>
<totfact> 0.19644252E+03</totfact>
</mgrwt>
</event>
<event>
 4    1  0.6122885E-004  0.1678218E+03  0.7818608E-02  0.1180139E+00
         -2   -1    0    0    0  501 -0.00000000000E+00  0.00000000000E+00  0.16476852520E+03  0.16476852522E+03  0.25500000000E-02 0. -1.
          2   -1    0    0  501    0  0.00000000000E+00 -0.00000000000E+00 -0.42732920547E+02  0.42732920623E+02  0.25500000000E-02 0.  1.
    5000001    1    1    2    0    0 -0.20200349299E+02  0.26254907377E+02  0.65752901069E+02  0.10653552587E+03  0.77000000000E+02 0.  0.
   -5000001    1    1    2    0    0  0.20200349299E+02 -0.26254907377E+02  0.56282703579E+02  0.10096591997E+03  0.77000000000E+02 0.  0.
<mgrwt>
<rscale>  0 0.16782181E+03</rscale>
<asrwt>0</asrwt>
<pdfrwt beam="1">  1        2 0.65742955E-02 0.16782181E+03</pdfrwt>
<pdfrwt beam="2">  1       -2 0.25349004E-01 0.16782181E+03</pdfrwt>
<totfact> 0.14436631E+04</totfact>
</mgrwt>
</event>
<event>
 4    1  0.6122885E-004  0.1636269E+03  0.7818608E-02  0.1184662E+00
          2   -1    0    0  501    0  0.00000000000E+00  0.00000000000E+00  0.17372838853E+04  0.17372838853E+04  0.25500000000E-02 0.  1.
         -2   -1    0    0    0  501 -0.00000000000E+00 -0.00000000000E+00 -0.38528199186E+01  0.38528207625E+01  0.25500000000E-02 0. -1.
    5000001    1    1    2    0    0 -0.17877346193E+02  0.19787360536E+02  0.94440393110E+03  0.94791293071E+03  0.77000000000E+02 0.  0.
   -5000001    1    1    2    0    0  0.17877346193E+02 -0.19787360536E+02  0.78902713433E+03  0.79322377539E+03  0.77000000000E+02 0.  0.
<mgrwt>
<rscale>  0 0.16362693E+03</rscale>
<asrwt>0</asrwt>
<pdfrwt beam="1">  1        2 0.26727381E+00 0.16362693E+03</pdfrwt>
<pdfrwt beam="2">  1       -2 0.59274300E-03 0.16362693E+03</pdfrwt>
<totfact> 0.44955747E+04</totfact>
</mgrwt>
</event>
<event>
 4    1  0.6122885E-004  0.1971923E+03  0.7818608E-02  0.1152130E+00
          2   -1    0    0  501    0  0.00000000000E+00  0.00000000000E+00  0.14403891406E+03  0.14403891408E+03  0.25500000000E-02 0.  1.
         -2   -1    0    0    0  501 -0.00000000000E+00 -0.00000000000E+00 -0.67490134508E+02  0.67490134557E+02  0.25500000000E-02 0. -1.
    5000001    1    1    2    0    0  0.30039208525E+02  0.35480958273E+02  0.81595612859E+02  0.12144174112E+03  0.77000000000E+02 0.  0.
   -5000001    1    1    2    0    0 -0.30039208525E+02 -0.35480958273E+02 -0.50468333109E+01  0.90087307515E+02  0.77000000000E+02 0.  0.
<mgrwt>
<rscale>  0 0.19719235E+03</rscale>
<asrwt>0</asrwt>
<pdfrwt beam="1">  1        2 0.22159833E-01 0.19719235E+03</pdfrwt>
<pdfrwt beam="2">  1       -2 0.10383098E-01 0.19719235E+03</pdfrwt>
<totfact> 0.14863332E+04</totfact>
</mgrwt>
</event>
<event>
 4    1  0.6122885E-004  0.1963601E+03  0.7818608E-02  0.1152847E+00
          2   -1    0    0  501    0  0.00000000000E+00  0.00000000000E+00  0.60310049673E+03  0.60310049673E+03  0.25500000000E-02 0.  1.
         -2   -1    0    0    0  501 -0.00000000000E+00 -0.00000000000E+00 -0.15982943697E+02  0.15982943901E+02  0.25500000000E-02 0. -1.
    5000001    1    1    2    0    0  0.60862952008E+02  0.23780820010E+01  0.29546913837E+03  0.31135344214E+03  0.77000000000E+02 0.  0.
   -5000001    1    1    2    0    0 -0.60862952008E+02 -0.23780820010E+01  0.29164841466E+03  0.30772999850E+03  0.77000000000E+02 0.  0.
<mgrwt>
<rscale>  0 0.19636009E+03</rscale>
<asrwt>0</asrwt>
<pdfrwt beam="1">  1        2 0.92784688E-01 0.19636009E+03</pdfrwt>
<pdfrwt beam="2">  1       -2 0.24589145E-02 0.19636009E+03</pdfrwt>
<totfact> 0.27691243E+04</totfact>
</mgrwt>
</event>
<event>
 4    1  0.6122885E-004  0.2640778E+03  0.7818608E-02  0.1104718E+00
         -2   -1    0    0    0  501 -0.00000000000E+00  0.00000000000E+00  0.26618592087E+03  0.26618592088E+03  0.25500000000E-02 0. -1.
          2   -1    0    0  501    0  0.00000000000E+00 -0.00000000000E+00 -0.65496611757E+02  0.65496611806E+02  0.25500000000E-02 0.  1.
    5000001    1    1    2    0    0 -0.94431574408E+02  0.38911520532E+02  0.59185930565E+02  0.14093758566E+03  0.77000000000E+02 0.  0.
   -5000001    1    1    2    0    0  0.94431574408E+02 -0.38911520532E+02  0.14150337854E+03  0.19074494702E+03  0.77000000000E+02 0.  0.
<mgrwt>
<rscale>  0 0.26407784E+03</rscale>
<asrwt>0</asrwt>
<pdfrwt beam="1">  1        2 0.10076402E-01 0.26407784E+03</pdfrwt>
<pdfrwt beam="2">  1       -2 0.40951680E-01 0.26407784E+03</pdfrwt>
<totfact> 0.35897280E+03</totfact>
</mgrwt>
</event>
<event>
 4    1  0.6122885E-004  0.2678563E+03  0.7818608E-02  0.1102513E+00
          2   -1    0    0  501    0  0.00000000000E+00  0.00000000000E+00  0.26063959900E+02  0.26063960025E+02  0.25500000000E-02 0. -1.
         -2   -1    0    0    0  501 -0.00000000000E+00 -0.00000000000E+00 -0.68818228843E+03  0.68818228844E+03  0.25500000000E-02 0.  1.
    5000001    1    1    2    0    0  0.52190826239E+02 -0.90695363574E+02 -0.41780225481E+03  0.43753543336E+03  0.77000000000E+02 0.  0.
   -5000001    1    1    2    0    0 -0.52190826239E+02  0.90695363574E+02 -0.24431607372E+03  0.27671081510E+03  0.77000000000E+02 0.  0.
<mgrwt>
<rscale>  0 0.26785635E+03</rscale>
<asrwt>0</asrwt>
<pdfrwt beam="1">  1        2 0.40098405E-02 0.26785635E+03</pdfrwt>
<pdfrwt beam="2">  1       -2 0.10587418E+00 0.26785635E+03</pdfrwt>
<totfact> 0.15812848E+03</totfact>
</mgrwt>
</event>
<event>
 4    1  0.6122885E-004  0.1870975E+03  0.7818608E-02  0.1161106E+00
         -2   -1    0    0    0  501 -0.00000000000E+00  0.00000000000E+00  0.78545373423E+01  0.78545377562E+01  0.25500000000E-02 0. -1.
          2   -1    0    0  501    0  0.00000000000E+00 -0.00000000000E+00 -0.11141804987E+04  0.11141804987E+04  0.25500000000E-02 0.  1.
    5000001    1    1    2    0    0 -0.19825450711E+02 -0.40318435966E+02 -0.72318228415E+03  0.72865646287E+03  0.77000000000E+02 0.  0.
   -5000001    1    1    2    0    0  0.19825450711E+02  0.40318435966E+02 -0.38314367722E+03  0.39337857360E+03  0.77000000000E+02 0.  0.
<mgrwt>
<rscale>  0 0.18709754E+03</rscale>
<asrwt>0</asrwt>
<pdfrwt beam="1">  1        2 0.17141226E+00 0.18709754E+03</pdfrwt>
<pdfrwt beam="2">  1       -2 0.12083913E-02 0.18709754E+03</pdfrwt>
<totfact> 0.35269310E+04</totfact>
</mgrwt>
</event>
<event>
 4    1  0.6122885E-004  0.2043208E+03  0.7818608E-02  0.1146144E+00
          2   -1    0    0  501    0  0.00000000000E+00  0.00000000000E+00  0.58605559385E+02  0.58605559441E+02  0.25500000000E-02 0.  1.
         -2   -1    0    0    0  501 -0.00000000000E+00 -0.00000000000E+00 -0.17808453602E+03  0.17808453604E+03  0.25500000000E-02 0. -1.
    5000001    1    1    2    0    0  0.35793546761E+02  0.56062059549E+02 -0.70332030297E+02  0.12369206521E+03  0.77000000000E+02 0.  0.
   -5000001    1    1    2    0    0 -0.35793546761E+02 -0.56062059549E+02 -0.49146946341E+02  0.11299803027E+03  0.77000000000E+02 0.  0.
<mgrwt>
<rscale>  0 0.20432077E+03</rscale>
<asrwt>0</asrwt>
<pdfrwt beam="1">  1        2 0.90162400E-02 0.20432077E+03</pdfrwt>
<pdfrwt beam="2">  1       -2 0.27397621E-01 0.20432077E+03</pdfrwt>
<totfact> 0.85564004E+03</totfact>
</mgrwt>
</event>
<event>
 4    1  0.6122885E-004  0.2668218E+03  0.7818608E-02  0.1103112E+00
         -2   -1    0    0    0  501 -0.00000000000E+00  0.00000000000E+00  0.86991791117E+02  0.86991791155E+02  0.25500000000E-02 0. -1.
          2   -1    0    0  501    0  0.00000000000E+00 -0.00000000000E+00 -0.20459933639E+03  0.20459933641E+03  0.25500000000E-02 0.  1.
    5000001    1    1    2    0    0 -0.89009538978E+02  0.53754650345E+02 -0.23270753640E+02  0.13146401956E+03  0.77000000000E+02 0.  0.
   -5000001    1    1    2    0    0  0.89009538978E+02 -0.53754650345E+02 -0.94336791635E+02  0.16012710801E+03  0.77000000000E+02 0.  0.
<mgrwt>
<rscale>  0 0.26682176E+03</rscale>
<asrwt>0</asrwt>
<pdfrwt beam="1">  1        2 0.31476821E-01 0.26682176E+03</pdfrwt>
<pdfrwt beam="2">  1       -2 0.13383352E-01 0.26682176E+03</pdfrwt>
<totfact> 0.68096726E+03</totfact>
</mgrwt>
</event>
<event>
 4    1  0.6122885E-004  0.2947120E+03  0.7818608E-02  0.1087914E+00
          2   -1    0    0  501    0  0.00000000000E+00  0.00000000000E+00  0.43645084164E+03  0.43645084165E+03  0.25500000000E-02 0.  1.
         -2   -1    0    0    0  501 -0.00000000000E+00 -0.00000000000E+00 -0.49750844712E+02  0.49750844777E+02  0.25500000000E-02 0. -1.
    5000001    1    1    2    0    0 -0.58455946491E+02  0.82338007827E+02  0.31667544774E+03  0.34118760883E+03  0.77000000000E+02 0.  0.
   -5000001    1    1    2    0    0  0.58455946491E+02 -0.82338007827E+02  0.70024549183E+02  0.14501407760E+03  0.77000000000E+02 0.  0.
<mgrwt>
<rscale>  0 0.29471205E+03</rscale>
<asrwt>0</asrwt>
<pdfrwt beam="1">  1        2 0.67146288E-01 0.29471205E+03</pdfrwt>
<pdfrwt beam="2">  1       -2 0.76539756E-02 0.29471205E+03</pdfrwt>
<totfact> 0.73271229E+03</totfact>
</mgrwt>
</event>
<event>
 4    1  0.6122885E-004  0.2260553E+03  0.7818608E-02  0.1129447E+00
         -2   -1    0    0    0  501 -0.00000000000E+00  0.00000000000E+00  0.14403530352E+02  0.14403530578E+02  0.25500000000E-02 0.  1.
          2   -1    0    0  501    0  0.00000000000E+00 -0.00000000000E+00 -0.88695228801E+03  0.88695228801E+03  0.25500000000E-02 0. -1.
    5000001    1    1    2    0    0 -0.61273884781E+02 -0.53650466322E+02 -0.37802901256E+03  0.39429404742E+03  0.77000000000E+02 0.  0.
   -5000001    1    1    2    0    0  0.61273884781E+02  0.53650466322E+02 -0.49451974510E+03  0.50706177117E+03  0.77000000000E+02 0.  0.
<mgrwt>
<rscale>  0 0.22605525E+03</rscale>
<asrwt>0</asrwt>
<pdfrwt beam="1">  1        2 0.13645416E+00 0.22605525E+03</pdfrwt>
<pdfrwt beam="2">  1       -2 0.22159285E-02 0.22605525E+03</pdfrwt>
<totfact> 0.20285876E+04</totfact>
</mgrwt>
</event>
<event>
 4    1  0.6122885E-004  0.3842993E+03  0.7818608E-02  0.1049356E+00
         -2   -1    0    0    0  501 -0.00000000000E+00  0.00000000000E+00  0.50122066853E+02  0.50122066918E+02  0.25500000000E-02 0. -1.
          2   -1    0    0  501    0  0.00000000000E+00 -0.00000000000E+00 -0.73663138028E+03  0.73663138029E+03  0.25500000000E-02 0.  1.
    5000001    1    1    2    0    0 -0.13607909415E+03  0.10335447491E+03 -0.42993834974E+03  0.46901562013E+03  0.77000000000E+02 0.  0.
   -5000001    1    1    2    0    0  0.13607909415E+03 -0.10335447491E+03 -0.25657096369E+03  0.31773782708E+03  0.77000000000E+02 0.  0.
<mgrwt>
<rscale>  0 0.38429930E+03</rscale>
<asrwt>0</asrwt>
<pdfrwt beam="1">  1        2 0.11332790E+00 0.38429930E+03</pdfrwt>
<pdfrwt beam="2">  1       -2 0.77110877E-02 0.38429930E+03</pdfrwt>
<totfact> 0.39653733E+03</totfact>
</mgrwt>
</event>
<event>
 4    1  0.6122885E-004  0.2808892E+03  0.7818608E-02  0.1095204E+00
         -2   -1    0    0    0  501 -0.00000000000E+00  0.00000000000E+00  0.86202279154E+01  0.86202282925E+01  0.25500000000E-02 0. -1.
          2   -1    0    0  501    0  0.00000000000E+00 -0.00000000000E+00 -0.22881857077E+04  0.22881857077E+04  0.25500000000E-02 0.  1.
    5000001    1    1    2    0    0 -0.48107903648E+02  0.68519141603E+02 -0.18133954709E+04  0.18169593768E+04  0.77000000000E+02 0.  0.
   -5000001    1    1    2    0    0  0.48107903648E+02 -0.68519141603E+02 -0.46617000884E+03  0.47984655912E+03  0.77000000000E+02 0.  0.
<mgrwt>
<rscale>  0 0.28088918E+03</rscale>
<asrwt>0</asrwt>
<pdfrwt beam="1">  1        2 0.35202809E+00 0.28088918E+03</pdfrwt>
<pdfrwt beam="2">  1       -2 0.13261908E-02 0.28088918E+03</pdfrwt>
<totfact> 0.73810932E+03</totfact>
</mgrwt>
</event>
<event>
 4    1  0.6122885E-004  0.2323451E+03  0.7818608E-02  0.1125000E+00
         -2   -1    0    0    0  501 -0.00000000000E+00  0.00000000000E+00  0.27100941470E+03  0.27100941471E+03  0.25500000000E-02 0. -1.
          2   -1    0    0  501    0  0.00000000000E+00 -0.00000000000E+00 -0.49799214207E+02  0.49799214272E+02  0.25500000000E-02 0.  1.
    5000001    1    1    2    0    0 -0.69914042384E+02  0.34417142382E+02  0.16398365407E+03  0.19721093229E+03  0.77000000000E+02 0.  0.
   -5000001    1    1    2    0    0  0.69914042384E+02 -0.34417142382E+02  0.57226546419E+02  0.12359769669E+03  0.77000000000E+02 0.  0.
<mgrwt>
<rscale>  0 0.23234505E+03</rscale>
<asrwt>0</asrwt>
<pdfrwt beam="1">  1        2 0.76614176E-02 0.23234505E+03</pdfrwt>
<pdfrwt beam="2">  1       -2 0.41693756E-01 0.23234505E+03</pdfrwt>
<totfact> 0.48693407E+03</totfact>
</mgrwt>
</event>
<event>
 4    1  0.6122885E-004  0.2217171E+03  0.7818608E-02  0.1132609E+00
          2   -1    0    0  501    0  0.00000000000E+00  0.00000000000E+00  0.48029599514E+03  0.48029599514E+03  0.25500000000E-02 0.  1.
         -2   -1    0    0    0  501 -0.00000000000E+00 -0.00000000000E+00 -0.25587600571E+02  0.25587600698E+02  0.25500000000E-02 0. -1.
    5000001    1    1    2    0    0  0.34235213183E+02  0.39332087657E+02  0.89666536308E+02  0.12918262528E+03  0.77000000000E+02 0.  0.
   -5000001    1    1    2    0    0 -0.34235213183E+02 -0.39332087657E+02  0.36504185826E+03  0.37670097056E+03  0.77000000000E+02 0.  0.
<mgrwt>
<rscale>  0 0.22171714E+03</rscale>
<asrwt>0</asrwt>
<pdfrwt beam="1">  1        2 0.73891695E-01 0.22171714E+03</pdfrwt>
<pdfrwt beam="2">  1       -2 0.39365537E-02 0.22171714E+03</pdfrwt>
<totfact> 0.17955704E+04</totfact>
</mgrwt>
</event>
<event>
 4    1  0.6122885E-004  0.1895558E+03  0.7818608E-02  0.1158863E+00
          2   -1    0    0  501    0  0.00000000000E+00  0.00000000000E+00  0.10700554464E+03  0.10700554467E+03  0.25500000000E-02 0.  1.
         -2   -1    0    0    0  501 -0.00000000000E+00 -0.00000000000E+00 -0.83947532976E+02  0.83947533015E+02  0.25500000000E-02 0. -1.
    5000001    1    1    2    0    0 -0.54147391163E+02  0.61463861670E+01  0.22889640757E+01  0.94360783111E+02  0.77000000000E+02 0.  0.
   -5000001    1    1    2    0    0  0.54147391163E+02 -0.61463861670E+01  0.20769047584E+02  0.96592294570E+02  0.77000000000E+02 0.  0.
<mgrwt>
<rscale>  0 0.18955581E+03</rscale>
<asrwt>0</asrwt>
<pdfrwt beam="1">  1        2 0.16462392E-01 0.18955581E+03</pdfrwt>
<pdfrwt beam="2">  1       -2 0.12915005E-01 0.18955581E+03</pdfrwt>
<totfact> 0.14686018E+04</totfact>
</mgrwt>
</event>
<event>
 4    1  0.6122885E-004  0.3076576E+03  0.7818608E-02  0.1081474E+00
          2   -1    0    0  501    0  0.00000000000E+00  0.00000000000E+00  0.50069832396E+02  0.50069832460E+02  0.25500000000E-02 0.  1.
         -2   -1    0    0    0  501 -0.00000000000E+00 -0.00000000000E+00 -0.47260584299E+03  0.47260584300E+03  0.25500000000E-02 0. -1.
    5000001    1    1    2    0    0 -0.73334103286E+02 -0.72206562419E+02 -0.67688199071E+02  0.14526655036E+03  0.77000000000E+02 0.  0.
   -5000001    1    1    2    0    0  0.73334103286E+02  0.72206562419E+02 -0.35484781153E+03  0.37740912510E+03  0.77000000000E+02 0.  0.
<mgrwt>
<rscale>  0 0.30765757E+03</rscale>
<asrwt>0</asrwt>
<pdfrwt beam="1">  1        2 0.77030514E-02 0.30765757E+03</pdfrwt>
<pdfrwt beam="2">  1       -2 0.72708588E-01 0.30765757E+03</pdfrwt>
<totfact> 0.15718906E+03</totfact>
</mgrwt>
</event>
<event>
 4    1  0.6122885E-004  0.3823977E+03  0.7818608E-02  0.1050051E+00
          2   -1    0    0  501    0  0.00000000000E+00  0.00000000000E+00  0.29556562895E+03  0.29556562896E+03  0.25500000000E-02 0.  1.
         -2   -1    0    0    0  501 -0.00000000000E+00 -0.00000000000E+00 -0.12368486992E+03  0.12368486994E+03  0.25500000000E-02 0. -1.
    5000001    1    1    2    0    0 -0.89009915697E+01  0.10279106903E+03  0.24092411653E+03  0.27316416575E+03  0.77000000000E+02 0.  0.
   -5000001    1    1    2    0    0  0.89009915697E+01 -0.10279106903E+03 -0.69043357490E+02  0.14608633316E+03  0.77000000000E+02 0.  0.
<mgrwt>
<rscale>  0 0.38239768E+03</rscale>
<asrwt>0</asrwt>
<pdfrwt beam="1">  1        2 0.45471635E-01 0.38239768E+03</pdfrwt>
<pdfrwt beam="2">  1       -2 0.19028442E-01 0.38239768E+03</pdfrwt>
<totfact> 0.25592492E+03</totfact>
</mgrwt>
</event>
<event>
 4    1  0.6122885E-004  0.2687027E+03  0.7818608E-02  0.1102024E+00
          2   -1    0    0  501    0  0.00000000000E+00  0.00000000000E+00  0.13257131172E+04  0.13257131172E+04  0.25500000000E-02 0. -1.
         -2   -1    0    0    0  501 -0.00000000000E+00 -0.00000000000E+00 -0.13615523929E+02  0.13615524168E+02  0.25500000000E-02 0.  1.
    5000001    1    1    2    0    0 -0.28048468463E+02  0.77150461505E+02  0.29036819847E+03  0.31141869080E+03  0.77000000000E+02 0.  0.
   -5000001    1    1    2    0    0  0.28048468463E+02 -0.77150461505E+02  0.10217293948E+04  0.10279099506E+04  0.77000000000E+02 0.  0.
<mgrwt>
<rscale>  0 0.26870265E+03</rscale>
<asrwt>0</asrwt>
<pdfrwt beam="1">  1        2 0.20395585E+00 0.26870265E+03</pdfrwt>
<pdfrwt beam="2">  1       -2 0.20946961E-02 0.26870265E+03</pdfrwt>
<totfact> 0.12241980E+04</totfact>
</mgrwt>
</event>
<event>
 4    1  0.6122885E-004  0.2509113E+03  0.7818608E-02  0.1112730E+00
          2   -1    0    0  501    0  0.00000000000E+00  0.00000000000E+00  0.33593532293E+03  0.33593532294E+03  0.25500000000E-02 0.  1.
         -2   -1    0    0    0  501 -0.00000000000E+00 -0.00000000000E+00 -0.46851645781E+02  0.46851645851E+02  0.25500000000E-02 0. -1.
    5000001    1    1    2    0    0  0.80807232038E+02  0.30499187184E+02  0.70584492971E+02  0.13554032543E+03  0.77000000000E+02 0.  0.
   -5000001    1    1    2    0    0 -0.80807232038E+02 -0.30499187184E+02  0.21849918418E+03  0.24724664336E+03  0.77000000000E+02 0.  0.
<mgrwt>
<rscale>  0 0.25091132E+03</rscale>
<asrwt>0</asrwt>
<pdfrwt beam="1">  1        2 0.51682355E-01 0.25091132E+03</pdfrwt>
<pdfrwt beam="2">  1       -2 0.72079458E-02 0.25091132E+03</pdfrwt>
<totfact> 0.10618312E+04</totfact>
</mgrwt>
</event>
<event>
 4    1  0.6122885E-004  0.4132329E+03  0.7818608E-02  0.1039292E+00
         -2   -1    0    0    0  501 -0.00000000000E+00  0.00000000000E+00  0.11578397682E+03  0.11578397684E+03  0.25500000000E-02 0. -1.
          2   -1    0    0  501    0  0.00000000000E+00 -0.00000000000E+00 -0.36870693490E+03  0.36870693491E+03  0.25500000000E-02 0.  1.
    5000001    1    1    2    0    0 -0.40414931768E+02 -0.17888172561E+03 -0.19204813932E+03  0.27648422430E+03  0.77000000000E+02 0.  0.
   -5000001    1    1    2    0    0  0.40414931768E+02  0.17888172561E+03 -0.60874818766E+02  0.20800668746E+03  0.77000000000E+02 0.  0.
<mgrwt>
<rscale>  0 0.41323289E+03</rscale>
<asrwt>0</asrwt>
<pdfrwt beam="1">  1        2 0.56724144E-01 0.41323289E+03</pdfrwt>
<pdfrwt beam="2">  1       -2 0.17812920E-01 0.41323289E+03</pdfrwt>
<totfact> 0.22523593E+03</totfact>
</mgrwt>
</event>
<event>
 4    1  0.6122885E-004  0.2646920E+03  0.7818608E-02  0.1104356E+00
         -2   -1    0    0    0  501 -0.00000000000E+00  0.00000000000E+00  0.67103703511E+02  0.67103703559E+02  0.25500000000E-02 0. -1.
          2   -1    0    0  501    0  0.00000000000E+00 -0.00000000000E+00 -0.26102091503E+03  0.26102091504E+03  0.25500000000E-02 0.  1.
    5000001    1    1    2    0    0 -0.52749370645E+02 -0.58575632627E+02 -0.60926795488E+01  0.11036177592E+03  0.77000000000E+02 0.  0.
   -5000001    1    1    2    0    0  0.52749370645E+02  0.58575632627E+02 -0.18782453197E+03  0.21776284268E+03  0.77000000000E+02 0.  0.
<mgrwt>
<rscale>  0 0.26469205E+03</rscale>
<asrwt>0</asrwt>
<pdfrwt beam="1">  1        2 0.40157063E-01 0.26469205E+03</pdfrwt>
<pdfrwt beam="2">  1       -2 0.10323647E-01 0.26469205E+03</pdfrwt>
<totfact> 0.79416486E+03</totfact>
</mgrwt>
</event>
<event>
 4    1  0.6122885E-004  0.1817977E+03  0.7818608E-02  0.1166075E+00
          2   -1    0    0  501    0  0.00000000000E+00  0.00000000000E+00  0.14979096865E+04  0.14979096865E+04  0.25500000000E-02 0.  1.
         -2   -1    0    0    0  501 -0.00000000000E+00 -0.00000000000E+00 -0.55160849019E+01  0.55160854913E+01  0.25500000000E-02 0. -1.
    5000001    1    1    2    0    0  0.35758803969E+02 -0.30040763149E+02  0.64408669653E+03  0.65035206785E+03  0.77000000000E+02 0.  0.
   -5000001    1    1    2    0    0 -0.35758803969E+02  0.30040763149E+02  0.84830690504E+03  0.85307370411E+03  0.77000000000E+02 0.  0.
<mgrwt>
<rscale>  0 0.18179766E+03</rscale>
<asrwt>0</asrwt>
<pdfrwt beam="1">  1        2 0.23044775E+00 0.18179766E+03</pdfrwt>
<pdfrwt beam="2">  1       -2 0.84862808E-03 0.18179766E+03</pdfrwt>
<totfact> 0.36101054E+04</totfact>
</mgrwt>
</event>
<event>
 4    1  0.6122885E-004  0.2098792E+03  0.7818608E-02  0.1141662E+00
          2   -1    0    0  501    0  0.00000000000E+00  0.00000000000E+00  0.30058353023E+03  0.30058353024E+03  0.25500000000E-02 0.  1.
         -2   -1    0    0    0  501 -0.00000000000E+00 -0.00000000000E+00 -0.36636473384E+02  0.36636473473E+02  0.25500000000E-02 0. -1.
    5000001    1    1    2    0    0 -0.24696680116E+02 -0.44370822724E+02  0.51562571072E+02  0.10567116283E+03  0.77000000000E+02 0.  0.
   -5000001    1    1    2    0    0  0.24696680116E+02  0.44370822724E+02  0.21238448577E+03  0.23154884088E+03  0.77000000000E+02 0.  0.
<mgrwt>
<rscale>  0 0.20987921E+03</rscale>
<asrwt>0</asrwt>
<pdfrwt beam="1">  1        2 0.46243620E-01 0.20987921E+03</pdfrwt>
<pdfrwt beam="2">  1       -2 0.56363805E-02 0.20987921E+03</pdfrwt>
<totfact> 0.17274009E+04</totfact>
</mgrwt>
</event>
<event>
 4    1  0.6122885E-004  0.3099967E+03  0.7818608E-02  0.1080347E+00
          2   -1    0    0  501    0  0.00000000000E+00  0.00000000000E+00  0.44520457171E+03  0.44520457172E+03  0.25500000000E-02 0.  1.
         -2   -1    0    0    0  501 -0.00000000000E+00 -0.00000000000E+00 -0.53962805874E+02  0.53962805934E+02  0.25500000000E-02 0. -1.
    5000001    1    1    2    0    0 -0.98658731407E+01 -0.77762089390E+02  0.19587487205E+02  0.11161069686E+03  0.77000000000E+02 0.  0.
   -5000001    1    1    2    0    0  0.98658731407E+01  0.77762089390E+02  0.37165427863E+03  0.38755668079E+03  0.77000000000E+02 0.  0.
<mgrwt>
<rscale>  0 0.30999670E+03</rscale>
<asrwt>0</asrwt>
<pdfrwt beam="1">  1        2 0.68493010E-01 0.30999670E+03</pdfrwt>
<pdfrwt beam="2">  1       -2 0.83019702E-02 0.30999670E+03</pdfrwt>
<totfact> 0.63217114E+03</totfact>
</mgrwt>
</event>
<event>
 4    1  0.6122885E-004  0.3133879E+03  0.7818608E-02  0.1078733E+00
          2   -1    0    0  501    0  0.00000000000E+00  0.00000000000E+00  0.87116092530E+03  0.87116092530E+03  0.25500000000E-02 0.  1.
         -2   -1    0    0    0  501 -0.00000000000E+00 -0.00000000000E+00 -0.28184230410E+02  0.28184230526E+02  0.25500000000E-02 0. -1.
    5000001    1    1    2    0    0  0.76876531499E+02  0.10738478580E+03  0.52017217280E+03  0.54217117470E+03  0.77000000000E+02 0.  0.
   -5000001    1    1    2    0    0 -0.76876531499E+02 -0.10738478580E+03  0.32280452209E+03  0.35717398113E+03  0.77000000000E+02 0.  0.
<mgrwt>
<rscale>  0 0.31338794E+03</rscale>
<asrwt>0</asrwt>
<pdfrwt beam="1">  1        2 0.13402474E+00 0.31338794E+03</pdfrwt>
<pdfrwt beam="2">  1       -2 0.43360361E-02 0.31338794E+03</pdfrwt>
<totfact> 0.77339374E+03</totfact>
</mgrwt>
</event>
<event>
 4    1  0.6122885E-004  0.3344012E+03  0.7818608E-02  0.1069206E+00
          2   -1    0    0  501    0  0.00000000000E+00  0.00000000000E+00  0.10523393568E+04  0.10523393569E+04  0.25500000000E-02 0.  1.
         -2   -1    0    0    0  501 -0.00000000000E+00 -0.00000000000E+00 -0.26565619370E+02  0.26565619492E+02  0.25500000000E-02 0. -1.
    5000001    1    1    2    0    0  0.13363460123E+03  0.63780646347E+02  0.48048314003E+03  0.50864449800E+03  0.77000000000E+02 0.  0.
   -5000001    1    1    2    0    0 -0.13363460123E+03 -0.63780646347E+02  0.54529059745E+03  0.57026047834E+03  0.77000000000E+02 0.  0.
<mgrwt>
<rscale>  0 0.33440124E+03</rscale>
<asrwt>0</asrwt>
<pdfrwt beam="1">  1        2 0.16189837E+00 0.33440124E+03</pdfrwt>
<pdfrwt beam="2">  1       -2 0.40870182E-02 0.33440124E+03</pdfrwt>
<totfact> 0.65125430E+03</totfact>
</mgrwt>
</event>
<event>
 4    1  0.6122885E-004  0.1772731E+03  0.7818608E-02  0.1170469E+00
         -2   -1    0    0    0  501 -0.00000000000E+00  0.00000000000E+00  0.15559441298E+03  0.15559441300E+03  0.25500000000E-02 0. -1.
          2   -1    0    0  501    0  0.00000000000E+00 -0.00000000000E+00 -0.50493073215E+02  0.50493073279E+02  0.25500000000E-02 0.  1.
    5000001    1    1    2    0    0 -0.17560531001E+02 -0.27043837232E+02  0.17913570155E+02  0.85379373252E+02  0.77000000000E+02 0.  0.
   -5000001    1    1    2    0    0  0.17560531001E+02  0.27043837232E+02  0.87187769613E+02  0.12070811303E+03  0.77000000000E+02 0.  0.
<mgrwt>
<rscale>  0 0.17727312E+03</rscale>
<asrwt>0</asrwt>
<pdfrwt beam="1">  1        2 0.77681652E-02 0.17727312E+03</pdfrwt>
<pdfrwt beam="2">  1       -2 0.23937602E-01 0.17727312E+03</pdfrwt>
<totfact> 0.12959156E+04</totfact>
</mgrwt>
</event>
<event>
 4    1  0.6122885E-004  0.2547446E+03  0.7818608E-02  0.1110343E+00
          2   -1    0    0  501    0  0.00000000000E+00  0.00000000000E+00  0.47598216431E+03  0.47598216432E+03  0.25500000000E-02 0.  1.
         -2   -1    0    0    0  501 -0.00000000000E+00 -0.00000000000E+00 -0.34084676325E+02  0.34084676420E+02  0.25500000000E-02 0. -1.
    5000001    1    1    2    0    0  0.58542803695E+02 -0.10444401830E+02  0.38555358085E+03  0.39763916948E+03  0.77000000000E+02 0.  0.
   -5000001    1    1    2    0    0 -0.58542803695E+02  0.10444401830E+02  0.56343907134E+02  0.11242767126E+03  0.77000000000E+02 0.  0.
<mgrwt>
<rscale>  0 0.25474456E+03</rscale>
<asrwt>0</asrwt>
<pdfrwt beam="1">  1        2 0.73228020E-01 0.25474456E+03</pdfrwt>
<pdfrwt beam="2">  1       -2 0.52437967E-02 0.25474456E+03</pdfrwt>
<totfact> 0.11852872E+04</totfact>
</mgrwt>
</event>
<event>
 4    1  0.6122885E-004  0.2057121E+03  0.7818608E-02  0.1145007E+00
          2   -1    0    0  501    0  0.00000000000E+00  0.00000000000E+00  0.10589838252E+04  0.10589838252E+04  0.25500000000E-02 0.  1.
         -2   -1    0    0    0  501 -0.00000000000E+00 -0.00000000000E+00 -0.99901158960E+01  0.99901162214E+01  0.25500000000E-02 0. -1.
    5000001    1    1    2    0    0  0.26973034612E+02  0.60949500298E+02  0.59943852075E+03  0.60802789931E+03  0.77000000000E+02 0.  0.
   -5000001    1    1    2    0    0 -0.26973034612E+02 -0.60949500298E+02  0.44955518853E+03  0.46094604209E+03  0.77000000000E+02 0.  0.
<mgrwt>
<rscale>  0 0.20571214E+03</rscale>
<asrwt>0</asrwt>
<pdfrwt beam="1">  1        2 0.16292058E+00 0.20571214E+03</pdfrwt>
<pdfrwt beam="2">  1       -2 0.15369410E-02 0.20571214E+03</pdfrwt>
<totfact> 0.26974000E+04</totfact>
</mgrwt>
</event>
<event>
 4    1  0.6122885E-004  0.2006318E+03  0.7818608E-02  0.1149207E+00
         -2   -1    0    0    0  501 -0.00000000000E+00  0.00000000000E+00  0.37555170575E+03  0.37555170576E+03  0.25500000000E-02 0. -1.
          2   -1    0    0  501    0  0.00000000000E+00 -0.00000000000E+00 -0.26795992067E+02  0.26795992188E+02  0.25500000000E-02 0.  1.
    5000001    1    1    2    0    0 -0.26682248658E+02 -0.49999348064E+02  0.23528415044E+03  0.25396753463E+03  0.77000000000E+02 0.  0.
   -5000001    1    1    2    0    0  0.26682248658E+02  0.49999348064E+02  0.11347156325E+03  0.14838016332E+03  0.77000000000E+02 0.  0.
<mgrwt>
<rscale>  0 0.20063181E+03</rscale>
<asrwt>0</asrwt>
<pdfrwt beam="1">  1        2 0.41224604E-02 0.20063181E+03</pdfrwt>
<pdfrwt beam="2">  1       -2 0.57777185E-01 0.20063181E+03</pdfrwt>
<totfact> 0.56772809E+03</totfact>
</mgrwt>
</event>
<event>
 4    1  0.6122885E-004  0.2163444E+03  0.7818608E-02  0.1136638E+00
         -2   -1    0    0    0  501 -0.00000000000E+00  0.00000000000E+00  0.11968321262E+02  0.11968321534E+02  0.25500000000E-02 0. -1.
          2   -1    0    0  501    0  0.00000000000E+00 -0.00000000000E+00 -0.97768309616E+03  0.97768309616E+03  0.25500000000E-02 0.  1.
    5000001    1    1    2    0    0  0.25806027953E+02 -0.68456453030E+02 -0.38911084233E+03  0.40334660611E+03  0.77000000000E+02 0.  0.
   -5000001    1    1    2    0    0 -0.25806027953E+02  0.68456453030E+02 -0.57660393256E+03  0.58630481158E+03  0.77000000000E+02 0.  0.
<mgrwt>
<rscale>  0 0.21634441E+03</rscale>
<asrwt>0</asrwt>
<pdfrwt beam="1">  1        2 0.15041272E+00 0.21634441E+03</pdfrwt>
<pdfrwt beam="2">  1       -2 0.18412810E-02 0.21634441E+03</pdfrwt>
<totfact> 0.23271779E+04</totfact>
</mgrwt>
</event>
<event>
 4    1  0.6122885E-004  0.1790138E+03  0.7818608E-02  0.1168761E+00
          2   -1    0    0  501    0  0.00000000000E+00  0.00000000000E+00  0.76360170001E+03  0.76360170001E+03  0.25500000000E-02 0.  1.
         -2   -1    0    0    0  501 -0.00000000000E+00 -0.00000000000E+00 -0.10491709901E+02  0.10491710211E+02  0.25500000000E-02 0. -1.
    5000001    1    1    2    0    0 -0.29425088174E+01 -0.34671403089E+02  0.24888287633E+03  0.26283540606E+03  0.77000000000E+02 0.  0.
   -5000001    1    1    2    0    0  0.29425088174E+01  0.34671403089E+02  0.50422711378E+03  0.51125800416E+03  0.77000000000E+02 0.  0.
<mgrwt>
<rscale>  0 0.17901383E+03</rscale>
<asrwt>0</asrwt>
<pdfrwt beam="1">  1        2 0.11747721E+00 0.17901383E+03</pdfrwt>
<pdfrwt beam="2">  1       -2 0.16141088E-02 0.17901383E+03</pdfrwt>
<totfact> 0.38390768E+04</totfact>
</mgrwt>
</event>
<event>
 4    1  0.6122885E-004  0.5360184E+03  0.7818608E-02  0.1004783E+00
         -2   -1    0    0    0  501 -0.00000000000E+00  0.00000000000E+00  0.51998123051E+02  0.51998123113E+02  0.25500000000E-02 0. -1.
          2   -1    0    0  501    0  0.00000000000E+00 -0.00000000000E+00 -0.13813755601E+04  0.13813755601E+04  0.25500000000E-02 0.  1.
    5000001    1    1    2    0    0  0.15793408139E+03  0.10708403497E+03 -0.11239030347E+04  0.11425835620E+04  0.77000000000E+02 0.  0.
   -5000001    1    1    2    0    0 -0.15793408139E+03 -0.10708403497E+03 -0.20547440234E+03  0.29079012127E+03  0.77000000000E+02 0.  0.
<mgrwt>
<rscale>  0 0.53601842E+03</rscale>
<asrwt>0</asrwt>
<pdfrwt beam="1">  1        2 0.21251929E+00 0.53601842E+03</pdfrwt>
<pdfrwt beam="2">  1       -2 0.79997123E-02 0.53601842E+03</pdfrwt>
<totfact> 0.14832735E+03</totfact>
</mgrwt>
</event>
<event>
 4    1  0.6122885E-004  0.4720737E+03  0.7818608E-02  0.1021337E+00
          2   -1    0    0  501    0  0.00000000000E+00  0.00000000000E+00  0.60387473120E+03  0.60387473120E+03  0.25500000000E-02 0.  1.
         -2   -1    0    0    0  501 -0.00000000000E+00 -0.00000000000E+00 -0.92259847898E+02  0.92259847933E+02  0.25500000000E-02 0. -1.
    5000001    1    1    2    0    0 -0.23546020744E+02  0.16471802473E+03  0.47501695111E+03  0.50917241344E+03  0.77000000000E+02 0.  0.
   -5000001    1    1    2    0    0  0.23546020744E+02 -0.16471802473E+03  0.36597932188E+02  0.18696216570E+03  0.77000000000E+02 0.  0.
<mgrwt>
<rscale>  0 0.47207368E+03</rscale>
<asrwt>0</asrwt>
<pdfrwt beam="1">  1        2 0.92903806E-01 0.47207368E+03</pdfrwt>
<pdfrwt beam="2">  1       -2 0.14193823E-01 0.47207368E+03</pdfrwt>
<totfact> 0.18884157E+03</totfact>
</mgrwt>
</event>
<event>
 4    1  0.6122885E-004  0.1863493E+03  0.7818608E-02  0.1161796E+00
         -2   -1    0    0    0  501 -0.00000000000E+00  0.00000000000E+00  0.53230512106E+01  0.53230518214E+01  0.25500000000E-02 0. -1.
          2   -1    0    0  501    0  0.00000000000E+00 -0.00000000000E+00 -0.16309287882E+04  0.16309287882E+04  0.25500000000E-02 0.  1.
    5000001    1    1    2    0    0  0.29466129270E+02 -0.42082442194E+02 -0.71932668272E+03  0.72525792735E+03  0.77000000000E+02 0.  0.
   -5000001    1    1    2    0    0 -0.29466129270E+02  0.42082442194E+02 -0.90627905424E+03  0.91099391264E+03  0.77000000000E+02 0.  0.
<mgrwt>
<rscale>  0 0.18634933E+03</rscale>
<asrwt>0</asrwt>
<pdfrwt beam="1">  1        2 0.25091172E+00 0.18634933E+03</pdfrwt>
<pdfrwt beam="2">  1       -2 0.81893230E-03 0.18634933E+03</pdfrwt>
<totfact> 0.32411106E+04</totfact>
</mgrwt>
</event>
<event>
 4    1  0.6122885E-004  0.3683518E+03  0.7818608E-02  0.1055325E+00
         -2   -1    0    0    0  501 -0.00000000000E+00  0.00000000000E+00  0.40126442487E+03  0.40126442488E+03  0.25500000000E-02 0. -1.
          2   -1    0    0  501    0  0.00000000000E+00 -0.00000000000E+00 -0.84534700580E+02  0.84534700619E+02  0.25500000000E-02 0.  1.
    5000001    1    1    2    0    0  0.11415410431E+03  0.87964504767E+02  0.46279648351E+02  0.16982261181E+03  0.77000000000E+02 0.  0.
   -5000001    1    1    2    0    0 -0.11415410431E+03 -0.87964504767E+02  0.27045007594E+03  0.31597651369E+03  0.77000000000E+02 0.  0.
<mgrwt>
<rscale>  0 0.36835183E+03</rscale>
<asrwt>0</asrwt>
<pdfrwt beam="1">  1        2 0.13005339E-01 0.36835183E+03</pdfrwt>
<pdfrwt beam="2">  1       -2 0.61732989E-01 0.36835183E+03</pdfrwt>
<totfact> 0.11608213E+03</totfact>
</mgrwt>
</event>
<event>
 4    1  0.6122885E-004  0.3058134E+03  0.7818608E-02  0.1082370E+00
         -2   -1    0    0    0  501 -0.00000000000E+00  0.00000000000E+00  0.37889293858E+02  0.37889293943E+02  0.25500000000E-02 0. -1.
          2   -1    0    0  501    0  0.00000000000E+00 -0.00000000000E+00 -0.61707310112E+03  0.61707310113E+03  0.25500000000E-02 0.  1.
    5000001    1    1    2    0    0 -0.10429932305E+03 -0.12318538785E+02 -0.46121416353E+03  0.47924690905E+03  0.77000000000E+02 0.  0.
   -5000001    1    1    2    0    0  0.10429932305E+03  0.12318538785E+02 -0.11796964373E+03  0.17571548602E+03  0.77000000000E+02 0.  0.
<mgrwt>
<rscale>  0 0.30581343E+03</rscale>
<asrwt>0</asrwt>
<pdfrwt beam="1">  1        2 0.94934316E-01 0.30581343E+03</pdfrwt>
<pdfrwt beam="2">  1       -2 0.58291226E-02 0.30581343E+03</pdfrwt>
<totfact> 0.75546139E+03</totfact>
</mgrwt>
</event>
<event>
 4    1  0.6122885E-004  0.2267465E+03  0.7818608E-02  0.1128951E+00
          2   -1    0    0  501    0  0.00000000000E+00  0.00000000000E+00  0.35151035718E+03  0.35151035719E+03  0.25500000000E-02 0.  1.
         -2   -1    0    0    0  501 -0.00000000000E+00 -0.00000000000E+00 -0.36566459472E+02  0.36566459561E+02  0.25500000000E-02 0. -1.
    5000001    1    1    2    0    0  0.75619075359E+02  0.34299613690E+02  0.16681197772E+03  0.20161831258E+03  0.77000000000E+02 0.  0.
   -5000001    1    1    2    0    0 -0.75619075359E+02 -0.34299613690E+02  0.14813191998E+03  0.18645850416E+03  0.77000000000E+02 0.  0.
<mgrwt>
<rscale>  0 0.22674646E+03</rscale>
<asrwt>0</asrwt>
<pdfrwt beam="1">  1        2 0.54078514E-01 0.22674646E+03</pdfrwt>
<pdfrwt beam="2">  1       -2 0.56256094E-02 0.22674646E+03</pdfrwt>
<totfact> 0.14721007E+04</totfact>
</mgrwt>
</event>
<event>
 4    1  0.6122885E-004  0.2179523E+03  0.7818608E-02  0.1135419E+00
          2   -1    0    0  501    0  0.00000000000E+00  0.00000000000E+00  0.55719319856E+03  0.55719319856E+03  0.25500000000E-02 0.  1.
         -2   -1    0    0    0  501 -0.00000000000E+00 -0.00000000000E+00 -0.21313611707E+02  0.21313611859E+02  0.25500000000E-02 0. -1.
    5000001    1    1    2    0    0 -0.69105264009E+02  0.25080450674E+01  0.35853490063E+03  0.37317301989E+03  0.77000000000E+02 0.  0.
   -5000001    1    1    2    0    0  0.69105264009E+02 -0.25080450674E+01  0.17734468622E+03  0.20533379053E+03  0.77000000000E+02 0.  0.
<mgrwt>
<rscale>  0 0.21795228E+03</rscale>
<asrwt>0</asrwt>
<pdfrwt beam="1">  1        2 0.85722035E-01 0.21795228E+03</pdfrwt>
<pdfrwt beam="2">  1       -2 0.32790170E-02 0.21795228E+03</pdfrwt>
<totfact> 0.19951123E+04</totfact>
</mgrwt>
</event>
<event>
 4    1  0.6122885E-004  0.2423904E+03  0.7818608E-02  0.1118211E+00
          2   -1    0    0  501    0  0.00000000000E+00  0.00000000000E+00  0.19692045006E+04  0.19692045006E+04  0.25500000000E-02 0.  1.
         -2   -1    0    0    0  501 -0.00000000000E+00 -0.00000000000E+00 -0.74589922348E+01  0.74589926707E+01  0.25500000000E-02 0. -1.
    5000001    1    1    2    0    0 -0.88259902604E+02 -0.23314198639E+02  0.11491715018E+04  0.11553603347E+04  0.77000000000E+02 0.  0.
   -5000001    1    1    2    0    0  0.88259902604E+02  0.23314198639E+02  0.81257400657E+03  0.82130315865E+03  0.77000000000E+02 0.  0.
<mgrwt>
<rscale>  0 0.24239044E+03</rscale>
<asrwt>0</asrwt>
<pdfrwt beam="1">  1        2 0.30295447E+00 0.24239044E+03</pdfrwt>
<pdfrwt beam="2">  1       -2 0.11475376E-02 0.24239044E+03</pdfrwt>
<totfact> 0.13414953E+04</totfact>
</mgrwt>
</event>
<event>
 4    1  0.6122885E-004  0.5280008E+03  0.7818608E-02  0.1006718E+00
          2   -1    0    0  501    0  0.00000000000E+00  0.00000000000E+00  0.15432891597E+04  0.15432891597E+04  0.25500000000E-02 0.  1.
         -2   -1    0    0    0  501 -0.00000000000E+00 -0.00000000000E+00 -0.45160831974E+02  0.45160832046E+02  0.25500000000E-02 0. -1.
    5000001    1    1    2    0    0  0.79107507478E+02  0.19957031993E+03  0.34903535947E+03  0.41694243307E+03  0.77000000000E+02 0.  0.
   -5000001    1    1    2    0    0 -0.79107507478E+02 -0.19957031993E+03  0.11490929682E+04  0.11715075586E+04  0.77000000000E+02 0.  0.
<mgrwt>
<rscale>  0 0.52800084E+03</rscale>
<asrwt>0</asrwt>
<pdfrwt beam="1">  1        2 0.23742905E+00 0.52800084E+03</pdfrwt>
<pdfrwt beam="2">  1       -2 0.69478219E-02 0.52800084E+03</pdfrwt>
<totfact> 0.15090334E+03</totfact>
</mgrwt>
</event>
<event>
 4    1  0.6122885E-004  0.2185453E+03  0.7818608E-02  0.1134972E+00
         -2   -1    0    0    0  501 -0.00000000000E+00  0.00000000000E+00  0.88257341390E+01  0.88257345074E+01  0.25500000000E-02 0. -1.
          2   -1    0    0  501    0  0.00000000000E+00 -0.00000000000E+00 -0.13529196846E+04  0.13529196846E+04  0.25500000000E-02 0.  1.
    5000001    1    1    2    0    0  0.61912894701E+02 -0.35420864796E+02 -0.48267667952E+03  0.49395710456E+03  0.77000000000E+02 0.  0.
   -5000001    1    1    2    0    0 -0.61912894701E+02  0.35420864796E+02 -0.86141727095E+03  0.86778831456E+03  0.77000000000E+02 0.  0.
<mgrwt>
<rscale>  0 0.21854528E+03</rscale>
<asrwt>0</asrwt>
<pdfrwt beam="1">  1        2 0.20814133E+00 0.21854528E+03</pdfrwt>
<pdfrwt beam="2">  1       -2 0.13578064E-02 0.21854528E+03</pdfrwt>
<totfact> 0.22124460E+04</totfact>
</mgrwt>
</event>
<event>
 4    1  0.6122885E-004  0.3260555E+03  0.7818608E-02  0.1072896E+00
          2   -1    0    0  501    0  0.00000000000E+00  0.00000000000E+00  0.47793371313E+03  0.47793371314E+03  0.25500000000E-02 0.  1.
         -2   -1    0    0    0  501 -0.00000000000E+00 -0.00000000000E+00 -0.55610318986E+02  0.55610319045E+02  0.25500000000E-02 0. -1.
    5000001    1    1    2    0    0 -0.12675500803E+03 -0.40260045499E+02  0.30020947693E+03  0.33725722137E+03  0.77000000000E+02 0.  0.
   -5000001    1    1    2    0    0  0.12675500803E+03  0.40260045499E+02  0.12211391721E+03  0.19628681082E+03  0.77000000000E+02 0.  0.
<mgrwt>
<rscale>  0 0.32605549E+03</rscale>
<asrwt>0</asrwt>
<pdfrwt beam="1">  1        2 0.73528264E-01 0.32605549E+03</pdfrwt>
<pdfrwt beam="2">  1       -2 0.85554336E-02 0.32605549E+03</pdfrwt>
<totfact> 0.55802379E+03</totfact>
</mgrwt>
</event>
<event>
 4    1  0.6122885E-004  0.4250290E+03  0.7818608E-02  0.1035442E+00
          2   -1    0    0  501    0  0.00000000000E+00  0.00000000000E+00  0.14321115510E+04  0.14321115510E+04  0.25500000000E-02 0.  1.
         -2   -1    0    0    0  501 -0.00000000000E+00 -0.00000000000E+00 -0.31535548081E+02  0.31535548184E+02  0.25500000000E-02 0. -1.
    5000001    1    1    2    0    0  0.55489763042E+02 -0.19001650786E+03  0.72415510851E+03  0.75466218154E+03  0.77000000000E+02 0.  0.
   -5000001    1    1    2    0    0 -0.55489763042E+02  0.19001650786E+03  0.67642089439E+03  0.70898491764E+03  0.77000000000E+02 0.  0.
<mgrwt>
<rscale>  0 0.42502905E+03</rscale>
<asrwt>0</asrwt>
<pdfrwt beam="1">  1        2 0.22032483E+00 0.42502905E+03</pdfrwt>
<pdfrwt beam="2">  1       -2 0.48516232E-02 0.42502905E+03</pdfrwt>
<totfact> 0.30443245E+03</totfact>
</mgrwt>
</event>
<event>
 4    1  0.6122885E-004  0.2043084E+03  0.7818608E-02  0.1146154E+00
         -2   -1    0    0    0  501 -0.00000000000E+00  0.00000000000E+00  0.11482701491E+02  0.11482701774E+02  0.25500000000E-02 0. -1.
          2   -1    0    0  501    0  0.00000000000E+00 -0.00000000000E+00 -0.90880012998E+03  0.90880012998E+03  0.25500000000E-02 0.  1.
    5000001    1    1    2    0    0 -0.20739844331E+02  0.62299227729E+02 -0.38573494615E+03  0.39878789299E+03  0.77000000000E+02 0.  0.
   -5000001    1    1    2    0    0  0.20739844331E+02 -0.62299227729E+02 -0.51158248234E+03  0.52149493876E+03  0.77000000000E+02 0.  0.
<mgrwt>
<rscale>  0 0.20430840E+03</rscale>
<asrwt>0</asrwt>
<pdfrwt beam="1">  1        2 0.13981535E+00 0.20430840E+03</pdfrwt>
<pdfrwt beam="2">  1       -2 0.17665702E-02 0.20430840E+03</pdfrwt>
<totfact> 0.27203710E+04</totfact>
</mgrwt>
</event>
<event>
 4    1  0.6122885E-004  0.2033407E+03  0.7818608E-02  0.1146951E+00
         -2   -1    0    0    0  501 -0.00000000000E+00  0.00000000000E+00  0.20166920978E+02  0.20166921139E+02  0.25500000000E-02 0. -1.
          2   -1    0    0  501    0  0.00000000000E+00 -0.00000000000E+00 -0.51256489450E+03  0.51256489450E+03  0.25500000000E-02 0.  1.
    5000001    1    1    2    0    0  0.49203941726E+02  0.23218709982E+02 -0.14651472280E+03  0.17422887353E+03  0.77000000000E+02 0.  0.
   -5000001    1    1    2    0    0 -0.49203941726E+02 -0.23218709982E+02 -0.34588325072E+03  0.35850294211E+03  0.77000000000E+02 0.  0.
<mgrwt>
<rscale>  0 0.20334066E+03</rscale>
<asrwt>0</asrwt>
<pdfrwt beam="1">  1        2 0.78856128E-01 0.20334066E+03</pdfrwt>
<pdfrwt beam="2">  1       -2 0.31026036E-02 0.20334066E+03</pdfrwt>
<totfact> 0.23680098E+04</totfact>
</mgrwt>
</event>
<event>
 4    1  0.6122885E-004  0.1944564E+03  0.7818608E-02  0.1154502E+00
          2   -1    0    0  501    0  0.00000000000E+00  0.00000000000E+00  0.18335258109E+04  0.18335258109E+04  0.25500000000E-02 0.  1.
         -2   -1    0    0    0  501 -0.00000000000E+00 -0.00000000000E+00 -0.51558152196E+01  0.51558158502E+01  0.25500000000E-02 0. -1.
    5000001    1    1    2    0    0 -0.31315109192E+02  0.18161250717E+02  0.13590813113E+04  0.13617420746E+04  0.77000000000E+02 0.  0.
   -5000001    1    1    2    0    0  0.31315109192E+02 -0.18161250717E+02  0.46928868439E+03  0.47693955213E+03  0.77000000000E+02 0.  0.
<mgrwt>
<rscale>  0 0.19445638E+03</rscale>
<asrwt>0</asrwt>
<pdfrwt beam="1">  1        2 0.28208096E+00 0.19445638E+03</pdfrwt>
<pdfrwt beam="2">  1       -2 0.79320221E-03 0.19445638E+03</pdfrwt>
<totfact> 0.26693583E+04</totfact>
</mgrwt>
</event>
<event>
 4    1  0.6122885E-004  0.2882851E+03  0.7818608E-02  0.1091248E+00
         -2   -1    0    0    0  501 -0.00000000000E+00  0.00000000000E+00  0.20183033260E+02  0.20183033421E+02  0.25500000000E-02 0. -1.
          2   -1    0    0  501    0  0.00000000000E+00 -0.00000000000E+00 -0.10294324205E+04  0.10294324205E+04  0.25500000000E-02 0.  1.
    5000001    1    1    2    0    0  0.56658561880E+02 -0.10764068362E+03 -0.53071735185E+03  0.54989691485E+03  0.77000000000E+02 0.  0.
   -5000001    1    1    2    0    0 -0.56658561880E+02  0.10764068362E+03 -0.47853203539E+03  0.49971853908E+03  0.77000000000E+02 0.  0.
<mgrwt>
<rscale>  0 0.28828506E+03</rscale>
<asrwt>0</asrwt>
<pdfrwt beam="1">  1        2 0.15837418E+00 0.28828506E+03</pdfrwt>
<pdfrwt beam="2">  1       -2 0.31050828E-02 0.28828506E+03</pdfrwt>
<totfact> 0.10128046E+04</totfact>
</mgrwt>
</event>
<event>
 4    1  0.6122885E-004  0.2889476E+03  0.7818608E-02  0.1090900E+00
          2   -1    0    0  501    0  0.00000000000E+00  0.00000000000E+00  0.12279090548E+04  0.12279090548E+04  0.25500000000E-02 0.  1.
         -2   -1    0    0    0  501 -0.00000000000E+00 -0.00000000000E+00 -0.16998551561E+02  0.16998551752E+02  0.25500000000E-02 0. -1.
    5000001    1    1    2    0    0 -0.99178909877E+02  0.17980965718E+01  0.91325822396E+03  0.92185100366E+03  0.77000000000E+02 0.  0.
   -5000001    1    1    2    0    0  0.99178909877E+02 -0.17980965718E+01  0.29765227929E+03  0.32305660291E+03  0.77000000000E+02 0.  0.
<mgrwt>
<rscale>  0 0.28894758E+03</rscale>
<asrwt>0</asrwt>
<pdfrwt beam="1">  1        2 0.18890914E+00 0.28894758E+03</pdfrwt>
<pdfrwt beam="2">  1       -2 0.26151611E-02 0.28894758E+03</pdfrwt>
<totfact> 0.10016180E+04</totfact>
</mgrwt>
</event>
<event>
 4    1  0.6122885E-004  0.2673704E+03  0.7818608E-02  0.1102794E+00
         -2   -1    0    0    0  501 -0.00000000000E+00  0.00000000000E+00  0.43811568509E+02  0.43811568583E+02  0.25500000000E-02 0. -1.
          2   -1    0    0  501    0  0.00000000000E+00 -0.00000000000E+00 -0.40792283584E+03  0.40792283585E+03  0.25500000000E-02 0.  1.
    5000001    1    1    2    0    0 -0.82881950754E+02 -0.70260435491E+02 -0.20181628578E+03  0.24179487125E+03  0.77000000000E+02 0.  0.
   -5000001    1    1    2    0    0  0.82881950754E+02  0.70260435491E+02 -0.16229498155E+03  0.20993953318E+03  0.77000000000E+02 0.  0.
<mgrwt>
<rscale>  0 0.26737045E+03</rscale>
<asrwt>0</asrwt>
<pdfrwt beam="1">  1        2 0.62757357E-01 0.26737045E+03</pdfrwt>
<pdfrwt beam="2">  1       -2 0.67402416E-02 0.26737045E+03</pdfrwt>
<totfact> 0.95763212E+03</totfact>
</mgrwt>
</event>
<event>
 4    1  0.6122885E-004  0.1753520E+03  0.7818608E-02  0.1172379E+00
          2   -1    0    0  501    0  0.00000000000E+00  0.00000000000E+00  0.10442443169E+04  0.10442443169E+04  0.25500000000E-02 0.  1.
         -2   -1    0    0    0  501 -0.00000000000E+00 -0.00000000000E+00 -0.73613839467E+01  0.73613843883E+01  0.25500000000E-02 0. -1.
    5000001    1    1    2    0    0  0.13722931413E+02 -0.37080974819E+02  0.43474661236E+03  0.44327974745E+03  0.77000000000E+02 0.  0.
   -5000001    1    1    2    0    0 -0.13722931413E+02  0.37080974819E+02  0.60213632055E+03  0.60832595380E+03  0.77000000000E+02 0.  0.
<mgrwt>
<rscale>  0 0.17535203E+03</rscale>
<asrwt>0</asrwt>
<pdfrwt beam="1">  1        2 0.16065305E+00 0.17535203E+03</pdfrwt>
<pdfrwt beam="2">  1       -2 0.11325201E-02 0.17535203E+03</pdfrwt>
<totfact> 0.42337861E+04</totfact>
</mgrwt>
</event>
<event>
 4    1  0.6122885E-004  0.2923508E+03  0.7818608E-02  0.1089128E+00
          2   -1    0    0  501    0  0.00000000000E+00  0.00000000000E+00  0.21249763506E+03  0.21249763508E+03  0.25500000000E-02 0.  1.
         -2   -1    0    0    0  501 -0.00000000000E+00 -0.00000000000E+00 -0.10055285960E+03  0.10055285963E+03  0.25500000000E-02 0. -1.
    5000001    1    1    2    0    0 -0.73783483680E+02  0.98913433005E+02  0.71503672563E+02  0.16207913155E+03  0.77000000000E+02 0.  0.
   -5000001    1    1    2    0    0  0.73783483680E+02 -0.98913433005E+02  0.40441102898E+02  0.15097136317E+03  0.77000000000E+02 0.  0.
<mgrwt>
<rscale>  0 0.29235078E+03</rscale>
<asrwt>0</asrwt>
<pdfrwt beam="1">  1        2 0.32691943E-01 0.29235078E+03</pdfrwt>
<pdfrwt beam="2">  1       -2 0.15469671E-01 0.29235078E+03</pdfrwt>
<totfact> 0.51641033E+03</totfact>
</mgrwt>
</event>
<event>
 4    1  0.6122885E-004  0.2914514E+03  0.7818608E-02  0.1089594E+00
          2   -1    0    0  501    0  0.00000000000E+00  0.00000000000E+00  0.35041057768E+04  0.35041057768E+04  0.25500000000E-02 0.  1.
         -2   -1    0    0    0  501 -0.00000000000E+00 -0.00000000000E+00 -0.60603144958E+01  0.60603150323E+01  0.25500000000E-02 0. -1.
    5000001    1    1    2    0    0  0.11797996664E+03 -0.33799299121E+01  0.13022197493E+04  0.13098228781E+04  0.77000000000E+02 0.  0.
   -5000001    1    1    2    0    0 -0.11797996664E+03  0.33799299121E+01  0.21958257130E+04  0.22003432137E+04  0.77000000000E+02 0.  0.
<mgrwt>
<rscale>  0 0.29145143E+03</rscale>
<asrwt>0</asrwt>
<pdfrwt beam="1">  1        2 0.53909537E+00 0.29145143E+03</pdfrwt>
<pdfrwt beam="2">  1       -2 0.93235236E-03 0.29145143E+03</pdfrwt>
<totfact> 0.23734063E+03</totfact>
</mgrwt>
</event>
<event>
 4    1  0.6122885E-004  0.1726819E+03  0.7818608E-02  0.1175080E+00
         -2   -1    0    0    0  501 -0.00000000000E+00  0.00000000000E+00  0.35193369031E+01  0.35193378269E+01  0.25500000000E-02 0. -1.
          2   -1    0    0  501    0  0.00000000000E+00 -0.00000000000E+00 -0.21182284326E+04  0.21182284326E+04  0.25500000000E-02 0.  1.
    5000001    1    1    2    0    0 -0.38073662264E+02  0.78641229078E+01 -0.10108707697E+04  0.10145443121E+04  0.77000000000E+02 0.  0.
   -5000001    1    1    2    0    0  0.38073662264E+02 -0.78641229078E+01 -0.11038383260E+04  0.11072034583E+04  0.77000000000E+02 0.  0.
<mgrwt>
<rscale>  0 0.17268191E+03</rscale>
<asrwt>0</asrwt>
<pdfrwt beam="1">  1        2 0.32588028E+00 0.17268191E+03</pdfrwt>
<pdfrwt beam="2">  1       -2 0.54143821E-03 0.17268191E+03</pdfrwt>
<totfact> 0.32626642E+04</totfact>
</mgrwt>
</event>
<event>
 4    1  0.6122885E-004  0.5530706E+03  0.7818608E-02  0.1000786E+00
         -2   -1    0    0    0  501 -0.00000000000E+00  0.00000000000E+00  0.75682072923E+02  0.75682072966E+02  0.25500000000E-02 0.  1.
          2   -1    0    0  501    0  0.00000000000E+00 -0.00000000000E+00 -0.10104342887E+04  0.10104342887E+04  0.25500000000E-02 0. -1.
    5000001    1    1    2    0    0 -0.41879594241E+02 -0.24259309612E+03 -0.66314032419E+03  0.71154016068E+03  0.77000000000E+02 0.  0.
   -5000001    1    1    2    0    0  0.41879594241E+02  0.24259309612E+03 -0.27161189161E+03  0.37457620101E+03  0.77000000000E+02 0.  0.
<mgrwt>
<rscale>  0 0.55307056E+03</rscale>
<asrwt>0</asrwt>
<pdfrwt beam="1">  1        2 0.15545142E+00 0.55307056E+03</pdfrwt>
<pdfrwt beam="2">  1       -2 0.11643397E-01 0.55307056E+03</pdfrwt>
<totfact> 0.13372625E+03</totfact>
</mgrwt>
</event>
<event>
 4    1  0.6122885E-004  0.1648510E+03  0.7818608E-02  0.1183326E+00
         -2   -1    0    0    0  501 -0.00000000000E+00  0.00000000000E+00  0.50835995674E+02  0.50835995738E+02  0.25500000000E-02 0. -1.
          2   -1    0    0  501    0  0.00000000000E+00 -0.00000000000E+00 -0.13364471658E+03  0.13364471660E+03  0.25500000000E-02 0.  1.
    5000001    1    1    2    0    0 -0.21962834690E+02  0.14491729778E+02 -0.56105874583E+02  0.98839493636E+02  0.77000000000E+02 0.  0.
   -5000001    1    1    2    0    0  0.21962834690E+02 -0.14491729778E+02 -0.26702846323E+02  0.85641218705E+02  0.77000000000E+02 0.  0.
<mgrwt>
<rscale>  0 0.16485099E+03</rscale>
<asrwt>0</asrwt>
<pdfrwt beam="1">  1        2 0.20560726E-01 0.16485099E+03</pdfrwt>
<pdfrwt beam="2">  1       -2 0.78209225E-02 0.16485099E+03</pdfrwt>
<totfact> 0.24841606E+04</totfact>
</mgrwt>
</event>
<event>
 4    1  0.6122885E-004  0.2212533E+03  0.7818608E-02  0.1132952E+00
          2   -1    0    0  501    0  0.00000000000E+00  0.00000000000E+00  0.28842840887E+04  0.28842840887E+04  0.25500000000E-02 0.  1.
         -2   -1    0    0    0  501 -0.00000000000E+00 -0.00000000000E+00 -0.42430833089E+01  0.42430840751E+01  0.25500000000E-02 0. -1.
    5000001    1    1    2    0    0  0.73019417366E+02  0.18964318891E+02  0.11155293257E+04  0.11207257279E+04  0.77000000000E+02 0.  0.
   -5000001    1    1    2    0    0 -0.73019417366E+02 -0.18964318891E+02  0.17645116797E+04  0.17678014449E+04  0.77000000000E+02 0.  0.
<mgrwt>
<rscale>  0 0.22125333E+03</rscale>
<asrwt>0</asrwt>
<pdfrwt beam="1">  1        2 0.44373393E+00 0.22125333E+03</pdfrwt>
<pdfrwt beam="2">  1       -2 0.65278517E-03 0.22125333E+03</pdfrwt>
<totfact> 0.96320143E+03</totfact>
</mgrwt>
</event>
<event>
 4    1  0.6122885E-004  0.1726915E+03  0.7818608E-02  0.1175070E+00
         -2   -1    0    0    0  501 -0.00000000000E+00  0.00000000000E+00  0.99879038806E+01  0.99879042061E+01  0.25500000000E-02 0. -1.
          2   -1    0    0  501    0  0.00000000000E+00 -0.00000000000E+00 -0.74646162769E+03  0.74646162769E+03  0.25500000000E-02 0.  1.
    5000001    1    1    2    0    0 -0.11995790587E+02 -0.20416921152E+02 -0.23210460045E+03  0.24568739327E+03  0.77000000000E+02 0.  0.
   -5000001    1    1    2    0    0  0.11995790587E+02  0.20416921152E+02 -0.50436912336E+03  0.51076213863E+03  0.77000000000E+02 0.  0.
<mgrwt>
<rscale>  0 0.17269148E+03</rscale>
<asrwt>0</asrwt>
<pdfrwt beam="1">  1        2 0.11484021E+00 0.17269148E+03</pdfrwt>
<pdfrwt beam="2">  1       -2 0.15366012E-02 0.17269148E+03</pdfrwt>
<totfact> 0.42267838E+04</totfact>
</mgrwt>
</event>
<event>
 4    1  0.6122885E-004  0.2999444E+03  0.7818608E-02  0.1085268E+00
          2   -1    0    0  501    0  0.00000000000E+00  0.00000000000E+00  0.83967970484E+03  0.83967970484E+03  0.25500000000E-02 0.  1.
         -2   -1    0    0    0  501 -0.00000000000E+00 -0.00000000000E+00 -0.26785994495E+02  0.26785994616E+02  0.25500000000E-02 0. -1.
    5000001    1    1    2    0    0  0.16565910571E+02 -0.12433410376E+03  0.48963382464E+03  0.51127652106E+03  0.77000000000E+02 0.  0.
   -5000001    1    1    2    0    0 -0.16565910571E+02  0.12433410376E+03  0.32325988570E+03  0.35518917840E+03  0.77000000000E+02 0.  0.
<mgrwt>
<rscale>  0 0.29994437E+03</rscale>
<asrwt>0</asrwt>
<pdfrwt beam="1">  1        2 0.12918150E+00 0.29994437E+03</pdfrwt>
<pdfrwt beam="2">  1       -2 0.41209219E-02 0.29994437E+03</pdfrwt>
<totfact> 0.87568833E+03</totfact>
</mgrwt>
</event>
<event>
 4    1  0.6122885E-004  0.2811468E+03  0.7818608E-02  0.1095064E+00
          2   -1    0    0  501    0  0.00000000000E+00  0.00000000000E+00  0.41166657266E+03  0.41166657267E+03  0.25500000000E-02 0.  1.
         -2   -1    0    0    0  501 -0.00000000000E+00 -0.00000000000E+00 -0.48002139606E+02  0.48002139674E+02  0.25500000000E-02 0. -1.
    5000001    1    1    2    0    0  0.57608784280E+02  0.87627771916E+02  0.26887812938E+03  0.29870026264E+03  0.77000000000E+02 0.  0.
   -5000001    1    1    2    0    0 -0.57608784280E+02 -0.87627771916E+02  0.94786303666E+02  0.16096844970E+03  0.77000000000E+02 0.  0.
<mgrwt>
<rscale>  0 0.28114677E+03</rscale>
<asrwt>0</asrwt>
<pdfrwt beam="1">  1        2 0.63333316E-01 0.28114677E+03</pdfrwt>
<pdfrwt beam="2">  1       -2 0.73849448E-02 0.28114677E+03</pdfrwt>
<totfact> 0.82463753E+03</totfact>
</mgrwt>
</event>
<event>
 4    1  0.6122885E-004  0.1894183E+03  0.7818608E-02  0.1158987E+00
          2   -1    0    0  501    0  0.00000000000E+00  0.00000000000E+00  0.58216360593E+03  0.58216360593E+03  0.25500000000E-02 0.  1.
         -2   -1    0    0    0  501 -0.00000000000E+00 -0.00000000000E+00 -0.15407732773E+02  0.15407732984E+02  0.25500000000E-02 0. -1.
    5000001    1    1    2    0    0 -0.44036615285E+02 -0.29666476422E+02  0.23642607704E+03  0.25425501611E+03  0.77000000000E+02 0.  0.
   -5000001    1    1    2    0    0  0.44036615285E+02  0.29666476422E+02  0.33032979611E+03  0.34331632281E+03  0.77000000000E+02 0.  0.
<mgrwt>
<rscale>  0 0.18941828E+03</rscale>
<asrwt>0</asrwt>
<pdfrwt beam="1">  1        2 0.89563622E-01 0.18941828E+03</pdfrwt>
<pdfrwt beam="2">  1       -2 0.23704207E-02 0.18941828E+03</pdfrwt>
<totfact> 0.30347519E+04</totfact>
</mgrwt>
</event>
<event>
 4    1  0.6122885E-004  0.2047963E+03  0.7818608E-02  0.1145754E+00
         -2   -1    0    0    0  501 -0.00000000000E+00  0.00000000000E+00  0.40904953082E+02  0.40904953162E+02  0.25500000000E-02 0. -1.
          2   -1    0    0  501    0  0.00000000000E+00 -0.00000000000E+00 -0.25633516058E+03  0.25633516059E+03  0.25500000000E-02 0.  1.
    5000001    1    1    2    0    0  0.48168460628E+02 -0.23671004970E+02 -0.16713123024E+03  0.19168298098E+03  0.77000000000E+02 0.  0.
   -5000001    1    1    2    0    0 -0.48168460628E+02  0.23671004970E+02 -0.48298977257E+02  0.10555713277E+03  0.77000000000E+02 0.  0.
<mgrwt>
<rscale>  0 0.20479627E+03</rscale>
<asrwt>0</asrwt>
<pdfrwt beam="1">  1        2 0.39436178E-01 0.20479627E+03</pdfrwt>
<pdfrwt beam="2">  1       -2 0.62930698E-02 0.20479627E+03</pdfrwt>
<totfact> 0.17282851E+04</totfact>
</mgrwt>
</event>
<event>
 4    1  0.6122885E-004  0.1971771E+03  0.7818608E-02  0.1152143E+00
         -2   -1    0    0    0  501 -0.00000000000E+00  0.00000000000E+00  0.55977451786E+02  0.55977451845E+02  0.25500000000E-02 0. -1.
          2   -1    0    0  501    0  0.00000000000E+00 -0.00000000000E+00 -0.17363607041E+03  0.17363607043E+03  0.25500000000E-02 0.  1.
    5000001    1    1    2    0    0  0.56204100040E+01 -0.61247165762E+02 -0.62102465597E+02  0.11648399270E+03  0.77000000000E+02 0.  0.
   -5000001    1    1    2    0    0 -0.56204100040E+01  0.61247165762E+02 -0.55556153031E+02  0.11312952958E+03  0.77000000000E+02 0.  0.
<mgrwt>
<rscale>  0 0.19717713E+03</rscale>
<asrwt>0</asrwt>
<pdfrwt beam="1">  1        2 0.26713241E-01 0.19717713E+03</pdfrwt>
<pdfrwt beam="2">  1       -2 0.86119157E-02 0.19717713E+03</pdfrwt>
<totfact> 0.16200871E+04</totfact>
</mgrwt>
</event>
<event>
 4    1  0.6122885E-004  0.1761658E+03  0.7818608E-02  0.1171566E+00
         -2   -1    0    0    0  501 -0.00000000000E+00  0.00000000000E+00  0.76684490179E+01  0.76684494419E+01  0.25500000000E-02 0. -1.
          2   -1    0    0  501    0  0.00000000000E+00 -0.00000000000E+00 -0.10117562214E+04  0.10117562214E+04  0.25500000000E-02 0.  1.
    5000001    1    1    2    0    0  0.19862110217E+02 -0.35627329743E+02 -0.57655381210E+03  0.58310128476E+03  0.77000000000E+02 0.  0.
   -5000001    1    1    2    0    0 -0.19862110217E+02  0.35627329743E+02 -0.42753396031E+03  0.43632338611E+03  0.77000000000E+02 0.  0.
<mgrwt>
<rscale>  0 0.17616584E+03</rscale>
<asrwt>0</asrwt>
<pdfrwt beam="1">  1        2 0.15565470E+00 0.17616584E+03</pdfrwt>
<pdfrwt beam="2">  1       -2 0.11797622E-02 0.17616584E+03</pdfrwt>
<totfact> 0.41749502E+04</totfact>
</mgrwt>
</event>
<event>
 4    1  0.6122885E-004  0.1874833E+03  0.7818608E-02  0.1160751E+00
          2   -1    0    0  501    0  0.00000000000E+00  0.00000000000E+00  0.10824573926E+03  0.10824573929E+03  0.25500000000E-02 0.  1.
         -2   -1    0    0    0  501 -0.00000000000E+00 -0.00000000000E+00 -0.81180972016E+02  0.81180972056E+02  0.25500000000E-02 0. -1.
    5000001    1    1    2    0    0  0.12589657499E+02  0.34263085476E+02  0.53001832349E+02  0.10035264189E+03  0.77000000000E+02 0.  0.
   -5000001    1    1    2    0    0 -0.12589657499E+02 -0.34263085476E+02 -0.25937065108E+02  0.89074069452E+02  0.77000000000E+02 0.  0.
<mgrwt>
<rscale>  0 0.18748327E+03</rscale>
<asrwt>0</asrwt>
<pdfrwt beam="1">  1        2 0.16653191E-01 0.18748327E+03</pdfrwt>
<pdfrwt beam="2">  1       -2 0.12489380E-01 0.18748327E+03</pdfrwt>
<totfact> 0.15282847E+04</totfact>
</mgrwt>
</event>
<event>
 4    1  0.6122885E-004  0.5869941E+03  0.7818608E-02  0.9932763E-01
         -2   -1    0    0    0  501 -0.00000000000E+00  0.00000000000E+00  0.52382598786E+03  0.52382598787E+03  0.25500000000E-02 0. -1.
          2   -1    0    0  501    0  0.00000000000E+00 -0.00000000000E+00 -0.16444490898E+03  0.16444490900E+03  0.25500000000E-02 0.  1.
    5000001    1    1    2    0    0 -0.90191333456E+02  0.21060046984E+03 -0.15544334743E+02  0.24219343688E+03  0.77000000000E+02 0.  0.
   -5000001    1    1    2    0    0  0.90191333456E+02 -0.21060046984E+03  0.37492541362E+03  0.44607745999E+03  0.77000000000E+02 0.  0.
<mgrwt>
<rscale>  0 0.58699410E+03</rscale>
<asrwt>0</asrwt>
<pdfrwt beam="1">  1        2 0.25299216E-01 0.58699410E+03</pdfrwt>
<pdfrwt beam="2">  1       -2 0.80588615E-01 0.58699410E+03</pdfrwt>
<totfact> 0.29715353E+02</totfact>
</mgrwt>
</event>
<event>
 4    1  0.6122885E-004  0.3921910E+03  0.7818608E-02  0.1046518E+00
          2   -1    0    0  501    0  0.00000000000E+00  0.00000000000E+00  0.13524237765E+04  0.13524237765E+04  0.25500000000E-02 0.  1.
         -2   -1    0    0    0  501 -0.00000000000E+00 -0.00000000000E+00 -0.28432984143E+02  0.28432984258E+02  0.25500000000E-02 0. -1.
    5000001    1    1    2    0    0 -0.18032098596E+03  0.64524726822E-01  0.67242916239E+03  0.70043246682E+03  0.77000000000E+02 0.  0.
   -5000001    1    1    2    0    0  0.18032098596E+03 -0.64524726822E-01  0.65156162998E+03  0.68042429396E+03  0.77000000000E+02 0.  0.
<mgrwt>
<rscale>  0 0.39219099E+03</rscale>
<asrwt>0</asrwt>
<pdfrwt beam="1">  1        2 0.20806516E+00 0.39219099E+03</pdfrwt>
<pdfrwt beam="2">  1       -2 0.43743060E-02 0.39219099E+03</pdfrwt>
<totfact> 0.39492636E+03</totfact>
</mgrwt>
</event>
<event>
 4    1  0.6122885E-004  0.3131494E+03  0.7818608E-02  0.1078846E+00
         -2   -1    0    0    0  501 -0.00000000000E+00  0.00000000000E+00  0.17351043104E+02  0.17351043291E+02  0.25500000000E-02 0. -1.
          2   -1    0    0  501    0  0.00000000000E+00 -0.00000000000E+00 -0.14129202404E+04  0.14129202404E+04  0.25500000000E-02 0.  1.
    5000001    1    1    2    0    0 -0.10347138183E+02  0.11704352205E+03 -0.10135746952E+04  0.10232638526E+04  0.77000000000E+02 0.  0.
   -5000001    1    1    2    0    0  0.10347138183E+02 -0.11704352205E+03 -0.38199450212E+03  0.40700743111E+03  0.77000000000E+02 0.  0.
<mgrwt>
<rscale>  0 0.31314942E+03</rscale>
<asrwt>0</asrwt>
<pdfrwt beam="1">  1        2 0.21737225E+00 0.31314942E+03</pdfrwt>
<pdfrwt beam="2">  1       -2 0.26693924E-02 0.31314942E+03</pdfrwt>
<totfact> 0.76841635E+03</totfact>
</mgrwt>
</event>
<event>
 4    1  0.6122885E-004  0.4210873E+03  0.7818608E-02  0.1036713E+00
         -2   -1    0    0    0  501 -0.00000000000E+00  0.00000000000E+00  0.15477068654E+03  0.15477068656E+03  0.25500000000E-02 0. -1.
          2   -1    0    0  501    0  0.00000000000E+00 -0.00000000000E+00 -0.28641481803E+03  0.28641481805E+03  0.25500000000E-02 0.  1.
    5000001    1    1    2    0    0 -0.15917654706E+03 -0.51114870120E+02  0.41280867518E+02  0.18863460209E+03  0.77000000000E+02 0.  0.
   -5000001    1    1    2    0    0  0.15917654706E+03  0.51114870120E+02 -0.17292499901E+03  0.25255090252E+03  0.77000000000E+02 0.  0.
<mgrwt>
<rscale>  0 0.42108725E+03</rscale>
<asrwt>0</asrwt>
<pdfrwt beam="1">  1        2 0.44063818E-01 0.42108725E+03</pdfrwt>
<pdfrwt beam="2">  1       -2 0.23810875E-01 0.42108725E+03</pdfrwt>
<totfact> 0.17947421E+03</totfact>
</mgrwt>
</event>
<event>
 4    1  0.6122885E-004  0.1826564E+03  0.7818608E-02  0.1165257E+00
         -2   -1    0    0    0  501 -0.00000000000E+00  0.00000000000E+00  0.52186562913E+01  0.52186569143E+01  0.25500000000E-02 0. -1.
          2   -1    0    0  501    0  0.00000000000E+00 -0.00000000000E+00 -0.15982736577E+04  0.15982736577E+04  0.25500000000E-02 0.  1.
    5000001    1    1    2    0    0  0.38557476927E+02  0.24473287000E+02 -0.63796969336E+03  0.64422042070E+03  0.77000000000E+02 0.  0.
   -5000001    1    1    2    0    0 -0.38557476927E+02 -0.24473287000E+02 -0.95508530805E+03  0.95927189392E+03  0.77000000000E+02 0.  0.
<mgrwt>
<rscale>  0 0.18265641E+03</rscale>
<asrwt>0</asrwt>
<pdfrwt beam="1">  1        2 0.24588786E+00 0.18265641E+03</pdfrwt>
<pdfrwt beam="2">  1       -2 0.80287152E-03 0.18265641E+03</pdfrwt>
<totfact> 0.34637999E+04</totfact>
</mgrwt>
</event>
<event>
 4    1  0.6122885E-004  0.1884909E+03  0.7818608E-02  0.1159829E+00
         -2   -1    0    0    0  501 -0.00000000000E+00  0.00000000000E+00  0.12231292377E+03  0.12231292379E+03  0.25500000000E-02 0. -1.
          2   -1    0    0  501    0  0.00000000000E+00 -0.00000000000E+00 -0.72618732098E+02  0.72618732143E+02  0.25500000000E-02 0.  1.
    5000001    1    1    2    0    0  0.16562091600E+02  0.51410978863E+02  0.31036394955E+02  0.99043674395E+02  0.77000000000E+02 0.  0.
   -5000001    1    1    2    0    0 -0.16562091600E+02 -0.51410978863E+02  0.18657796713E+02  0.95887981541E+02  0.77000000000E+02 0.  0.
<mgrwt>
<rscale>  0 0.18849095E+03</rscale>
<asrwt>0</asrwt>
<pdfrwt beam="1">  1        2 0.11172113E-01 0.18849095E+03</pdfrwt>
<pdfrwt beam="2">  1       -2 0.18817373E-01 0.18849095E+03</pdfrwt>
<totfact> 0.12521166E+04</totfact>
</mgrwt>
</event>
<event>
 4    1  0.6122885E-004  0.1986639E+03  0.7818608E-02  0.1150871E+00
          2   -1    0    0  501    0  0.00000000000E+00  0.00000000000E+00  0.13527952435E+03  0.13527952437E+03  0.25500000000E-02 0.  1.
         -2   -1    0    0    0  501 -0.00000000000E+00 -0.00000000000E+00 -0.72936659860E+02  0.72936659905E+02  0.25500000000E-02 0. -1.
    5000001    1    1    2    0    0 -0.57378837591E+02  0.18887104096E+02  0.48982144904E+02  0.10944087090E+03  0.77000000000E+02 0.  0.
   -5000001    1    1    2    0    0  0.57378837591E+02 -0.18887104096E+02  0.13360719584E+02  0.98775313374E+02  0.77000000000E+02 0.  0.
<mgrwt>
<rscale>  0 0.19866390E+03</rscale>
<asrwt>0</asrwt>
<pdfrwt beam="1">  1        2 0.20812234E-01 0.19866390E+03</pdfrwt>
<pdfrwt beam="2">  1       -2 0.11221025E-01 0.19866390E+03</pdfrwt>
<totfact> 0.14108169E+04</totfact>
</mgrwt>
</event>
<event>
 4    1  0.6122885E-004  0.3925341E+03  0.7818608E-02  0.1046396E+00
          2   -1    0    0  501    0  0.00000000000E+00  0.00000000000E+00  0.17586170016E+04  0.17586170016E+04  0.25500000000E-02 0.  1.
         -2   -1    0    0    0  501 -0.00000000000E+00 -0.00000000000E+00 -0.21904006618E+02  0.21904006766E+02  0.25500000000E-02 0. -1.
    5000001    1    1    2    0    0  0.95489711648E+02  0.81953445090E+02  0.28117926924E+03  0.31753020903E+03  0.77000000000E+02 0.  0.
   -5000001    1    1    2    0    0 -0.95489711648E+02 -0.81953445090E+02  0.14555337257E+04  0.14629907993E+04  0.77000000000E+02 0.  0.
<mgrwt>
<rscale>  0 0.39253412E+03</rscale>
<asrwt>0</asrwt>
<pdfrwt beam="1">  1        2 0.27055645E+00 0.39253412E+03</pdfrwt>
<pdfrwt beam="2">  1       -2 0.33698474E-02 0.39253412E+03</pdfrwt>
<totfact> 0.35356193E+03</totfact>
</mgrwt>
</event>
<event>
 4    1  0.6122885E-004  0.2501648E+03  0.7818608E-02  0.1113201E+00
         -2   -1    0    0    0  501 -0.00000000000E+00  0.00000000000E+00  0.56628865125E+02  0.56628865183E+02  0.25500000000E-02 0. -1.
          2   -1    0    0  501    0  0.00000000000E+00 -0.00000000000E+00 -0.27628335342E+03  0.27628335343E+03  0.25500000000E-02 0.  1.
    5000001    1    1    2    0    0 -0.85736102980E+02  0.27826620083E+02 -0.56736093365E+02  0.13142672647E+03  0.77000000000E+02 0.  0.
   -5000001    1    1    2    0    0  0.85736102980E+02 -0.27826620083E+02 -0.16291839493E+03  0.20148549215E+03  0.77000000000E+02 0.  0.
<mgrwt>
<rscale>  0 0.25016485E+03</rscale>
<asrwt>0</asrwt>
<pdfrwt beam="1">  1        2 0.42505131E-01 0.25016485E+03</pdfrwt>
<pdfrwt beam="2">  1       -2 0.87121333E-02 0.25016485E+03</pdfrwt>
<totfact> 0.97461333E+03</totfact>
</mgrwt>
</event>
<event>
 4    1  0.6122885E-004  0.2475981E+03  0.7818608E-02  0.1114832E+00
         -2   -1    0    0    0  501 -0.00000000000E+00  0.00000000000E+00  0.55735841999E+02  0.55735842058E+02  0.25500000000E-02 0. -1.
          2   -1    0    0  501    0  0.00000000000E+00 -0.00000000000E+00 -0.27497936782E+03  0.27497936783E+03  0.25500000000E-02 0.  1.
    5000001    1    1    2    0    0  0.69443663164E+02  0.67615589485E+02 -0.10734076960E+03  0.16384544886E+03  0.77000000000E+02 0.  0.
   -5000001    1    1    2    0    0 -0.69443663164E+02 -0.67615589485E+02 -0.11190275623E+03  0.16686976103E+03  0.77000000000E+02 0.  0.
<mgrwt>
<rscale>  0 0.24759811E+03</rscale>
<asrwt>0</asrwt>
<pdfrwt beam="1">  1        2 0.42304517E-01 0.24759811E+03</pdfrwt>
<pdfrwt beam="2">  1       -2 0.85747451E-02 0.24759811E+03</pdfrwt>
<totfact> 0.10038185E+04</totfact>
</mgrwt>
</event>
<event>
 4    1  0.6122885E-004  0.4039998E+03  0.7818608E-02  0.1042403E+00
         -2   -1    0    0    0  501 -0.00000000000E+00  0.00000000000E+00  0.85732498583E+02  0.85732498621E+02  0.25500000000E-02 0. -1.
          2   -1    0    0  501    0  0.00000000000E+00 -0.00000000000E+00 -0.47594509466E+03  0.47594509467E+03  0.25500000000E-02 0.  1.
    5000001    1    1    2    0    0  0.12299794919E+03  0.13524833165E+03 -0.14208611576E+03  0.24400424384E+03  0.77000000000E+02 0.  0.
   -5000001    1    1    2    0    0 -0.12299794919E+03 -0.13524833165E+03 -0.24812648032E+03  0.31767334945E+03  0.77000000000E+02 0.  0.
<mgrwt>
<rscale>  0 0.40399981E+03</rscale>
<asrwt>0</asrwt>
<pdfrwt beam="1">  1        2 0.73222320E-01 0.40399981E+03</pdfrwt>
<pdfrwt beam="2">  1       -2 0.13189616E-01 0.40399981E+03</pdfrwt>
<totfact> 0.28043024E+03</totfact>
</mgrwt>
</event>
<event>
 4    1  0.6122885E-004  0.2024739E+03  0.7818608E-02  0.1147668E+00
         -2   -1    0    0    0  501 -0.00000000000E+00  0.00000000000E+00  0.28278045888E+02  0.28278046003E+02  0.25500000000E-02 0. -1.
          2   -1    0    0  501    0  0.00000000000E+00 -0.00000000000E+00 -0.36243395836E+03  0.36243395837E+03  0.25500000000E-02 0.  1.
    5000001    1    1    2    0    0 -0.44111602614E+02  0.30822619242E+02 -0.94257855697E+02  0.13307670984E+03  0.77000000000E+02 0.  0.
   -5000001    1    1    2    0    0  0.44111602614E+02 -0.30822619242E+02 -0.23989805677E+03  0.25763529453E+03  0.77000000000E+02 0.  0.
<mgrwt>
<rscale>  0 0.20247394E+03</rscale>
<asrwt>0</asrwt>
<pdfrwt beam="1">  1        2 0.55759067E-01 0.20247394E+03</pdfrwt>
<pdfrwt beam="2">  1       -2 0.43504689E-02 0.20247394E+03</pdfrwt>
<totfact> 0.20859552E+04</totfact>
</mgrwt>
</event>
<event>
 4    1  0.6122885E-004  0.2504074E+03  0.7818608E-02  0.1113048E+00
         -2   -1    0    0    0  501 -0.00000000000E+00  0.00000000000E+00  0.85444391431E+02  0.85444391469E+02  0.25500000000E-02 0. -1.
          2   -1    0    0  501    0  0.00000000000E+00 -0.00000000000E+00 -0.18346399986E+03  0.18346399988E+03  0.25500000000E-02 0.  1.
    5000001    1    1    2    0    0  0.36671920011E+02 -0.75295479555E+02 -0.10514762901E+03  0.15491695467E+03  0.77000000000E+02 0.  0.
   -5000001    1    1    2    0    0 -0.36671920011E+02  0.75295479555E+02  0.71280205747E+01  0.11399143668E+03  0.77000000000E+02 0.  0.
<mgrwt>
<rscale>  0 0.25040743E+03</rscale>
<asrwt>0</asrwt>
<pdfrwt beam="1">  1        2 0.28225231E-01 0.25040743E+03</pdfrwt>
<pdfrwt beam="2">  1       -2 0.13145291E-01 0.25040743E+03</pdfrwt>
<totfact> 0.78816002E+03</totfact>
</mgrwt>
</event>
<event>
 4    1  0.6122885E-004  0.1724545E+03  0.7818608E-02  0.1175312E+00
         -2   -1    0    0    0  501 -0.00000000000E+00  0.00000000000E+00  0.52429781475E+01  0.52429787676E+01  0.25500000000E-02 0. -1.
          2   -1    0    0  501    0  0.00000000000E+00 -0.00000000000E+00 -0.14181131303E+04  0.14181131303E+04  0.25500000000E-02 0.  1.
    5000001    1    1    2    0    0 -0.38681117524E+02  0.26315121985E+01 -0.72068975634E+03  0.72582771965E+03  0.77000000000E+02 0.  0.
   -5000001    1    1    2    0    0  0.38681117524E+02 -0.26315121985E+01 -0.69218039586E+03  0.69752838947E+03  0.77000000000E+02 0.  0.
<mgrwt>
<rscale>  0 0.17245448E+03</rscale>
<asrwt>0</asrwt>
<pdfrwt beam="1">  1        2 0.21817095E+00 0.17245448E+03</pdfrwt>
<pdfrwt beam="2">  1       -2 0.80661320E-03 0.17245448E+03</pdfrwt>
<totfact> 0.42642791E+04</totfact>
</mgrwt>
</event>
<event>
 4    1  0.6122885E-004  0.2984590E+03  0.7818608E-02  0.1086013E+00
          2   -1    0    0  501    0  0.00000000000E+00  0.00000000000E+00  0.90601777085E+03  0.90601777085E+03  0.25500000000E-02 0.  1.
         -2   -1    0    0    0  501 -0.00000000000E+00 -0.00000000000E+00 -0.24579480000E+02  0.24579480132E+02  0.25500000000E-02 0. -1.
    5000001    1    1    2    0    0 -0.13966298599E+02  0.11706198373E+03  0.28664163834E+03  0.31936028927E+03  0.77000000000E+02 0.  0.
   -5000001    1    1    2    0    0  0.13966298599E+02 -0.11706198373E+03  0.59479665251E+03  0.61123696171E+03  0.77000000000E+02 0.  0.
<mgrwt>
<rscale>  0 0.29845901E+03</rscale>
<asrwt>0</asrwt>
<pdfrwt beam="1">  1        2 0.13938734E+00 0.29845901E+03</pdfrwt>
<pdfrwt beam="2">  1       -2 0.37814586E-02 0.29845901E+03</pdfrwt>
<totfact> 0.90116090E+03</totfact>
</mgrwt>
</event>
<event>
 4    1  0.6122885E-004  0.2726493E+03  0.7818608E-02  0.1099773E+00
          2   -1    0    0  501    0  0.00000000000E+00  0.00000000000E+00  0.61735059525E+03  0.61735059525E+03  0.25500000000E-02 0.  1.
         -2   -1    0    0    0  501 -0.00000000000E+00 -0.00000000000E+00 -0.30103489824E+02  0.30103489932E+02  0.25500000000E-02 0. -1.
    5000001    1    1    2    0    0 -0.70075895071E+02 -0.61013727123E+02  0.14302141709E+03  0.18712945175E+03  0.77000000000E+02 0.  0.
   -5000001    1    1    2    0    0  0.70075895071E+02  0.61013727123E+02  0.44422568834E+03  0.46032463343E+03  0.77000000000E+02 0.  0.
<mgrwt>
<rscale>  0 0.27264928E+03</rscale>
<asrwt>0</asrwt>
<pdfrwt beam="1">  1        2 0.94977010E-01 0.27264928E+03</pdfrwt>
<pdfrwt beam="2">  1       -2 0.46313064E-02 0.27264928E+03</pdfrwt>
<totfact> 0.10682065E+04</totfact>
</mgrwt>
</event>
<event>
 4    1  0.6122885E-004  0.1959049E+03  0.7818608E-02  0.1153241E+00
          2   -1    0    0  501    0  0.00000000000E+00  0.00000000000E+00  0.24998262222E+04  0.24998262222E+04  0.25500000000E-02 0.  1.
         -2   -1    0    0    0  501 -0.00000000000E+00 -0.00000000000E+00 -0.38381401382E+01  0.38381409853E+01  0.25500000000E-02 0. -1.
    5000001    1    1    2    0    0  0.26532990590E+02  0.53667061525E+02  0.13633906532E+04  0.13668749856E+04  0.77000000000E+02 0.  0.
   -5000001    1    1    2    0    0 -0.26532990590E+02 -0.53667061525E+02  0.11325974289E+04  0.11367893776E+04  0.77000000000E+02 0.  0.
<mgrwt>
<rscale>  0 0.19590492E+03</rscale>
<asrwt>0</asrwt>
<pdfrwt beam="1">  1        2 0.38458881E+00 0.19590492E+03</pdfrwt>
<pdfrwt beam="2">  1       -2 0.59048292E-03 0.19590492E+03</pdfrwt>
<totfact> 0.18189059E+04</totfact>
</mgrwt>
</event>
<event>
 4    1  0.6122885E-004  0.1719944E+03  0.7818608E-02  0.1175784E+00
         -2   -1    0    0    0  501 -0.00000000000E+00  0.00000000000E+00  0.36231788159E+02  0.36231788248E+02  0.25500000000E-02 0. -1.
          2   -1    0    0  501    0  0.00000000000E+00 -0.00000000000E+00 -0.20411678327E+03  0.20411678329E+03  0.25500000000E-02 0.  1.
    5000001    1    1    2    0    0  0.99696784663E+01  0.36969689451E+02 -0.83099820249E+02  0.11958567035E+03  0.77000000000E+02 0.  0.
   -5000001    1    1    2    0    0 -0.99696784663E+01 -0.36969689451E+02 -0.84785174862E+02  0.12076290119E+03  0.77000000000E+02 0.  0.
<mgrwt>
<rscale>  0 0.17199437E+03</rscale>
<asrwt>0</asrwt>
<pdfrwt beam="1">  1        2 0.31402581E-01 0.17199437E+03</pdfrwt>
<pdfrwt beam="2">  1       -2 0.55741214E-02 0.17199437E+03</pdfrwt>
<totfact> 0.26214530E+04</totfact>
</mgrwt>
</event>
<event>
 4    1  0.6122885E-004  0.2888149E+03  0.7818608E-02  0.1090970E+00
         -2   -1    0    0    0  501 -0.00000000000E+00  0.00000000000E+00  0.12482665994E+02  0.12482666254E+02  0.25500000000E-02 0. -1.
          2   -1    0    0  501    0  0.00000000000E+00 -0.00000000000E+00 -0.16705979997E+04  0.16705979997E+04  0.25500000000E-02 0.  1.
    5000001    1    1    2    0    0  0.64884148375E+02 -0.52980896902E+02 -0.31084583858E+03  0.33101520133E+03  0.77000000000E+02 0.  0.
   -5000001    1    1    2    0    0 -0.64884148375E+02  0.52980896902E+02 -0.13472694951E+04  0.13520654646E+04  0.77000000000E+02 0.  0.
<mgrwt>
<rscale>  0 0.28881494E+03</rscale>
<asrwt>0</asrwt>
<pdfrwt beam="1">  1        2 0.25701490E+00 0.28881494E+03</pdfrwt>
<pdfrwt beam="2">  1       -2 0.19204115E-02 0.28881494E+03</pdfrwt>
<totfact> 0.90956909E+03</totfact>
</mgrwt>
</event>
<event>
 4    1  0.6122885E-004  0.1646323E+03  0.7818608E-02  0.1183564E+00
         -2   -1    0    0    0  501 -0.00000000000E+00  0.00000000000E+00  0.33830848234E+01  0.33830857844E+01  0.25500000000E-02 0. -1.
          2   -1    0    0  501    0  0.00000000000E+00 -0.00000000000E+00 -0.20028898958E+04  0.20028898958E+04  0.25500000000E-02 0.  1.
    5000001    1    1    2    0    0 -0.28366798149E+02 -0.63864638586E+01 -0.10146048946E+04  0.10179378932E+04  0.77000000000E+02 0.  0.
   -5000001    1    1    2    0    0  0.28366798149E+02  0.63864638586E+01 -0.98490191630E+03  0.98833508837E+03  0.77000000000E+02 0.  0.
<mgrwt>
<rscale>  0 0.16463229E+03</rscale>
<asrwt>0</asrwt>
<pdfrwt beam="1">  1        2 0.30813596E+00 0.16463229E+03</pdfrwt>
<pdfrwt beam="2">  1       -2 0.52047626E-03 0.16463229E+03</pdfrwt>
<totfact> 0.39497120E+04</totfact>
</mgrwt>
</event>
<event>
 4    1  0.6122885E-004  0.4703376E+03  0.7818608E-02  0.1021825E+00
         -2   -1    0    0    0  501 -0.00000000000E+00  0.00000000000E+00  0.85991980982E+02  0.85991981020E+02  0.25500000000E-02 0. -1.
          2   -1    0    0  501    0  0.00000000000E+00 -0.00000000000E+00 -0.64313391313E+03  0.64313391314E+03  0.25500000000E-02 0.  1.
    5000001    1    1    2    0    0 -0.50344252799E+00  0.19505527505E+03 -0.11357249502E+03  0.23848380533E+03  0.77000000000E+02 0.  0.
   -5000001    1    1    2    0    0  0.50344252799E+00 -0.19505527505E+03 -0.44356943713E+03  0.49064208883E+03  0.77000000000E+02 0.  0.
<mgrwt>
<rscale>  0 0.47033758E+03</rscale>
<asrwt>0</asrwt>
<pdfrwt beam="1">  1        2 0.98943676E-01 0.47033758E+03</pdfrwt>
<pdfrwt beam="2">  1       -2 0.13229536E-01 0.47033758E+03</pdfrwt>
<totfact> 0.19678089E+03</totfact>
</mgrwt>
</event>
<event>
 4    1  0.6122885E-004  0.6172315E+03  0.7818608E-02  0.9870287E-01
          2   -1    0    0  501    0  0.00000000000E+00  0.00000000000E+00  0.37050383885E+04  0.37050383885E+04  0.25500000000E-02 0.  1.
         -2   -1    0    0    0  501 -0.00000000000E+00 -0.00000000000E+00 -0.25706526185E+02  0.25706526312E+02  0.25500000000E-02 0. -1.
    5000001    1    1    2    0    0 -0.21320383903E+03  0.20895643191E+03  0.17550456179E+04  0.17819182889E+04  0.77000000000E+02 0.  0.
   -5000001    1    1    2    0    0  0.21320383903E+03 -0.20895643191E+03  0.19242862444E+04  0.19488266259E+04  0.77000000000E+02 0.  0.
<mgrwt>
<rscale>  0 0.61723145E+03</rscale>
<asrwt>0</asrwt>
<pdfrwt beam="1">  1        2 0.57000573E+00 0.61723145E+03</pdfrwt>
<pdfrwt beam="2">  1       -2 0.39548514E-02 0.61723145E+03</pdfrwt>
<totfact> 0.19015486E+02</totfact>
</mgrwt>
</event>
<event>
 4    1  0.6122885E-004  0.3910575E+03  0.7818608E-02  0.1046921E+00
         -2   -1    0    0    0  501 -0.00000000000E+00  0.00000000000E+00  0.18487316357E+03  0.18487316359E+03  0.25500000000E-02 0. -1.
          2   -1    0    0  501    0  0.00000000000E+00 -0.00000000000E+00 -0.20679854657E+03  0.20679854659E+03  0.25500000000E-02 0.  1.
    5000001    1    1    2    0    0  0.24682981177E+02  0.17801544242E+03 -0.12903318385E+02  0.19594448940E+03  0.77000000000E+02 0.  0.
   -5000001    1    1    2    0    0 -0.24682981177E+02 -0.17801544242E+03 -0.90220646187E+01  0.19572722077E+03  0.77000000000E+02 0.  0.
<mgrwt>
<rscale>  0 0.39105755E+03</rscale>
<asrwt>0</asrwt>
<pdfrwt beam="1">  1        2 0.31815161E-01 0.39105755E+03</pdfrwt>
<pdfrwt beam="2">  1       -2 0.28442025E-01 0.39105755E+03</pdfrwt>
<totfact> 0.18643059E+03</totfact>
</mgrwt>
</event>
<event>
 4    1  0.6122885E-004  0.3519951E+03  0.7818608E-02  0.1061799E+00
          2   -1    0    0  501    0  0.00000000000E+00  0.00000000000E+00  0.25259791084E+04  0.25259791084E+04  0.25500000000E-02 0.  1.
         -2   -1    0    0    0  501 -0.00000000000E+00 -0.00000000000E+00 -0.12262628203E+02  0.12262628468E+02  0.25500000000E-02 0. -1.
    5000001    1    1    2    0    0 -0.11594171277E+03  0.22246552786E+02  0.20168851738E+04  0.20218041928E+04  0.77000000000E+02 0.  0.
   -5000001    1    1    2    0    0  0.11594171277E+03 -0.22246552786E+02  0.49683130638E+03  0.51643754402E+03  0.77000000000E+02 0.  0.
<mgrwt>
<rscale>  0 0.35199513E+03</rscale>
<asrwt>0</asrwt>
<pdfrwt beam="1">  1        2 0.38861228E+00 0.35199513E+03</pdfrwt>
<pdfrwt beam="2">  1       -2 0.18865577E-02 0.35199513E+03</pdfrwt>
<totfact> 0.32539166E+03</totfact>
</mgrwt>
</event>
<event>
 4    1  0.6122885E-004  0.3344489E+03  0.7818608E-02  0.1069185E+00
         -2   -1    0    0    0  501 -0.00000000000E+00  0.00000000000E+00  0.42420682319E+02  0.42420682395E+02  0.25500000000E-02 0.  1.
          2   -1    0    0  501    0  0.00000000000E+00 -0.00000000000E+00 -0.65920711780E+03  0.65920711780E+03  0.25500000000E-02 0. -1.
    5000001    1    1    2    0    0  0.28055319192E+02  0.97545575403E+02 -0.81157076978E+02  0.15105532549E+03  0.77000000000E+02 0.  0.
   -5000001    1    1    2    0    0 -0.28055319192E+02 -0.97545575403E+02 -0.53562935850E+03  0.55057247471E+03  0.77000000000E+02 0.  0.
<mgrwt>
<rscale>  0 0.33444889E+03</rscale>
<asrwt>0</asrwt>
<pdfrwt beam="1">  1        2 0.10141647E+00 0.33444889E+03</pdfrwt>
<pdfrwt beam="2">  1       -2 0.65262593E-02 0.33444889E+03</pdfrwt>
<totfact> 0.58810039E+03</totfact>
</mgrwt>
</event>
<event>
 4    1  0.6122885E-004  0.2211746E+03  0.7818608E-02  0.1133010E+00
         -2   -1    0    0    0  501 -0.00000000000E+00  0.00000000000E+00  0.30971108754E+02  0.30971108859E+02  0.25500000000E-02 0. -1.
          2   -1    0    0  501    0  0.00000000000E+00 -0.00000000000E+00 -0.39486957466E+03  0.39486957467E+03  0.25500000000E-02 0.  1.
    5000001    1    1    2    0    0 -0.55401400193E+02  0.50744842021E+02 -0.23126981705E+03  0.25506681950E+03  0.77000000000E+02 0.  0.
   -5000001    1    1    2    0    0  0.55401400193E+02 -0.50744842021E+02 -0.13262864886E+03  0.17077386403E+03  0.77000000000E+02 0.  0.
<mgrwt>
<rscale>  0 0.22117458E+03</rscale>
<asrwt>0</asrwt>
<pdfrwt beam="1">  1        2 0.60749162E-01 0.22117458E+03</pdfrwt>
<pdfrwt beam="2">  1       -2 0.47647863E-02 0.22117458E+03</pdfrwt>
<totfact> 0.16682927E+04</totfact>
</mgrwt>
</event>
<event>
 4    1  0.6122885E-004  0.1579575E+03  0.7818608E-02  0.1191022E+00
         -2   -1    0    0    0  501 -0.00000000000E+00  0.00000000000E+00  0.22572396699E+02  0.22572396843E+02  0.25500000000E-02 0. -1.
          2   -1    0    0  501    0  0.00000000000E+00 -0.00000000000E+00 -0.27633927869E+03  0.27633927870E+03  0.25500000000E-02 0.  1.
    5000001    1    1    2    0    0 -0.14316246559E+02  0.10014521605E+02 -0.13036983944E+03  0.15241568356E+03  0.77000000000E+02 0.  0.
   -5000001    1    1    2    0    0  0.14316246559E+02 -0.10014521605E+02 -0.12339704255E+03  0.14649599199E+03  0.77000000000E+02 0.  0.
<mgrwt>
<rscale>  0 0.15795746E+03</rscale>
<asrwt>0</asrwt>
<pdfrwt beam="1">  1        2 0.42513733E-01 0.15795746E+03</pdfrwt>
<pdfrwt beam="2">  1       -2 0.34726766E-02 0.15795746E+03</pdfrwt>
<totfact> 0.38169234E+04</totfact>
</mgrwt>
</event>
<event>
 4    1  0.6122885E-004  0.2043083E+03  0.7818608E-02  0.1146154E+00
         -2   -1    0    0    0  501 -0.00000000000E+00  0.00000000000E+00  0.28320816037E+02  0.28320816152E+02  0.25500000000E-02 0. -1.
          2   -1    0    0  501    0  0.00000000000E+00 -0.00000000000E+00 -0.36847361153E+03  0.36847361154E+03  0.25500000000E-02 0.  1.
    5000001    1    1    2    0    0 -0.50938690935E+02 -0.41303993638E+02 -0.14222159511E+03  0.17451863006E+03  0.77000000000E+02 0.  0.
   -5000001    1    1    2    0    0  0.50938690935E+02  0.41303993638E+02 -0.19793120039E+03  0.22227579763E+03  0.77000000000E+02 0.  0.
<mgrwt>
<rscale>  0 0.20430833E+03</rscale>
<asrwt>0</asrwt>
<pdfrwt beam="1">  1        2 0.56688245E-01 0.20430833E+03</pdfrwt>
<pdfrwt beam="2">  1       -2 0.43570489E-02 0.20430833E+03</pdfrwt>
<totfact> 0.20458841E+04</totfact>
</mgrwt>
</event>
<event>
 4    1  0.6122885E-004  0.2164549E+03  0.7818608E-02  0.1136554E+00
          2   -1    0    0  501    0  0.00000000000E+00  0.00000000000E+00  0.62214180721E+03  0.62214180722E+03  0.25500000000E-02 0.  1.
         -2   -1    0    0    0  501 -0.00000000000E+00 -0.00000000000E+00 -0.18827181680E+02  0.18827181853E+02  0.25500000000E-02 0. -1.
    5000001    1    1    2    0    0 -0.62529625686E+02  0.17294833167E+02  0.18413364695E+03  0.20986487386E+03  0.77000000000E+02 0.  0.
   -5000001    1    1    2    0    0  0.62529625686E+02 -0.17294833167E+02  0.41918097859E+03  0.43110411521E+03  0.77000000000E+02 0.  0.
<mgrwt>
<rscale>  0 0.21645486E+03</rscale>
<asrwt>0</asrwt>
<pdfrwt beam="1">  1        2 0.95714124E-01 0.21645486E+03</pdfrwt>
<pdfrwt beam="2">  1       -2 0.28964895E-02 0.21645486E+03</pdfrwt>
<totfact> 0.21119120E+04</totfact>
</mgrwt>
</event>
<event>
 4    1  0.6122885E-004  0.1975612E+03  0.7818608E-02  0.1151813E+00
          2   -1    0    0  501    0  0.00000000000E+00  0.00000000000E+00  0.25159145866E+03  0.25159145867E+03  0.25500000000E-02 0.  1.
         -2   -1    0    0    0  501 -0.00000000000E+00 -0.00000000000E+00 -0.38783544757E+02  0.38783544841E+02  0.25500000000E-02 0. -1.
    5000001    1    1    2    0    0  0.13885874403E+02  0.48347241766E+02  0.53443591803E+02  0.10637429576E+03  0.77000000000E+02 0.  0.
   -5000001    1    1    2    0    0 -0.13885874403E+02 -0.48347241766E+02  0.15936432210E+03  0.18400070775E+03  0.77000000000E+02 0.  0.
<mgrwt>
<rscale>  0 0.19756122E+03</rscale>
<asrwt>0</asrwt>
<pdfrwt beam="1">  1        2 0.38706377E-01 0.19756122E+03</pdfrwt>
<pdfrwt beam="2">  1       -2 0.59666995E-02 0.19756122E+03</pdfrwt>
<totfact> 0.19079758E+04</totfact>
</mgrwt>
</event>
<event>
 4    1  0.6122885E-004  0.1881742E+03  0.7818608E-02  0.1160119E+00
          2   -1    0    0  501    0  0.00000000000E+00  0.00000000000E+00  0.42429158082E+04  0.42429158082E+04  0.25500000000E-02 0.  1.
         -2   -1    0    0    0  501 -0.00000000000E+00 -0.00000000000E+00 -0.20863894319E+01  0.20863909903E+01  0.25500000000E-02 0. -1.
    5000001    1    1    2    0    0  0.44268664769E+02 -0.45037237167E+01  0.28132998311E+04  0.28147051245E+04  0.77000000000E+02 0.  0.
   -5000001    1    1    2    0    0 -0.44268664769E+02  0.45037237167E+01  0.14275295876E+04  0.14302970747E+04  0.77000000000E+02 0.  0.
<mgrwt>
<rscale>  0 0.18817415E+03</rscale>
<asrwt>0</asrwt>
<pdfrwt beam="1">  1        2 0.65276023E+00 0.18817415E+03</pdfrwt>
<pdfrwt beam="2">  1       -2 0.32098116E-03 0.18817415E+03</pdfrwt>
<totfact> 0.31866270E+03</totfact>
</mgrwt>
</event>
<event>
 4    1  0.6122885E-004  0.2883112E+03  0.7818608E-02  0.1091234E+00
         -2   -1    0    0    0  501 -0.00000000000E+00  0.00000000000E+00  0.29936218998E+02  0.29936219106E+02  0.25500000000E-02 0. -1.
          2   -1    0    0  501    0  0.00000000000E+00 -0.00000000000E+00 -0.69417016220E+03  0.69417016220E+03  0.25500000000E-02 0.  1.
    5000001    1    1    2    0    0 -0.33249629012E+02 -0.87683943820E+02 -0.52759549596E+03  0.54136865369E+03  0.77000000000E+02 0.  0.
   -5000001    1    1    2    0    0  0.33249629012E+02  0.87683943820E+02 -0.13663844724E+03  0.18273772762E+03  0.77000000000E+02 0.  0.
<mgrwt>
<rscale>  0 0.28831115E+03</rscale>
<asrwt>0</asrwt>
<pdfrwt beam="1">  1        2 0.10679540E+00 0.28831115E+03</pdfrwt>
<pdfrwt beam="2">  1       -2 0.46055727E-02 0.28831115E+03</pdfrwt>
<totfact> 0.93872110E+03</totfact>
</mgrwt>
</event>
<event>
 4    1  0.6122885E-004  0.1773016E+03  0.7818608E-02  0.1170440E+00
         -2   -1    0    0    0  501 -0.00000000000E+00  0.00000000000E+00  0.60186893991E+01  0.60186899393E+01  0.25500000000E-02 0. -1.
          2   -1    0    0  501    0  0.00000000000E+00 -0.00000000000E+00 -0.13057596593E+04  0.13057596593E+04  0.25500000000E-02 0.  1.
    5000001    1    1    2    0    0  0.18719446690E+02 -0.37469871798E+02 -0.74789895772E+03  0.75301810067E+03  0.77000000000E+02 0.  0.
   -5000001    1    1    2    0    0 -0.18719446690E+02  0.37469871798E+02 -0.55184201219E+03  0.55876024858E+03  0.77000000000E+02 0.  0.
<mgrwt>
<rscale>  0 0.17730158E+03</rscale>
<asrwt>0</asrwt>
<pdfrwt beam="1">  1        2 0.20088588E+00 0.17730158E+03</pdfrwt>
<pdfrwt beam="2">  1       -2 0.92595330E-03 0.17730158E+03</pdfrwt>
<totfact> 0.40288528E+04</totfact>
</mgrwt>
</event>
<event>
 4    1  0.6122885E-004  0.2195505E+03  0.7818608E-02  0.1134219E+00
          2   -1    0    0  501    0  0.00000000000E+00  0.00000000000E+00  0.10657760538E+04  0.10657760538E+04  0.25500000000E-02 0.  1.
         -2   -1    0    0    0  501 -0.00000000000E+00 -0.00000000000E+00 -0.11306884579E+02  0.11306884866E+02  0.25500000000E-02 0. -1.
    5000001    1    1    2    0    0 -0.28616148973E+02 -0.68401258194E+02  0.40468726677E+03  0.41856707944E+03  0.77000000000E+02 0.  0.
   -5000001    1    1    2    0    0  0.28616148973E+02  0.68401258194E+02  0.64978190249E+03  0.65851585927E+03  0.77000000000E+02 0.  0.
<mgrwt>
<rscale>  0 0.21955051E+03</rscale>
<asrwt>0</asrwt>
<pdfrwt beam="1">  1        2 0.16396557E+00 0.21955051E+03</pdfrwt>
<pdfrwt beam="2">  1       -2 0.17395205E-02 0.21955051E+03</pdfrwt>
<totfact> 0.22398260E+04</totfact>
</mgrwt>
</event>
<event>
 4    1  0.6122885E-004  0.2209371E+03  0.7818608E-02  0.1133186E+00
         -2   -1    0    0    0  501 -0.00000000000E+00  0.00000000000E+00  0.33602661768E+01  0.33602671443E+01  0.25500000000E-02 0. -1.
          2   -1    0    0  501    0  0.00000000000E+00 -0.00000000000E+00 -0.36316452168E+04  0.36316452168E+04  0.25500000000E-02 0.  1.
    5000001    1    1    2    0    0  0.38615091097E+02 -0.65750960746E+02 -0.14612787362E+04  0.14652913904E+04  0.77000000000E+02 0.  0.
   -5000001    1    1    2    0    0 -0.38615091097E+02  0.65750960746E+02 -0.21670062145E+04  0.21697140936E+04  0.77000000000E+02 0.  0.
<mgrwt>
<rscale>  0 0.22093706E+03</rscale>
<asrwt>0</asrwt>
<pdfrwt beam="1">  1        2 0.55871151E+00 0.22093706E+03</pdfrwt>
<pdfrwt beam="2">  1       -2 0.51696700E-03 0.22093706E+03</pdfrwt>
<totfact> 0.46034992E+03</totfact>
</mgrwt>
</event>
<event>
 4    1  0.6122885E-004  0.2479536E+03  0.7818608E-02  0.1114605E+00
         -2   -1    0    0    0  501 -0.00000000000E+00  0.00000000000E+00  0.82046378101E+02  0.82046378140E+02  0.25500000000E-02 0. -1.
          2   -1    0    0  501    0  0.00000000000E+00 -0.00000000000E+00 -0.18733615503E+03  0.18733615505E+03  0.25500000000E-02 0.  1.
    5000001    1    1    2    0    0 -0.80614544696E+02  0.46711348634E+02 -0.82607285100E+02  0.14640224882E+03  0.77000000000E+02 0.  0.
   -5000001    1    1    2    0    0  0.80614544696E+02 -0.46711348634E+02 -0.22682491829E+02  0.12298028437E+03  0.77000000000E+02 0.  0.
<mgrwt>
<rscale>  0 0.24795365E+03</rscale>
<asrwt>0</asrwt>
<pdfrwt beam="1">  1        2 0.28820947E-01 0.24795365E+03</pdfrwt>
<pdfrwt beam="2">  1       -2 0.12622520E-01 0.24795365E+03</pdfrwt>
<totfact> 0.82234639E+03</totfact>
</mgrwt>
</event>
<event>
 4    1  0.6122885E-004  0.1696475E+03  0.7818608E-02  0.1178216E+00
         -2   -1    0    0    0  501 -0.00000000000E+00  0.00000000000E+00  0.14387888887E+02  0.14387889113E+02  0.25500000000E-02 0. -1.
          2   -1    0    0  501    0  0.00000000000E+00 -0.00000000000E+00 -0.50007796412E+03  0.50007796413E+03  0.25500000000E-02 0.  1.
    5000001    1    1    2    0    0  0.27835918560E+02 -0.12368618582E+02 -0.18707191601E+03  0.20457938031E+03  0.77000000000E+02 0.  0.
   -5000001    1    1    2    0    0 -0.27835918560E+02  0.12368618582E+02 -0.29861815923E+03  0.30988647294E+03  0.77000000000E+02 0.  0.
<mgrwt>
<rscale>  0 0.16964747E+03</rscale>
<asrwt>0</asrwt>
<pdfrwt beam="1">  1        2 0.76935058E-01 0.16964747E+03</pdfrwt>
<pdfrwt beam="2">  1       -2 0.22135218E-02 0.16964747E+03</pdfrwt>
<totfact> 0.39413527E+04</totfact>
</mgrwt>
</event>
<event>
 4    1  0.6122885E-004  0.2916062E+03  0.7818608E-02  0.1089514E+00
          2   -1    0    0  501    0  0.00000000000E+00  0.00000000000E+00  0.10371769024E+04  0.10371769024E+04  0.25500000000E-02 0.  1.
         -2   -1    0    0    0  501 -0.00000000000E+00 -0.00000000000E+00 -0.20496543741E+02  0.20496543900E+02  0.25500000000E-02 0. -1.
    5000001    1    1    2    0    0 -0.65830551207E+02  0.10352007731E+03  0.44770487816E+03  0.47055151239E+03  0.77000000000E+02 0.  0.
   -5000001    1    1    2    0    0  0.65830551207E+02 -0.10352007731E+03  0.56897548047E+03  0.58712193389E+03  0.77000000000E+02 0.  0.
<mgrwt>
<rscale>  0 0.29160619E+03</rscale>
<asrwt>0</asrwt>
<pdfrwt beam="1">  1        2 0.15956567E+00 0.29160619E+03</pdfrwt>
<pdfrwt beam="2">  1       -2 0.31533146E-02 0.29160619E+03</pdfrwt>
<totfact> 0.97944297E+03</totfact>
</mgrwt>
</event>
<event>
 4    1  0.6122885E-004  0.6315722E+03  0.7818608E-02  0.9841986E-01
          2   -1    0    0  501    0  0.00000000000E+00  0.00000000000E+00  0.43363272752E+03  0.43363272753E+03  0.25500000000E-02 0.  1.
         -2   -1    0    0    0  501 -0.00000000000E+00 -0.00000000000E+00 -0.22996616121E+03  0.22996616123E+03  0.25500000000E-02 0. -1.
    5000001    1    1    2    0    0  0.19749793407E+01  0.30602771060E+03  0.11404113202E+03  0.33554618161E+03  0.77000000000E+02 0.  0.
   -5000001    1    1    2    0    0 -0.19749793407E+01 -0.30602771060E+03  0.89625434292E+02  0.32805270715E+03  0.77000000000E+02 0.  0.
<mgrwt>
<rscale>  0 0.63157218E+03</rscale>
<asrwt>0</asrwt>
<pdfrwt beam="1">  1        2 0.66712727E-01 0.63157218E+03</pdfrwt>
<pdfrwt beam="2">  1       -2 0.35379409E-01 0.63157218E+03</pdfrwt>
<totfact> 0.54834089E+02</totfact>
</mgrwt>
</event>
<event>
 4    1  0.6122885E-004  0.2321880E+03  0.7818608E-02  0.1125109E+00
          2   -1    0    0  501    0  0.00000000000E+00  0.00000000000E+00  0.93032184082E+03  0.93032184082E+03  0.25500000000E-02 0.  1.
         -2   -1    0    0    0  501 -0.00000000000E+00 -0.00000000000E+00 -0.14487263271E+02  0.14487263496E+02  0.25500000000E-02 0. -1.
    5000001    1    1    2    0    0 -0.68437441822E+02 -0.23589758775E+02  0.65343406615E+03  0.66192540287E+03  0.77000000000E+02 0.  0.
   -5000001    1    1    2    0    0  0.68437441822E+02  0.23589758775E+02  0.26240051140E+03  0.28288370145E+03  0.77000000000E+02 0.  0.
<mgrwt>
<rscale>  0 0.23218801E+03</rscale>
<asrwt>0</asrwt>
<pdfrwt beam="1">  1        2 0.14312643E+00 0.23218801E+03</pdfrwt>
<pdfrwt beam="2">  1       -2 0.22288099E-02 0.23218801E+03</pdfrwt>
<totfact> 0.18896964E+04</totfact>
</mgrwt>
</event>
<event>
 4    1  0.6122885E-004  0.2730763E+03  0.7818608E-02  0.1099532E+00
         -2   -1    0    0    0  501 -0.00000000000E+00  0.00000000000E+00  0.10472018141E+02  0.10472018451E+02  0.25500000000E-02 0. -1.
          2   -1    0    0  501    0  0.00000000000E+00 -0.00000000000E+00 -0.17802361243E+04  0.17802361243E+04  0.25500000000E-02 0.  1.
    5000001    1    1    2    0    0 -0.11105497882E+03 -0.90662828830E+01 -0.77163212699E+03  0.78342871099E+03  0.77000000000E+02 0.  0.
   -5000001    1    1    2    0    0  0.11105497882E+03  0.90662828830E+01 -0.99813197918E+03  0.10072794318E+04  0.77000000000E+02 0.  0.
<mgrwt>
<rscale>  0 0.27307629E+03</rscale>
<asrwt>0</asrwt>
<pdfrwt beam="1">  1        2 0.27388224E+00 0.27307629E+03</pdfrwt>
<pdfrwt beam="2">  1       -2 0.16110812E-02 0.27307629E+03</pdfrwt>
<totfact> 0.10297584E+04</totfact>
</mgrwt>
</event>
<event>
 4    1  0.6122885E-004  0.1845544E+03  0.7818608E-02  0.1163467E+00
          2   -1    0    0  501    0  0.00000000000E+00  0.00000000000E+00  0.12569763587E+03  0.12569763590E+03  0.25500000000E-02 0.  1.
         -2   -1    0    0    0  501 -0.00000000000E+00 -0.00000000000E+00 -0.67742565538E+02  0.67742565586E+02  0.25500000000E-02 0. -1.
    5000001    1    1    2    0    0 -0.31596163792E+02  0.39029209804E+02  0.20560737949E+02  0.94198411501E+02  0.77000000000E+02 0.  0.
   -5000001    1    1    2    0    0  0.31596163792E+02 -0.39029209804E+02  0.37394332383E+02  0.99241789981E+02  0.77000000000E+02 0.  0.
<mgrwt>
<rscale>  0 0.18455439E+03</rscale>
<asrwt>0</asrwt>
<pdfrwt beam="1">  1        2 0.19338098E-01 0.18455439E+03</pdfrwt>
<pdfrwt beam="2">  1       -2 0.10421933E-01 0.18455439E+03</pdfrwt>
<totfact> 0.17156364E+04</totfact>
</mgrwt>
</event>
<event>
 4    1  0.6122885E-004  0.1690525E+03  0.7818608E-02  0.1178840E+00
          2   -1    0    0  501    0  0.00000000000E+00  0.00000000000E+00  0.10653235232E+04  0.10653235232E+04  0.25500000000E-02 0.  1.
         -2   -1    0    0    0  501 -0.00000000000E+00 -0.00000000000E+00 -0.67065882674E+01  0.67065887522E+01  0.25500000000E-02 0. -1.
    5000001    1    1    2    0    0 -0.20058017556E+02  0.20214582027E+02  0.65688469807E+03  0.66199506037E+03  0.77000000000E+02 0.  0.
   -5000001    1    1    2    0    0  0.20058017556E+02 -0.20214582027E+02  0.40173223688E+03  0.41003505160E+03  0.77000000000E+02 0.  0.
<mgrwt>
<rscale>  0 0.16905249E+03</rscale>
<asrwt>0</asrwt>
<pdfrwt beam="1">  1        2 0.16389588E+00 0.16905249E+03</pdfrwt>
<pdfrwt beam="2">  1       -2 0.10317832E-02 0.16905249E+03</pdfrwt>
<totfact> 0.46910891E+04</totfact>
</mgrwt>
</event>
<event>
 4    1  0.6122885E-004  0.1959436E+03  0.7818608E-02  0.1153207E+00
         -2   -1    0    0    0  501 -0.00000000000E+00  0.00000000000E+00  0.76507250578E+02  0.76507250620E+02  0.25500000000E-02 0. -1.
          2   -1    0    0  501    0  0.00000000000E+00 -0.00000000000E+00 -0.12545841316E+03  0.12545841319E+03  0.25500000000E-02 0.  1.
    5000001    1    1    2    0    0 -0.30812668319E+02  0.42476477152E+02 -0.55667941832E+02  0.10854303933E+03  0.77000000000E+02 0.  0.
   -5000001    1    1    2    0    0  0.30812668319E+02 -0.42476477152E+02  0.67167792474E+01  0.93422624474E+02  0.77000000000E+02 0.  0.
<mgrwt>
<rscale>  0 0.19594365E+03</rscale>
<asrwt>0</asrwt>
<pdfrwt beam="1">  1        2 0.19301294E-01 0.19594365E+03</pdfrwt>
<pdfrwt beam="2">  1       -2 0.11770346E-01 0.19594365E+03</pdfrwt>
<totfact> 0.14226532E+04</totfact>
</mgrwt>
</event>
<event>
 4    1  0.6122885E-004  0.5529908E+03  0.7818608E-02  0.1000804E+00
          2   -1    0    0  501    0  0.00000000000E+00  0.00000000000E+00  0.32516881614E+03  0.32516881615E+03  0.25500000000E-02 0.  1.
         -2   -1    0    0    0  501 -0.00000000000E+00 -0.00000000000E+00 -0.23510777100E+03  0.23510777101E+03  0.25500000000E-02 0. -1.
    5000001    1    1    2    0    0 -0.13135342597E+03  0.18122425727E+03  0.18982868161E+03  0.30341371475E+03  0.77000000000E+02 0.  0.
   -5000001    1    1    2    0    0  0.13135342597E+03 -0.18122425727E+03 -0.99767636470E+02  0.25686287241E+03  0.77000000000E+02 0.  0.
<mgrwt>
<rscale>  0 0.55299083E+03</rscale>
<asrwt>0</asrwt>
<pdfrwt beam="1">  1        2 0.50025972E-01 0.55299083E+03</pdfrwt>
<pdfrwt beam="2">  1       -2 0.36170426E-01 0.55299083E+03</pdfrwt>
<totfact> 0.72549427E+02</totfact>
</mgrwt>
</event>
<event>
 4    1  0.6122885E-004  0.1976818E+03  0.7818608E-02  0.1151710E+00
          2   -1    0    0  501    0  0.00000000000E+00  0.00000000000E+00  0.38593760644E+04  0.38593760644E+04  0.25500000000E-02 0.  1.
         -2   -1    0    0    0  501 -0.00000000000E+00 -0.00000000000E+00 -0.25313742452E+01  0.25313755296E+01  0.25500000000E-02 0. -1.
    5000001    1    1    2    0    0  0.50130330855E+01 -0.61534116226E+02  0.20335354982E+04  0.20359290755E+04  0.77000000000E+02 0.  0.
   -5000001    1    1    2    0    0 -0.50130330855E+01  0.61534116226E+02  0.18233091919E+04  0.18259783644E+04  0.77000000000E+02 0.  0.
<mgrwt>
<rscale>  0 0.19768184E+03</rscale>
<asrwt>0</asrwt>
<pdfrwt beam="1">  1        2 0.59375247E+00 0.19768184E+03</pdfrwt>
<pdfrwt beam="2">  1       -2 0.38944078E-03 0.19768184E+03</pdfrwt>
<totfact> 0.47849853E+03</totfact>
</mgrwt>
</event>
<event>
 4    1  0.6122885E-004  0.5424300E+03  0.7818608E-02  0.1003261E+00
          2   -1    0    0  501    0  0.00000000000E+00  0.00000000000E+00  0.10384077186E+04  0.10384077186E+04  0.25500000000E-02 0.  1.
         -2   -1    0    0    0  501 -0.00000000000E+00 -0.00000000000E+00 -0.70836899203E+02  0.70836899249E+02  0.25500000000E-02 0. -1.
    5000001    1    1    2    0    0  0.22914688724E+03  0.10162349138E+03  0.62535996117E+03  0.67811482138E+03  0.77000000000E+02 0.  0.
   -5000001    1    1    2    0    0 -0.22914688724E+03 -0.10162349138E+03  0.34221085826E+03  0.43112979651E+03  0.77000000000E+02 0.  0.
<mgrwt>
<rscale>  0 0.54243002E+03</rscale>
<asrwt>0</asrwt>
<pdfrwt beam="1">  1        2 0.15975502E+00 0.54243002E+03</pdfrwt>
<pdfrwt beam="2">  1       -2 0.10897985E-01 0.54243002E+03</pdfrwt>
<totfact> 0.14316238E+03</totfact>
</mgrwt>
</event>
<event>
 4    1  0.6122885E-004  0.1855590E+03  0.7818608E-02  0.1162529E+00
         -2   -1    0    0    0  501 -0.00000000000E+00  0.00000000000E+00  0.63707012143E+01  0.63707017246E+01  0.25500000000E-02 0. -1.
          2   -1    0    0  501    0  0.00000000000E+00 -0.00000000000E+00 -0.13511910483E+04  0.13511910483E+04  0.25500000000E-02 0.  1.
    5000001    1    1    2    0    0  0.28345960927E+02 -0.41825495700E+02 -0.59023241722E+03  0.59737439846E+03  0.77000000000E+02 0.  0.
   -5000001    1    1    2    0    0 -0.28345960927E+02  0.41825495700E+02 -0.75458792983E+03  0.76018735153E+03  0.77000000000E+02 0.  0.
<mgrwt>
<rscale>  0 0.18555899E+03</rscale>
<asrwt>0</asrwt>
<pdfrwt beam="1">  1        2 0.20787532E+00 0.18555899E+03</pdfrwt>
<pdfrwt beam="2">  1       -2 0.98010899E-03 0.18555899E+03</pdfrwt>
<totfact> 0.35189826E+04</totfact>
</mgrwt>
</event>
<event>
 4    1  0.6122885E-004  0.3002601E+03  0.7818608E-02  0.1085111E+00
          2   -1    0    0  501    0  0.00000000000E+00  0.00000000000E+00  0.37015298825E+02  0.37015298913E+02  0.25500000000E-02 0.  1.
         -2   -1    0    0    0  501 -0.00000000000E+00 -0.00000000000E+00 -0.60891124151E+03  0.60891124152E+03  0.25500000000E-02 0. -1.
    5000001    1    1    2    0    0  0.58330710505E+02 -0.11061434587E+03 -0.21887855705E+03  0.26358078085E+03  0.77000000000E+02 0.  0.
   -5000001    1    1    2    0    0 -0.58330710505E+02  0.11061434587E+03 -0.35301738564E+03  0.38234575958E+03  0.77000000000E+02 0.  0.
<mgrwt>
<rscale>  0 0.30026010E+03</rscale>
<asrwt>0</asrwt>
<pdfrwt beam="1">  1        2 0.56946618E-02 0.30026010E+03</pdfrwt>
<pdfrwt beam="2">  1       -2 0.93678645E-01 0.30026010E+03</pdfrwt>
<totfact> 0.13227026E+03</totfact>
</mgrwt>
</event>
<event>
 4    1  0.6122885E-004  0.2252325E+03  0.7818608E-02  0.1130041E+00
         -2   -1    0    0    0  501 -0.00000000000E+00  0.00000000000E+00  0.64100582832E+01  0.64100587904E+01  0.25500000000E-02 0. -1.
          2   -1    0    0  501    0  0.00000000000E+00 -0.00000000000E+00 -0.19785191559E+04  0.19785191559E+04  0.25500000000E-02 0.  1.
    5000001    1    1    2    0    0 -0.32841950553E+02 -0.75323262902E+02 -0.97625703518E+03  0.98273037319E+03  0.77000000000E+02 0.  0.
   -5000001    1    1    2    0    0  0.32841950553E+02  0.75323262902E+02 -0.99585206246E+03  0.10021988415E+04  0.77000000000E+02 0.  0.
<mgrwt>
<rscale>  0 0.22523253E+03</rscale>
<asrwt>0</asrwt>
<pdfrwt beam="1">  1        2 0.30438708E+00 0.22523253E+03</pdfrwt>
<pdfrwt beam="2">  1       -2 0.98616443E-03 0.22523253E+03</pdfrwt>
<totfact> 0.16490887E+04</totfact>
</mgrwt>
</event>
<event>
 4    1  0.6122885E-004  0.1933462E+03  0.7818608E-02  0.1155477E+00
          2   -1    0    0  501    0  0.00000000000E+00  0.00000000000E+00  0.26387795439E+02  0.26387795562E+02  0.25500000000E-02 0.  1.
         -2   -1    0    0    0  501 -0.00000000000E+00 -0.00000000000E+00 -0.35416689412E+03  0.35416689413E+03  0.25500000000E-02 0. -1.
    5000001    1    1    2    0    0 -0.39658990417E+02  0.37160554780E+02 -0.20623867759E+03  0.22675346631E+03  0.77000000000E+02 0.  0.
   -5000001    1    1    2    0    0  0.39658990417E+02 -0.37160554780E+02 -0.12154042109E+03  0.15380122338E+03  0.77000000000E+02 0.  0.
<mgrwt>
<rscale>  0 0.19334615E+03</rscale>
<asrwt>0</asrwt>
<pdfrwt beam="1">  1        2 0.40596611E-02 0.19334615E+03</pdfrwt>
<pdfrwt beam="2">  1       -2 0.54487211E-01 0.19334615E+03</pdfrwt>
<totfact> 0.65132605E+03</totfact>
</mgrwt>
</event>
<event>
 4    1  0.6122885E-004  0.7178076E+03  0.7818608E-02  0.9687254E-01
         -2   -1    0    0    0  501 -0.00000000000E+00  0.00000000000E+00  0.78108842317E+02  0.78108842358E+02  0.25500000000E-02 0. -1.
          2   -1    0    0  501    0  0.00000000000E+00 -0.00000000000E+00 -0.16491337834E+04  0.16491337834E+04  0.25500000000E-02 0.  1.
    5000001    1    1    2    0    0 -0.29757117670E+03 -0.18473202634E+03 -0.82024994641E+03  0.89521701354E+03  0.77000000000E+02 0.  0.
   -5000001    1    1    2    0    0  0.29757117670E+03  0.18473202634E+03 -0.75077499470E+03  0.83202561224E+03  0.77000000000E+02 0.  0.
<mgrwt>
<rscale>  0 0.71780758E+03</rscale>
<asrwt>0</asrwt>
<pdfrwt beam="1">  1        2 0.25371286E+00 0.71780758E+03</pdfrwt>
<pdfrwt beam="2">  1       -2 0.12016746E-01 0.71780758E+03</pdfrwt>
<totfact> 0.54070895E+02</totfact>
</mgrwt>
</event>
<event>
 4    1  0.6122885E-004  0.2436030E+03  0.7818608E-02  0.1117416E+00
         -2   -1    0    0    0  501 -0.00000000000E+00  0.00000000000E+00  0.56161534884E+01  0.56161540673E+01  0.25500000000E-02 0. -1.
          2   -1    0    0  501    0  0.00000000000E+00 -0.00000000000E+00 -0.26415949065E+04  0.26415949065E+04  0.25500000000E-02 0.  1.
    5000001    1    1    2    0    0 -0.78030278088E+02  0.34933204511E+02 -0.17523327671E+04  0.17561059705E+04  0.77000000000E+02 0.  0.
   -5000001    1    1    2    0    0  0.78030278088E+02 -0.34933204511E+02 -0.88364598587E+03  0.89110509000E+03  0.77000000000E+02 0.  0.
<mgrwt>
<rscale>  0 0.24360298E+03</rscale>
<asrwt>0</asrwt>
<pdfrwt beam="1">  1        2 0.40639822E+00 0.24360298E+03</pdfrwt>
<pdfrwt beam="2">  1       -2 0.86402577E-03 0.24360298E+03</pdfrwt>
<totfact> 0.88240475E+03</totfact>
</mgrwt>
</event>
<event>
 4    1  0.6122885E-004  0.6566270E+03  0.7818608E-02  0.9794423E-01
         -2   -1    0    0    0  501 -0.00000000000E+00  0.00000000000E+00  0.10127357354E+03  0.10127357357E+03  0.25500000000E-02 0. -1.
          2   -1    0    0  501    0  0.00000000000E+00 -0.00000000000E+00 -0.10643423258E+04  0.10643423258E+04  0.25500000000E-02 0.  1.
    5000001    1    1    2    0    0 -0.52174894098E+02  0.21633212681E+03 -0.88764953773E+03  0.91835315130E+03  0.77000000000E+02 0.  0.
   -5000001    1    1    2    0    0  0.52174894098E+02 -0.21633212681E+03 -0.75419214522E+02  0.24726274807E+03  0.77000000000E+02 0.  0.
<mgrwt>
<rscale>  0 0.65662699E+03</rscale>
<asrwt>0</asrwt>
<pdfrwt beam="1">  1        2 0.16374497E+00 0.65662699E+03</pdfrwt>
<pdfrwt beam="2">  1       -2 0.15580551E-01 0.65662699E+03</pdfrwt>
<totfact> 0.75953652E+02</totfact>
</mgrwt>
</event>
<event>
 4    1  0.6122885E-004  0.2510124E+03  0.7818608E-02  0.1112667E+00
         -2   -1    0    0    0  501 -0.00000000000E+00  0.00000000000E+00  0.90293927915E+01  0.90293931516E+01  0.25500000000E-02 0. -1.
          2   -1    0    0  501    0  0.00000000000E+00 -0.00000000000E+00 -0.17445032320E+04  0.17445032320E+04  0.25500000000E-02 0.  1.
    5000001    1    1    2    0    0  0.96668099980E+02  0.12932679246E+02 -0.99089978626E+03  0.99866078433E+03  0.77000000000E+02 0.  0.
   -5000001    1    1    2    0    0 -0.96668099980E+02 -0.12932679246E+02 -0.74457405296E+03  0.75487184083E+03  0.77000000000E+02 0.  0.
<mgrwt>
<rscale>  0 0.25101239E+03</rscale>
<asrwt>0</asrwt>
<pdfrwt beam="1">  1        2 0.26838484E+00 0.25101239E+03</pdfrwt>
<pdfrwt beam="2">  1       -2 0.13891388E-02 0.25101239E+03</pdfrwt>
<totfact> 0.13328824E+04</totfact>
</mgrwt>
</event>
<event>
 4    1  0.6122885E-004  0.3634403E+03  0.7818608E-02  0.1057230E+00
          2   -1    0    0  501    0  0.00000000000E+00  0.00000000000E+00  0.59926079942E+03  0.59926079942E+03  0.25500000000E-02 0.  1.
         -2   -1    0    0    0  501 -0.00000000000E+00 -0.00000000000E+00 -0.55104924309E+02  0.55104924368E+02  0.25500000000E-02 0. -1.
    5000001    1    1    2    0    0  0.14618725890E+03 -0.74884306758E+02  0.25278283262E+03  0.31113748493E+03  0.77000000000E+02 0.  0.
   -5000001    1    1    2    0    0 -0.14618725890E+03  0.74884306758E+02  0.29137304249E+03  0.34322823886E+03  0.77000000000E+02 0.  0.
<mgrwt>
<rscale>  0 0.36344034E+03</rscale>
<asrwt>0</asrwt>
<pdfrwt beam="1">  1        2 0.92193966E-01 0.36344034E+03</pdfrwt>
<pdfrwt beam="2">  1       -2 0.84776810E-02 0.36344034E+03</pdfrwt>
<totfact> 0.43807265E+03</totfact>
</mgrwt>
</event>
<event>
 4    1  0.6122885E-004  0.1757541E+03  0.7818608E-02  0.1171977E+00
          2   -1    0    0  501    0  0.00000000000E+00  0.00000000000E+00  0.97584754045E+02  0.97584754079E+02  0.25500000000E-02 0.  1.
         -2   -1    0    0    0  501 -0.00000000000E+00 -0.00000000000E+00 -0.79135096774E+02  0.79135096815E+02  0.25500000000E-02 0. -1.
    5000001    1    1    2    0    0 -0.41461787590E+02 -0.24282040649E+01  0.17540881132E+02  0.89228126261E+02  0.77000000000E+02 0.  0.
   -5000001    1    1    2    0    0  0.41461787590E+02  0.24282040649E+01  0.90877613981E+00  0.87491724633E+02  0.77000000000E+02 0.  0.
<mgrwt>
<rscale>  0 0.17575413E+03</rscale>
<asrwt>0</asrwt>
<pdfrwt beam="1">  1        2 0.15013039E-01 0.17575413E+03</pdfrwt>
<pdfrwt beam="2">  1       -2 0.12174630E-01 0.17575413E+03</pdfrwt>
<totfact> 0.17883901E+04</totfact>
</mgrwt>
</event>
<event>
 4    1  0.6122885E-004  0.1974826E+03  0.7818608E-02  0.1151881E+00
         -2   -1    0    0    0  501 -0.00000000000E+00  0.00000000000E+00  0.12212758145E+02  0.12212758412E+02  0.25500000000E-02 0. -1.
          2   -1    0    0  501    0  0.00000000000E+00 -0.00000000000E+00 -0.79833254567E+03  0.79833254567E+03  0.25500000000E-02 0.  1.
    5000001    1    1    2    0    0 -0.42533510775E+02 -0.41235849115E+02 -0.32063776700E+03  0.33503294229E+03  0.77000000000E+02 0.  0.
   -5000001    1    1    2    0    0  0.42533510775E+02  0.41235849115E+02 -0.46548202052E+03  0.47551236179E+03  0.77000000000E+02 0.  0.
<mgrwt>
<rscale>  0 0.19748258E+03</rscale>
<asrwt>0</asrwt>
<pdfrwt beam="1">  1        2 0.12282035E+00 0.19748258E+03</pdfrwt>
<pdfrwt beam="2">  1       -2 0.18788865E-02 0.19748258E+03</pdfrwt>
<totfact> 0.29336710E+04</totfact>
</mgrwt>
</event>
<event>
 4    1  0.6122885E-004  0.1937263E+03  0.7818608E-02  0.1155143E+00
          2   -1    0    0  501    0  0.00000000000E+00  0.00000000000E+00  0.15000611323E+03  0.15000611325E+03  0.25500000000E-02 0.  1.
         -2   -1    0    0    0  501 -0.00000000000E+00 -0.00000000000E+00 -0.62547242111E+02  0.62547242163E+02  0.25500000000E-02 0. -1.
    5000001    1    1    2    0    0  0.58756610175E+02 -0.50858129486E+00  0.42705582579E+02  0.10585539513E+03  0.77000000000E+02 0.  0.
   -5000001    1    1    2    0    0 -0.58756610175E+02  0.50858129486E+00  0.44753288540E+02  0.10669796029E+03  0.77000000000E+02 0.  0.
<mgrwt>
<rscale>  0 0.19372629E+03</rscale>
<asrwt>0</asrwt>
<pdfrwt beam="1">  1        2 0.23077863E-01 0.19372629E+03</pdfrwt>
<pdfrwt beam="2">  1       -2 0.96226528E-02 0.19372629E+03</pdfrwt>
<totfact> 0.15995613E+04</totfact>
</mgrwt>
</event>
<event>
 4    1  0.6122885E-004  0.1961319E+03  0.7818608E-02  0.1153044E+00
         -2   -1    0    0    0  501 -0.00000000000E+00  0.00000000000E+00  0.14473764439E+03  0.14473764441E+03  0.25500000000E-02 0. -1.
          2   -1    0    0  501    0  0.00000000000E+00 -0.00000000000E+00 -0.66443882239E+02  0.66443882288E+02  0.25500000000E-02 0.  1.
    5000001    1    1    2    0    0 -0.34066506947E+02 -0.48427852990E+02  0.24615098589E+02  0.10020322809E+03  0.77000000000E+02 0.  0.
   -5000001    1    1    2    0    0  0.34066506947E+02  0.48427852990E+02  0.53678663559E+02  0.11097829861E+03  0.77000000000E+02 0.  0.
<mgrwt>
<rscale>  0 0.19613190E+03</rscale>
<asrwt>0</asrwt>
<pdfrwt beam="1">  1        2 0.10222136E-01 0.19613190E+03</pdfrwt>
<pdfrwt beam="2">  1       -2 0.22267330E-01 0.19613190E+03</pdfrwt>
<totfact> 0.10504902E+04</totfact>
</mgrwt>
</event>
<event>
 4    1  0.6122885E-004  0.3121119E+03  0.7818608E-02  0.1079338E+00
          2   -1    0    0  501    0  0.00000000000E+00  0.00000000000E+00  0.32155080836E+02  0.32155080937E+02  0.25500000000E-02 0.  1.
         -2   -1    0    0    0  501 -0.00000000000E+00 -0.00000000000E+00 -0.75737497412E+03  0.75737497412E+03  0.25500000000E-02 0. -1.
    5000001    1    1    2    0    0 -0.79266416127E+02  0.10825897748E+03 -0.31068869321E+03  0.34707295345E+03  0.77000000000E+02 0.  0.
   -5000001    1    1    2    0    0  0.79266416127E+02 -0.10825897748E+03 -0.41453120008E+03  0.44245710161E+03  0.77000000000E+02 0.  0.
<mgrwt>
<rscale>  0 0.31211186E+03</rscale>
<asrwt>0</asrwt>
<pdfrwt beam="1">  1        2 0.49469361E-02 0.31211186E+03</pdfrwt>
<pdfrwt beam="2">  1       -2 0.11651921E+00 0.31211186E+03</pdfrwt>
<totfact> 0.95430503E+02</totfact>
</mgrwt>
</event>
<event>
 4    1  0.6122885E-004  0.2894194E+03  0.7818608E-02  0.1090653E+00
         -2   -1    0    0    0  501 -0.00000000000E+00  0.00000000000E+00  0.21011291965E+02  0.21011292120E+02  0.25500000000E-02 0. -1.
          2   -1    0    0  501    0  0.00000000000E+00 -0.00000000000E+00 -0.99664987717E+03  0.99664987717E+03  0.25500000000E-02 0.  1.
    5000001    1    1    2    0    0  0.11283255469E+03  0.46767333754E+02 -0.45381315312E+03  0.47622867076E+03  0.77000000000E+02 0.  0.
   -5000001    1    1    2    0    0 -0.11283255469E+03 -0.46767333754E+02 -0.52182543208E+03  0.54143249853E+03  0.77000000000E+02 0.  0.
<mgrwt>
<rscale>  0 0.28941943E+03</rscale>
<asrwt>0</asrwt>
<pdfrwt beam="1">  1        2 0.15333071E+00 0.28941943E+03</pdfrwt>
<pdfrwt beam="2">  1       -2 0.32325072E-02 0.28941943E+03</pdfrwt>
<totfact> 0.99883554E+03</totfact>
</mgrwt>
</event>
<event>
 4    1  0.6122885E-004  0.2468381E+03  0.7818608E-02  0.1115320E+00
         -2   -1    0    0    0  501 -0.00000000000E+00  0.00000000000E+00  0.93785909518E+02  0.93785909553E+02  0.25500000000E-02 0. -1.
          2   -1    0    0  501    0  0.00000000000E+00 -0.00000000000E+00 -0.16241521079E+03  0.16241521081E+03  0.25500000000E-02 0.  1.
    5000001    1    1    2    0    0  0.65850046369E+02 -0.67128864740E+02 -0.12035466506E+02  0.12213257363E+03  0.77000000000E+02 0.  0.
   -5000001    1    1    2    0    0 -0.65850046369E+02  0.67128864740E+02 -0.56593834761E+02  0.13406854673E+03  0.77000000000E+02 0.  0.
<mgrwt>
<rscale>  0 0.24683807E+03</rscale>
<asrwt>0</asrwt>
<pdfrwt beam="1">  1        2 0.24986955E-01 0.24683807E+03</pdfrwt>
<pdfrwt beam="2">  1       -2 0.14428601E-01 0.24683807E+03</pdfrwt>
<totfact> 0.77421901E+03</totfact>
</mgrwt>
</event>
<event>
 4    1  0.6122885E-004  0.3129281E+03  0.7818608E-02  0.1078951E+00
          2   -1    0    0  501    0  0.00000000000E+00  0.00000000000E+00  0.66885213017E+03  0.66885213017E+03  0.25500000000E-02 0.  1.
         -2   -1    0    0    0  501 -0.00000000000E+00 -0.00000000000E+00 -0.36601506949E+02  0.36601507038E+02  0.25500000000E-02 0. -1.
    5000001    1    1    2    0    0 -0.83291414903E+02 -0.88732816753E+02  0.17823963632E+03  0.22914916653E+03  0.77000000000E+02 0.  0.
   -5000001    1    1    2    0    0  0.83291414903E+02  0.88732816753E+02  0.45401098690E+03  0.47630447068E+03  0.77000000000E+02 0.  0.
<mgrwt>
<rscale>  0 0.31292808E+03</rscale>
<asrwt>0</asrwt>
<pdfrwt beam="1">  1        2 0.10290034E+00 0.31292808E+03</pdfrwt>
<pdfrwt beam="2">  1       -2 0.56310006E-02 0.31292808E+03</pdfrwt>
<totfact> 0.72435553E+03</totfact>
</mgrwt>
</event>
<event>
 4    1  0.6122885E-004  0.5951924E+03  0.7818608E-02  0.9915431E-01
          2   -1    0    0  501    0  0.00000000000E+00  0.00000000000E+00  0.17857874102E+03  0.17857874104E+03  0.25500000000E-02 0.  1.
         -2   -1    0    0    0  501 -0.00000000000E+00 -0.00000000000E+00 -0.49593527242E+03  0.49593527242E+03  0.25500000000E-02 0. -1.
    5000001    1    1    2    0    0  0.17648228961E+03 -0.21285816057E+03 -0.24776732658E+03  0.37917310451E+03  0.77000000000E+02 0.  0.
   -5000001    1    1    2    0    0 -0.17648228961E+03  0.21285816057E+03 -0.69589204821E+02  0.29534090894E+03  0.77000000000E+02 0.  0.
<mgrwt>
<rscale>  0 0.59519239E+03</rscale>
<asrwt>0</asrwt>
<pdfrwt beam="1">  1        2 0.27473653E-01 0.59519239E+03</pdfrwt>
<pdfrwt beam="2">  1       -2 0.76297734E-01 0.59519239E+03</pdfrwt>
<totfact> 0.30557288E+02</totfact>
</mgrwt>
</event>
<event>
 4    1  0.6122885E-004  0.1993838E+03  0.7818608E-02  0.1150260E+00
         -2   -1    0    0    0  501 -0.00000000000E+00  0.00000000000E+00  0.30430657397E+03  0.30430657399E+03  0.25500000000E-02 0. -1.
          2   -1    0    0  501    0  0.00000000000E+00 -0.00000000000E+00 -0.32659405231E+02  0.32659405331E+02  0.25500000000E-02 0.  1.
    5000001    1    1    2    0    0 -0.42224148243E+02 -0.38543928272E+02  0.89819834071E+02  0.13139678723E+03  0.77000000000E+02 0.  0.
   -5000001    1    1    2    0    0  0.42224148243E+02  0.38543928272E+02  0.18182733467E+03  0.20556919209E+03  0.77000000000E+02 0.  0.
<mgrwt>
<rscale>  0 0.19938377E+03</rscale>
<asrwt>0</asrwt>
<pdfrwt beam="1">  1        2 0.50245240E-02 0.19938377E+03</pdfrwt>
<pdfrwt beam="2">  1       -2 0.46816395E-01 0.19938377E+03</pdfrwt>
<totfact> 0.66573780E+03</totfact>
</mgrwt>
</event>
<event>
 4    1  0.6122885E-004  0.1754219E+03  0.7818608E-02  0.1172309E+00
          2   -1    0    0  501    0  0.00000000000E+00  0.00000000000E+00  0.44845389393E+03  0.44845389394E+03  0.25500000000E-02 0.  1.
         -2   -1    0    0    0  501 -0.00000000000E+00 -0.00000000000E+00 -0.17154958956E+02  0.17154959145E+02  0.25500000000E-02 0. -1.
    5000001    1    1    2    0    0  0.32885488258E+02  0.24466898698E+02  0.23999373579E+03  0.25535480745E+03  0.77000000000E+02 0.  0.
   -5000001    1    1    2    0    0 -0.32885488258E+02 -0.24466898698E+02  0.19130519919E+03  0.21025404563E+03  0.77000000000E+02 0.  0.
<mgrwt>
<rscale>  0 0.17542187E+03</rscale>
<asrwt>0</asrwt>
<pdfrwt beam="1">  1        2 0.68992908E-01 0.17542187E+03</pdfrwt>
<pdfrwt beam="2">  1       -2 0.26392244E-02 0.17542187E+03</pdfrwt>
<totfact> 0.34423590E+04</totfact>
</mgrwt>
</event>
<event>
 4    1  0.6122885E-004  0.3164592E+03  0.7818608E-02  0.1077291E+00
         -2   -1    0    0    0  501 -0.00000000000E+00  0.00000000000E+00  0.19306069463E+02  0.19306069632E+02  0.25500000000E-02 0. -1.
          2   -1    0    0  501    0  0.00000000000E+00 -0.00000000000E+00 -0.12968255003E+04  0.12968255003E+04  0.25500000000E-02 0.  1.
    5000001    1    1    2    0    0  0.12958031876E+03  0.30466715904E+02 -0.48379709677E+03  0.50764939735E+03  0.77000000000E+02 0.  0.
   -5000001    1    1    2    0    0 -0.12958031876E+03 -0.30466715904E+02 -0.79372233410E+03  0.80848217261E+03  0.77000000000E+02 0.  0.
<mgrwt>
<rscale>  0 0.31645918E+03</rscale>
<asrwt>0</asrwt>
<pdfrwt beam="1">  1        2 0.19951155E+00 0.31645918E+03</pdfrwt>
<pdfrwt beam="2">  1       -2 0.29701656E-02 0.31645918E+03</pdfrwt>
<totfact> 0.75941002E+03</totfact>
</mgrwt>
</event>
<event>
 4    1  0.6122885E-004  0.3344010E+03  0.7818608E-02  0.1069206E+00
         -2   -1    0    0    0  501 -0.00000000000E+00  0.00000000000E+00  0.10254832998E+02  0.10254833315E+02  0.25500000000E-02 0. -1.
          2   -1    0    0  501    0  0.00000000000E+00 -0.00000000000E+00 -0.27261292136E+04  0.27261292136E+04  0.25500000000E-02 0.  1.
    5000001    1    1    2    0    0  0.96457013332E+02  0.18641649158E+02 -0.44762259548E+03  0.46470039218E+03  0.77000000000E+02 0.  0.
   -5000001    1    1    2    0    0 -0.96457013332E+02 -0.18641649158E+02 -0.22682517851E+04  0.22716836547E+04  0.77000000000E+02 0.  0.
<mgrwt>
<rscale>  0 0.33440096E+03</rscale>
<asrwt>0</asrwt>
<pdfrwt beam="1">  1        2 0.41940392E+00 0.33440096E+03</pdfrwt>
<pdfrwt beam="2">  1       -2 0.15776688E-02 0.33440096E+03</pdfrwt>
<totfact> 0.32743730E+03</totfact>
</mgrwt>
</event>
<event>
 4    1  0.6122885E-004  0.2597300E+03  0.7818608E-02  0.1107306E+00
         -2   -1    0    0    0  501 -0.00000000000E+00  0.00000000000E+00  0.15898114362E+03  0.15898114364E+03  0.25500000000E-02 0. -1.
          2   -1    0    0  501    0  0.00000000000E+00 -0.00000000000E+00 -0.10608123141E+03  0.10608123144E+03  0.25500000000E-02 0.  1.
    5000001    1    1    2    0    0  0.80215576295E+02 -0.17342284818E+02  0.92592790933E+02  0.14573166593E+03  0.77000000000E+02 0.  0.
   -5000001    1    1    2    0    0 -0.80215576295E+02  0.17342284818E+02 -0.39692878726E+02  0.11933070914E+03  0.77000000000E+02 0.  0.
<mgrwt>
<rscale>  0 0.25972998E+03</rscale>
<asrwt>0</asrwt>
<pdfrwt beam="1">  1        2 0.16320190E-01 0.25972998E+03</pdfrwt>
<pdfrwt beam="2">  1       -2 0.24458637E-01 0.25972998E+03</pdfrwt>
<totfact> 0.51571419E+03</totfact>
</mgrwt>
</event>
<event>
 4    1  0.6122885E-004  0.2526309E+03  0.7818608E-02  0.1111653E+00
         -2   -1    0    0    0  501 -0.00000000000E+00  0.00000000000E+00  0.17890193359E+02  0.17890193541E+02  0.25500000000E-02 0. -1.
          2   -1    0    0  501    0  0.00000000000E+00 -0.00000000000E+00 -0.89186244645E+03  0.89186244645E+03  0.25500000000E-02 0.  1.
    5000001    1    1    2    0    0 -0.12454031378E+02  0.82757186649E+02 -0.23899895890E+03  0.26467594752E+03  0.77000000000E+02 0.  0.
   -5000001    1    1    2    0    0  0.12454031378E+02 -0.82757186649E+02 -0.63497329419E+03  0.64507669248E+03  0.77000000000E+02 0.  0.
<mgrwt>
<rscale>  0 0.25263089E+03</rscale>
<asrwt>0</asrwt>
<pdfrwt beam="1">  1        2 0.13720957E+00 0.25263089E+03</pdfrwt>
<pdfrwt beam="2">  1       -2 0.27523381E-02 0.25263089E+03</pdfrwt>
<totfact> 0.14703155E+04</totfact>
</mgrwt>
</event>
<event>
 4    1  0.6122885E-004  0.3069273E+03  0.7818608E-02  0.1081828E+00
         -2   -1    0    0    0  501 -0.00000000000E+00  0.00000000000E+00  0.11383807173E+02  0.11383807458E+02  0.25500000000E-02 0. -1.
          2   -1    0    0  501    0  0.00000000000E+00 -0.00000000000E+00 -0.20688240848E+04  0.20688240848E+04  0.25500000000E-02 0.  1.
    5000001    1    1    2    0    0  0.88112790508E+02  0.87760258803E+02 -0.13434461380E+04  0.13513853087E+04  0.77000000000E+02 0.  0.
   -5000001    1    1    2    0    0 -0.88112790508E+02 -0.87760258803E+02 -0.71399413958E+03  0.72882258351E+03  0.77000000000E+02 0.  0.
<mgrwt>
<rscale>  0 0.30692732E+03</rscale>
<asrwt>0</asrwt>
<pdfrwt beam="1">  1        2 0.31828033E+00 0.30692732E+03</pdfrwt>
<pdfrwt beam="2">  1       -2 0.17513566E-02 0.30692732E+03</pdfrwt>
<totfact> 0.64256247E+03</totfact>
</mgrwt>
</event>
<event>
 4    1  0.6122885E-004  0.3662347E+03  0.7818608E-02  0.1056142E+00
         -2   -1    0    0    0  501 -0.00000000000E+00  0.00000000000E+00  0.37859389955E+03  0.37859389956E+03  0.25500000000E-02 0. -1.
          2   -1    0    0  501    0  0.00000000000E+00 -0.00000000000E+00 -0.88569732634E+02  0.88569732671E+02  0.25500000000E-02 0.  1.
    5000001    1    1    2    0    0 -0.72057075527E+02  0.13495785479E+03  0.22765107946E+03  0.28488569406E+03  0.77000000000E+02 0.  0.
   -5000001    1    1    2    0    0  0.72057075527E+02 -0.13495785479E+03  0.62373087458E+02  0.18227793817E+03  0.77000000000E+02 0.  0.
<mgrwt>
<rscale>  0 0.36623468E+03</rscale>
<asrwt>0</asrwt>
<pdfrwt beam="1">  1        2 0.13626113E-01 0.36623468E+03</pdfrwt>
<pdfrwt beam="2">  1       -2 0.58245214E-01 0.36623468E+03</pdfrwt>
<totfact> 0.12381899E+03</totfact>
</mgrwt>
</event>
<event>
 4    1  0.6122885E-004  0.4195833E+03  0.7818608E-02  0.1037202E+00
         -2   -1    0    0    0  501 -0.00000000000E+00  0.00000000000E+00  0.86862556391E+02  0.86862556428E+02  0.25500000000E-02 0. -1.
          2   -1    0    0  501    0  0.00000000000E+00 -0.00000000000E+00 -0.50669168618E+03  0.50669168618E+03  0.25500000000E-02 0.  1.
    5000001    1    1    2    0    0 -0.17428099375E+03 -0.43183477203E+02 -0.31806523035E+03  0.37327358364E+03  0.77000000000E+02 0.  0.
   -5000001    1    1    2    0    0  0.17428099375E+03  0.43183477203E+02 -0.10176389943E+03  0.22028065897E+03  0.77000000000E+02 0.  0.
<mgrwt>
<rscale>  0 0.41958329E+03</rscale>
<asrwt>0</asrwt>
<pdfrwt beam="1">  1        2 0.77952565E-01 0.41958329E+03</pdfrwt>
<pdfrwt beam="2">  1       -2 0.13363471E-01 0.41958329E+03</pdfrwt>
<totfact> 0.25575193E+03</totfact>
</mgrwt>
</event>
<event>
 4    1  0.6122885E-004  0.2313466E+03  0.7818608E-02  0.1125696E+00
         -2   -1    0    0    0  501 -0.00000000000E+00  0.00000000000E+00  0.92868227733E+01  0.92868231234E+01  0.25500000000E-02 0. -1.
          2   -1    0    0  501    0  0.00000000000E+00 -0.00000000000E+00 -0.14407842050E+04  0.14407842050E+04  0.25500000000E-02 0.  1.
    5000001    1    1    2    0    0  0.85506751130E+02  0.11809880110E+02 -0.71985917646E+03  0.72909334910E+03  0.77000000000E+02 0.  0.
   -5000001    1    1    2    0    0 -0.85506751130E+02 -0.11809880110E+02 -0.71163820574E+03  0.72097767900E+03  0.77000000000E+02 0.  0.
<mgrwt>
<rscale>  0 0.23134656E+03</rscale>
<asrwt>0</asrwt>
<pdfrwt beam="1">  1        2 0.22165893E+00 0.23134656E+03</pdfrwt>
<pdfrwt beam="2">  1       -2 0.14287431E-02 0.23134656E+03</pdfrwt>
<totfact> 0.18467191E+04</totfact>
</mgrwt>
</event>
<event>
 4    1  0.6122885E-004  0.3320654E+03  0.7818608E-02  0.1070227E+00
          2   -1    0    0  501    0  0.00000000000E+00  0.00000000000E+00  0.87244761843E+03  0.87244761843E+03  0.25500000000E-02 0.  1.
         -2   -1    0    0    0  501 -0.00000000000E+00 -0.00000000000E+00 -0.31597154681E+02  0.31597154784E+02  0.25500000000E-02 0. -1.
    5000001    1    1    2    0    0 -0.74280604180E+02  0.11843864689E+03  0.54496363126E+03  0.56785533425E+03  0.77000000000E+02 0.  0.
   -5000001    1    1    2    0    0  0.74280604180E+02 -0.11843864689E+03  0.29588683249E+03  0.33618943897E+03  0.77000000000E+02 0.  0.
<mgrwt>
<rscale>  0 0.33206543E+03</rscale>
<asrwt>0</asrwt>
<pdfrwt beam="1">  1        2 0.13422271E+00 0.33206543E+03</pdfrwt>
<pdfrwt beam="2">  1       -2 0.48611009E-02 0.33206543E+03</pdfrwt>
<totfact> 0.64959234E+03</totfact>
</mgrwt>
</event>
<event>
 4    1  0.6122885E-004  0.3169174E+03  0.7818608E-02  0.1077077E+00
         -2   -1    0    0    0  501 -0.00000000000E+00  0.00000000000E+00  0.23981914022E+02  0.23981914158E+02  0.25500000000E-02 0. -1.
          2   -1    0    0  501    0  0.00000000000E+00 -0.00000000000E+00 -0.10470040214E+04  0.10470040214E+04  0.25500000000E-02 0.  1.
    5000001    1    1    2    0    0 -0.12804849297E+03 -0.73662212080E+01 -0.33495693597E+03  0.36684578057E+03  0.77000000000E+02 0.  0.
   -5000001    1    1    2    0    0  0.12804849297E+03  0.73662212080E+01 -0.68806517142E+03  0.70414015501E+03  0.77000000000E+02 0.  0.
<mgrwt>
<rscale>  0 0.31691741E+03</rscale>
<asrwt>0</asrwt>
<pdfrwt beam="1">  1        2 0.16107751E+00 0.31691741E+03</pdfrwt>
<pdfrwt beam="2">  1       -2 0.36895261E-02 0.31691741E+03</pdfrwt>
<totfact> 0.76492258E+03</totfact>
</mgrwt>
</event>
<event>
 4    1  0.6122885E-004  0.2240611E+03  0.7818608E-02  0.1130891E+00
         -2   -1    0    0    0  501 -0.00000000000E+00  0.00000000000E+00  0.29670658678E+03  0.29670658679E+03  0.25500000000E-02 0. -1.
          2   -1    0    0  501    0  0.00000000000E+00 -0.00000000000E+00 -0.42300517560E+02  0.42300517637E+02  0.25500000000E-02 0.  1.
    5000001    1    1    2    0    0 -0.58734531742E+02 -0.12312394059E+02  0.44049267598E+02  0.10710125229E+03  0.77000000000E+02 0.  0.
   -5000001    1    1    2    0    0  0.58734531742E+02  0.12312394059E+02  0.21035680162E+03  0.23190585214E+03  0.77000000000E+02 0.  0.
<mgrwt>
<rscale>  0 0.22406108E+03</rscale>
<asrwt>0</asrwt>
<pdfrwt beam="1">  1        2 0.65077720E-02 0.22406108E+03</pdfrwt>
<pdfrwt beam="2">  1       -2 0.45647167E-01 0.22406108E+03</pdfrwt>
<totfact> 0.50272070E+03</totfact>
</mgrwt>
</event>
<event>
 4    1  0.6122885E-004  0.3171162E+03  0.7818608E-02  0.1076984E+00
         -2   -1    0    0    0  501 -0.00000000000E+00  0.00000000000E+00  0.98409951661E+02  0.98409951694E+02  0.25500000000E-02 0. -1.
          2   -1    0    0  501    0  0.00000000000E+00 -0.00000000000E+00 -0.25546878878E+03  0.25546878879E+03  0.25500000000E-02 0.  1.
    5000001    1    1    2    0    0  0.95950367249E+02 -0.94953323451E+02 -0.11362467031E+03  0.19251538202E+03  0.77000000000E+02 0.  0.
   -5000001    1    1    2    0    0 -0.95950367249E+02  0.94953323451E+02 -0.43434166803E+02  0.16136335847E+03  0.77000000000E+02 0.  0.
<mgrwt>
<rscale>  0 0.31711620E+03</rscale>
<asrwt>0</asrwt>
<pdfrwt beam="1">  1        2 0.39302890E-01 0.31711620E+03</pdfrwt>
<pdfrwt beam="2">  1       -2 0.15139993E-01 0.31711620E+03</pdfrwt>
<totfact> 0.43901058E+03</totfact>
</mgrwt>
</event>
<event>
 4    1  0.6122885E-004  0.2729038E+03  0.7818608E-02  0.1099629E+00
         -2   -1    0    0    0  501 -0.00000000000E+00  0.00000000000E+00  0.61337574505E+02  0.61337574558E+02  0.25500000000E-02 0. -1.
          2   -1    0    0  501    0  0.00000000000E+00 -0.00000000000E+00 -0.30355160433E+03  0.30355160434E+03  0.25500000000E-02 0.  1.
    5000001    1    1    2    0    0 -0.45956167627E+02  0.10277241901E+03 -0.12645186859E+03  0.18599251201E+03  0.77000000000E+02 0.  0.
   -5000001    1    1    2    0    0  0.45956167627E+02 -0.10277241901E+03 -0.11576216123E+03  0.17889666689E+03  0.77000000000E+02 0.  0.
<mgrwt>
<rscale>  0 0.27290379E+03</rscale>
<asrwt>0</asrwt>
<pdfrwt beam="1">  1        2 0.46700246E-01 0.27290379E+03</pdfrwt>
<pdfrwt beam="2">  1       -2 0.94365501E-02 0.27290379E+03</pdfrwt>
<totfact> 0.77960038E+03</totfact>
</mgrwt>
</event>
<event>
 4    1  0.6122885E-004  0.2143981E+03  0.7818608E-02  0.1138130E+00
          2   -1    0    0  501    0  0.00000000000E+00  0.00000000000E+00  0.10149731743E+04  0.10149731743E+04  0.25500000000E-02 0.  1.
         -2   -1    0    0    0  501 -0.00000000000E+00 -0.00000000000E+00 -0.11322112692E+02  0.11322112979E+02  0.25500000000E-02 0. -1.
    5000001    1    1    2    0    0 -0.14853662335E+02 -0.68584633392E+02  0.38090075645E+03  0.39489095898E+03  0.77000000000E+02 0.  0.
   -5000001    1    1    2    0    0  0.14853662335E+02  0.68584633392E+02  0.62275030519E+03  0.63140432834E+03  0.77000000000E+02 0.  0.
<mgrwt>
<rscale>  0 0.21439814E+03</rscale>
<asrwt>0</asrwt>
<pdfrwt beam="1">  1        2 0.15614971E+00 0.21439814E+03</pdfrwt>
<pdfrwt beam="2">  1       -2 0.17418637E-02 0.21439814E+03</pdfrwt>
<totfact> 0.23938976E+04</totfact>
</mgrwt>
</event>
<event>
 4    1  0.6122885E-004  0.3738426E+03  0.7818608E-02  0.1053233E+00
          2   -1    0    0  501    0  0.00000000000E+00  0.00000000000E+00  0.47363490203E+03  0.47363490204E+03  0.25500000000E-02 0.  1.
         -2   -1    0    0    0  501 -0.00000000000E+00 -0.00000000000E+00 -0.73768999871E+02  0.73768999915E+02  0.25500000000E-02 0. -1.
    5000001    1    1    2    0    0  0.85212000112E+02 -0.54372804040E+02  0.40066566202E+03  0.42033255822E+03  0.77000000000E+02 0.  0.
   -5000001    1    1    2    0    0 -0.85212000112E+02  0.54372804040E+02 -0.79975985395E+00  0.12707134373E+03  0.77000000000E+02 0.  0.
<mgrwt>
<rscale>  0 0.37384260E+03</rscale>
<asrwt>0</asrwt>
<pdfrwt beam="1">  1        2 0.72866912E-01 0.37384260E+03</pdfrwt>
<pdfrwt beam="2">  1       -2 0.11349076E-01 0.37384260E+03</pdfrwt>
<totfact> 0.35994836E+03</totfact>
</mgrwt>
</event>
<event>
 4    1  0.6122885E-004  0.2274204E+03  0.7818608E-02  0.1128469E+00
         -2   -1    0    0    0  501 -0.00000000000E+00  0.00000000000E+00  0.77707411566E+01  0.77707415750E+01  0.25500000000E-02 0. -1.
          2   -1    0    0  501    0  0.00000000000E+00 -0.00000000000E+00 -0.16639351502E+04  0.16639351502E+04  0.25500000000E-02 0.  1.
    5000001    1    1    2    0    0 -0.82292672603E+02  0.13234525679E+02 -0.88198519640E+03  0.88925481348E+03  0.77000000000E+02 0.  0.
   -5000001    1    1    2    0    0  0.82292672603E+02 -0.13234525679E+02 -0.77417921265E+03  0.78245107830E+03  0.77000000000E+02 0.  0.
<mgrwt>
<rscale>  0 0.22742040E+03</rscale>
<asrwt>0</asrwt>
<pdfrwt beam="1">  1        2 0.25598974E+00 0.22742040E+03</pdfrwt>
<pdfrwt beam="2">  1       -2 0.11955000E-02 0.22742040E+03</pdfrwt>
<totfact> 0.18216887E+04</totfact>
</mgrwt>
</event>
<event>
 4    1  0.6122885E-004  0.4967500E+03  0.7818608E-02  0.1014631E+00
         -2   -1    0    0    0  501 -0.00000000000E+00  0.00000000000E+00  0.20945769845E+02  0.20945770000E+02  0.25500000000E-02 0. -1.
          2   -1    0    0  501    0  0.00000000000E+00 -0.00000000000E+00 -0.29452310757E+04  0.29452310757E+04  0.25500000000E-02 0.  1.
    5000001    1    1    2    0    0 -0.17687651519E+03  0.15640800590E+03 -0.14831409192E+04  0.15037901291E+04  0.77000000000E+02 0.  0.
   -5000001    1    1    2    0    0  0.17687651519E+03 -0.15640800590E+03 -0.14411443866E+04  0.14623867166E+04  0.77000000000E+02 0.  0.
<mgrwt>
<rscale>  0 0.49674997E+03</rscale>
<asrwt>0</asrwt>
<pdfrwt beam="1">  1        2 0.45311214E+00 0.49674997E+03</pdfrwt>
<pdfrwt beam="2">  1       -2 0.32224285E-02 0.49674997E+03</pdfrwt>
<totfact> 0.82615367E+02</totfact>
</mgrwt>
</event>
<event>
 4    1  0.6122885E-004  0.7625253E+03  0.7818608E-02  0.9615902E-01
          2   -1    0    0  501    0  0.00000000000E+00  0.00000000000E+00  0.13827705453E+04  0.13827705453E+04  0.25500000000E-02 0.  1.
         -2   -1    0    0    0  501 -0.00000000000E+00 -0.00000000000E+00 -0.10512316900E+03  0.10512316903E+03  0.25500000000E-02 0. -1.
    5000001    1    1    2    0    0 -0.97959958824E+02  0.35524760521E+03  0.52117631998E+03  0.64292361214E+03  0.77000000000E+02 0.  0.
   -5000001    1    1    2    0    0  0.97959958824E+02 -0.35524760521E+03  0.75647105630E+03  0.84497010217E+03  0.77000000000E+02 0.  0.
<mgrwt>
<rscale>  0 0.76252534E+03</rscale>
<asrwt>0</asrwt>
<pdfrwt beam="1">  1        2 0.21273391E+00 0.76252534E+03</pdfrwt>
<pdfrwt beam="2">  1       -2 0.16172797E-01 0.76252534E+03</pdfrwt>
<totfact> 0.46080314E+02</totfact>
</mgrwt>
</event>
<event>
 4    1  0.6122885E-004  0.1786142E+03  0.7818608E-02  0.1169151E+00
          2   -1    0    0  501    0  0.00000000000E+00  0.00000000000E+00  0.19521731578E+02  0.19521731745E+02  0.25500000000E-02 0.  1.
         -2   -1    0    0    0  501 -0.00000000000E+00 -0.00000000000E+00 -0.40855779760E+03  0.40855779761E+03  0.25500000000E-02 0. -1.
    5000001    1    1    2    0    0  0.17705654027E+02  0.16473622863E+02 -0.28615383545E+03  0.29731782318E+03  0.77000000000E+02 0.  0.
   -5000001    1    1    2    0    0 -0.17705654027E+02 -0.16473622863E+02 -0.10288223057E+03  0.13076170617E+03  0.77000000000E+02 0.  0.
<mgrwt>
<rscale>  0 0.17861417E+03</rscale>
<asrwt>0</asrwt>
<pdfrwt beam="1">  1        2 0.30033436E-02 0.17861417E+03</pdfrwt>
<pdfrwt beam="2">  1       -2 0.62855040E-01 0.17861417E+03</pdfrwt>
<totfact> 0.72385789E+03</totfact>
</mgrwt>
</event>
<event>
 4    1  0.6122885E-004  0.2034830E+03  0.7818608E-02  0.1146833E+00
         -2   -1    0    0    0  501 -0.00000000000E+00  0.00000000000E+00  0.24070117599E+03  0.24070117600E+03  0.25500000000E-02 0. -1.
          2   -1    0    0  501    0  0.00000000000E+00 -0.00000000000E+00 -0.43004919261E+02  0.43004919337E+02  0.25500000000E-02 0.  1.
    5000001    1    1    2    0    0 -0.51486131197E+02  0.38284285975E+02  0.12323061406E+03  0.15884361019E+03  0.77000000000E+02 0.  0.
   -5000001    1    1    2    0    0  0.51486131197E+02 -0.38284285975E+02  0.74465642668E+02  0.12486248514E+03  0.77000000000E+02 0.  0.
<mgrwt>
<rscale>  0 0.20348302E+03</rscale>
<asrwt>0</asrwt>
<pdfrwt beam="1">  1        2 0.66161414E-02 0.20348302E+03</pdfrwt>
<pdfrwt beam="2">  1       -2 0.37030950E-01 0.20348302E+03</pdfrwt>
<totfact> 0.73047447E+03</totfact>
</mgrwt>
</event>
<event>
 4    1  0.6122885E-004  0.2224190E+03  0.7818608E-02  0.1132092E+00
          2   -1    0    0  501    0  0.00000000000E+00  0.00000000000E+00  0.36180354831E+03  0.36180354832E+03  0.25500000000E-02 0.  1.
         -2   -1    0    0    0  501 -0.00000000000E+00 -0.00000000000E+00 -0.34183074250E+02  0.34183074346E+02  0.25500000000E-02 0. -1.
    5000001    1    1    2    0    0  0.50231618075E+02 -0.60467481552E+02  0.13515658003E+03  0.17428664007E+03  0.77000000000E+02 0.  0.
   -5000001    1    1    2    0    0 -0.50231618075E+02  0.60467481552E+02  0.19246389402E+03  0.22169998260E+03  0.77000000000E+02 0.  0.
<mgrwt>
<rscale>  0 0.22241904E+03</rscale>
<asrwt>0</asrwt>
<pdfrwt beam="1">  1        2 0.55662084E-01 0.22241904E+03</pdfrwt>
<pdfrwt beam="2">  1       -2 0.52589346E-02 0.22241904E+03</pdfrwt>
<totfact> 0.15793039E+04</totfact>
</mgrwt>
</event>
<event>
 4    1  0.6122885E-004  0.2220611E+03  0.7818608E-02  0.1132356E+00
          2   -1    0    0  501    0  0.00000000000E+00  0.00000000000E+00  0.85825259187E+03  0.85825259187E+03  0.25500000000E-02 0.  1.
         -2   -1    0    0    0  501 -0.00000000000E+00 -0.00000000000E+00 -0.14363817104E+02  0.14363817330E+02  0.25500000000E-02 0. -1.
    5000001    1    1    2    0    0  0.16514693346E+02 -0.41497381663E+02  0.68272500296E+03  0.68850359291E+03  0.77000000000E+02 0.  0.
   -5000001    1    1    2    0    0 -0.16514693346E+02  0.41497381663E+02  0.16116377180E+03  0.18411281629E+03  0.77000000000E+02 0.  0.
<mgrwt>
<rscale>  0 0.22206110E+03</rscale>
<asrwt>0</asrwt>
<pdfrwt beam="1">  1        2 0.13203884E+00 0.22206110E+03</pdfrwt>
<pdfrwt beam="2">  1       -2 0.22098185E-02 0.22206110E+03</pdfrwt>
<totfact> 0.21245080E+04</totfact>
</mgrwt>
</event>
<event>
 4    1  0.6122885E-004  0.2493757E+03  0.7818608E-02  0.1113700E+00
          2   -1    0    0  501    0  0.00000000000E+00  0.00000000000E+00  0.77243356638E+02  0.77243356680E+02  0.25500000000E-02 0.  1.
         -2   -1    0    0    0  501 -0.00000000000E+00 -0.00000000000E+00 -0.20127366803E+03  0.20127366805E+03  0.25500000000E-02 0. -1.
    5000001    1    1    2    0    0  0.93427859000E+02 -0.28436063238E+01 -0.28861178468E+02  0.12449425110E+03  0.77000000000E+02 0.  0.
   -5000001    1    1    2    0    0 -0.93427859000E+02  0.28436063238E+01 -0.95169132923E+02  0.15402277363E+03  0.77000000000E+02 0.  0.
<mgrwt>
<rscale>  0 0.24937565E+03</rscale>
<asrwt>0</asrwt>
<pdfrwt beam="1">  1        2 0.11883593E-01 0.24937565E+03</pdfrwt>
<pdfrwt beam="2">  1       -2 0.30965179E-01 0.24937565E+03</pdfrwt>
<totfact> 0.49316421E+03</totfact>
</mgrwt>
</event>
<event>
 4    1  0.6122885E-004  0.2066144E+03  0.7818608E-02  0.1144275E+00
         -2   -1    0    0    0  501 -0.00000000000E+00  0.00000000000E+00  0.29650319247E+02  0.29650319357E+02  0.25500000000E-02 0. -1.
          2   -1    0    0  501    0  0.00000000000E+00 -0.00000000000E+00 -0.35994132052E+03  0.35994132053E+03  0.25500000000E-02 0.  1.
    5000001    1    1    2    0    0 -0.37748371738E+02  0.55391115185E+02 -0.13531608771E+03  0.16950681049E+03  0.77000000000E+02 0.  0.
   -5000001    1    1    2    0    0  0.37748371738E+02 -0.55391115185E+02 -0.19497491356E+03  0.22008482939E+03  0.77000000000E+02 0.  0.
<mgrwt>
<rscale>  0 0.20661438E+03</rscale>
<asrwt>0</asrwt>
<pdfrwt beam="1">  1        2 0.55375585E-01 0.20661438E+03</pdfrwt>
<pdfrwt beam="2">  1       -2 0.45615878E-02 0.20661438E+03</pdfrwt>
<totfact> 0.19596957E+04</totfact>
</mgrwt>
</event>
<event>
 4    1  0.6122885E-004  0.3491266E+03  0.7818608E-02  0.1062974E+00
         -2   -1    0    0    0  501 -0.00000000000E+00  0.00000000000E+00  0.52108457504E+02  0.52108457567E+02  0.25500000000E-02 0. -1.
          2   -1    0    0  501    0  0.00000000000E+00 -0.00000000000E+00 -0.58478687268E+03  0.58478687268E+03  0.25500000000E-02 0.  1.
    5000001    1    1    2    0    0  0.12352926839E+03  0.28636871701E+02 -0.43416844722E+03  0.45881454983E+03  0.77000000000E+02 0.  0.
   -5000001    1    1    2    0    0 -0.12352926839E+03 -0.28636871701E+02 -0.98509967953E+02  0.17808078042E+03  0.77000000000E+02 0.  0.
<mgrwt>
<rscale>  0 0.34912658E+03</rscale>
<asrwt>0</asrwt>
<pdfrwt beam="1">  1        2 0.89967207E-01 0.34912658E+03</pdfrwt>
<pdfrwt beam="2">  1       -2 0.80166862E-02 0.34912658E+03</pdfrwt>
<totfact> 0.49195114E+03</totfact>
</mgrwt>
</event>
<event>
 4    1  0.6122885E-004  0.1673569E+03  0.7818608E-02  0.1180633E+00
         -2   -1    0    0    0  501 -0.00000000000E+00  0.00000000000E+00  0.61036549706E+01  0.61036555033E+01  0.25500000000E-02 0. -1.
          2   -1    0    0  501    0  0.00000000000E+00 -0.00000000000E+00 -0.11471950812E+04  0.11471950812E+04  0.25500000000E-02 0.  1.
    5000001    1    1    2    0    0 -0.64294869042E+01  0.32120074053E+02 -0.56907076922E+03  0.57519003628E+03  0.77000000000E+02 0.  0.
   -5000001    1    1    2    0    0  0.64294869042E+01 -0.32120074053E+02 -0.57202065700E+03  0.57810870041E+03  0.77000000000E+02 0.  0.
<mgrwt>
<rscale>  0 0.16735690E+03</rscale>
<asrwt>0</asrwt>
<pdfrwt beam="1">  1        2 0.17649138E+00 0.16735690E+03</pdfrwt>
<pdfrwt beam="2">  1       -2 0.93902480E-03 0.16735690E+03</pdfrwt>
<totfact> 0.48141093E+04</totfact>
</mgrwt>
</event>
<event>
 4    1  0.6122885E-004  0.2167983E+03  0.7818608E-02  0.1136293E+00
         -2   -1    0    0    0  501 -0.00000000000E+00  0.00000000000E+00  0.12830818560E+02  0.12830818813E+02  0.25500000000E-02 0. -1.
          2   -1    0    0  501    0  0.00000000000E+00 -0.00000000000E+00 -0.91579296507E+03  0.91579296507E+03  0.25500000000E-02 0.  1.
    5000001    1    1    2    0    0  0.66479477031E+02 -0.34579525717E+02 -0.38998711084E+03  0.40451725684E+03  0.77000000000E+02 0.  0.
   -5000001    1    1    2    0    0 -0.66479477031E+02  0.34579525717E+02 -0.51297503568E+03  0.52410652705E+03  0.77000000000E+02 0.  0.
<mgrwt>
<rscale>  0 0.21679828E+03</rscale>
<asrwt>0</asrwt>
<pdfrwt beam="1">  1        2 0.14089117E+00 0.21679828E+03</pdfrwt>
<pdfrwt beam="2">  1       -2 0.19739728E-02 0.21679828E+03</pdfrwt>
<totfact> 0.22978900E+04</totfact>
</mgrwt>
</event>
<event>
 4    1  0.6122885E-004  0.2261246E+03  0.7818608E-02  0.1129398E+00
          2   -1    0    0  501    0  0.00000000000E+00  0.00000000000E+00  0.26477518598E+02  0.26477518721E+02  0.25500000000E-02 0.  1.
         -2   -1    0    0    0  501 -0.00000000000E+00 -0.00000000000E+00 -0.48278989364E+03  0.48278989364E+03  0.25500000000E-02 0. -1.
    5000001    1    1    2    0    0  0.23983237928E+02  0.78742052949E+02 -0.20819292300E+03  0.23674627725E+03  0.77000000000E+02 0.  0.
   -5000001    1    1    2    0    0 -0.23983237928E+02 -0.78742052949E+02 -0.24811945204E+03  0.27252113512E+03  0.77000000000E+02 0.  0.
<mgrwt>
<rscale>  0 0.22612455E+03</rscale>
<asrwt>0</asrwt>
<pdfrwt beam="1">  1        2 0.40734648E-02 0.22612455E+03</pdfrwt>
<pdfrwt beam="2">  1       -2 0.74275362E-01 0.22612455E+03</pdfrwt>
<totfact> 0.34226188E+03</totfact>
</mgrwt>
</event>
<event>
 4    1  0.6122885E-004  0.4252737E+03  0.7818608E-02  0.1035363E+00
         -2   -1    0    0    0  501 -0.00000000000E+00  0.00000000000E+00  0.33391811988E+03  0.33391811989E+03  0.25500000000E-02 0. -1.
          2   -1    0    0  501    0  0.00000000000E+00 -0.00000000000E+00 -0.13540576455E+03  0.13540576458E+03  0.25500000000E-02 0.  1.
    5000001    1    1    2    0    0 -0.16148991595E+03  0.58388893306E+02  0.20848938610E+03  0.28086487842E+03  0.77000000000E+02 0.  0.
   -5000001    1    1    2    0    0  0.16148991595E+03 -0.58388893306E+02 -0.99770307691E+01  0.18845900604E+03  0.77000000000E+02 0.  0.
<mgrwt>
<rscale>  0 0.42527374E+03</rscale>
<asrwt>0</asrwt>
<pdfrwt beam="1">  1        2 0.20831656E-01 0.42527374E+03</pdfrwt>
<pdfrwt beam="2">  1       -2 0.51372018E-01 0.42527374E+03</pdfrwt>
<totfact> 0.97053975E+02</totfact>
</mgrwt>
</event>
<event>
 4    1  0.6122885E-004  0.1896289E+03  0.7818608E-02  0.1158796E+00
         -2   -1    0    0    0  501 -0.00000000000E+00  0.00000000000E+00  0.28876012195E+01  0.28876023455E+01  0.25500000000E-02 0. -1.
          2   -1    0    0  501    0  0.00000000000E+00 -0.00000000000E+00 -0.31132334752E+04  0.31132334752E+04  0.25500000000E-02 0.  1.
    5000001    1    1    2    0    0  0.44342644667E+02  0.28920377017E+02 -0.18191832075E+04  0.18215815109E+04  0.77000000000E+02 0.  0.
   -5000001    1    1    2    0    0 -0.44342644667E+02 -0.28920377017E+02 -0.12911626665E+04  0.12945395667E+04  0.77000000000E+02 0.  0.
<mgrwt>
<rscale>  0 0.18962889E+03</rscale>
<asrwt>0</asrwt>
<pdfrwt beam="1">  1        2 0.47895631E+00 0.18962889E+03</pdfrwt>
<pdfrwt beam="2">  1       -2 0.44424892E-03 0.18962889E+03</pdfrwt>
<totfact> 0.12246780E+04</totfact>
</mgrwt>
</event>
<event>
 4    1  0.6122885E-004  0.1773101E+03  0.7818608E-02  0.1170432E+00
         -2   -1    0    0    0  501 -0.00000000000E+00  0.00000000000E+00  0.70309579244E+01  0.70309583868E+01  0.25500000000E-02 0. -1.
          2   -1    0    0  501    0  0.00000000000E+00 -0.00000000000E+00 -0.11178726277E+04  0.11178726277E+04  0.25500000000E-02 0.  1.
    5000001    1    1    2    0    0 -0.38578286225E+02 -0.14820649037E+02 -0.65011426682E+03  0.65596150476E+03  0.77000000000E+02 0.  0.
   -5000001    1    1    2    0    0  0.38578286225E+02  0.14820649037E+02 -0.46072740293E+03  0.46894208130E+03  0.77000000000E+02 0.  0.
<mgrwt>
<rscale>  0 0.17731007E+03</rscale>
<asrwt>0</asrwt>
<pdfrwt beam="1">  1        2 0.17198026E+00 0.17731007E+03</pdfrwt>
<pdfrwt beam="2">  1       -2 0.10816868E-02 0.17731007E+03</pdfrwt>
<totfact> 0.41014643E+04</totfact>
</mgrwt>
</event>
<event>
 4    1  0.6122885E-004  0.2045227E+03  0.7818608E-02  0.1145978E+00
         -2   -1    0    0    0  501 -0.00000000000E+00  0.00000000000E+00  0.94813813698E+02  0.94813813732E+02  0.25500000000E-02 0. -1.
          2   -1    0    0  501    0  0.00000000000E+00 -0.00000000000E+00 -0.11029387419E+03  0.11029387422E+03  0.25500000000E-02 0.  1.
    5000001    1    1    2    0    0 -0.76457031819E+01  0.66399036699E+02 -0.15578651825E+02  0.10314544704E+03  0.77000000000E+02 0.  0.
   -5000001    1    1    2    0    0  0.76457031819E+01 -0.66399036699E+02  0.98591334410E-01  0.10196224091E+03  0.77000000000E+02 0.  0.
<mgrwt>
<rscale>  0 0.20452269E+03</rscale>
<asrwt>0</asrwt>
<pdfrwt beam="1">  1        2 0.16968288E-01 0.20452269E+03</pdfrwt>
<pdfrwt beam="2">  1       -2 0.14586741E-01 0.20452269E+03</pdfrwt>
<totfact> 0.11689653E+04</totfact>
</mgrwt>
</event>
<event>
 4    1  0.6122885E-004  0.4264690E+03  0.7818608E-02  0.1034981E+00
          2   -1    0    0  501    0  0.00000000000E+00  0.00000000000E+00  0.23416462694E+04  0.23416462694E+04  0.25500000000E-02 0.  1.
         -2   -1    0    0    0  501 -0.00000000000E+00 -0.00000000000E+00 -0.19417519004E+02  0.19417519172E+02  0.25500000000E-02 0. -1.
    5000001    1    1    2    0    0  0.18464916654E+03  0.26637228961E+01  0.15693603217E+04  0.15820629663E+04  0.77000000000E+02 0.  0.
   -5000001    1    1    2    0    0 -0.18464916654E+03 -0.26637228961E+01  0.75286842876E+03  0.77900082230E+03  0.77000000000E+02 0.  0.
<mgrwt>
<rscale>  0 0.42646904E+03</rscale>
<asrwt>0</asrwt>
<pdfrwt beam="1">  1        2 0.36025313E+00 0.42646904E+03</pdfrwt>
<pdfrwt beam="2">  1       -2 0.29873118E-02 0.42646904E+03</pdfrwt>
<totfact> 0.20592607E+03</totfact>
</mgrwt>
</event>
<event>
 4    1  0.6122885E-004  0.1670316E+03  0.7818608E-02  0.1180979E+00
          2   -1    0    0  501    0  0.00000000000E+00  0.00000000000E+00  0.15545314011E+03  0.15545314013E+03  0.25500000000E-02 0.  1.
         -2   -1    0    0    0  501 -0.00000000000E+00 -0.00000000000E+00 -0.44868115362E+02  0.44868115435E+02  0.25500000000E-02 0. -1.
    5000001    1    1    2    0    0  0.76015193541E+01  0.30802598918E+02  0.47773529303E+02  0.96009860424E+02  0.77000000000E+02 0.  0.
   -5000001    1    1    2    0    0 -0.76015193541E+01 -0.30802598918E+02  0.62811495447E+02  0.10431139514E+03  0.77000000000E+02 0.  0.
<mgrwt>
<rscale>  0 0.16703161E+03</rscale>
<asrwt>0</asrwt>
<pdfrwt beam="1">  1        2 0.23915867E-01 0.16703161E+03</pdfrwt>
<pdfrwt beam="2">  1       -2 0.69027871E-02 0.16703161E+03</pdfrwt>
<totfact> 0.25445878E+04</totfact>
</mgrwt>
</event>
<event>
 4    1  0.6122885E-004  0.1610266E+03  0.7818608E-02  0.1187543E+00
         -2   -1    0    0    0  501 -0.00000000000E+00  0.00000000000E+00  0.31139628244E+01  0.31139638685E+01  0.25500000000E-02 0. -1.
          2   -1    0    0  501    0  0.00000000000E+00 -0.00000000000E+00 -0.20817167653E+04  0.20817167653E+04  0.25500000000E-02 0.  1.
    5000001    1    1    2    0    0  0.13800573455E+02  0.17964897080E+02 -0.11213869230E+04  0.11242556757E+04  0.77000000000E+02 0.  0.
   -5000001    1    1    2    0    0 -0.13800573455E+02 -0.17964897080E+02 -0.95721587948E+03  0.96057505344E+03  0.77000000000E+02 0.  0.
<mgrwt>
<rscale>  0 0.16102658E+03</rscale>
<asrwt>0</asrwt>
<pdfrwt beam="1">  1        2 0.32026301E+00 0.16102658E+03</pdfrwt>
<pdfrwt beam="2">  1       -2 0.47907295E-03 0.16102658E+03</pdfrwt>
<totfact> 0.40405279E+04</totfact>
</mgrwt>
</event>
<event>
 4    1  0.6122885E-004  0.2090212E+03  0.7818608E-02  0.1142343E+00
          2   -1    0    0  501    0  0.00000000000E+00  0.00000000000E+00  0.77144457203E+03  0.77144457203E+03  0.25500000000E-02 0.  1.
         -2   -1    0    0    0  501 -0.00000000000E+00 -0.00000000000E+00 -0.14158464089E+02  0.14158464319E+02  0.25500000000E-02 0. -1.
    5000001    1    1    2    0    0  0.52019469231E+02  0.31850257038E+02  0.51274281325E+03  0.52206767434E+03  0.77000000000E+02 0.  0.
   -5000001    1    1    2    0    0 -0.52019469231E+02 -0.31850257038E+02  0.24454329469E+03  0.26353536202E+03  0.77000000000E+02 0.  0.
<mgrwt>
<rscale>  0 0.20902125E+03</rscale>
<asrwt>0</asrwt>
<pdfrwt beam="1">  1        2 0.11868380E+00 0.20902125E+03</pdfrwt>
<pdfrwt beam="2">  1       -2 0.21782249E-02 0.20902125E+03</pdfrwt>
<totfact> 0.24760725E+04</totfact>
</mgrwt>
</event>
<event>
 4    1  0.6122885E-004  0.3637161E+03  0.7818608E-02  0.1057122E+00
         -2   -1    0    0    0  501 -0.00000000000E+00  0.00000000000E+00  0.10629503779E+03  0.10629503782E+03  0.25500000000E-02 0. -1.
          2   -1    0    0  501    0  0.00000000000E+00 -0.00000000000E+00 -0.31113735793E+03  0.31113735794E+03  0.25500000000E-02 0.  1.
    5000001    1    1    2    0    0 -0.10374591315E+02  0.15002151500E+03 -0.25181973614E+02  0.17081340375E+03  0.77000000000E+02 0.  0.
   -5000001    1    1    2    0    0  0.10374591315E+02 -0.15002151500E+03 -0.17966034653E+03  0.24661899201E+03  0.77000000000E+02 0.  0.
<mgrwt>
<rscale>  0 0.36371614E+03</rscale>
<asrwt>0</asrwt>
<pdfrwt beam="1">  1        2 0.47867285E-01 0.36371614E+03</pdfrwt>
<pdfrwt beam="2">  1       -2 0.16353083E-01 0.36371614E+03</pdfrwt>
<totfact> 0.31268020E+03</totfact>
</mgrwt>
</event>
<event>
 4    1  0.6122885E-004  0.1740479E+03  0.7818608E-02  0.1173691E+00
          2   -1    0    0  501    0  0.00000000000E+00  0.00000000000E+00  0.10314464843E+04  0.10314464843E+04  0.25500000000E-02 0.  1.
         -2   -1    0    0    0  501 -0.00000000000E+00 -0.00000000000E+00 -0.73422809382E+01  0.73422813810E+01  0.25500000000E-02 0. -1.
    5000001    1    1    2    0    0 -0.31024427830E+02 -0.20807612610E+02  0.60617487982E+03  0.61218661925E+03  0.77000000000E+02 0.  0.
   -5000001    1    1    2    0    0  0.31024427830E+02  0.20807612610E+02  0.41792932349E+03  0.42660214638E+03  0.77000000000E+02 0.  0.
<mgrwt>
<rscale>  0 0.17404793E+03</rscale>
<asrwt>0</asrwt>
<pdfrwt beam="1">  1        2 0.15868415E+00 0.17404793E+03</pdfrwt>
<pdfrwt beam="2">  1       -2 0.11295812E-02 0.17404793E+03</pdfrwt>
<totfact> 0.43219769E+04</totfact>
</mgrwt>
</event>
<event>
 4    1  0.6122885E-004  0.1976950E+03  0.7818608E-02  0.1151698E+00
         -2   -1    0    0    0  501 -0.00000000000E+00  0.00000000000E+00  0.44403291758E+02  0.44403291831E+02  0.25500000000E-02 0. -1.
          2   -1    0    0  501    0  0.00000000000E+00 -0.00000000000E+00 -0.22004741747E+03  0.22004741748E+03  0.25500000000E-02 0.  1.
    5000001    1    1    2    0    0  0.42236569040E+02 -0.42928362208E+02 -0.68205339805E+02  0.11919622655E+03  0.77000000000E+02 0.  0.
   -5000001    1    1    2    0    0 -0.42236569040E+02  0.42928362208E+02 -0.10743878591E+03  0.14525448276E+03  0.77000000000E+02 0.  0.
<mgrwt>
<rscale>  0 0.19769501E+03</rscale>
<asrwt>0</asrwt>
<pdfrwt beam="1">  1        2 0.33853448E-01 0.19769501E+03</pdfrwt>
<pdfrwt beam="2">  1       -2 0.68312758E-02 0.19769501E+03</pdfrwt>
<totfact> 0.17916794E+04</totfact>
</mgrwt>
</event>
<event>
 4    1  0.6122885E-004  0.3136232E+03  0.7818608E-02  0.1078622E+00
         -2   -1    0    0    0  501 -0.00000000000E+00  0.00000000000E+00  0.12474446142E+03  0.12474446144E+03  0.25500000000E-02 0. -1.
          2   -1    0    0  501    0  0.00000000000E+00 -0.00000000000E+00 -0.19712200694E+03  0.19712200695E+03  0.25500000000E-02 0.  1.
    5000001    1    1    2    0    0 -0.30864356046E+02 -0.12852883882E+03 -0.71571134535E+02  0.16888960354E+03  0.77000000000E+02 0.  0.
   -5000001    1    1    2    0    0  0.30864356046E+02  0.12852883882E+03 -0.80641098333E+00  0.15297686486E+03  0.77000000000E+02 0.  0.
<mgrwt>
<rscale>  0 0.31362320E+03</rscale>
<asrwt>0</asrwt>
<pdfrwt beam="1">  1        2 0.30326463E-01 0.31362320E+03</pdfrwt>
<pdfrwt beam="2">  1       -2 0.19191456E-01 0.31362320E+03</pdfrwt>
<totfact> 0.39093508E+03</totfact>
</mgrwt>
</event>
<event>
 4    1  0.6122885E-004  0.2297938E+03  0.7818608E-02  0.1126785E+00
          2   -1    0    0  501    0  0.00000000000E+00  0.00000000000E+00  0.16671940255E+03  0.16671940257E+03  0.25500000000E-02 0.  1.
         -2   -1    0    0    0  501 -0.00000000000E+00 -0.00000000000E+00 -0.79182711135E+02  0.79182711176E+02  0.25500000000E-02 0. -1.
    5000001    1    1    2    0    0  0.73699318323E+02  0.38968273135E+02  0.24560782732E+02  0.11611351291E+03  0.77000000000E+02 0.  0.
   -5000001    1    1    2    0    0 -0.73699318323E+02 -0.38968273135E+02  0.62975908688E+02  0.12978860084E+03  0.77000000000E+02 0.  0.
<mgrwt>
<rscale>  0 0.22979377E+03</rscale>
<asrwt>0</asrwt>
<pdfrwt beam="1">  1        2 0.25649139E-01 0.22979377E+03</pdfrwt>
<pdfrwt beam="2">  1       -2 0.12181956E-01 0.22979377E+03</pdfrwt>
<totfact> 0.98698116E+03</totfact>
</mgrwt>
</event>
<event>
 4    1  0.6122885E-004  0.5292474E+03  0.7818608E-02  0.1006415E+00
         -2   -1    0    0    0  501 -0.00000000000E+00  0.00000000000E+00  0.18026514169E+03  0.18026514170E+03  0.25500000000E-02 0. -1.
          2   -1    0    0  501    0  0.00000000000E+00 -0.00000000000E+00 -0.38845946235E+03  0.38845946235E+03  0.25500000000E-02 0.  1.
    5000001    1    1    2    0    0 -0.57325999010E+02 -0.23755306287E+03 -0.32987372119E+02  0.25833097871E+03  0.77000000000E+02 0.  0.
   -5000001    1    1    2    0    0  0.57325999010E+02  0.23755306287E+03 -0.17520694854E+03  0.31039362535E+03  0.77000000000E+02 0.  0.
<mgrwt>
<rscale>  0 0.52924739E+03</rscale>
<asrwt>0</asrwt>
<pdfrwt beam="1">  1        2 0.59762994E-01 0.52924739E+03</pdfrwt>
<pdfrwt beam="2">  1       -2 0.27733099E-01 0.52924739E+03</pdfrwt>
<totfact> 0.97708267E+02</totfact>
</mgrwt>
</event>
<event>
 4    1  0.6122885E-004  0.2840581E+03  0.7818608E-02  0.1093493E+00
         -2   -1    0    0    0  501 -0.00000000000E+00  0.00000000000E+00  0.51394218329E+02  0.51394218392E+02  0.25500000000E-02 0. -1.
          2   -1    0    0  501    0  0.00000000000E+00 -0.00000000000E+00 -0.39250038880E+03  0.39250038881E+03  0.25500000000E-02 0.  1.
    5000001    1    1    2    0    0 -0.26071367861E+02  0.98574054250E+02 -0.73632437945E+02  0.14746964539E+03  0.77000000000E+02 0.  0.
   -5000001    1    1    2    0    0  0.26071367861E+02 -0.98574054250E+02 -0.26747373252E+03  0.29642496181E+03  0.77000000000E+02 0.  0.
<mgrwt>
<rscale>  0 0.28405810E+03</rscale>
<asrwt>0</asrwt>
<pdfrwt beam="1">  1        2 0.60384673E-01 0.28405810E+03</pdfrwt>
<pdfrwt beam="2">  1       -2 0.79068031E-02 0.28405810E+03</pdfrwt>
<totfact> 0.78116117E+03</totfact>
</mgrwt>
</event>
<event>
 4    1  0.6122885E-004  0.6330107E+03  0.7818608E-02  0.9839191E-01
         -2   -1    0    0    0  501 -0.00000000000E+00  0.00000000000E+00  0.73789378373E+02  0.73789378417E+02  0.25500000000E-02 0. -1.
          2   -1    0    0  501    0  0.00000000000E+00 -0.00000000000E+00 -0.13575887448E+04  0.13575887448E+04  0.25500000000E-02 0.  1.
    5000001    1    1    2    0    0 -0.13048023816E+03 -0.27486435788E+03 -0.54946235306E+03  0.63278225735E+03  0.77000000000E+02 0.  0.
   -5000001    1    1    2    0    0  0.13048023816E+03  0.27486435788E+03 -0.73433701338E+03  0.79859586588E+03  0.77000000000E+02 0.  0.
<mgrwt>
<rscale>  0 0.63301068E+03</rscale>
<asrwt>0</asrwt>
<pdfrwt beam="1">  1        2 0.20885979E+00 0.63301068E+03</pdfrwt>
<pdfrwt beam="2">  1       -2 0.11352213E-01 0.63301068E+03</pdfrwt>
<totfact> 0.86601882E+02</totfact>
</mgrwt>
</event>
<event>
 4    1  0.6122885E-004  0.2684734E+03  0.7818608E-02  0.1102156E+00
         -2   -1    0    0    0  501 -0.00000000000E+00  0.00000000000E+00  0.70310362829E+02  0.70310362875E+02  0.25500000000E-02 0. -1.
          2   -1    0    0  501    0  0.00000000000E+00 -0.00000000000E+00 -0.25628507530E+03  0.25628507532E+03  0.25500000000E-02 0.  1.
    5000001    1    1    2    0    0  0.10237317683E+03  0.15556215472E+02 -0.13798490909E+03  0.18892087844E+03  0.77000000000E+02 0.  0.
   -5000001    1    1    2    0    0 -0.10237317683E+03 -0.15556215472E+02 -0.47989803387E+02  0.13767455975E+03  0.77000000000E+02 0.  0.
<mgrwt>
<rscale>  0 0.26847344E+03</rscale>
<asrwt>0</asrwt>
<pdfrwt beam="1">  1        2 0.39428473E-01 0.26847344E+03</pdfrwt>
<pdfrwt beam="2">  1       -2 0.10816979E-01 0.26847344E+03</pdfrwt>
<totfact> 0.75226789E+03</totfact>
</mgrwt>
</event>
<event>
 4    1  0.6122885E-004  0.1800282E+03  0.7818608E-02  0.1167776E+00
         -2   -1    0    0    0  501 -0.00000000000E+00  0.00000000000E+00  0.54157252817E+01  0.54157258821E+01  0.25500000000E-02 0. -1.
          2   -1    0    0  501    0  0.00000000000E+00 -0.00000000000E+00 -0.14961127625E+04  0.14961127625E+04  0.25500000000E-02 0.  1.
    5000001    1    1    2    0    0  0.46171325038E+02  0.46966405965E+01 -0.78235493936E+03  0.78750371480E+03  0.77000000000E+02 0.  0.
   -5000001    1    1    2    0    0 -0.46171325038E+02 -0.46966405965E+01 -0.70834209788E+03  0.71402477360E+03  0.77000000000E+02 0.  0.
<mgrwt>
<rscale>  0 0.18002818E+03</rscale>
<asrwt>0</asrwt>
<pdfrwt beam="1">  1        2 0.23017086E+00 0.18002818E+03</pdfrwt>
<pdfrwt beam="2">  1       -2 0.83318974E-03 0.18002818E+03</pdfrwt>
<totfact> 0.37122436E+04</totfact>
</mgrwt>
</event>
<event>
 4    1  0.6122885E-004  0.2017834E+03  0.7818608E-02  0.1148243E+00
          2   -1    0    0  501    0  0.00000000000E+00  0.00000000000E+00  0.11684211531E+04  0.11684211531E+04  0.25500000000E-02 0.  1.
         -2   -1    0    0    0  501 -0.00000000000E+00 -0.00000000000E+00 -0.87118722473E+01  0.87118726205E+01  0.25500000000E-02 0. -1.
    5000001    1    1    2    0    0 -0.47165662853E+02  0.12245452454E+01  0.84230627922E+03  0.84713338223E+03  0.77000000000E+02 0.  0.
   -5000001    1    1    2    0    0  0.47165662853E+02 -0.12245452454E+01  0.31740300158E+03  0.32999964345E+03  0.77000000000E+02 0.  0.
<mgrwt>
<rscale>  0 0.20178341E+03</rscale>
<asrwt>0</asrwt>
<pdfrwt beam="1">  1        2 0.17975701E+00 0.20178341E+03</pdfrwt>
<pdfrwt beam="2">  1       -2 0.13402887E-02 0.20178341E+03</pdfrwt>
<totfact> 0.28407326E+04</totfact>
</mgrwt>
</event>
<event>
 4    1  0.6122885E-004  0.7390264E+03  0.7818608E-02  0.9652725E-01
         -2   -1    0    0    0  501 -0.00000000000E+00  0.00000000000E+00  0.83078469931E+02  0.83078469970E+02  0.25500000000E-02 0. -1.
          2   -1    0    0  501    0  0.00000000000E+00 -0.00000000000E+00 -0.16435063301E+04  0.16435063301E+04  0.25500000000E-02 0.  1.
    5000001    1    1    2    0    0  0.12962672527E+03  0.31226046953E+03 -0.48192362663E+03  0.59370790010E+03  0.77000000000E+02 0.  0.
   -5000001    1    1    2    0    0 -0.12962672527E+03 -0.31226046953E+03 -0.10785042335E+04  0.11328769000E+04  0.77000000000E+02 0.  0.
<mgrwt>
<rscale>  0 0.73902636E+03</rscale>
<asrwt>0</asrwt>
<pdfrwt beam="1">  1        2 0.25284710E+00 0.73902636E+03</pdfrwt>
<pdfrwt beam="2">  1       -2 0.12781304E-01 0.73902636E+03</pdfrwt>
<totfact> 0.49100583E+02</totfact>
</mgrwt>
</event>
<event>
 4    1  0.6122885E-004  0.2945263E+03  0.7818608E-02  0.1088009E+00
         -2   -1    0    0    0  501 -0.00000000000E+00  0.00000000000E+00  0.20960281107E+02  0.20960281262E+02  0.25500000000E-02 0. -1.
          2   -1    0    0  501    0  0.00000000000E+00 -0.00000000000E+00 -0.10346441142E+04  0.10346441142E+04  0.25500000000E-02 0.  1.
    5000001    1    1    2    0    0 -0.69600508229E+02  0.33381549820E+02 -0.86162688352E+03  0.86849780945E+03  0.77000000000E+02 0.  0.
   -5000001    1    1    2    0    0  0.69600508229E+02 -0.33381549820E+02 -0.15205694954E+03  0.18710658598E+03  0.77000000000E+02 0.  0.
<mgrwt>
<rscale>  0 0.29452627E+03</rscale>
<asrwt>0</asrwt>
<pdfrwt beam="1">  1        2 0.15917598E+00 0.29452627E+03</pdfrwt>
<pdfrwt beam="2">  1       -2 0.32246595E-02 0.29452627E+03</pdfrwt>
<totfact> 0.95082703E+03</totfact>
</mgrwt>
</event>
<event>
 4    1  0.6122885E-004  0.4075969E+03  0.7818608E-02  0.1041180E+00
          2   -1    0    0  501    0  0.00000000000E+00  0.00000000000E+00  0.12608019714E+04  0.12608019714E+04  0.25500000000E-02 0.  1.
         -2   -1    0    0    0  501 -0.00000000000E+00 -0.00000000000E+00 -0.32942379364E+02  0.32942379463E+02  0.25500000000E-02 0. -1.
    5000001    1    1    2    0    0  0.22978290558E+02 -0.15023509147E+03  0.96889092374E+03  0.98375668062E+03  0.77000000000E+02 0.  0.
   -5000001    1    1    2    0    0 -0.22978290558E+02  0.15023509147E+03  0.25896866825E+03  0.30998767020E+03  0.77000000000E+02 0.  0.
<mgrwt>
<rscale>  0 0.40759694E+03</rscale>
<asrwt>0</asrwt>
<pdfrwt beam="1">  1        2 0.19396954E+00 0.40759694E+03</pdfrwt>
<pdfrwt beam="2">  1       -2 0.50680582E-02 0.40759694E+03</pdfrwt>
<totfact> 0.35490497E+03</totfact>
</mgrwt>
</event>
<event>
 4    1  0.6122885E-004  0.2766213E+03  0.7818608E-02  0.1097549E+00
          2   -1    0    0  501    0  0.00000000000E+00  0.00000000000E+00  0.82912331947E+03  0.82912331948E+03  0.25500000000E-02 0.  1.
         -2   -1    0    0    0  501 -0.00000000000E+00 -0.00000000000E+00 -0.23072362540E+02  0.23072362680E+02  0.25500000000E-02 0. -1.
    5000001    1    1    2    0    0  0.86271063674E+02 -0.44708709951E+02  0.21413702139E+03  0.24743732358E+03  0.77000000000E+02 0.  0.
   -5000001    1    1    2    0    0 -0.86271063674E+02  0.44708709951E+02  0.59191393555E+03  0.60475835858E+03  0.77000000000E+02 0.  0.
<mgrwt>
<rscale>  0 0.27662129E+03</rscale>
<asrwt>0</asrwt>
<pdfrwt beam="1">  1        2 0.12755743E+00 0.27662129E+03</pdfrwt>
<pdfrwt beam="2">  1       -2 0.35495943E-02 0.27662129E+03</pdfrwt>
<totfact> 0.11113906E+04</totfact>
</mgrwt>
</event>
<event>
 4    1  0.6122885E-004  0.3052380E+03  0.7818608E-02  0.1082651E+00
         -2   -1    0    0    0  501 -0.00000000000E+00  0.00000000000E+00  0.72142960206E+03  0.72142960207E+03  0.25500000000E-02 0. -1.
          2   -1    0    0  501    0  0.00000000000E+00 -0.00000000000E+00 -0.32286666417E+02  0.32286666518E+02  0.25500000000E-02 0.  1.
    5000001    1    1    2    0    0 -0.64682608441E+02  0.77753605863E+02  0.13600776869E+03  0.18616276804E+03  0.77000000000E+02 0.  0.
   -5000001    1    1    2    0    0  0.64682608441E+02 -0.77753605863E+02  0.55313516696E+03  0.56755350055E+03  0.77000000000E+02 0.  0.
<mgrwt>
<rscale>  0 0.30523799E+03</rscale>
<asrwt>0</asrwt>
<pdfrwt beam="1">  1        2 0.49671794E-02 0.30523799E+03</pdfrwt>
<pdfrwt beam="2">  1       -2 0.11098917E+00 0.30523799E+03</pdfrwt>
<totfact> 0.10659165E+03</totfact>
</mgrwt>
</event>
<event>
 4    1  0.6122885E-004  0.3558095E+03  0.7818608E-02  0.1060256E+00
          2   -1    0    0  501    0  0.00000000000E+00  0.00000000000E+00  0.79410788623E+03  0.79410788623E+03  0.25500000000E-02 0.  1.
         -2   -1    0    0    0  501 -0.00000000000E+00 -0.00000000000E+00 -0.39856171226E+02  0.39856171308E+02  0.25500000000E-02 0. -1.
    5000001    1    1    2    0    0 -0.13952154160E+03 -0.27327834408E+02  0.20317447001E+03  0.25965734414E+03  0.77000000000E+02 0.  0.
   -5000001    1    1    2    0    0  0.13952154160E+03  0.27327834408E+02  0.55107724500E+03  0.57430671340E+03  0.77000000000E+02 0.  0.
<mgrwt>
<rscale>  0 0.35580950E+03</rscale>
<asrwt>0</asrwt>
<pdfrwt beam="1">  1        2 0.12217042E+00 0.35580950E+03</pdfrwt>
<pdfrwt beam="2">  1       -2 0.61317197E-02 0.35580950E+03</pdfrwt>
<totfact> 0.51484005E+03</totfact>
</mgrwt>
</event>
<event>
 4    1  0.6122885E-004  0.3027519E+03  0.7818608E-02  0.1083873E+00
          2   -1    0    0  501    0  0.00000000000E+00  0.00000000000E+00  0.89515296487E+03  0.89515296488E+03  0.25500000000E-02 0.  1.
         -2   -1    0    0    0  501 -0.00000000000E+00 -0.00000000000E+00 -0.25598619308E+02  0.25598619435E+02  0.25500000000E-02 0. -1.
    5000001    1    1    2    0    0 -0.65134840914E+02  0.68670032873E+02  0.16228920079E+03  0.20303917260E+03  0.77000000000E+02 0.  0.
   -5000001    1    1    2    0    0  0.65134840914E+02 -0.68670032873E+02  0.70726514478E+03  0.71771241172E+03  0.77000000000E+02 0.  0.
<mgrwt>
<rscale>  0 0.30275191E+03</rscale>
<asrwt>0</asrwt>
<pdfrwt beam="1">  1        2 0.13771581E+00 0.30275191E+03</pdfrwt>
<pdfrwt beam="2">  1       -2 0.39382501E-02 0.30275191E+03</pdfrwt>
<totfact> 0.86186665E+03</totfact>
</mgrwt>
</event>
<event>
 4    1  0.6122885E-004  0.2367886E+03  0.7818608E-02  0.1121951E+00
         -2   -1    0    0    0  501 -0.00000000000E+00  0.00000000000E+00  0.50353199626E+01  0.50353206083E+01  0.25500000000E-02 0. -1.
          2   -1    0    0  501    0  0.00000000000E+00 -0.00000000000E+00 -0.27837779345E+04  0.27837779345E+04  0.25500000000E-02 0.  1.
    5000001    1    1    2    0    0 -0.39254999288E+02 -0.76539785938E+02 -0.10802400658E+04  0.10863916851E+04  0.77000000000E+02 0.  0.
   -5000001    1    1    2    0    0  0.39254999288E+02  0.76539785938E+02 -0.16985025487E+04  0.17024215699E+04  0.77000000000E+02 0.  0.
<mgrwt>
<rscale>  0 0.23678863E+03</rscale>
<asrwt>0</asrwt>
<pdfrwt beam="1">  1        2 0.42827230E+00 0.23678863E+03</pdfrwt>
<pdfrwt beam="2">  1       -2 0.77466688E-03 0.23678863E+03</pdfrwt>
<totfact> 0.85941811E+03</totfact>
</mgrwt>
</event>
<event>
 4    1  0.6122885E-004  0.2009305E+03  0.7818608E-02  0.1148956E+00
         -2   -1    0    0    0  501 -0.00000000000E+00  0.00000000000E+00  0.83625813444E+02  0.83625813483E+02  0.25500000000E-02 0. -1.
          2   -1    0    0  501    0  0.00000000000E+00 -0.00000000000E+00 -0.12069553439E+03  0.12069553442E+03  0.25500000000E-02 0.  1.
    5000001    1    1    2    0    0  0.58258023972E+02  0.96703844030E+01 -0.44988269071E+02  0.10696007688E+03  0.77000000000E+02 0.  0.
   -5000001    1    1    2    0    0 -0.58258023972E+02 -0.96703844030E+01  0.79185481204E+01  0.97361271027E+02  0.77000000000E+02 0.  0.
<mgrwt>
<rscale>  0 0.20093046E+03</rscale>
<asrwt>0</asrwt>
<pdfrwt beam="1">  1        2 0.18568544E-01 0.20093046E+03</pdfrwt>
<pdfrwt beam="2">  1       -2 0.12865510E-01 0.20093046E+03</pdfrwt>
<totfact> 0.12908631E+04</totfact>
</mgrwt>
</event>
<event>
 4    1  0.6122885E-004  0.2800706E+03  0.7818608E-02  0.1095650E+00
         -2   -1    0    0    0  501 -0.00000000000E+00  0.00000000000E+00  0.99929947555E+02  0.99929947587E+02  0.25500000000E-02 0. -1.
          2   -1    0    0  501    0  0.00000000000E+00 -0.00000000000E+00 -0.19623629335E+03  0.19623629337E+03  0.25500000000E-02 0.  1.
    5000001    1    1    2    0    0  0.10069960051E+03  0.57243540779E+02 -0.30982711902E+02  0.14249968751E+03  0.77000000000E+02 0.  0.
   -5000001    1    1    2    0    0 -0.10069960051E+03 -0.57243540779E+02 -0.65323633893E+02  0.15366655345E+03  0.77000000000E+02 0.  0.
<mgrwt>
<rscale>  0 0.28007058E+03</rscale>
<asrwt>0</asrwt>
<pdfrwt beam="1">  1        2 0.30190199E-01 0.28007058E+03</pdfrwt>
<pdfrwt beam="2">  1       -2 0.15373838E-01 0.28007058E+03</pdfrwt>
<totfact> 0.56851804E+03</totfact>
</mgrwt>
</event>
<event>
 4    1  0.6122885E-004  0.1962818E+03  0.7818608E-02  0.1152914E+00
         -2   -1    0    0    0  501 -0.00000000000E+00  0.00000000000E+00  0.40305374853E+01  0.40305382919E+01  0.25500000000E-02 0. -1.
          2   -1    0    0  501    0  0.00000000000E+00 -0.00000000000E+00 -0.23896664455E+04  0.23896664455E+04  0.25500000000E-02 0.  1.
    5000001    1    1    2    0    0  0.43564974550E+02  0.40287490220E+02 -0.10284529126E+04  0.10330369704E+04  0.77000000000E+02 0.  0.
   -5000001    1    1    2    0    0 -0.43564974550E+02 -0.40287490220E+02 -0.13571829955E+04  0.13606600134E+04  0.77000000000E+02 0.  0.
<mgrwt>
<rscale>  0 0.19628185E+03</rscale>
<asrwt>0</asrwt>
<pdfrwt beam="1">  1        2 0.36763986E+00 0.19628185E+03</pdfrwt>
<pdfrwt beam="2">  1       -2 0.62008466E-03 0.19628185E+03</pdfrwt>
<totfact> 0.19440196E+04</totfact>
</mgrwt>
</event>
<event>
 4    1  0.6122885E-004  0.2584461E+03  0.7818608E-02  0.1108080E+00
         -2   -1    0    0    0  501 -0.00000000000E+00  0.00000000000E+00  0.13016295429E+02  0.13016295678E+02  0.25500000000E-02 0. -1.
          2   -1    0    0  501    0  0.00000000000E+00 -0.00000000000E+00 -0.12828995384E+04  0.12828995384E+04  0.25500000000E-02 0.  1.
    5000001    1    1    2    0    0 -0.50020980166E+02 -0.68958260987E+02 -0.33777497461E+03  0.35676080739E+03  0.77000000000E+02 0.  0.
   -5000001    1    1    2    0    0  0.50020980166E+02  0.68958260987E+02 -0.93210826833E+03  0.93915502666E+03  0.77000000000E+02 0.  0.
<mgrwt>
<rscale>  0 0.25844612E+03</rscale>
<asrwt>0</asrwt>
<pdfrwt beam="1">  1        2 0.19736906E+00 0.25844612E+03</pdfrwt>
<pdfrwt beam="2">  1       -2 0.20025080E-02 0.25844612E+03</pdfrwt>
<totfact> 0.13796165E+04</totfact>
</mgrwt>
</event>
<event>
 4    1  0.6122885E-004  0.3319520E+03  0.7818608E-02  0.1070276E+00
          2   -1    0    0  501    0  0.00000000000E+00  0.00000000000E+00  0.69606125901E+03  0.69606125902E+03  0.25500000000E-02 0.  1.
         -2   -1    0    0    0  501 -0.00000000000E+00 -0.00000000000E+00 -0.39577031264E+02  0.39577031346E+02  0.25500000000E-02 0. -1.
    5000001    1    1    2    0    0  0.60457709307E+02 -0.81797578751E+02  0.92948632069E+02  0.15784304453E+03  0.77000000000E+02 0.  0.
   -5000001    1    1    2    0    0 -0.60457709307E+02  0.81797578751E+02  0.56353559568E+03  0.57779524583E+03  0.77000000000E+02 0.  0.
<mgrwt>
<rscale>  0 0.33195203E+03</rscale>
<asrwt>0</asrwt>
<pdfrwt beam="1">  1        2 0.10708634E+00 0.33195203E+03</pdfrwt>
<pdfrwt beam="2">  1       -2 0.60887746E-02 0.33195203E+03</pdfrwt>
<totfact> 0.61288888E+03</totfact>
</mgrwt>
</event>
<event>
 4    1  0.6122885E-004  0.2793565E+03  0.7818608E-02  0.1096041E+00
          2   -1    0    0  501    0  0.00000000000E+00  0.00000000000E+00  0.16131792180E+04  0.16131792180E+04  0.25500000000E-02 0.  1.
         -2   -1    0    0    0  501 -0.00000000000E+00 -0.00000000000E+00 -0.12094142063E+02  0.12094142332E+02  0.25500000000E-02 0. -1.
    5000001    1    1    2    0    0 -0.10940272590E+03 -0.83180425699E+01  0.57201812155E+03  0.58751329998E+03  0.77000000000E+02 0.  0.
   -5000001    1    1    2    0    0  0.10940272590E+03  0.83180425699E+01  0.10290669544E+04  0.10377600603E+04  0.77000000000E+02 0.  0.
<mgrwt>
<rscale>  0 0.27935654E+03</rscale>
<asrwt>0</asrwt>
<pdfrwt beam="1">  1        2 0.24818132E+00 0.27935654E+03</pdfrwt>
<pdfrwt beam="2">  1       -2 0.18606380E-02 0.27935654E+03</pdfrwt>
<totfact> 0.10213823E+04</totfact>
</mgrwt>
</event>
<event>
 4    1  0.6122885E-004  0.4882723E+03  0.7818608E-02  0.1016886E+00
          2   -1    0    0  501    0  0.00000000000E+00  0.00000000000E+00  0.42433155712E+03  0.42433155713E+03  0.25500000000E-02 0.  1.
         -2   -1    0    0    0  501 -0.00000000000E+00 -0.00000000000E+00 -0.14046201250E+03  0.14046201252E+03  0.25500000000E-02 0. -1.
    5000001    1    1    2    0    0  0.11019039429E+03  0.20018175842E+03  0.18611482953E+03  0.30460201767E+03  0.77000000000E+02 0.  0.
   -5000001    1    1    2    0    0 -0.11019039429E+03 -0.20018175842E+03  0.97754715096E+02  0.26019155198E+03  0.77000000000E+02 0.  0.
<mgrwt>
<rscale>  0 0.48827232E+03</rscale>
<asrwt>0</asrwt>
<pdfrwt beam="1">  1        2 0.65281778E-01 0.48827232E+03</pdfrwt>
<pdfrwt beam="2">  1       -2 0.21609540E-01 0.48827232E+03</pdfrwt>
<totfact> 0.13824689E+03</totfact>
</mgrwt>
</event>
<event>
 4    1  0.6122885E-004  0.1768135E+03  0.7818608E-02  0.1170923E+00
         -2   -1    0    0    0  501 -0.00000000000E+00  0.00000000000E+00  0.52208850860E+02  0.52208850922E+02  0.25500000000E-02 0. -1.
          2   -1    0    0  501    0  0.00000000000E+00 -0.00000000000E+00 -0.14970176533E+03  0.14970176535E+03  0.25500000000E-02 0.  1.
    5000001    1    1    2    0    0  0.38017944974E+02  0.10359109854E+02 -0.69618745872E+02  0.11103353130E+03  0.77000000000E+02 0.  0.
   -5000001    1    1    2    0    0 -0.38017944974E+02 -0.10359109854E+02 -0.27874168593E+02  0.90877084965E+02  0.77000000000E+02 0.  0.
<mgrwt>
<rscale>  0 0.17681354E+03</rscale>
<asrwt>0</asrwt>
<pdfrwt beam="1">  1        2 0.23031041E-01 0.17681354E+03</pdfrwt>
<pdfrwt beam="2">  1       -2 0.80321310E-02 0.17681354E+03</pdfrwt>
<totfact> 0.21110441E+04</totfact>
</mgrwt>
</event>
<event>
 4    1  0.6122885E-004  0.3231816E+03  0.7818608E-02  0.1074194E+00
         -2   -1    0    0    0  501 -0.00000000000E+00  0.00000000000E+00  0.18317455691E+03  0.18317455693E+03  0.25500000000E-02 0. -1.
          2   -1    0    0  501    0  0.00000000000E+00 -0.00000000000E+00 -0.14255027714E+03  0.14255027716E+03  0.25500000000E-02 0.  1.
    5000001    1    1    2    0    0 -0.57691164816E+02 -0.12678461134E+03 -0.78356824676E+01  0.15935183114E+03  0.77000000000E+02 0.  0.
   -5000001    1    1    2    0    0  0.57691164816E+02  0.12678461134E+03  0.48459962240E+02  0.16637300295E+03  0.77000000000E+02 0.  0.
<mgrwt>
<rscale>  0 0.32318158E+03</rscale>
<asrwt>0</asrwt>
<pdfrwt beam="1">  1        2 0.21930812E-01 0.32318158E+03</pdfrwt>
<pdfrwt beam="2">  1       -2 0.28180701E-01 0.32318158E+03</pdfrwt>
<totfact> 0.28672368E+03</totfact>
</mgrwt>
</event>
<event>
 4    1  0.6122885E-004  0.2598708E+03  0.7818608E-02  0.1107221E+00
         -2   -1    0    0    0  501 -0.00000000000E+00  0.00000000000E+00  0.56951304155E+02  0.56951304212E+02  0.25500000000E-02 0. -1.
          2   -1    0    0  501    0  0.00000000000E+00 -0.00000000000E+00 -0.29644983351E+03  0.29644983352E+03  0.25500000000E-02 0.  1.
    5000001    1    1    2    0    0  0.98277416055E+02  0.28880784057E+02 -0.90530017682E+02  0.15689880272E+03  0.77000000000E+02 0.  0.
   -5000001    1    1    2    0    0 -0.98277416055E+02 -0.28880784057E+02 -0.14896851167E+03  0.19650233501E+03  0.77000000000E+02 0.  0.
<mgrwt>
<rscale>  0 0.25987077E+03</rscale>
<asrwt>0</asrwt>
<pdfrwt beam="1">  1        2 0.45607666E-01 0.25987077E+03</pdfrwt>
<pdfrwt beam="2">  1       -2 0.87617393E-02 0.25987077E+03</pdfrwt>
<totfact> 0.89711349E+03</totfact>
</mgrwt>
</event>
<event>
 4    1  0.6122885E-004  0.3745125E+03  0.7818608E-02  0.1052981E+00
          2   -1    0    0  501    0  0.00000000000E+00  0.00000000000E+00  0.35071206806E+03  0.35071206807E+03  0.25500000000E-02 0.  1.
         -2   -1    0    0    0  501 -0.00000000000E+00 -0.00000000000E+00 -0.99982014662E+02  0.99982014695E+02  0.25500000000E-02 0. -1.
    5000001    1    1    2    0    0  0.16667064696E+03 -0.33885574724E+02  0.14274437870E+03  0.23501551945E+03  0.77000000000E+02 0.  0.
   -5000001    1    1    2    0    0 -0.16667064696E+03  0.33885574724E+02  0.10798567469E+03  0.21567856331E+03  0.77000000000E+02 0.  0.
<mgrwt>
<rscale>  0 0.37451248E+03</rscale>
<asrwt>0</asrwt>
<pdfrwt beam="1">  1        2 0.53955703E-01 0.37451248E+03</pdfrwt>
<pdfrwt beam="2">  1       -2 0.15381848E-01 0.37451248E+03</pdfrwt>
<totfact> 0.30425280E+03</totfact>
</mgrwt>
</event>
<event>
 4    1  0.6122885E-004  0.1799403E+03  0.7818608E-02  0.1167861E+00
          2   -1    0    0  501    0  0.00000000000E+00  0.00000000000E+00  0.23098256260E+03  0.23098256261E+03  0.25500000000E-02 0.  1.
         -2   -1    0    0    0  501 -0.00000000000E+00 -0.00000000000E+00 -0.35044321654E+02  0.35044321746E+02  0.25500000000E-02 0. -1.
    5000001    1    1    2    0    0 -0.16032141922E+02 -0.40991147364E+02  0.75629673906E+02  0.11655964701E+03  0.77000000000E+02 0.  0.
   -5000001    1    1    2    0    0  0.16032141922E+02  0.40991147364E+02  0.12030856704E+03  0.14946723735E+03  0.77000000000E+02 0.  0.
<mgrwt>
<rscale>  0 0.17994029E+03</rscale>
<asrwt>0</asrwt>
<pdfrwt beam="1">  1        2 0.35535779E-01 0.17994029E+03</pdfrwt>
<pdfrwt beam="2">  1       -2 0.53914341E-02 0.17994029E+03</pdfrwt>
<totfact> 0.24220067E+04</totfact>
</mgrwt>
</event>
<event>
 4    1  0.6122885E-004  0.2501357E+03  0.7818608E-02  0.1113219E+00
         -2   -1    0    0    0  501 -0.00000000000E+00  0.00000000000E+00  0.10036545380E+03  0.10036545383E+03  0.25500000000E-02 0. -1.
          2   -1    0    0  501    0  0.00000000000E+00 -0.00000000000E+00 -0.15585008209E+03  0.15585008211E+03  0.25500000000E-02 0.  1.
    5000001    1    1    2    0    0 -0.89875149048E+02  0.36455151054E+02 -0.45673343247E+02  0.13199081308E+03  0.77000000000E+02 0.  0.
   -5000001    1    1    2    0    0  0.89875149048E+02 -0.36455151054E+02 -0.98112850381E+01  0.12422472286E+03  0.77000000000E+02 0.  0.
<mgrwt>
<rscale>  0 0.25013568E+03</rscale>
<asrwt>0</asrwt>
<pdfrwt beam="1">  1        2 0.23976936E-01 0.25013568E+03</pdfrwt>
<pdfrwt beam="2">  1       -2 0.15440839E-01 0.25013568E+03</pdfrwt>
<totfact> 0.72544352E+03</totfact>
</mgrwt>
</event>
<event>
 4    1  0.6122885E-004  0.2690816E+03  0.7818608E-02  0.1101806E+00
         -2   -1    0    0    0  501 -0.00000000000E+00  0.00000000000E+00  0.42490121953E+03  0.42490121954E+03  0.25500000000E-02 0. -1.
          2   -1    0    0  501    0  0.00000000000E+00 -0.00000000000E+00 -0.42601012104E+02  0.42601012180E+02  0.25500000000E-02 0.  1.
    5000001    1    1    2    0    0 -0.83164882095E+02 -0.63057488074E+02  0.12900125906E+03  0.18292886392E+03  0.77000000000E+02 0.  0.
   -5000001    1    1    2    0    0  0.83164882095E+02  0.63057488074E+02  0.25329894837E+03  0.28457336780E+03  0.77000000000E+02 0.  0.
<mgrwt>
<rscale>  0 0.26908156E+03</rscale>
<asrwt>0</asrwt>
<pdfrwt beam="1">  1        2 0.65540016E-02 0.26908156E+03</pdfrwt>
<pdfrwt beam="2">  1       -2 0.65369421E-01 0.26908156E+03</pdfrwt>
<totfact> 0.24211917E+03</totfact>
</mgrwt>
</event>
<event>
 4    1  0.6122885E-004  0.1693172E+03  0.7818608E-02  0.1178562E+00
          2   -1    0    0  501    0  0.00000000000E+00  0.00000000000E+00  0.17991328026E+04  0.17991328026E+04  0.25500000000E-02 0.  1.
         -2   -1    0    0    0  501 -0.00000000000E+00 -0.00000000000E+00 -0.39836289210E+01  0.39836297371E+01  0.25500000000E-02 0. -1.
    5000001    1    1    2    0    0  0.24612929309E+02  0.56890511370E+01  0.63673821694E+03  0.64187437907E+03  0.77000000000E+02 0.  0.
   -5000001    1    1    2    0    0 -0.24612929309E+02 -0.56890511370E+01  0.11584109568E+04  0.11612420533E+04  0.77000000000E+02 0.  0.
<mgrwt>
<rscale>  0 0.16931720E+03</rscale>
<asrwt>0</asrwt>
<pdfrwt beam="1">  1        2 0.27678893E+00 0.16931720E+03</pdfrwt>
<pdfrwt beam="2">  1       -2 0.61286767E-03 0.16931720E+03</pdfrwt>
<totfact> 0.39921708E+04</totfact>
</mgrwt>
</event>
<event>
 4    1  0.6122885E-004  0.4121886E+03  0.7818608E-02  0.1039639E+00
         -2   -1    0    0    0  501 -0.00000000000E+00  0.00000000000E+00  0.86371408093E+03  0.86371408093E+03  0.25500000000E-02 0. -1.
          2   -1    0    0  501    0  0.00000000000E+00 -0.00000000000E+00 -0.49176988020E+02  0.49176988086E+02  0.25500000000E-02 0.  1.
    5000001    1    1    2    0    0 -0.15768016892E+03  0.10387365390E+03  0.47345505844E+03  0.51550117750E+03  0.77000000000E+02 0.  0.
   -5000001    1    1    2    0    0  0.15768016892E+03 -0.10387365390E+03  0.34108203447E+03  0.39738989152E+03  0.77000000000E+02 0.  0.
<mgrwt>
<rscale>  0 0.41218858E+03</rscale>
<asrwt>0</asrwt>
<pdfrwt beam="1">  1        2 0.75656906E-02 0.41218858E+03</pdfrwt>
<pdfrwt beam="2">  1       -2 0.13287909E+00 0.41218858E+03</pdfrwt>
<totfact> 0.39607411E+02</totfact>
</mgrwt>
</event>
<event>
 4    1  0.6122885E-004  0.2683771E+03  0.7818608E-02  0.1102212E+00
          2   -1    0    0  501    0  0.00000000000E+00  0.00000000000E+00  0.15303714784E+02  0.15303714996E+02  0.25500000000E-02 0.  1.
         -2   -1    0    0    0  501 -0.00000000000E+00 -0.00000000000E+00 -0.11766141963E+04  0.11766141963E+04  0.25500000000E-02 0. -1.
    5000001    1    1    2    0    0 -0.10183894557E+03 -0.38500980524E+02 -0.51417470088E+03  0.53118557902E+03  0.77000000000E+02 0.  0.
   -5000001    1    1    2    0    0  0.10183894557E+03  0.38500980524E+02 -0.64713578061E+03  0.66073233226E+03  0.77000000000E+02 0.  0.
<mgrwt>
<rscale>  0 0.26837711E+03</rscale>
<asrwt>0</asrwt>
<pdfrwt beam="1">  1        2 0.23544186E-02 0.26837711E+03</pdfrwt>
<pdfrwt beam="2">  1       -2 0.18101750E+00 0.26837711E+03</pdfrwt>
<totfact> 0.83674257E+02</totfact>
</mgrwt>
</event>
<event>
 4    1  0.6122885E-004  0.2694588E+03  0.7818608E-02  0.1101590E+00
          2   -1    0    0  501    0  0.00000000000E+00  0.00000000000E+00  0.27458088658E+04  0.27458088658E+04  0.25500000000E-02 0.  1.
         -2   -1    0    0    0  501 -0.00000000000E+00 -0.00000000000E+00 -0.66108053514E+01  0.66108058432E+01  0.25500000000E-02 0. -1.
    5000001    1    1    2    0    0  0.11299531180E+02 -0.80123608413E+02  0.21391294226E+04  0.21420436874E+04  0.77000000000E+02 0.  0.
   -5000001    1    1    2    0    0 -0.11299531180E+02  0.80123608413E+02  0.60006863775E+03  0.61037598417E+03  0.77000000000E+02 0.  0.
<mgrwt>
<rscale>  0 0.26945878E+03</rscale>
<asrwt>0</asrwt>
<pdfrwt beam="1">  1        2 0.42243297E+00 0.26945878E+03</pdfrwt>
<pdfrwt beam="2">  1       -2 0.10170450E-02 0.26945878E+03</pdfrwt>
<totfact> 0.60867301E+03</totfact>
</mgrwt>
</event>
<event>
 4    1  0.6122885E-004  0.2097246E+03  0.7818608E-02  0.1141784E+00
         -2   -1    0    0    0  501 -0.00000000000E+00  0.00000000000E+00  0.34290771197E+02  0.34290771292E+02  0.25500000000E-02 0. -1.
          2   -1    0    0  501    0  0.00000000000E+00 -0.00000000000E+00 -0.32067227933E+03  0.32067227934E+03  0.25500000000E-02 0.  1.
    5000001    1    1    2    0    0  0.33575544989E+02 -0.58893182577E+02 -0.17993737142E+03  0.20712841864E+03  0.77000000000E+02 0.  0.
   -5000001    1    1    2    0    0 -0.33575544989E+02  0.58893182577E+02 -0.10644413672E+03  0.14783463199E+03  0.77000000000E+02 0.  0.
<mgrwt>
<rscale>  0 0.20972458E+03</rscale>
<asrwt>0</asrwt>
<pdfrwt beam="1">  1        2 0.49334195E-01 0.20972458E+03</pdfrwt>
<pdfrwt beam="2">  1       -2 0.52755035E-02 0.20972458E+03</pdfrwt>
<totfact> 0.17822926E+04</totfact>
</mgrwt>
</event>
<event>
 4    1  0.6122885E-004  0.2000203E+03  0.7818608E-02  0.1149722E+00
          2   -1    0    0  501    0  0.00000000000E+00  0.00000000000E+00  0.17099461133E+04  0.17099461133E+04  0.25500000000E-02 0.  1.
         -2   -1    0    0    0  501 -0.00000000000E+00 -0.00000000000E+00 -0.58493262865E+01  0.58493268423E+01  0.25500000000E-02 0. -1.
    5000001    1    1    2    0    0  0.24187561233E+02  0.49950134823E+02  0.58173881845E+03  0.58943117239E+03  0.77000000000E+02 0.  0.
   -5000001    1    1    2    0    0 -0.24187561233E+02 -0.49950134823E+02  0.11223579685E+04  0.11263642677E+04  0.77000000000E+02 0.  0.
<mgrwt>
<rscale>  0 0.20002033E+03</rscale>
<asrwt>0</asrwt>
<pdfrwt beam="1">  1        2 0.26306900E+00 0.20002033E+03</pdfrwt>
<pdfrwt beam="2">  1       -2 0.89989516E-03 0.20002033E+03</pdfrwt>
<totfact> 0.25842186E+04</totfact>
</mgrwt>
</event>
<event>
 4    1  0.6122885E-004  0.2290445E+03  0.7818608E-02  0.1127314E+00
          2   -1    0    0  501    0  0.00000000000E+00  0.00000000000E+00  0.56883195661E+03  0.56883195662E+03  0.25500000000E-02 0.  1.
         -2   -1    0    0    0  501 -0.00000000000E+00 -0.00000000000E+00 -0.23056620824E+02  0.23056620965E+02  0.25500000000E-02 0. -1.
    5000001    1    1    2    0    0  0.48701293109E+02  0.49018344229E+01  0.94028786427E+02  0.13102006185E+03  0.77000000000E+02 0.  0.
   -5000001    1    1    2    0    0 -0.48701293109E+02 -0.49018344229E+01  0.45174654936E+03  0.46086851573E+03  0.77000000000E+02 0.  0.
<mgrwt>
<rscale>  0 0.22904447E+03</rscale>
<asrwt>0</asrwt>
<pdfrwt beam="1">  1        2 0.87512609E-01 0.22904447E+03</pdfrwt>
<pdfrwt beam="2">  1       -2 0.35471724E-02 0.22904447E+03</pdfrwt>
<totfact> 0.17386228E+04</totfact>
</mgrwt>
</event>
<event>
 4    1  0.6122885E-004  0.1975280E+03  0.7818608E-02  0.1151842E+00
         -2   -1    0    0    0  501 -0.00000000000E+00  0.00000000000E+00  0.16806004042E+03  0.16806004044E+03  0.25500000000E-02 0. -1.
          2   -1    0    0  501    0  0.00000000000E+00 -0.00000000000E+00 -0.58040734714E+02  0.58040734770E+02  0.25500000000E-02 0.  1.
    5000001    1    1    2    0    0  0.95297506191E+01  0.58221106771E+02  0.76264908280E+02  0.12339306972E+03  0.77000000000E+02 0.  0.
   -5000001    1    1    2    0    0 -0.95297506191E+01 -0.58221106771E+02  0.33754397424E+02  0.10270770548E+03  0.77000000000E+02 0.  0.
<mgrwt>
<rscale>  0 0.19752801E+03</rscale>
<asrwt>0</asrwt>
<pdfrwt beam="1">  1        2 0.89293439E-02 0.19752801E+03</pdfrwt>
<pdfrwt beam="2">  1       -2 0.25855391E-01 0.19752801E+03</pdfrwt>
<totfact> 0.95771328E+03</totfact>
</mgrwt>
</event>
<event>
 4    1  0.6122885E-004  0.2940803E+03  0.7818608E-02  0.1088238E+00
         -2   -1    0    0    0  501 -0.00000000000E+00  0.00000000000E+00  0.16683950040E+02  0.16683950234E+02  0.25500000000E-02 0. -1.
          2   -1    0    0  501    0  0.00000000000E+00 -0.00000000000E+00 -0.12959045849E+04  0.12959045849E+04  0.25500000000E-02 0.  1.
    5000001    1    1    2    0    0  0.74028216543E+02 -0.41737550206E+02 -0.10503761382E+04  0.10566178267E+04  0.77000000000E+02 0.  0.
   -5000001    1    1    2    0    0 -0.74028216543E+02  0.41737550206E+02 -0.22884449669E+03  0.25597070849E+03  0.77000000000E+02 0.  0.
<mgrwt>
<rscale>  0 0.29408031E+03</rscale>
<asrwt>0</asrwt>
<pdfrwt beam="1">  1        2 0.19936986E+00 0.29408031E+03</pdfrwt>
<pdfrwt beam="2">  1       -2 0.25667626E-02 0.29408031E+03</pdfrwt>
<totfact> 0.94364037E+03</totfact>
</mgrwt>
</event>
<event>
 4    1  0.6122885E-004  0.2285228E+03  0.7818608E-02  0.1127684E+00
          2   -1    0    0  501    0  0.00000000000E+00  0.00000000000E+00  0.63024961936E+03  0.63024961937E+03  0.25500000000E-02 0.  1.
         -2   -1    0    0    0  501 -0.00000000000E+00 -0.00000000000E+00 -0.20715072629E+02  0.20715072786E+02  0.25500000000E-02 0. -1.
    5000001    1    1    2    0    0 -0.47249496580E+02 -0.25329733495E+02  0.49052759315E+03  0.49942009368E+03  0.77000000000E+02 0.  0.
   -5000001    1    1    2    0    0  0.47249496580E+02  0.25329733495E+02  0.11900695358E+03  0.15154459847E+03  0.77000000000E+02 0.  0.
<mgrwt>
<rscale>  0 0.22852279E+03</rscale>
<asrwt>0</asrwt>
<pdfrwt beam="1">  1        2 0.96961473E-01 0.22852279E+03</pdfrwt>
<pdfrwt beam="2">  1       -2 0.31869345E-02 0.22852279E+03</pdfrwt>
<totfact> 0.18112232E+04</totfact>
</mgrwt>
</event>
<event>
 4    1  0.6122885E-004  0.2352085E+03  0.7818608E-02  0.1123027E+00
         -2   -1    0    0    0  501 -0.00000000000E+00  0.00000000000E+00  0.51919837725E+03  0.51919837726E+03  0.25500000000E-02 0. -1.
          2   -1    0    0  501    0  0.00000000000E+00 -0.00000000000E+00 -0.26638691531E+02  0.26638691653E+02  0.25500000000E-02 0.  1.
    5000001    1    1    2    0    0 -0.33686618575E+02  0.82229494691E+02  0.24094366558E+03  0.26810320411E+03  0.77000000000E+02 0.  0.
   -5000001    1    1    2    0    0  0.33686618575E+02 -0.82229494691E+02  0.25161602014E+03  0.27773386480E+03  0.77000000000E+02 0.  0.
<mgrwt>
<rscale>  0 0.23520855E+03</rscale>
<asrwt>0</asrwt>
<pdfrwt beam="1">  1        2 0.40982603E-02 0.23520855E+03</pdfrwt>
<pdfrwt beam="2">  1       -2 0.79876673E-01 0.23520855E+03</pdfrwt>
<totfact> 0.29020772E+03</totfact>
</mgrwt>
</event>
<event>
 4    1  0.6122885E-004  0.2832728E+03  0.7818608E-02  0.1093915E+00
          2   -1    0    0  501    0  0.00000000000E+00  0.00000000000E+00  0.64837627819E+03  0.64837627820E+03  0.25500000000E-02 0.  1.
         -2   -1    0    0    0  501 -0.00000000000E+00 -0.00000000000E+00 -0.30940169481E+02  0.30940169586E+02  0.25500000000E-02 0. -1.
    5000001    1    1    2    0    0  0.58817872534E+02  0.84334752506E+02  0.45180202098E+03  0.46970837631E+03  0.77000000000E+02 0.  0.
   -5000001    1    1    2    0    0 -0.58817872534E+02 -0.84334752506E+02  0.16563408772E+03  0.20960807147E+03  0.77000000000E+02 0.  0.
<mgrwt>
<rscale>  0 0.28327282E+03</rscale>
<asrwt>0</asrwt>
<pdfrwt beam="1">  1        2 0.99750195E-01 0.28327282E+03</pdfrwt>
<pdfrwt beam="2">  1       -2 0.47600261E-02 0.28327282E+03</pdfrwt>
<totfact> 0.96855028E+03</totfact>
</mgrwt>
</event>
<event>
 4    1  0.6122885E-004  0.1808107E+03  0.7818608E-02  0.1167021E+00
          2   -1    0    0  501    0  0.00000000000E+00  0.00000000000E+00  0.33602332179E+03  0.33602332180E+03  0.25500000000E-02 0.  1.
         -2   -1    0    0    0  501 -0.00000000000E+00 -0.00000000000E+00 -0.24323092643E+02  0.24323092776E+02  0.25500000000E-02 0. -1.
    5000001    1    1    2    0    0 -0.32177400346E+02  0.27465778135E+02  0.19833183038E+03  0.21691995990E+03  0.77000000000E+02 0.  0.
   -5000001    1    1    2    0    0  0.32177400346E+02 -0.27465778135E+02  0.11336839877E+03  0.14342645468E+03  0.77000000000E+02 0.  0.
<mgrwt>
<rscale>  0 0.18081069E+03</rscale>
<asrwt>0</asrwt>
<pdfrwt beam="1">  1        2 0.51695894E-01 0.18081069E+03</pdfrwt>
<pdfrwt beam="2">  1       -2 0.37420144E-02 0.18081069E+03</pdfrwt>
<totfact> 0.28086421E+04</totfact>
</mgrwt>
</event>
<event>
 4    1  0.6122885E-004  0.5578654E+03  0.7818608E-02  0.9996896E-01
         -2   -1    0    0    0  501 -0.00000000000E+00  0.00000000000E+00  0.60456373377E+02  0.60456373431E+02  0.25500000000E-02 0. -1.
          2   -1    0    0  501    0  0.00000000000E+00 -0.00000000000E+00 -0.12869355981E+04  0.12869355981E+04  0.25500000000E-02 0.  1.
    5000001    1    1    2    0    0 -0.25303595243E+03  0.61159090754E+02 -0.45845850581E+03  0.53280468199E+03  0.77000000000E+02 0.  0.
   -5000001    1    1    2    0    0  0.25303595243E+03 -0.61159090754E+02 -0.76802071887E+03  0.81458728950E+03  0.77000000000E+02 0.  0.
<mgrwt>
<rscale>  0 0.55786543E+03</rscale>
<asrwt>0</asrwt>
<pdfrwt beam="1">  1        2 0.19799007E+00 0.55786543E+03</pdfrwt>
<pdfrwt beam="2">  1       -2 0.93009815E-02 0.55786543E+03</pdfrwt>
<totfact> 0.13171732E+03</totfact>
</mgrwt>
</event>
<event>
 4    1  0.6122885E-004  0.1919145E+03  0.7818608E-02  0.1156746E+00
          2   -1    0    0  501    0  0.00000000000E+00  0.00000000000E+00  0.14773752660E+04  0.14773752660E+04  0.25500000000E-02 0.  1.
         -2   -1    0    0    0  501 -0.00000000000E+00 -0.00000000000E+00 -0.62325340869E+01  0.62325346085E+01  0.25500000000E-02 0. -1.
    5000001    1    1    2    0    0 -0.29734806541E+02 -0.28284392829E+02  0.10442743645E+04  0.10479132188E+04  0.77000000000E+02 0.  0.
   -5000001    1    1    2    0    0  0.29734806541E+02  0.28284392829E+02  0.42686836735E+03  0.43569458184E+03  0.77000000000E+02 0.  0.
<mgrwt>
<rscale>  0 0.19191448E+03</rscale>
<asrwt>0</asrwt>
<pdfrwt beam="1">  1        2 0.22728856E+00 0.19191448E+03</pdfrwt>
<pdfrwt beam="2">  1       -2 0.95885117E-03 0.19191448E+03</pdfrwt>
<totfact> 0.31158880E+04</totfact>
</mgrwt>
</event>
<event>
 4    1  0.6122885E-004  0.3230005E+03  0.7818608E-02  0.1074277E+00
          2   -1    0    0  501    0  0.00000000000E+00  0.00000000000E+00  0.89974707823E+03  0.89974707823E+03  0.25500000000E-02 0.  1.
         -2   -1    0    0    0  501 -0.00000000000E+00 -0.00000000000E+00 -0.28988508580E+02  0.28988508692E+02  0.25500000000E-02 0. -1.
    5000001    1    1    2    0    0 -0.13059540499E+03 -0.10433959121E+02  0.27817166771E+03  0.31697398004E+03  0.77000000000E+02 0.  0.
   -5000001    1    1    2    0    0  0.13059540499E+03  0.10433959121E+02  0.59258690194E+03  0.61176160688E+03  0.77000000000E+02 0.  0.
<mgrwt>
<rscale>  0 0.32300047E+03</rscale>
<asrwt>0</asrwt>
<pdfrwt beam="1">  1        2 0.13842259E+00 0.32300047E+03</pdfrwt>
<pdfrwt beam="2">  1       -2 0.44597717E-02 0.32300047E+03</pdfrwt>
<totfact> 0.71026181E+03</totfact>
</mgrwt>
</event>
<event>
 4    1  0.6122885E-004  0.3378194E+03  0.7818608E-02  0.1067728E+00
          2   -1    0    0  501    0  0.00000000000E+00  0.00000000000E+00  0.16650318884E+04  0.16650318884E+04  0.25500000000E-02 0.  1.
         -2   -1    0    0    0  501 -0.00000000000E+00 -0.00000000000E+00 -0.17135099245E+02  0.17135099435E+02  0.25500000000E-02 0. -1.
    5000001    1    1    2    0    0 -0.14003843865E+03  0.44437770720E+02  0.98266884242E+03  0.99657038568E+03  0.77000000000E+02 0.  0.
   -5000001    1    1    2    0    0  0.14003843865E+03 -0.44437770720E+02  0.66522794677E+03  0.68559660218E+03  0.77000000000E+02 0.  0.
<mgrwt>
<rscale>  0 0.33781940E+03</rscale>
<asrwt>0</asrwt>
<pdfrwt beam="1">  1        2 0.25615872E+00 0.33781940E+03</pdfrwt>
<pdfrwt beam="2">  1       -2 0.26361695E-02 0.33781940E+03</pdfrwt>
<totfact> 0.57346326E+03</totfact>
</mgrwt>
</event>
<event>
 4    1  0.6122885E-004  0.4465645E+03  0.7818608E-02  0.1028752E+00
         -2   -1    0    0    0  501 -0.00000000000E+00  0.00000000000E+00  0.46860883981E+02  0.46860884050E+02  0.25500000000E-02 0. -1.
          2   -1    0    0  501    0  0.00000000000E+00 -0.00000000000E+00 -0.10638928274E+04  0.10638928274E+04  0.25500000000E-02 0.  1.
    5000001    1    1    2    0    0 -0.74545250789E+02 -0.16378929654E+03 -0.24129243740E+03  0.31070076991E+03  0.77000000000E+02 0.  0.
   -5000001    1    1    2    0    0  0.74545250789E+02  0.16378929654E+03 -0.77573950604E+03  0.80005294157E+03  0.77000000000E+02 0.  0.
<mgrwt>
<rscale>  0 0.44656448E+03</rscale>
<asrwt>0</asrwt>
<pdfrwt beam="1">  1        2 0.16367580E+00 0.44656448E+03</pdfrwt>
<pdfrwt beam="2">  1       -2 0.72093675E-02 0.44656448E+03</pdfrwt>
<totfact> 0.26775751E+03</totfact>
</mgrwt>
</event>
<event>
 4    1  0.6122885E-004  0.3454094E+03  0.7818608E-02  0.1064515E+00
          2   -1    0    0  501    0  0.00000000000E+00  0.00000000000E+00  0.10475717784E+04  0.10475717784E+04  0.25500000000E-02 0.  1.
         -2   -1    0    0    0  501 -0.00000000000E+00 -0.00000000000E+00 -0.28472436013E+02  0.28472436127E+02  0.25500000000E-02 0. -1.
    5000001    1    1    2    0    0  0.96996694067E+02 -0.44143575046E+02  0.16068227824E+03  0.20761697526E+03  0.77000000000E+02 0.  0.
   -5000001    1    1    2    0    0 -0.96996694067E+02  0.44143575046E+02  0.85841706413E+03  0.86842723925E+03  0.77000000000E+02 0.  0.
<mgrwt>
<rscale>  0 0.34540944E+03</rscale>
<asrwt>0</asrwt>
<pdfrwt beam="1">  1        2 0.16116485E+00 0.34540944E+03</pdfrwt>
<pdfrwt beam="2">  1       -2 0.43803758E-02 0.34540944E+03</pdfrwt>
<totfact> 0.59044898E+03</totfact>
</mgrwt>
</event>
<event>
 4    1  0.6122885E-004  0.1907254E+03  0.7818608E-02  0.1157809E+00
          2   -1    0    0  501    0  0.00000000000E+00  0.00000000000E+00  0.10971254168E+03  0.10971254171E+03  0.25500000000E-02 0.  1.
         -2   -1    0    0    0  501 -0.00000000000E+00 -0.00000000000E+00 -0.82889768331E+02  0.82889768370E+02  0.25500000000E-02 0. -1.
    5000001    1    1    2    0    0  0.55233922672E+02  0.96601124503E+01  0.87899794654E+01  0.95657554460E+02  0.77000000000E+02 0.  0.
   -5000001    1    1    2    0    0 -0.55233922672E+02 -0.96601124503E+01  0.18032793880E+02  0.96944755616E+02  0.77000000000E+02 0.  0.
<mgrwt>
<rscale>  0 0.19072543E+03</rscale>
<asrwt>0</asrwt>
<pdfrwt beam="1">  1        2 0.16878853E-01 0.19072543E+03</pdfrwt>
<pdfrwt beam="2">  1       -2 0.12752272E-01 0.19072543E+03</pdfrwt>
<totfact> 0.14567432E+04</totfact>
</mgrwt>
</event>
<event>
 4    1  0.6122885E-004  0.2126555E+03  0.7818608E-02  0.1139480E+00
         -2   -1    0    0    0  501 -0.00000000000E+00  0.00000000000E+00  0.45817525570E+02  0.45817525641E+02  0.25500000000E-02 0. -1.
          2   -1    0    0  501    0  0.00000000000E+00 -0.00000000000E+00 -0.24675251122E+03  0.24675251123E+03  0.25500000000E-02 0.  1.
    5000001    1    1    2    0    0  0.59715943772E+02 -0.40797153004E+02 -0.83833024872E+02  0.13486058614E+03  0.77000000000E+02 0.  0.
   -5000001    1    1    2    0    0 -0.59715943772E+02  0.40797153004E+02 -0.11710196078E+03  0.15770945074E+03  0.77000000000E+02 0.  0.
<mgrwt>
<rscale>  0 0.21265549E+03</rscale>
<asrwt>0</asrwt>
<pdfrwt beam="1">  1        2 0.37961924E-01 0.21265549E+03</pdfrwt>
<pdfrwt beam="2">  1       -2 0.70488503E-02 0.21265549E+03</pdfrwt>
<totfact> 0.15163119E+04</totfact>
</mgrwt>
</event>
<event>
 4    1  0.6122885E-004  0.2420779E+03  0.7818608E-02  0.1118416E+00
         -2   -1    0    0    0  501 -0.00000000000E+00  0.00000000000E+00  0.15370189312E+03  0.15370189314E+03  0.25500000000E-02 0. -1.
          2   -1    0    0  501    0  0.00000000000E+00 -0.00000000000E+00 -0.95317186028E+02  0.95317186062E+02  0.25500000000E-02 0.  1.
    5000001    1    1    2    0    0  0.34363347197E+02 -0.10998602408E+02  0.11779941496E+03  0.14528424226E+03  0.77000000000E+02 0.  0.
   -5000001    1    1    2    0    0 -0.34363347197E+02  0.10998602408E+02 -0.59414707862E+02  0.10373483694E+03  0.77000000000E+02 0.  0.
<mgrwt>
<rscale>  0 0.24207794E+03</rscale>
<asrwt>0</asrwt>
<pdfrwt beam="1">  1        2 0.14664182E-01 0.24207794E+03</pdfrwt>
<pdfrwt beam="2">  1       -2 0.23646445E-01 0.24207794E+03</pdfrwt>
<totfact> 0.61893580E+03</totfact>
</mgrwt>
</event>
<event>
 4    1  0.6122885E-004  0.1939564E+03  0.7818608E-02  0.1154941E+00
          2   -1    0    0  501    0  0.00000000000E+00  0.00000000000E+00  0.11274028833E+04  0.11274028833E+04  0.25500000000E-02 0.  1.
         -2   -1    0    0    0  501 -0.00000000000E+00 -0.00000000000E+00 -0.83419827987E+01  0.83419831884E+01  0.25500000000E-02 0. -1.
    5000001    1    1    2    0    0 -0.38917732402E+02  0.23117844904E+02  0.33834800036E+03  0.34993912898E+03  0.77000000000E+02 0.  0.
   -5000001    1    1    2    0    0  0.38917732402E+02 -0.23117844904E+02  0.78071290019E+03  0.78580573755E+03  0.77000000000E+02 0.  0.
<mgrwt>
<rscale>  0 0.19395645E+03</rscale>
<asrwt>0</asrwt>
<pdfrwt beam="1">  1        2 0.17344644E+00 0.19395645E+03</pdfrwt>
<pdfrwt beam="2">  1       -2 0.12833831E-02 0.19395645E+03</pdfrwt>
<totfact> 0.31845940E+04</totfact>
</mgrwt>
</event>
<event>
 4    1  0.6122885E-004  0.1934625E+03  0.7818608E-02  0.1155375E+00
          2   -1    0    0  501    0  0.00000000000E+00  0.00000000000E+00  0.71773885064E+02  0.71773885109E+02  0.25500000000E-02 0.  1.
         -2   -1    0    0    0  501 -0.00000000000E+00 -0.00000000000E+00 -0.13036681133E+03  0.13036681136E+03  0.25500000000E-02 0. -1.
    5000001    1    1    2    0    0  0.13650241541E+02  0.56788765723E+02 -0.33558601880E+02  0.10230578071E+03  0.77000000000E+02 0.  0.
   -5000001    1    1    2    0    0 -0.13650241541E+02 -0.56788765723E+02 -0.25034324387E+02  0.99834915756E+02  0.77000000000E+02 0.  0.
<mgrwt>
<rscale>  0 0.19346248E+03</rscale>
<asrwt>0</asrwt>
<pdfrwt beam="1">  1        2 0.11042136E-01 0.19346248E+03</pdfrwt>
<pdfrwt beam="2">  1       -2 0.20056432E-01 0.19346248E+03</pdfrwt>
<totfact> 0.11421747E+04</totfact>
</mgrwt>
</event>
<event>
 4    1  0.6122885E-004  0.2813546E+03  0.7818608E-02  0.1094951E+00
         -2   -1    0    0    0  501 -0.00000000000E+00  0.00000000000E+00  0.13907482675E+03  0.13907482678E+03  0.25500000000E-02 0.  1.
          2   -1    0    0  501    0  0.00000000000E+00 -0.00000000000E+00 -0.14229821386E+03  0.14229821389E+03  0.25500000000E-02 0. -1.
    5000001    1    1    2    0    0 -0.18540404063E+02 -0.11601874678E+03 -0.91622392980E+01  0.14077301878E+03  0.77000000000E+02 0.  0.
   -5000001    1    1    2    0    0  0.18540404063E+02  0.11601874678E+03  0.59388521860E+01  0.14060002188E+03  0.77000000000E+02 0.  0.
<mgrwt>
<rscale>  0 0.28135458E+03</rscale>
<asrwt>0</asrwt>
<pdfrwt beam="1">  1        2 0.21892033E-01 0.28135458E+03</pdfrwt>
<pdfrwt beam="2">  1       -2 0.21396127E-01 0.28135458E+03</pdfrwt>
<totfact> 0.46534853E+03</totfact>
</mgrwt>
</event>
<event>
 4    1  0.6122885E-004  0.2976552E+03  0.7818608E-02  0.1086419E+00
         -2   -1    0    0    0  501 -0.00000000000E+00  0.00000000000E+00  0.17873053843E+03  0.17873053845E+03  0.25500000000E-02 0. -1.
          2   -1    0    0  501    0  0.00000000000E+00 -0.00000000000E+00 -0.12392766048E+03  0.12392766051E+03  0.25500000000E-02 0.  1.
    5000001    1    1    2    0    0 -0.12174392633E+02  0.10402032260E+03  0.10109170978E+03  0.16467233264E+03  0.77000000000E+02 0.  0.
   -5000001    1    1    2    0    0  0.12174392633E+02 -0.10402032260E+03 -0.46288831833E+02  0.13798586632E+03  0.77000000000E+02 0.  0.
<mgrwt>
<rscale>  0 0.29765522E+03</rscale>
<asrwt>0</asrwt>
<pdfrwt beam="1">  1        2 0.19065794E-01 0.29765522E+03</pdfrwt>
<pdfrwt beam="2">  1       -2 0.27497006E-01 0.29765522E+03</pdfrwt>
<totfact> 0.35114157E+03</totfact>
</mgrwt>
</event>
<event>
 4    1  0.6122885E-004  0.1989982E+03  0.7818608E-02  0.1150587E+00
         -2   -1    0    0    0  501 -0.00000000000E+00  0.00000000000E+00  0.35041460088E+02  0.35041460181E+02  0.25500000000E-02 0. -1.
          2   -1    0    0  501    0  0.00000000000E+00 -0.00000000000E+00 -0.28252445954E+03  0.28252445955E+03  0.25500000000E-02 0.  1.
    5000001    1    1    2    0    0  0.36008271785E+02 -0.40153616768E+02 -0.71732326751E+02  0.11825157622E+03  0.77000000000E+02 0.  0.
   -5000001    1    1    2    0    0 -0.36008271785E+02  0.40153616768E+02 -0.17575067270E+03  0.19931434352E+03  0.77000000000E+02 0.  0.
<mgrwt>
<rscale>  0 0.19899819E+03</rscale>
<asrwt>0</asrwt>
<pdfrwt beam="1">  1        2 0.43465300E-01 0.19899819E+03</pdfrwt>
<pdfrwt beam="2">  1       -2 0.53909940E-02 0.19899819E+03</pdfrwt>
<totfact> 0.19675672E+04</totfact>
</mgrwt>
</event>
<event>
 4    1  0.6122885E-004  0.1839916E+03  0.7818608E-02  0.1163995E+00
          2   -1    0    0  501    0  0.00000000000E+00  0.00000000000E+00  0.10161357152E+04  0.10161357152E+04  0.25500000000E-02 0.  1.
         -2   -1    0    0    0  501 -0.00000000000E+00 -0.00000000000E+00 -0.83288369701E+01  0.83288373605E+01  0.25500000000E-02 0. -1.
    5000001    1    1    2    0    0 -0.34540202212E+01 -0.44604946119E+02  0.37539276523E+03  0.38581117099E+03  0.77000000000E+02 0.  0.
   -5000001    1    1    2    0    0  0.34540202212E+01  0.44604946119E+02  0.63241411304E+03  0.63865338162E+03  0.77000000000E+02 0.  0.
<mgrwt>
<rscale>  0 0.18399162E+03</rscale>
<asrwt>0</asrwt>
<pdfrwt beam="1">  1        2 0.15632860E+00 0.18399162E+03</pdfrwt>
<pdfrwt beam="2">  1       -2 0.12813593E-02 0.18399162E+03</pdfrwt>
<totfact> 0.36955661E+04</totfact>
</mgrwt>
</event>
<event>
 4    1  0.6122885E-004  0.2880353E+03  0.7818608E-02  0.1091379E+00
          2   -1    0    0  501    0  0.00000000000E+00  0.00000000000E+00  0.52920192118E+03  0.52920192119E+03  0.25500000000E-02 0. -1.
         -2   -1    0    0    0  501 -0.00000000000E+00 -0.00000000000E+00 -0.39193142584E+02  0.39193142667E+02  0.25500000000E-02 0.  1.
    5000001    1    1    2    0    0 -0.67301705173E+02 -0.12257466050E+02  0.46367900285E+02  0.11295462439E+03  0.77000000000E+02 0.  0.
   -5000001    1    1    2    0    0  0.67301705173E+02  0.12257466050E+02  0.44364087831E+03  0.45544043947E+03  0.77000000000E+02 0.  0.
<mgrwt>
<rscale>  0 0.28803532E+03</rscale>
<asrwt>0</asrwt>
<pdfrwt beam="1">  1        2 0.81415675E-01 0.28803532E+03</pdfrwt>
<pdfrwt beam="2">  1       -2 0.60297147E-02 0.28803532E+03</pdfrwt>
<totfact> 0.85448911E+03</totfact>
</mgrwt>
</event>
<event>
 4    1  0.6122885E-004  0.1835744E+03  0.7818608E-02  0.1164388E+00
         -2   -1    0    0    0  501 -0.00000000000E+00  0.00000000000E+00  0.15909066264E+02  0.15909066468E+02  0.25500000000E-02 0. -1.
          2   -1    0    0  501    0  0.00000000000E+00 -0.00000000000E+00 -0.52956558923E+03  0.52956558923E+03  0.25500000000E-02 0.  1.
    5000001    1    1    2    0    0 -0.29447872473E+01 -0.41108971433E+02 -0.34072911429E+03  0.35174415223E+03  0.77000000000E+02 0.  0.
   -5000001    1    1    2    0    0  0.29447872473E+01  0.41108971433E+02 -0.17292740867E+03  0.19373050347E+03  0.77000000000E+02 0.  0.
<mgrwt>
<rscale>  0 0.18357444E+03</rscale>
<asrwt>0</asrwt>
<pdfrwt beam="1">  1        2 0.81471616E-01 0.18357444E+03</pdfrwt>
<pdfrwt beam="2">  1       -2 0.24475491E-02 0.18357444E+03</pdfrwt>
<totfact> 0.32139976E+04</totfact>
</mgrwt>
</event>
<event>
 4    1  0.6122885E-004  0.2972755E+03  0.7818608E-02  0.1086611E+00
         -2   -1    0    0    0  501 -0.00000000000E+00  0.00000000000E+00  0.14775402999E+03  0.14775403001E+03  0.25500000000E-02 0. -1.
          2   -1    0    0  501    0  0.00000000000E+00 -0.00000000000E+00 -0.14952673243E+03  0.14952673245E+03  0.25500000000E-02 0.  1.
    5000001    1    1    2    0    0  0.63900623476E+02  0.92602253817E+02 -0.60096442270E+02  0.14899345444E+03  0.77000000000E+02 0.  0.
   -5000001    1    1    2    0    0 -0.63900623476E+02 -0.92602253817E+02  0.58323739829E+02  0.14828730802E+03  0.77000000000E+02 0.  0.
<mgrwt>
<rscale>  0 0.29727548E+03</rscale>
<asrwt>0</asrwt>
<pdfrwt beam="1">  1        2 0.23004113E-01 0.29727548E+03</pdfrwt>
<pdfrwt beam="2">  1       -2 0.22731389E-01 0.29727548E+03</pdfrwt>
<totfact> 0.39672428E+03</totfact>
</mgrwt>
</event>
<event>
 4    1  0.6122885E-004  0.3798227E+03  0.7818608E-02  0.1050999E+00
         -2   -1    0    0    0  501 -0.00000000000E+00  0.00000000000E+00  0.16918513305E+03  0.16918513307E+03  0.25500000000E-02 0. -1.
          2   -1    0    0  501    0  0.00000000000E+00 -0.00000000000E+00 -0.21317666719E+03  0.21317666720E+03  0.25500000000E-02 0.  1.
    5000001    1    1    2    0    0  0.11496005464E+03  0.12778476677E+03 -0.46501092692E+02  0.19400028970E+03  0.77000000000E+02 0.  0.
   -5000001    1    1    2    0    0 -0.11496005464E+03 -0.12778476677E+03  0.25095585566E+01  0.18836151057E+03  0.77000000000E+02 0.  0.
<mgrwt>
<rscale>  0 0.37982271E+03</rscale>
<asrwt>0</asrwt>
<pdfrwt beam="1">  1        2 0.32796410E-01 0.37982271E+03</pdfrwt>
<pdfrwt beam="2">  1       -2 0.26028482E-01 0.37982271E+03</pdfrwt>
<totfact> 0.21143554E+03</totfact>
</mgrwt>
</event>
<event>
 4    1  0.6122885E-004  0.3369166E+03  0.7818608E-02  0.1068117E+00
          2   -1    0    0  501    0  0.00000000000E+00  0.00000000000E+00  0.15534243829E+04  0.15534243829E+04  0.25500000000E-02 0.  1.
         -2   -1    0    0    0  501 -0.00000000000E+00 -0.00000000000E+00 -0.18268157360E+02  0.18268157538E+02  0.25500000000E-02 0. -1.
    5000001    1    1    2    0    0 -0.69380338557E+02 -0.81277062952E+02  0.12574981707E+04  0.12643774127E+04  0.77000000000E+02 0.  0.
   -5000001    1    1    2    0    0  0.69380338557E+02  0.81277062952E+02  0.27765805481E+03  0.30731512775E+03  0.77000000000E+02 0.  0.
<mgrwt>
<rscale>  0 0.33691661E+03</rscale>
<asrwt>0</asrwt>
<pdfrwt beam="1">  1        2 0.23898834E+00 0.33691661E+03</pdfrwt>
<pdfrwt beam="2">  1       -2 0.28104860E-02 0.33691661E+03</pdfrwt>
<totfact> 0.59787901E+03</totfact>
</mgrwt>
</event>
<event>
 4    1  0.6122885E-004  0.3431093E+03  0.7818608E-02  0.1065479E+00
          2   -1    0    0  501    0  0.00000000000E+00  0.00000000000E+00  0.17035582083E+03  0.17035582085E+03  0.25500000000E-02 0.  1.
         -2   -1    0    0    0  501 -0.00000000000E+00 -0.00000000000E+00 -0.17276188103E+03  0.17276188105E+03  0.25500000000E-02 0. -1.
    5000001    1    1    2    0    0 -0.58693795246E+02  0.11331175389E+03  0.83754793612E+02  0.17096309726E+03  0.77000000000E+02 0.  0.
   -5000001    1    1    2    0    0  0.58693795246E+02 -0.11331175389E+03 -0.86160853816E+02  0.17215460465E+03  0.77000000000E+02 0.  0.
<mgrwt>
<rscale>  0 0.34310927E+03</rscale>
<asrwt>0</asrwt>
<pdfrwt beam="1">  1        2 0.26208588E-01 0.34310927E+03</pdfrwt>
<pdfrwt beam="2">  1       -2 0.26578751E-01 0.34310927E+03</pdfrwt>
<totfact> 0.26079947E+03</totfact>
</mgrwt>
</event>
<event>
 4    1  0.6122885E-004  0.2771056E+03  0.7818608E-02  0.1097280E+00
         -2   -1    0    0    0  501 -0.00000000000E+00  0.00000000000E+00  0.13656218464E+03  0.13656218466E+03  0.25500000000E-02 0. -1.
          2   -1    0    0  501    0  0.00000000000E+00 -0.00000000000E+00 -0.14057244277E+03  0.14057244280E+03  0.25500000000E-02 0.  1.
    5000001    1    1    2    0    0 -0.90080435019E+02 -0.61249365118E+02 -0.39451143589E+02  0.13910917379E+03  0.77000000000E+02 0.  0.
   -5000001    1    1    2    0    0  0.90080435019E+02  0.61249365118E+02  0.35440885455E+02  0.13802545368E+03  0.77000000000E+02 0.  0.
<mgrwt>
<rscale>  0 0.27710561E+03</rscale>
<asrwt>0</asrwt>
<pdfrwt beam="1">  1        2 0.21626530E-01 0.27710561E+03</pdfrwt>
<pdfrwt beam="2">  1       -2 0.21009567E-01 0.27710561E+03</pdfrwt>
<totfact> 0.48665698E+03</totfact>
</mgrwt>
</event>
<event>
 4    1  0.6122885E-004  0.1779842E+03  0.7818608E-02  0.1169768E+00
          2   -1    0    0  501    0  0.00000000000E+00  0.00000000000E+00  0.26057243960E+04  0.26057243960E+04  0.25500000000E-02 0.  1.
         -2   -1    0    0    0  501 -0.00000000000E+00 -0.00000000000E+00 -0.30393041713E+01  0.30393052410E+01  0.25500000000E-02 0. -1.
    5000001    1    1    2    0    0 -0.24891776864E+02  0.36971943258E+02  0.13308953422E+04  0.13338657867E+04  0.77000000000E+02 0.  0.
   -5000001    1    1    2    0    0  0.24891776864E+02 -0.36971943258E+02  0.12717897497E+04  0.12748979145E+04  0.77000000000E+02 0.  0.
<mgrwt>
<rscale>  0 0.17798416E+03</rscale>
<asrwt>0</asrwt>
<pdfrwt beam="1">  1        2 0.40088317E+00 0.17798416E+03</pdfrwt>
<pdfrwt beam="2">  1       -2 0.46758243E-03 0.17798416E+03</pdfrwt>
<totfact> 0.22162013E+04</totfact>
</mgrwt>
</event>
<event>
 4    1  0.6122885E-004  0.2567589E+03  0.7818608E-02  0.1109106E+00
          2   -1    0    0  501    0  0.00000000000E+00  0.00000000000E+00  0.97756906837E+03  0.97756906838E+03  0.25500000000E-02 0.  1.
         -2   -1    0    0    0  501 -0.00000000000E+00 -0.00000000000E+00 -0.16859456107E+02  0.16859456300E+02  0.25500000000E-02 0. -1.
    5000001    1    1    2    0    0 -0.28045364950E+02  0.64039030611E+02  0.18885506404E+03  0.21559864366E+03  0.77000000000E+02 0.  0.
   -5000001    1    1    2    0    0  0.28045364950E+02 -0.64039030611E+02  0.77185454823E+03  0.77882988101E+03  0.77000000000E+02 0.  0.
<mgrwt>
<rscale>  0 0.25675890E+03</rscale>
<asrwt>0</asrwt>
<pdfrwt beam="1">  1        2 0.15039525E+00 0.25675890E+03</pdfrwt>
<pdfrwt beam="2">  1       -2 0.25937624E-02 0.25675890E+03</pdfrwt>
<totfact> 0.14180127E+04</totfact>
</mgrwt>
</event>
<event>
 4    1  0.6122885E-004  0.2409878E+03  0.7818608E-02  0.1119136E+00
         -2   -1    0    0    0  501 -0.00000000000E+00  0.00000000000E+00  0.14153242964E+02  0.14153243194E+02  0.25500000000E-02 0. -1.
          2   -1    0    0  501    0  0.00000000000E+00 -0.00000000000E+00 -0.10258274590E+04  0.10258274590E+04  0.25500000000E-02 0.  1.
    5000001    1    1    2    0    0  0.51103148041E+02 -0.34648437075E+02 -0.80412894835E+03  0.81016320054E+03  0.77000000000E+02 0.  0.
   -5000001    1    1    2    0    0 -0.51103148041E+02  0.34648437075E+02 -0.20754526772E+03  0.22981750169E+03  0.77000000000E+02 0.  0.
<mgrwt>
<rscale>  0 0.24098785E+03</rscale>
<asrwt>0</asrwt>
<pdfrwt beam="1">  1        2 0.15781955E+00 0.24098785E+03</pdfrwt>
<pdfrwt beam="2">  1       -2 0.21774228E-02 0.24098785E+03</pdfrwt>
<totfact> 0.17107150E+04</totfact>
</mgrwt>
</event>
<event>
 4    1  0.6122885E-004  0.2873344E+03  0.7818608E-02  0.1091749E+00
         -2   -1    0    0    0  501 -0.00000000000E+00  0.00000000000E+00  0.38830801384E+03  0.38830801384E+03  0.25500000000E-02 0. -1.
          2   -1    0    0  501    0  0.00000000000E+00 -0.00000000000E+00 -0.53154377325E+02  0.53154377386E+02  0.25500000000E-02 0.  1.
    5000001    1    1    2    0    0  0.24320408681E+02 -0.53025526990E+02  0.41962154465E+01  0.96694348413E+02  0.77000000000E+02 0.  0.
   -5000001    1    1    2    0    0 -0.24320408681E+02  0.53025526990E+02  0.33095742106E+03  0.34476804282E+03  0.77000000000E+02 0.  0.
<mgrwt>
<rscale>  0 0.28733444E+03</rscale>
<asrwt>0</asrwt>
<pdfrwt beam="1">  1        2 0.81775963E-02 0.28733444E+03</pdfrwt>
<pdfrwt beam="2">  1       -2 0.59739696E-01 0.28733444E+03</pdfrwt>
<totfact> 0.22044183E+03</totfact>
</mgrwt>
</event>
<event>
 4    1  0.6122885E-004  0.3088395E+03  0.7818608E-02  0.1080903E+00
          2   -1    0    0  501    0  0.00000000000E+00  0.00000000000E+00  0.14247216121E+03  0.14247216123E+03  0.25500000000E-02 0.  1.
         -2   -1    0    0    0  501 -0.00000000000E+00 -0.00000000000E+00 -0.16736930351E+03  0.16736930353E+03  0.25500000000E-02 0. -1.
    5000001    1    1    2    0    0  0.40100218039E+02  0.10464805036E+03  0.60981940201E+02  0.14902026360E+03  0.77000000000E+02 0.  0.
   -5000001    1    1    2    0    0 -0.40100218039E+02 -0.10464805036E+03 -0.85879082503E+02  0.16082120116E+03  0.77000000000E+02 0.  0.
<mgrwt>
<rscale>  0 0.30883955E+03</rscale>
<asrwt>0</asrwt>
<pdfrwt beam="1">  1        2 0.21918794E-01 0.30883955E+03</pdfrwt>
<pdfrwt beam="2">  1       -2 0.25749124E-01 0.30883955E+03</pdfrwt>
<totfact> 0.33684917E+03</totfact>
</mgrwt>
</event>
<event>
 4    1  0.6122885E-004  0.4653167E+03  0.7818608E-02  0.1023250E+00
         -2   -1    0    0    0  501 -0.00000000000E+00  0.00000000000E+00  0.80647708356E+02  0.80647708396E+02  0.25500000000E-02 0. -1.
          2   -1    0    0  501    0  0.00000000000E+00 -0.00000000000E+00 -0.67118971074E+03  0.67118971074E+03  0.25500000000E-02 0.  1.
    5000001    1    1    2    0    0 -0.14395136736E+03 -0.16381784317E+03 -0.25431138960E+03  0.34374636695E+03  0.77000000000E+02 0.  0.
   -5000001    1    1    2    0    0  0.14395136736E+03  0.16381784317E+03 -0.33623061278E+03  0.40809105219E+03  0.77000000000E+02 0.  0.
<mgrwt>
<rscale>  0 0.46531672E+03</rscale>
<asrwt>0</asrwt>
<pdfrwt beam="1">  1        2 0.10325995E+00 0.46531672E+03</pdfrwt>
<pdfrwt beam="2">  1       -2 0.12407340E-01 0.46531672E+03</pdfrwt>
<totfact> 0.20764050E+03</totfact>
</mgrwt>
</event>
<event>
 4    1  0.6122885E-004  0.2135975E+03  0.7818608E-02  0.1138748E+00
         -2   -1    0    0    0  501 -0.00000000000E+00  0.00000000000E+00  0.92070388242E+01  0.92070391773E+01  0.25500000000E-02 0. -1.
          2   -1    0    0  501    0  0.00000000000E+00 -0.00000000000E+00 -0.12388313568E+04  0.12388313568E+04  0.25500000000E-02 0.  1.
    5000001    1    1    2    0    0 -0.44572338416E+02 -0.42547312965E+02 -0.37532254156E+03  0.38806311006E+03  0.77000000000E+02 0.  0.
   -5000001    1    1    2    0    0  0.44572338416E+02  0.42547312965E+02 -0.85430177641E+03  0.85997528590E+03  0.77000000000E+02 0.  0.
<mgrwt>
<rscale>  0 0.21359746E+03</rscale>
<asrwt>0</asrwt>
<pdfrwt beam="1">  1        2 0.19058931E+00 0.21359746E+03</pdfrwt>
<pdfrwt beam="2">  1       -2 0.14164685E-02 0.21359746E+03</pdfrwt>
<totfact> 0.24011199E+04</totfact>
</mgrwt>
</event>
<event>
 4    1  0.6122885E-004  0.2197868E+03  0.7818608E-02  0.1134042E+00
          2   -1    0    0  501    0  0.00000000000E+00  0.00000000000E+00  0.66897784176E+03  0.66897784176E+03  0.25500000000E-02 0.  1.
         -2   -1    0    0    0  501 -0.00000000000E+00 -0.00000000000E+00 -0.18052252902E+02  0.18052253082E+02  0.25500000000E-02 0. -1.
    5000001    1    1    2    0    0 -0.46888301128E+02 -0.85093809481E+00  0.52188038792E+03  0.52961058918E+03  0.77000000000E+02 0.  0.
   -5000001    1    1    2    0    0  0.46888301128E+02  0.85093809481E+00  0.12904520093E+03  0.15741950566E+03  0.77000000000E+02 0.  0.
<mgrwt>
<rscale>  0 0.21978678E+03</rscale>
<asrwt>0</asrwt>
<pdfrwt beam="1">  1        2 0.10291967E+00 0.21978678E+03</pdfrwt>
<pdfrwt beam="2">  1       -2 0.27772697E-02 0.21978678E+03</pdfrwt>
<totfact> 0.20653910E+04</totfact>
</mgrwt>
</event>
<event>
 4    1  0.6122885E-004  0.2233150E+03  0.7818608E-02  0.1131435E+00
         -2   -1    0    0    0  501 -0.00000000000E+00  0.00000000000E+00  0.83515742330E+01  0.83515746223E+01  0.25500000000E-02 0. -1.
          2   -1    0    0  501    0  0.00000000000E+00 -0.00000000000E+00 -0.14928205848E+04  0.14928205848E+04  0.25500000000E-02 0.  1.
    5000001    1    1    2    0    0  0.42038532506E+02 -0.37951067122E+02 -0.35426995247E+03  0.36693830671E+03  0.77000000000E+02 0.  0.
   -5000001    1    1    2    0    0 -0.42038532506E+02  0.37951067122E+02 -0.11301990580E+04  0.11342338527E+04  0.77000000000E+02 0.  0.
<mgrwt>
<rscale>  0 0.22331504E+03</rscale>
<asrwt>0</asrwt>
<pdfrwt beam="1">  1        2 0.22966449E+00 0.22331504E+03</pdfrwt>
<pdfrwt beam="2">  1       -2 0.12848588E-02 0.22331504E+03</pdfrwt>
<totfact> 0.20182847E+04</totfact>
</mgrwt>
</event>
<event>
 4    1  0.6122885E-004  0.2299424E+03  0.7818608E-02  0.1126680E+00
          2   -1    0    0  501    0  0.00000000000E+00  0.00000000000E+00  0.83892155470E+02  0.83892155508E+02  0.25500000000E-02 0.  1.
         -2   -1    0    0    0  501 -0.00000000000E+00 -0.00000000000E+00 -0.15756392405E+03  0.15756392408E+03  0.25500000000E-02 0. -1.
    5000001    1    1    2    0    0  0.48007691827E+02  0.68301289650E+02 -0.18064174496E+02  0.11500051758E+03  0.77000000000E+02 0.  0.
   -5000001    1    1    2    0    0 -0.48007691827E+02 -0.68301289650E+02 -0.55607594089E+02  0.12645556201E+03  0.77000000000E+02 0.  0.
<mgrwt>
<rscale>  0 0.22994240E+03</rscale>
<asrwt>0</asrwt>
<pdfrwt beam="1">  1        2 0.12906486E-01 0.22994240E+03</pdfrwt>
<pdfrwt beam="2">  1       -2 0.24240604E-01 0.22994240E+03</pdfrwt>
<totfact> 0.68862428E+03</totfact>
</mgrwt>
</event>
<event>
 4    1  0.6122885E-004  0.6495613E+03  0.7818608E-02  0.9807603E-01
         -2   -1    0    0    0  501 -0.00000000000E+00  0.00000000000E+00  0.55516794666E+02  0.55516794725E+02  0.25500000000E-02 0. -1.
          2   -1    0    0  501    0  0.00000000000E+00 -0.00000000000E+00 -0.19000101040E+04  0.19000101041E+04  0.25500000000E-02 0.  1.
    5000001    1    1    2    0    0 -0.21084901471E+03  0.25143685642E+02 -0.21966265583E+03  0.31507172881E+03  0.77000000000E+02 0.  0.
   -5000001    1    1    2    0    0  0.21084901471E+03 -0.25143685642E+02 -0.16248306536E+04  0.16404551700E+04  0.77000000000E+02 0.  0.
<mgrwt>
<rscale>  0 0.64956130E+03</rscale>
<asrwt>0</asrwt>
<pdfrwt beam="1">  1        2 0.29230920E+00 0.64956130E+03</pdfrwt>
<pdfrwt beam="2">  1       -2 0.85410468E-02 0.64956130E+03</pdfrwt>
<totfact> 0.69121695E+02</totfact>
</mgrwt>
</event>
<event>
 4    1  0.6122885E-004  0.3270184E+03  0.7818608E-02  0.1072464E+00
          2   -1    0    0  501    0  0.00000000000E+00  0.00000000000E+00  0.37049345930E+03  0.37049345931E+03  0.25500000000E-02 0.  1.
         -2   -1    0    0    0  501 -0.00000000000E+00 -0.00000000000E+00 -0.72161221762E+02  0.72161221807E+02  0.25500000000E-02 0. -1.
    5000001    1    1    2    0    0 -0.85218530126E+02  0.11157391955E+03  0.10436756281E+03  0.19113483609E+03  0.77000000000E+02 0.  0.
   -5000001    1    1    2    0    0  0.85218530126E+02 -0.11157391955E+03  0.19396467473E+03  0.25151984503E+03  0.77000000000E+02 0.  0.
<mgrwt>
<rscale>  0 0.32701841E+03</rscale>
<asrwt>0</asrwt>
<pdfrwt beam="1">  1        2 0.56998993E-01 0.32701841E+03</pdfrwt>
<pdfrwt beam="2">  1       -2 0.11101727E-01 0.32701841E+03</pdfrwt>
<totfact> 0.48766396E+03</totfact>
</mgrwt>
</event>
<event>
 4    1  0.6122885E-004  0.3608151E+03  0.7818608E-02  0.1058262E+00
          2   -1    0    0  501    0  0.00000000000E+00  0.00000000000E+00  0.71500834076E+03  0.71500834076E+03  0.25500000000E-02 0.  1.
         -2   -1    0    0    0  501 -0.00000000000E+00 -0.00000000000E+00 -0.45519577037E+02  0.45519577108E+02  0.25500000000E-02 0. -1.
    5000001    1    1    2    0    0 -0.13353583713E+03  0.71443272848E+02  0.20684529179E+03  0.26767505630E+03  0.77000000000E+02 0.  0.
   -5000001    1    1    2    0    0  0.13353583713E+03 -0.71443272848E+02  0.46264347193E+03  0.49285286156E+03  0.77000000000E+02 0.  0.
<mgrwt>
<rscale>  0 0.36081506E+03</rscale>
<asrwt>0</asrwt>
<pdfrwt beam="1">  1        2 0.11000129E+00 0.36081506E+03</pdfrwt>
<pdfrwt beam="2">  1       -2 0.70030116E-02 0.36081506E+03</pdfrwt>
<totfact> 0.47806363E+03</totfact>
</mgrwt>
</event>
<event>
 4    1  0.6122885E-004  0.2521365E+03  0.7818608E-02  0.1111962E+00
         -2   -1    0    0    0  501 -0.00000000000E+00  0.00000000000E+00  0.12869324054E+02  0.12869324306E+02  0.25500000000E-02 0. -1.
          2   -1    0    0  501    0  0.00000000000E+00 -0.00000000000E+00 -0.12349684278E+04  0.12349684278E+04  0.25500000000E-02 0.  1.
    5000001    1    1    2    0    0 -0.95827663671E+02  0.25278370922E+02 -0.67008078821E+03  0.68173249878E+03  0.77000000000E+02 0.  0.
   -5000001    1    1    2    0    0  0.95827663671E+02 -0.25278370922E+02 -0.55201831551E+03  0.56610525330E+03  0.77000000000E+02 0.  0.
<mgrwt>
<rscale>  0 0.25213654E+03</rscale>
<asrwt>0</asrwt>
<pdfrwt beam="1">  1        2 0.18999505E+00 0.25213654E+03</pdfrwt>
<pdfrwt beam="2">  1       -2 0.19798970E-02 0.25213654E+03</pdfrwt>
<totfact> 0.14906566E+04</totfact>
</mgrwt>
</event>
<event>
 4    1  0.6122885E-004  0.4888810E+03  0.7818608E-02  0.1016723E+00
         -2   -1    0    0    0  501 -0.00000000000E+00  0.00000000000E+00  0.72696991427E+03  0.72696991427E+03  0.25500000000E-02 0. -1.
          2   -1    0    0  501    0  0.00000000000E+00 -0.00000000000E+00 -0.82192067295E+02  0.82192067334E+02  0.25500000000E-02 0.  1.
    5000001    1    1    2    0    0  0.28376878318E+02 -0.14069945021E+03  0.20716305408E+02  0.16419423809E+03  0.77000000000E+02 0.  0.
   -5000001    1    1    2    0    0 -0.28376878318E+02  0.14069945021E+03  0.62406154156E+03  0.64496774351E+03  0.77000000000E+02 0.  0.
<mgrwt>
<rscale>  0 0.48888101E+03</rscale>
<asrwt>0</asrwt>
<pdfrwt beam="1">  1        2 0.12644933E-01 0.48888101E+03</pdfrwt>
<pdfrwt beam="2">  1       -2 0.11184153E+00 0.48888101E+03</pdfrwt>
<totfact> 0.31608358E+02</totfact>
</mgrwt>
</event>
<event>
 4    1  0.6122885E-004  0.3879662E+03  0.7818608E-02  0.1048028E+00
         -2   -1    0    0    0  501 -0.00000000000E+00  0.00000000000E+00  0.18178889724E+02  0.18178889902E+02  0.25500000000E-02 0. -1.
          2   -1    0    0  501    0  0.00000000000E+00 -0.00000000000E+00 -0.20699528771E+04  0.20699528771E+04  0.25500000000E-02 0.  1.
    5000001    1    1    2    0    0 -0.82504870494E+02  0.10676174290E+03 -0.16511397577E+04  0.16584319772E+04  0.77000000000E+02 0.  0.
   -5000001    1    1    2    0    0  0.82504870494E+02 -0.10676174290E+03 -0.40063422964E+03  0.42969978981E+03  0.77000000000E+02 0.  0.
<mgrwt>
<rscale>  0 0.38796621E+03</rscale>
<asrwt>0</asrwt>
<pdfrwt beam="1">  1        2 0.31845410E+00 0.38796621E+03</pdfrwt>
<pdfrwt beam="2">  1       -2 0.27967539E-02 0.38796621E+03</pdfrwt>
<totfact> 0.31950938E+03</totfact>
</mgrwt>
</event>
<event>
 4    1  0.6122885E-004  0.5577430E+03  0.7818608E-02  0.9997174E-01
          2   -1    0    0  501    0  0.00000000000E+00  0.00000000000E+00  0.15395669198E+04  0.15395669198E+04  0.25500000000E-02 0. -1.
         -2   -1    0    0    0  501 -0.00000000000E+00 -0.00000000000E+00 -0.50513764015E+02  0.50513764080E+02  0.25500000000E-02 0.  1.
    5000001    1    1    2    0    0  0.24528092729E+03 -0.89852649884E+02  0.91567886893E+03  0.95531828361E+03  0.77000000000E+02 0.  0.
   -5000001    1    1    2    0    0 -0.24528092729E+03  0.89852649884E+02  0.57337428686E+03  0.63476240029E+03  0.77000000000E+02 0.  0.
<mgrwt>
<rscale>  0 0.55774302E+03</rscale>
<asrwt>0</asrwt>
<pdfrwt beam="1">  1        2 0.23685642E+00 0.55774302E+03</pdfrwt>
<pdfrwt beam="2">  1       -2 0.77713492E-02 0.55774302E+03</pdfrwt>
<totfact> 0.12683440E+03</totfact>
</mgrwt>
</event>
<event>
 4    1  0.6122885E-004  0.1939305E+03  0.7818608E-02  0.1154963E+00
         -2   -1    0    0    0  501 -0.00000000000E+00  0.00000000000E+00  0.37195635431E+01  0.37195644172E+01  0.25500000000E-02 0. -1.
          2   -1    0    0  501    0  0.00000000000E+00 -0.00000000000E+00 -0.25277852354E+04  0.25277852354E+04  0.25500000000E-02 0.  1.
    5000001    1    1    2    0    0 -0.35547096449E+02 -0.92220712726E+01 -0.66034268067E+03  0.66583038274E+03  0.77000000000E+02 0.  0.
   -5000001    1    1    2    0    0  0.35547096449E+02  0.92220712726E+01 -0.18637229912E+04  0.18656744171E+04  0.77000000000E+02 0.  0.
<mgrwt>
<rscale>  0 0.19393049E+03</rscale>
<asrwt>0</asrwt>
<pdfrwt beam="1">  1        2 0.38888866E+00 0.19393049E+03</pdfrwt>
<pdfrwt beam="2">  1       -2 0.57224263E-03 0.19393049E+03</pdfrwt>
<totfact> 0.18366171E+04</totfact>
</mgrwt>
</event>
<event>
 4    1  0.6122885E-004  0.1964397E+03  0.7818608E-02  0.1152778E+00
         -2   -1    0    0    0  501 -0.00000000000E+00  0.00000000000E+00  0.16873350406E+02  0.16873350599E+02  0.25500000000E-02 0. -1.
          2   -1    0    0  501    0  0.00000000000E+00 -0.00000000000E+00 -0.57173842236E+03  0.57173842237E+03  0.25500000000E-02 0.  1.
    5000001    1    1    2    0    0 -0.56816015438E+02  0.27142202217E+01 -0.34326582170E+03  0.35636477231E+03  0.77000000000E+02 0.  0.
   -5000001    1    1    2    0    0  0.56816015438E+02 -0.27142202217E+01 -0.21159925026E+03  0.23224700065E+03  0.77000000000E+02 0.  0.
<mgrwt>
<rscale>  0 0.19643974E+03</rscale>
<asrwt>0</asrwt>
<pdfrwt beam="1">  1        2 0.87959742E-01 0.19643974E+03</pdfrwt>
<pdfrwt beam="2">  1       -2 0.25959005E-02 0.19643974E+03</pdfrwt>
<totfact> 0.27181216E+04</totfact>
</mgrwt>
</event>
<event>
 4    1  0.6122885E-004  0.2206311E+03  0.7818608E-02  0.1133413E+00
          2   -1    0    0  501    0  0.00000000000E+00  0.00000000000E+00  0.43859650869E+03  0.43859650870E+03  0.25500000000E-02 0.  1.
         -2   -1    0    0    0  501 -0.00000000000E+00 -0.00000000000E+00 -0.27746501191E+02  0.27746501308E+02  0.25500000000E-02 0. -1.
    5000001    1    1    2    0    0 -0.65563416484E+02 -0.92808722810E+01  0.11436933591E+03  0.15295110712E+03  0.77000000000E+02 0.  0.
   -5000001    1    1    2    0    0  0.65563416484E+02  0.92808722810E+01  0.29648067159E+03  0.31339190289E+03  0.77000000000E+02 0.  0.
<mgrwt>
<rscale>  0 0.22063108E+03</rscale>
<asrwt>0</asrwt>
<pdfrwt beam="1">  1        2 0.67476387E-01 0.22063108E+03</pdfrwt>
<pdfrwt beam="2">  1       -2 0.42686924E-02 0.22063108E+03</pdfrwt>
<totfact> 0.17564024E+04</totfact>
</mgrwt>
</event>
<event>
 4    1  0.6122885E-004  0.1890673E+03  0.7818608E-02  0.1159305E+00
         -2   -1    0    0    0  501 -0.00000000000E+00  0.00000000000E+00  0.38583729920E+01  0.38583738347E+01  0.25500000000E-02 0. -1.
          2   -1    0    0  501    0  0.00000000000E+00 -0.00000000000E+00 -0.23161605581E+04  0.23161605581E+04  0.25500000000E-02 0.  1.
    5000001    1    1    2    0    0  0.44343153508E+02 -0.23207237605E+02 -0.88102063775E+03  0.88579413821E+03  0.77000000000E+02 0.  0.
   -5000001    1    1    2    0    0 -0.44343153508E+02  0.23207237605E+02 -0.14312815474E+04  0.14342247938E+04  0.77000000000E+02 0.  0.
<mgrwt>
<rscale>  0 0.18906731E+03</rscale>
<asrwt>0</asrwt>
<pdfrwt beam="1">  1        2 0.35633128E+00 0.18906731E+03</pdfrwt>
<pdfrwt beam="2">  1       -2 0.59359776E-03 0.18906731E+03</pdfrwt>
<totfact> 0.22615967E+04</totfact>
</mgrwt>
</event>
<event>
 4    1  0.6122885E-004  0.3383741E+03  0.7818608E-02  0.1067491E+00
         -2   -1    0    0    0  501 -0.00000000000E+00  0.00000000000E+00  0.35841356731E+03  0.35841356732E+03  0.25500000000E-02 0. -1.
          2   -1    0    0  501    0  0.00000000000E+00 -0.00000000000E+00 -0.79863772320E+02  0.79863772361E+02  0.25500000000E-02 0.  1.
    5000001    1    1    2    0    0 -0.30130272496E+02  0.14364148518E+03  0.95264199543E+02  0.19116740648E+03  0.77000000000E+02 0.  0.
   -5000001    1    1    2    0    0  0.30130272496E+02 -0.14364148518E+03  0.18328559545E+03  0.24710993320E+03  0.77000000000E+02 0.  0.
<mgrwt>
<rscale>  0 0.33837411E+03</rscale>
<asrwt>0</asrwt>
<pdfrwt beam="1">  1        2 0.12286734E-01 0.33837411E+03</pdfrwt>
<pdfrwt beam="2">  1       -2 0.55140549E-01 0.33837411E+03</pdfrwt>
<totfact> 0.15700926E+03</totfact>
</mgrwt>
</event>
<event>
 4    1  0.6122885E-004  0.2103498E+03  0.7818608E-02  0.1141289E+00
          2   -1    0    0  501    0  0.00000000000E+00  0.00000000000E+00  0.56490208110E+03  0.56490208110E+03  0.25500000000E-02 0.  1.
         -2   -1    0    0    0  501 -0.00000000000E+00 -0.00000000000E+00 -0.19581730111E+02  0.19581730277E+02  0.25500000000E-02 0. -1.
    5000001    1    1    2    0    0  0.60453030074E+02  0.37811465870E+02  0.29200795539E+03  0.31029328354E+03  0.77000000000E+02 0.  0.
   -5000001    1    1    2    0    0 -0.60453030074E+02 -0.37811465870E+02  0.25331239559E+03  0.27419052784E+03  0.77000000000E+02 0.  0.
<mgrwt>
<rscale>  0 0.21034981E+03</rscale>
<asrwt>0</asrwt>
<pdfrwt beam="1">  1        2 0.86907999E-01 0.21034981E+03</pdfrwt>
<pdfrwt beam="2">  1       -2 0.30125743E-02 0.21034981E+03</pdfrwt>
<totfact> 0.22223611E+04</totfact>
</mgrwt>
</event>
<event>
 4    1  0.6122885E-004  0.1987524E+03  0.7818608E-02  0.1150796E+00
         -2   -1    0    0    0  501 -0.00000000000E+00  0.00000000000E+00  0.35409513083E+02  0.35409513175E+02  0.25500000000E-02 0. -1.
          2   -1    0    0  501    0  0.00000000000E+00 -0.00000000000E+00 -0.27889748503E+03  0.27889748504E+03  0.25500000000E-02 0.  1.
    5000001    1    1    2    0    0  0.44251568062E+02  0.43628500379E+02 -0.10716618331E+03  0.14586033788E+03  0.77000000000E+02 0.  0.
   -5000001    1    1    2    0    0 -0.44251568062E+02 -0.43628500379E+02 -0.13632178863E+03  0.16844666033E+03  0.77000000000E+02 0.  0.
<mgrwt>
<rscale>  0 0.19875235E+03</rscale>
<asrwt>0</asrwt>
<pdfrwt beam="1">  1        2 0.42907304E-01 0.19875235E+03</pdfrwt>
<pdfrwt beam="2">  1       -2 0.54476176E-02 0.19875235E+03</pdfrwt>
<totfact> 0.19633682E+04</totfact>
</mgrwt>
</event>
<event>
 4    1  0.6122885E-004  0.1946588E+03  0.7818608E-02  0.1154325E+00
          2   -1    0    0  501    0  0.00000000000E+00  0.00000000000E+00  0.21556531915E+04  0.21556531915E+04  0.25500000000E-02 0.  1.
         -2   -1    0    0    0  501 -0.00000000000E+00 -0.00000000000E+00 -0.43944973361E+01  0.43944980759E+01  0.25500000000E-02 0. -1.
    5000001    1    1    2    0    0  0.53780307220E+02 -0.23512294718E+02  0.11859628484E+04  0.11899084113E+04  0.77000000000E+02 0.  0.
   -5000001    1    1    2    0    0 -0.53780307220E+02  0.23512294718E+02  0.96529584570E+03  0.97013927824E+03  0.77000000000E+02 0.  0.
<mgrwt>
<rscale>  0 0.19465881E+03</rscale>
<asrwt>0</asrwt>
<pdfrwt beam="1">  1        2 0.33163916E+00 0.19465881E+03</pdfrwt>
<pdfrwt beam="2">  1       -2 0.67607614E-03 0.19465881E+03</pdfrwt>
<totfact> 0.22830509E+04</totfact>
</mgrwt>
</event>
<event>
 4    1  0.6122885E-004  0.2085389E+03  0.7818608E-02  0.1142728E+00
         -2   -1    0    0    0  501 -0.00000000000E+00  0.00000000000E+00  0.21991648546E+02  0.21991648694E+02  0.25500000000E-02 0. -1.
          2   -1    0    0  501    0  0.00000000000E+00 -0.00000000000E+00 -0.49437469479E+03  0.49437469480E+03  0.25500000000E-02 0.  1.
    5000001    1    1    2    0    0  0.64251218619E+02 -0.66019536678E+00 -0.16552630535E+03  0.19353710940E+03  0.77000000000E+02 0.  0.
   -5000001    1    1    2    0    0 -0.64251218619E+02  0.66019536678E+00 -0.30685674090E+03  0.32282923409E+03  0.77000000000E+02 0.  0.
<mgrwt>
<rscale>  0 0.20853887E+03</rscale>
<asrwt>0</asrwt>
<pdfrwt beam="1">  1        2 0.76057637E-01 0.20853887E+03</pdfrwt>
<pdfrwt beam="2">  1       -2 0.33833309E-02 0.20853887E+03</pdfrwt>
<totfact> 0.21714000E+04</totfact>
</mgrwt>
</event>
<event>
 4    1  0.6122885E-004  0.2529502E+03  0.7818608E-02  0.1111454E+00
          2   -1    0    0  501    0  0.00000000000E+00  0.00000000000E+00  0.12234355266E+04  0.12234355266E+04  0.25500000000E-02 0.  1.
         -2   -1    0    0    0  501 -0.00000000000E+00 -0.00000000000E+00 -0.13074617431E+02  0.13074617680E+02  0.25500000000E-02 0. -1.
    5000001    1    1    2    0    0 -0.96987606286E+02 -0.20239445502E+02  0.68258344421E+03  0.69402117347E+03  0.77000000000E+02 0.  0.
   -5000001    1    1    2    0    0  0.96987606286E+02  0.20239445502E+02  0.52777746501E+03  0.54248897086E+03  0.77000000000E+02 0.  0.
<mgrwt>
<rscale>  0 0.25295021E+03</rscale>
<asrwt>0</asrwt>
<pdfrwt beam="1">  1        2 0.18822080E+00 0.25295021E+03</pdfrwt>
<pdfrwt beam="2">  1       -2 0.20114802E-02 0.25295021E+03</pdfrwt>
<totfact> 0.14784773E+04</totfact>
</mgrwt>
</event>
<event>
 4    1  0.6122885E-004  0.2295096E+03  0.7818608E-02  0.1126985E+00
         -2   -1    0    0    0  501 -0.00000000000E+00  0.00000000000E+00  0.10890985339E+02  0.10890985637E+02  0.25500000000E-02 0. -1.
          2   -1    0    0  501    0  0.00000000000E+00 -0.00000000000E+00 -0.12091346100E+04  0.12091346100E+04  0.25500000000E-02 0.  1.
    5000001    1    1    2    0    0 -0.21994717344E+02 -0.79729004016E+02 -0.49291421504E+03  0.50570139911E+03  0.77000000000E+02 0.  0.
   -5000001    1    1    2    0    0  0.21994717344E+02  0.79729004016E+02 -0.70532940958E+03  0.71432419649E+03  0.77000000000E+02 0.  0.
<mgrwt>
<rscale>  0 0.22950963E+03</rscale>
<asrwt>0</asrwt>
<pdfrwt beam="1">  1        2 0.18602060E+00 0.22950963E+03</pdfrwt>
<pdfrwt beam="2">  1       -2 0.16755372E-02 0.22950963E+03</pdfrwt>
<totfact> 0.19604938E+04</totfact>
</mgrwt>
</event>
<event>
 4    1  0.6122885E-004  0.1703873E+03  0.7818608E-02  0.1177445E+00
          2   -1    0    0  501    0  0.00000000000E+00  0.00000000000E+00  0.16166637841E+03  0.16166637843E+03  0.25500000000E-02 0.  1.
         -2   -1    0    0    0  501 -0.00000000000E+00 -0.00000000000E+00 -0.44894670126E+02  0.44894670198E+02  0.25500000000E-02 0. -1.
    5000001    1    1    2    0    0 -0.34485753309E+02  0.11817886263E+02  0.58592734188E+02  0.10339747636E+03  0.77000000000E+02 0.  0.
   -5000001    1    1    2    0    0  0.34485753309E+02 -0.11817886263E+02  0.58178974093E+02  0.10316357227E+03  0.77000000000E+02 0.  0.
<mgrwt>
<rscale>  0 0.17038731E+03</rscale>
<asrwt>0</asrwt>
<pdfrwt beam="1">  1        2 0.24871750E-01 0.17038731E+03</pdfrwt>
<pdfrwt beam="2">  1       -2 0.69068724E-02 0.17038731E+03</pdfrwt>
<totfact> 0.24383286E+04</totfact>
</mgrwt>
</event>
<event>
 4    1  0.6122885E-004  0.1999991E+03  0.7818608E-02  0.1149740E+00
          2   -1    0    0  501    0  0.00000000000E+00  0.00000000000E+00  0.18722932853E+03  0.18722932854E+03  0.25500000000E-02 0.  1.
         -2   -1    0    0    0  501 -0.00000000000E+00 -0.00000000000E+00 -0.53409951121E+02  0.53409951182E+02  0.25500000000E-02 0. -1.
    5000001    1    1    2    0    0 -0.13779035618E+01  0.58241688852E+02  0.98214132861E+02  0.13772802486E+03  0.77000000000E+02 0.  0.
   -5000001    1    1    2    0    0  0.13779035618E+01 -0.58241688852E+02  0.35605244545E+02  0.10291125486E+03  0.77000000000E+02 0.  0.
<mgrwt>
<rscale>  0 0.19999909E+03</rscale>
<asrwt>0</asrwt>
<pdfrwt beam="1">  1        2 0.28804512E-01 0.19999909E+03</pdfrwt>
<pdfrwt beam="2">  1       -2 0.82169156E-02 0.19999909E+03</pdfrwt>
<totfact> 0.16062146E+04</totfact>
</mgrwt>
</event>
<event>
 4    1  0.6122885E-004  0.2703408E+03  0.7818608E-02  0.1101085E+00
          2   -1    0    0  501    0  0.00000000000E+00  0.00000000000E+00  0.82350969727E+01  0.82350973675E+01  0.25500000000E-02 0.  1.
         -2   -1    0    0    0  501 -0.00000000000E+00 -0.00000000000E+00 -0.22186793309E+04  0.22186793309E+04  0.25500000000E-02 0. -1.
    5000001    1    1    2    0    0 -0.62301702312E+01 -0.89927398642E+02 -0.16401029386E+04  0.16443820727E+04  0.77000000000E+02 0.  0.
   -5000001    1    1    2    0    0  0.62301702312E+01  0.89927398642E+02 -0.57034129540E+03  0.58253235557E+03  0.77000000000E+02 0.  0.
<mgrwt>
<rscale>  0 0.27034082E+03</rscale>
<asrwt>0</asrwt>
<pdfrwt beam="1">  1        2 0.12669398E-02 0.27034082E+03</pdfrwt>
<pdfrwt beam="2">  1       -2 0.34133480E+00 0.27034082E+03</pdfrwt>
<totfact> 0.21562536E+02</totfact>
</mgrwt>
</event>
<event>
 4    1  0.6122885E-004  0.3184361E+03  0.7818608E-02  0.1076371E+00
          2   -1    0    0  501    0  0.00000000000E+00  0.00000000000E+00  0.37679508264E+02  0.37679508350E+02  0.25500000000E-02 0.  1.
         -2   -1    0    0    0  501 -0.00000000000E+00 -0.00000000000E+00 -0.67278971530E+03  0.67278971531E+03  0.25500000000E-02 0. -1.
    5000001    1    1    2    0    0  0.34750959581E+02  0.13494187612E+03 -0.32225983123E+03  0.35944031208E+03  0.77000000000E+02 0.  0.
   -5000001    1    1    2    0    0 -0.34750959581E+02 -0.13494187612E+03 -0.31285037581E+03  0.35102891158E+03  0.77000000000E+02 0.  0.
<mgrwt>
<rscale>  0 0.31843609E+03</rscale>
<asrwt>0</asrwt>
<pdfrwt beam="1">  1        2 0.57968479E-02 0.31843609E+03</pdfrwt>
<pdfrwt beam="2">  1       -2 0.10350610E+00 0.31843609E+03</pdfrwt>
<totfact> 0.10262550E+03</totfact>
</mgrwt>
</event>
<event>
 4    1  0.6122885E-004  0.6343189E+03  0.7818608E-02  0.9836657E-01
          2   -1    0    0  501    0  0.00000000000E+00  0.00000000000E+00  0.33396817187E+03  0.33396817188E+03  0.25500000000E-02 0.  1.
         -2   -1    0    0    0  501 -0.00000000000E+00 -0.00000000000E+00 -0.30119673032E+03  0.30119673033E+03  0.25500000000E-02 0. -1.
    5000001    1    1    2    0    0  0.95877065182E+02 -0.27079671777E+03  0.12670455582E+03  0.32327437023E+03  0.77000000000E+02 0.  0.
   -5000001    1    1    2    0    0 -0.95877065182E+02  0.27079671777E+03 -0.93933114269E+02  0.31189053198E+03  0.77000000000E+02 0.  0.
<mgrwt>
<rscale>  0 0.63431891E+03</rscale>
<asrwt>0</asrwt>
<pdfrwt beam="1">  1        2 0.51379719E-01 0.63431891E+03</pdfrwt>
<pdfrwt beam="2">  1       -2 0.46337958E-01 0.63431891E+03</pdfrwt>
<totfact> 0.43387383E+02</totfact>
</mgrwt>
</event>
<event>
 4    1  0.6122885E-004  0.2003816E+03  0.7818608E-02  0.1149417E+00
          2   -1    0    0  501    0  0.00000000000E+00  0.00000000000E+00  0.91950751109E+03  0.91950751110E+03  0.25500000000E-02 0.  1.
         -2   -1    0    0    0  501 -0.00000000000E+00 -0.00000000000E+00 -0.10916928487E+02  0.10916928784E+02  0.25500000000E-02 0. -1.
    5000001    1    1    2    0    0  0.16181872702E+02 -0.60958927027E+02  0.50751163629E+03  0.51717976058E+03  0.77000000000E+02 0.  0.
   -5000001    1    1    2    0    0 -0.16181872702E+02  0.60958927027E+02  0.40107894632E+03  0.41324467930E+03  0.77000000000E+02 0.  0.
<mgrwt>
<rscale>  0 0.20038161E+03</rscale>
<asrwt>0</asrwt>
<pdfrwt beam="1">  1        2 0.14146267E+00 0.20038161E+03</pdfrwt>
<pdfrwt beam="2">  1       -2 0.16795277E-02 0.20038161E+03</pdfrwt>
<totfact> 0.28791298E+04</totfact>
</mgrwt>
</event>
<event>
 4    1  0.6122885E-004  0.5618187E+03  0.7818608E-02  0.9987948E-01
         -2   -1    0    0    0  501 -0.00000000000E+00  0.00000000000E+00  0.12071081979E+04  0.12071081979E+04  0.25500000000E-02 0. -1.
          2   -1    0    0  501    0  0.00000000000E+00 -0.00000000000E+00 -0.65371152213E+02  0.65371152263E+02  0.25500000000E-02 0.  1.
    5000001    1    1    2    0    0  0.19596528945E+03 -0.17045055063E+03  0.73922556499E+03  0.78729868590E+03  0.77000000000E+02 0.  0.
   -5000001    1    1    2    0    0 -0.19596528945E+03  0.17045055063E+03  0.40251148066E+03  0.48518066423E+03  0.77000000000E+02 0.  0.
<mgrwt>
<rscale>  0 0.56181867E+03</rscale>
<asrwt>0</asrwt>
<pdfrwt beam="1">  1        2 0.10057100E-01 0.56181867E+03</pdfrwt>
<pdfrwt beam="2">  1       -2 0.18570897E+00 0.56181867E+03</pdfrwt>
<totfact> 0.11194976E+02</totfact>
</mgrwt>
</event>
<event>
 4    1  0.6122885E-004  0.3259449E+03  0.7818608E-02  0.1072945E+00
          2   -1    0    0  501    0  0.00000000000E+00  0.00000000000E+00  0.15614248236E+04  0.15614248236E+04  0.25500000000E-02 0.  1.
         -2   -1    0    0    0  501 -0.00000000000E+00 -0.00000000000E+00 -0.17010121145E+02  0.17010121336E+02  0.25500000000E-02 0. -1.
    5000001    1    1    2    0    0 -0.10871446020E+03  0.30787956737E+02  0.34275765321E+03  0.36902376749E+03  0.77000000000E+02 0.  0.
   -5000001    1    1    2    0    0  0.10871446020E+03 -0.30787956737E+02  0.12016570493E+04  0.12094111775E+04  0.77000000000E+02 0.  0.
<mgrwt>
<rscale>  0 0.32594494E+03</rscale>
<asrwt>0</asrwt>
<pdfrwt beam="1">  1        2 0.24021915E+00 0.32594494E+03</pdfrwt>
<pdfrwt beam="2">  1       -2 0.26169423E-02 0.32594494E+03</pdfrwt>
<totfact> 0.65834374E+03</totfact>
</mgrwt>
</event>
<event>
 4    1  0.6122885E-004  0.2288938E+03  0.7818608E-02  0.1127421E+00
          2   -1    0    0  501    0  0.00000000000E+00  0.00000000000E+00  0.32934047388E+04  0.32934047388E+04  0.25500000000E-02 0.  1.
         -2   -1    0    0    0  501 -0.00000000000E+00 -0.00000000000E+00 -0.39770671420E+01  0.39770679595E+01  0.25500000000E-02 0. -1.
    5000001    1    1    2    0    0  0.63843440129E+02 -0.30494648970E+02  0.97470272922E+03  0.98029603631E+03  0.77000000000E+02 0.  0.
   -5000001    1    1    2    0    0 -0.63843440129E+02  0.30494648970E+02  0.23147249424E+04  0.23170857705E+04  0.77000000000E+02 0.  0.
<mgrwt>
<rscale>  0 0.22889380E+03</rscale>
<asrwt>0</asrwt>
<pdfrwt beam="1">  1        2 0.50667648E+00 0.22889380E+03</pdfrwt>
<pdfrwt beam="2">  1       -2 0.61185797E-03 0.22889380E+03</pdfrwt>
<totfact> 0.60052585E+03</totfact>
</mgrwt>
</event>
<event>
 4    1  0.6122885E-004  0.2692132E+03  0.7818608E-02  0.1101731E+00
          2   -1    0    0  501    0  0.00000000000E+00  0.00000000000E+00  0.14809525550E+03  0.14809525553E+03  0.25500000000E-02 0.  1.
         -2   -1    0    0    0  501 -0.00000000000E+00 -0.00000000000E+00 -0.12234646455E+03  0.12234646457E+03  0.25500000000E-02 0. -1.
    5000001    1    1    2    0    0 -0.89296896182E+02 -0.61469369059E+02 -0.81378449116E+01  0.13322028194E+03  0.77000000000E+02 0.  0.
   -5000001    1    1    2    0    0  0.89296896182E+02  0.61469369059E+02  0.33886635869E+02  0.13722143816E+03  0.77000000000E+02 0.  0.
<mgrwt>
<rscale>  0 0.26921316E+03</rscale>
<asrwt>0</asrwt>
<pdfrwt beam="1">  1        2 0.22783885E-01 0.26921316E+03</pdfrwt>
<pdfrwt beam="2">  1       -2 0.18822533E-01 0.26921316E+03</pdfrwt>
<totfact> 0.55303844E+03</totfact>
</mgrwt>
</event>
<event>
 4    1  0.6122885E-004  0.2039512E+03  0.7818608E-02  0.1146448E+00
         -2   -1    0    0    0  501 -0.00000000000E+00  0.00000000000E+00  0.55183319031E+01  0.55183324923E+01  0.25500000000E-02 0. -1.
          2   -1    0    0  501    0  0.00000000000E+00 -0.00000000000E+00 -0.18844496629E+04  0.18844496629E+04  0.25500000000E-02 0.  1.
    5000001    1    1    2    0    0 -0.20449724069E+02  0.40243349970E+02 -0.13964874549E+04  0.13993369609E+04  0.77000000000E+02 0.  0.
   -5000001    1    1    2    0    0  0.20449724069E+02 -0.40243349970E+02 -0.48244387611E+03  0.49063103451E+03  0.77000000000E+02 0.  0.
<mgrwt>
<rscale>  0 0.20395116E+03</rscale>
<asrwt>0</asrwt>
<pdfrwt beam="1">  1        2 0.28991482E+00 0.20395116E+03</pdfrwt>
<pdfrwt beam="2">  1       -2 0.84897569E-03 0.20395116E+03</pdfrwt>
<totfact> 0.22830107E+04</totfact>
</mgrwt>
</event>
<event>
 4    1  0.6122885E-004  0.1970382E+03  0.7818608E-02  0.1152262E+00
         -2   -1    0    0    0  501 -0.00000000000E+00  0.00000000000E+00  0.50649356265E+02  0.50649356329E+02  0.25500000000E-02 0. -1.
          2   -1    0    0  501    0  0.00000000000E+00 -0.00000000000E+00 -0.19163150949E+03  0.19163150950E+03  0.25500000000E-02 0.  1.
    5000001    1    1    2    0    0 -0.52342557189E+01 -0.55963243344E+02 -0.10105212453E+03  0.13892377014E+03  0.77000000000E+02 0.  0.
   -5000001    1    1    2    0    0  0.52342557189E+01  0.55963243344E+02 -0.39930028693E+02  0.10335709569E+03  0.77000000000E+02 0.  0.
<mgrwt>
<rscale>  0 0.19703820E+03</rscale>
<asrwt>0</asrwt>
<pdfrwt beam="1">  1        2 0.29481771E-01 0.19703820E+03</pdfrwt>
<pdfrwt beam="2">  1       -2 0.77922087E-02 0.19703820E+03</pdfrwt>
<totfact> 0.16987562E+04</totfact>
</mgrwt>
</event>
<event>
 4    1  0.6122885E-004  0.3361949E+03  0.7818608E-02  0.1068428E+00
         -2   -1    0    0    0  501 -0.00000000000E+00  0.00000000000E+00  0.25932708787E+02  0.25932708912E+02  0.25500000000E-02 0. -1.
          2   -1    0    0  501    0  0.00000000000E+00 -0.00000000000E+00 -0.10896183057E+04  0.10896183057E+04  0.25500000000E-02 0.  1.
    5000001    1    1    2    0    0 -0.12566499862E+03 -0.80597892479E+02 -0.55283978182E+03  0.57779627596E+03  0.77000000000E+02 0.  0.
   -5000001    1    1    2    0    0  0.12566499862E+03  0.80597892479E+02 -0.51084581514E+03  0.53775473870E+03  0.77000000000E+02 0.  0.
<mgrwt>
<rscale>  0 0.33619491E+03</rscale>
<asrwt>0</asrwt>
<pdfrwt beam="1">  1        2 0.16763355E+00 0.33619491E+03</pdfrwt>
<pdfrwt beam="2">  1       -2 0.39896484E-02 0.33619491E+03</pdfrwt>
<totfact> 0.64165262E+03</totfact>
</mgrwt>
</event>
<event>
 4    1  0.6122885E-004  0.3053669E+03  0.7818608E-02  0.1082588E+00
          2   -1    0    0  501    0  0.00000000000E+00  0.00000000000E+00  0.32668070690E+03  0.32668070691E+03  0.25500000000E-02 0.  1.
         -2   -1    0    0    0  501 -0.00000000000E+00 -0.00000000000E+00 -0.71360901219E+02  0.71360901264E+02  0.25500000000E-02 0. -1.
    5000001    1    1    2    0    0 -0.10708088325E+03  0.39390573182E+02  0.41538030873E+02  0.14377879128E+03  0.77000000000E+02 0.  0.
   -5000001    1    1    2    0    0  0.10708088325E+03 -0.39390573182E+02  0.21378177480E+03  0.25426281689E+03  0.77000000000E+02 0.  0.
<mgrwt>
<rscale>  0 0.30536686E+03</rscale>
<asrwt>0</asrwt>
<pdfrwt beam="1">  1        2 0.50258571E-01 0.30536686E+03</pdfrwt>
<pdfrwt beam="2">  1       -2 0.10978600E-01 0.30536686E+03</pdfrwt>
<totfact> 0.56802855E+03</totfact>
</mgrwt>
</event>
<event>
 4    1  0.6122885E-004  0.1611508E+03  0.7818608E-02  0.1187404E+00
         -2   -1    0    0    0  501 -0.00000000000E+00  0.00000000000E+00  0.15567729190E+02  0.15567729398E+02  0.25500000000E-02 0. -1.
          2   -1    0    0  501    0  0.00000000000E+00 -0.00000000000E+00 -0.41704163302E+03  0.41704163303E+03  0.25500000000E-02 0.  1.
    5000001    1    1    2    0    0  0.26965148466E-01 -0.23031229663E+02 -0.18532665709E+03  0.20200348535E+03  0.77000000000E+02 0.  0.
   -5000001    1    1    2    0    0 -0.26965148466E-01  0.23031229663E+02 -0.21614724674E+03  0.23060587708E+03  0.77000000000E+02 0.  0.
<mgrwt>
<rscale>  0 0.16115075E+03</rscale>
<asrwt>0</asrwt>
<pdfrwt beam="1">  1        2 0.64160243E-01 0.16115075E+03</pdfrwt>
<pdfrwt beam="2">  1       -2 0.23950356E-02 0.16115075E+03</pdfrwt>
<totfact> 0.42602277E+04</totfact>
</mgrwt>
</event>
<event>
 4    1  0.6122885E-004  0.3276507E+03  0.7818608E-02  0.1072181E+00
          2   -1    0    0  501    0  0.00000000000E+00  0.00000000000E+00  0.71059043693E+03  0.71059043694E+03  0.25500000000E-02 0.  1.
         -2   -1    0    0    0  501 -0.00000000000E+00 -0.00000000000E+00 -0.37769643435E+02  0.37769643521E+02  0.25500000000E-02 0. -1.
    5000001    1    1    2    0    0 -0.11929993532E+03 -0.73734381466E+02  0.25596516431E+03  0.30185493025E+03  0.77000000000E+02 0.  0.
   -5000001    1    1    2    0    0  0.11929993532E+03  0.73734381466E+02  0.41685562919E+03  0.44650515021E+03  0.77000000000E+02 0.  0.
<mgrwt>
<rscale>  0 0.32765071E+03</rscale>
<asrwt>0</asrwt>
<pdfrwt beam="1">  1        2 0.10932161E+00 0.32765071E+03</pdfrwt>
<pdfrwt beam="2">  1       -2 0.58107144E-02 0.32765071E+03</pdfrwt>
<totfact> 0.64201204E+03</totfact>
</mgrwt>
</event>
<event>
 4    1  0.6122885E-004  0.2220602E+03  0.7818608E-02  0.1132356E+00
          2   -1    0    0  501    0  0.00000000000E+00  0.00000000000E+00  0.44102992572E+03  0.44102992573E+03  0.25500000000E-02 0.  1.
         -2   -1    0    0    0  501 -0.00000000000E+00 -0.00000000000E+00 -0.27952028293E+02  0.27952028410E+02  0.25500000000E-02 0. -1.
    5000001    1    1    2    0    0  0.60387152105E+02 -0.17245130496E+02  0.31117533597E+03  0.32665439287E+03  0.77000000000E+02 0.  0.
   -5000001    1    1    2    0    0 -0.60387152105E+02  0.17245130496E+02  0.10190256146E+03  0.14232756127E+03  0.77000000000E+02 0.  0.
<mgrwt>
<rscale>  0 0.22206018E+03</rscale>
<asrwt>0</asrwt>
<pdfrwt beam="1">  1        2 0.67850756E-01 0.22206018E+03</pdfrwt>
<pdfrwt beam="2">  1       -2 0.43003122E-02 0.22206018E+03</pdfrwt>
<totfact> 0.17272510E+04</totfact>
</mgrwt>
</event>
<event>
 4    1  0.6122885E-004  0.2319501E+03  0.7818608E-02  0.1125275E+00
          2   -1    0    0  501    0  0.00000000000E+00  0.00000000000E+00  0.30452481853E+03  0.30452481854E+03  0.25500000000E-02 0.  1.
         -2   -1    0    0    0  501 -0.00000000000E+00 -0.00000000000E+00 -0.44167874821E+02  0.44167874894E+02  0.25500000000E-02 0. -1.
    5000001    1    1    2    0    0  0.13410192021E+02  0.55236606238E+02  0.22864576303E+03  0.24786851529E+03  0.77000000000E+02 0.  0.
   -5000001    1    1    2    0    0 -0.13410192021E+02 -0.55236606238E+02  0.31711180676E+02  0.10082417815E+03  0.77000000000E+02 0.  0.
<mgrwt>
<rscale>  0 0.23195012E+03</rscale>
<asrwt>0</asrwt>
<pdfrwt beam="1">  1        2 0.46849973E-01 0.23195012E+03</pdfrwt>
<pdfrwt beam="2">  1       -2 0.67950575E-02 0.23195012E+03</pdfrwt>
<totfact> 0.12872913E+04</totfact>
</mgrwt>
</event>
<event>
 4    1  0.6122885E-004  0.2445750E+03  0.7818608E-02  0.1116782E+00
         -2   -1    0    0    0  501 -0.00000000000E+00  0.00000000000E+00  0.13973627018E+03  0.13973627021E+03  0.25500000000E-02 0. -1.
          2   -1    0    0  501    0  0.00000000000E+00 -0.00000000000E+00 -0.10701758571E+03  0.10701758574E+03  0.25500000000E-02 0.  1.
    5000001    1    1    2    0    0 -0.20284309861E+02  0.73787233658E+02  0.73156764856E+02  0.13090806439E+03  0.77000000000E+02 0.  0.
   -5000001    1    1    2    0    0  0.20284309861E+02 -0.73787233658E+02 -0.40438080385E+02  0.11584579156E+03  0.77000000000E+02 0.  0.
<mgrwt>
<rscale>  0 0.24457505E+03</rscale>
<asrwt>0</asrwt>
<pdfrwt beam="1">  1        2 0.16464244E-01 0.24457505E+03</pdfrwt>
<pdfrwt beam="2">  1       -2 0.21497888E-01 0.24457505E+03</pdfrwt>
<totfact> 0.63737545E+03</totfact>
</mgrwt>
</event>
<event>
 4    1  0.6122885E-004  0.2169288E+03  0.7818608E-02  0.1136194E+00
         -2   -1    0    0    0  501 -0.00000000000E+00  0.00000000000E+00  0.86495645321E+01  0.86495649079E+01  0.25500000000E-02 0. -1.
          2   -1    0    0  501    0  0.00000000000E+00 -0.00000000000E+00 -0.13601297726E+04  0.13601297726E+04  0.25500000000E-02 0.  1.
    5000001    1    1    2    0    0 -0.19110094302E+02  0.70507452590E+02 -0.81669532932E+03  0.82356345080E+03  0.77000000000E+02 0.  0.
   -5000001    1    1    2    0    0  0.19110094302E+02 -0.70507452590E+02 -0.53478487878E+03  0.54521588674E+03  0.77000000000E+02 0.  0.
<mgrwt>
<rscale>  0 0.21692884E+03</rscale>
<asrwt>0</asrwt>
<pdfrwt beam="1">  1        2 0.20925057E+00 0.21692884E+03</pdfrwt>
<pdfrwt beam="2">  1       -2 0.13307033E-02 0.21692884E+03</pdfrwt>
<totfact> 0.22569174E+04</totfact>
</mgrwt>
</event>
<event>
 4    1  0.6122885E-004  0.2120145E+03  0.7818608E-02  0.1139981E+00
         -2   -1    0    0    0  501 -0.00000000000E+00  0.00000000000E+00  0.86076258599E+01  0.86076262377E+01  0.25500000000E-02 0. -1.
          2   -1    0    0  501    0  0.00000000000E+00 -0.00000000000E+00 -0.13055327596E+04  0.13055327596E+04  0.25500000000E-02 0.  1.
    5000001    1    1    2    0    0 -0.98674899357E+01 -0.28699076844E+02 -0.23789333256E+03  0.25187941965E+03  0.77000000000E+02 0.  0.
   -5000001    1    1    2    0    0  0.98674899357E+01  0.28699076844E+02 -0.10590318012E+04  0.10622609662E+04  0.77000000000E+02 0.  0.
<mgrwt>
<rscale>  0 0.21201451E+03</rscale>
<asrwt>0</asrwt>
<pdfrwt beam="1">  1        2 0.20085104E+00 0.21201451E+03</pdfrwt>
<pdfrwt beam="2">  1       -2 0.13242512E-02 0.21201451E+03</pdfrwt>
<totfact> 0.24312915E+04</totfact>
</mgrwt>
</event>
<event>
 4    1  0.6122885E-004  0.1667167E+03  0.7818608E-02  0.1181316E+00
          2   -1    0    0  501    0  0.00000000000E+00  0.00000000000E+00  0.30921147091E+04  0.30921147091E+04  0.25500000000E-02 0.  1.
         -2   -1    0    0    0  501 -0.00000000000E+00 -0.00000000000E+00 -0.22472034891E+01  0.22472049359E+01  0.25500000000E-02 0. -1.
    5000001    1    1    2    0    0 -0.14158870626E+02 -0.13566593469E+02  0.10771892439E+04  0.10801158240E+04  0.77000000000E+02 0.  0.
   -5000001    1    1    2    0    0  0.14158870626E+02  0.13566593469E+02  0.20126782618E+04  0.20142460901E+04  0.77000000000E+02 0.  0.
<mgrwt>
<rscale>  0 0.16671668E+03</rscale>
<asrwt>0</asrwt>
<pdfrwt beam="1">  1        2 0.47570836E+00 0.16671668E+03</pdfrwt>
<pdfrwt beam="2">  1       -2 0.34572488E-03 0.16671668E+03</pdfrwt>
<totfact> 0.17967833E+04</totfact>
</mgrwt>
</event>
<event>
 4    1  0.6122885E-004  0.2071252E+03  0.7818608E-02  0.1143863E+00
         -2   -1    0    0    0  501 -0.00000000000E+00  0.00000000000E+00  0.92406994721E+01  0.92406998239E+01  0.25500000000E-02 0. -1.
          2   -1    0    0  501    0  0.00000000000E+00 -0.00000000000E+00 -0.11606495482E+04  0.11606495482E+04  0.25500000000E-02 0.  1.
    5000001    1    1    2    0    0  0.39231682705E+02  0.23898321457E+02 -0.28297805357E+03  0.29684311260E+03  0.77000000000E+02 0.  0.
   -5000001    1    1    2    0    0 -0.39231682705E+02 -0.23898321457E+02 -0.86843079514E+03  0.87304713541E+03  0.77000000000E+02 0.  0.
<mgrwt>
<rscale>  0 0.20712522E+03</rscale>
<asrwt>0</asrwt>
<pdfrwt beam="1">  1        2 0.17856135E+00 0.20712522E+03</pdfrwt>
<pdfrwt beam="2">  1       -2 0.14216470E-02 0.20712522E+03</pdfrwt>
<totfact> 0.26387178E+04</totfact>
</mgrwt>
</event>
<event>
 4    1  0.6122885E-004  0.3331349E+03  0.7818608E-02  0.1069758E+00
          2   -1    0    0  501    0  0.00000000000E+00  0.00000000000E+00  0.30575145675E+04  0.30575145675E+04  0.25500000000E-02 0.  1.
         -2   -1    0    0    0  501 -0.00000000000E+00 -0.00000000000E+00 -0.90742681974E+01  0.90742685557E+01  0.25500000000E-02 0. -1.
    5000001    1    1    2    0    0  0.14552389111E+02  0.14429060289E+03  0.12664473035E+04  0.12770471106E+04  0.77000000000E+02 0.  0.
   -5000001    1    1    2    0    0 -0.14552389111E+02 -0.14429060289E+03  0.17819929958E+04  0.17895417255E+04  0.77000000000E+02 0.  0.
<mgrwt>
<rscale>  0 0.33313485E+03</rscale>
<asrwt>0</asrwt>
<pdfrwt beam="1">  1        2 0.47038650E+00 0.33313485E+03</pdfrwt>
<pdfrwt beam="2">  1       -2 0.13960423E-02 0.33313485E+03</pdfrwt>
<totfact> 0.25076629E+03</totfact>
</mgrwt>
</event>
<event>
 4    1  0.6122885E-004  0.3098414E+03  0.7818608E-02  0.1080422E+00
         -2   -1    0    0    0  501 -0.00000000000E+00  0.00000000000E+00  0.52356358597E+03  0.52356358598E+03  0.25500000000E-02 0. -1.
          2   -1    0    0  501    0  0.00000000000E+00 -0.00000000000E+00 -0.45840516345E+02  0.45840516416E+02  0.25500000000E-02 0.  1.
    5000001    1    1    2    0    0 -0.11387283929E+03 -0.66661517797E+02  0.28609662669E+03  0.32433171490E+03  0.77000000000E+02 0.  0.
   -5000001    1    1    2    0    0  0.11387283929E+03  0.66661517797E+02  0.19162644294E+03  0.24507238750E+03  0.77000000000E+02 0.  0.
<mgrwt>
<rscale>  0 0.30984141E+03</rscale>
<asrwt>0</asrwt>
<pdfrwt beam="1">  1        2 0.70523869E-02 0.30984141E+03</pdfrwt>
<pdfrwt beam="2">  1       -2 0.80548247E-01 0.30984141E+03</pdfrwt>
<totfact> 0.14072982E+03</totfact>
</mgrwt>
</event>
<event>
 4    1  0.6122885E-004  0.2124197E+03  0.7818608E-02  0.1139664E+00
          2   -1    0    0  501    0  0.00000000000E+00  0.00000000000E+00  0.66600041192E+03  0.66600041192E+03  0.25500000000E-02 0. -1.
         -2   -1    0    0    0  501 -0.00000000000E+00 -0.00000000000E+00 -0.16937726402E+02  0.16937726594E+02  0.25500000000E-02 0.  1.
    5000001    1    1    2    0    0  0.71446180161E+02 -0.11548067953E+02  0.29026161157E+03  0.30889920312E+03  0.77000000000E+02 0.  0.
   -5000001    1    1    2    0    0 -0.71446180161E+02  0.11548067953E+02  0.35880107394E+03  0.37403893540E+03  0.77000000000E+02 0.  0.
<mgrwt>
<rscale>  0 0.21241971E+03</rscale>
<asrwt>0</asrwt>
<pdfrwt beam="1">  1        2 0.10246160E+00 0.21241971E+03</pdfrwt>
<pdfrwt beam="2">  1       -2 0.26058042E-02 0.21241971E+03</pdfrwt>
<totfact> 0.22763472E+04</totfact>
</mgrwt>
</event>
<event>
 4    1  0.6122885E-004  0.2317756E+03  0.7818608E-02  0.1125396E+00
          2   -1    0    0  501    0  0.00000000000E+00  0.00000000000E+00  0.16716993720E+04  0.16716993720E+04  0.25500000000E-02 0.  1.
         -2   -1    0    0    0  501 -0.00000000000E+00 -0.00000000000E+00 -0.80337311449E+01  0.80337315496E+01  0.25500000000E-02 0. -1.
    5000001    1    1    2    0    0  0.72666233459E+02 -0.19530762844E+02  0.52103261820E+03  0.53203930438E+03  0.77000000000E+02 0.  0.
   -5000001    1    1    2    0    0 -0.72666233459E+02  0.19530762844E+02  0.11426330227E+04  0.11476937992E+04  0.77000000000E+02 0.  0.
<mgrwt>
<rscale>  0 0.23177561E+03</rscale>
<asrwt>0</asrwt>
<pdfrwt beam="1">  1        2 0.25718475E+00 0.23177561E+03</pdfrwt>
<pdfrwt beam="2">  1       -2 0.12359576E-02 0.23177561E+03</pdfrwt>
<totfact> 0.17207622E+04</totfact>
</mgrwt>
</event>
<event>
 4    1  0.6122885E-004  0.4323927E+03  0.7818608E-02  0.1033107E+00
          2   -1    0    0  501    0  0.00000000000E+00  0.00000000000E+00  0.65518480974E+03  0.65518480974E+03  0.25500000000E-02 0.  1.
         -2   -1    0    0    0  501 -0.00000000000E+00 -0.00000000000E+00 -0.71339956021E+02  0.71339956066E+02  0.25500000000E-02 0. -1.
    5000001    1    1    2    0    0 -0.16009569657E+03  0.94337171689E+02  0.15875088193E+03  0.25624397854E+03  0.77000000000E+02 0.  0.
   -5000001    1    1    2    0    0  0.16009569657E+03 -0.94337171689E+02  0.42509397179E+03  0.47028078727E+03  0.77000000000E+02 0.  0.
<mgrwt>
<rscale>  0 0.43239267E+03</rscale>
<asrwt>0</asrwt>
<pdfrwt beam="1">  1        2 0.10079767E+00 0.43239267E+03</pdfrwt>
<pdfrwt beam="2">  1       -2 0.10975377E-01 0.43239267E+03</pdfrwt>
<totfact> 0.26109994E+03</totfact>
</mgrwt>
</event>
<event>
 4    1  0.6122885E-004  0.4098857E+03  0.7818608E-02  0.1040409E+00
         -2   -1    0    0    0  501 -0.00000000000E+00  0.00000000000E+00  0.13147912085E+03  0.13147912088E+03  0.25500000000E-02 0. -1.
          2   -1    0    0  501    0  0.00000000000E+00 -0.00000000000E+00 -0.31945430118E+03  0.31945430119E+03  0.25500000000E-02 0.  1.
    5000001    1    1    2    0    0  0.14086279643E+03 -0.11601898255E+03 -0.15188737143E+03  0.24960269495E+03  0.77000000000E+02 0.  0.
   -5000001    1    1    2    0    0 -0.14086279643E+03  0.11601898255E+03 -0.36087808906E+02  0.20133072712E+03  0.77000000000E+02 0.  0.
<mgrwt>
<rscale>  0 0.40988569E+03</rscale>
<asrwt>0</asrwt>
<pdfrwt beam="1">  1        2 0.49146815E-01 0.40988569E+03</pdfrwt>
<pdfrwt beam="2">  1       -2 0.20227557E-01 0.40988569E+03</pdfrwt>
<totfact> 0.21186296E+03</totfact>
</mgrwt>
</event>
<event>
 4    1  0.6122885E-004  0.5064378E+03  0.7818608E-02  0.1012112E+00
          2   -1    0    0  501    0  0.00000000000E+00  0.00000000000E+00  0.26694604210E+04  0.26694604210E+04  0.25500000000E-02 0.  1.
         -2   -1    0    0    0  501 -0.00000000000E+00 -0.00000000000E+00 -0.24019768347E+02  0.24019768483E+02  0.25500000000E-02 0. -1.
    5000001    1    1    2    0    0  0.23563332570E+02  0.23487130548E+03  0.15871007616E+04  0.16064051756E+04  0.77000000000E+02 0.  0.
   -5000001    1    1    2    0    0 -0.23563332570E+02 -0.23487130548E+03  0.10583398910E+04  0.10870750139E+04  0.77000000000E+02 0.  0.
<mgrwt>
<rscale>  0 0.50643784E+03</rscale>
<asrwt>0</asrwt>
<pdfrwt beam="1">  1        2 0.41068612E+00 0.50643784E+03</pdfrwt>
<pdfrwt beam="2">  1       -2 0.36953499E-02 0.50643784E+03</pdfrwt>
<totfact> 0.97154080E+02</totfact>
</mgrwt>
</event>
<event>
 4    1  0.6122885E-004  0.2650471E+03  0.7818608E-02  0.1104148E+00
         -2   -1    0    0    0  501 -0.00000000000E+00  0.00000000000E+00  0.32494883798E+02  0.32494883898E+02  0.25500000000E-02 0. -1.
          2   -1    0    0  501    0  0.00000000000E+00 -0.00000000000E+00 -0.54046956290E+03  0.54046956291E+03  0.25500000000E-02 0.  1.
    5000001    1    1    2    0    0  0.72818830539E+02  0.49645345733E+02 -0.38840295099E+03  0.40565144492E+03  0.77000000000E+02 0.  0.
   -5000001    1    1    2    0    0 -0.72818830539E+02 -0.49645345733E+02 -0.11957172812E+03  0.16731300188E+03  0.77000000000E+02 0.  0.
<mgrwt>
<rscale>  0 0.26504713E+03</rscale>
<asrwt>0</asrwt>
<pdfrwt beam="1">  1        2 0.83149157E-01 0.26504713E+03</pdfrwt>
<pdfrwt beam="2">  1       -2 0.49992133E-02 0.26504713E+03</pdfrwt>
<totfact> 0.11073608E+04</totfact>
</mgrwt>
</event>
<event>
 4    1  0.6122885E-004  0.2459393E+03  0.7818608E-02  0.1115898E+00
         -2   -1    0    0    0  501 -0.00000000000E+00  0.00000000000E+00  0.30188522800E+03  0.30188522801E+03  0.25500000000E-02 0.  1.
          2   -1    0    0  501    0  0.00000000000E+00 -0.00000000000E+00 -0.50090331527E+02  0.50090331592E+02  0.25500000000E-02 0. -1.
    5000001    1    1    2    0    0 -0.84619566991E+02 -0.14924167072E+02  0.18677307343E+03  0.21953674598E+03  0.77000000000E+02 0.  0.
   -5000001    1    1    2    0    0  0.84619566991E+02  0.14924167072E+02  0.65021823048E+02  0.13243881362E+03  0.77000000000E+02 0.  0.
<mgrwt>
<rscale>  0 0.24593927E+03</rscale>
<asrwt>0</asrwt>
<pdfrwt beam="1">  1        2 0.77062049E-02 0.24593927E+03</pdfrwt>
<pdfrwt beam="2">  1       -2 0.46443881E-01 0.24593927E+03</pdfrwt>
<totfact> 0.39293057E+03</totfact>
</mgrwt>
</event>
<event>
 4    1  0.6122885E-004  0.3059331E+03  0.7818608E-02  0.1082312E+00
         -2   -1    0    0    0  501 -0.00000000000E+00  0.00000000000E+00  0.34648388796E+02  0.34648388890E+02  0.25500000000E-02 0. -1.
          2   -1    0    0  501    0  0.00000000000E+00 -0.00000000000E+00 -0.67532029803E+03  0.67532029803E+03  0.25500000000E-02 0.  1.
    5000001    1    1    2    0    0 -0.10183052057E+03 -0.76764306285E+02 -0.40097859385E+03  0.42775582563E+03  0.77000000000E+02 0.  0.
   -5000001    1    1    2    0    0  0.10183052057E+03  0.76764306285E+02 -0.23969331538E+03  0.28221286129E+03  0.77000000000E+02 0.  0.
<mgrwt>
<rscale>  0 0.30593307E+03</rscale>
<asrwt>0</asrwt>
<pdfrwt beam="1">  1        2 0.10389542E+00 0.30593307E+03</pdfrwt>
<pdfrwt beam="2">  1       -2 0.53305219E-02 0.30593307E+03</pdfrwt>
<totfact> 0.77825569E+03</totfact>
</mgrwt>
</event>
<event>
 4    1  0.6122885E-004  0.2869415E+03  0.7818608E-02  0.1091957E+00
          2   -1    0    0  501    0  0.00000000000E+00  0.00000000000E+00  0.47984380985E+03  0.47984380986E+03  0.25500000000E-02 0.  1.
         -2   -1    0    0    0  501 -0.00000000000E+00 -0.00000000000E+00 -0.42896980834E+02  0.42896980909E+02  0.25500000000E-02 0. -1.
    5000001    1    1    2    0    0 -0.81762830881E+00 -0.11515084231E+03  0.15044395722E+03  0.20450615948E+03  0.77000000000E+02 0.  0.
   -5000001    1    1    2    0    0  0.81762830881E+00  0.11515084231E+03  0.28650287180E+03  0.31823463129E+03  0.77000000000E+02 0.  0.
<mgrwt>
<rscale>  0 0.28694146E+03</rscale>
<asrwt>0</asrwt>
<pdfrwt beam="1">  1        2 0.73822124E-01 0.28694146E+03</pdfrwt>
<pdfrwt beam="2">  1       -2 0.65995356E-02 0.28694146E+03</pdfrwt>
<totfact> 0.82977002E+03</totfact>
</mgrwt>
</event>
<event>
 4    1  0.6122885E-004  0.4252893E+03  0.7818608E-02  0.1035358E+00
          2   -1    0    0  501    0  0.00000000000E+00  0.00000000000E+00  0.78712520212E+02  0.78712520254E+02  0.25500000000E-02 0. -1.
         -2   -1    0    0    0  501 -0.00000000000E+00 -0.00000000000E+00 -0.57446706250E+03  0.57446706251E+03  0.25500000000E-02 0.  1.
    5000001    1    1    2    0    0 -0.10039138014E+03  0.13565672595E+03 -0.40754319354E+03  0.44777408490E+03  0.77000000000E+02 0.  0.
   -5000001    1    1    2    0    0  0.10039138014E+03 -0.13565672595E+03 -0.88211348744E+02  0.20540549786E+03  0.77000000000E+02 0.  0.
<mgrwt>
<rscale>  0 0.42528931E+03</rscale>
<asrwt>0</asrwt>
<pdfrwt beam="1">  1        2 0.12109619E-01 0.42528931E+03</pdfrwt>
<pdfrwt beam="2">  1       -2 0.88379545E-01 0.42528931E+03</pdfrwt>
<totfact> 0.57915644E+02</totfact>
</mgrwt>
</event>
<event>
 4    1  0.6122885E-004  0.2231698E+03  0.7818608E-02  0.1131542E+00
         -2   -1    0    0    0  501 -0.00000000000E+00  0.00000000000E+00  0.62832838189E+02  0.62832838241E+02  0.25500000000E-02 0. -1.
          2   -1    0    0  501    0  0.00000000000E+00 -0.00000000000E+00 -0.19816368348E+03  0.19816368350E+03  0.25500000000E-02 0.  1.
    5000001    1    1    2    0    0 -0.45292316511E+02  0.72211401462E+01  0.10074490021E+02  0.90188880407E+02  0.77000000000E+02 0.  0.
   -5000001    1    1    2    0    0  0.45292316511E+02 -0.72211401462E+01 -0.14540533531E+03  0.17080764133E+03  0.77000000000E+02 0.  0.
<mgrwt>
<rscale>  0 0.22316977E+03</rscale>
<asrwt>0</asrwt>
<pdfrwt beam="1">  1        2 0.30486720E-01 0.22316977E+03</pdfrwt>
<pdfrwt beam="2">  1       -2 0.96665906E-02 0.22316977E+03</pdfrwt>
<totfact> 0.11782692E+04</totfact>
</mgrwt>
</event>
<event>
 4    1  0.6122885E-004  0.1936766E+03  0.7818608E-02  0.1155186E+00
          2   -1    0    0  501    0  0.00000000000E+00  0.00000000000E+00  0.18920825682E+04  0.18920825682E+04  0.25500000000E-02 0.  1.
         -2   -1    0    0    0  501 -0.00000000000E+00 -0.00000000000E+00 -0.49562597875E+01  0.49562604435E+01  0.25500000000E-02 0. -1.
    5000001    1    1    2    0    0 -0.49503227210E+02 -0.44562592917E+01  0.12499136962E+04  0.12532691953E+04  0.77000000000E+02 0.  0.
   -5000001    1    1    2    0    0  0.49503227210E+02  0.44562592917E+01  0.63721261216E+03  0.64376963337E+03  0.77000000000E+02 0.  0.
<mgrwt>
<rscale>  0 0.19367657E+03</rscale>
<asrwt>0</asrwt>
<pdfrwt beam="1">  1        2 0.29108935E+00 0.19367657E+03</pdfrwt>
<pdfrwt beam="2">  1       -2 0.76250228E-03 0.19367657E+03</pdfrwt>
<totfact> 0.26339050E+04</totfact>
</mgrwt>
</event>
<event>
 4    1  0.6122885E-004  0.1874419E+03  0.7818608E-02  0.1160789E+00
         -2   -1    0    0    0  501 -0.00000000000E+00  0.00000000000E+00  0.74558240769E+02  0.74558240812E+02  0.25500000000E-02 0. -1.
          2   -1    0    0  501    0  0.00000000000E+00 -0.00000000000E+00 -0.11780875794E+03  0.11780875797E+03  0.25500000000E-02 0.  1.
    5000001    1    1    2    0    0 -0.37878002157E+02 -0.35095937318E+02 -0.75482194543E+01  0.93018511494E+02  0.77000000000E+02 0.  0.
   -5000001    1    1    2    0    0  0.37878002157E+02  0.35095937318E+02 -0.35702297717E+02  0.99348487285E+02  0.77000000000E+02 0.  0.
<mgrwt>
<rscale>  0 0.18744187E+03</rscale>
<asrwt>0</asrwt>
<pdfrwt beam="1">  1        2 0.18124424E-01 0.18744187E+03</pdfrwt>
<pdfrwt beam="2">  1       -2 0.11470499E-01 0.18744187E+03</pdfrwt>
<totfact> 0.15884032E+04</totfact>
</mgrwt>
</event>
<event>
 4    1  0.6122885E-004  0.3158912E+03  0.7818608E-02  0.1077556E+00
          2   -1    0    0  501    0  0.00000000000E+00  0.00000000000E+00  0.16028373183E+04  0.16028373183E+04  0.25500000000E-02 0. -1.
         -2   -1    0    0    0  501 -0.00000000000E+00 -0.00000000000E+00 -0.15564156746E+02  0.15564156955E+02  0.25500000000E-02 0.  1.
    5000001    1    1    2    0    0 -0.10464206009E+03  0.88443844992E+02  0.87391655002E+03  0.88793660294E+03  0.77000000000E+02 0.  0.
   -5000001    1    1    2    0    0  0.10464206009E+03 -0.88443844992E+02  0.71335661151E+03  0.73046487228E+03  0.77000000000E+02 0.  0.
<mgrwt>
<rscale>  0 0.31589119E+03</rscale>
<asrwt>0</asrwt>
<pdfrwt beam="1">  1        2 0.24659032E+00 0.31589119E+03</pdfrwt>
<pdfrwt beam="2">  1       -2 0.23944861E-02 0.31589119E+03</pdfrwt>
<totfact> 0.71381326E+03</totfact>
</mgrwt>
</event>
<event>
 4    1  0.6122885E-004  0.2734487E+03  0.7818608E-02  0.1099322E+00
          2   -1    0    0  501    0  0.00000000000E+00  0.00000000000E+00  0.41978230774E+03  0.41978230775E+03  0.25500000000E-02 0.  1.
         -2   -1    0    0    0  501 -0.00000000000E+00 -0.00000000000E+00 -0.44531512556E+02  0.44531512629E+02  0.25500000000E-02 0. -1.
    5000001    1    1    2    0    0  0.52885455962E+02  0.23666177310E+02  0.22932516872E+02  0.99054831941E+02  0.77000000000E+02 0.  0.
   -5000001    1    1    2    0    0 -0.52885455962E+02 -0.23666177310E+02  0.35231827831E+03  0.36525898844E+03  0.77000000000E+02 0.  0.
<mgrwt>
<rscale>  0 0.27344865E+03</rscale>
<asrwt>0</asrwt>
<pdfrwt beam="1">  1        2 0.64581896E-01 0.27344865E+03</pdfrwt>
<pdfrwt beam="2">  1       -2 0.68510017E-02 0.27344865E+03</pdfrwt>
<totfact> 0.90591159E+03</totfact>
</mgrwt>
</event>
<event>
 4    1  0.6122885E-004  0.2388080E+03  0.7818608E-02  0.1120589E+00
         -2   -1    0    0    0  501 -0.00000000000E+00  0.00000000000E+00  0.14507509813E+02  0.14507510037E+02  0.25500000000E-02 0. -1.
          2   -1    0    0  501    0  0.00000000000E+00 -0.00000000000E+00 -0.98275442254E+03  0.98275442254E+03  0.25500000000E-02 0.  1.
    5000001    1    1    2    0    0 -0.83028021480E+02  0.22321402003E+02 -0.61191324610E+03  0.62270275260E+03  0.77000000000E+02 0.  0.
   -5000001    1    1    2    0    0  0.83028021480E+02 -0.22321402003E+02 -0.35633366662E+03  0.37455917998E+03  0.77000000000E+02 0.  0.
<mgrwt>
<rscale>  0 0.23880804E+03</rscale>
<asrwt>0</asrwt>
<pdfrwt beam="1">  1        2 0.15119294E+00 0.23880804E+03</pdfrwt>
<pdfrwt beam="2">  1       -2 0.22319254E-02 0.23880804E+03</pdfrwt>
<totfact> 0.17515534E+04</totfact>
</mgrwt>
</event>
<event>
 4    1  0.6122885E-004  0.1893656E+03  0.7818608E-02  0.1159035E+00
         -2   -1    0    0    0  501 -0.00000000000E+00  0.00000000000E+00  0.80838293936E+02  0.80838293976E+02  0.25500000000E-02 0. -1.
          2   -1    0    0  501    0  0.00000000000E+00 -0.00000000000E+00 -0.11089839436E+03  0.11089839439E+03  0.25500000000E-02 0.  1.
    5000001    1    1    2    0    0 -0.43478073810E+02  0.45926815108E+00 -0.49295818057E+02  0.10124046379E+03  0.77000000000E+02 0.  0.
   -5000001    1    1    2    0    0  0.43478073810E+02 -0.45926815108E+00  0.19235717637E+02  0.90496224576E+02  0.77000000000E+02 0.  0.
<mgrwt>
<rscale>  0 0.18936565E+03</rscale>
<asrwt>0</asrwt>
<pdfrwt beam="1">  1        2 0.17061291E-01 0.18936565E+03</pdfrwt>
<pdfrwt beam="2">  1       -2 0.12436661E-01 0.18936565E+03</pdfrwt>
<totfact> 0.14972103E+04</totfact>
</mgrwt>
</event>
<event>
 4    1  0.6122885E-004  0.3785951E+03  0.7818608E-02  0.1051454E+00
         -2   -1    0    0    0  501 -0.00000000000E+00  0.00000000000E+00  0.53016865117E+02  0.53016865178E+02  0.25500000000E-02 0. -1.
          2   -1    0    0  501    0  0.00000000000E+00 -0.00000000000E+00 -0.67588972441E+03  0.67588972441E+03  0.25500000000E-02 0.  1.
    5000001    1    1    2    0    0  0.45698693696E+02 -0.54476180253E+02 -0.79444046154E+01  0.10511012504E+03  0.77000000000E+02 0.  0.
   -5000001    1    1    2    0    0 -0.45698693696E+02  0.54476180253E+02 -0.61492845468E+03  0.62379646456E+03  0.77000000000E+02 0.  0.
<mgrwt>
<rscale>  0 0.37859506E+03</rscale>
<asrwt>0</asrwt>
<pdfrwt beam="1">  1        2 0.10398303E+00 0.37859506E+03</pdfrwt>
<pdfrwt beam="2">  1       -2 0.81564413E-02 0.37859506E+03</pdfrwt>
<totfact> 0.40354431E+03</totfact>
</mgrwt>
</event>
<event>
 4    1  0.6122885E-004  0.1124961E+04  0.7818608E-02  0.9181199E-01
         -2   -1    0    0    0  501 -0.00000000000E+00  0.00000000000E+00  0.57383906165E+03  0.57383906166E+03  0.25500000000E-02 0. -1.
          2   -1    0    0  501    0  0.00000000000E+00 -0.00000000000E+00 -0.55134700315E+03  0.55134700316E+03  0.25500000000E-02 0.  1.
    5000001    1    1    2    0    0  0.51425676449E+03 -0.77622688516E+02 -0.18871927580E+03  0.55859579899E+03  0.77000000000E+02 0.  0.
   -5000001    1    1    2    0    0 -0.51425676449E+03  0.77622688516E+02  0.21121133430E+03  0.56659026583E+03  0.77000000000E+02 0.  0.
<mgrwt>
<rscale>  0 0.11249612E+04</rscale>
<asrwt>0</asrwt>
<pdfrwt beam="1">  1        2 0.84822616E-01 0.11249612E+04</pdfrwt>
<pdfrwt beam="2">  1       -2 0.88282933E-01 0.11249612E+04</pdfrwt>
<totfact> 0.60151379E+01</totfact>
</mgrwt>
</event>
<event>
 4    1  0.6122885E-004  0.2935065E+03  0.7818608E-02  0.1088532E+00
         -2   -1    0    0    0  501 -0.00000000000E+00  0.00000000000E+00  0.40864801879E+02  0.40864801959E+02  0.25500000000E-02 0. -1.
          2   -1    0    0  501    0  0.00000000000E+00 -0.00000000000E+00 -0.52701890958E+03  0.52701890958E+03  0.25500000000E-02 0.  1.
    5000001    1    1    2    0    0  0.11394324699E+03 -0.47879009613E+02 -0.27833443634E+03  0.31412500942E+03  0.77000000000E+02 0.  0.
   -5000001    1    1    2    0    0 -0.11394324699E+03  0.47879009613E+02 -0.20781967136E+03  0.25375870212E+03  0.77000000000E+02 0.  0.
<mgrwt>
<rscale>  0 0.29350655E+03</rscale>
<asrwt>0</asrwt>
<pdfrwt beam="1">  1        2 0.81079828E-01 0.29350655E+03</pdfrwt>
<pdfrwt beam="2">  1       -2 0.62868930E-02 0.29350655E+03</pdfrwt>
<totfact> 0.80554665E+03</totfact>
</mgrwt>
</event>
<event>
 4    1  0.6122885E-004  0.5395281E+03  0.7818608E-02  0.1003947E+00
          2   -1    0    0  501    0  0.00000000000E+00  0.00000000000E+00  0.28344456137E+03  0.28344456138E+03  0.25500000000E-02 0.  1.
         -2   -1    0    0    0  501 -0.00000000000E+00 -0.00000000000E+00 -0.25674379687E+03  0.25674379688E+03  0.25500000000E-02 0. -1.
    5000001    1    1    2    0    0  0.83101513647E+02 -0.23794628378E+03  0.71034582751E+02  0.27294542949E+03  0.77000000000E+02 0.  0.
   -5000001    1    1    2    0    0 -0.83101513647E+02  0.23794628378E+03 -0.44333818251E+02  0.26724292876E+03  0.77000000000E+02 0.  0.
<mgrwt>
<rscale>  0 0.53952806E+03</rscale>
<asrwt>0</asrwt>
<pdfrwt beam="1">  1        2 0.43606855E-01 0.53952806E+03</pdfrwt>
<pdfrwt beam="2">  1       -2 0.39499046E-01 0.53952806E+03</pdfrwt>
<totfact> 0.71293296E+02</totfact>
</mgrwt>
</event>
<event>
 4    1  0.6122885E-004  0.1906619E+03  0.7818608E-02  0.1157866E+00
         -2   -1    0    0    0  501 -0.00000000000E+00  0.00000000000E+00  0.10171517067E+03  0.10171517070E+03  0.25500000000E-02 0. -1.
          2   -1    0    0  501    0  0.00000000000E+00 -0.00000000000E+00 -0.89347475212E+02  0.89347475248E+02  0.25500000000E-02 0.  1.
    5000001    1    1    2    0    0 -0.40413716741E+02  0.14653958990E+02  0.42467493917E+02  0.97880003343E+02  0.77000000000E+02 0.  0.
   -5000001    1    1    2    0    0  0.40413716741E+02 -0.14653958990E+02 -0.30099798463E+02  0.93182642603E+02  0.77000000000E+02 0.  0.
<mgrwt>
<rscale>  0 0.19066194E+03</rscale>
<asrwt>0</asrwt>
<pdfrwt beam="1">  1        2 0.13745766E-01 0.19066194E+03</pdfrwt>
<pdfrwt beam="2">  1       -2 0.15648488E-01 0.19066194E+03</pdfrwt>
<totfact> 0.13277664E+04</totfact>
</mgrwt>
</event>
<event>
 4    1  0.6122885E-004  0.3902128E+03  0.7818608E-02  0.1047222E+00
          2   -1    0    0  501    0  0.00000000000E+00  0.00000000000E+00  0.48301482708E+03  0.48301482708E+03  0.25500000000E-02 0.  1.
         -2   -1    0    0    0  501 -0.00000000000E+00 -0.00000000000E+00 -0.78810231737E+02  0.78810231778E+02  0.25500000000E-02 0. -1.
    5000001    1    1    2    0    0 -0.12756443334E+02 -0.15767437120E+03  0.32353721274E+03  0.36827878327E+03  0.77000000000E+02 0.  0.
   -5000001    1    1    2    0    0  0.12756443334E+02  0.15767437120E+03  0.80667382598E+02  0.19354627559E+03  0.77000000000E+02 0.  0.
<mgrwt>
<rscale>  0 0.39021282E+03</rscale>
<asrwt>0</asrwt>
<pdfrwt beam="1">  1        2 0.74309972E-01 0.39021282E+03</pdfrwt>
<pdfrwt beam="2">  1       -2 0.12124651E-01 0.39021282E+03</pdfrwt>
<totfact> 0.31644515E+03</totfact>
</mgrwt>
</event>
<event>
 4    1  0.6122885E-004  0.2304166E+03  0.7818608E-02  0.1126347E+00
          2   -1    0    0  501    0  0.00000000000E+00  0.00000000000E+00  0.36327145322E+03  0.36327145323E+03  0.25500000000E-02 0.  1.
         -2   -1    0    0    0  501 -0.00000000000E+00 -0.00000000000E+00 -0.36537274482E+02  0.36537274571E+02  0.25500000000E-02 0. -1.
    5000001    1    1    2    0    0  0.25184746782E+02 -0.68930747526E+02  0.86583157464E+02  0.13715452082E+03  0.77000000000E+02 0.  0.
   -5000001    1    1    2    0    0 -0.25184746782E+02  0.68930747526E+02  0.24015102127E+03  0.26265420698E+03  0.77000000000E+02 0.  0.
<mgrwt>
<rscale>  0 0.23041657E+03</rscale>
<asrwt>0</asrwt>
<pdfrwt beam="1">  1        2 0.55887917E-01 0.23041657E+03</pdfrwt>
<pdfrwt beam="2">  1       -2 0.56211191E-02 0.23041657E+03</pdfrwt>
<totfact> 0.14239500E+04</totfact>
</mgrwt>
</event>
<event>
 4    1  0.6122885E-004  0.3757925E+03  0.7818608E-02  0.1052500E+00
         -2   -1    0    0    0  501 -0.00000000000E+00  0.00000000000E+00  0.14112894711E+02  0.14112894942E+02  0.25500000000E-02 0. -1.
          2   -1    0    0  501    0  0.00000000000E+00 -0.00000000000E+00 -0.25016127712E+04  0.25016127712E+04  0.25500000000E-02 0.  1.
    5000001    1    1    2    0    0  0.78999143127E+02 -0.14126380304E+03 -0.16212406771E+04  0.16311182238E+04  0.77000000000E+02 0.  0.
   -5000001    1    1    2    0    0 -0.78999143127E+02  0.14126380304E+03 -0.86625919936E+03  0.88460744240E+03  0.77000000000E+02 0.  0.
<mgrwt>
<rscale>  0 0.37579248E+03</rscale>
<asrwt>0</asrwt>
<pdfrwt beam="1">  1        2 0.38486315E+00 0.37579248E+03</pdfrwt>
<pdfrwt beam="2">  1       -2 0.21712166E-02 0.37579248E+03</pdfrwt>
<totfact> 0.27205805E+03</totfact>
</mgrwt>
</event>
<event>
 4    1  0.6122885E-004  0.3665192E+03  0.7818608E-02  0.1056032E+00
         -2   -1    0    0    0  501 -0.00000000000E+00  0.00000000000E+00  0.38022036489E+03  0.38022036490E+03  0.25500000000E-02 0. -1.
          2   -1    0    0  501    0  0.00000000000E+00 -0.00000000000E+00 -0.88327915798E+02  0.88327915835E+02  0.25500000000E-02 0.  1.
    5000001    1    1    2    0    0  0.13913216654E+03  0.91076656426E+02  0.14790813109E+03  0.23549635316E+03  0.77000000000E+02 0.  0.
   -5000001    1    1    2    0    0 -0.13913216654E+03 -0.91076656426E+02  0.14398431801E+03  0.23305192757E+03  0.77000000000E+02 0.  0.
<mgrwt>
<rscale>  0 0.36651915E+03</rscale>
<asrwt>0</asrwt>
<pdfrwt beam="1">  1        2 0.13588910E-01 0.36651915E+03</pdfrwt>
<pdfrwt beam="2">  1       -2 0.58495441E-01 0.36651915E+03</pdfrwt>
<totfact> 0.12313212E+03</totfact>
</mgrwt>
</event>
<event>
 4    1  0.6122885E-004  0.2608543E+03  0.7818608E-02  0.1106631E+00
          2   -1    0    0  501    0  0.00000000000E+00  0.00000000000E+00  0.23942916599E+04  0.23942916599E+04  0.25500000000E-02 0. -1.
         -2   -1    0    0    0  501 -0.00000000000E+00 -0.00000000000E+00 -0.71049175507E+01  0.71049180083E+01  0.25500000000E-02 0.  1.
    5000001    1    1    2    0    0  0.53860507533E+02  0.86713051981E+02  0.14304797042E+04  0.14361828894E+04  0.77000000000E+02 0.  0.
   -5000001    1    1    2    0    0 -0.53860507533E+02 -0.86713051981E+02  0.95670703807E+03  0.96521368844E+03  0.77000000000E+02 0.  0.
<mgrwt>
<rscale>  0 0.26085433E+03</rscale>
<asrwt>0</asrwt>
<pdfrwt beam="1">  1        2 0.36835253E+00 0.26085433E+03</pdfrwt>
<pdfrwt beam="2">  1       -2 0.10930644E-02 0.26085433E+03</pdfrwt>
<totfact> 0.85755120E+03</totfact>
</mgrwt>
</event>
<event>
 4    1  0.6122885E-004  0.3970159E+03  0.7818608E-02  0.1044818E+00
         -2   -1    0    0    0  501 -0.00000000000E+00  0.00000000000E+00  0.18827231672E+02  0.18827231845E+02  0.25500000000E-02 0. -1.
          2   -1    0    0  501    0  0.00000000000E+00 -0.00000000000E+00 -0.20930002628E+04  0.20930002628E+04  0.25500000000E-02 0.  1.
    5000001    1    1    2    0    0  0.32282606442E+02 -0.17199571112E+03 -0.13211420300E+04  0.13349044740E+04  0.77000000000E+02 0.  0.
   -5000001    1    1    2    0    0 -0.32282606442E+02  0.17199571112E+03 -0.75303100108E+03  0.77692302058E+03  0.77000000000E+02 0.  0.
<mgrwt>
<rscale>  0 0.39701587E+03</rscale>
<asrwt>0</asrwt>
<pdfrwt beam="1">  1        2 0.32199986E+00 0.39701587E+03</pdfrwt>
<pdfrwt beam="2">  1       -2 0.28964988E-02 0.39701587E+03</pdfrwt>
<totfact> 0.29452790E+03</totfact>
</mgrwt>
</event>
<event>
 4    1  0.6122885E-004  0.2150709E+03  0.7818608E-02  0.1137612E+00
         -2   -1    0    0    0  501 -0.00000000000E+00  0.00000000000E+00  0.16542713982E+02  0.16542714179E+02  0.25500000000E-02 0. -1.
          2   -1    0    0  501    0  0.00000000000E+00 -0.00000000000E+00 -0.69903107162E+03  0.69903107163E+03  0.25500000000E-02 0.  1.
    5000001    1    1    2    0    0 -0.11129489457E+02  0.71523791031E+02 -0.27508878051E+03  0.29469027025E+03  0.77000000000E+02 0.  0.
   -5000001    1    1    2    0    0  0.11129489457E+02 -0.71523791031E+02 -0.40739957713E+03  0.42088351556E+03  0.77000000000E+02 0.  0.
<mgrwt>
<rscale>  0 0.21507088E+03</rscale>
<asrwt>0</asrwt>
<pdfrwt beam="1">  1        2 0.10754322E+00 0.21507088E+03</pdfrwt>
<pdfrwt beam="2">  1       -2 0.25450335E-02 0.21507088E+03</pdfrwt>
<totfact> 0.22262087E+04</totfact>
</mgrwt>
</event>
<event>
 4    1  0.6122885E-004  0.2776641E+03  0.7818608E-02  0.1096972E+00
          2   -1    0    0  501    0  0.00000000000E+00  0.00000000000E+00  0.24174567585E+04  0.24174567585E+04  0.25500000000E-02 0.  1.
         -2   -1    0    0    0  501 -0.00000000000E+00 -0.00000000000E+00 -0.79729795227E+01  0.79729799305E+01  0.25500000000E-02 0. -1.
    5000001    1    1    2    0    0 -0.81129629910E+02 -0.81444383091E+02  0.11050966323E+04  0.11137247286E+04  0.77000000000E+02 0.  0.
   -5000001    1    1    2    0    0  0.81129629910E+02  0.81444383091E+02  0.13043871466E+04  0.13117050098E+04  0.77000000000E+02 0.  0.
<mgrwt>
<rscale>  0 0.27766407E+03</rscale>
<asrwt>0</asrwt>
<pdfrwt beam="1">  1        2 0.37191641E+00 0.27766407E+03</pdfrwt>
<pdfrwt beam="2">  1       -2 0.12266123E-02 0.27766407E+03</pdfrwt>
<totfact> 0.70444820E+03</totfact>
</mgrwt>
</event>
<event>
 4    1  0.6122885E-004  0.3239028E+03  0.7818608E-02  0.1073867E+00
         -2   -1    0    0    0  501 -0.00000000000E+00  0.00000000000E+00  0.85738748791E+02  0.85738748829E+02  0.25500000000E-02 0. -1.
          2   -1    0    0  501    0  0.00000000000E+00 -0.00000000000E+00 -0.30590893857E+03  0.30590893859E+03  0.25500000000E-02 0.  1.
    5000001    1    1    2    0    0 -0.12657805223E+03  0.51074581380E+02 -0.15947763859E+03  0.22359054850E+03  0.77000000000E+02 0.  0.
   -5000001    1    1    2    0    0  0.12657805223E+03 -0.51074581380E+02 -0.60692551199E+02  0.16805713892E+03  0.77000000000E+02 0.  0.
<mgrwt>
<rscale>  0 0.32390276E+03</rscale>
<asrwt>0</asrwt>
<pdfrwt beam="1">  1        2 0.47062913E-01 0.32390276E+03</pdfrwt>
<pdfrwt beam="2">  1       -2 0.13190577E-01 0.32390276E+03</pdfrwt>
<totfact> 0.45364330E+03</totfact>
</mgrwt>
</event>
<event>
 4    1  0.6122885E-004  0.2403265E+03  0.7818608E-02  0.1119576E+00
          2   -1    0    0  501    0  0.00000000000E+00  0.00000000000E+00  0.64466492090E+03  0.64466492091E+03  0.25500000000E-02 0.  1.
         -2   -1    0    0    0  501 -0.00000000000E+00 -0.00000000000E+00 -0.22397998818E+02  0.22397998963E+02  0.25500000000E-02 0. -1.
    5000001    1    1    2    0    0  0.46308103912E+02 -0.75693462657E+02  0.38114726105E+03  0.39884354750E+03  0.77000000000E+02 0.  0.
   -5000001    1    1    2    0    0 -0.46308103912E+02  0.75693462657E+02  0.24111966103E+03  0.26821937237E+03  0.77000000000E+02 0.  0.
<mgrwt>
<rscale>  0 0.24032648E+03</rscale>
<asrwt>0</asrwt>
<pdfrwt beam="1">  1        2 0.99179227E-01 0.24032648E+03</pdfrwt>
<pdfrwt beam="2">  1       -2 0.34458457E-02 0.24032648E+03</pdfrwt>
<totfact> 0.15742935E+04</totfact>
</mgrwt>
</event>
<event>
 4    1  0.6122885E-004  0.4936830E+03  0.7818608E-02  0.1015441E+00
          2   -1    0    0  501    0  0.00000000000E+00  0.00000000000E+00  0.38684422086E+03  0.38684422087E+03  0.25500000000E-02 0.  1.
         -2   -1    0    0    0  501 -0.00000000000E+00 -0.00000000000E+00 -0.15750712897E+03  0.15750712899E+03  0.25500000000E-02 0. -1.
    5000001    1    1    2    0    0 -0.95770433804E+02  0.19564257821E+03  0.21050082601E+03  0.31255014342E+03  0.77000000000E+02 0.  0.
   -5000001    1    1    2    0    0  0.95770433804E+02 -0.19564257821E+03  0.18836265874E+02  0.23180120645E+03  0.77000000000E+02 0.  0.
<mgrwt>
<rscale>  0 0.49368299E+03</rscale>
<asrwt>0</asrwt>
<pdfrwt beam="1">  1        2 0.59514495E-01 0.49368299E+03</pdfrwt>
<pdfrwt beam="2">  1       -2 0.24231866E-01 0.49368299E+03</pdfrwt>
<totfact> 0.12516807E+03</totfact>
</mgrwt>
</event>
<event>
 4    1  0.6122885E-004  0.3929558E+03  0.7818608E-02  0.1046246E+00
          2   -1    0    0  501    0  0.00000000000E+00  0.00000000000E+00  0.13756982555E+04  0.13756982555E+04  0.25500000000E-02 0.  1.
         -2   -1    0    0    0  501 -0.00000000000E+00 -0.00000000000E+00 -0.28061075504E+02  0.28061075620E+02  0.25500000000E-02 0. -1.
    5000001    1    1    2    0    0  0.12327807176E+02  0.16867799973E+03  0.90172877612E+03  0.92067802630E+03  0.77000000000E+02 0.  0.
   -5000001    1    1    2    0    0 -0.12327807176E+02 -0.16867799973E+03  0.44590840386E+03  0.48308130481E+03  0.77000000000E+02 0.  0.
<mgrwt>
<rscale>  0 0.39295584E+03</rscale>
<asrwt>0</asrwt>
<pdfrwt beam="1">  1        2 0.21164588E+00 0.39295584E+03</pdfrwt>
<pdfrwt beam="2">  1       -2 0.43170886E-02 0.39295584E+03</pdfrwt>
<totfact> 0.39113071E+03</totfact>
</mgrwt>
</event>
<event>
 4    1  0.6122885E-004  0.2032697E+03  0.7818608E-02  0.1147009E+00
          2   -1    0    0  501    0  0.00000000000E+00  0.00000000000E+00  0.16893989849E+03  0.16893989851E+03  0.25500000000E-02 0.  1.
         -2   -1    0    0    0  501 -0.00000000000E+00 -0.00000000000E+00 -0.61143896368E+02  0.61143896421E+02  0.25500000000E-02 0. -1.
    5000001    1    1    2    0    0 -0.53515387030E+02 -0.38013693809E+02  0.43058421172E+02  0.10996347212E+03  0.77000000000E+02 0.  0.
   -5000001    1    1    2    0    0  0.53515387030E+02  0.38013693809E+02  0.64737580950E+02  0.12012032282E+03  0.77000000000E+02 0.  0.
<mgrwt>
<rscale>  0 0.20326971E+03</rscale>
<asrwt>0</asrwt>
<pdfrwt beam="1">  1        2 0.25990753E-01 0.20326971E+03</pdfrwt>
<pdfrwt beam="2">  1       -2 0.94067534E-02 0.20326971E+03</pdfrwt>
<totfact> 0.14571002E+04</totfact>
</mgrwt>
</event>
<event>
 4    1  0.6122885E-004  0.2704926E+03  0.7818608E-02  0.1100998E+00
          2   -1    0    0  501    0  0.00000000000E+00  0.00000000000E+00  0.16648121745E+04  0.16648121745E+04  0.25500000000E-02 0.  1.
         -2   -1    0    0    0  501 -0.00000000000E+00 -0.00000000000E+00 -0.10987160634E+02  0.10987160930E+02  0.25500000000E-02 0. -1.
    5000001    1    1    2    0    0 -0.37113382698E+02 -0.86492516019E+02  0.46017009876E+03  0.47596625752E+03  0.77000000000E+02 0.  0.
   -5000001    1    1    2    0    0  0.37113382698E+02  0.86492516019E+02  0.11936549151E+04  0.11998330779E+04  0.77000000000E+02 0.  0.
<mgrwt>
<rscale>  0 0.27049258E+03</rscale>
<asrwt>0</asrwt>
<pdfrwt beam="1">  1        2 0.25612481E+00 0.27049258E+03</pdfrwt>
<pdfrwt beam="2">  1       -2 0.16903333E-02 0.27049258E+03</pdfrwt>
<totfact> 0.11036401E+04</totfact>
</mgrwt>
</event>
<event>
 4    1  0.6122885E-004  0.2932452E+03  0.7818608E-02  0.1088667E+00
         -2   -1    0    0    0  501 -0.00000000000E+00  0.00000000000E+00  0.14619390791E+03  0.14619390793E+03  0.25500000000E-02 0. -1.
          2   -1    0    0  501    0  0.00000000000E+00 -0.00000000000E+00 -0.14705251122E+03  0.14705251124E+03  0.25500000000E-02 0.  1.
    5000001    1    1    2    0    0  0.83808833720E+02 -0.77780215472E+02 -0.50384483114E+02  0.14676947458E+03  0.77000000000E+02 0.  0.
   -5000001    1    1    2    0    0 -0.83808833720E+02  0.77780215472E+02  0.49525879806E+02  0.14647694460E+03  0.77000000000E+02 0.  0.
<mgrwt>
<rscale>  0 0.29324516E+03</rscale>
<asrwt>0</asrwt>
<pdfrwt beam="1">  1        2 0.22623463E-01 0.29324516E+03</pdfrwt>
<pdfrwt beam="2">  1       -2 0.22491370E-01 0.29324516E+03</pdfrwt>
<totfact> 0.41166923E+03</totfact>
</mgrwt>
</event>
<event>
 4    1  0.6122885E-004  0.2772892E+03  0.7818608E-02  0.1097179E+00
         -2   -1    0    0    0  501 -0.00000000000E+00  0.00000000000E+00  0.39346108956E+02  0.39346109038E+02  0.25500000000E-02 0. -1.
          2   -1    0    0  501    0  0.00000000000E+00 -0.00000000000E+00 -0.48854435847E+03  0.48854435847E+03  0.25500000000E-02 0.  1.
    5000001    1    1    2    0    0  0.96086039640E+02  0.27322353610E+02 -0.11500036801E+03  0.17068427772E+03  0.77000000000E+02 0.  0.
   -5000001    1    1    2    0    0 -0.96086039640E+02 -0.27322353610E+02 -0.33419788150E+03  0.35720618979E+03  0.77000000000E+02 0.  0.
<mgrwt>
<rscale>  0 0.27728916E+03</rscale>
<asrwt>0</asrwt>
<pdfrwt beam="1">  1        2 0.75160666E-01 0.27728916E+03</pdfrwt>
<pdfrwt beam="2">  1       -2 0.60532479E-02 0.27728916E+03</pdfrwt>
<totfact> 0.92795710E+03</totfact>
</mgrwt>
</event>
<event>
 4    1  0.6122885E-004  0.2947331E+03  0.7818608E-02  0.1087904E+00
          2   -1    0    0  501    0  0.00000000000E+00  0.00000000000E+00  0.83628832977E+03  0.83628832978E+03  0.25500000000E-02 0.  1.
         -2   -1    0    0    0  501 -0.00000000000E+00 -0.00000000000E+00 -0.25968194475E+02  0.25968194600E+02  0.25500000000E-02 0. -1.
    5000001    1    1    2    0    0  0.11293363411E+02 -0.19090848118E+02  0.43337976165E+02  0.91099839281E+02  0.77000000000E+02 0.  0.
   -5000001    1    1    2    0    0 -0.11293363411E+02  0.19090848118E+02  0.76698215913E+03  0.77115668509E+03  0.77000000000E+02 0.  0.
<mgrwt>
<rscale>  0 0.29473309E+03</rscale>
<asrwt>0</asrwt>
<pdfrwt beam="1">  1        2 0.12865973E+00 0.29473309E+03</pdfrwt>
<pdfrwt beam="2">  1       -2 0.39951071E-02 0.29473309E+03</pdfrwt>
<totfact> 0.92201359E+03</totfact>
</mgrwt>
</event>
<event>
 4    1  0.6122885E-004  0.2176665E+03  0.7818608E-02  0.1135635E+00
         -2   -1    0    0    0  501 -0.00000000000E+00  0.00000000000E+00  0.21295639335E+02  0.21295639488E+02  0.25500000000E-02 0. -1.
          2   -1    0    0  501    0  0.00000000000E+00 -0.00000000000E+00 -0.55620176126E+03  0.55620176127E+03  0.25500000000E-02 0.  1.
    5000001    1    1    2    0    0 -0.54436905233E+01 -0.49876414600E+02 -0.42211896738E+03  0.43200776975E+03  0.77000000000E+02 0.  0.
   -5000001    1    1    2    0    0  0.54436905233E+01  0.49876414600E+02 -0.11278715454E+03  0.14548963101E+03  0.77000000000E+02 0.  0.
<mgrwt>
<rscale>  0 0.21766646E+03</rscale>
<asrwt>0</asrwt>
<pdfrwt beam="1">  1        2 0.85569491E-01 0.21766646E+03</pdfrwt>
<pdfrwt beam="2">  1       -2 0.32762526E-02 0.21766646E+03</pdfrwt>
<totfact> 0.20014900E+04</totfact>
</mgrwt>
</event>
<event>
 4    1  0.6122885E-004  0.2617471E+03  0.7818608E-02  0.1106098E+00
         -2   -1    0    0    0  501 -0.00000000000E+00  0.00000000000E+00  0.11622117100E+02  0.11622117380E+02  0.25500000000E-02 0. -1.
          2   -1    0    0  501    0  0.00000000000E+00 -0.00000000000E+00 -0.14737322594E+04  0.14737322594E+04  0.25500000000E-02 0.  1.
    5000001    1    1    2    0    0  0.42114806538E+02  0.97083129724E+02 -0.72927771984E+03  0.74092765076E+03  0.77000000000E+02 0.  0.
   -5000001    1    1    2    0    0 -0.42114806538E+02 -0.97083129724E+02 -0.73283242250E+03  0.74442672606E+03  0.77000000000E+02 0.  0.
<mgrwt>
<rscale>  0 0.26174712E+03</rscale>
<asrwt>0</asrwt>
<pdfrwt beam="1">  1        2 0.22672789E+00 0.26174712E+03</pdfrwt>
<pdfrwt beam="2">  1       -2 0.17880192E-02 0.26174712E+03</pdfrwt>
<totfact> 0.12829676E+04</totfact>
</mgrwt>
</event>
<event>
 4    1  0.6122885E-004  0.1091085E+04  0.7818608E-02  0.9213925E-01
          2   -1    0    0  501    0  0.00000000000E+00  0.00000000000E+00  0.25731970057E+04  0.25731970057E+04  0.25500000000E-02 0. -1.
         -2   -1    0    0    0  501 -0.00000000000E+00 -0.00000000000E+00 -0.11566027398E+03  0.11566027401E+03  0.25500000000E-02 0.  1.
    5000001    1    1    2    0    0  0.32955040233E+03  0.30689066048E+03  0.19635625144E+04  0.20160089517E+04  0.77000000000E+02 0.  0.
   -5000001    1    1    2    0    0 -0.32955040233E+03 -0.30689066048E+03  0.49397421723E+03  0.67284832798E+03  0.77000000000E+02 0.  0.
<mgrwt>
<rscale>  0 0.10910851E+04</rscale>
<asrwt>0</asrwt>
<pdfrwt beam="1">  1        2 0.39587643E+00 0.10910851E+04</pdfrwt>
<pdfrwt beam="2">  1       -2 0.17793890E-01 0.10910851E+04</pdfrwt>
<totfact> 0.83011939E+01</totfact>
</mgrwt>
</event>
<event>
 4    1  0.6122885E-004  0.1808634E+03  0.7818608E-02  0.1166970E+00
          2   -1    0    0  501    0  0.00000000000E+00  0.00000000000E+00  0.70501241903E+02  0.70501241949E+02  0.25500000000E-02 0.  1.
         -2   -1    0    0    0  501 -0.00000000000E+00 -0.00000000000E+00 -0.11599641625E+03  0.11599641628E+03  0.25500000000E-02 0. -1.
    5000001    1    1    2    0    0  0.19664051299E+02  0.41967127302E+02 -0.33109342918E+02  0.95776527792E+02  0.77000000000E+02 0.  0.
   -5000001    1    1    2    0    0 -0.19664051299E+02 -0.41967127302E+02 -0.12385831432E+02  0.90721130437E+02  0.77000000000E+02 0.  0.
<mgrwt>
<rscale>  0 0.18086339E+03</rscale>
<asrwt>0</asrwt>
<pdfrwt beam="1">  1        2 0.10846345E-01 0.18086339E+03</pdfrwt>
<pdfrwt beam="2">  1       -2 0.17845602E-01 0.18086339E+03</pdfrwt>
<totfact> 0.14147079E+04</totfact>
</mgrwt>
</event>
<event>
 4    1  0.6122885E-004  0.1884387E+03  0.7818608E-02  0.1159877E+00
         -2   -1    0    0    0  501 -0.00000000000E+00  0.00000000000E+00  0.17340695236E+02  0.17340695424E+02  0.25500000000E-02 0. -1.
          2   -1    0    0  501    0  0.00000000000E+00 -0.00000000000E+00 -0.51193356004E+03  0.51193356005E+03  0.25500000000E-02 0.  1.
    5000001    1    1    2    0    0 -0.44413786977E+02 -0.13165989737E+00 -0.33502981743E+03  0.34662166749E+03  0.77000000000E+02 0.  0.
   -5000001    1    1    2    0    0  0.44413786977E+02  0.13165989737E+00 -0.15956304737E+03  0.18265258798E+03  0.77000000000E+02 0.  0.
<mgrwt>
<rscale>  0 0.18843868E+03</rscale>
<asrwt>0</asrwt>
<pdfrwt beam="1">  1        2 0.78758998E-01 0.18843868E+03</pdfrwt>
<pdfrwt beam="2">  1       -2 0.26677997E-02 0.18843868E+03</pdfrwt>
<totfact> 0.29468919E+04</totfact>
</mgrwt>
</event>
<event>
 4    1  0.6122885E-004  0.2297691E+03  0.7818608E-02  0.1126802E+00
         -2   -1    0    0    0  501 -0.00000000000E+00  0.00000000000E+00  0.75187127510E+02  0.75187127553E+02  0.25500000000E-02 0. -1.
          2   -1    0    0  501    0  0.00000000000E+00 -0.00000000000E+00 -0.17554147953E+03  0.17554147954E+03  0.25500000000E-02 0.  1.
    5000001    1    1    2    0    0 -0.55052620409E+02  0.64383480815E+02 -0.60725157979E+02  0.12958614288E+03  0.77000000000E+02 0.  0.
   -5000001    1    1    2    0    0  0.55052620409E+02 -0.64383480815E+02 -0.39629194036E+02  0.12114246421E+03  0.77000000000E+02 0.  0.
<mgrwt>
<rscale>  0 0.22976910E+03</rscale>
<asrwt>0</asrwt>
<pdfrwt beam="1">  1        2 0.27006381E-01 0.22976910E+03</pdfrwt>
<pdfrwt beam="2">  1       -2 0.11567250E-01 0.22976910E+03</pdfrwt>
<totfact> 0.10131240E+04</totfact>
</mgrwt>
</event>
