<event>
 4    1  0.1454935E-005  0.5498002E+03  0.7818608E-02  0.1001540E+00
         -1   -1    0    0    0  501 -0.00000000000E+00  0.00000000000E+00  0.29057968055E+03  0.29057968059E+03  0.50400000000E-02 0. -1.
          1   -1    0    0  501    0  0.00000000000E+00 -0.00000000000E+00 -0.26006657011E+03  0.26006657016E+03  0.50400000000E-02 0.  1.
    5000001    1    1    2    0    0  0.16073733638E+03  0.59895235861E+02 -0.81235517438E+02  0.26997618391E+03  0.19200000000E+03 0.  0.
   -5000001    1    1    2    0    0 -0.16073733638E+03 -0.59895235861E+02  0.11174862788E+03  0.28067006684E+03  0.19200000000E+03 0.  0.
<mgrwt>
<rscale>  0 0.54980019E+03</rscale>
<asrwt>0</asrwt>
<pdfrwt beam="1">  1        1 0.37152367E-01 0.54980019E+03</pdfrwt>
<pdfrwt beam="2">  1       -1 0.41511383E-01 0.54980019E+03</pdfrwt>
<totfact> 0.66684186E+02</totfact>
</mgrwt>
</event>
<event>
 4    1  0.1454935E-005  0.4612181E+03  0.7818608E-02  0.1024429E+00
          1   -1    0    0  501    0  0.00000000000E+00  0.00000000000E+00  0.17908111069E+03  0.17908111076E+03  0.50400000000E-02 0. -1.
         -1   -1    0    0    0  501 -0.00000000000E+00 -0.00000000000E+00 -0.29696341925E+03  0.29696341929E+03  0.50400000000E-02 0.  1.
    5000001    1    1    2    0    0 -0.95147816631E+02  0.82164052294E+02 -0.82307368559E+02  0.24380841129E+03  0.19200000000E+03 0.  0.
   -5000001    1    1    2    0    0  0.95147816631E+02 -0.82164052294E+02 -0.35574940007E+02  0.23223611876E+03  0.19200000000E+03 0.  0.
<mgrwt>
<rscale>  0 0.46121812E+03</rscale>
<asrwt>0</asrwt>
<pdfrwt beam="1">  1        1 0.25583016E-01 0.46121812E+03</pdfrwt>
<pdfrwt beam="2">  1       -1 0.42423345E-01 0.46121812E+03</pdfrwt>
<totfact> 0.10365316E+03</totfact>
</mgrwt>
</event>
<event>
 4    1  0.1454935E-005  0.7887183E+03  0.7818608E-02  0.9576492E-01
          1   -1    0    0  501    0  0.00000000000E+00  0.00000000000E+00  0.25158724428E+04  0.25158724428E+04  0.50400000000E-02 0.  1.
         -1   -1    0    0    0  501 -0.00000000000E+00 -0.00000000000E+00 -0.61815184951E+02  0.61815185156E+02  0.50400000000E-02 0. -1.
    5000001    1    1    2    0    0 -0.26004028862E+03  0.10317054160E+03  0.18838471136E+04  0.19141601447E+04  0.19200000000E+03 0.  0.
   -5000001    1    1    2    0    0  0.26004028862E+03 -0.10317054160E+03  0.57021014423E+03  0.66352748319E+03  0.19200000000E+03 0.  0.
<mgrwt>
<rscale>  0 0.78871825E+03</rscale>
<asrwt>0</asrwt>
<pdfrwt beam="1">  1        1 0.35941032E+00 0.78871825E+03</pdfrwt>
<pdfrwt beam="2">  1       -1 0.88307415E-02 0.78871825E+03</pdfrwt>
<totfact> 0.13961254E+02</totfact>
</mgrwt>
</event>
<event>
 4    1  0.1454935E-005  0.5092922E+03  0.7818608E-02  0.1011382E+00
          1   -1    0    0  501    0  0.00000000000E+00  0.00000000000E+00  0.59417535973E+03  0.59417535975E+03  0.50400000000E-02 0. -1.
         -1   -1    0    0    0  501 -0.00000000000E+00 -0.00000000000E+00 -0.10913381525E+03  0.10913381537E+03  0.50400000000E-02 0.  1.
    5000001    1    1    2    0    0 -0.70734292460E+02 -0.12579079415E+03  0.12571816102E+03  0.27110094067E+03  0.19200000000E+03 0.  0.
   -5000001    1    1    2    0    0  0.70734292460E+02  0.12579079415E+03  0.35932338345E+03  0.43220823444E+03  0.19200000000E+03 0.  0.
<mgrwt>
<rscale>  0 0.50929215E+03</rscale>
<asrwt>0</asrwt>
<pdfrwt beam="1">  1        1 0.84882195E-01 0.50929215E+03</pdfrwt>
<pdfrwt beam="2">  1       -1 0.15590545E-01 0.50929215E+03</pdfrwt>
<totfact> 0.11957978E+03</totfact>
</mgrwt>
</event>
<event>
 4    1  0.1454935E-005  0.1312311E+04  0.7818608E-02  0.9019859E-01
          1   -1    0    0  501    0  0.00000000000E+00  0.00000000000E+00  0.15745549967E+04  0.15745549967E+04  0.50400000000E-02 0.  1.
         -1   -1    0    0    0  501 -0.00000000000E+00 -0.00000000000E+00 -0.27343617500E+03  0.27343617505E+03  0.50400000000E-02 0. -1.
    5000001    1    1    2    0    0  0.16673326762E+03  0.29799152316E+03 -0.90688562179E+02  0.40210365046E+03  0.19200000000E+03 0.  0.
   -5000001    1    1    2    0    0 -0.16673326762E+03 -0.29799152316E+03  0.13918073839E+04  0.14458875213E+04  0.19200000000E+03 0.  0.
<mgrwt>
<rscale>  0 0.13123114E+04</rscale>
<asrwt>0</asrwt>
<pdfrwt beam="1">  1        1 0.22493644E+00 0.13123114E+04</pdfrwt>
<pdfrwt beam="2">  1       -1 0.39062309E-01 0.13123114E+04</pdfrwt>
<totfact> 0.43429616E+01</totfact>
</mgrwt>
</event>
<event>
 4    1  0.1454935E-005  0.4888524E+03  0.7818608E-02  0.1016730E+00
         -1   -1    0    0    0  501 -0.00000000000E+00  0.00000000000E+00  0.30554440779E+02  0.30554441194E+02  0.50400000000E-02 0. -1.
          1   -1    0    0  501    0  0.00000000000E+00 -0.00000000000E+00 -0.19553346938E+04  0.19553346938E+04  0.50400000000E-02 0.  1.
    5000001    1    1    2    0    0 -0.36591135014E+02 -0.14676850870E+03 -0.96443027549E+03  0.99492193794E+03  0.19200000000E+03 0.  0.
   -5000001    1    1    2    0    0  0.36591135014E+02  0.14676850870E+03 -0.96034997752E+03  0.99096719705E+03  0.19200000000E+03 0.  0.
<mgrwt>
<rscale>  0 0.48885236E+03</rscale>
<asrwt>0</asrwt>
<pdfrwt beam="1">  1        1 0.27933345E+00 0.48885236E+03</pdfrwt>
<pdfrwt beam="2">  1       -1 0.43649214E-02 0.48885236E+03</pdfrwt>
<totfact> 0.94422588E+02</totfact>
</mgrwt>
</event>
<event>
 4    1  0.1454935E-005  0.7149146E+03  0.7818608E-02  0.9692061E-01
          1   -1    0    0  501    0  0.00000000000E+00  0.00000000000E+00  0.18793473242E+04  0.18793473242E+04  0.50400000000E-02 0.  1.
         -1   -1    0    0    0  501 -0.00000000000E+00 -0.00000000000E+00 -0.67989409169E+02  0.67989409356E+02  0.50400000000E-02 0. -1.
    5000001    1    1    2    0    0 -0.11611444226E+03  0.27810566489E+03  0.93099630709E+03  0.99721785401E+03  0.19200000000E+03 0.  0.
   -5000001    1    1    2    0    0  0.11611444226E+03 -0.27810566489E+03  0.88036160797E+03  0.95011887958E+03  0.19200000000E+03 0.  0.
<mgrwt>
<rscale>  0 0.71491458E+03</rscale>
<asrwt>0</asrwt>
<pdfrwt beam="1">  1        1 0.26847813E+00 0.71491458E+03</pdfrwt>
<pdfrwt beam="2">  1       -1 0.97127750E-02 0.71491458E+03</pdfrwt>
<totfact> 0.30093353E+02</totfact>
</mgrwt>
</event>
<event>
 4    1  0.1454935E-005  0.8761268E+03  0.7818608E-02  0.9455926E-01
         -1   -1    0    0    0  501 -0.00000000000E+00  0.00000000000E+00  0.89643409775E+02  0.89643409916E+02  0.50400000000E-02 0. -1.
          1   -1    0    0  501    0  0.00000000000E+00 -0.00000000000E+00 -0.21406989487E+04  0.21406989487E+04  0.50400000000E-02 0.  1.
    5000001    1    1    2    0    0  0.37690927222E+03  0.10866665135E+03 -0.11124737035E+04  0.11951279353E+04  0.19200000000E+03 0.  0.
   -5000001    1    1    2    0    0 -0.37690927222E+03 -0.10866665135E+03 -0.93858183540E+03  0.10352144234E+04  0.19200000000E+03 0.  0.
<mgrwt>
<rscale>  0 0.87612682E+03</rscale>
<asrwt>0</asrwt>
<pdfrwt beam="1">  1        1 0.30581410E+00 0.87612682E+03</pdfrwt>
<pdfrwt beam="2">  1       -1 0.12806203E-01 0.87612682E+03</pdfrwt>
<totfact> 0.13146512E+02</totfact>
</mgrwt>
</event>
<event>
 4    1  0.1454935E-005  0.3971910E+03  0.7818608E-02  0.1044757E+00
          1   -1    0    0  501    0  0.00000000000E+00  0.00000000000E+00  0.15278888944E+03  0.15278888952E+03  0.50400000000E-02 0.  1.
         -1   -1    0    0    0  501 -0.00000000000E+00 -0.00000000000E+00 -0.25813502487E+03  0.25813502492E+03  0.50400000000E-02 0. -1.
    5000001    1    1    2    0    0 -0.35835567007E+02 -0.31643493042E+02 -0.35034689487E+02  0.20094011044E+03  0.19200000000E+03 0.  0.
   -5000001    1    1    2    0    0  0.35835567007E+02  0.31643493042E+02 -0.70311445939E+02  0.20998380401E+03  0.19200000000E+03 0.  0.
<mgrwt>
<rscale>  0 0.39719096E+03</rscale>
<asrwt>0</asrwt>
<pdfrwt beam="1">  1        1 0.21826984E-01 0.39719096E+03</pdfrwt>
<pdfrwt beam="2">  1       -1 0.36876432E-01 0.39719096E+03</pdfrwt>
<totfact> 0.16354963E+03</totfact>
</mgrwt>
</event>
<event>
 4    1  0.1454935E-005  0.7213197E+03  0.7818608E-02  0.9681452E-01
         -1   -1    0    0    0  501 -0.00000000000E+00  0.00000000000E+00  0.31625057907E+03  0.31625057911E+03  0.50400000000E-02 0. -1.
          1   -1    0    0  501    0  0.00000000000E+00 -0.00000000000E+00 -0.41130521281E+03  0.41130521284E+03  0.50400000000E-02 0.  1.
    5000001    1    1    2    0    0  0.43088670315E+02 -0.25119307999E+03  0.12202389813E+03  0.34162615336E+03  0.19200000000E+03 0.  0.
   -5000001    1    1    2    0    0 -0.43088670315E+02  0.25119307999E+03 -0.21707853188E+03  0.38592963859E+03  0.19200000000E+03 0.  0.
<mgrwt>
<rscale>  0 0.72131966E+03</rscale>
<asrwt>0</asrwt>
<pdfrwt beam="1">  1        1 0.58757887E-01 0.72131966E+03</pdfrwt>
<pdfrwt beam="2">  1       -1 0.45178654E-01 0.72131966E+03</pdfrwt>
<totfact> 0.31373008E+02</totfact>
</mgrwt>
</event>
<event>
 4    1  0.1454935E-005  0.5805587E+03  0.7818608E-02  0.9946582E-01
         -1   -1    0    0    0  501 -0.00000000000E+00  0.00000000000E+00  0.25771998990E+03  0.25771998995E+03  0.50400000000E-02 0.  1.
          1   -1    0    0  501    0  0.00000000000E+00 -0.00000000000E+00 -0.32695212266E+03  0.32695212270E+03  0.50400000000E-02 0. -1.
    5000001    1    1    2    0    0  0.81338775383E+02 -0.18907132279E+03  0.36838293866E+02  0.28387501013E+03  0.19200000000E+03 0.  0.
   -5000001    1    1    2    0    0 -0.81338775383E+02  0.18907132279E+03 -0.10607042662E+03  0.30079710252E+03  0.19200000000E+03 0.  0.
<mgrwt>
<rscale>  0 0.58055869E+03</rscale>
<asrwt>0</asrwt>
<pdfrwt beam="1">  1        1 0.46707446E-01 0.58055869E+03</pdfrwt>
<pdfrwt beam="2">  1       -1 0.36817142E-01 0.58055869E+03</pdfrwt>
<totfact> 0.61647813E+02</totfact>
</mgrwt>
</event>
<event>
 4    1  0.1454935E-005  0.4973872E+03  0.7818608E-02  0.1014463E+00
          1   -1    0    0  501    0  0.00000000000E+00  0.00000000000E+00  0.65408731536E+03  0.65408731537E+03  0.50400000000E-02 0. -1.
         -1   -1    0    0    0  501 -0.00000000000E+00 -0.00000000000E+00 -0.94556956727E+02  0.94556956861E+02  0.50400000000E-02 0.  1.
    5000001    1    1    2    0    0  0.79594107978E+02  0.10467299981E+03  0.14774982228E+03  0.27565498163E+03  0.19200000000E+03 0.  0.
   -5000001    1    1    2    0    0 -0.79594107978E+02 -0.10467299981E+03  0.41178053635E+03  0.47298929060E+03  0.19200000000E+03 0.  0.
<mgrwt>
<rscale>  0 0.49738720E+03</rscale>
<asrwt>0</asrwt>
<pdfrwt beam="1">  1        1 0.93441046E-01 0.49738720E+03</pdfrwt>
<pdfrwt beam="2">  1       -1 0.13508137E-01 0.49738720E+03</pdfrwt>
<totfact> 0.13158008E+03</totfact>
</mgrwt>
</event>
<event>
 4    1  0.1454935E-005  0.6702698E+03  0.7818608E-02  0.9769471E-01
          1   -1    0    0  501    0  0.00000000000E+00  0.00000000000E+00  0.27594439683E+03  0.27594439688E+03  0.50400000000E-02 0.  1.
         -1   -1    0    0    0  501 -0.00000000000E+00 -0.00000000000E+00 -0.40702181906E+03  0.40702181909E+03  0.50400000000E-02 0. -1.
    5000001    1    1    2    0    0  0.18105743819E+03  0.11820200319E+03 -0.23815211009E+03  0.37461171501E+03  0.19200000000E+03 0.  0.
   -5000001    1    1    2    0    0 -0.18105743819E+03 -0.11820200319E+03  0.10707468787E+03  0.30835450096E+03  0.19200000000E+03 0.  0.
<mgrwt>
<rscale>  0 0.67026977E+03</rscale>
<asrwt>0</asrwt>
<pdfrwt beam="1">  1        1 0.39420628E-01 0.67026977E+03</pdfrwt>
<pdfrwt beam="2">  1       -1 0.58145974E-01 0.67026977E+03</pdfrwt>
<totfact> 0.32673840E+02</totfact>
</mgrwt>
</event>
<event>
 4    1  0.1454935E-005  0.5407239E+03  0.7818608E-02  0.1003664E+00
         -1   -1    0    0    0  501 -0.00000000000E+00  0.00000000000E+00  0.31042242487E+03  0.31042242491E+03  0.50400000000E-02 0.  1.
          1   -1    0    0  501    0  0.00000000000E+00 -0.00000000000E+00 -0.23547133384E+03  0.23547133389E+03  0.50400000000E-02 0. -1.
    5000001    1    1    2    0    0  0.12290698398E+03 -0.73032368480E+02 -0.89391085667E+02  0.25552811930E+03  0.19200000000E+03 0.  0.
   -5000001    1    1    2    0    0 -0.12290698398E+03  0.73032368480E+02  0.16434217670E+03  0.29036563950E+03  0.19200000000E+03 0.  0.
<mgrwt>
<rscale>  0 0.54072389E+03</rscale>
<asrwt>0</asrwt>
<pdfrwt beam="1">  1        1 0.33638762E-01 0.54072389E+03</pdfrwt>
<pdfrwt beam="2">  1       -1 0.44346061E-01 0.54072389E+03</pdfrwt>
<totfact> 0.67147604E+02</totfact>
</mgrwt>
</event>
<event>
 4    1  0.1454935E-005  0.8272928E+03  0.7818608E-02  0.9521331E-01
          1   -1    0    0  501    0  0.00000000000E+00  0.00000000000E+00  0.25208394293E+04  0.25208394293E+04  0.50400000000E-02 0.  1.
         -1   -1    0    0    0  501 -0.00000000000E+00 -0.00000000000E+00 -0.67875545514E+02  0.67875545701E+02  0.50400000000E-02 0. -1.
    5000001    1    1    2    0    0  0.20343405457E+03 -0.26517129039E+03  0.75671347388E+03  0.84922347433E+03  0.19200000000E+03 0.  0.
   -5000001    1    1    2    0    0 -0.20343405457E+03  0.26517129039E+03  0.16962504099E+04  0.17394915007E+04  0.19200000000E+03 0.  0.
<mgrwt>
<rscale>  0 0.82729282E+03</rscale>
<asrwt>0</asrwt>
<pdfrwt beam="1">  1        1 0.36011991E+00 0.82729282E+03</pdfrwt>
<pdfrwt beam="2">  1       -1 0.96965067E-02 0.82729282E+03</pdfrwt>
<totfact> 0.11915123E+02</totfact>
</mgrwt>
</event>
<event>
 4    1  0.1454935E-005  0.6114394E+03  0.7818608E-02  0.9881953E-01
          1   -1    0    0  501    0  0.00000000000E+00  0.00000000000E+00  0.14454417462E+04  0.14454417462E+04  0.50400000000E-02 0. -1.
         -1   -1    0    0    0  501 -0.00000000000E+00 -0.00000000000E+00 -0.64661566145E+02  0.64661566342E+02  0.50400000000E-02 0.  1.
    5000001    1    1    2    0    0  0.19574906136E+03  0.52366614610E+02  0.38250636800E+03  0.47353466495E+03  0.19200000000E+03 0.  0.
   -5000001    1    1    2    0    0 -0.19574906136E+03 -0.52366614610E+02  0.99827381205E+03  0.10365686476E+04  0.19200000000E+03 0.  0.
<mgrwt>
<rscale>  0 0.61143937E+03</rscale>
<asrwt>0</asrwt>
<pdfrwt beam="1">  1        1 0.20649166E+00 0.61143937E+03</pdfrwt>
<pdfrwt beam="2">  1       -1 0.92373676E-02 0.61143937E+03</pdfrwt>
<totfact> 0.61643782E+02</totfact>
</mgrwt>
</event>
<event>
 4    1  0.1454935E-005  0.4770758E+03  0.7818608E-02  0.1019942E+00
          1   -1    0    0  501    0  0.00000000000E+00  0.00000000000E+00  0.11845833863E+04  0.11845833863E+04  0.50400000000E-02 0.  1.
         -1   -1    0    0    0  501 -0.00000000000E+00 -0.00000000000E+00 -0.48034050709E+02  0.48034050973E+02  0.50400000000E-02 0. -1.
    5000001    1    1    2    0    0  0.80162186248E+02 -0.11630546265E+03  0.59187014610E+03  0.63806520560E+03  0.19200000000E+03 0.  0.
   -5000001    1    1    2    0    0 -0.80162186248E+02  0.11630546265E+03  0.54467918952E+03  0.59455223172E+03  0.19200000000E+03 0.  0.
<mgrwt>
<rscale>  0 0.47707584E+03</rscale>
<asrwt>0</asrwt>
<pdfrwt beam="1">  1        1 0.16922619E+00 0.47707584E+03</pdfrwt>
<pdfrwt beam="2">  1       -1 0.68620077E-02 0.47707584E+03</pdfrwt>
<totfact> 0.14654136E+03</totfact>
</mgrwt>
</event>
<event>
 4    1  0.1454935E-005  0.4831448E+03  0.7818608E-02  0.1018274E+00
         -1   -1    0    0    0  501 -0.00000000000E+00  0.00000000000E+00  0.22500994764E+02  0.22500995329E+02  0.50400000000E-02 0. -1.
          1   -1    0    0  501    0  0.00000000000E+00 -0.00000000000E+00 -0.25935393905E+04  0.25935393905E+04  0.50400000000E-02 0.  1.
    5000001    1    1    2    0    0  0.48356787979E+02  0.12655776456E+03 -0.98220581341E+03  0.10099245054E+04  0.19200000000E+03 0.  0.
   -5000001    1    1    2    0    0 -0.48356787979E+02 -0.12655776456E+03 -0.15888325823E+04  0.16061158804E+04  0.19200000000E+03 0.  0.
<mgrwt>
<rscale>  0 0.48314477E+03</rscale>
<asrwt>0</asrwt>
<pdfrwt beam="1">  1        1 0.37050544E+00 0.48314477E+03</pdfrwt>
<pdfrwt beam="2">  1       -1 0.32144295E-02 0.48314477E+03</pdfrwt>
<totfact> 0.60603162E+02</totfact>
</mgrwt>
</event>
<event>
 4    1  0.1454935E-005  0.5057990E+03  0.7818608E-02  0.1012276E+00
          1   -1    0    0  501    0  0.00000000000E+00  0.00000000000E+00  0.19374087092E+03  0.19374087099E+03  0.50400000000E-02 0.  1.
         -1   -1    0    0    0  501 -0.00000000000E+00 -0.00000000000E+00 -0.33012211485E+03  0.33012211489E+03  0.50400000000E-02 0. -1.
    5000001    1    1    2    0    0 -0.13490746550E+03 -0.43370332199E+02  0.18544684788E+02  0.23935102945E+03  0.19200000000E+03 0.  0.
   -5000001    1    1    2    0    0  0.13490746550E+03  0.43370332199E+02 -0.15492592871E+03  0.28451195643E+03  0.19200000000E+03 0.  0.
<mgrwt>
<rscale>  0 0.50579896E+03</rscale>
<asrwt>0</asrwt>
<pdfrwt beam="1">  1        1 0.27677267E-01 0.50579896E+03</pdfrwt>
<pdfrwt beam="2">  1       -1 0.47160302E-01 0.50579896E+03</pdfrwt>
<totfact> 0.77072845E+02</totfact>
</mgrwt>
</event>
<event>
 4    1  0.1454935E-005  0.8879490E+03  0.7818608E-02  0.9440772E-01
          1   -1    0    0  501    0  0.00000000000E+00  0.00000000000E+00  0.30419998239E+03  0.30419998243E+03  0.50400000000E-02 0.  1.
         -1   -1    0    0    0  501 -0.00000000000E+00 -0.00000000000E+00 -0.64797286939E+03  0.64797286941E+03  0.50400000000E-02 0. -1.
    5000001    1    1    2    0    0 -0.35919424992E+03 -0.13085747567E+02  0.17091739291E+02  0.40785766330E+03  0.19200000000E+03 0.  0.
   -5000001    1    1    2    0    0  0.35919424992E+03  0.13085747567E+02 -0.36086462629E+03  0.54431518854E+03  0.19200000000E+03 0.  0.
<mgrwt>
<rscale>  0 0.88794895E+03</rscale>
<asrwt>0</asrwt>
<pdfrwt beam="1">  1        1 0.43457141E-01 0.88794895E+03</pdfrwt>
<pdfrwt beam="2">  1       -1 0.92567552E-01 0.88794895E+03</pdfrwt>
<totfact> 0.10854244E+02</totfact>
</mgrwt>
</event>
<event>
 4    1  0.1454935E-005  0.4935034E+03  0.7818608E-02  0.1015489E+00
         -1   -1    0    0    0  501 -0.00000000000E+00  0.00000000000E+00  0.12522750330E+03  0.12522750340E+03  0.50400000000E-02 0. -1.
          1   -1    0    0  501    0  0.00000000000E+00 -0.00000000000E+00 -0.48620630221E+03  0.48620630224E+03  0.50400000000E-02 0.  1.
    5000001    1    1    2    0    0 -0.13832852098E+03 -0.16709745506E+02 -0.26459688832E+03  0.35537235207E+03  0.19200000000E+03 0.  0.
   -5000001    1    1    2    0    0  0.13832852098E+03  0.16709745506E+02 -0.96381910594E+02  0.25606145356E+03  0.19200000000E+03 0.  0.
<mgrwt>
<rscale>  0 0.49350340E+03</rscale>
<asrwt>0</asrwt>
<pdfrwt beam="1">  1        1 0.69458042E-01 0.49350340E+03</pdfrwt>
<pdfrwt beam="2">  1       -1 0.17889644E-01 0.49350340E+03</pdfrwt>
<totfact> 0.12557016E+03</totfact>
</mgrwt>
</event>
<event>
 4    1  0.1454935E-005  0.5624661E+03  0.7818608E-02  0.9986490E-01
          1   -1    0    0  501    0  0.00000000000E+00  0.00000000000E+00  0.51353749794E+04  0.51353749794E+04  0.50400000000E-02 0.  1.
         -1   -1    0    0    0  501 -0.00000000000E+00 -0.00000000000E+00 -0.15401411365E+02  0.15401412189E+02  0.50400000000E-02 0. -1.
    5000001    1    1    2    0    0  0.18848744236E+03  0.21185515437E+02  0.32840472213E+04  0.32951185857E+04  0.19200000000E+03 0.  0.
   -5000001    1    1    2    0    0 -0.18848744236E+03 -0.21185515437E+02  0.18359263468E+04  0.18556578060E+04  0.19200000000E+03 0.  0.
<mgrwt>
<rscale>  0 0.56246609E+03</rscale>
<asrwt>0</asrwt>
<pdfrwt beam="1">  1        1 0.73362516E+00 0.56246609E+03</pdfrwt>
<pdfrwt beam="2">  1       -1 0.22002012E-02 0.56246609E+03</pdfrwt>
<totfact> 0.12596945E+01</totfact>
</mgrwt>
</event>
<event>
 4    1  0.1454935E-005  0.4579274E+03  0.7818608E-02  0.1025384E+00
         -1   -1    0    0    0  501 -0.00000000000E+00  0.00000000000E+00  0.24686307759E+03  0.24686307764E+03  0.50400000000E-02 0. -1.
          1   -1    0    0  501    0  0.00000000000E+00 -0.00000000000E+00 -0.21236213331E+03  0.21236213337E+03  0.50400000000E-02 0.  1.
    5000001    1    1    2    0    0  0.10820732347E+03 -0.33941871852E+02 -0.34853439055E+02  0.22569811193E+03  0.19200000000E+03 0.  0.
   -5000001    1    1    2    0    0 -0.10820732347E+03  0.33941871852E+02  0.69354383334E+02  0.23352709908E+03  0.19200000000E+03 0.  0.
<mgrwt>
<rscale>  0 0.45792737E+03</rscale>
<asrwt>0</asrwt>
<pdfrwt beam="1">  1        1 0.30337448E-01 0.45792737E+03</pdfrwt>
<pdfrwt beam="2">  1       -1 0.35266154E-01 0.45792737E+03</pdfrwt>
<totfact> 0.11586049E+03</totfact>
</mgrwt>
</event>
<event>
 4    1  0.1454935E-005  0.4372488E+03  0.7818608E-02  0.1031594E+00
          1   -1    0    0  501    0  0.00000000000E+00  0.00000000000E+00  0.51876822257E+02  0.51876822502E+02  0.50400000000E-02 0.  1.
         -1   -1    0    0    0  501 -0.00000000000E+00 -0.00000000000E+00 -0.92134841092E+03  0.92134841093E+03  0.50400000000E-02 0. -1.
    5000001    1    1    2    0    0 -0.53429355259E+02  0.33185485521E+02 -0.24882338761E+03  0.32051996923E+03  0.19200000000E+03 0.  0.
   -5000001    1    1    2    0    0  0.53429355259E+02 -0.33185485521E+02 -0.62064820105E+03  0.65270526420E+03  0.19200000000E+03 0.  0.
<mgrwt>
<rscale>  0 0.43724880E+03</rscale>
<asrwt>0</asrwt>
<pdfrwt beam="1">  1        1 0.74109752E-02 0.43724880E+03</pdfrwt>
<pdfrwt beam="2">  1       -1 0.13162119E+00 0.43724880E+03</pdfrwt>
<totfact> 0.50956167E+02</totfact>
</mgrwt>
</event>
<event>
 4    1  0.1454935E-005  0.7000812E+03  0.7818608E-02  0.9717093E-01
          1   -1    0    0  501    0  0.00000000000E+00  0.00000000000E+00  0.28850611324E+03  0.28850611329E+03  0.50400000000E-02 0. -1.
         -1   -1    0    0    0  501 -0.00000000000E+00 -0.00000000000E+00 -0.42469956220E+03  0.42469956223E+03  0.50400000000E-02 0.  1.
    5000001    1    1    2    0    0 -0.25796187298E+03 -0.51019720211E+02  0.62831421376E+02  0.33160085535E+03  0.19200000000E+03 0.  0.
   -5000001    1    1    2    0    0  0.25796187298E+03  0.51019720211E+02 -0.19902487034E+03  0.38160482016E+03  0.19200000000E+03 0.  0.
<mgrwt>
<rscale>  0 0.70008120E+03</rscale>
<asrwt>0</asrwt>
<pdfrwt beam="1">  1        1 0.41215159E-01 0.70008120E+03</pdfrwt>
<pdfrwt beam="2">  1       -1 0.60671366E-01 0.70008120E+03</pdfrwt>
<totfact> 0.28350054E+02</totfact>
</mgrwt>
</event>
<event>
 4    1  0.1454935E-005  0.6807766E+03  0.7818608E-02  0.9750683E-01
          1   -1    0    0  501    0  0.00000000000E+00  0.00000000000E+00  0.87352881677E+02  0.87352881822E+02  0.50400000000E-02 0.  1.
         -1   -1    0    0    0  501 -0.00000000000E+00 -0.00000000000E+00 -0.13263925380E+04  0.13263925380E+04  0.50400000000E-02 0. -1.
    5000001    1    1    2    0    0  0.20729635418E+01  0.27892979370E+03 -0.69128007398E+03  0.76976507304E+03  0.19200000000E+03 0.  0.
   -5000001    1    1    2    0    0 -0.20729635418E+01 -0.27892979370E+03 -0.54775958230E+03  0.64398034675E+03  0.19200000000E+03 0.  0.
<mgrwt>
<rscale>  0 0.68077665E+03</rscale>
<asrwt>0</asrwt>
<pdfrwt beam="1">  1        1 0.12478984E-01 0.68077665E+03</pdfrwt>
<pdfrwt beam="2">  1       -1 0.18948464E+00 0.68077665E+03</pdfrwt>
<totfact> 0.90460698E+01</totfact>
</mgrwt>
</event>
<event>
 4    1  0.1454935E-005  0.6618173E+03  0.7818608E-02  0.9784854E-01
         -1   -1    0    0    0  501 -0.00000000000E+00  0.00000000000E+00  0.85253386705E+02  0.85253386854E+02  0.50400000000E-02 0.  1.
          1   -1    0    0  501    0  0.00000000000E+00 -0.00000000000E+00 -0.12844125507E+04  0.12844125507E+04  0.50400000000E-02 0. -1.
    5000001    1    1    2    0    0  0.85079083744E+02 -0.78605725827E+02 -0.11032052672E+04  0.11257633731E+04  0.19200000000E+03 0.  0.
   -5000001    1    1    2    0    0 -0.85079083744E+02  0.78605725827E+02 -0.95953896725E+02  0.24390256440E+03  0.19200000000E+03 0.  0.
<mgrwt>
<rscale>  0 0.66181726E+03</rscale>
<asrwt>0</asrwt>
<pdfrwt beam="1">  1        1 0.18348750E+00 0.66181726E+03</pdfrwt>
<pdfrwt beam="2">  1       -1 0.12179056E-01 0.66181726E+03</pdfrwt>
<totfact> 0.50642252E+02</totfact>
</mgrwt>
</event>
<event>
 4    1  0.1454935E-005  0.5859144E+03  0.7818608E-02  0.9935068E-01
         -1   -1    0    0    0  501 -0.00000000000E+00  0.00000000000E+00  0.37342625925E+02  0.37342626265E+02  0.50400000000E-02 0. -1.
          1   -1    0    0  501    0  0.00000000000E+00 -0.00000000000E+00 -0.22982830389E+04  0.22982830389E+04  0.50400000000E-02 0.  1.
    5000001    1    1    2    0    0  0.11239399650E+03 -0.15709588765E+03 -0.70023879116E+03  0.75133873387E+03  0.19200000000E+03 0.  0.
   -5000001    1    1    2    0    0 -0.11239399650E+03  0.15709588765E+03 -0.15607016219E+04  0.15842869313E+04  0.19200000000E+03 0.  0.
<mgrwt>
<rscale>  0 0.58591441E+03</rscale>
<asrwt>0</asrwt>
<pdfrwt beam="1">  1        1 0.32832606E+00 0.58591441E+03</pdfrwt>
<pdfrwt beam="2">  1       -1 0.53346623E-02 0.58591441E+03</pdfrwt>
<totfact> 0.42474967E+02</totfact>
</mgrwt>
</event>
<event>
 4    1  0.1454935E-005  0.7829389E+03  0.7818608E-02  0.9585046E-01
         -1   -1    0    0    0  501 -0.00000000000E+00  0.00000000000E+00  0.28959088896E+03  0.28959088900E+03  0.50400000000E-02 0. -1.
          1   -1    0    0  501    0  0.00000000000E+00 -0.00000000000E+00 -0.52918904671E+03  0.52918904673E+03  0.50400000000E-02 0.  1.
    5000001    1    1    2    0    0  0.22214548529E+02 -0.30451748789E+03 -0.27894959072E+03  0.45596190714E+03  0.19200000000E+03 0.  0.
   -5000001    1    1    2    0    0 -0.22214548529E+02  0.30451748789E+03  0.39351432973E+02  0.36281802860E+03  0.19200000000E+03 0.  0.
<mgrwt>
<rscale>  0 0.78293889E+03</rscale>
<asrwt>0</asrwt>
<pdfrwt beam="1">  1        1 0.75598436E-01 0.78293889E+03</pdfrwt>
<pdfrwt beam="2">  1       -1 0.41370127E-01 0.78293889E+03</pdfrwt>
<totfact> 0.26254326E+02</totfact>
</mgrwt>
</event>
<event>
 4    1  0.1454935E-005  0.1521243E+04  0.7818608E-02  0.8870448E-01
         -1   -1    0    0    0  501 -0.00000000000E+00  0.00000000000E+00  0.91824844623E+03  0.91824844625E+03  0.50400000000E-02 0.  1.
          1   -1    0    0  501    0  0.00000000000E+00 -0.00000000000E+00 -0.63005275864E+03  0.63005275866E+03  0.50400000000E-02 0. -1.
    5000001    1    1    2    0    0  0.72873972023E+03  0.66222581793E+02  0.22445763142E+03  0.78910850869E+03  0.19200000000E+03 0.  0.
   -5000001    1    1    2    0    0 -0.72873972023E+03 -0.66222581793E+02  0.63738056176E+02  0.75919269622E+03  0.19200000000E+03 0.  0.
<mgrwt>
<rscale>  0 0.15212429E+04</rscale>
<asrwt>0</asrwt>
<pdfrwt beam="1">  1        1 0.90007537E-01 0.15212429E+04</pdfrwt>
<pdfrwt beam="2">  1       -1 0.13117835E+00 0.15212429E+04</pdfrwt>
<totfact> 0.17050158E+01</totfact>
</mgrwt>
</event>
<event>
 4    1  0.1454935E-005  0.4514988E+03  0.7818608E-02  0.1027276E+00
         -1   -1    0    0    0  501 -0.00000000000E+00  0.00000000000E+00  0.46398042320E+03  0.46398042323E+03  0.50400000000E-02 0.  1.
          1   -1    0    0  501    0  0.00000000000E+00 -0.00000000000E+00 -0.10983824052E+03  0.10983824063E+03  0.50400000000E-02 0. -1.
    5000001    1    1    2    0    0 -0.10833894185E+03 -0.44120881880E+02  0.20295591399E+03  0.30288460107E+03  0.19200000000E+03 0.  0.
   -5000001    1    1    2    0    0  0.10833894185E+03  0.44120881880E+02  0.15118626870E+03  0.27093406279E+03  0.19200000000E+03 0.  0.
<mgrwt>
<rscale>  0 0.45149881E+03</rscale>
<asrwt>0</asrwt>
<pdfrwt beam="1">  1        1 0.15691177E-01 0.45149881E+03</pdfrwt>
<pdfrwt beam="2">  1       -1 0.66282917E-01 0.45149881E+03</pdfrwt>
<totfact> 0.84224597E+02</totfact>
</mgrwt>
</event>
<event>
 4    1  0.1454935E-005  0.7324619E+03  0.7818608E-02  0.9663274E-01
         -1   -1    0    0    0  501 -0.00000000000E+00  0.00000000000E+00  0.12756877240E+04  0.12756877240E+04  0.50400000000E-02 0. -1.
          1   -1    0    0  501    0  0.00000000000E+00 -0.00000000000E+00 -0.10513946314E+03  0.10513946326E+03  0.50400000000E-02 0.  1.
    5000001    1    1    2    0    0 -0.13007675323E+03 -0.28258270313E+03  0.54362146617E+03  0.65510399504E+03  0.19200000000E+03 0.  0.
   -5000001    1    1    2    0    0  0.13007675323E+03  0.28258270313E+03  0.62692679471E+03  0.72572319225E+03  0.19200000000E+03 0.  0.
<mgrwt>
<rscale>  0 0.73246194E+03</rscale>
<asrwt>0</asrwt>
<pdfrwt beam="1">  1        1 0.15019924E-01 0.73246194E+03</pdfrwt>
<pdfrwt beam="2">  1       -1 0.18224110E+00 0.73246194E+03</pdfrwt>
<totfact> 0.78853405E+01</totfact>
</mgrwt>
</event>
<event>
 4    1  0.1454935E-005  0.5783811E+03  0.7818608E-02  0.9951302E-01
          1   -1    0    0  501    0  0.00000000000E+00  0.00000000000E+00  0.52411902163E+03  0.52411902166E+03  0.50400000000E-02 0.  1.
         -1   -1    0    0    0  501 -0.00000000000E+00 -0.00000000000E+00 -0.15956525724E+03  0.15956525732E+03  0.50400000000E-02 0. -1.
    5000001    1    1    2    0    0  0.18094594091E+03  0.11471130308E+03  0.14746972622E+03  0.32328228646E+03  0.19200000000E+03 0.  0.
   -5000001    1    1    2    0    0 -0.18094594091E+03 -0.11471130308E+03  0.21708403817E+03  0.36040199252E+03  0.19200000000E+03 0.  0.
<mgrwt>
<rscale>  0 0.57838114E+03</rscale>
<asrwt>0</asrwt>
<pdfrwt beam="1">  1        1 0.74874146E-01 0.57838114E+03</pdfrwt>
<pdfrwt beam="2">  1       -1 0.22795037E-01 0.57838114E+03</pdfrwt>
<totfact> 0.75906596E+02</totfact>
</mgrwt>
</event>
<event>
 4    1  0.1454935E-005  0.4449789E+03  0.7818608E-02  0.1029230E+00
         -1   -1    0    0    0  501 -0.00000000000E+00  0.00000000000E+00  0.55587025744E+02  0.55587025973E+02  0.50400000000E-02 0. -1.
          1   -1    0    0  501    0  0.00000000000E+00 -0.00000000000E+00 -0.89052336547E+03  0.89052336549E+03  0.50400000000E-02 0.  1.
    5000001    1    1    2    0    0  0.10055926862E+03  0.46596972558E+02 -0.45747793618E+03  0.50836355736E+03  0.19200000000E+03 0.  0.
   -5000001    1    1    2    0    0 -0.10055926862E+03 -0.46596972558E+02 -0.37745840355E+03  0.43774683411E+03  0.19200000000E+03 0.  0.
<mgrwt>
<rscale>  0 0.44497886E+03</rscale>
<asrwt>0</asrwt>
<pdfrwt beam="1">  1        1 0.12721761E+00 0.44497886E+03</pdfrwt>
<pdfrwt beam="2">  1       -1 0.79410042E-02 0.44497886E+03</pdfrwt>
<totfact> 0.19097049E+03</totfact>
</mgrwt>
</event>
<event>
 4    1  0.1454935E-005  0.5386600E+03  0.7818608E-02  0.1004153E+00
         -1   -1    0    0    0  501 -0.00000000000E+00  0.00000000000E+00  0.23225960413E+03  0.23225960418E+03  0.50400000000E-02 0.  1.
          1   -1    0    0  501    0  0.00000000000E+00 -0.00000000000E+00 -0.31231707120E+03  0.31231707124E+03  0.50400000000E-02 0. -1.
    5000001    1    1    2    0    0  0.23034201618E+02  0.14988683761E+03  0.73804671211E+02  0.25555384565E+03  0.19200000000E+03 0.  0.
   -5000001    1    1    2    0    0 -0.23034201618E+02 -0.14988683761E+03 -0.15386213828E+03  0.28902282977E+03  0.19200000000E+03 0.  0.
<mgrwt>
<rscale>  0 0.53865996E+03</rscale>
<asrwt>0</asrwt>
<pdfrwt beam="1">  1        1 0.44616725E-01 0.53865996E+03</pdfrwt>
<pdfrwt beam="2">  1       -1 0.33179943E-01 0.53865996E+03</pdfrwt>
<totfact> 0.78660128E+02</totfact>
</mgrwt>
</event>
<event>
 4    1  0.1454935E-005  0.7740383E+03  0.7818608E-02  0.9598375E-01
          1   -1    0    0  501    0  0.00000000000E+00  0.00000000000E+00  0.40834661128E+04  0.40834661128E+04  0.50400000000E-02 0. -1.
         -1   -1    0    0    0  501 -0.00000000000E+00 -0.00000000000E+00 -0.36680559445E+02  0.36680559792E+02  0.50400000000E-02 0.  1.
    5000001    1    1    2    0    0 -0.30757380415E+03  0.12257082772E+03  0.23289197496E+04  0.23601602600E+04  0.19200000000E+03 0.  0.
   -5000001    1    1    2    0    0  0.30757380415E+03 -0.12257082772E+03  0.17178658037E+04  0.17599864126E+04  0.19200000000E+03 0.  0.
<mgrwt>
<rscale>  0 0.77403830E+03</rscale>
<asrwt>0</asrwt>
<pdfrwt beam="1">  1        1 0.58335206E+00 0.77403830E+03</pdfrwt>
<pdfrwt beam="2">  1       -1 0.52400821E-02 0.77403830E+03</pdfrwt>
<totfact> 0.27120085E+01</totfact>
</mgrwt>
</event>
<event>
 4    1  0.1454935E-005  0.4226873E+03  0.7818608E-02  0.1036195E+00
          1   -1    0    0  501    0  0.00000000000E+00  0.00000000000E+00  0.27178364858E+04  0.27178364858E+04  0.50400000000E-02 0.  1.
         -1   -1    0    0    0  501 -0.00000000000E+00 -0.00000000000E+00 -0.16434442653E+02  0.16434443426E+02  0.50400000000E-02 0. -1.
    5000001    1    1    2    0    0 -0.70671866539E+02  0.50616928177E+02  0.12493364976E+04  0.12669894515E+04  0.19200000000E+03 0.  0.
   -5000001    1    1    2    0    0  0.70671866539E+02 -0.50616928177E+02  0.14520655456E+04  0.14672814777E+04  0.19200000000E+03 0.  0.
<mgrwt>
<rscale>  0 0.42268726E+03</rscale>
<asrwt>0</asrwt>
<pdfrwt beam="1">  1        1 0.38826216E+00 0.42268726E+03</pdfrwt>
<pdfrwt beam="2">  1       -1 0.23477787E-02 0.42268726E+03</pdfrwt>
<totfact> 0.81473164E+02</totfact>
</mgrwt>
</event>
<event>
 4    1  0.1454935E-005  0.7141436E+03  0.7818608E-02  0.9693346E-01
         -1   -1    0    0    0  501 -0.00000000000E+00  0.00000000000E+00  0.25742703532E+03  0.25742703537E+03  0.50400000000E-02 0. -1.
          1   -1    0    0  501    0  0.00000000000E+00 -0.00000000000E+00 -0.49528699695E+03  0.49528699698E+03  0.50400000000E-02 0.  1.
    5000001    1    1    2    0    0 -0.73492997722E+02 -0.29084648624E+03 -0.14566452963E+03  0.38480521626E+03  0.19200000000E+03 0.  0.
   -5000001    1    1    2    0    0  0.73492997722E+02  0.29084648624E+03 -0.92195432000E+02  0.36790881608E+03  0.19200000000E+03 0.  0.
<mgrwt>
<rscale>  0 0.71414358E+03</rscale>
<asrwt>0</asrwt>
<pdfrwt beam="1">  1        1 0.70755285E-01 0.71414358E+03</pdfrwt>
<pdfrwt beam="2">  1       -1 0.36775291E-01 0.71414358E+03</pdfrwt>
<totfact> 0.35654069E+02</totfact>
</mgrwt>
</event>
<event>
 4    1  0.1454935E-005  0.4727602E+03  0.7818608E-02  0.1021144E+00
          1   -1    0    0  501    0  0.00000000000E+00  0.00000000000E+00  0.12189869993E+04  0.12189869993E+04  0.50400000000E-02 0. -1.
         -1   -1    0    0    0  501 -0.00000000000E+00 -0.00000000000E+00 -0.45837684422E+02  0.45837684700E+02  0.50400000000E-02 0.  1.
    5000001    1    1    2    0    0 -0.10727235521E+03  0.75189132060E+02  0.70167234669E+03  0.73916767102E+03  0.19200000000E+03 0.  0.
   -5000001    1    1    2    0    0  0.10727235521E+03 -0.75189132060E+02  0.47147696817E+03  0.52565701297E+03  0.19200000000E+03 0.  0.
<mgrwt>
<rscale>  0 0.47276016E+03</rscale>
<asrwt>0</asrwt>
<pdfrwt beam="1">  1        1 0.17414097E+00 0.47276016E+03</pdfrwt>
<pdfrwt beam="2">  1       -1 0.65482417E-02 0.47276016E+03</pdfrwt>
<totfact> 0.14924790E+03</totfact>
</mgrwt>
</event>
<event>
 4    1  0.1454935E-005  0.5483649E+03  0.7818608E-02  0.1001873E+00
          1   -1    0    0  501    0  0.00000000000E+00  0.00000000000E+00  0.24461859486E+03  0.24461859491E+03  0.50400000000E-02 0.  1.
         -1   -1    0    0    0  501 -0.00000000000E+00 -0.00000000000E+00 -0.30731930504E+03  0.30731930508E+03  0.50400000000E-02 0. -1.
    5000001    1    1    2    0    0  0.17659139115E+03 -0.35569668133E+02  0.45714157030E+02  0.26721434256E+03  0.19200000000E+03 0.  0.
   -5000001    1    1    2    0    0 -0.17659139115E+03  0.35569668133E+02 -0.10841486721E+03  0.28472355742E+03  0.19200000000E+03 0.  0.
<mgrwt>
<rscale>  0 0.54836490E+03</rscale>
<asrwt>0</asrwt>
<pdfrwt beam="1">  1        1 0.34945514E-01 0.54836490E+03</pdfrwt>
<pdfrwt beam="2">  1       -1 0.43902758E-01 0.54836490E+03</pdfrwt>
<totfact> 0.65122500E+02</totfact>
</mgrwt>
</event>
<event>
 4    1  0.1454935E-005  0.8243786E+03  0.7818608E-02  0.9525385E-01
          1   -1    0    0  501    0  0.00000000000E+00  0.00000000000E+00  0.11922873013E+04  0.11922873013E+04  0.50400000000E-02 0. -1.
         -1   -1    0    0    0  501 -0.00000000000E+00 -0.00000000000E+00 -0.14249921120E+03  0.14249921129E+03  0.50400000000E-02 0.  1.
    5000001    1    1    2    0    0  0.17735155584E+03 -0.29607213641E+03  0.71595093238E+03  0.81765642044E+03  0.19200000000E+03 0.  0.
   -5000001    1    1    2    0    0 -0.17735155584E+03  0.29607213641E+03  0.33383715768E+03  0.51713009211E+03  0.19200000000E+03 0.  0.
<mgrwt>
<rscale>  0 0.82437855E+03</rscale>
<asrwt>0</asrwt>
<pdfrwt beam="1">  1        1 0.17032674E+00 0.82437855E+03</pdfrwt>
<pdfrwt beam="2">  1       -1 0.20357032E-01 0.82437855E+03</pdfrwt>
<totfact> 0.25069880E+02</totfact>
</mgrwt>
</event>
<event>
 4    1  0.1454935E-005  0.9692551E+03  0.7818608E-02  0.9342923E-01
         -1   -1    0    0    0  501 -0.00000000000E+00  0.00000000000E+00  0.14201541152E+03  0.14201541161E+03  0.50400000000E-02 0. -1.
          1   -1    0    0  501    0  0.00000000000E+00 -0.00000000000E+00 -0.16537914316E+04  0.16537914316E+04  0.50400000000E-02 0.  1.
    5000001    1    1    2    0    0  0.30986061948E+03 -0.13321947571E+02 -0.13470604288E+04  0.13955740312E+04  0.19200000000E+03 0.  0.
   -5000001    1    1    2    0    0 -0.30986061948E+03  0.13321947571E+02 -0.16471559130E+03  0.40023281201E+03  0.19200000000E+03 0.  0.
<mgrwt>
<rscale>  0 0.96925512E+03</rscale>
<asrwt>0</asrwt>
<pdfrwt beam="1">  1        1 0.23625591E+00 0.96925512E+03</pdfrwt>
<pdfrwt beam="2">  1       -1 0.20287917E-01 0.96925512E+03</pdfrwt>
<totfact> 0.12394605E+02</totfact>
</mgrwt>
</event>
<event>
 4    1  0.1454935E-005  0.5371536E+03  0.7818608E-02  0.1004512E+00
         -1   -1    0    0    0  501 -0.00000000000E+00  0.00000000000E+00  0.13232544253E+03  0.13232544262E+03  0.50400000000E-02 0. -1.
          1   -1    0    0  501    0  0.00000000000E+00 -0.00000000000E+00 -0.54512196463E+03  0.54512196465E+03  0.50400000000E-02 0.  1.
    5000001    1    1    2    0    0  0.32619103049E+02 -0.15267338326E+03 -0.74749328451E+02  0.25850460333E+03  0.19200000000E+03 0.  0.
   -5000001    1    1    2    0    0 -0.32619103049E+02  0.15267338326E+03 -0.33804719365E+03  0.41894280394E+03  0.19200000000E+03 0.  0.
<mgrwt>
<rscale>  0 0.53715363E+03</rscale>
<asrwt>0</asrwt>
<pdfrwt beam="1">  1        1 0.77874565E-01 0.53715363E+03</pdfrwt>
<pdfrwt beam="2">  1       -1 0.18903635E-01 0.53715363E+03</pdfrwt>
<totfact> 0.98288202E+02</totfact>
</mgrwt>
</event>
<event>
 4    1  0.1454935E-005  0.4637470E+03  0.7818608E-02  0.1023700E+00
         -1   -1    0    0    0  501 -0.00000000000E+00  0.00000000000E+00  0.44729011319E+02  0.44729011603E+02  0.50400000000E-02 0. -1.
          1   -1    0    0  501    0  0.00000000000E+00 -0.00000000000E+00 -0.12020234590E+04  0.12020234590E+04  0.50400000000E-02 0.  1.
    5000001    1    1    2    0    0 -0.72453154918E+02 -0.58645789370E+02 -0.33501334531E+03  0.39722377800E+03  0.19200000000E+03 0.  0.
   -5000001    1    1    2    0    0  0.72453154918E+02  0.58645789370E+02 -0.82228110240E+03  0.84952869264E+03  0.19200000000E+03 0.  0.
<mgrwt>
<rscale>  0 0.46374700E+03</rscale>
<asrwt>0</asrwt>
<pdfrwt beam="1">  1        1 0.17171762E+00 0.46374700E+03</pdfrwt>
<pdfrwt beam="2">  1       -1 0.63898595E-02 0.46374700E+03</pdfrwt>
<totfact> 0.15915286E+03</totfact>
</mgrwt>
</event>
<event>
 4    1  0.1454935E-005  0.1674389E+04  0.7818608E-02  0.8776107E-01
          1   -1    0    0  501    0  0.00000000000E+00  0.00000000000E+00  0.87168541803E+03  0.87168541804E+03  0.50400000000E-02 0.  1.
         -1   -1    0    0    0  501 -0.00000000000E+00 -0.00000000000E+00 -0.80406849224E+03  0.80406849226E+03  0.50400000000E-02 0. -1.
    5000001    1    1    2    0    0 -0.51472441123E+03 -0.52777214514E+03  0.38128897820E+03  0.85189784692E+03  0.19200000000E+03 0.  0.
   -5000001    1    1    2    0    0  0.51472441123E+03  0.52777214514E+03 -0.31367205241E+03  0.82385606338E+03  0.19200000000E+03 0.  0.
<mgrwt>
<rscale>  0 0.16743892E+04</rscale>
<asrwt>0</asrwt>
<pdfrwt beam="1">  1        1 0.12452649E+00 0.16743892E+04</pdfrwt>
<pdfrwt beam="2">  1       -1 0.11486693E+00 0.16743892E+04</pdfrwt>
<totfact> 0.14292528E+01</totfact>
</mgrwt>
</event>
<event>
 4    1  0.1454935E-005  0.5588066E+03  0.7818608E-02  0.9994759E-01
          1   -1    0    0  501    0  0.00000000000E+00  0.00000000000E+00  0.89714858095E+02  0.89714858237E+02  0.50400000000E-02 0.  1.
         -1   -1    0    0    0  501 -0.00000000000E+00 -0.00000000000E+00 -0.87015902970E+03  0.87015902971E+03  0.50400000000E-02 0. -1.
    5000001    1    1    2    0    0  0.24469575751E+02  0.19045761321E+03 -0.50324411315E+03  0.57183170600E+03  0.19200000000E+03 0.  0.
   -5000001    1    1    2    0    0 -0.24469575751E+02 -0.19045761321E+03 -0.27720005845E+03  0.38804218195E+03  0.19200000000E+03 0.  0.
<mgrwt>
<rscale>  0 0.55880656E+03</rscale>
<asrwt>0</asrwt>
<pdfrwt beam="1">  1        1 0.12816409E-01 0.55880656E+03</pdfrwt>
<pdfrwt beam="2">  1       -1 0.12430843E+00 0.55880656E+03</pdfrwt>
<totfact> 0.27623556E+02</totfact>
</mgrwt>
</event>
<event>
 4    1  0.1454935E-005  0.1247152E+04  0.7818608E-02  0.9072557E-01
          1   -1    0    0  501    0  0.00000000000E+00  0.00000000000E+00  0.28244358954E+04  0.28244358954E+04  0.50400000000E-02 0. -1.
         -1   -1    0    0    0  501 -0.00000000000E+00 -0.00000000000E+00 -0.13767250724E+03  0.13767250733E+03  0.50400000000E-02 0.  1.
    5000001    1    1    2    0    0 -0.26943099878E+03 -0.33716173896E+03  0.23102304699E+04  0.23580288220E+04  0.19200000000E+03 0.  0.
   -5000001    1    1    2    0    0  0.26943099878E+03  0.33716173896E+03  0.37653291822E+03  0.60407958070E+03  0.19200000000E+03 0.  0.
<mgrwt>
<rscale>  0 0.12471522E+04</rscale>
<asrwt>0</asrwt>
<pdfrwt beam="1">  1        1 0.40349081E+00 0.12471522E+04</pdfrwt>
<pdfrwt beam="2">  1       -1 0.19667502E-01 0.12471522E+04</pdfrwt>
<totfact> 0.23254933E+01</totfact>
</mgrwt>
</event>
<event>
 4    1  0.1454935E-005  0.4578827E+03  0.7818608E-02  0.1025397E+00
          1   -1    0    0  501    0  0.00000000000E+00  0.00000000000E+00  0.15834226573E+03  0.15834226581E+03  0.50400000000E-02 0.  1.
         -1   -1    0    0    0  501 -0.00000000000E+00 -0.00000000000E+00 -0.33101799387E+03  0.33101799391E+03  0.50400000000E-02 0. -1.
    5000001    1    1    2    0    0 -0.79942329491E+02 -0.11069829208E+02  0.15259476014E+02  0.20883047855E+03  0.19200000000E+03 0.  0.
   -5000001    1    1    2    0    0  0.79942329491E+02  0.11069829208E+02 -0.18793520416E+03  0.28052978117E+03  0.19200000000E+03 0.  0.
<mgrwt>
<rscale>  0 0.45788269E+03</rscale>
<asrwt>0</asrwt>
<pdfrwt beam="1">  1        1 0.22620324E-01 0.45788269E+03</pdfrwt>
<pdfrwt beam="2">  1       -1 0.47288285E-01 0.45788269E+03</pdfrwt>
<totfact> 0.99615286E+02</totfact>
</mgrwt>
</event>
<event>
 4    1  0.1454935E-005  0.7700187E+03  0.7818608E-02  0.9604457E-01
         -1   -1    0    0    0  501 -0.00000000000E+00  0.00000000000E+00  0.20163538592E+03  0.20163538599E+03  0.50400000000E-02 0.  1.
          1   -1    0    0  501    0  0.00000000000E+00 -0.00000000000E+00 -0.73514963809E+03  0.73514963811E+03  0.50400000000E-02 0. -1.
    5000001    1    1    2    0    0  0.10863920347E+03  0.31476423391E+03 -0.29366464958E+03  0.48371678272E+03  0.19200000000E+03 0.  0.
   -5000001    1    1    2    0    0 -0.10863920347E+03 -0.31476423391E+03 -0.23984960259E+03  0.45306824137E+03  0.19200000000E+03 0.  0.
<mgrwt>
<rscale>  0 0.77001865E+03</rscale>
<asrwt>0</asrwt>
<pdfrwt beam="1">  1        1 0.10502138E+00 0.77001865E+03</pdfrwt>
<pdfrwt beam="2">  1       -1 0.28805055E-01 0.77001865E+03</pdfrwt>
<totfact> 0.31282686E+02</totfact>
</mgrwt>
</event>
<event>
 4    1  0.1454935E-005  0.6971197E+03  0.7818608E-02  0.9722171E-01
         -1   -1    0    0    0  501 -0.00000000000E+00  0.00000000000E+00  0.41068024811E+03  0.41068024814E+03  0.50400000000E-02 0.  1.
          1   -1    0    0  501    0  0.00000000000E+00 -0.00000000000E+00 -0.29583592052E+03  0.29583592056E+03  0.50400000000E-02 0. -1.
    5000001    1    1    2    0    0  0.12646292099E+03 -0.16660978542E+03  0.26233116997E+03  0.38656607937E+03  0.19200000000E+03 0.  0.
   -5000001    1    1    2    0    0 -0.12646292099E+03  0.16660978542E+03 -0.14748684238E+03  0.31995008933E+03  0.19200000000E+03 0.  0.
<mgrwt>
<rscale>  0 0.69711970E+03</rscale>
<asrwt>0</asrwt>
<pdfrwt beam="1">  1        1 0.42262275E-01 0.69711970E+03</pdfrwt>
<pdfrwt beam="2">  1       -1 0.58668606E-01 0.69711970E+03</pdfrwt>
<totfact> 0.29321067E+02</totfact>
</mgrwt>
</event>
<event>
 4    1  0.1454935E-005  0.4044741E+03  0.7818608E-02  0.1042241E+00
         -1   -1    0    0    0  501 -0.00000000000E+00  0.00000000000E+00  0.63734633695E+03  0.63734633697E+03  0.50400000000E-02 0.  1.
          1   -1    0    0  501    0  0.00000000000E+00 -0.00000000000E+00 -0.64172063986E+02  0.64172064184E+02  0.50400000000E-02 0. -1.
    5000001    1    1    2    0    0 -0.57178187421E+02 -0.15002332843E+02  0.32694362922E+03  0.38373239608E+03  0.19200000000E+03 0.  0.
   -5000001    1    1    2    0    0  0.57178187421E+02  0.15002332843E+02  0.24623064374E+03  0.31778600508E+03  0.19200000000E+03 0.  0.
<mgrwt>
<rscale>  0 0.40447413E+03</rscale>
<asrwt>0</asrwt>
<pdfrwt beam="1">  1        1 0.91674382E-02 0.40447413E+03</pdfrwt>
<pdfrwt beam="2">  1       -1 0.91049472E-01 0.40447413E+03</pdfrwt>
<totfact> 0.89772180E+02</totfact>
</mgrwt>
</event>
<event>
 4    1  0.1454935E-005  0.7217903E+03  0.7818608E-02  0.9680677E-01
          1   -1    0    0  501    0  0.00000000000E+00  0.00000000000E+00  0.67834042174E+03  0.67834042176E+03  0.50400000000E-02 0.  1.
         -1   -1    0    0    0  501 -0.00000000000E+00 -0.00000000000E+00 -0.19200580259E+03  0.19200580265E+03  0.50400000000E-02 0. -1.
    5000001    1    1    2    0    0  0.28397227438E+03  0.46352159975E+02  0.11906475775E+03  0.36582672385E+03  0.19200000000E+03 0.  0.
   -5000001    1    1    2    0    0 -0.28397227438E+03 -0.46352159975E+02  0.36726986141E+03  0.50451950056E+03  0.19200000000E+03 0.  0.
<mgrwt>
<rscale>  0 0.72179027E+03</rscale>
<asrwt>0</asrwt>
<pdfrwt beam="1">  1        1 0.96905776E-01 0.72179027E+03</pdfrwt>
<pdfrwt beam="2">  1       -1 0.27429400E-01 0.72179027E+03</pdfrwt>
<totfact> 0.38419265E+02</totfact>
</mgrwt>
</event>
<event>
 4    1  0.1454935E-005  0.5094109E+03  0.7818608E-02  0.1011351E+00
         -1   -1    0    0    0  501 -0.00000000000E+00  0.00000000000E+00  0.44161061756E+02  0.44161062043E+02  0.50400000000E-02 0. -1.
          1   -1    0    0  501    0  0.00000000000E+00 -0.00000000000E+00 -0.14690511666E+04  0.14690511666E+04  0.50400000000E-02 0.  1.
    5000001    1    1    2    0    0  0.12659220039E+03  0.85503032047E+02 -0.50934993434E+03  0.56536511150E+03  0.19200000000E+03 0.  0.
   -5000001    1    1    2    0    0 -0.12659220039E+03 -0.85503032047E+02 -0.91554017054E+03  0.94784711719E+03  0.19200000000E+03 0.  0.
<mgrwt>
<rscale>  0 0.50941087E+03</rscale>
<asrwt>0</asrwt>
<pdfrwt beam="1">  1        1 0.20986442E+00 0.50941087E+03</pdfrwt>
<pdfrwt beam="2">  1       -1 0.63087240E-02 0.50941087E+03</pdfrwt>
<totfact> 0.10816472E+03</totfact>
</mgrwt>
</event>
<event>
 4    1  0.1454935E-005  0.5231206E+03  0.7818608E-02  0.1007914E+00
          1   -1    0    0  501    0  0.00000000000E+00  0.00000000000E+00  0.11858062825E+04  0.11858062825E+04  0.50400000000E-02 0.  1.
         -1   -1    0    0    0  501 -0.00000000000E+00 -0.00000000000E+00 -0.57693908378E+02  0.57693908598E+02  0.50400000000E-02 0. -1.
    5000001    1    1    2    0    0 -0.16412265532E+03 -0.46604308746E+02  0.68151362283E+03  0.72830833147E+03  0.19200000000E+03 0.  0.
   -5000001    1    1    2    0    0  0.16412265532E+03  0.46604308746E+02  0.44659875127E+03  0.51519185962E+03  0.19200000000E+03 0.  0.
<mgrwt>
<rscale>  0 0.52312063E+03</rscale>
<asrwt>0</asrwt>
<pdfrwt beam="1">  1        1 0.16940089E+00 0.52312063E+03</pdfrwt>
<pdfrwt beam="2">  1       -1 0.82419872E-02 0.52312063E+03</pdfrwt>
<totfact> 0.10998950E+03</totfact>
</mgrwt>
</event>
<event>
 4    1  0.1454935E-005  0.9172795E+03  0.7818608E-02  0.9404235E-01
         -1   -1    0    0    0  501 -0.00000000000E+00  0.00000000000E+00  0.45768098493E+03  0.45768098495E+03  0.50400000000E-02 0. -1.
          1   -1    0    0  501    0  0.00000000000E+00 -0.00000000000E+00 -0.45960051879E+03  0.45960051882E+03  0.50400000000E-02 0.  1.
    5000001    1    1    2    0    0  0.40604688150E+03 -0.20833529626E+02  0.89474452353E+02  0.45845150622E+03  0.19200000000E+03 0.  0.
   -5000001    1    1    2    0    0 -0.40604688150E+03  0.20833529626E+02 -0.91393986222E+02  0.45882999755E+03  0.19200000000E+03 0.  0.
<mgrwt>
<rscale>  0 0.91727950E+03</rscale>
<asrwt>0</asrwt>
<pdfrwt beam="1">  1        1 0.65657217E-01 0.91727950E+03</pdfrwt>
<pdfrwt beam="2">  1       -1 0.65382998E-01 0.91727950E+03</pdfrwt>
<totfact> 0.13137260E+02</totfact>
</mgrwt>
</event>
<event>
 4    1  0.1454935E-005  0.1002466E+04  0.7818608E-02  0.9305844E-01
         -1   -1    0    0    0  501 -0.00000000000E+00  0.00000000000E+00  0.14630398194E+04  0.14630398194E+04  0.50400000000E-02 0. -1.
          1   -1    0    0  501    0  0.00000000000E+00 -0.00000000000E+00 -0.17172103378E+03  0.17172103386E+03  0.50400000000E-02 0.  1.
    5000001    1    1    2    0    0  0.43896145670E+03  0.88242604288E+02  0.45342030291E+03  0.66552827797E+03  0.19200000000E+03 0.  0.
   -5000001    1    1    2    0    0 -0.43896145670E+03 -0.88242604288E+02  0.83789848267E+03  0.96923257526E+03  0.19200000000E+03 0.  0.
<mgrwt>
<rscale>  0 0.10024664E+04</rscale>
<asrwt>0</asrwt>
<pdfrwt beam="1">  1        1 0.24531575E-01 0.10024664E+04</pdfrwt>
<pdfrwt beam="2">  1       -1 0.20900570E+00 0.10024664E+04</pdfrwt>
<totfact> 0.26282997E+01</totfact>
</mgrwt>
</event>
<event>
 4    1  0.1454935E-005  0.4542118E+03  0.7818608E-02  0.1026473E+00
         -1   -1    0    0    0  501 -0.00000000000E+00  0.00000000000E+00  0.78820366741E+02  0.78820366902E+02  0.50400000000E-02 0. -1.
          1   -1    0    0  501    0  0.00000000000E+00 -0.00000000000E+00 -0.65436249207E+03  0.65436249209E+03  0.50400000000E-02 0.  1.
    5000001    1    1    2    0    0  0.10484536448E+03  0.11859326263E+02 -0.19119062153E+03  0.29077662876E+03  0.19200000000E+03 0.  0.
   -5000001    1    1    2    0    0 -0.10484536448E+03 -0.11859326263E+02 -0.38435150380E+03  0.44240623023E+03  0.19200000000E+03 0.  0.
<mgrwt>
<rscale>  0 0.45421181E+03</rscale>
<asrwt>0</asrwt>
<pdfrwt beam="1">  1        1 0.93480353E-01 0.45421181E+03</pdfrwt>
<pdfrwt beam="2">  1       -1 0.11260053E-01 0.45421181E+03</pdfrwt>
<totfact> 0.17560765E+03</totfact>
</mgrwt>
</event>
<event>
 4    1  0.1454935E-005  0.1198321E+04  0.7818608E-02  0.9114328E-01
          1   -1    0    0  501    0  0.00000000000E+00  0.00000000000E+00  0.22596432879E+04  0.22596432879E+04  0.50400000000E-02 0.  1.
         -1   -1    0    0    0  501 -0.00000000000E+00 -0.00000000000E+00 -0.15887164429E+03  0.15887164437E+03  0.50400000000E-02 0. -1.
    5000001    1    1    2    0    0  0.49937699088E+03 -0.17639832755E+03  0.63856575052E+03  0.85154211095E+03  0.19200000000E+03 0.  0.
   -5000001    1    1    2    0    0 -0.49937699088E+03  0.17639832755E+03  0.14622058930E+04  0.15669728213E+04  0.19200000000E+03 0.  0.
<mgrwt>
<rscale>  0 0.11983209E+04</rscale>
<asrwt>0</asrwt>
<pdfrwt beam="1">  1        1 0.32280617E+00 0.11983209E+04</pdfrwt>
<pdfrwt beam="2">  1       -1 0.22695950E-01 0.11983209E+04</pdfrwt>
<totfact> 0.41917019E+01</totfact>
</mgrwt>
</event>
<event>
 4    1  0.1454935E-005  0.8999151E+03  0.7818608E-02  0.9425688E-01
         -1   -1    0    0    0  501 -0.00000000000E+00  0.00000000000E+00  0.60284724180E+02  0.60284724391E+02  0.50400000000E-02 0.  1.
          1   -1    0    0  501    0  0.00000000000E+00 -0.00000000000E+00 -0.33584265266E+04  0.33584265266E+04  0.50400000000E-02 0. -1.
    5000001    1    1    2    0    0 -0.20999716332E+03  0.33668138346E+03 -0.13062263933E+04  0.13786023912E+04  0.19200000000E+03 0.  0.
   -5000001    1    1    2    0    0  0.20999716332E+03 -0.33668138346E+03 -0.19919154092E+04  0.20401088598E+04  0.19200000000E+03 0.  0.
<mgrwt>
<rscale>  0 0.89991515E+03</rscale>
<asrwt>0</asrwt>
<pdfrwt beam="1">  1        1 0.47977510E+00 0.89991515E+03</pdfrwt>
<pdfrwt beam="2">  1       -1 0.86121056E-02 0.89991515E+03</pdfrwt>
<totfact> 0.40712745E+01</totfact>
</mgrwt>
</event>
<event>
 4    1  0.1454935E-005  0.7207537E+03  0.7818608E-02  0.9682384E-01
          1   -1    0    0  501    0  0.00000000000E+00  0.00000000000E+00  0.33908549261E+04  0.33908549261E+04  0.50400000000E-02 0. -1.
         -1   -1    0    0    0  501 -0.00000000000E+00 -0.00000000000E+00 -0.38300508749E+02  0.38300509081E+02  0.50400000000E-02 0.  1.
    5000001    1    1    2    0    0 -0.26205197293E+03  0.12974118680E+03  0.12641502679E+04  0.13116569338E+04  0.19200000000E+03 0.  0.
   -5000001    1    1    2    0    0  0.26205197293E+03 -0.12974118680E+03  0.20884041494E+04  0.21174985014E+04  0.19200000000E+03 0.  0.
<mgrwt>
<rscale>  0 0.72075369E+03</rscale>
<asrwt>0</asrwt>
<pdfrwt beam="1">  1        1 0.48440771E+00 0.72075369E+03</pdfrwt>
<pdfrwt beam="2">  1       -1 0.54715029E-02 0.72075369E+03</pdfrwt>
<totfact> 0.80085400E+01</totfact>
</mgrwt>
</event>
<event>
 4    1  0.1454935E-005  0.4873049E+03  0.7818608E-02  0.1017147E+00
          1   -1    0    0  501    0  0.00000000000E+00  0.00000000000E+00  0.79581955971E+03  0.79581955973E+03  0.50400000000E-02 0. -1.
         -1   -1    0    0    0  501 -0.00000000000E+00 -0.00000000000E+00 -0.74597964866E+02  0.74597965036E+02  0.50400000000E-02 0.  1.
    5000001    1    1    2    0    0 -0.10743329972E+03 -0.10072084310E+03  0.30958968032E+03  0.39293303791E+03  0.19200000000E+03 0.  0.
   -5000001    1    1    2    0    0  0.10743329972E+03  0.10072084310E+03  0.41163191453E+03  0.47748448685E+03  0.19200000000E+03 0.  0.
<mgrwt>
<rscale>  0 0.48730491E+03</rscale>
<asrwt>0</asrwt>
<pdfrwt beam="1">  1        1 0.11368850E+00 0.48730491E+03</pdfrwt>
<pdfrwt beam="2">  1       -1 0.10656853E-01 0.48730491E+03</pdfrwt>
<totfact> 0.14368025E+03</totfact>
</mgrwt>
</event>
<event>
 4    1  0.1454935E-005  0.4528613E+03  0.7818608E-02  0.1026872E+00
         -1   -1    0    0    0  501 -0.00000000000E+00  0.00000000000E+00  0.94024229706E+02  0.94024229841E+02  0.50400000000E-02 0. -1.
          1   -1    0    0  501    0  0.00000000000E+00 -0.00000000000E+00 -0.54529378879E+03  0.54529378882E+03  0.50400000000E-02 0.  1.
    5000001    1    1    2    0    0 -0.10339545716E+03 -0.53728263771E+02 -0.26629363641E+03  0.34835850453E+03  0.19200000000E+03 0.  0.
   -5000001    1    1    2    0    0  0.10339545716E+03  0.53728263771E+02 -0.18497592268E+03  0.29095951413E+03  0.19200000000E+03 0.  0.
<mgrwt>
<rscale>  0 0.45286125E+03</rscale>
<asrwt>0</asrwt>
<pdfrwt beam="1">  1        1 0.77899111E-01 0.45286125E+03</pdfrwt>
<pdfrwt beam="2">  1       -1 0.13432033E-01 0.45286125E+03</pdfrwt>
<totfact> 0.17093980E+03</totfact>
</mgrwt>
</event>
<event>
 4    1  0.1454935E-005  0.5212985E+03  0.7818608E-02  0.1008364E+00
          1   -1    0    0  501    0  0.00000000000E+00  0.00000000000E+00  0.81413568143E+03  0.81413568145E+03  0.50400000000E-02 0.  1.
         -1   -1    0    0    0  501 -0.00000000000E+00 -0.00000000000E+00 -0.83448056419E+02  0.83448056572E+02  0.50400000000E-02 0. -1.
    5000001    1    1    2    0    0 -0.14447554136E+03 -0.99550062009E+02  0.33598971402E+03  0.42489585174E+03  0.19200000000E+03 0.  0.
   -5000001    1    1    2    0    0  0.14447554136E+03  0.99550062009E+02  0.39469791099E+03  0.47268788628E+03  0.19200000000E+03 0.  0.
<mgrwt>
<rscale>  0 0.52129853E+03</rscale>
<asrwt>0</asrwt>
<pdfrwt beam="1">  1        1 0.11630510E+00 0.52129853E+03</pdfrwt>
<pdfrwt beam="2">  1       -1 0.11921151E-01 0.52129853E+03</pdfrwt>
<totfact> 0.11615695E+03</totfact>
</mgrwt>
</event>
<event>
 4    1  0.1454935E-005  0.4564772E+03  0.7818608E-02  0.1025808E+00
          1   -1    0    0  501    0  0.00000000000E+00  0.00000000000E+00  0.25340818745E+03  0.25340818750E+03  0.50400000000E-02 0.  1.
         -1   -1    0    0    0  501 -0.00000000000E+00 -0.00000000000E+00 -0.20556898935E+03  0.20556898941E+03  0.50400000000E-02 0. -1.
    5000001    1    1    2    0    0  0.47706979964E+01 -0.10123605639E+03 -0.46874568551E+02  0.22210971129E+03  0.19200000000E+03 0.  0.
   -5000001    1    1    2    0    0 -0.47706979964E+01  0.10123605639E+03  0.94713766650E+02  0.23686746561E+03  0.19200000000E+03 0.  0.
<mgrwt>
<rscale>  0 0.45647723E+03</rscale>
<asrwt>0</asrwt>
<pdfrwt beam="1">  1        1 0.36201170E-01 0.45647723E+03</pdfrwt>
<pdfrwt beam="2">  1       -1 0.29366998E-01 0.45647723E+03</pdfrwt>
<totfact> 0.12710416E+03</totfact>
</mgrwt>
</event>
<event>
 4    1  0.1454935E-005  0.8983069E+03  0.7818608E-02  0.9427700E-01
         -1   -1    0    0    0  501 -0.00000000000E+00  0.00000000000E+00  0.54896282545E+03  0.54896282547E+03  0.50400000000E-02 0.  1.
          1   -1    0    0  501    0  0.00000000000E+00 -0.00000000000E+00 -0.36749085760E+03  0.36749085763E+03  0.50400000000E-02 0. -1.
    5000001    1    1    2    0    0  0.32821151880E+01  0.33208814289E+03 -0.14761040207E+03  0.41103058004E+03  0.19200000000E+03 0.  0.
   -5000001    1    1    2    0    0 -0.32821151880E+01 -0.33208814289E+03  0.32908236992E+03  0.50542310307E+03  0.19200000000E+03 0.  0.
<mgrwt>
<rscale>  0 0.89830690E+03</rscale>
<asrwt>0</asrwt>
<pdfrwt beam="1">  1        1 0.52498694E-01 0.89830690E+03</pdfrwt>
<pdfrwt beam="2">  1       -1 0.78423260E-01 0.89830690E+03</pdfrwt>
<totfact> 0.12148364E+02</totfact>
</mgrwt>
</event>
<event>
 4    1  0.1454935E-005  0.6196643E+03  0.7818608E-02  0.9865428E-01
          1   -1    0    0  501    0  0.00000000000E+00  0.00000000000E+00  0.15818037903E+04  0.15818037903E+04  0.50400000000E-02 0. -1.
         -1   -1    0    0    0  501 -0.00000000000E+00 -0.00000000000E+00 -0.60687654380E+02  0.60687654590E+02  0.50400000000E-02 0.  1.
    5000001    1    1    2    0    0 -0.15198178583E+03 -0.18970430995E+03  0.74262504369E+03  0.80463789617E+03  0.19200000000E+03 0.  0.
   -5000001    1    1    2    0    0  0.15198178583E+03  0.18970430995E+03  0.77849109227E+03  0.83785354876E+03  0.19200000000E+03 0.  0.
<mgrwt>
<rscale>  0 0.61966430E+03</rscale>
<asrwt>0</asrwt>
<pdfrwt beam="1">  1        1 0.22597198E+00 0.61966430E+03</pdfrwt>
<pdfrwt beam="2">  1       -1 0.86696645E-02 0.61966430E+03</pdfrwt>
<totfact> 0.55660816E+02</totfact>
</mgrwt>
</event>
<event>
 4    1  0.1454935E-005  0.1061376E+04  0.7818608E-02  0.9243677E-01
         -1   -1    0    0    0  501 -0.00000000000E+00  0.00000000000E+00  0.16503498975E+03  0.16503498983E+03  0.50400000000E-02 0. -1.
          1   -1    0    0  501    0  0.00000000000E+00 -0.00000000000E+00 -0.17064864515E+04  0.17064864515E+04  0.50400000000E-02 0.  1.
    5000001    1    1    2    0    0  0.40597195040E+03 -0.17794987529E+03 -0.11581962358E+04  0.12548951762E+04  0.19200000000E+03 0.  0.
   -5000001    1    1    2    0    0 -0.40597195040E+03  0.17794987529E+03 -0.38325522594E+03  0.61662626513E+03  0.19200000000E+03 0.  0.
<mgrwt>
<rscale>  0 0.10613764E+04</rscale>
<asrwt>0</asrwt>
<pdfrwt beam="1">  1        1 0.24378377E+00 0.10613764E+04</pdfrwt>
<pdfrwt beam="2">  1       -1 0.23576428E-01 0.10613764E+04</pdfrwt>
<totfact> 0.88443744E+01</totfact>
</mgrwt>
</event>
<event>
 4    1  0.1454935E-005  0.6473258E+03  0.7818608E-02  0.9811810E-01
          1   -1    0    0  501    0  0.00000000000E+00  0.00000000000E+00  0.90236620171E+03  0.90236620173E+03  0.50400000000E-02 0. -1.
         -1   -1    0    0    0  501 -0.00000000000E+00 -0.00000000000E+00 -0.11609219840E+03  0.11609219850E+03  0.50400000000E-02 0.  1.
    5000001    1    1    2    0    0  0.13984804798E+03  0.21985289211E+03  0.39463413840E+03  0.51038502514E+03  0.19200000000E+03 0.  0.
   -5000001    1    1    2    0    0 -0.13984804798E+03 -0.21985289211E+03  0.39163986492E+03  0.50807337510E+03  0.19200000000E+03 0.  0.
<mgrwt>
<rscale>  0 0.64732581E+03</rscale>
<asrwt>0</asrwt>
<pdfrwt beam="1">  1        1 0.12890946E+00 0.64732581E+03</pdfrwt>
<pdfrwt beam="2">  1       -1 0.16584599E-01 0.64732581E+03</pdfrwt>
<totfact> 0.57797305E+02</totfact>
</mgrwt>
</event>
<event>
 4    1  0.1454935E-005  0.4457394E+03  0.7818608E-02  0.1029000E+00
          1   -1    0    0  501    0  0.00000000000E+00  0.00000000000E+00  0.20018013003E+03  0.20018013009E+03  0.50400000000E-02 0. -1.
         -1   -1    0    0    0  501 -0.00000000000E+00 -0.00000000000E+00 -0.24813100747E+03  0.24813100752E+03  0.50400000000E-02 0.  1.
    5000001    1    1    2    0    0  0.31116724233E+02 -0.10263947494E+03  0.12340855310E+02  0.22027121703E+03  0.19200000000E+03 0.  0.
   -5000001    1    1    2    0    0 -0.31116724233E+02  0.10263947494E+03 -0.60291732749E+02  0.22803992059E+03  0.19200000000E+03 0.  0.
<mgrwt>
<rscale>  0 0.44573937E+03</rscale>
<asrwt>0</asrwt>
<pdfrwt beam="1">  1        1 0.28597162E-01 0.44573937E+03</pdfrwt>
<pdfrwt beam="2">  1       -1 0.35447287E-01 0.44573937E+03</pdfrwt>
<totfact> 0.12384965E+03</totfact>
</mgrwt>
</event>
<event>
 4    1  0.1454935E-005  0.1174810E+04  0.7818608E-02  0.9135196E-01
         -1   -1    0    0    0  501 -0.00000000000E+00  0.00000000000E+00  0.30911746066E+03  0.30911746070E+03  0.50400000000E-02 0. -1.
          1   -1    0    0  501    0  0.00000000000E+00 -0.00000000000E+00 -0.11162245070E+04  0.11162245070E+04  0.50400000000E-02 0.  1.
    5000001    1    1    2    0    0 -0.50988267992E+03  0.10120417788E+03 -0.16717808476E+03  0.57882220494E+03  0.19200000000E+03 0.  0.
   -5000001    1    1    2    0    0  0.50988267992E+03 -0.10120417788E+03 -0.63992896157E+03  0.84651976277E+03  0.19200000000E+03 0.  0.
<mgrwt>
<rscale>  0 0.11748097E+04</rscale>
<asrwt>0</asrwt>
<pdfrwt beam="1">  1        1 0.15946064E+00 0.11748097E+04</pdfrwt>
<pdfrwt beam="2">  1       -1 0.44159638E-01 0.11748097E+04</pdfrwt>
<totfact> 0.71299185E+01</totfact>
</mgrwt>
</event>
<event>
 4    1  0.1454935E-005  0.5028950E+03  0.7818608E-02  0.1013026E+00
         -1   -1    0    0    0  501 -0.00000000000E+00  0.00000000000E+00  0.46054370306E+03  0.46054370309E+03  0.50400000000E-02 0. -1.
          1   -1    0    0  501    0  0.00000000000E+00 -0.00000000000E+00 -0.13728520317E+03  0.13728520327E+03  0.50400000000E-02 0.  1.
    5000001    1    1    2    0    0 -0.27945699806E+02  0.58274404666E+02 -0.15434241346E+02  0.20317254781E+03  0.19200000000E+03 0.  0.
   -5000001    1    1    2    0    0  0.27945699806E+02 -0.58274404666E+02  0.33869274124E+03  0.39465635855E+03  0.19200000000E+03 0.  0.
<mgrwt>
<rscale>  0 0.50289496E+03</rscale>
<asrwt>0</asrwt>
<pdfrwt beam="1">  1        1 0.19612172E-01 0.50289496E+03</pdfrwt>
<pdfrwt beam="2">  1       -1 0.65791958E-01 0.50289496E+03</pdfrwt>
<totfact> 0.63626863E+02</totfact>
</mgrwt>
</event>
<event>
 4    1  0.1454935E-005  0.4756383E+03  0.7818608E-02  0.1020341E+00
          1   -1    0    0  501    0  0.00000000000E+00  0.00000000000E+00  0.21959013640E+04  0.21959013640E+04  0.50400000000E-02 0.  1.
         -1   -1    0    0    0  501 -0.00000000000E+00 -0.00000000000E+00 -0.25756138968E+02  0.25756139461E+02  0.50400000000E-02 0. -1.
    5000001    1    1    2    0    0 -0.14005359876E+03 -0.79570393050E+01  0.11035307814E+04  0.11288589419E+04  0.19200000000E+03 0.  0.
   -5000001    1    1    2    0    0  0.14005359876E+03  0.79570393050E+01  0.10666144436E+04  0.10927985616E+04  0.19200000000E+03 0.  0.
<mgrwt>
<rscale>  0 0.47563827E+03</rscale>
<asrwt>0</asrwt>
<pdfrwt beam="1">  1        1 0.31370007E+00 0.47563827E+03</pdfrwt>
<pdfrwt beam="2">  1       -1 0.36794499E-02 0.47563827E+03</pdfrwt>
<totfact> 0.87092848E+02</totfact>
</mgrwt>
</event>
<event>
 4    1  0.1454935E-005  0.4567543E+03  0.7818608E-02  0.1025727E+00
          1   -1    0    0  501    0  0.00000000000E+00  0.00000000000E+00  0.19122717606E+04  0.19122717606E+04  0.50400000000E-02 0. -1.
         -1   -1    0    0    0  501 -0.00000000000E+00 -0.00000000000E+00 -0.27274427299E+02  0.27274427764E+02  0.50400000000E-02 0.  1.
    5000001    1    1    2    0    0 -0.10550364931E+03  0.13366423707E+02  0.67452512257E+03  0.70933618424E+03  0.19200000000E+03 0.  0.
   -5000001    1    1    2    0    0  0.10550364931E+03 -0.13366423707E+02  0.12104722107E+04  0.12302100041E+04  0.19200000000E+03 0.  0.
<mgrwt>
<rscale>  0 0.45675428E+03</rscale>
<asrwt>0</asrwt>
<pdfrwt beam="1">  1        1 0.27318173E+00 0.45675428E+03</pdfrwt>
<pdfrwt beam="2">  1       -1 0.38963461E-02 0.45675428E+03</pdfrwt>
<totfact> 0.11936693E+03</totfact>
</mgrwt>
</event>
<event>
 4    1  0.1454935E-005  0.8677625E+03  0.7818608E-02  0.9466802E-01
         -1   -1    0    0    0  501 -0.00000000000E+00  0.00000000000E+00  0.13542976944E+03  0.13542976954E+03  0.50400000000E-02 0. -1.
          1   -1    0    0  501    0  0.00000000000E+00 -0.00000000000E+00 -0.13900410423E+04  0.13900410423E+04  0.50400000000E-02 0.  1.
    5000001    1    1    2    0    0  0.10311659369E+03 -0.30488959747E+03 -0.24297148640E+03  0.44664285704E+03  0.19200000000E+03 0.  0.
   -5000001    1    1    2    0    0 -0.10311659369E+03  0.30488959747E+03 -0.10116397865E+04  0.10788279548E+04  0.19200000000E+03 0.  0.
<mgrwt>
<rscale>  0 0.86776250E+03</rscale>
<asrwt>0</asrwt>
<pdfrwt beam="1">  1        1 0.19857728E+00 0.86776250E+03</pdfrwt>
<pdfrwt beam="2">  1       -1 0.19347111E-01 0.86776250E+03</pdfrwt>
<totfact> 0.20015161E+02</totfact>
</mgrwt>
</event>
<event>
 4    1  0.1454935E-005  0.7283703E+03  0.7818608E-02  0.9669909E-01
          1   -1    0    0  501    0  0.00000000000E+00  0.00000000000E+00  0.10677921432E+04  0.10677921432E+04  0.50400000000E-02 0. -1.
         -1   -1    0    0    0  501 -0.00000000000E+00 -0.00000000000E+00 -0.12421035095E+03  0.12421035105E+03  0.50400000000E-02 0.  1.
    5000001    1    1    2    0    0  0.20522262304E+03  0.21688106812E+03  0.60487553321E+03  0.70135022164E+03  0.19200000000E+03 0.  0.
   -5000001    1    1    2    0    0 -0.20522262304E+03 -0.21688106812E+03  0.33870625902E+03  0.49065227261E+03  0.19200000000E+03 0.  0.
<mgrwt>
<rscale>  0 0.72837034E+03</rscale>
<asrwt>0</asrwt>
<pdfrwt beam="1">  1        1 0.15254173E+00 0.72837034E+03</pdfrwt>
<pdfrwt beam="2">  1       -1 0.17744337E-01 0.72837034E+03</pdfrwt>
<totfact> 0.38754366E+02</totfact>
</mgrwt>
</event>
<event>
 4    1  0.1454935E-005  0.6211680E+03  0.7818608E-02  0.9862437E-01
          1   -1    0    0  501    0  0.00000000000E+00  0.00000000000E+00  0.14612837107E+03  0.14612837115E+03  0.50400000000E-02 0.  1.
         -1   -1    0    0    0  501 -0.00000000000E+00 -0.00000000000E+00 -0.66012110434E+03  0.66012110436E+03  0.50400000000E-02 0. -1.
    5000001    1    1    2    0    0 -0.16829948876E+03  0.10937032300E+03 -0.76623106810E+02  0.28813483991E+03  0.19200000000E+03 0.  0.
   -5000001    1    1    2    0    0  0.16829948876E+03 -0.10937032300E+03 -0.43736962646E+03  0.51811463560E+03  0.19200000000E+03 0.  0.
<mgrwt>
<rscale>  0 0.62116800E+03</rscale>
<asrwt>0</asrwt>
<pdfrwt beam="1">  1        1 0.20875482E-01 0.62116800E+03</pdfrwt>
<pdfrwt beam="2">  1       -1 0.94303013E-01 0.62116800E+03</pdfrwt>
<totfact> 0.27390647E+02</totfact>
</mgrwt>
</event>
<event>
 4    1  0.1454935E-005  0.1054627E+04  0.7818608E-02  0.9250580E-01
          1   -1    0    0  501    0  0.00000000000E+00  0.00000000000E+00  0.35671778025E+03  0.35671778029E+03  0.50400000000E-02 0.  1.
         -1   -1    0    0    0  501 -0.00000000000E+00 -0.00000000000E+00 -0.77949504942E+03  0.77949504944E+03  0.50400000000E-02 0. -1.
    5000001    1    1    2    0    0  0.57412922229E+01 -0.49076341607E+03 -0.23048103694E+03  0.57521057134E+03  0.19200000000E+03 0.  0.
   -5000001    1    1    2    0    0 -0.57412922229E+01  0.49076341607E+03 -0.19229623223E+03  0.56100225839E+03  0.19200000000E+03 0.  0.
<mgrwt>
<rscale>  0 0.10546274E+04</rscale>
<asrwt>0</asrwt>
<pdfrwt beam="1">  1        1 0.50959683E-01 0.10546274E+04</pdfrwt>
<pdfrwt beam="2">  1       -1 0.11135643E+00 0.10546274E+04</pdfrwt>
<totfact> 0.57089308E+01</totfact>
</mgrwt>
</event>
<event>
 4    1  0.1454935E-005  0.4197117E+03  0.7818608E-02  0.1037160E+00
          1   -1    0    0  501    0  0.00000000000E+00  0.00000000000E+00  0.58273331045E+02  0.58273331263E+02  0.50400000000E-02 0.  1.
         -1   -1    0    0    0  501 -0.00000000000E+00 -0.00000000000E+00 -0.75573986223E+03  0.75573986224E+03  0.50400000000E-02 0. -1.
    5000001    1    1    2    0    0 -0.50799886030E+02  0.66731982263E+02 -0.37181960957E+03  0.42678754426E+03  0.19200000000E+03 0.  0.
   -5000001    1    1    2    0    0  0.50799886030E+02 -0.66731982263E+02 -0.32564692161E+03  0.38722564925E+03  0.19200000000E+03 0.  0.
<mgrwt>
<rscale>  0 0.41971171E+03</rscale>
<asrwt>0</asrwt>
<pdfrwt beam="1">  1        1 0.83247621E-02 0.41971171E+03</pdfrwt>
<pdfrwt beam="2">  1       -1 0.10796283E+00 0.41971171E+03</pdfrwt>
<totfact> 0.69890494E+02</totfact>
</mgrwt>
</event>
<event>
 4    1  0.1454935E-005  0.9295082E+03  0.7818608E-02  0.9389428E-01
         -1   -1    0    0    0  501 -0.00000000000E+00  0.00000000000E+00  0.54006798265E+03  0.54006798267E+03  0.50400000000E-02 0. -1.
          1   -1    0    0  501    0  0.00000000000E+00 -0.00000000000E+00 -0.39994289254E+03  0.39994289258E+03  0.50400000000E-02 0.  1.
    5000001    1    1    2    0    0  0.11728271043E+03  0.34485345214E+03 -0.14790285387E+03  0.43751387612E+03  0.19200000000E+03 0.  0.
   -5000001    1    1    2    0    0 -0.11728271043E+03 -0.34485345214E+03  0.28802794398E+03  0.50249699913E+03  0.19200000000E+03 0.  0.
<mgrwt>
<rscale>  0 0.92950815E+03</rscale>
<asrwt>0</asrwt>
<pdfrwt beam="1">  1        1 0.57134699E-01 0.92950815E+03</pdfrwt>
<pdfrwt beam="2">  1       -1 0.77152569E-01 0.92950815E+03</pdfrwt>
<totfact> 0.11231268E+02</totfact>
</mgrwt>
</event>
<event>
 4    1  0.1454935E-005  0.6183971E+03  0.7818608E-02  0.9867956E-01
         -1   -1    0    0    0  501 -0.00000000000E+00  0.00000000000E+00  0.10623175227E+03  0.10623175239E+03  0.50400000000E-02 0. -1.
          1   -1    0    0  501    0  0.00000000000E+00 -0.00000000000E+00 -0.89995458616E+03  0.89995458618E+03  0.50400000000E-02 0.  1.
    5000001    1    1    2    0    0 -0.11971269687E+03 -0.21016991030E+03 -0.37180047803E+03  0.48332402842E+03  0.19200000000E+03 0.  0.
   -5000001    1    1    2    0    0  0.11971269687E+03  0.21016991030E+03 -0.42192235587E+03  0.52286231014E+03  0.19200000000E+03 0.  0.
<mgrwt>
<rscale>  0 0.61839713E+03</rscale>
<asrwt>0</asrwt>
<pdfrwt beam="1">  1        1 0.12856494E+00 0.61839713E+03</pdfrwt>
<pdfrwt beam="2">  1       -1 0.15175965E-01 0.61839713E+03</pdfrwt>
<totfact> 0.67143677E+02</totfact>
</mgrwt>
</event>
<event>
 4    1  0.1454935E-005  0.5802980E+03  0.7818608E-02  0.9947146E-01
          1   -1    0    0  501    0  0.00000000000E+00  0.00000000000E+00  0.15613914907E+03  0.15613914915E+03  0.50400000000E-02 0. -1.
         -1   -1    0    0    0  501 -0.00000000000E+00 -0.00000000000E+00 -0.53917571617E+03  0.53917571619E+03  0.50400000000E-02 0.  1.
    5000001    1    1    2    0    0  0.10197825867E+03  0.10060951430E+03  0.46382122063E+01  0.23959831515E+03  0.19200000000E+03 0.  0.
   -5000001    1    1    2    0    0 -0.10197825867E+03 -0.10060951430E+03 -0.38767477930E+03  0.45571655019E+03  0.19200000000E+03 0.  0.
<mgrwt>
<rscale>  0 0.58029798E+03</rscale>
<asrwt>0</asrwt>
<pdfrwt beam="1">  1        1 0.22305593E-01 0.58029798E+03</pdfrwt>
<pdfrwt beam="2">  1       -1 0.77025101E-01 0.58029798E+03</pdfrwt>
<totfact> 0.38882055E+02</totfact>
</mgrwt>
</event>
<event>
 4    1  0.1454935E-005  0.7079552E+03  0.7818608E-02  0.9703724E-01
          1   -1    0    0  501    0  0.00000000000E+00  0.00000000000E+00  0.81793711102E+03  0.81793711104E+03  0.50400000000E-02 0.  1.
         -1   -1    0    0    0  501 -0.00000000000E+00 -0.00000000000E+00 -0.15319045556E+03  0.15319045565E+03  0.50400000000E-02 0. -1.
    5000001    1    1    2    0    0  0.32713488641E+02 -0.29551281450E+03  0.32389928224E+03  0.47976321338E+03  0.19200000000E+03 0.  0.
   -5000001    1    1    2    0    0 -0.32713488641E+02  0.29551281450E+03  0.34084737321E+03  0.49136435331E+03  0.19200000000E+03 0.  0.
<mgrwt>
<rscale>  0 0.70795525E+03</rscale>
<asrwt>0</asrwt>
<pdfrwt beam="1">  1        1 0.11684816E+00 0.70795525E+03</pdfrwt>
<pdfrwt beam="2">  1       -1 0.21884350E-01 0.70795525E+03</pdfrwt>
<totfact> 0.42582363E+02</totfact>
</mgrwt>
</event>
<event>
 4    1  0.1454935E-005  0.6222946E+03  0.7818608E-02  0.9860202E-01
          1   -1    0    0  501    0  0.00000000000E+00  0.00000000000E+00  0.22114699408E+03  0.22114699414E+03  0.50400000000E-02 0. -1.
         -1   -1    0    0    0  501 -0.00000000000E+00 -0.00000000000E+00 -0.43777506346E+03  0.43777506349E+03  0.50400000000E-02 0.  1.
    5000001    1    1    2    0    0  0.14295041682E+03  0.34700205544E+02  0.98934978769E+02  0.26132557463E+03  0.19200000000E+03 0.  0.
   -5000001    1    1    2    0    0 -0.14295041682E+03 -0.34700205544E+02 -0.31556304815E+03  0.39759648300E+03  0.19200000000E+03 0.  0.
<mgrwt>
<rscale>  0 0.62229459E+03</rscale>
<asrwt>0</asrwt>
<pdfrwt beam="1">  1        1 0.31592428E-01 0.62229459E+03</pdfrwt>
<pdfrwt beam="2">  1       -1 0.62539295E-01 0.62229459E+03</pdfrwt>
<totfact> 0.37732005E+02</totfact>
</mgrwt>
</event>
<event>
 4    1  0.1454935E-005  0.6445438E+03  0.7818608E-02  0.9817071E-01
          1   -1    0    0  501    0  0.00000000000E+00  0.00000000000E+00  0.15054943088E+04  0.15054943088E+04  0.50400000000E-02 0. -1.
         -1   -1    0    0    0  501 -0.00000000000E+00 -0.00000000000E+00 -0.68986771299E+02  0.68986771483E+02  0.50400000000E-02 0.  1.
    5000001    1    1    2    0    0 -0.16066834949E+03 -0.20015096769E+03  0.63648568766E+03  0.71263788770E+03  0.19200000000E+03 0.  0.
   -5000001    1    1    2    0    0  0.16066834949E+03  0.20015096769E+03  0.80002184988E+03  0.86184319263E+03  0.19200000000E+03 0.  0.
<mgrwt>
<rscale>  0 0.64454384E+03</rscale>
<asrwt>0</asrwt>
<pdfrwt beam="1">  1        1 0.21507062E+00 0.64454384E+03</pdfrwt>
<pdfrwt beam="2">  1       -1 0.98552528E-02 0.64454384E+03</pdfrwt>
<totfact> 0.50829136E+02</totfact>
</mgrwt>
</event>
<event>
 4    1  0.1454935E-005  0.6056647E+03  0.7818608E-02  0.9893723E-01
         -1   -1    0    0    0  501 -0.00000000000E+00  0.00000000000E+00  0.37706039120E+03  0.37706039123E+03  0.50400000000E-02 0. -1.
          1   -1    0    0  501    0  0.00000000000E+00 -0.00000000000E+00 -0.24321684042E+03  0.24321684047E+03  0.50400000000E-02 0.  1.
    5000001    1    1    2    0    0 -0.19849072382E+03  0.58000015654E+02 -0.45643031716E+02  0.28584935824E+03  0.19200000000E+03 0.  0.
   -5000001    1    1    2    0    0  0.19849072382E+03 -0.58000015654E+02  0.17948658249E+03  0.33442787347E+03  0.19200000000E+03 0.  0.
<mgrwt>
<rscale>  0 0.60566472E+03</rscale>
<asrwt>0</asrwt>
<pdfrwt beam="1">  1        1 0.34745263E-01 0.60566472E+03</pdfrwt>
<pdfrwt beam="2">  1       -1 0.53865770E-01 0.60566472E+03</pdfrwt>
<totfact> 0.44661174E+02</totfact>
</mgrwt>
</event>
<event>
 4    1  0.1454935E-005  0.1129931E+04  0.7818608E-02  0.9176500E-01
          1   -1    0    0  501    0  0.00000000000E+00  0.00000000000E+00  0.26655413734E+04  0.26655413734E+04  0.50400000000E-02 0.  1.
         -1   -1    0    0    0  501 -0.00000000000E+00 -0.00000000000E+00 -0.11974535137E+03  0.11974535147E+03  0.50400000000E-02 0. -1.
    5000001    1    1    2    0    0 -0.40689727489E+03 -0.27835488067E+03  0.78438297364E+03  0.94613290886E+03  0.19200000000E+03 0.  0.
   -5000001    1    1    2    0    0  0.40689727489E+03  0.27835488067E+03  0.17614130484E+04  0.18391538160E+04  0.19200000000E+03 0.  0.
<mgrwt>
<rscale>  0 0.11299313E+04</rscale>
<asrwt>0</asrwt>
<pdfrwt beam="1">  1        1 0.38079156E+00 0.11299313E+04</pdfrwt>
<pdfrwt beam="2">  1       -1 0.17106482E-01 0.11299313E+04</pdfrwt>
<totfact> 0.37496637E+01</totfact>
</mgrwt>
</event>
<event>
 4    1  0.1454935E-005  0.4832484E+03  0.7818608E-02  0.1018246E+00
         -1   -1    0    0    0  501 -0.00000000000E+00  0.00000000000E+00  0.63313827151E+02  0.63313827352E+02  0.50400000000E-02 0. -1.
          1   -1    0    0  501    0  0.00000000000E+00 -0.00000000000E+00 -0.92210915862E+03  0.92210915863E+03  0.50400000000E-02 0.  1.
    5000001    1    1    2    0    0  0.13815630925E+03  0.43141936389E+02 -0.38071894050E+03  0.45028802351E+03  0.19200000000E+03 0.  0.
   -5000001    1    1    2    0    0 -0.13815630925E+03 -0.43141936389E+02 -0.47807639097E+03  0.53513496247E+03  0.19200000000E+03 0.  0.
<mgrwt>
<rscale>  0 0.48324842E+03</rscale>
<asrwt>0</asrwt>
<pdfrwt beam="1">  1        1 0.13172987E+00 0.48324842E+03</pdfrwt>
<pdfrwt beam="2">  1       -1 0.90448331E-02 0.48324842E+03</pdfrwt>
<totfact> 0.14745694E+03</totfact>
</mgrwt>
</event>
<event>
 4    1  0.1454935E-005  0.5184355E+03  0.7818608E-02  0.1009076E+00
         -1   -1    0    0    0  501 -0.00000000000E+00  0.00000000000E+00  0.20843517490E+03  0.20843517496E+03  0.50400000000E-02 0.  1.
          1   -1    0    0  501    0  0.00000000000E+00 -0.00000000000E+00 -0.32237287216E+03  0.32237287220E+03  0.50400000000E-02 0. -1.
    5000001    1    1    2    0    0  0.64369084773E+02  0.15200715604E+03 -0.14395146499E+00  0.25320658618E+03  0.19200000000E+03 0.  0.
   -5000001    1    1    2    0    0 -0.64369084773E+02 -0.15200715604E+03 -0.11379374579E+03  0.27760146099E+03  0.19200000000E+03 0.  0.
<mgrwt>
<rscale>  0 0.51843552E+03</rscale>
<asrwt>0</asrwt>
<pdfrwt beam="1">  1        1 0.46053268E-01 0.51843552E+03</pdfrwt>
<pdfrwt beam="2">  1       -1 0.29776453E-01 0.51843552E+03</pdfrwt>
<totfact> 0.91205401E+02</totfact>
</mgrwt>
</event>
<event>
 4    1  0.1454935E-005  0.4328507E+03  0.7818608E-02  0.1032963E+00
         -1   -1    0    0    0  501 -0.00000000000E+00  0.00000000000E+00  0.32347021719E+02  0.32347022111E+02  0.50400000000E-02 0. -1.
          1   -1    0    0  501    0  0.00000000000E+00 -0.00000000000E+00 -0.14480448261E+04  0.14480448261E+04  0.50400000000E-02 0.  1.
    5000001    1    1    2    0    0  0.60183468742E+02 -0.79709597477E+02 -0.70607870459E+03  0.73850308525E+03  0.19200000000E+03 0.  0.
   -5000001    1    1    2    0    0 -0.60183468742E+02  0.79709597477E+02 -0.70961909977E+03  0.74188876295E+03  0.19200000000E+03 0.  0.
<mgrwt>
<rscale>  0 0.43285073E+03</rscale>
<asrwt>0</asrwt>
<pdfrwt beam="1">  1        1 0.20686351E+00 0.43285073E+03</pdfrwt>
<pdfrwt beam="2">  1       -1 0.46210040E-02 0.43285073E+03</pdfrwt>
<totfact> 0.17984210E+03</totfact>
</mgrwt>
</event>
<event>
 4    1  0.1454935E-005  0.8308611E+03  0.7818608E-02  0.9516391E-01
         -1   -1    0    0    0  501 -0.00000000000E+00  0.00000000000E+00  0.12727374540E+04  0.12727374540E+04  0.50400000000E-02 0. -1.
          1   -1    0    0  501    0  0.00000000000E+00 -0.00000000000E+00 -0.13559946993E+03  0.13559947002E+03  0.50400000000E-02 0.  1.
    5000001    1    1    2    0    0  0.34251565897E+02  0.36587491998E+03  0.61279920039E+03  0.73988140052E+03  0.19200000000E+03 0.  0.
   -5000001    1    1    2    0    0 -0.34251565897E+02 -0.36587491998E+03  0.52433878367E+03  0.66845552350E+03  0.19200000000E+03 0.  0.
<mgrwt>
<rscale>  0 0.83086106E+03</rscale>
<asrwt>0</asrwt>
<pdfrwt beam="1">  1        1 0.19371354E-01 0.83086106E+03</pdfrwt>
<pdfrwt beam="2">  1       -1 0.18181963E+00 0.83086106E+03</pdfrwt>
<totfact> 0.56104607E+01</totfact>
</mgrwt>
</event>
<event>
 4    1  0.1454935E-005  0.6231200E+03  0.7818608E-02  0.9858567E-01
          1   -1    0    0  501    0  0.00000000000E+00  0.00000000000E+00  0.72666152916E+03  0.72666152917E+03  0.50400000000E-02 0.  1.
         -1   -1    0    0    0  501 -0.00000000000E+00 -0.00000000000E+00 -0.13358302436E+03  0.13358302446E+03  0.50400000000E-02 0. -1.
    5000001    1    1    2    0    0 -0.19884959975E+03  0.92796358379E+02  0.14497265136E+03  0.32562769706E+03  0.19200000000E+03 0.  0.
   -5000001    1    1    2    0    0  0.19884959975E+03 -0.92796358379E+02  0.44810585343E+03  0.53461685657E+03  0.19200000000E+03 0.  0.
<mgrwt>
<rscale>  0 0.62312004E+03</rscale>
<asrwt>0</asrwt>
<pdfrwt beam="1">  1        1 0.10380879E+00 0.62312004E+03</pdfrwt>
<pdfrwt beam="2">  1       -1 0.19083289E-01 0.62312004E+03</pdfrwt>
<totfact> 0.64228333E+02</totfact>
</mgrwt>
</event>
<event>
 4    1  0.1454935E-005  0.6139510E+03  0.7818608E-02  0.9876878E-01
          1   -1    0    0  501    0  0.00000000000E+00  0.00000000000E+00  0.42895852966E+03  0.42895852969E+03  0.50400000000E-02 0. -1.
         -1   -1    0    0    0  501 -0.00000000000E+00 -0.00000000000E+00 -0.21968077641E+03  0.21968077647E+03  0.50400000000E-02 0.  1.
    5000001    1    1    2    0    0 -0.11010155682E+03 -0.18806544197E+03  0.20964766067E+03  0.35819981142E+03  0.19200000000E+03 0.  0.
   -5000001    1    1    2    0    0  0.11010155682E+03  0.18806544197E+03 -0.36990741445E+00  0.29043949475E+03  0.19200000000E+03 0.  0.
<mgrwt>
<rscale>  0 0.61395095E+03</rscale>
<asrwt>0</asrwt>
<pdfrwt beam="1">  1        1 0.61279789E-01 0.61395095E+03</pdfrwt>
<pdfrwt beam="2">  1       -1 0.31382968E-01 0.61395095E+03</pdfrwt>
<totfact> 0.57350229E+02</totfact>
</mgrwt>
</event>
<event>
 4    1  0.1454935E-005  0.4997552E+03  0.7818608E-02  0.1013843E+00
         -1   -1    0    0    0  501 -0.00000000000E+00  0.00000000000E+00  0.52359868578E+02  0.52359868821E+02  0.50400000000E-02 0. -1.
          1   -1    0    0  501    0  0.00000000000E+00 -0.00000000000E+00 -0.11924939220E+04  0.11924939220E+04  0.50400000000E-02 0.  1.
    5000001    1    1    2    0    0  0.15957558361E+03 -0.68371787853E+01 -0.55018460841E+03  0.60421702825E+03  0.19200000000E+03 0.  0.
   -5000001    1    1    2    0    0 -0.15957558361E+03  0.68371787853E+01 -0.58994944498E+03  0.64063676255E+03  0.19200000000E+03 0.  0.
<mgrwt>
<rscale>  0 0.49975524E+03</rscale>
<asrwt>0</asrwt>
<pdfrwt beam="1">  1        1 0.17035626E+00 0.49975524E+03</pdfrwt>
<pdfrwt beam="2">  1       -1 0.74799820E-02 0.49975524E+03</pdfrwt>
<totfact> 0.12661411E+03</totfact>
</mgrwt>
</event>
<event>
 4    1  0.1454935E-005  0.6310245E+03  0.7818608E-02  0.9843052E-01
         -1   -1    0    0    0  501 -0.00000000000E+00  0.00000000000E+00  0.28799555622E+03  0.28799555626E+03  0.50400000000E-02 0. -1.
          1   -1    0    0  501    0  0.00000000000E+00 -0.00000000000E+00 -0.34565803033E+03  0.34565803037E+03  0.50400000000E-02 0.  1.
    5000001    1    1    2    0    0 -0.24848035324E+03  0.25935427239E+02 -0.12366447651E+02  0.31532849754E+03  0.19200000000E+03 0.  0.
   -5000001    1    1    2    0    0  0.24848035324E+03 -0.25935427239E+02 -0.45296026461E+02  0.31832508909E+03  0.19200000000E+03 0.  0.
<mgrwt>
<rscale>  0 0.63102449E+03</rscale>
<asrwt>0</asrwt>
<pdfrwt beam="1">  1        1 0.49379719E-01 0.63102449E+03</pdfrwt>
<pdfrwt beam="2">  1       -1 0.41142222E-01 0.63102449E+03</pdfrwt>
<totfact> 0.46902169E+02</totfact>
</mgrwt>
</event>
<event>
 4    1  0.1454935E-005  0.4465781E+03  0.7818608E-02  0.1028747E+00
          1   -1    0    0  501    0  0.00000000000E+00  0.00000000000E+00  0.13778691002E+04  0.13778691002E+04  0.50400000000E-02 0.  1.
         -1   -1    0    0    0  501 -0.00000000000E+00 -0.00000000000E+00 -0.36184864894E+02  0.36184865245E+02  0.50400000000E-02 0. -1.
    5000001    1    1    2    0    0 -0.70426120503E+02 -0.84346478997E+02  0.57480816657E+03  0.61590794388E+03  0.19200000000E+03 0.  0.
   -5000001    1    1    2    0    0  0.70426120503E+02  0.84346478997E+02  0.76687606874E+03  0.79814602158E+03  0.19200000000E+03 0.  0.
<mgrwt>
<rscale>  0 0.44657813E+03</rscale>
<asrwt>0</asrwt>
<pdfrwt beam="1">  1        1 0.19683847E+00 0.44657813E+03</pdfrwt>
<pdfrwt beam="2">  1       -1 0.51692656E-02 0.44657813E+03</pdfrwt>
<totfact> 0.16829592E+03</totfact>
</mgrwt>
</event>
<event>
 4    1  0.1454935E-005  0.4247569E+03  0.7818608E-02  0.1035529E+00
          1   -1    0    0  501    0  0.00000000000E+00  0.00000000000E+00  0.29019214279E+03  0.29019214283E+03  0.50400000000E-02 0. -1.
         -1   -1    0    0    0  501 -0.00000000000E+00 -0.00000000000E+00 -0.15543017464E+03  0.15543017473E+03  0.50400000000E-02 0.  1.
    5000001    1    1    2    0    0 -0.70205175327E+02 -0.57540661719E+02  0.68387851453E+02  0.22311564853E+03  0.19200000000E+03 0.  0.
   -5000001    1    1    2    0    0  0.70205175327E+02  0.57540661719E+02  0.66374116691E+02  0.22250666902E+03  0.19200000000E+03 0.  0.
<mgrwt>
<rscale>  0 0.42475694E+03</rscale>
<asrwt>0</asrwt>
<pdfrwt beam="1">  1        1 0.41456021E-01 0.42475694E+03</pdfrwt>
<pdfrwt beam="2">  1       -1 0.22204311E-01 0.42475694E+03</pdfrwt>
<totfact> 0.17142573E+03</totfact>
</mgrwt>
</event>
<event>
 4    1  0.1454935E-005  0.1075507E+04  0.7818608E-02  0.9229399E-01
          1   -1    0    0  501    0  0.00000000000E+00  0.00000000000E+00  0.25506815632E+04  0.25506815632E+04  0.50400000000E-02 0.  1.
         -1   -1    0    0    0  501 -0.00000000000E+00 -0.00000000000E+00 -0.11337313803E+03  0.11337313814E+03  0.50400000000E-02 0. -1.
    5000001    1    1    2    0    0 -0.27644697488E+03 -0.69494688722E+02  0.19416561221E+03  0.39473627481E+03  0.19200000000E+03 0.  0.
   -5000001    1    1    2    0    0  0.27644697488E+03  0.69494688722E+02  0.22431428129E+04  0.22693184265E+04  0.19200000000E+03 0.  0.
<mgrwt>
<rscale>  0 0.10755069E+04</rscale>
<asrwt>0</asrwt>
<pdfrwt beam="1">  1        1 0.36438311E+00 0.10755069E+04</pdfrwt>
<pdfrwt beam="2">  1       -1 0.16196161E-01 0.10755069E+04</pdfrwt>
<totfact> 0.48781497E+01</totfact>
</mgrwt>
</event>
<event>
 4    1  0.1454935E-005  0.7314801E+03  0.7818608E-02  0.9664862E-01
          1   -1    0    0  501    0  0.00000000000E+00  0.00000000000E+00  0.95611021137E+03  0.95611021138E+03  0.50400000000E-02 0.  1.
         -1   -1    0    0    0  501 -0.00000000000E+00 -0.00000000000E+00 -0.13990625653E+03  0.13990625662E+03  0.50400000000E-02 0. -1.
    5000001    1    1    2    0    0 -0.79896624027E+02 -0.24273360666E+03  0.14175404766E+03  0.34965881136E+03  0.19200000000E+03 0.  0.
   -5000001    1    1    2    0    0  0.79896624027E+02  0.24273360666E+03  0.67444990718E+03  0.74635765664E+03  0.19200000000E+03 0.  0.
<mgrwt>
<rscale>  0 0.73148014E+03</rscale>
<asrwt>0</asrwt>
<pdfrwt beam="1">  1        1 0.13658717E+00 0.73148014E+03</pdfrwt>
<pdfrwt beam="2">  1       -1 0.19986608E-01 0.73148014E+03</pdfrwt>
<totfact> 0.38487362E+02</totfact>
</mgrwt>
</event>
<event>
 4    1  0.1454935E-005  0.9329664E+03  0.7818608E-02  0.9385285E-01
          1   -1    0    0  501    0  0.00000000000E+00  0.00000000000E+00  0.52782286271E+03  0.52782286273E+03  0.50400000000E-02 0.  1.
         -1   -1    0    0    0  501 -0.00000000000E+00 -0.00000000000E+00 -0.41227199734E+03  0.41227199737E+03  0.50400000000E-02 0. -1.
    5000001    1    1    2    0    0  0.39810199445E+03  0.14918820356E+03  0.57253971544E+02  0.46998333515E+03  0.19200000000E+03 0.  0.
   -5000001    1    1    2    0    0 -0.39810199445E+03 -0.14918820356E+03  0.58296893830E+02  0.47011152495E+03  0.19200000000E+03 0.  0.
<mgrwt>
<rscale>  0 0.93296642E+03</rscale>
<asrwt>0</asrwt>
<pdfrwt beam="1">  1        1 0.75403266E-01 0.93296642E+03</pdfrwt>
<pdfrwt beam="2">  1       -1 0.58896000E-01 0.93296642E+03</pdfrwt>
<totfact> 0.13395486E+02</totfact>
</mgrwt>
</event>
<event>
 4    1  0.1454935E-005  0.4975872E+03  0.7818608E-02  0.1014411E+00
          1   -1    0    0  501    0  0.00000000000E+00  0.00000000000E+00  0.28496598712E+04  0.28496598712E+04  0.50400000000E-02 0.  1.
         -1   -1    0    0    0  501 -0.00000000000E+00 -0.00000000000E+00 -0.21721274968E+02  0.21721275553E+02  0.50400000000E-02 0. -1.
    5000001    1    1    2    0    0  0.17784529876E+02  0.14322330330E+03  0.17881719522E+04  0.18042317298E+04  0.19200000000E+03 0.  0.
   -5000001    1    1    2    0    0 -0.17784529876E+02 -0.14322330330E+03  0.10397666440E+04  0.10671494169E+04  0.19200000000E+03 0.  0.
<mgrwt>
<rscale>  0 0.49758716E+03</rscale>
<asrwt>0</asrwt>
<pdfrwt beam="1">  1        1 0.40709457E+00 0.49758716E+03</pdfrwt>
<pdfrwt beam="2">  1       -1 0.31030370E-02 0.49758716E+03</pdfrwt>
<totfact> 0.44035362E+02</totfact>
</mgrwt>
</event>
<event>
 4    1  0.1454935E-005  0.7529729E+03  0.7818608E-02  0.9630698E-01
          1   -1    0    0  501    0  0.00000000000E+00  0.00000000000E+00  0.68188090607E+03  0.68188090609E+03  0.50400000000E-02 0.  1.
         -1   -1    0    0    0  501 -0.00000000000E+00 -0.00000000000E+00 -0.20786922351E+03  0.20786922358E+03  0.50400000000E-02 0. -1.
    5000001    1    1    2    0    0  0.13887645143E+03  0.27351554910E+03  0.11431538655E+03  0.37951209725E+03  0.19200000000E+03 0.  0.
   -5000001    1    1    2    0    0 -0.13887645143E+03 -0.27351554910E+03  0.35969629600E+03  0.51023803241E+03  0.19200000000E+03 0.  0.
<mgrwt>
<rscale>  0 0.75297292E+03</rscale>
<asrwt>0</asrwt>
<pdfrwt beam="1">  1        1 0.97411557E-01 0.75297292E+03</pdfrwt>
<pdfrwt beam="2">  1       -1 0.29695604E-01 0.75297292E+03</pdfrwt>
<totfact> 0.33188886E+02</totfact>
</mgrwt>
</event>
<event>
 4    1  0.1454935E-005  0.1138538E+04  0.7818608E-02  0.9168423E-01
          1   -1    0    0  501    0  0.00000000000E+00  0.00000000000E+00  0.96232803757E+03  0.96232803758E+03  0.50400000000E-02 0.  1.
         -1   -1    0    0    0  501 -0.00000000000E+00 -0.00000000000E+00 -0.33675339085E+03  0.33675339089E+03  0.50400000000E-02 0. -1.
    5000001    1    1    2    0    0  0.35897117327E+03 -0.39408070497E+03  0.37573257189E+03  0.67985209484E+03  0.19200000000E+03 0.  0.
   -5000001    1    1    2    0    0 -0.35897117327E+03  0.39408070497E+03  0.24984207483E+03  0.61922933363E+03  0.19200000000E+03 0.  0.
<mgrwt>
<rscale>  0 0.11385381E+04</rscale>
<asrwt>0</asrwt>
<pdfrwt beam="1">  1        1 0.13747543E+00 0.11385381E+04</pdfrwt>
<pdfrwt beam="2">  1       -1 0.48107627E-01 0.11385381E+04</pdfrwt>
<totfact> 0.79090352E+01</totfact>
</mgrwt>
</event>
<event>
 4    1  0.1454935E-005  0.6426066E+03  0.7818608E-02  0.9820752E-01
         -1   -1    0    0    0  501 -0.00000000000E+00  0.00000000000E+00  0.90833498502E+02  0.90833498642E+02  0.50400000000E-02 0. -1.
          1   -1    0    0  501    0  0.00000000000E+00 -0.00000000000E+00 -0.11365390579E+04  0.11365390579E+04  0.50400000000E-02 0.  1.
    5000001    1    1    2    0    0  0.16790133646E+03  0.12929264032E+03 -0.24302532933E+03  0.37527690619E+03  0.19200000000E+03 0.  0.
   -5000001    1    1    2    0    0 -0.16790133646E+03 -0.12929264032E+03 -0.80268023009E+03  0.85209565038E+03  0.19200000000E+03 0.  0.
<mgrwt>
<rscale>  0 0.64260663E+03</rscale>
<asrwt>0</asrwt>
<pdfrwt beam="1">  1        1 0.16236271E+00 0.64260663E+03</pdfrwt>
<pdfrwt beam="2">  1       -1 0.12976215E-01 0.64260663E+03</pdfrwt>
<totfact> 0.57822093E+02</totfact>
</mgrwt>
</event>
<event>
 4    1  0.1454935E-005  0.7467230E+03  0.7818608E-02  0.9640506E-01
          1   -1    0    0  501    0  0.00000000000E+00  0.00000000000E+00  0.32996642210E+03  0.32996642214E+03  0.50400000000E-02 0. -1.
         -1   -1    0    0    0  501 -0.00000000000E+00 -0.00000000000E+00 -0.42246360980E+03  0.42246360983E+03  0.50400000000E-02 0.  1.
    5000001    1    1    2    0    0  0.28316348638E+03 -0.96111565442E+02  0.69150979607E+02  0.36202879859E+03  0.19200000000E+03 0.  0.
   -5000001    1    1    2    0    0 -0.28316348638E+03  0.96111565442E+02 -0.16164816731E+03  0.39040123338E+03  0.19200000000E+03 0.  0.
<mgrwt>
<rscale>  0 0.74672299E+03</rscale>
<asrwt>0</asrwt>
<pdfrwt beam="1">  1        1 0.47138061E-01 0.74672299E+03</pdfrwt>
<pdfrwt beam="2">  1       -1 0.60351944E-01 0.74672299E+03</pdfrwt>
<totfact> 0.24032899E+02</totfact>
</mgrwt>
</event>
<event>
 4    1  0.1454935E-005  0.7172652E+03  0.7818608E-02  0.9688154E-01
         -1   -1    0    0    0  501 -0.00000000000E+00  0.00000000000E+00  0.68581763787E+02  0.68581763972E+02  0.50400000000E-02 0. -1.
          1   -1    0    0  501    0  0.00000000000E+00 -0.00000000000E+00 -0.18753867404E+04  0.18753867404E+04  0.50400000000E-02 0.  1.
    5000001    1    1    2    0    0 -0.15936187607E+03  0.35498817538E+02 -0.21190624237E+03  0.32927895339E+03  0.19200000000E+03 0.  0.
   -5000001    1    1    2    0    0  0.15936187607E+03 -0.35498817538E+02 -0.15948987342E+04  0.16146895510E+04  0.19200000000E+03 0.  0.
<mgrwt>
<rscale>  0 0.71726517E+03</rscale>
<asrwt>0</asrwt>
<pdfrwt beam="1">  1        1 0.26791236E+00 0.71726517E+03</pdfrwt>
<pdfrwt beam="2">  1       -1 0.97973960E-02 0.71726517E+03</pdfrwt>
<totfact> 0.29847423E+02</totfact>
</mgrwt>
</event>
<event>
 4    1  0.1454935E-005  0.7668582E+03  0.7818608E-02  0.9609268E-01
         -1   -1    0    0    0  501 -0.00000000000E+00  0.00000000000E+00  0.94294673501E+02  0.94294673635E+02  0.50400000000E-02 0. -1.
          1   -1    0    0  501    0  0.00000000000E+00 -0.00000000000E+00 -0.15591322316E+04  0.15591322316E+04  0.50400000000E-02 0.  1.
    5000001    1    1    2    0    0  0.19271329638E+03  0.22018625616E+03 -0.10701330204E+04  0.11259081150E+04  0.19200000000E+03 0.  0.
   -5000001    1    1    2    0    0 -0.19271329638E+03 -0.22018625616E+03 -0.39470453766E+03  0.52751879024E+03  0.19200000000E+03 0.  0.
<mgrwt>
<rscale>  0 0.76685817E+03</rscale>
<asrwt>0</asrwt>
<pdfrwt beam="1">  1        1 0.22273316E+00 0.76685817E+03</pdfrwt>
<pdfrwt beam="2">  1       -1 0.13470669E-01 0.76685817E+03</pdfrwt>
<totfact> 0.28307645E+02</totfact>
</mgrwt>
</event>
<event>
 4    1  0.1454935E-005  0.8325564E+03  0.7818608E-02  0.9514053E-01
         -1   -1    0    0    0  501 -0.00000000000E+00  0.00000000000E+00  0.16626829402E+04  0.16626829402E+04  0.50400000000E-02 0.  1.
          1   -1    0    0  501    0  0.00000000000E+00 -0.00000000000E+00 -0.10422163136E+03  0.10422163148E+03  0.50400000000E-02 0. -1.
    5000001    1    1    2    0    0 -0.20984306927E+03 -0.29539508397E+03  0.62720839243E+03  0.74936422178E+03  0.19200000000E+03 0.  0.
   -5000001    1    1    2    0    0  0.20984306927E+03  0.29539508397E+03  0.93125291641E+03  0.10175403499E+04  0.19200000000E+03 0.  0.
<mgrwt>
<rscale>  0 0.83255637E+03</rscale>
<asrwt>0</asrwt>
<pdfrwt beam="1">  1        1 0.14888805E-01 0.83255637E+03</pdfrwt>
<pdfrwt beam="2">  1       -1 0.23752612E+00 0.83255637E+03</pdfrwt>
<totfact> 0.33517553E+01</totfact>
</mgrwt>
</event>
<event>
 4    1  0.1454935E-005  0.6294463E+03  0.7818608E-02  0.9846130E-01
          1   -1    0    0  501    0  0.00000000000E+00  0.00000000000E+00  0.79986839951E+03  0.79986839952E+03  0.50400000000E-02 0.  1.
         -1   -1    0    0    0  501 -0.00000000000E+00 -0.00000000000E+00 -0.12383369835E+03  0.12383369845E+03  0.50400000000E-02 0. -1.
    5000001    1    1    2    0    0  0.22220301098E+03  0.28176488560E+02  0.49889645263E+03  0.57959448155E+03  0.19200000000E+03 0.  0.
   -5000001    1    1    2    0    0 -0.22220301098E+03 -0.28176488560E+02  0.17713824853E+03  0.34410761643E+03  0.19200000000E+03 0.  0.
<mgrwt>
<rscale>  0 0.62944630E+03</rscale>
<asrwt>0</asrwt>
<pdfrwt beam="1">  1        1 0.11426691E+00 0.62944630E+03</pdfrwt>
<pdfrwt beam="2">  1       -1 0.17690529E-01 0.62944630E+03</pdfrwt>
<totfact> 0.62937104E+02</totfact>
</mgrwt>
</event>
<event>
 4    1  0.1454935E-005  0.9473043E+03  0.7818608E-02  0.9368307E-01
         -1   -1    0    0    0  501 -0.00000000000E+00  0.00000000000E+00  0.21515394148E+04  0.21515394148E+04  0.50400000000E-02 0. -1.
          1   -1    0    0  501    0  0.00000000000E+00 -0.00000000000E+00 -0.10427248788E+03  0.10427248801E+03  0.50400000000E-02 0.  1.
    5000001    1    1    2    0    0  0.29315259023E+03  0.23006990448E+03  0.15486633970E+04  0.16043979928E+04  0.19200000000E+03 0.  0.
   -5000001    1    1    2    0    0 -0.29315259023E+03 -0.23006990448E+03  0.49860352992E+03  0.65141391001E+03  0.19200000000E+03 0.  0.
<mgrwt>
<rscale>  0 0.94730432E+03</rscale>
<asrwt>0</asrwt>
<pdfrwt beam="1">  1        1 0.14896070E-01 0.94730432E+03</pdfrwt>
<pdfrwt beam="2">  1       -1 0.30736277E+00 0.94730432E+03</pdfrwt>
<totfact> 0.11782041E+01</totfact>
</mgrwt>
</event>
<event>
 4    1  0.1454935E-005  0.4651308E+03  0.7818608E-02  0.1023304E+00
          1   -1    0    0  501    0  0.00000000000E+00  0.00000000000E+00  0.95320944822E+03  0.95320944823E+03  0.50400000000E-02 0. -1.
         -1   -1    0    0    0  501 -0.00000000000E+00 -0.00000000000E+00 -0.56741639537E+02  0.56741639761E+02  0.50400000000E-02 0.  1.
    5000001    1    1    2    0    0  0.20863660635E+02  0.12121742133E+03  0.54758751422E+03  0.59316527318E+03  0.19200000000E+03 0.  0.
   -5000001    1    1    2    0    0 -0.20863660635E+02 -0.12121742133E+03  0.34888029446E+03  0.41678581481E+03  0.19200000000E+03 0.  0.
<mgrwt>
<rscale>  0 0.46513081E+03</rscale>
<asrwt>0</asrwt>
<pdfrwt beam="1">  1        1 0.13617277E+00 0.46513081E+03</pdfrwt>
<pdfrwt beam="2">  1       -1 0.81059487E-02 0.46513081E+03</pdfrwt>
<totfact> 0.16567618E+03</totfact>
</mgrwt>
</event>
<event>
 4    1  0.1454935E-005  0.7358636E+03  0.7818608E-02  0.9657793E-01
          1   -1    0    0  501    0  0.00000000000E+00  0.00000000000E+00  0.13401318820E+04  0.13401318821E+04  0.50400000000E-02 0.  1.
         -1   -1    0    0    0  501 -0.00000000000E+00 -0.00000000000E+00 -0.10101530110E+03  0.10101530122E+03  0.50400000000E-02 0. -1.
    5000001    1    1    2    0    0 -0.30298203022E+03 -0.57533698489E+02  0.50533573231E+03  0.62236359104E+03  0.19200000000E+03 0.  0.
   -5000001    1    1    2    0    0  0.30298203022E+03  0.57533698489E+02  0.73378084864E+03  0.81878359225E+03  0.19200000000E+03 0.  0.
<mgrwt>
<rscale>  0 0.73586364E+03</rscale>
<asrwt>0</asrwt>
<pdfrwt beam="1">  1        1 0.19144743E+00 0.73586364E+03</pdfrwt>
<pdfrwt beam="2">  1       -1 0.14430756E-01 0.73586364E+03</pdfrwt>
<totfact> 0.35233751E+02</totfact>
</mgrwt>
</event>
<event>
 4    1  0.1454935E-005  0.6932405E+03  0.7818608E-02  0.9728862E-01
          1   -1    0    0  501    0  0.00000000000E+00  0.00000000000E+00  0.26800318511E+04  0.26800318511E+04  0.50400000000E-02 0.  1.
         -1   -1    0    0    0  501 -0.00000000000E+00 -0.00000000000E+00 -0.44829915712E+02  0.44829915995E+02  0.50400000000E-02 0. -1.
    5000001    1    1    2    0    0  0.55838928178E+02  0.23844525761E+03  0.19176795953E+04  0.19427643081E+04  0.19200000000E+03 0.  0.
   -5000001    1    1    2    0    0 -0.55838928178E+02 -0.23844525761E+03  0.71752234008E+03  0.78209745894E+03  0.19200000000E+03 0.  0.
<mgrwt>
<rscale>  0 0.69324051E+03</rscale>
<asrwt>0</asrwt>
<pdfrwt beam="1">  1        1 0.38286173E+00 0.69324051E+03</pdfrwt>
<pdfrwt beam="2">  1       -1 0.64042731E-02 0.69324051E+03</pdfrwt>
<totfact> 0.18334599E+02</totfact>
</mgrwt>
</event>
<event>
 4    1  0.1454935E-005  0.4777214E+03  0.7818608E-02  0.1019763E+00
         -1   -1    0    0    0  501 -0.00000000000E+00  0.00000000000E+00  0.14460279267E+03  0.14460279276E+03  0.50400000000E-02 0. -1.
          1   -1    0    0  501    0  0.00000000000E+00 -0.00000000000E+00 -0.39455974551E+03  0.39455974554E+03  0.50400000000E-02 0.  1.
    5000001    1    1    2    0    0  0.14178045561E+03 -0.36779015529E+01 -0.13476665107E+03  0.27411908871E+03  0.19200000000E+03 0.  0.
   -5000001    1    1    2    0    0 -0.14178045561E+03  0.36779015529E+01 -0.11519030177E+03  0.26504344959E+03  0.19200000000E+03 0.  0.
<mgrwt>
<rscale>  0 0.47772143E+03</rscale>
<asrwt>0</asrwt>
<pdfrwt beam="1">  1        1 0.56365678E-01 0.47772143E+03</pdfrwt>
<pdfrwt beam="2">  1       -1 0.20657542E-01 0.47772143E+03</pdfrwt>
<totfact> 0.13036922E+03</totfact>
</mgrwt>
</event>
<event>
 4    1  0.1454935E-005  0.4718683E+03  0.7818608E-02  0.1021394E+00
         -1   -1    0    0    0  501 -0.00000000000E+00  0.00000000000E+00  0.49538575410E+02  0.49538575667E+02  0.50400000000E-02 0. -1.
          1   -1    0    0  501    0  0.00000000000E+00 -0.00000000000E+00 -0.11236680160E+04  0.11236680160E+04  0.50400000000E-02 0.  1.
    5000001    1    1    2    0    0  0.12905305565E+03  0.54267090741E+01 -0.42267399063E+03  0.48187284910E+03  0.19200000000E+03 0.  0.
   -5000001    1    1    2    0    0 -0.12905305565E+03 -0.54267090741E+01 -0.65145544997E+03  0.69133374259E+03  0.19200000000E+03 0.  0.
<mgrwt>
<rscale>  0 0.47186826E+03</rscale>
<asrwt>0</asrwt>
<pdfrwt beam="1">  1        1 0.16052399E+00 0.47186826E+03</pdfrwt>
<pdfrwt beam="2">  1       -1 0.70769400E-02 0.47186826E+03</pdfrwt>
<totfact> 0.15395119E+03</totfact>
</mgrwt>
</event>
<event>
 4    1  0.1454935E-005  0.7511308E+03  0.7818608E-02  0.9633578E-01
          1   -1    0    0  501    0  0.00000000000E+00  0.00000000000E+00  0.84597110402E+03  0.84597110403E+03  0.50400000000E-02 0.  1.
         -1   -1    0    0    0  501 -0.00000000000E+00 -0.00000000000E+00 -0.16673071385E+03  0.16673071393E+03  0.50400000000E-02 0. -1.
    5000001    1    1    2    0    0 -0.15527068513E+03  0.27679221792E+03  0.41895389136E+03  0.55956168619E+03  0.19200000000E+03 0.  0.
   -5000001    1    1    2    0    0  0.15527068513E+03 -0.27679221792E+03  0.26028649880E+03  0.45314013177E+03  0.19200000000E+03 0.  0.
<mgrwt>
<rscale>  0 0.75113079E+03</rscale>
<asrwt>0</asrwt>
<pdfrwt beam="1">  1        1 0.12085302E+00 0.75113079E+03</pdfrwt>
<pdfrwt beam="2">  1       -1 0.23818673E-01 0.75113079E+03</pdfrwt>
<totfact> 0.34944648E+02</totfact>
</mgrwt>
</event>
<event>
 4    1  0.1454935E-005  0.5399723E+03  0.7818608E-02  0.1003842E+00
          1   -1    0    0  501    0  0.00000000000E+00  0.00000000000E+00  0.88581145201E+03  0.88581145203E+03  0.50400000000E-02 0.  1.
         -1   -1    0    0    0  501 -0.00000000000E+00 -0.00000000000E+00 -0.82288984801E+02  0.82288984955E+02  0.50400000000E-02 0. -1.
    5000001    1    1    2    0    0  0.11559199426E+03  0.12060422367E+03  0.56333495123E+03  0.61815625467E+03  0.19200000000E+03 0.  0.
   -5000001    1    1    2    0    0 -0.11559199426E+03 -0.12060422367E+03  0.24018751598E+03  0.34994418231E+03  0.19200000000E+03 0.  0.
<mgrwt>
<rscale>  0 0.53997231E+03</rscale>
<asrwt>0</asrwt>
<pdfrwt beam="1">  1        1 0.12654448E+00 0.53997231E+03</pdfrwt>
<pdfrwt beam="2">  1       -1 0.11755570E-01 0.53997231E+03</pdfrwt>
<totfact> 0.10400372E+03</totfact>
</mgrwt>
</event>
<event>
 4    1  0.1454935E-005  0.4294512E+03  0.7818608E-02  0.1034033E+00
          1   -1    0    0  501    0  0.00000000000E+00  0.00000000000E+00  0.17328065099E+03  0.17328065106E+03  0.50400000000E-02 0.  1.
         -1   -1    0    0    0  501 -0.00000000000E+00 -0.00000000000E+00 -0.26608324996E+03  0.26608325001E+03  0.50400000000E-02 0. -1.
    5000001    1    1    2    0    0  0.94962754722E+02  0.10686316195E+02 -0.57178035793E+02  0.22195821660E+03  0.19200000000E+03 0.  0.
   -5000001    1    1    2    0    0 -0.94962754722E+02 -0.10686316195E+02 -0.35624563184E+02  0.21740568447E+03  0.19200000000E+03 0.  0.
<mgrwt>
<rscale>  0 0.42945118E+03</rscale>
<asrwt>0</asrwt>
<pdfrwt beam="1">  1        1 0.24754379E-01 0.42945118E+03</pdfrwt>
<pdfrwt beam="2">  1       -1 0.38011893E-01 0.42945118E+03</pdfrwt>
<totfact> 0.13175686E+03</totfact>
</mgrwt>
</event>
<event>
 4    1  0.1454935E-005  0.5661087E+03  0.7818608E-02  0.9978327E-01
          1   -1    0    0  501    0  0.00000000000E+00  0.00000000000E+00  0.87085931172E+03  0.87085931173E+03  0.50400000000E-02 0.  1.
         -1   -1    0    0    0  501 -0.00000000000E+00 -0.00000000000E+00 -0.92000819059E+02  0.92000819197E+02  0.50400000000E-02 0. -1.
    5000001    1    1    2    0    0  0.50613445649E+02  0.20136107577E+03  0.36875398098E+03  0.46470582330E+03  0.19200000000E+03 0.  0.
   -5000001    1    1    2    0    0 -0.50613445649E+02 -0.20136107577E+03  0.41010451167E+03  0.49815430763E+03  0.19200000000E+03 0.  0.
<mgrwt>
<rscale>  0 0.56610872E+03</rscale>
<asrwt>0</asrwt>
<pdfrwt beam="1">  1        1 0.12440848E+00 0.56610872E+03</pdfrwt>
<pdfrwt beam="2">  1       -1 0.13142974E-01 0.56610872E+03</pdfrwt>
<totfact> 0.89385324E+02</totfact>
</mgrwt>
</event>
<event>
 4    1  0.1454935E-005  0.8252061E+03  0.7818608E-02  0.9524232E-01
          1   -1    0    0  501    0  0.00000000000E+00  0.00000000000E+00  0.47642993556E+03  0.47642993558E+03  0.50400000000E-02 0.  1.
         -1   -1    0    0    0  501 -0.00000000000E+00 -0.00000000000E+00 -0.35732695536E+03  0.35732695540E+03  0.50400000000E-02 0. -1.
    5000001    1    1    2    0    0 -0.12963836435E+03  0.17089983162E+02 -0.28497913630E+03  0.36766191149E+03  0.19200000000E+03 0.  0.
   -5000001    1    1    2    0    0  0.12963836435E+03 -0.17089983162E+02  0.40408211649E+03  0.46609497949E+03  0.19200000000E+03 0.  0.
<mgrwt>
<rscale>  0 0.82520606E+03</rscale>
<asrwt>0</asrwt>
<pdfrwt beam="1">  1        1 0.68061419E-01 0.82520606E+03</pdfrwt>
<pdfrwt beam="2">  1       -1 0.51046708E-01 0.82520606E+03</pdfrwt>
<totfact> 0.20416739E+02</totfact>
</mgrwt>
</event>
<event>
 4    1  0.1454935E-005  0.4434907E+03  0.7818608E-02  0.1029681E+00
          1   -1    0    0  501    0  0.00000000000E+00  0.00000000000E+00  0.23967386000E+03  0.23967386006E+03  0.50400000000E-02 0.  1.
         -1   -1    0    0    0  501 -0.00000000000E+00 -0.00000000000E+00 -0.20515797372E+03  0.20515797378E+03  0.50400000000E-02 0. -1.
    5000001    1    1    2    0    0  0.44972122706E+02  0.19566680719E+02  0.11706592176E+03  0.23016032858E+03  0.19200000000E+03 0.  0.
   -5000001    1    1    2    0    0 -0.44972122706E+02 -0.19566680719E+02 -0.82550035475E+02  0.21467150526E+03  0.19200000000E+03 0.  0.
<mgrwt>
<rscale>  0 0.44349071E+03</rscale>
<asrwt>0</asrwt>
<pdfrwt beam="1">  1        1 0.34239123E-01 0.44349071E+03</pdfrwt>
<pdfrwt beam="2">  1       -1 0.29308282E-01 0.44349071E+03</pdfrwt>
<totfact> 0.13693310E+03</totfact>
</mgrwt>
</event>
<event>
 4    1  0.1454935E-005  0.5082770E+03  0.7818608E-02  0.1011641E+00
         -1   -1    0    0    0  501 -0.00000000000E+00  0.00000000000E+00  0.20167308342E+02  0.20167308972E+02  0.50400000000E-02 0.  1.
          1   -1    0    0  501    0  0.00000000000E+00 -0.00000000000E+00 -0.32025280062E+04  0.32025280062E+04  0.50400000000E-02 0. -1.
    5000001    1    1    2    0    0  0.70236642363E+02 -0.12985316297E+03 -0.11030354388E+04  0.11293122726E+04  0.19200000000E+03 0.  0.
   -5000001    1    1    2    0    0 -0.70236642363E+02  0.12985316297E+03 -0.20793252590E+04  0.20933830425E+04  0.19200000000E+03 0.  0.
<mgrwt>
<rscale>  0 0.50827697E+03</rscale>
<asrwt>0</asrwt>
<pdfrwt beam="1">  1        1 0.45750368E+00 0.50827697E+03</pdfrwt>
<pdfrwt beam="2">  1       -1 0.28810461E-02 0.50827697E+03</pdfrwt>
<totfact> 0.29087828E+02</totfact>
</mgrwt>
</event>
<event>
 4    1  0.1454935E-005  0.5773895E+03  0.7818608E-02  0.9953459E-01
         -1   -1    0    0    0  501 -0.00000000000E+00  0.00000000000E+00  0.12018454047E+03  0.12018454058E+03  0.50400000000E-02 0.  1.
          1   -1    0    0  501    0  0.00000000000E+00 -0.00000000000E+00 -0.69347232109E+03  0.69347232111E+03  0.50400000000E-02 0. -1.
    5000001    1    1    2    0    0 -0.20466574761E+03 -0.63817998762E+02 -0.25451392694E+03  0.38419024482E+03  0.19200000000E+03 0.  0.
   -5000001    1    1    2    0    0  0.20466574761E+03  0.63817998762E+02 -0.31877385368E+03  0.42946661686E+03  0.19200000000E+03 0.  0.
<mgrwt>
<rscale>  0 0.57738948E+03</rscale>
<asrwt>0</asrwt>
<pdfrwt beam="1">  1        1 0.99067472E-01 0.57738948E+03</pdfrwt>
<pdfrwt beam="2">  1       -1 0.17169221E-01 0.57738948E+03</pdfrwt>
<totfact> 0.81958532E+02</totfact>
</mgrwt>
</event>
<event>
 4    1  0.1454935E-005  0.5125367E+03  0.7818608E-02  0.1010557E+00
         -1   -1    0    0    0  501 -0.00000000000E+00  0.00000000000E+00  0.37295982205E+02  0.37295982546E+02  0.50400000000E-02 0. -1.
          1   -1    0    0  501    0  0.00000000000E+00 -0.00000000000E+00 -0.17608725313E+04  0.17608725313E+04  0.50400000000E-02 0.  1.
    5000001    1    1    2    0    0  0.85862705203E+02  0.10780328837E+02 -0.13740686022E+04  0.13901140756E+04  0.19200000000E+03 0.  0.
   -5000001    1    1    2    0    0 -0.85862705203E+02 -0.10780328837E+02 -0.34950794690E+03  0.40805443826E+03  0.19200000000E+03 0.  0.
<mgrwt>
<rscale>  0 0.51253671E+03</rscale>
<asrwt>0</asrwt>
<pdfrwt beam="1">  1        1 0.25155317E+00 0.51253671E+03</pdfrwt>
<pdfrwt beam="2">  1       -1 0.53279986E-02 0.51253671E+03</pdfrwt>
<totfact> 0.91784644E+02</totfact>
</mgrwt>
</event>
<event>
 4    1  0.1454935E-005  0.5139221E+03  0.7818608E-02  0.1010208E+00
         -1   -1    0    0    0  501 -0.00000000000E+00  0.00000000000E+00  0.68229473221E+03  0.68229473223E+03  0.50400000000E-02 0.  1.
          1   -1    0    0  501    0  0.00000000000E+00 -0.00000000000E+00 -0.96774882119E+02  0.96774882250E+02  0.50400000000E-02 0. -1.
    5000001    1    1    2    0    0 -0.12878071603E+02 -0.16978048407E+03  0.27277868702E+03  0.37451764924E+03  0.19200000000E+03 0.  0.
   -5000001    1    1    2    0    0  0.12878071603E+02  0.16978048407E+03  0.31274116307E+03  0.40455196524E+03  0.19200000000E+03 0.  0.
<mgrwt>
<rscale>  0 0.51392214E+03</rscale>
<asrwt>0</asrwt>
<pdfrwt beam="1">  1        1 0.13824984E-01 0.51392214E+03</pdfrwt>
<pdfrwt beam="2">  1       -1 0.97470672E-01 0.51392214E+03</pdfrwt>
<totfact> 0.44177960E+02</totfact>
</mgrwt>
</event>
<event>
 4    1  0.1454935E-005  0.4873086E+03  0.7818608E-02  0.1017146E+00
         -1   -1    0    0    0  501 -0.00000000000E+00  0.00000000000E+00  0.11407984579E+03  0.11407984591E+03  0.50400000000E-02 0.  1.
          1   -1    0    0  501    0  0.00000000000E+00 -0.00000000000E+00 -0.52040240337E+03  0.52040240339E+03  0.50400000000E-02 0. -1.
    5000001    1    1    2    0    0  0.13873955540E+03 -0.50900837560E+01 -0.12917699170E+03  0.26986157261E+03  0.19200000000E+03 0.  0.
   -5000001    1    1    2    0    0 -0.13873955540E+03  0.50900837560E+01 -0.27714556587E+03  0.36462067669E+03  0.19200000000E+03 0.  0.
<mgrwt>
<rscale>  0 0.48730863E+03</rscale>
<asrwt>0</asrwt>
<pdfrwt beam="1">  1        1 0.74343199E-01 0.48730863E+03</pdfrwt>
<pdfrwt beam="2">  1       -1 0.16297121E-01 0.48730863E+03</pdfrwt>
<totfact> 0.13343439E+03</totfact>
</mgrwt>
</event>
<event>
 4    1  0.1454935E-005  0.9204432E+03  0.7818608E-02  0.9400381E-01
         -1   -1    0    0    0  501 -0.00000000000E+00  0.00000000000E+00  0.41316942377E+03  0.41316942380E+03  0.50400000000E-02 0. -1.
          1   -1    0    0  501    0  0.00000000000E+00 -0.00000000000E+00 -0.51263217779E+03  0.51263217782E+03  0.50400000000E-02 0.  1.
    5000001    1    1    2    0    0  0.21691657871E+02  0.41662716391E+03 -0.79758472509E+02  0.46612673778E+03  0.19200000000E+03 0.  0.
   -5000001    1    1    2    0    0 -0.21691657871E+02 -0.41662716391E+03 -0.19704281516E+02  0.45967486384E+03  0.19200000000E+03 0.  0.
<mgrwt>
<rscale>  0 0.92044324E+03</rscale>
<asrwt>0</asrwt>
<pdfrwt beam="1">  1        1 0.73233168E-01 0.92044324E+03</pdfrwt>
<pdfrwt beam="2">  1       -1 0.59024204E-01 0.92044324E+03</pdfrwt>
<totfact> 0.13892076E+02</totfact>
</mgrwt>
</event>
<event>
 4    1  0.1454935E-005  0.5816802E+03  0.7818608E-02  0.9944160E-01
          1   -1    0    0  501    0  0.00000000000E+00  0.00000000000E+00  0.13727446619E+03  0.13727446628E+03  0.50400000000E-02 0.  1.
         -1   -1    0    0    0  501 -0.00000000000E+00 -0.00000000000E+00 -0.61619593534E+03  0.61619593536E+03  0.50400000000E-02 0. -1.
    5000001    1    1    2    0    0 -0.17974085851E+03  0.77215009818E+01 -0.78935556241E+02  0.27470205648E+03  0.19200000000E+03 0.  0.
   -5000001    1    1    2    0    0  0.17974085851E+03 -0.77215009818E+01 -0.39998591291E+03  0.47876834515E+03  0.19200000000E+03 0.  0.
<mgrwt>
<rscale>  0 0.58168022E+03</rscale>
<asrwt>0</asrwt>
<pdfrwt beam="1">  1        1 0.19610638E-01 0.58168022E+03</pdfrwt>
<pdfrwt beam="2">  1       -1 0.88027989E-01 0.58168022E+03</pdfrwt>
<totfact> 0.34653017E+02</totfact>
</mgrwt>
</event>
<event>
 4    1  0.1454935E-005  0.5538086E+03  0.7818608E-02  0.1000616E+00
         -1   -1    0    0    0  501 -0.00000000000E+00  0.00000000000E+00  0.26387275822E+03  0.26387275827E+03  0.50400000000E-02 0. -1.
          1   -1    0    0  501    0  0.00000000000E+00 -0.00000000000E+00 -0.29057946152E+03  0.29057946156E+03  0.50400000000E-02 0.  1.
    5000001    1    1    2    0    0 -0.97687506334E+02 -0.16473778811E+03  0.42663579906E+02  0.27452790164E+03  0.19200000000E+03 0.  0.
   -5000001    1    1    2    0    0  0.97687506334E+02  0.16473778811E+03 -0.69370283205E+02  0.27992431820E+03  0.19200000000E+03 0.  0.
<mgrwt>
<rscale>  0 0.55380865E+03</rscale>
<asrwt>0</asrwt>
<pdfrwt beam="1">  1        1 0.41511352E-01 0.55380865E+03</pdfrwt>
<pdfrwt beam="2">  1       -1 0.37696108E-01 0.55380865E+03</pdfrwt>
<totfact> 0.68815528E+02</totfact>
</mgrwt>
</event>
<event>
 4    1  0.1454935E-005  0.8694560E+03  0.7818608E-02  0.9464590E-01
         -1   -1    0    0    0  501 -0.00000000000E+00  0.00000000000E+00  0.11289322722E+04  0.11289322722E+04  0.50400000000E-02 0.  1.
          1   -1    0    0  501    0  0.00000000000E+00 -0.00000000000E+00 -0.16740456490E+03  0.16740456497E+03  0.50400000000E-02 0. -1.
    5000001    1    1    2    0    0 -0.14489308966E+03  0.36199238498E+03  0.49505869077E+03  0.65877128164E+03  0.19200000000E+03 0.  0.
   -5000001    1    1    2    0    0  0.14489308966E+03 -0.36199238498E+03  0.46646901652E+03  0.63756555552E+03  0.19200000000E+03 0.  0.
<mgrwt>
<rscale>  0 0.86945596E+03</rscale>
<asrwt>0</asrwt>
<pdfrwt beam="1">  1        1 0.23914937E-01 0.86945596E+03</pdfrwt>
<pdfrwt beam="2">  1       -1 0.16127604E+00 0.86945596E+03</pdfrwt>
<totfact> 0.59824919E+01</totfact>
</mgrwt>
</event>
<event>
 4    1  0.1454935E-005  0.6733965E+03  0.7818608E-02  0.9763841E-01
         -1   -1    0    0    0  501 -0.00000000000E+00  0.00000000000E+00  0.87699664435E+02  0.87699664579E+02  0.50400000000E-02 0. -1.
          1   -1    0    0  501    0  0.00000000000E+00 -0.00000000000E+00 -0.12926585212E+04  0.12926585212E+04  0.50400000000E-02 0.  1.
    5000001    1    1    2    0    0 -0.79668158787E+02  0.26156568463E+03 -0.68793842214E+03  0.76477898478E+03  0.19200000000E+03 0.  0.
   -5000001    1    1    2    0    0  0.79668158787E+02 -0.26156568463E+03 -0.51702043464E+03  0.61557920102E+03  0.19200000000E+03 0.  0.
<mgrwt>
<rscale>  0 0.67339652E+03</rscale>
<asrwt>0</asrwt>
<pdfrwt beam="1">  1        1 0.18466549E+00 0.67339652E+03</pdfrwt>
<pdfrwt beam="2">  1       -1 0.12528524E-01 0.67339652E+03</pdfrwt>
<totfact> 0.47759350E+02</totfact>
</mgrwt>
</event>
<event>
 4    1  0.1454935E-005  0.6007091E+03  0.7818608E-02  0.9903936E-01
         -1   -1    0    0    0  501 -0.00000000000E+00  0.00000000000E+00  0.70454075347E+02  0.70454075527E+02  0.50400000000E-02 0. -1.
          1   -1    0    0  501    0  0.00000000000E+00 -0.00000000000E+00 -0.12804488789E+04  0.12804488789E+04  0.50400000000E-02 0.  1.
    5000001    1    1    2    0    0 -0.56167045156E+02 -0.19548479674E+03 -0.35885595838E+03  0.45498422125E+03  0.19200000000E+03 0.  0.
   -5000001    1    1    2    0    0  0.56167045156E+02  0.19548479674E+03 -0.85113884519E+03  0.89591873321E+03  0.19200000000E+03 0.  0.
<mgrwt>
<rscale>  0 0.60070905E+03</rscale>
<asrwt>0</asrwt>
<pdfrwt beam="1">  1        1 0.18292125E+00 0.60070905E+03</pdfrwt>
<pdfrwt beam="2">  1       -1 0.10064869E-01 0.60070905E+03</pdfrwt>
<totfact> 0.69177968E+02</totfact>
</mgrwt>
</event>
<event>
 4    1  0.1454935E-005  0.5991364E+03  0.7818608E-02  0.9907199E-01
         -1   -1    0    0    0  501 -0.00000000000E+00  0.00000000000E+00  0.14419174177E+03  0.14419174186E+03  0.50400000000E-02 0.  1.
          1   -1    0    0  501    0  0.00000000000E+00 -0.00000000000E+00 -0.62237342187E+03  0.62237342189E+03  0.50400000000E-02 0. -1.
    5000001    1    1    2    0    0  0.18377096640E+02 -0.21130082312E+03 -0.12543308208E+03  0.31238311992E+03  0.19200000000E+03 0.  0.
   -5000001    1    1    2    0    0 -0.18377096640E+02  0.21130082312E+03 -0.35274859801E+03  0.45418204382E+03  0.19200000000E+03 0.  0.
<mgrwt>
<rscale>  0 0.59913640E+03</rscale>
<asrwt>0</asrwt>
<pdfrwt beam="1">  1        1 0.88910487E-01 0.59913640E+03</pdfrwt>
<pdfrwt beam="2">  1       -1 0.20598821E-01 0.59913640E+03</pdfrwt>
<totfact> 0.70853439E+02</totfact>
</mgrwt>
</event>
<event>
 4    1  0.1454935E-005  0.4161990E+03  0.7818608E-02  0.1038311E+00
          1   -1    0    0  501    0  0.00000000000E+00  0.00000000000E+00  0.80594280586E+03  0.80594280588E+03  0.50400000000E-02 0.  1.
         -1   -1    0    0    0  501 -0.00000000000E+00 -0.00000000000E+00 -0.53732607650E+02  0.53732607886E+02  0.50400000000E-02 0. -1.
    5000001    1    1    2    0    0  0.31327913709E+02  0.45400218554E+02  0.25568592394E+03  0.32447173948E+03  0.19200000000E+03 0.  0.
   -5000001    1    1    2    0    0 -0.31327913709E+02 -0.45400218554E+02  0.49652427427E+03  0.53520367428E+03  0.19200000000E+03 0.  0.
<mgrwt>
<rscale>  0 0.41619903E+03</rscale>
<asrwt>0</asrwt>
<pdfrwt beam="1">  1        1 0.11513468E+00 0.41619903E+03</pdfrwt>
<pdfrwt beam="2">  1       -1 0.76760874E-02 0.41619903E+03</pdfrwt>
<totfact> 0.23502005E+03</totfact>
</mgrwt>
</event>
<event>
 4    1  0.1454935E-005  0.4817485E+03  0.7818608E-02  0.1018656E+00
         -1   -1    0    0    0  501 -0.00000000000E+00  0.00000000000E+00  0.40319932192E+02  0.40319932507E+02  0.50400000000E-02 0. -1.
          1   -1    0    0  501    0  0.00000000000E+00 -0.00000000000E+00 -0.14390007137E+04  0.14390007137E+04  0.50400000000E-02 0.  1.
    5000001    1    1    2    0    0 -0.45426365237E+02  0.12540888071E+03 -0.87748174320E+03  0.90809093799E+03  0.19200000000E+03 0.  0.
   -5000001    1    1    2    0    0  0.45426365237E+02 -0.12540888071E+03 -0.52119903830E+03  0.57122970821E+03  0.19200000000E+03 0.  0.
<mgrwt>
<rscale>  0 0.48174853E+03</rscale>
<asrwt>0</asrwt>
<pdfrwt beam="1">  1        1 0.20557150E+00 0.48174853E+03</pdfrwt>
<pdfrwt beam="2">  1       -1 0.57599913E-02 0.48174853E+03</pdfrwt>
<totfact> 0.13015126E+03</totfact>
</mgrwt>
</event>
<event>
 4    1  0.1454935E-005  0.7637206E+03  0.7818608E-02  0.9614067E-01
          1   -1    0    0  501    0  0.00000000000E+00  0.00000000000E+00  0.39842481686E+03  0.39842481689E+03  0.50400000000E-02 0.  1.
         -1   -1    0    0    0  501 -0.00000000000E+00 -0.00000000000E+00 -0.36598449479E+03  0.36598449482E+03  0.50400000000E-02 0. -1.
    5000001    1    1    2    0    0  0.18984694844E+03  0.26124849707E+03  0.84550779153E+02  0.38510449921E+03  0.19200000000E+03 0.  0.
   -5000001    1    1    2    0    0 -0.18984694844E+03 -0.26124849707E+03 -0.52110457086E+02  0.37930481251E+03  0.19200000000E+03 0.  0.
<mgrwt>
<rscale>  0 0.76372064E+03</rscale>
<asrwt>0</asrwt>
<pdfrwt beam="1">  1        1 0.56917831E-01 0.76372064E+03</pdfrwt>
<pdfrwt beam="2">  1       -1 0.52283499E-01 0.76372064E+03</pdfrwt>
<totfact> 0.24806110E+02</totfact>
</mgrwt>
</event>
<event>
 4    1  0.1454935E-005  0.6725118E+03  0.7818608E-02  0.9765431E-01
         -1   -1    0    0    0  501 -0.00000000000E+00  0.00000000000E+00  0.18272720159E+03  0.18272720166E+03  0.50400000000E-02 0. -1.
          1   -1    0    0  501    0  0.00000000000E+00 -0.00000000000E+00 -0.61878046607E+03  0.61878046609E+03  0.50400000000E-02 0.  1.
    5000001    1    1    2    0    0 -0.23571254095E+03 -0.30782579316E+02 -0.50764588901E+02  0.30975637626E+03  0.19200000000E+03 0.  0.
   -5000001    1    1    2    0    0  0.23571254095E+03  0.30782579316E+02 -0.38528867558E+03  0.49175129148E+03  0.19200000000E+03 0.  0.
<mgrwt>
<rscale>  0 0.67251178E+03</rscale>
<asrwt>0</asrwt>
<pdfrwt beam="1">  1        1 0.88397208E-01 0.67251178E+03</pdfrwt>
<pdfrwt beam="2">  1       -1 0.26103886E-01 0.67251178E+03</pdfrwt>
<totfact> 0.47814650E+02</totfact>
</mgrwt>
</event>
<event>
 4    1  0.1454935E-005  0.8708008E+03  0.7818608E-02  0.9462836E-01
          1   -1    0    0  501    0  0.00000000000E+00  0.00000000000E+00  0.11931637240E+04  0.11931637240E+04  0.50400000000E-02 0.  1.
         -1   -1    0    0    0  501 -0.00000000000E+00 -0.00000000000E+00 -0.15888306172E+03  0.15888306180E+03  0.50400000000E-02 0. -1.
    5000001    1    1    2    0    0  0.38327539645E+03  0.60703205451E+02  0.44557359932E+03  0.62127670251E+03  0.19200000000E+03 0.  0.
   -5000001    1    1    2    0    0 -0.38327539645E+03 -0.60703205451E+02  0.58870706299E+03  0.73077008333E+03  0.19200000000E+03 0.  0.
<mgrwt>
<rscale>  0 0.87080079E+03</rscale>
<asrwt>0</asrwt>
<pdfrwt beam="1">  1        1 0.17045196E+00 0.87080079E+03</pdfrwt>
<pdfrwt beam="2">  1       -1 0.22697580E-01 0.87080079E+03</pdfrwt>
<totfact> 0.20792622E+02</totfact>
</mgrwt>
</event>
<event>
 4    1  0.1454935E-005  0.5223491E+03  0.7818608E-02  0.1008105E+00
         -1   -1    0    0    0  501 -0.00000000000E+00  0.00000000000E+00  0.53050401667E+02  0.53050401907E+02  0.50400000000E-02 0.  1.
          1   -1    0    0  501    0  0.00000000000E+00 -0.00000000000E+00 -0.12857986335E+04  0.12857986335E+04  0.50400000000E-02 0. -1.
    5000001    1    1    2    0    0 -0.12012206469E+03 -0.12781070853E+03 -0.67827500180E+03  0.72641989628E+03  0.19200000000E+03 0.  0.
   -5000001    1    1    2    0    0  0.12012206469E+03  0.12781070853E+03 -0.55447322999E+03  0.61242913910E+03  0.19200000000E+03 0.  0.
<mgrwt>
<rscale>  0 0.52234906E+03</rscale>
<asrwt>0</asrwt>
<pdfrwt beam="1">  1        1 0.18368550E+00 0.52234906E+03</pdfrwt>
<pdfrwt beam="2">  1       -1 0.75786296E-02 0.52234906E+03</pdfrwt>
<totfact> 0.10727006E+03</totfact>
</mgrwt>
</event>
<event>
 4    1  0.1454935E-005  0.4595934E+03  0.7818608E-02  0.1024899E+00
         -1   -1    0    0    0  501 -0.00000000000E+00  0.00000000000E+00  0.34257961315E+02  0.34257961686E+02  0.50400000000E-02 0. -1.
          1   -1    0    0  501    0  0.00000000000E+00 -0.00000000000E+00 -0.15414381466E+04  0.15414381466E+04  0.50400000000E-02 0.  1.
    5000001    1    1    2    0    0  0.70475202256E+02  0.10216103199E+03 -0.67400128757E+03  0.71172000551E+03  0.19200000000E+03 0.  0.
   -5000001    1    1    2    0    0 -0.70475202256E+02 -0.10216103199E+03 -0.83317889772E+03  0.86397610279E+03  0.19200000000E+03 0.  0.
<mgrwt>
<rscale>  0 0.45959342E+03</rscale>
<asrwt>0</asrwt>
<pdfrwt beam="1">  1        1 0.22020541E+00 0.45959342E+03</pdfrwt>
<pdfrwt beam="2">  1       -1 0.48939955E-02 0.45959342E+03</pdfrwt>
<totfact> 0.14366597E+03</totfact>
</mgrwt>
</event>
<event>
 4    1  0.1454935E-005  0.6255470E+03  0.7818608E-02  0.9853777E-01
         -1   -1    0    0    0  501 -0.00000000000E+00  0.00000000000E+00  0.50003840173E+02  0.50003840427E+02  0.50400000000E-02 0. -1.
          1   -1    0    0  501    0  0.00000000000E+00 -0.00000000000E+00 -0.19563947649E+04  0.19563947649E+04  0.50400000000E-02 0.  1.
    5000001    1    1    2    0    0 -0.23862537766E+03  0.28946800997E+02 -0.77223088473E+03  0.83125479095E+03  0.19200000000E+03 0.  0.
   -5000001    1    1    2    0    0  0.23862537766E+03 -0.28946800997E+02 -0.11341600400E+04  0.11751438144E+04  0.19200000000E+03 0.  0.
<mgrwt>
<rscale>  0 0.62554697E+03</rscale>
<asrwt>0</asrwt>
<pdfrwt beam="1">  1        1 0.27948492E+00 0.62554697E+03</pdfrwt>
<pdfrwt beam="2">  1       -1 0.71434070E-02 0.62554697E+03</pdfrwt>
<totfact> 0.43894749E+02</totfact>
</mgrwt>
</event>
<event>
 4    1  0.1454935E-005  0.9581588E+03  0.7818608E-02  0.9355665E-01
         -1   -1    0    0    0  501 -0.00000000000E+00  0.00000000000E+00  0.32067878858E+03  0.32067878862E+03  0.50400000000E-02 0. -1.
          1   -1    0    0  501    0  0.00000000000E+00 -0.00000000000E+00 -0.71572262253E+03  0.71572262255E+03  0.50400000000E-02 0.  1.
    5000001    1    1    2    0    0 -0.14461629759E+03 -0.38118231191E+03 -0.37340130837E+03  0.58524043395E+03  0.19200000000E+03 0.  0.
   -5000001    1    1    2    0    0  0.14461629759E+03  0.38118231191E+03 -0.21642525591E+02  0.45116097721E+03  0.19200000000E+03 0.  0.
<mgrwt>
<rscale>  0 0.95815878E+03</rscale>
<asrwt>0</asrwt>
<pdfrwt beam="1">  1        1 0.10224609E+00 0.95815878E+03</pdfrwt>
<pdfrwt beam="2">  1       -1 0.45811256E-01 0.95815878E+03</pdfrwt>
<totfact> 0.14013225E+02</totfact>
</mgrwt>
</event>
<event>
 4    1  0.1454935E-005  0.7354306E+03  0.7818608E-02  0.9658489E-01
         -1   -1    0    0    0  501 -0.00000000000E+00  0.00000000000E+00  0.12995751452E+04  0.12995751452E+04  0.50400000000E-02 0. -1.
          1   -1    0    0  501    0  0.00000000000E+00 -0.00000000000E+00 -0.10404520272E+03  0.10404520284E+03  0.50400000000E-02 0.  1.
    5000001    1    1    2    0    0  0.11532460993E+03  0.28294650660E+03  0.46291582881E+03  0.58695277137E+03  0.19200000000E+03 0.  0.
   -5000001    1    1    2    0    0 -0.11532460993E+03 -0.28294650660E+03  0.73261411369E+03  0.81666757670E+03  0.19200000000E+03 0.  0.
<mgrwt>
<rscale>  0 0.73543065E+03</rscale>
<asrwt>0</asrwt>
<pdfrwt beam="1">  1        1 0.14863601E-01 0.73543065E+03</pdfrwt>
<pdfrwt beam="2">  1       -1 0.18565358E+00 0.73543065E+03</pdfrwt>
<totfact> 0.75643509E+01</totfact>
</mgrwt>
</event>
<event>
 4    1  0.1454935E-005  0.5744837E+03  0.7818608E-02  0.9959806E-01
          1   -1    0    0  501    0  0.00000000000E+00  0.00000000000E+00  0.19030961670E+04  0.19030961670E+04  0.50400000000E-02 0.  1.
         -1   -1    0    0    0  501 -0.00000000000E+00 -0.00000000000E+00 -0.43354543734E+02  0.43354544027E+02  0.50400000000E-02 0. -1.
    5000001    1    1    2    0    0 -0.14741487650E+03  0.10936397322E+03  0.55945422696E+03  0.61930982271E+03  0.19200000000E+03 0.  0.
   -5000001    1    1    2    0    0  0.14741487650E+03 -0.10936397322E+03  0.13002873963E+04  0.13271408884E+04  0.19200000000E+03 0.  0.
<mgrwt>
<rscale>  0 0.57448365E+03</rscale>
<asrwt>0</asrwt>
<pdfrwt beam="1">  1        1 0.27187085E+00 0.57448365E+03</pdfrwt>
<pdfrwt beam="2">  1       -1 0.61935071E-02 0.57448365E+03</pdfrwt>
<totfact> 0.59259355E+02</totfact>
</mgrwt>
</event>
<event>
 4    1  0.1454935E-005  0.1297054E+04  0.7818608E-02  0.9031905E-01
          1   -1    0    0  501    0  0.00000000000E+00  0.00000000000E+00  0.66622102563E+03  0.66622102565E+03  0.50400000000E-02 0.  1.
         -1   -1    0    0    0  501 -0.00000000000E+00 -0.00000000000E+00 -0.63130259047E+03  0.63130259049E+03  0.50400000000E-02 0. -1.
    5000001    1    1    2    0    0  0.18171025442E+03  0.25940375315E+03 -0.51510020875E+03  0.63442978238E+03  0.19200000000E+03 0.  0.
   -5000001    1    1    2    0    0 -0.18171025442E+03 -0.25940375315E+03  0.55001864392E+03  0.66309383376E+03  0.19200000000E+03 0.  0.
<mgrwt>
<rscale>  0 0.12970537E+04</rscale>
<asrwt>0</asrwt>
<pdfrwt beam="1">  1        1 0.95174433E-01 0.12970537E+04</pdfrwt>
<pdfrwt beam="2">  1       -1 0.90186084E-01 0.12970537E+04</pdfrwt>
<totfact> 0.38795349E+01</totfact>
</mgrwt>
</event>
<event>
 4    1  0.1454935E-005  0.6621146E+03  0.7818608E-02  0.9784309E-01
         -1   -1    0    0    0  501 -0.00000000000E+00  0.00000000000E+00  0.18530365320E+03  0.18530365327E+03  0.50400000000E-02 0. -1.
          1   -1    0    0  501    0  0.00000000000E+00 -0.00000000000E+00 -0.59145580469E+03  0.59145580471E+03  0.50400000000E-02 0.  1.
    5000001    1    1    2    0    0 -0.11137980590E+03 -0.22306718185E+03 -0.82461157451E+02  0.32531257472E+03  0.19200000000E+03 0.  0.
   -5000001    1    1    2    0    0  0.11137980590E+03  0.22306718185E+03 -0.32369099404E+03  0.45144688326E+03  0.19200000000E+03 0.  0.
<mgrwt>
<rscale>  0 0.66211456E+03</rscale>
<asrwt>0</asrwt>
<pdfrwt beam="1">  1        1 0.84493686E-01 0.66211456E+03</pdfrwt>
<pdfrwt beam="2">  1       -1 0.26471951E-01 0.66211456E+03</pdfrwt>
<totfact> 0.49765264E+02</totfact>
</mgrwt>
</event>
<event>
 4    1  0.1454935E-005  0.4550147E+03  0.7818608E-02  0.1026237E+00
         -1   -1    0    0    0  501 -0.00000000000E+00  0.00000000000E+00  0.40490365800E+03  0.40490365803E+03  0.50400000000E-02 0. -1.
          1   -1    0    0  501    0  0.00000000000E+00 -0.00000000000E+00 -0.12783189954E+03  0.12783189964E+03  0.50400000000E-02 0.  1.
    5000001    1    1    2    0    0 -0.76111083061E+02  0.74690637558E+02  0.20803913047E+03  0.30251589728E+03  0.19200000000E+03 0.  0.
   -5000001    1    1    2    0    0  0.76111083061E+02 -0.74690637558E+02  0.69032627991E+02  0.23021966039E+03  0.19200000000E+03 0.  0.
<mgrwt>
<rscale>  0 0.45501474E+03</rscale>
<asrwt>0</asrwt>
<pdfrwt beam="1">  1        1 0.18261700E-01 0.45501474E+03</pdfrwt>
<pdfrwt beam="2">  1       -1 0.57843380E-01 0.45501474E+03</pdfrwt>
<totfact> 0.90042563E+02</totfact>
</mgrwt>
</event>
<event>
 4    1  0.1454935E-005  0.9804836E+03  0.7818608E-02  0.9330213E-01
          1   -1    0    0  501    0  0.00000000000E+00  0.00000000000E+00  0.48431937895E+03  0.48431937898E+03  0.50400000000E-02 0.  1.
         -1   -1    0    0    0  501 -0.00000000000E+00 -0.00000000000E+00 -0.49623661700E+03  0.49623661703E+03  0.50400000000E-02 0. -1.
    5000001    1    1    2    0    0 -0.15777401300E+03 -0.19143726504E+03 -0.38272527398E+03  0.49485705104E+03  0.19200000000E+03 0.  0.
   -5000001    1    1    2    0    0  0.15777401300E+03  0.19143726504E+03  0.37080803593E+03  0.48569894496E+03  0.19200000000E+03 0.  0.
<mgrwt>
<rscale>  0 0.98048357E+03</rscale>
<asrwt>0</asrwt>
<pdfrwt beam="1">  1        1 0.69188483E-01 0.98048357E+03</pdfrwt>
<pdfrwt beam="2">  1       -1 0.70890945E-01 0.98048357E+03</pdfrwt>
<totfact> 0.10345605E+02</totfact>
</mgrwt>
</event>
<event>
 4    1  0.1454935E-005  0.6673318E+03  0.7818608E-02  0.9774790E-01
          1   -1    0    0  501    0  0.00000000000E+00  0.00000000000E+00  0.27309822497E+04  0.27309822497E+04  0.50400000000E-02 0.  1.
         -1   -1    0    0    0  501 -0.00000000000E+00 -0.00000000000E+00 -0.40766629213E+02  0.40766629524E+02  0.50400000000E-02 0. -1.
    5000001    1    1    2    0    0  0.25079833708E+03  0.10611684651E+03  0.14180425036E+04  0.14566636993E+04  0.19200000000E+03 0.  0.
   -5000001    1    1    2    0    0 -0.25079833708E+03 -0.10611684651E+03  0.12721731169E+04  0.13150851799E+04  0.19200000000E+03 0.  0.
<mgrwt>
<rscale>  0 0.66733183E+03</rscale>
<asrwt>0</asrwt>
<pdfrwt beam="1">  1        1 0.39014034E+00 0.66733183E+03</pdfrwt>
<pdfrwt beam="2">  1       -1 0.58238040E-02 0.66733183E+03</pdfrwt>
<totfact> 0.19764606E+02</totfact>
</mgrwt>
</event>
<event>
 4    1  0.1454935E-005  0.9587053E+03  0.7818608E-02  0.9355033E-01
         -1   -1    0    0    0  501 -0.00000000000E+00  0.00000000000E+00  0.16241605310E+03  0.16241605318E+03  0.50400000000E-02 0. -1.
          1   -1    0    0  501    0  0.00000000000E+00 -0.00000000000E+00 -0.14147553793E+04  0.14147553793E+04  0.50400000000E-02 0.  1.
    5000001    1    1    2    0    0 -0.17711182813E+03  0.34776759593E+03 -0.29467341738E+03  0.52536399130E+03  0.19200000000E+03 0.  0.
   -5000001    1    1    2    0    0  0.17711182813E+03 -0.34776759593E+03 -0.95766590884E+03  0.10518074412E+04  0.19200000000E+03 0.  0.
<mgrwt>
<rscale>  0 0.95870535E+03</rscale>
<asrwt>0</asrwt>
<pdfrwt beam="1">  1        1 0.20210790E+00 0.95870535E+03</pdfrwt>
<pdfrwt beam="2">  1       -1 0.23202294E-01 0.95870535E+03</pdfrwt>
<totfact> 0.14121394E+02</totfact>
</mgrwt>
</event>
<event>
 4    1  0.1454935E-005  0.7490629E+03  0.7818608E-02  0.9636822E-01
         -1   -1    0    0    0  501 -0.00000000000E+00  0.00000000000E+00  0.51578122137E+03  0.51578122140E+03  0.50400000000E-02 0. -1.
          1   -1    0    0  501    0  0.00000000000E+00 -0.00000000000E+00 -0.27196375750E+03  0.27196375755E+03  0.50400000000E-02 0.  1.
    5000001    1    1    2    0    0  0.27965639581E+03 -0.13741040112E+02  0.28823188826E+03  0.44535170069E+03  0.19200000000E+03 0.  0.
   -5000001    1    1    2    0    0 -0.27965639581E+03  0.13741040112E+02 -0.44414424390E+02  0.34239327826E+03  0.19200000000E+03 0.  0.
<mgrwt>
<rscale>  0 0.74906288E+03</rscale>
<asrwt>0</asrwt>
<pdfrwt beam="1">  1        1 0.38851966E-01 0.74906288E+03</pdfrwt>
<pdfrwt beam="2">  1       -1 0.73683031E-01 0.74906288E+03</pdfrwt>
<totfact> 0.20617313E+02</totfact>
</mgrwt>
</event>
<event>
 4    1  0.1454935E-005  0.4817512E+03  0.7818608E-02  0.1018655E+00
         -1   -1    0    0    0  501 -0.00000000000E+00  0.00000000000E+00  0.13749886099E+03  0.13749886108E+03  0.50400000000E-02 0.  1.
          1   -1    0    0  501    0  0.00000000000E+00 -0.00000000000E+00 -0.42197473828E+03  0.42197473831E+03  0.50400000000E-02 0. -1.
    5000001    1    1    2    0    0 -0.48312954408E+02 -0.12220682426E+03 -0.21465519963E+03  0.31655884790E+03  0.19200000000E+03 0.  0.
   -5000001    1    1    2    0    0  0.48312954408E+02  0.12220682426E+03 -0.69820677666E+02  0.24291475148E+03  0.19200000000E+03 0.  0.
<mgrwt>
<rscale>  0 0.48175116E+03</rscale>
<asrwt>0</asrwt>
<pdfrwt beam="1">  1        1 0.60282105E-01 0.48175116E+03</pdfrwt>
<pdfrwt beam="2">  1       -1 0.19642695E-01 0.48175116E+03</pdfrwt>
<totfact> 0.12982379E+03</totfact>
</mgrwt>
</event>
<event>
 4    1  0.1454935E-005  0.6688395E+03  0.7818608E-02  0.9772057E-01
         -1   -1    0    0    0  501 -0.00000000000E+00  0.00000000000E+00  0.23465920635E+03  0.23465920641E+03  0.50400000000E-02 0.  1.
          1   -1    0    0  501    0  0.00000000000E+00 -0.00000000000E+00 -0.47659145935E+03  0.47659145938E+03  0.50400000000E-02 0. -1.
    5000001    1    1    2    0    0 -0.22805943020E+03 -0.14160582482E+03 -0.17832386961E+03  0.37513559655E+03  0.19200000000E+03 0.  0.
   -5000001    1    1    2    0    0  0.22805943020E+03  0.14160582482E+03 -0.63608383396E+02  0.33611506923E+03  0.19200000000E+03 0.  0.
<mgrwt>
<rscale>  0 0.66883951E+03</rscale>
<asrwt>0</asrwt>
<pdfrwt beam="1">  1        1 0.68084494E-01 0.66883951E+03</pdfrwt>
<pdfrwt beam="2">  1       -1 0.33522744E-01 0.66883951E+03</pdfrwt>
<totfact> 0.44339918E+02</totfact>
</mgrwt>
</event>
<event>
 4    1  0.1454935E-005  0.8641080E+03  0.7818608E-02  0.9471595E-01
         -1   -1    0    0    0  501 -0.00000000000E+00  0.00000000000E+00  0.12043991376E+03  0.12043991386E+03  0.50400000000E-02 0.  1.
          1   -1    0    0  501    0  0.00000000000E+00 -0.00000000000E+00 -0.15499071172E+04  0.15499071172E+04  0.50400000000E-02 0. -1.
    5000001    1    1    2    0    0  0.28236296963E+03  0.25190253262E+03 -0.87204648882E+03  0.96980039762E+03  0.19200000000E+03 0.  0.
   -5000001    1    1    2    0    0 -0.28236296963E+03 -0.25190253262E+03 -0.55742071464E+03  0.70054663347E+03  0.19200000000E+03 0.  0.
<mgrwt>
<rscale>  0 0.86410805E+03</rscale>
<asrwt>0</asrwt>
<pdfrwt beam="1">  1        1 0.22141529E+00 0.86410805E+03</pdfrwt>
<pdfrwt beam="2">  1       -1 0.17205703E-01 0.86410805E+03</pdfrwt>
<totfact> 0.19130929E+02</totfact>
</mgrwt>
</event>
<event>
 4    1  0.1454935E-005  0.9357997E+03  0.7818608E-02  0.9381904E-01
          1   -1    0    0  501    0  0.00000000000E+00  0.00000000000E+00  0.64779631329E+03  0.64779631331E+03  0.50400000000E-02 0.  1.
         -1   -1    0    0    0  501 -0.00000000000E+00 -0.00000000000E+00 -0.33796158871E+03  0.33796158875E+03  0.50400000000E-02 0. -1.
    5000001    1    1    2    0    0 -0.23468514873E+03  0.15297847146E+03 -0.18411366499E+03  0.38631771044E+03  0.19200000000E+03 0.  0.
   -5000001    1    1    2    0    0  0.23468514873E+03 -0.15297847146E+03  0.49394838957E+03  0.59944019161E+03  0.19200000000E+03 0.  0.
<mgrwt>
<rscale>  0 0.93579970E+03</rscale>
<asrwt>0</asrwt>
<pdfrwt beam="1">  1        1 0.92542330E-01 0.93579970E+03</pdfrwt>
<pdfrwt beam="2">  1       -1 0.48280227E-01 0.93579970E+03</pdfrwt>
<totfact> 0.14718137E+02</totfact>
</mgrwt>
</event>
<event>
 4    1  0.1454935E-005  0.1508266E+04  0.7818608E-02  0.8878974E-01
          1   -1    0    0  501    0  0.00000000000E+00  0.00000000000E+00  0.39014627424E+04  0.39014627424E+04  0.50400000000E-02 0. -1.
         -1   -1    0    0    0  501 -0.00000000000E+00 -0.00000000000E+00 -0.14577018437E+03  0.14577018445E+03  0.50400000000E-02 0.  1.
    5000001    1    1    2    0    0  0.28128641154E+03  0.58966707433E+03  0.27474545321E+04  0.28305829275E+04  0.19200000000E+03 0.  0.
   -5000001    1    1    2    0    0 -0.28128641154E+03 -0.58966707433E+03  0.10082380260E+04  0.12166499994E+04  0.19200000000E+03 0.  0.
<mgrwt>
<rscale>  0 0.15082665E+04</rscale>
<asrwt>0</asrwt>
<pdfrwt beam="1">  1        1 0.55735185E+00 0.15082665E+04</pdfrwt>
<pdfrwt beam="2">  1       -1 0.20824311E-01 0.15082665E+04</pdfrwt>
<totfact> 0.37385297E+00</totfact>
</mgrwt>
</event>
<event>
 4    1  0.1454935E-005  0.5925654E+03  0.7818608E-02  0.9920952E-01
         -1   -1    0    0    0  501 -0.00000000000E+00  0.00000000000E+00  0.99897780042E+02  0.99897780169E+02  0.50400000000E-02 0.  1.
          1   -1    0    0  501    0  0.00000000000E+00 -0.00000000000E+00 -0.87873263022E+03  0.87873263023E+03  0.50400000000E-02 0. -1.
    5000001    1    1    2    0    0  0.15279999830E+03 -0.15946367592E+03 -0.31296575415E+03  0.42847178051E+03  0.19200000000E+03 0.  0.
   -5000001    1    1    2    0    0 -0.15279999830E+03  0.15946367592E+03 -0.46586909602E+03  0.55015862990E+03  0.19200000000E+03 0.  0.
<mgrwt>
<rscale>  0 0.59256540E+03</rscale>
<asrwt>0</asrwt>
<pdfrwt beam="1">  1        1 0.12553323E+00 0.59256540E+03</pdfrwt>
<pdfrwt beam="2">  1       -1 0.14271112E-01 0.59256540E+03</pdfrwt>
<totfact> 0.77128952E+02</totfact>
</mgrwt>
</event>
<event>
 4    1  0.1454935E-005  0.6604926E+03  0.7818608E-02  0.9787287E-01
          1   -1    0    0  501    0  0.00000000000E+00  0.00000000000E+00  0.99873243623E+03  0.99873243624E+03  0.50400000000E-02 0. -1.
         -1   -1    0    0    0  501 -0.00000000000E+00 -0.00000000000E+00 -0.10920104219E+03  0.10920104231E+03  0.50400000000E-02 0.  1.
    5000001    1    1    2    0    0  0.22683684565E+03  0.64815975925E+02  0.66051383188E+03  0.72718538722E+03  0.19200000000E+03 0.  0.
   -5000001    1    1    2    0    0 -0.22683684565E+03 -0.64815975925E+02  0.22901756216E+03  0.38074809133E+03  0.19200000000E+03 0.  0.
<mgrwt>
<rscale>  0 0.66049261E+03</rscale>
<asrwt>0</asrwt>
<pdfrwt beam="1">  1        1 0.14267607E+00 0.66049261E+03</pdfrwt>
<pdfrwt beam="2">  1       -1 0.15600148E-01 0.66049261E+03</pdfrwt>
<totfact> 0.53920008E+02</totfact>
</mgrwt>
</event>
<event>
 4    1  0.1454935E-005  0.4607064E+03  0.7818608E-02  0.1024577E+00
          1   -1    0    0  501    0  0.00000000000E+00  0.00000000000E+00  0.14849986446E+03  0.14849986455E+03  0.50400000000E-02 0.  1.
         -1   -1    0    0    0  501 -0.00000000000E+00 -0.00000000000E+00 -0.35732426321E+03  0.35732426325E+03  0.50400000000E-02 0. -1.
    5000001    1    1    2    0    0 -0.10222391547E+03  0.71569615927E+02 -0.13189704389E+03  0.26425890525E+03  0.19200000000E+03 0.  0.
   -5000001    1    1    2    0    0  0.10222391547E+03 -0.71569615927E+02 -0.76927354867E+02  0.24156522255E+03  0.19200000000E+03 0.  0.
<mgrwt>
<rscale>  0 0.46070643E+03</rscale>
<asrwt>0</asrwt>
<pdfrwt beam="1">  1        1 0.21214267E-01 0.46070643E+03</pdfrwt>
<pdfrwt beam="2">  1       -1 0.51046323E-01 0.46070643E+03</pdfrwt>
<totfact> 0.93888735E+02</totfact>
</mgrwt>
</event>
<event>
 4    1  0.1454935E-005  0.1714213E+04  0.7818608E-02  0.8753300E-01
         -1   -1    0    0    0  501 -0.00000000000E+00  0.00000000000E+00  0.15670146681E+04  0.15670146681E+04  0.50400000000E-02 0. -1.
          1   -1    0    0  501    0  0.00000000000E+00 -0.00000000000E+00 -0.46880946652E+03  0.46880946655E+03  0.50400000000E-02 0.  1.
    5000001    1    1    2    0    0  0.56608289848E+03  0.60317219375E+03  0.68709487521E+03  0.10923506355E+04  0.19200000000E+03 0.  0.
   -5000001    1    1    2    0    0 -0.56608289848E+03 -0.60317219375E+03  0.41111032641E+03  0.94347349923E+03  0.19200000000E+03 0.  0.
<mgrwt>
<rscale>  0 0.17142127E+04</rscale>
<asrwt>0</asrwt>
<pdfrwt beam="1">  1        1 0.66972781E-01 0.17142127E+04</pdfrwt>
<pdfrwt beam="2">  1       -1 0.22385924E+00 0.17142127E+04</pdfrwt>
<totfact> 0.52930625E+00</totfact>
</mgrwt>
</event>
<event>
 4    1  0.1454935E-005  0.4546187E+03  0.7818608E-02  0.1026354E+00
          1   -1    0    0  501    0  0.00000000000E+00  0.00000000000E+00  0.14746189229E+04  0.14746189229E+04  0.50400000000E-02 0.  1.
         -1   -1    0    0    0  501 -0.00000000000E+00 -0.00000000000E+00 -0.35039243047E+02  0.35039243410E+02  0.50400000000E-02 0. -1.
    5000001    1    1    2    0    0  0.71821770752E+02 -0.38056170090E+02  0.41910678424E+03  0.46810376567E+03  0.19200000000E+03 0.  0.
   -5000001    1    1    2    0    0 -0.71821770752E+02  0.38056170090E+02  0.10204728956E+04  0.10415544007E+04  0.19200000000E+03 0.  0.
<mgrwt>
<rscale>  0 0.45461866E+03</rscale>
<asrwt>0</asrwt>
<pdfrwt beam="1">  1        1 0.21065988E+00 0.45461866E+03</pdfrwt>
<pdfrwt beam="2">  1       -1 0.50056054E-02 0.45461866E+03</pdfrwt>
<totfact> 0.15310167E+03</totfact>
</mgrwt>
</event>
<event>
 4    1  0.1454935E-005  0.4256202E+03  0.7818608E-02  0.1035253E+00
         -1   -1    0    0    0  501 -0.00000000000E+00  0.00000000000E+00  0.17820108957E+02  0.17820109669E+02  0.50400000000E-02 0. -1.
          1   -1    0    0  501    0  0.00000000000E+00 -0.00000000000E+00 -0.25414063456E+04  0.25414063456E+04  0.50400000000E-02 0.  1.
    5000001    1    1    2    0    0 -0.24286784485E+02  0.87416892237E+02 -0.13452360902E+04  0.13618941587E+04  0.19200000000E+03 0.  0.
   -5000001    1    1    2    0    0  0.24286784485E+02 -0.87416892237E+02 -0.11783501464E+04  0.11973322966E+04  0.19200000000E+03 0.  0.
<mgrwt>
<rscale>  0 0.42562020E+03</rscale>
<asrwt>0</asrwt>
<pdfrwt beam="1">  1        1 0.36305782E+00 0.42562020E+03</pdfrwt>
<pdfrwt beam="2">  1       -1 0.25457315E-02 0.42562020E+03</pdfrwt>
<totfact> 0.92996743E+02</totfact>
</mgrwt>
</event>
<event>
 4    1  0.1454935E-005  0.4658659E+03  0.7818608E-02  0.1023094E+00
         -1   -1    0    0    0  501 -0.00000000000E+00  0.00000000000E+00  0.22361433504E+02  0.22361434072E+02  0.50400000000E-02 0.  1.
          1   -1    0    0  501    0  0.00000000000E+00 -0.00000000000E+00 -0.24263992472E+04  0.24263992472E+04  0.50400000000E-02 0. -1.
    5000001    1    1    2    0    0  0.11677883036E+03 -0.44330012427E+02 -0.14244892319E+04  0.14427875856E+04  0.19200000000E+03 0.  0.
   -5000001    1    1    2    0    0 -0.11677883036E+03  0.44330012427E+02 -0.97954858177E+03  0.10059730957E+04  0.19200000000E+03 0.  0.
<mgrwt>
<rscale>  0 0.46586593E+03</rscale>
<asrwt>0</asrwt>
<pdfrwt beam="1">  1        1 0.34662830E+00 0.46586593E+03</pdfrwt>
<pdfrwt beam="2">  1       -1 0.31944921E-02 0.46586593E+03</pdfrwt>
<totfact> 0.77775151E+02</totfact>
</mgrwt>
</event>
<event>
 4    1  0.1454935E-005  0.6808606E+03  0.7818608E-02  0.9750535E-01
         -1   -1    0    0    0  501 -0.00000000000E+00  0.00000000000E+00  0.72829946892E+02  0.72829947066E+02  0.50400000000E-02 0. -1.
          1   -1    0    0  501    0  0.00000000000E+00 -0.00000000000E+00 -0.15912793390E+04  0.15912793390E+04  0.50400000000E-02 0.  1.
    5000001    1    1    2    0    0  0.51161114324E+02  0.25837373010E+03 -0.99937606485E+03  0.10511855036E+04  0.19200000000E+03 0.  0.
   -5000001    1    1    2    0    0 -0.51161114324E+02 -0.25837373010E+03 -0.51907332723E+03  0.61292378243E+03  0.19200000000E+03 0.  0.
<mgrwt>
<rscale>  0 0.68086060E+03</rscale>
<asrwt>0</asrwt>
<pdfrwt beam="1">  1        1 0.22732560E+00 0.68086060E+03</pdfrwt>
<pdfrwt beam="2">  1       -1 0.10404279E-01 0.68086060E+03</pdfrwt>
<totfact> 0.41033281E+02</totfact>
</mgrwt>
</event>
<event>
 4    1  0.1454935E-005  0.6947143E+03  0.7818608E-02  0.9726314E-01
         -1   -1    0    0    0  501 -0.00000000000E+00  0.00000000000E+00  0.43134119135E+03  0.43134119138E+03  0.50400000000E-02 0. -1.
          1   -1    0    0  501    0  0.00000000000E+00 -0.00000000000E+00 -0.27972517776E+03  0.27972517780E+03  0.50400000000E-02 0.  1.
    5000001    1    1    2    0    0  0.23541548087E+03 -0.16726653209E+03  0.96136252850E+02  0.35986764304E+03  0.19200000000E+03 0.  0.
   -5000001    1    1    2    0    0 -0.23541548087E+03  0.16726653209E+03  0.55479760744E+02  0.35119872614E+03  0.19200000000E+03 0.  0.
<mgrwt>
<rscale>  0 0.69471431E+03</rscale>
<asrwt>0</asrwt>
<pdfrwt beam="1">  1        1 0.39960740E-01 0.69471431E+03</pdfrwt>
<pdfrwt beam="2">  1       -1 0.61620170E-01 0.69471431E+03</pdfrwt>
<totfact> 0.28618691E+02</totfact>
</mgrwt>
</event>
<event>
 4    1  0.1454935E-005  0.5000195E+03  0.7818608E-02  0.1013774E+00
          1   -1    0    0  501    0  0.00000000000E+00  0.00000000000E+00  0.10395945070E+04  0.10395945070E+04  0.50400000000E-02 0. -1.
         -1   -1    0    0    0  501 -0.00000000000E+00 -0.00000000000E+00 -0.60124293029E+02  0.60124293240E+02  0.50400000000E-02 0.  1.
    5000001    1    1    2    0    0  0.46333314768E+02 -0.11678560763E+03  0.70807247526E+03  0.74432270181E+03  0.19200000000E+03 0.  0.
   -5000001    1    1    2    0    0 -0.46333314768E+02  0.11678560763E+03  0.27139773869E+03  0.35539609842E+03  0.19200000000E+03 0.  0.
<mgrwt>
<rscale>  0 0.50001954E+03</rscale>
<asrwt>0</asrwt>
<pdfrwt beam="1">  1        1 0.14851350E+00 0.50001954E+03</pdfrwt>
<pdfrwt beam="2">  1       -1 0.85891849E-02 0.50001954E+03</pdfrwt>
<totfact> 0.13073266E+03</totfact>
</mgrwt>
</event>
<event>
 4    1  0.1454935E-005  0.6268231E+03  0.7818608E-02  0.9851268E-01
         -1   -1    0    0    0  501 -0.00000000000E+00  0.00000000000E+00  0.19029961822E+03  0.19029961829E+03  0.50400000000E-02 0.  1.
          1   -1    0    0  501    0  0.00000000000E+00 -0.00000000000E+00 -0.51616923282E+03  0.51616923284E+03  0.50400000000E-02 0. -1.
    5000001    1    1    2    0    0  0.62483192873E+02 -0.23318540044E+03 -0.22551700348E+03  0.38210142532E+03  0.19200000000E+03 0.  0.
   -5000001    1    1    2    0    0 -0.62483192873E+02  0.23318540044E+03 -0.10035261111E+03  0.32436742581E+03  0.19200000000E+03 0.  0.
<mgrwt>
<rscale>  0 0.62682313E+03</rscale>
<asrwt>0</asrwt>
<pdfrwt beam="1">  1        1 0.73738461E-01 0.62682313E+03</pdfrwt>
<pdfrwt beam="2">  1       -1 0.27185660E-01 0.62682313E+03</pdfrwt>
<totfact> 0.57409936E+02</totfact>
</mgrwt>
</event>
<event>
 4    1  0.1454935E-005  0.5085099E+03  0.7818608E-02  0.1011581E+00
          1   -1    0    0  501    0  0.00000000000E+00  0.00000000000E+00  0.49854314951E+02  0.49854315206E+02  0.50400000000E-02 0. -1.
         -1   -1    0    0    0  501 -0.00000000000E+00 -0.00000000000E+00 -0.12966896176E+04  0.12966896176E+04  0.50400000000E-02 0.  1.
    5000001    1    1    2    0    0 -0.45103148033E+02 -0.16045405152E+03 -0.61988856737E+03  0.67000420340E+03  0.19200000000E+03 0.  0.
   -5000001    1    1    2    0    0  0.45103148033E+02  0.16045405152E+03 -0.62694673531E+03  0.67653972946E+03  0.19200000000E+03 0.  0.
<mgrwt>
<rscale>  0 0.50850987E+03</rscale>
<asrwt>0</asrwt>
<pdfrwt beam="1">  1        1 0.71220458E-02 0.50850987E+03</pdfrwt>
<pdfrwt beam="2">  1       -1 0.18524135E+00 0.50850987E+03</pdfrwt>
<totfact> 0.21189656E+02</totfact>
</mgrwt>
</event>
<event>
 4    1  0.1454935E-005  0.4971397E+03  0.7818608E-02  0.1014528E+00
         -1   -1    0    0    0  501 -0.00000000000E+00  0.00000000000E+00  0.37468411300E+02  0.37468411639E+02  0.50400000000E-02 0.  1.
          1   -1    0    0  501    0  0.00000000000E+00 -0.00000000000E+00 -0.16490415561E+04  0.16490415561E+04  0.50400000000E-02 0. -1.
    5000001    1    1    2    0    0  0.86542875796E+01 -0.12971807755E+03 -0.11096179470E+04  0.11335861963E+04  0.19200000000E+03 0.  0.
   -5000001    1    1    2    0    0 -0.86542875796E+01  0.12971807755E+03 -0.50195519782E+03  0.55292377138E+03  0.19200000000E+03 0.  0.
<mgrwt>
<rscale>  0 0.49713969E+03</rscale>
<asrwt>0</asrwt>
<pdfrwt beam="1">  1        1 0.23557732E+00 0.49713969E+03</pdfrwt>
<pdfrwt beam="2">  1       -1 0.53526312E-02 0.49713969E+03</pdfrwt>
<totfact> 0.10708951E+03</totfact>
</mgrwt>
</event>
<event>
 4    1  0.1454935E-005  0.9410221E+03  0.7818608E-02  0.9375706E-01
          1   -1    0    0  501    0  0.00000000000E+00  0.00000000000E+00  0.15516291113E+04  0.15516291114E+04  0.50400000000E-02 0.  1.
         -1   -1    0    0    0  501 -0.00000000000E+00 -0.00000000000E+00 -0.14267626613E+03  0.14267626622E+03  0.50400000000E-02 0. -1.
    5000001    1    1    2    0    0 -0.11179955834E+03  0.37435495182E+03  0.38301938594E+03  0.57983499481E+03  0.19200000000E+03 0.  0.
   -5000001    1    1    2    0    0  0.11179955834E+03 -0.37435495182E+03  0.10259334593E+04  0.11144703828E+04  0.19200000000E+03 0.  0.
<mgrwt>
<rscale>  0 0.94102210E+03</rscale>
<asrwt>0</asrwt>
<pdfrwt beam="1">  1        1 0.22166131E+00 0.94102210E+03</pdfrwt>
<pdfrwt beam="2">  1       -1 0.20382323E-01 0.94102210E+03</pdfrwt>
<totfact> 0.14326971E+02</totfact>
</mgrwt>
</event>
<event>
 4    1  0.1454935E-005  0.1765004E+04  0.7818608E-02  0.8725135E-01
         -1   -1    0    0    0  501 -0.00000000000E+00  0.00000000000E+00  0.26199727707E+03  0.26199727712E+03  0.50400000000E-02 0. -1.
          1   -1    0    0  501    0  0.00000000000E+00 -0.00000000000E+00 -0.29725857502E+04  0.29725857502E+04  0.50400000000E-02 0.  1.
    5000001    1    1    2    0    0  0.38372219764E+03  0.81998611384E+01 -0.27684762678E+04  0.28015415057E+04  0.19200000000E+03 0.  0.
   -5000001    1    1    2    0    0 -0.38372219764E+03 -0.81998611384E+01  0.57887794683E+02  0.43304152164E+03  0.19200000000E+03 0.  0.
<mgrwt>
<rscale>  0 0.17650035E+04</rscale>
<asrwt>0</asrwt>
<pdfrwt beam="1">  1        1 0.42465509E+00 0.17650035E+04</pdfrwt>
<pdfrwt beam="2">  1       -1 0.37428184E-01 0.17650035E+04</pdfrwt>
<totfact> 0.58129274E+00</totfact>
</mgrwt>
</event>
<event>
 4    1  0.1454935E-005  0.7943399E+03  0.7818608E-02  0.9568246E-01
          1   -1    0    0  501    0  0.00000000000E+00  0.00000000000E+00  0.79156427289E+03  0.79156427291E+03  0.50400000000E-02 0.  1.
         -1   -1    0    0    0  501 -0.00000000000E+00 -0.00000000000E+00 -0.19928133356E+03  0.19928133362E+03  0.50400000000E-02 0. -1.
    5000001    1    1    2    0    0  0.11344295627E+02 -0.33387402917E+03  0.41630151644E+03  0.56724907491E+03  0.19200000000E+03 0.  0.
   -5000001    1    1    2    0    0 -0.11344295627E+02  0.33387402917E+03  0.17598142289E+03  0.42359653162E+03  0.19200000000E+03 0.  0.
<mgrwt>
<rscale>  0 0.79433994E+03</rscale>
<asrwt>0</asrwt>
<pdfrwt beam="1">  1        1 0.11308061E+00 0.79433994E+03</pdfrwt>
<pdfrwt beam="2">  1       -1 0.28468763E-01 0.79433994E+03</pdfrwt>
<totfact> 0.28501106E+02</totfact>
</mgrwt>
</event>
<event>
 4    1  0.1454935E-005  0.4391571E+03  0.7818608E-02  0.1031006E+00
         -1   -1    0    0    0  501 -0.00000000000E+00  0.00000000000E+00  0.43663345178E+03  0.43663345181E+03  0.50400000000E-02 0. -1.
          1   -1    0    0  501    0  0.00000000000E+00 -0.00000000000E+00 -0.11042384718E+03  0.11042384729E+03  0.50400000000E-02 0.  1.
    5000001    1    1    2    0    0 -0.22920807855E+02 -0.98001826462E+02  0.11957617100E+03  0.24757257945E+03  0.19200000000E+03 0.  0.
   -5000001    1    1    2    0    0  0.22920807855E+02  0.98001826462E+02  0.20663343360E+03  0.29948471965E+03  0.19200000000E+03 0.  0.
<mgrwt>
<rscale>  0 0.43915713E+03</rscale>
<asrwt>0</asrwt>
<pdfrwt beam="1">  1        1 0.15774835E-01 0.43915713E+03</pdfrwt>
<pdfrwt beam="2">  1       -1 0.62376207E-01 0.43915713E+03</pdfrwt>
<totfact> 0.94327317E+02</totfact>
</mgrwt>
</event>
<event>
 4    1  0.1454935E-005  0.6117795E+03  0.7818608E-02  0.9881264E-01
          1   -1    0    0  501    0  0.00000000000E+00  0.00000000000E+00  0.42332126341E+04  0.42332126341E+04  0.50400000000E-02 0.  1.
         -1   -1    0    0    0  501 -0.00000000000E+00 -0.00000000000E+00 -0.22103432437E+02  0.22103433012E+02  0.50400000000E-02 0. -1.
    5000001    1    1    2    0    0 -0.16168579668E+03  0.14691044627E+03  0.27646743441E+04  0.27799304316E+04  0.19200000000E+03 0.  0.
   -5000001    1    1    2    0    0  0.16168579668E+03 -0.14691044627E+03  0.14464348576E+04  0.14753856355E+04  0.19200000000E+03 0.  0.
<mgrwt>
<rscale>  0 0.61177947E+03</rscale>
<asrwt>0</asrwt>
<pdfrwt beam="1">  1        1 0.60474454E+00 0.61177947E+03</pdfrwt>
<pdfrwt beam="2">  1       -1 0.31576339E-02 0.61177947E+03</pdfrwt>
<totfact> 0.46074137E+01</totfact>
</mgrwt>
</event>
<event>
 4    1  0.1454935E-005  0.8480658E+03  0.7818608E-02  0.9492937E-01
         -1   -1    0    0    0  501 -0.00000000000E+00  0.00000000000E+00  0.16962628213E+03  0.16962628220E+03  0.50400000000E-02 0. -1.
          1   -1    0    0  501    0  0.00000000000E+00 -0.00000000000E+00 -0.10600003323E+04  0.10600003323E+04  0.50400000000E-02 0.  1.
    5000001    1    1    2    0    0  0.49385165580E+02 -0.26607513129E+03 -0.62383618652E+02  0.33762491902E+03  0.19200000000E+03 0.  0.
   -5000001    1    1    2    0    0 -0.49385165580E+02  0.26607513129E+03 -0.82799043153E+03  0.89200169550E+03  0.19200000000E+03 0.  0.
<mgrwt>
<rscale>  0 0.84806584E+03</rscale>
<asrwt>0</asrwt>
<pdfrwt beam="1">  1        1 0.15142862E+00 0.84806584E+03</pdfrwt>
<pdfrwt beam="2">  1       -1 0.24232327E-01 0.84806584E+03</pdfrwt>
<totfact> 0.23159655E+02</totfact>
</mgrwt>
</event>
<event>
 4    1  0.1454935E-005  0.6699622E+03  0.7818608E-02  0.9770026E-01
         -1   -1    0    0    0  501 -0.00000000000E+00  0.00000000000E+00  0.34795036792E+02  0.34795037157E+02  0.50400000000E-02 0. -1.
          1   -1    0    0  501    0  0.00000000000E+00 -0.00000000000E+00 -0.32249528186E+04  0.32249528186E+04  0.50400000000E-02 0.  1.
    5000001    1    1    2    0    0  0.23542399158E+03  0.14054374793E+03 -0.16587698618E+04  0.16922052048E+04  0.19200000000E+03 0.  0.
   -5000001    1    1    2    0    0 -0.23542399158E+03 -0.14054374793E+03 -0.15313879201E+04  0.15675426510E+04  0.19200000000E+03 0.  0.
<mgrwt>
<rscale>  0 0.66996225E+03</rscale>
<asrwt>0</asrwt>
<pdfrwt beam="1">  1        1 0.46070736E+00 0.66996225E+03</pdfrwt>
<pdfrwt beam="2">  1       -1 0.49707216E-02 0.66996225E+03</pdfrwt>
<totfact> 0.12066753E+02</totfact>
</mgrwt>
</event>
<event>
 4    1  0.1454935E-005  0.1671759E+04  0.7818608E-02  0.8777637E-01
          1   -1    0    0  501    0  0.00000000000E+00  0.00000000000E+00  0.19153847769E+04  0.19153847769E+04  0.50400000000E-02 0.  1.
         -1   -1    0    0    0  501 -0.00000000000E+00 -0.00000000000E+00 -0.36478006047E+03  0.36478006051E+03  0.50400000000E-02 0. -1.
    5000001    1    1    2    0    0 -0.12805211019E+03  0.69410558292E+03  0.22354129167E+03  0.76486247931E+03  0.19200000000E+03 0.  0.
   -5000001    1    1    2    0    0  0.12805211019E+03 -0.69410558292E+03  0.13270634248E+04  0.15153023581E+04  0.19200000000E+03 0.  0.
<mgrwt>
<rscale>  0 0.16717586E+04</rscale>
<asrwt>0</asrwt>
<pdfrwt beam="1">  1        1 0.27362639E+00 0.16717586E+04</pdfrwt>
<pdfrwt beam="2">  1       -1 0.52111438E-01 0.16717586E+04</pdfrwt>
<totfact> 0.14938119E+01</totfact>
</mgrwt>
</event>
<event>
 4    1  0.1454935E-005  0.7906647E+03  0.7818608E-02  0.9573629E-01
          1   -1    0    0  501    0  0.00000000000E+00  0.00000000000E+00  0.15942490740E+04  0.15942490740E+04  0.50400000000E-02 0. -1.
         -1   -1    0    0    0  501 -0.00000000000E+00 -0.00000000000E+00 -0.98032153538E+02  0.98032153668E+02  0.50400000000E-02 0.  1.
    5000001    1    1    2    0    0 -0.28375575132E+03  0.92961373577E+02  0.37576208854E+03  0.51693354560E+03  0.19200000000E+03 0.  0.
   -5000001    1    1    2    0    0  0.28375575132E+03 -0.92961373577E+02  0.11204548319E+04  0.11753476821E+04  0.19200000000E+03 0.  0.
<mgrwt>
<rscale>  0 0.79066471E+03</rscale>
<asrwt>0</asrwt>
<pdfrwt beam="1">  1        1 0.22774986E+00 0.79066471E+03</pdfrwt>
<pdfrwt beam="2">  1       -1 0.14004594E-01 0.79066471E+03</pdfrwt>
<totfact> 0.25204683E+02</totfact>
</mgrwt>
</event>
<event>
 4    1  0.1454935E-005  0.1506926E+04  0.7818608E-02  0.8879860E-01
          1   -1    0    0  501    0  0.00000000000E+00  0.00000000000E+00  0.81267676324E+03  0.81267676325E+03  0.50400000000E-02 0.  1.
         -1   -1    0    0    0  501 -0.00000000000E+00 -0.00000000000E+00 -0.69856395942E+03  0.69856395944E+03  0.50400000000E-02 0. -1.
    5000001    1    1    2    0    0 -0.18925491028E+03  0.60536699637E+03  0.41663012534E+03  0.78277153928E+03  0.19200000000E+03 0.  0.
   -5000001    1    1    2    0    0  0.18925491028E+03 -0.60536699637E+03 -0.30251732153E+03  0.72846918341E+03  0.19200000000E+03 0.  0.
<mgrwt>
<rscale>  0 0.15069263E+04</rscale>
<asrwt>0</asrwt>
<pdfrwt beam="1">  1        1 0.11609668E+00 0.15069263E+04</pdfrwt>
<pdfrwt beam="2">  1       -1 0.99794851E-01 0.15069263E+04</pdfrwt>
<totfact> 0.22526181E+01</totfact>
</mgrwt>
</event>
<event>
 4    1  0.1454935E-005  0.1041949E+04  0.7818608E-02  0.9263695E-01
         -1   -1    0    0    0  501 -0.00000000000E+00  0.00000000000E+00  0.20072975388E+04  0.20072975388E+04  0.50400000000E-02 0. -1.
          1   -1    0    0  501    0  0.00000000000E+00 -0.00000000000E+00 -0.13521394803E+03  0.13521394813E+03  0.50400000000E-02 0.  1.
    5000001    1    1    2    0    0  0.46885455430E+03  0.10335457496E+03  0.80528182641E+03  0.95700030365E+03  0.19200000000E+03 0.  0.
   -5000001    1    1    2    0    0 -0.46885455430E+03 -0.10335457496E+03  0.10668017644E+04  0.11855111833E+04  0.19200000000E+03 0.  0.
<mgrwt>
<rscale>  0 0.10419494E+04</rscale>
<asrwt>0</asrwt>
<pdfrwt beam="1">  1        1 0.19316280E-01 0.10419494E+04</pdfrwt>
<pdfrwt beam="2">  1       -1 0.28675676E+00 0.10419494E+04</pdfrwt>
<totfact> 0.11171748E+01</totfact>
</mgrwt>
</event>
<event>
 4    1  0.1454935E-005  0.7496837E+03  0.7818608E-02  0.9635847E-01
         -1   -1    0    0    0  501 -0.00000000000E+00  0.00000000000E+00  0.30666375379E+03  0.30666375383E+03  0.50400000000E-02 0. -1.
          1   -1    0    0  501    0  0.00000000000E+00 -0.00000000000E+00 -0.45817740247E+03  0.45817740250E+03  0.50400000000E-02 0.  1.
    5000001    1    1    2    0    0  0.28146472747E+03  0.12550048524E+03  0.19236627279E+02  0.36360254734E+03  0.19200000000E+03 0.  0.
   -5000001    1    1    2    0    0 -0.28146472747E+03 -0.12550048524E+03 -0.17075027596E+03  0.40123860899E+03  0.19200000000E+03 0.  0.
<mgrwt>
<rscale>  0 0.74968367E+03</rscale>
<asrwt>0</asrwt>
<pdfrwt beam="1">  1        1 0.65453914E-01 0.74968367E+03</pdfrwt>
<pdfrwt beam="2">  1       -1 0.43809108E-01 0.74968367E+03</pdfrwt>
<totfact> 0.28752544E+02</totfact>
</mgrwt>
</event>
<event>
 4    1  0.1454935E-005  0.8071388E+03  0.7818608E-02  0.9549741E-01
          1   -1    0    0  501    0  0.00000000000E+00  0.00000000000E+00  0.25429634502E+03  0.25429634507E+03  0.50400000000E-02 0.  1.
         -1   -1    0    0    0  501 -0.00000000000E+00 -0.00000000000E+00 -0.64046632632E+03  0.64046632634E+03  0.50400000000E-02 0. -1.
    5000001    1    1    2    0    0  0.35381899893E+03 -0.26298316139E+02 -0.18070278011E+03  0.44203730631E+03  0.19200000000E+03 0.  0.
   -5000001    1    1    2    0    0 -0.35381899893E+03  0.26298316139E+02 -0.20546720119E+03  0.45272536509E+03  0.19200000000E+03 0.  0.
<mgrwt>
<rscale>  0 0.80713876E+03</rscale>
<asrwt>0</asrwt>
<pdfrwt beam="1">  1        1 0.36328050E-01 0.80713876E+03</pdfrwt>
<pdfrwt beam="2">  1       -1 0.91495189E-01 0.80713876E+03</pdfrwt>
<totfact> 0.14109999E+02</totfact>
</mgrwt>
</event>
<event>
 4    1  0.1454935E-005  0.5767599E+03  0.7818608E-02  0.9954831E-01
         -1   -1    0    0    0  501 -0.00000000000E+00  0.00000000000E+00  0.27220045016E+03  0.27220045021E+03  0.50400000000E-02 0. -1.
          1   -1    0    0  501    0  0.00000000000E+00 -0.00000000000E+00 -0.30552114073E+03  0.30552114077E+03  0.50400000000E-02 0.  1.
    5000001    1    1    2    0    0 -0.63903339221E+02 -0.18882537406E+03  0.64470594324E+02  0.28418148459E+03  0.19200000000E+03 0.  0.
   -5000001    1    1    2    0    0  0.63903339221E+02  0.18882537406E+03 -0.97791284892E+02  0.29354010638E+03  0.19200000000E+03 0.  0.
<mgrwt>
<rscale>  0 0.57675989E+03</rscale>
<asrwt>0</asrwt>
<pdfrwt beam="1">  1        1 0.43645877E-01 0.57675989E+03</pdfrwt>
<pdfrwt beam="2">  1       -1 0.38885779E-01 0.57675989E+03</pdfrwt>
<totfact> 0.60997494E+02</totfact>
</mgrwt>
</event>
<event>
 4    1  0.1454935E-005  0.5234122E+03  0.7818608E-02  0.1007842E+00
         -1   -1    0    0    0  501 -0.00000000000E+00  0.00000000000E+00  0.37473184350E+03  0.37473184353E+03  0.50400000000E-02 0. -1.
          1   -1    0    0  501    0  0.00000000000E+00 -0.00000000000E+00 -0.18277093421E+03  0.18277093428E+03  0.50400000000E-02 0.  1.
    5000001    1    1    2    0    0 -0.15155451567E+03  0.92495309385E+02  0.85226548266E+02  0.27504857391E+03  0.19200000000E+03 0.  0.
   -5000001    1    1    2    0    0  0.15155451567E+03 -0.92495309385E+02  0.10673436103E+03  0.28245420390E+03  0.19200000000E+03 0.  0.
<mgrwt>
<rscale>  0 0.52341222E+03</rscale>
<asrwt>0</asrwt>
<pdfrwt beam="1">  1        1 0.26110134E-01 0.52341222E+03</pdfrwt>
<pdfrwt beam="2">  1       -1 0.53533120E-01 0.52341222E+03</pdfrwt>
<totfact> 0.65463059E+02</totfact>
</mgrwt>
</event>
<event>
 4    1  0.1454935E-005  0.4745018E+03  0.7818608E-02  0.1020657E+00
         -1   -1    0    0    0  501 -0.00000000000E+00  0.00000000000E+00  0.64075376302E+03  0.64075376304E+03  0.50400000000E-02 0. -1.
          1   -1    0    0  501    0  0.00000000000E+00 -0.00000000000E+00 -0.87846512929E+02  0.87846513074E+02  0.50400000000E-02 0.  1.
    5000001    1    1    2    0    0 -0.74370378078E+02  0.79175915781E+02  0.41052892350E+03  0.46604482167E+03  0.19200000000E+03 0.  0.
   -5000001    1    1    2    0    0  0.74370378078E+02 -0.79175915781E+02  0.14237832659E+03  0.26255545444E+03  0.19200000000E+03 0.  0.
<mgrwt>
<rscale>  0 0.47450178E+03</rscale>
<asrwt>0</asrwt>
<pdfrwt beam="1">  1        1 0.12549501E-01 0.47450178E+03</pdfrwt>
<pdfrwt beam="2">  1       -1 0.91536256E-01 0.47450178E+03</pdfrwt>
<totfact> 0.57890627E+02</totfact>
</mgrwt>
</event>
<event>
 4    1  0.1454935E-005  0.4406193E+03  0.7818608E-02  0.1030557E+00
          1   -1    0    0  501    0  0.00000000000E+00  0.00000000000E+00  0.42791634297E+03  0.42791634300E+03  0.50400000000E-02 0.  1.
         -1   -1    0    0    0  501 -0.00000000000E+00 -0.00000000000E+00 -0.11342483708E+03  0.11342483719E+03  0.50400000000E-02 0. -1.
    5000001    1    1    2    0    0  0.54176295548E+02 -0.71590771508E+02  0.23108433409E+03  0.31356702478E+03  0.19200000000E+03 0.  0.
   -5000001    1    1    2    0    0 -0.54176295548E+02  0.71590771508E+02  0.83407171801E+02  0.22777415541E+03  0.19200000000E+03 0.  0.
<mgrwt>
<rscale>  0 0.44061930E+03</rscale>
<asrwt>0</asrwt>
<pdfrwt beam="1">  1        1 0.61130907E-01 0.44061930E+03</pdfrwt>
<pdfrwt beam="2">  1       -1 0.16203548E-01 0.44061930E+03</pdfrwt>
<totfact> 0.17446176E+03</totfact>
</mgrwt>
</event>
<event>
 4    1  0.1454935E-005  0.8962882E+03  0.7818608E-02  0.9430233E-01
         -1   -1    0    0    0  501 -0.00000000000E+00  0.00000000000E+00  0.18621532365E+03  0.18621532371E+03  0.50400000000E-02 0.  1.
          1   -1    0    0  501    0  0.00000000000E+00 -0.00000000000E+00 -0.10784995324E+04  0.10784995324E+04  0.50400000000E-02 0. -1.
    5000001    1    1    2    0    0  0.14094198861E+03 -0.16230832142E+03 -0.93036437950E+03  0.97398691675E+03  0.19200000000E+03 0.  0.
   -5000001    1    1    2    0    0 -0.14094198861E+03  0.16230832142E+03  0.38080170711E+02  0.29072793941E+03  0.19200000000E+03 0.  0.
<mgrwt>
<rscale>  0 0.89628821E+03</rscale>
<asrwt>0</asrwt>
<pdfrwt beam="1">  1        1 0.15407136E+00 0.89628821E+03</pdfrwt>
<pdfrwt beam="2">  1       -1 0.26602190E-01 0.89628821E+03</pdfrwt>
<totfact> 0.19089223E+02</totfact>
</mgrwt>
</event>
<event>
 4    1  0.1454935E-005  0.4999307E+03  0.7818608E-02  0.1013797E+00
          1   -1    0    0  501    0  0.00000000000E+00  0.00000000000E+00  0.18823127843E+04  0.18823127843E+04  0.50400000000E-02 0. -1.
         -1   -1    0    0    0  501 -0.00000000000E+00 -0.00000000000E+00 -0.33194632204E+02  0.33194632587E+02  0.50400000000E-02 0.  1.
    5000001    1    1    2    0    0  0.15438663840E+03  0.76358246046E+01  0.10837016264E+04  0.11113805626E+04  0.19200000000E+03 0.  0.
   -5000001    1    1    2    0    0 -0.15438663840E+03 -0.76358246046E+01  0.76541652566E+03  0.80412685423E+03  0.19200000000E+03 0.  0.
<mgrwt>
<rscale>  0 0.49993072E+03</rscale>
<asrwt>0</asrwt>
<pdfrwt beam="1">  1        1 0.26890187E+00 0.49993072E+03</pdfrwt>
<pdfrwt beam="2">  1       -1 0.47420896E-02 0.49993072E+03</pdfrwt>
<totfact> 0.92274804E+02</totfact>
</mgrwt>
</event>
<event>
 4    1  0.1454935E-005  0.5317181E+03  0.7818608E-02  0.1005816E+00
          1   -1    0    0  501    0  0.00000000000E+00  0.00000000000E+00  0.24641678677E+04  0.24641678678E+04  0.50400000000E-02 0.  1.
         -1   -1    0    0    0  501 -0.00000000000E+00 -0.00000000000E+00 -0.28683535525E+02  0.28683535968E+02  0.50400000000E-02 0. -1.
    5000001    1    1    2    0    0  0.59724389867E+02  0.16913055765E+03  0.10275973421E+04  0.10606566106E+04  0.19200000000E+03 0.  0.
   -5000001    1    1    2    0    0 -0.59724389867E+02 -0.16913055765E+03  0.14078869902E+04  0.14321947931E+04  0.19200000000E+03 0.  0.
<mgrwt>
<rscale>  0 0.53171815E+03</rscale>
<asrwt>0</asrwt>
<pdfrwt beam="1">  1        1 0.35202393E+00 0.53171815E+03</pdfrwt>
<pdfrwt beam="2">  1       -1 0.40976485E-02 0.53171815E+03</pdfrwt>
<totfact> 0.50353491E+02</totfact>
</mgrwt>
</event>
<event>
 4    1  0.1454935E-005  0.4643095E+03  0.7818608E-02  0.1023539E+00
         -1   -1    0    0    0  501 -0.00000000000E+00  0.00000000000E+00  0.43462066528E+02  0.43462066821E+02  0.50400000000E-02 0. -1.
          1   -1    0    0  501    0  0.00000000000E+00 -0.00000000000E+00 -0.12400659980E+04  0.12400659980E+04  0.50400000000E-02 0.  1.
    5000001    1    1    2    0    0  0.85992826303E+02 -0.98092516165E+02 -0.60898091928E+03  0.65171977717E+03  0.19200000000E+03 0.  0.
   -5000001    1    1    2    0    0 -0.85992826303E+02  0.98092516165E+02 -0.58762301219E+03  0.63180828766E+03  0.19200000000E+03 0.  0.
<mgrwt>
<rscale>  0 0.46430951E+03</rscale>
<asrwt>0</asrwt>
<pdfrwt beam="1">  1        1 0.17715226E+00 0.46430951E+03</pdfrwt>
<pdfrwt beam="2">  1       -1 0.62088674E-02 0.46430951E+03</pdfrwt>
<totfact> 0.15677356E+03</totfact>
</mgrwt>
</event>
<event>
 4    1  0.1454935E-005  0.5376087E+03  0.7818608E-02  0.1004403E+00
          1   -1    0    0  501    0  0.00000000000E+00  0.00000000000E+00  0.13634052537E+04  0.13634052538E+04  0.50400000000E-02 0. -1.
         -1   -1    0    0    0  501 -0.00000000000E+00 -0.00000000000E+00 -0.52996555027E+02  0.52996555266E+02  0.50400000000E-02 0.  1.
    5000001    1    1    2    0    0  0.11136391124E+03  0.75755777472E+02  0.10012443832E+04  0.10283458433E+04  0.19200000000E+03 0.  0.
   -5000001    1    1    2    0    0 -0.11136391124E+03 -0.75755777472E+02  0.30916431556E+03  0.38805596576E+03  0.19200000000E+03 0.  0.
<mgrwt>
<rscale>  0 0.53760871E+03</rscale>
<asrwt>0</asrwt>
<pdfrwt beam="1">  1        1 0.19477222E+00 0.53760871E+03</pdfrwt>
<pdfrwt beam="2">  1       -1 0.75709347E-02 0.53760871E+03</pdfrwt>
<totfact> 0.95427466E+02</totfact>
</mgrwt>
</event>
<event>
 4    1  0.1454935E-005  0.6894303E+03  0.7818608E-02  0.9735481E-01
         -1   -1    0    0    0  501 -0.00000000000E+00  0.00000000000E+00  0.82614113968E+03  0.82614113970E+03  0.50400000000E-02 0. -1.
          1   -1    0    0  501    0  0.00000000000E+00 -0.00000000000E+00 -0.14383562453E+03  0.14383562462E+03  0.50400000000E-02 0.  1.
    5000001    1    1    2    0    0 -0.14696355499E+03 -0.24479858639E+03  0.31164445513E+03  0.46423151638E+03  0.19200000000E+03 0.  0.
   -5000001    1    1    2    0    0  0.14696355499E+03  0.24479858639E+03  0.37066106002E+03  0.50574524794E+03  0.19200000000E+03 0.  0.
<mgrwt>
<rscale>  0 0.68943028E+03</rscale>
<asrwt>0</asrwt>
<pdfrwt beam="1">  1        1 0.20547947E-01 0.68943028E+03</pdfrwt>
<pdfrwt beam="2">  1       -1 0.11802016E+00 0.68943028E+03</pdfrwt>
<totfact> 0.16581805E+02</totfact>
</mgrwt>
</event>
<event>
 4    1  0.1454935E-005  0.5924247E+03  0.7818608E-02  0.9921248E-01
         -1   -1    0    0    0  501 -0.00000000000E+00  0.00000000000E+00  0.70662620798E+03  0.70662620800E+03  0.50400000000E-02 0. -1.
          1   -1    0    0  501    0  0.00000000000E+00 -0.00000000000E+00 -0.12416995942E+03  0.12416995952E+03  0.50400000000E-02 0.  1.
    5000001    1    1    2    0    0  0.21746754777E+03  0.48012321465E+01  0.37493141481E+03  0.47408095508E+03  0.19200000000E+03 0.  0.
   -5000001    1    1    2    0    0 -0.21746754777E+03 -0.48012321465E+01  0.20752483375E+03  0.35671521244E+03  0.19200000000E+03 0.  0.
<mgrwt>
<rscale>  0 0.59242467E+03</rscale>
<asrwt>0</asrwt>
<pdfrwt beam="1">  1        1 0.17738566E-01 0.59242467E+03</pdfrwt>
<pdfrwt beam="2">  1       -1 0.10094660E+00 0.59242467E+03</pdfrwt>
<totfact> 0.29179933E+02</totfact>
</mgrwt>
</event>
<event>
 4    1  0.1454935E-005  0.6425184E+03  0.7818608E-02  0.9820920E-01
          1   -1    0    0  501    0  0.00000000000E+00  0.00000000000E+00  0.15172209010E+03  0.15172209018E+03  0.50400000000E-02 0.  1.
         -1   -1    0    0    0  501 -0.00000000000E+00 -0.00000000000E+00 -0.68024034954E+03  0.68024034956E+03  0.50400000000E-02 0. -1.
    5000001    1    1    2    0    0 -0.21009352009E+01 -0.25722568262E+03 -0.28134039728E+03  0.42683238498E+03  0.19200000000E+03 0.  0.
   -5000001    1    1    2    0    0  0.21009352009E+01  0.25722568262E+03 -0.24717786217E+03  0.40513005476E+03  0.19200000000E+03 0.  0.
<mgrwt>
<rscale>  0 0.64251844E+03</rscale>
<asrwt>0</asrwt>
<pdfrwt beam="1">  1        1 0.21674585E-01 0.64251844E+03</pdfrwt>
<pdfrwt beam="2">  1       -1 0.97177191E-01 0.64251844E+03</pdfrwt>
<totfact> 0.24355985E+02</totfact>
</mgrwt>
</event>
<event>
 4    1  0.1454935E-005  0.5272451E+03  0.7818608E-02  0.1006902E+00
         -1   -1    0    0    0  501 -0.00000000000E+00  0.00000000000E+00  0.60538628375E+03  0.60538628377E+03  0.50400000000E-02 0. -1.
          1   -1    0    0  501    0  0.00000000000E+00 -0.00000000000E+00 -0.11479752389E+03  0.11479752400E+03  0.50400000000E-02 0.  1.
    5000001    1    1    2    0    0  0.13284579847E+02 -0.17448178848E+03  0.18401763110E+03  0.31835022087E+03  0.19200000000E+03 0.  0.
   -5000001    1    1    2    0    0 -0.13284579847E+02  0.17448178848E+03  0.30657112875E+03  0.40183358690E+03  0.19200000000E+03 0.  0.
<mgrwt>
<rscale>  0 0.52724509E+03</rscale>
<asrwt>0</asrwt>
<pdfrwt beam="1">  1        1 0.16399646E-01 0.52724509E+03</pdfrwt>
<pdfrwt beam="2">  1       -1 0.86483756E-01 0.52724509E+03</pdfrwt>
<totfact> 0.45707321E+02</totfact>
</mgrwt>
</event>
<event>
 4    1  0.1454935E-005  0.5092016E+03  0.7818608E-02  0.1011405E+00
          1   -1    0    0  501    0  0.00000000000E+00  0.00000000000E+00  0.56098154623E+03  0.56098154626E+03  0.50400000000E-02 0.  1.
         -1   -1    0    0    0  501 -0.00000000000E+00 -0.00000000000E+00 -0.11555024566E+03  0.11555024577E+03  0.50400000000E-02 0. -1.
    5000001    1    1    2    0    0 -0.10290029285E+03 -0.10331224475E+03  0.33143212455E+03  0.40984526760E+03  0.19200000000E+03 0.  0.
   -5000001    1    1    2    0    0  0.10290029285E+03  0.10331224475E+03  0.11399917601E+03  0.26668652444E+03  0.19200000000E+03 0.  0.
<mgrwt>
<rscale>  0 0.50920155E+03</rscale>
<asrwt>0</asrwt>
<pdfrwt beam="1">  1        1 0.80140220E-01 0.50920155E+03</pdfrwt>
<pdfrwt beam="2">  1       -1 0.16507178E-01 0.50920155E+03</pdfrwt>
<totfact> 0.11799951E+03</totfact>
</mgrwt>
</event>
<event>
 4    1  0.1454935E-005  0.4076126E+03  0.7818608E-02  0.1041175E+00
         -1   -1    0    0    0  501 -0.00000000000E+00  0.00000000000E+00  0.27674358670E+02  0.27674359129E+02  0.50400000000E-02 0. -1.
          1   -1    0    0  501    0  0.00000000000E+00 -0.00000000000E+00 -0.15009205302E+04  0.15009205302E+04  0.50400000000E-02 0.  1.
    5000001    1    1    2    0    0 -0.11588271418E+02 -0.66900426430E+02 -0.70684367585E+03  0.73559631401E+03  0.19200000000E+03 0.  0.
   -5000001    1    1    2    0    0  0.11588271418E+02  0.66900426430E+02 -0.76640249567E+03  0.79299857532E+03  0.19200000000E+03 0.  0.
<mgrwt>
<rscale>  0 0.40761263E+03</rscale>
<asrwt>0</asrwt>
<pdfrwt beam="1">  1        1 0.21441717E+00 0.40761263E+03</pdfrwt>
<pdfrwt beam="2">  1       -1 0.39534808E-02 0.40761263E+03</pdfrwt>
<totfact> 0.21072230E+03</totfact>
</mgrwt>
</event>
<event>
 4    1  0.1454935E-005  0.8746129E+03  0.7818608E-02  0.9457885E-01
         -1   -1    0    0    0  501 -0.00000000000E+00  0.00000000000E+00  0.85078008653E+03  0.85078008654E+03  0.50400000000E-02 0. -1.
          1   -1    0    0  501    0  0.00000000000E+00 -0.00000000000E+00 -0.22477835256E+03  0.22477835262E+03  0.50400000000E-02 0.  1.
    5000001    1    1    2    0    0  0.33392065681E+03  0.74391139597E+02  0.75381723327E+02  0.39947897430E+03  0.19200000000E+03 0.  0.
   -5000001    1    1    2    0    0 -0.33392065681E+03 -0.74391139597E+02  0.55062001064E+03  0.67607946487E+03  0.19200000000E+03 0.  0.
<mgrwt>
<rscale>  0 0.87461293E+03</rscale>
<asrwt>0</asrwt>
<pdfrwt beam="1">  1        1 0.32111193E-01 0.87461293E+03</pdfrwt>
<pdfrwt beam="2">  1       -1 0.12154001E+00 0.87461293E+03</pdfrwt>
<totfact> 0.85187480E+01</totfact>
</mgrwt>
</event>
<event>
 4    1  0.1454935E-005  0.8313250E+03  0.7818608E-02  0.9515750E-01
         -1   -1    0    0    0  501 -0.00000000000E+00  0.00000000000E+00  0.93055417535E+03  0.93055417536E+03  0.50400000000E-02 0.  1.
          1   -1    0    0  501    0  0.00000000000E+00 -0.00000000000E+00 -0.18566928136E+03  0.18566928143E+03  0.50400000000E-02 0. -1.
    5000001    1    1    2    0    0  0.24522389754E+03 -0.14725629316E+03  0.68472477519E+03  0.76650583400E+03  0.19200000000E+03 0.  0.
   -5000001    1    1    2    0    0 -0.24522389754E+03  0.14725629316E+03  0.60160118797E+02  0.34971762279E+03  0.19200000000E+03 0.  0.
<mgrwt>
<rscale>  0 0.83132503E+03</rscale>
<asrwt>0</asrwt>
<pdfrwt beam="1">  1        1 0.26524183E-01 0.83132503E+03</pdfrwt>
<pdfrwt beam="2">  1       -1 0.13293631E+00 0.83132503E+03</pdfrwt>
<totfact> 0.87571127E+01</totfact>
</mgrwt>
</event>
<event>
 4    1  0.1454935E-005  0.8079093E+03  0.7818608E-02  0.9548639E-01
         -1   -1    0    0    0  501 -0.00000000000E+00  0.00000000000E+00  0.10755946397E+03  0.10755946409E+03  0.50400000000E-02 0. -1.
          1   -1    0    0  501    0  0.00000000000E+00 -0.00000000000E+00 -0.15171085205E+04  0.15171085205E+04  0.50400000000E-02 0.  1.
    5000001    1    1    2    0    0  0.35478356771E+03  0.19232064717E+02 -0.72208825471E+03  0.82735524403E+03  0.19200000000E+03 0.  0.
   -5000001    1    1    2    0    0 -0.35478356771E+03 -0.19232064717E+02 -0.68746080182E+03  0.79731274057E+03  0.19200000000E+03 0.  0.
<mgrwt>
<rscale>  0 0.80790935E+03</rscale>
<asrwt>0</asrwt>
<pdfrwt beam="1">  1        1 0.21672978E+00 0.80790935E+03</pdfrwt>
<pdfrwt beam="2">  1       -1 0.15365639E-01 0.80790935E+03</pdfrwt>
<totfact> 0.24266131E+02</totfact>
</mgrwt>
</event>
<event>
 4    1  0.1454935E-005  0.4221945E+03  0.7818608E-02  0.1036354E+00
         -1   -1    0    0    0  501 -0.00000000000E+00  0.00000000000E+00  0.30888743889E+02  0.30888744300E+02  0.50400000000E-02 0.  1.
          1   -1    0    0  501    0  0.00000000000E+00 -0.00000000000E+00 -0.14426632085E+04  0.14426632085E+04  0.50400000000E-02 0. -1.
    5000001    1    1    2    0    0  0.85275753452E+02 -0.10835401937E+02 -0.76720938317E+03  0.79552724509E+03  0.19200000000E+03 0.  0.
   -5000001    1    1    2    0    0 -0.85275753452E+02  0.10835401937E+02 -0.64456508147E+03  0.67802470775E+03  0.19200000000E+03 0.  0.
<mgrwt>
<rscale>  0 0.42219453E+03</rscale>
<asrwt>0</asrwt>
<pdfrwt beam="1">  1        1 0.20609470E+00 0.42219453E+03</pdfrwt>
<pdfrwt beam="2">  1       -1 0.44126786E-02 0.42219453E+03</pdfrwt>
<totfact> 0.19441851E+03</totfact>
</mgrwt>
</event>
<event>
 4    1  0.1454935E-005  0.5411006E+03  0.7818608E-02  0.1003575E+00
         -1   -1    0    0    0  501 -0.00000000000E+00  0.00000000000E+00  0.24850128129E+03  0.24850128134E+03  0.50400000000E-02 0. -1.
          1   -1    0    0  501    0  0.00000000000E+00 -0.00000000000E+00 -0.29455568048E+03  0.29455568052E+03  0.50400000000E-02 0.  1.
    5000001    1    1    2    0    0 -0.16612523200E+03  0.89797974324E+01 -0.11639707808E+03  0.27944679146E+03  0.19200000000E+03 0.  0.
   -5000001    1    1    2    0    0  0.16612523200E+03 -0.89797974324E+01  0.70342678890E+02  0.26361017041E+03  0.19200000000E+03 0.  0.
<mgrwt>
<rscale>  0 0.54110060E+03</rscale>
<asrwt>0</asrwt>
<pdfrwt beam="1">  1        1 0.42079383E-01 0.54110060E+03</pdfrwt>
<pdfrwt beam="2">  1       -1 0.35500183E-01 0.54110060E+03</pdfrwt>
<totfact> 0.75268489E+02</totfact>
</mgrwt>
</event>
<event>
 4    1  0.1454935E-005  0.5897858E+03  0.7818608E-02  0.9926827E-01
         -1   -1    0    0    0  501 -0.00000000000E+00  0.00000000000E+00  0.66757840652E+02  0.66757840842E+02  0.50400000000E-02 0. -1.
          1   -1    0    0  501    0  0.00000000000E+00 -0.00000000000E+00 -0.13026458656E+04  0.13026458657E+04  0.50400000000E-02 0.  1.
    5000001    1    1    2    0    0 -0.12395378910E+03  0.16602141594E+03 -0.81455237837E+03  0.86214107285E+03  0.19200000000E+03 0.  0.
   -5000001    1    1    2    0    0  0.12395378910E+03 -0.16602141594E+03 -0.42133564662E+03  0.50726263365E+03  0.19200000000E+03 0.  0.
<mgrwt>
<rscale>  0 0.58978581E+03</rscale>
<asrwt>0</asrwt>
<pdfrwt beam="1">  1        1 0.18609225E+00 0.58978581E+03</pdfrwt>
<pdfrwt beam="2">  1       -1 0.95368352E-02 0.58978581E+03</pdfrwt>
<totfact> 0.72816410E+02</totfact>
</mgrwt>
</event>
<event>
 4    1  0.1454935E-005  0.5521789E+03  0.7818608E-02  0.1000991E+00
          1   -1    0    0  501    0  0.00000000000E+00  0.00000000000E+00  0.47844001869E+03  0.47844001871E+03  0.50400000000E-02 0.  1.
         -1   -1    0    0    0  501 -0.00000000000E+00 -0.00000000000E+00 -0.15932067058E+03  0.15932067066E+03  0.50400000000E-02 0. -1.
    5000001    1    1    2    0    0 -0.96564173366E+02 -0.14942054779E+03  0.26097696995E+03  0.36962699918E+03  0.19200000000E+03 0.  0.
   -5000001    1    1    2    0    0  0.96564173366E+02  0.14942054779E+03  0.58142378158E+02  0.26813369019E+03  0.19200000000E+03 0.  0.
<mgrwt>
<rscale>  0 0.55217890E+03</rscale>
<asrwt>0</asrwt>
<pdfrwt beam="1">  1        1 0.68348574E-01 0.55217890E+03</pdfrwt>
<pdfrwt beam="2">  1       -1 0.22760096E-01 0.55217890E+03</pdfrwt>
<totfact> 0.86069285E+02</totfact>
</mgrwt>
</event>
<event>
 4    1  0.1454935E-005  0.6727776E+03  0.7818608E-02  0.9764953E-01
         -1   -1    0    0    0  501 -0.00000000000E+00  0.00000000000E+00  0.27693174771E+03  0.27693174776E+03  0.50400000000E-02 0. -1.
          1   -1    0    0  501    0  0.00000000000E+00 -0.00000000000E+00 -0.40861124704E+03  0.40861124707E+03  0.50400000000E-02 0.  1.
    5000001    1    1    2    0    0 -0.20158824167E+03  0.12784126747E+03 -0.20744496453E+03  0.36997110989E+03  0.19200000000E+03 0.  0.
   -5000001    1    1    2    0    0  0.20158824167E+03 -0.12784126747E+03  0.75765465202E+02  0.31557188494E+03  0.19200000000E+03 0.  0.
<mgrwt>
<rscale>  0 0.67277761E+03</rscale>
<asrwt>0</asrwt>
<pdfrwt beam="1">  1        1 0.58373035E-01 0.67277761E+03</pdfrwt>
<pdfrwt beam="2">  1       -1 0.39561678E-01 0.67277761E+03</pdfrwt>
<totfact> 0.40436760E+02</totfact>
</mgrwt>
</event>
<event>
 4    1  0.1454935E-005  0.1533785E+04  0.7818608E-02  0.8862292E-01
          1   -1    0    0  501    0  0.00000000000E+00  0.00000000000E+00  0.27452496890E+04  0.27452496890E+04  0.50400000000E-02 0.  1.
         -1   -1    0    0    0  501 -0.00000000000E+00 -0.00000000000E+00 -0.21423349719E+03  0.21423349725E+03  0.50400000000E-02 0. -1.
    5000001    1    1    2    0    0 -0.66146110297E+03  0.15399819704E+03  0.68660376979E+03  0.98464966974E+03  0.19200000000E+03 0.  0.
   -5000001    1    1    2    0    0  0.66146110297E+03 -0.15399819704E+03  0.18444124220E+04  0.19748335165E+04  0.19200000000E+03 0.  0.
<mgrwt>
<rscale>  0 0.15337854E+04</rscale>
<asrwt>0</asrwt>
<pdfrwt beam="1">  1        1 0.39217851E+00 0.15337854E+04</pdfrwt>
<pdfrwt beam="2">  1       -1 0.30604786E-01 0.15337854E+04</pdfrwt>
<totfact> 0.11947011E+01</totfact>
</mgrwt>
</event>
<event>
 4    1  0.1454935E-005  0.1115701E+04  0.7818608E-02  0.9190022E-01
          1   -1    0    0  501    0  0.00000000000E+00  0.00000000000E+00  0.92769225296E+03  0.92769225297E+03  0.50400000000E-02 0.  1.
         -1   -1    0    0    0  501 -0.00000000000E+00 -0.00000000000E+00 -0.33545328800E+03  0.33545328804E+03  0.50400000000E-02 0. -1.
    5000001    1    1    2    0    0  0.37842057324E+03  0.34935498255E+03  0.18822349368E+03  0.58098461051E+03  0.19200000000E+03 0.  0.
   -5000001    1    1    2    0    0 -0.37842057324E+03 -0.34935498255E+03  0.40401547127E+03  0.68216093050E+03  0.19200000000E+03 0.  0.
<mgrwt>
<rscale>  0 0.11157014E+04</rscale>
<asrwt>0</asrwt>
<pdfrwt beam="1">  1        1 0.13252746E+00 0.11157014E+04</pdfrwt>
<pdfrwt beam="2">  1       -1 0.47921899E-01 0.11157014E+04</pdfrwt>
<totfact> 0.84851738E+01</totfact>
</mgrwt>
</event>
<event>
 4    1  0.1454935E-005  0.4764922E+03  0.7818608E-02  0.1020104E+00
          1   -1    0    0  501    0  0.00000000000E+00  0.00000000000E+00  0.95357444122E+02  0.95357444256E+02  0.50400000000E-02 0.  1.
         -1   -1    0    0    0  501 -0.00000000000E+00 -0.00000000000E+00 -0.59524669328E+03  0.59524669330E+03  0.50400000000E-02 0. -1.
    5000001    1    1    2    0    0 -0.55261334293E+00 -0.12215817527E+03 -0.14772402646E+03  0.27131036316E+03  0.19200000000E+03 0.  0.
   -5000001    1    1    2    0    0  0.55261334293E+00  0.12215817527E+03 -0.35216522270E+03  0.41929377439E+03  0.19200000000E+03 0.  0.
<mgrwt>
<rscale>  0 0.47649220E+03</rscale>
<asrwt>0</asrwt>
<pdfrwt beam="1">  1        1 0.13622492E-01 0.47649220E+03</pdfrwt>
<pdfrwt beam="2">  1       -1 0.85035239E-01 0.47649220E+03</pdfrwt>
<totfact> 0.60801877E+02</totfact>
</mgrwt>
</event>
<event>
 4    1  0.1454935E-005  0.5037094E+03  0.7818608E-02  0.1012815E+00
         -1   -1    0    0    0  501 -0.00000000000E+00  0.00000000000E+00  0.18057962468E+03  0.18057962475E+03  0.50400000000E-02 0. -1.
          1   -1    0    0  501    0  0.00000000000E+00 -0.00000000000E+00 -0.35126222491E+03  0.35126222495E+03  0.50400000000E-02 0.  1.
    5000001    1    1    2    0    0  0.29244508336E+02  0.16020618496E+03 -0.78216241609E+02  0.26363429864E+03  0.19200000000E+03 0.  0.
   -5000001    1    1    2    0    0 -0.29244508336E+02 -0.16020618496E+03 -0.92466358619E+02  0.26820755106E+03  0.19200000000E+03 0.  0.
<mgrwt>
<rscale>  0 0.50370944E+03</rscale>
<asrwt>0</asrwt>
<pdfrwt beam="1">  1        1 0.50180318E-01 0.50370944E+03</pdfrwt>
<pdfrwt beam="2">  1       -1 0.25797089E-01 0.50370944E+03</pdfrwt>
<totfact> 0.10441984E+03</totfact>
</mgrwt>
</event>
<event>
 4    1  0.1454935E-005  0.7266736E+03  0.7818608E-02  0.9672674E-01
          1   -1    0    0  501    0  0.00000000000E+00  0.00000000000E+00  0.51739225499E+03  0.51739225502E+03  0.50400000000E-02 0.  1.
         -1   -1    0    0    0  501 -0.00000000000E+00 -0.00000000000E+00 -0.25515194122E+03  0.25515194127E+03  0.50400000000E-02 0. -1.
    5000001    1    1    2    0    0 -0.42036699714E+02  0.29916359242E+03  0.64866977190E+02  0.36378244032E+03  0.19200000000E+03 0.  0.
   -5000001    1    1    2    0    0  0.42036699714E+02 -0.29916359242E+03  0.19737333658E+03  0.40876175597E+03  0.19200000000E+03 0.  0.
<mgrwt>
<rscale>  0 0.72667362E+03</rscale>
<asrwt>0</asrwt>
<pdfrwt beam="1">  1        1 0.73913179E-01 0.72667362E+03</pdfrwt>
<pdfrwt beam="2">  1       -1 0.36450277E-01 0.72667362E+03</pdfrwt>
<totfact> 0.34126278E+02</totfact>
</mgrwt>
</event>
<event>
 4    1  0.1454935E-005  0.5503840E+03  0.7818608E-02  0.1001405E+00
         -1   -1    0    0    0  501 -0.00000000000E+00  0.00000000000E+00  0.12326716798E+03  0.12326716808E+03  0.50400000000E-02 0. -1.
          1   -1    0    0  501    0  0.00000000000E+00 -0.00000000000E+00 -0.61436189084E+03  0.61436189086E+03  0.50400000000E-02 0.  1.
    5000001    1    1    2    0    0  0.14722925302E+03 -0.86449693661E+02 -0.37765575529E+03  0.45676894814E+03  0.19200000000E+03 0.  0.
   -5000001    1    1    2    0    0 -0.14722925302E+03  0.86449693661E+02 -0.11343896757E+03  0.28086011081E+03  0.19200000000E+03 0.  0.
<mgrwt>
<rscale>  0 0.55038405E+03</rscale>
<asrwt>0</asrwt>
<pdfrwt beam="1">  1        1 0.87765983E-01 0.55038405E+03</pdfrwt>
<pdfrwt beam="2">  1       -1 0.17609596E-01 0.55038405E+03</pdfrwt>
<totfact> 0.93558655E+02</totfact>
</mgrwt>
</event>
<event>
 4    1  0.1454935E-005  0.6329925E+03  0.7818608E-02  0.9839227E-01
         -1   -1    0    0    0  501 -0.00000000000E+00  0.00000000000E+00  0.68265982672E+02  0.68265982858E+02  0.50400000000E-02 0. -1.
          1   -1    0    0  501    0  0.00000000000E+00 -0.00000000000E+00 -0.14673468476E+04  0.14673468476E+04  0.50400000000E-02 0.  1.
    5000001    1    1    2    0    0 -0.12447041605E+03  0.93716845686E+02 -0.22026712464E+03  0.33114549345E+03  0.19200000000E+03 0.  0.
   -5000001    1    1    2    0    0  0.12447041605E+03 -0.93716845686E+02 -0.11788137403E+04  0.12044673370E+04  0.19200000000E+03 0.  0.
<mgrwt>
<rscale>  0 0.63299249E+03</rscale>
<asrwt>0</asrwt>
<pdfrwt beam="1">  1        1 0.20962096E+00 0.63299249E+03</pdfrwt>
<pdfrwt beam="2">  1       -1 0.97522842E-02 0.63299249E+03</pdfrwt>
<totfact> 0.54720082E+02</totfact>
</mgrwt>
</event>
<event>
 4    1  0.1454935E-005  0.7161105E+03  0.7818608E-02  0.9690071E-01
          1   -1    0    0  501    0  0.00000000000E+00  0.00000000000E+00  0.20955254992E+03  0.20955254998E+03  0.50400000000E-02 0.  1.
         -1   -1    0    0    0  501 -0.00000000000E+00 -0.00000000000E+00 -0.61179667791E+03  0.61179667794E+03  0.50400000000E-02 0. -1.
    5000001    1    1    2    0    0  0.26470208191E+03 -0.13660227351E+03 -0.14250157626E+03  0.38196606202E+03  0.19200000000E+03 0.  0.
   -5000001    1    1    2    0    0 -0.26470208191E+03  0.13660227351E+03 -0.25974255173E+03  0.43938316590E+03  0.19200000000E+03 0.  0.
<mgrwt>
<rscale>  0 0.71611048E+03</rscale>
<asrwt>0</asrwt>
<pdfrwt beam="1">  1        1 0.29936079E-01 0.71611048E+03</pdfrwt>
<pdfrwt beam="2">  1       -1 0.87399524E-01 0.71611048E+03</pdfrwt>
<totfact> 0.20136933E+02</totfact>
</mgrwt>
</event>
<event>
 4    1  0.1454935E-005  0.5802418E+03  0.7818608E-02  0.9947268E-01
         -1   -1    0    0    0  501 -0.00000000000E+00  0.00000000000E+00  0.14837886282E+03  0.14837886290E+03  0.50400000000E-02 0.  1.
          1   -1    0    0  501    0  0.00000000000E+00 -0.00000000000E+00 -0.56726497199E+03  0.56726497202E+03  0.50400000000E-02 0. -1.
    5000001    1    1    2    0    0 -0.57040300202E+02 -0.15731985256E+03 -0.38079945758E+03  0.45812155455E+03  0.19200000000E+03 0.  0.
   -5000001    1    1    2    0    0  0.57040300202E+02  0.15731985256E+03 -0.38086651597E+02  0.25752228037E+03  0.19200000000E+03 0.  0.
<mgrwt>
<rscale>  0 0.58024178E+03</rscale>
<asrwt>0</asrwt>
<pdfrwt beam="1">  1        1 0.81037852E-01 0.58024178E+03</pdfrwt>
<pdfrwt beam="2">  1       -1 0.21196981E-01 0.58024178E+03</pdfrwt>
<totfact> 0.76926488E+02</totfact>
</mgrwt>
</event>
<event>
 4    1  0.1454935E-005  0.9479430E+03  0.7818608E-02  0.9367558E-01
         -1   -1    0    0    0  501 -0.00000000000E+00  0.00000000000E+00  0.34528435196E+03  0.34528435200E+03  0.50400000000E-02 0. -1.
          1   -1    0    0  501    0  0.00000000000E+00 -0.00000000000E+00 -0.65062028888E+03  0.65062028890E+03  0.50400000000E-02 0.  1.
    5000001    1    1    2    0    0 -0.54506588785E+02  0.42715407295E+03 -0.20363467577E+03  0.51357828170E+03  0.19200000000E+03 0.  0.
   -5000001    1    1    2    0    0  0.54506588785E+02 -0.42715407295E+03 -0.10170126115E+03  0.48232635920E+03  0.19200000000E+03 0.  0.
<mgrwt>
<rscale>  0 0.94794305E+03</rscale>
<asrwt>0</asrwt>
<pdfrwt beam="1">  1        1 0.92945755E-01 0.94794305E+03</pdfrwt>
<pdfrwt beam="2">  1       -1 0.49326336E-01 0.94794305E+03</pdfrwt>
<totfact> 0.14035674E+02</totfact>
</mgrwt>
</event>
<event>
 4    1  0.1454935E-005  0.4786285E+03  0.7818608E-02  0.1019513E+00
         -1   -1    0    0    0  501 -0.00000000000E+00  0.00000000000E+00  0.10517119606E+03  0.10517119618E+03  0.50400000000E-02 0.  1.
          1   -1    0    0  501    0  0.00000000000E+00 -0.00000000000E+00 -0.54455312057E+03  0.54455312059E+03  0.50400000000E-02 0. -1.
    5000001    1    1    2    0    0 -0.81559337766E+02 -0.96768166501E+02 -0.12973558714E+03  0.26402902529E+03  0.19200000000E+03 0.  0.
   -5000001    1    1    2    0    0  0.81559337766E+02  0.96768166501E+02 -0.30964633737E+03  0.38569529148E+03  0.19200000000E+03 0.  0.
<mgrwt>
<rscale>  0 0.47862847E+03</rscale>
<asrwt>0</asrwt>
<pdfrwt beam="1">  1        1 0.77793301E-01 0.47862847E+03</pdfrwt>
<pdfrwt beam="2">  1       -1 0.15024457E-01 0.47862847E+03</pdfrwt>
<totfact> 0.14311361E+03</totfact>
</mgrwt>
</event>
<event>
 4    1  0.1454935E-005  0.5957580E+03  0.7818608E-02  0.9914246E-01
          1   -1    0    0  501    0  0.00000000000E+00  0.00000000000E+00  0.22573849838E+04  0.22573849838E+04  0.50400000000E-02 0.  1.
         -1   -1    0    0    0  501 -0.00000000000E+00 -0.00000000000E+00 -0.39307384220E+02  0.39307384543E+02  0.50400000000E-02 0. -1.
    5000001    1    1    2    0    0  0.10127449372E+03  0.12093507421E+03  0.17423291594E+04  0.17599592935E+04  0.19200000000E+03 0.  0.
   -5000001    1    1    2    0    0 -0.10127449372E+03 -0.12093507421E+03  0.47574844019E+03  0.53673307481E+03  0.19200000000E+03 0.  0.
<mgrwt>
<rscale>  0 0.59575800E+03</rscale>
<asrwt>0</asrwt>
<pdfrwt beam="1">  1        1 0.32248367E+00 0.59575800E+03</pdfrwt>
<pdfrwt beam="2">  1       -1 0.56153389E-02 0.59575800E+03</pdfrwt>
<totfact> 0.41580380E+02</totfact>
</mgrwt>
</event>
<event>
 4    1  0.1454935E-005  0.6466366E+03  0.7818608E-02  0.9813111E-01
         -1   -1    0    0    0  501 -0.00000000000E+00  0.00000000000E+00  0.11287870669E+03  0.11287870681E+03  0.50400000000E-02 0. -1.
          1   -1    0    0  501    0  0.00000000000E+00 -0.00000000000E+00 -0.92607998253E+03  0.92607998254E+03  0.50400000000E-02 0.  1.
    5000001    1    1    2    0    0  0.11556874200E+02  0.25443643185E+03 -0.32159279617E+03  0.45294302704E+03  0.19200000000E+03 0.  0.
   -5000001    1    1    2    0    0 -0.11556874200E+02 -0.25443643185E+03 -0.49160847966E+03  0.58601566231E+03  0.19200000000E+03 0.  0.
<mgrwt>
<rscale>  0 0.64663656E+03</rscale>
<asrwt>0</asrwt>
<pdfrwt beam="1">  1        1 0.13229714E+00 0.64663656E+03</pdfrwt>
<pdfrwt beam="2">  1       -1 0.16125530E-01 0.64663656E+03</pdfrwt>
<totfact> 0.58001939E+02</totfact>
</mgrwt>
</event>
<event>
 4    1  0.1454935E-005  0.8567449E+03  0.7818608E-02  0.9481329E-01
         -1   -1    0    0    0  501 -0.00000000000E+00  0.00000000000E+00  0.18438679236E+03  0.18438679243E+03  0.50400000000E-02 0. -1.
          1   -1    0    0  501    0  0.00000000000E+00 -0.00000000000E+00 -0.99520666558E+03  0.99520666559E+03  0.50400000000E-02 0.  1.
    5000001    1    1    2    0    0  0.36926935977E+03  0.10114413985E+03 -0.39577528699E+03  0.58317413770E+03  0.19200000000E+03 0.  0.
   -5000001    1    1    2    0    0 -0.36926935977E+03 -0.10114413985E+03 -0.41504458623E+03  0.59641932032E+03  0.19200000000E+03 0.  0.
<mgrwt>
<rscale>  0 0.85674492E+03</rscale>
<asrwt>0</asrwt>
<pdfrwt beam="1">  1        1 0.14217238E+00 0.85674492E+03</pdfrwt>
<pdfrwt beam="2">  1       -1 0.26340971E-01 0.85674492E+03</pdfrwt>
<totfact> 0.22405044E+02</totfact>
</mgrwt>
</event>
<event>
 4    1  0.1454935E-005  0.5571854E+03  0.7818608E-02  0.9998443E-01
          1   -1    0    0  501    0  0.00000000000E+00  0.00000000000E+00  0.15533469596E+04  0.15533469596E+04  0.50400000000E-02 0.  1.
         -1   -1    0    0    0  501 -0.00000000000E+00 -0.00000000000E+00 -0.49965586112E+02  0.49965586366E+02  0.50400000000E-02 0. -1.
    5000001    1    1    2    0    0  0.69246242038E+02  0.16856190216E+03  0.10015836850E+04  0.10359739548E+04  0.19200000000E+03 0.  0.
   -5000001    1    1    2    0    0 -0.69246242038E+02 -0.16856190216E+03  0.50179768846E+03  0.56733859117E+03  0.19200000000E+03 0.  0.
<mgrwt>
<rscale>  0 0.55718540E+03</rscale>
<asrwt>0</asrwt>
<pdfrwt beam="1">  1        1 0.22190668E+00 0.55718540E+03</pdfrwt>
<pdfrwt beam="2">  1       -1 0.71379418E-02 0.55718540E+03</pdfrwt>
<totfact> 0.78811541E+02</totfact>
</mgrwt>
</event>
<event>
 4    1  0.1454935E-005  0.4516276E+03  0.7818608E-02  0.1027238E+00
         -1   -1    0    0    0  501 -0.00000000000E+00  0.00000000000E+00  0.15470830257E+03  0.15470830265E+03  0.50400000000E-02 0. -1.
          1   -1    0    0  501    0  0.00000000000E+00 -0.00000000000E+00 -0.32960009401E+03  0.32960009405E+03  0.50400000000E-02 0.  1.
    5000001    1    1    2    0    0 -0.99253462132E+02  0.30597485140E+02 -0.25467296257E+02  0.21977269853E+03  0.19200000000E+03 0.  0.
   -5000001    1    1    2    0    0  0.99253462132E+02 -0.30597485140E+02 -0.14942449519E+03  0.26453569817E+03  0.19200000000E+03 0.  0.
<mgrwt>
<rscale>  0 0.45162759E+03</rscale>
<asrwt>0</asrwt>
<pdfrwt beam="1">  1        1 0.47085727E-01 0.45162759E+03</pdfrwt>
<pdfrwt beam="2">  1       -1 0.22101186E-01 0.45162759E+03</pdfrwt>
<totfact> 0.14690076E+03</totfact>
</mgrwt>
</event>
<event>
 4    1  0.1454935E-005  0.4422958E+03  0.7818608E-02  0.1030045E+00
         -1   -1    0    0    0  501 -0.00000000000E+00  0.00000000000E+00  0.65542431851E+02  0.65542432045E+02  0.50400000000E-02 0. -1.
          1   -1    0    0  501    0  0.00000000000E+00 -0.00000000000E+00 -0.74617915391E+03  0.74617915393E+03  0.50400000000E-02 0.  1.
    5000001    1    1    2    0    0 -0.49376337764E+02 -0.95237372193E+02 -0.38273663296E+03  0.44142894106E+03  0.19200000000E+03 0.  0.
   -5000001    1    1    2    0    0  0.49376337764E+02  0.95237372193E+02 -0.29790008910E+03  0.37029264491E+03  0.19200000000E+03 0.  0.
<mgrwt>
<rscale>  0 0.44229581E+03</rscale>
<asrwt>0</asrwt>
<pdfrwt beam="1">  1        1 0.10659702E+00 0.44229581E+03</pdfrwt>
<pdfrwt beam="2">  1       -1 0.93632050E-02 0.44229581E+03</pdfrwt>
<totfact> 0.19388590E+03</totfact>
</mgrwt>
</event>
<event>
 4    1  0.1454935E-005  0.5336328E+03  0.7818608E-02  0.1005355E+00
          1   -1    0    0  501    0  0.00000000000E+00  0.00000000000E+00  0.49752216804E+03  0.49752216807E+03  0.50400000000E-02 0.  1.
         -1   -1    0    0    0  501 -0.00000000000E+00 -0.00000000000E+00 -0.14309110171E+03  0.14309110180E+03  0.50400000000E-02 0. -1.
    5000001    1    1    2    0    0 -0.11267943310E+03  0.13807215211E+03  0.23803146744E+03  0.35395416840E+03  0.19200000000E+03 0.  0.
   -5000001    1    1    2    0    0  0.11267943310E+03 -0.13807215211E+03  0.11639959889E+03  0.28665910147E+03  0.19200000000E+03 0.  0.
<mgrwt>
<rscale>  0 0.53363281E+03</rscale>
<asrwt>0</asrwt>
<pdfrwt beam="1">  1        1 0.71074597E-01 0.53363281E+03</pdfrwt>
<pdfrwt beam="2">  1       -1 0.20441586E-01 0.53363281E+03</pdfrwt>
<totfact> 0.97735114E+02</totfact>
</mgrwt>
</event>
<event>
 4    1  0.1454935E-005  0.6597601E+03  0.7818608E-02  0.9788635E-01
         -1   -1    0    0    0  501 -0.00000000000E+00  0.00000000000E+00  0.38790900913E+03  0.38790900916E+03  0.50400000000E-02 0. -1.
          1   -1    0    0  501    0  0.00000000000E+00 -0.00000000000E+00 -0.28053188786E+03  0.28053188791E+03  0.50400000000E-02 0.  1.
    5000001    1    1    2    0    0  0.15826547695E+03  0.18731286992E+03 -0.56474670589E+02  0.31652402887E+03  0.19200000000E+03 0.  0.
   -5000001    1    1    2    0    0 -0.15826547695E+03 -0.18731286992E+03  0.16385179185E+03  0.35191686820E+03  0.19200000000E+03 0.  0.
<mgrwt>
<rscale>  0 0.65976010E+03</rscale>
<asrwt>0</asrwt>
<pdfrwt beam="1">  1        1 0.40075984E-01 0.65976010E+03</pdfrwt>
<pdfrwt beam="2">  1       -1 0.55415573E-01 0.65976010E+03</pdfrwt>
<totfact> 0.35127932E+02</totfact>
</mgrwt>
</event>
<event>
 4    1  0.1454935E-005  0.5475198E+03  0.7818608E-02  0.1002070E+00
          1   -1    0    0  501    0  0.00000000000E+00  0.00000000000E+00  0.35075771962E+03  0.35075771965E+03  0.50400000000E-02 0.  1.
         -1   -1    0    0    0  501 -0.00000000000E+00 -0.00000000000E+00 -0.21366456371E+03  0.21366456377E+03  0.50400000000E-02 0. -1.
    5000001    1    1    2    0    0  0.18622733791E+03  0.97302570315E+00  0.12864667933E+03  0.29680892215E+03  0.19200000000E+03 0.  0.
   -5000001    1    1    2    0    0 -0.18622733791E+03 -0.97302570315E+00  0.84464765781E+01  0.26761336127E+03  0.19200000000E+03 0.  0.
<mgrwt>
<rscale>  0 0.54751984E+03</rscale>
<asrwt>0</asrwt>
<pdfrwt beam="1">  1        1 0.50108246E-01 0.54751984E+03</pdfrwt>
<pdfrwt beam="2">  1       -1 0.30523509E-01 0.54751984E+03</pdfrwt>
<totfact> 0.78349634E+02</totfact>
</mgrwt>
</event>
<event>
 4    1  0.1454935E-005  0.4566662E+03  0.7818608E-02  0.1025753E+00
          1   -1    0    0  501    0  0.00000000000E+00  0.00000000000E+00  0.47784893883E+03  0.47784893886E+03  0.50400000000E-02 0.  1.
         -1   -1    0    0    0  501 -0.00000000000E+00 -0.00000000000E+00 -0.10910560120E+03  0.10910560131E+03  0.50400000000E-02 0. -1.
    5000001    1    1    2    0    0 -0.75984605756E+02 -0.10918243323E+02  0.30884802101E+03  0.37167723691E+03  0.19200000000E+03 0.  0.
   -5000001    1    1    2    0    0  0.75984605756E+02  0.10918243323E+02  0.59895316624E+02  0.21527730327E+03  0.19200000000E+03 0.  0.
<mgrwt>
<rscale>  0 0.45666616E+03</rscale>
<asrwt>0</asrwt>
<pdfrwt beam="1">  1        1 0.68264136E-01 0.45666616E+03</pdfrwt>
<pdfrwt beam="2">  1       -1 0.15586514E-01 0.45666616E+03</pdfrwt>
<totfact> 0.16070599E+03</totfact>
</mgrwt>
</event>
<event>
 4    1  0.1454935E-005  0.6768735E+03  0.7818608E-02  0.9757620E-01
          1   -1    0    0  501    0  0.00000000000E+00  0.00000000000E+00  0.15242430746E+04  0.15242430746E+04  0.50400000000E-02 0. -1.
         -1   -1    0    0    0  501 -0.00000000000E+00 -0.00000000000E+00 -0.75145130285E+02  0.75145130454E+02  0.50400000000E-02 0.  1.
    5000001    1    1    2    0    0  0.15302039140E+03 -0.22844910701E+03  0.83208609485E+03  0.89712624748E+03  0.19200000000E+03 0.  0.
   -5000001    1    1    2    0    0 -0.15302039140E+03  0.22844910701E+03  0.61701184942E+03  0.70226195754E+03  0.19200000000E+03 0.  0.
<mgrwt>
<rscale>  0 0.67687353E+03</rscale>
<asrwt>0</asrwt>
<pdfrwt beam="1">  1        1 0.21774900E+00 0.67687353E+03</pdfrwt>
<pdfrwt beam="2">  1       -1 0.10735019E-01 0.67687353E+03</pdfrwt>
<totfact> 0.43100420E+02</totfact>
</mgrwt>
</event>
<event>
 4    1  0.1454935E-005  0.9445396E+03  0.7818608E-02  0.9371556E-01
          1   -1    0    0  501    0  0.00000000000E+00  0.00000000000E+00  0.93472639278E+03  0.93472639280E+03  0.50400000000E-02 0.  1.
         -1   -1    0    0    0  501 -0.00000000000E+00 -0.00000000000E+00 -0.23861397255E+03  0.23861397260E+03  0.50400000000E-02 0. -1.
    5000001    1    1    2    0    0  0.49609392211E+02 -0.35990634080E+03  0.63720926458E+03  0.75821719369E+03  0.19200000000E+03 0.  0.
   -5000001    1    1    2    0    0 -0.49609392211E+02  0.35990634080E+03  0.58903155653E+02  0.41512317171E+03  0.19200000000E+03 0.  0.
<mgrwt>
<rscale>  0 0.94453963E+03</rscale>
<asrwt>0</asrwt>
<pdfrwt beam="1">  1        1 0.13353234E+00 0.94453963E+03</pdfrwt>
<pdfrwt beam="2">  1       -1 0.34087710E-01 0.94453963E+03</pdfrwt>
<totfact> 0.15794663E+02</totfact>
</mgrwt>
</event>
<event>
 4    1  0.1454935E-005  0.5576142E+03  0.7818608E-02  0.9997467E-01
          1   -1    0    0  501    0  0.00000000000E+00  0.00000000000E+00  0.13295325963E+04  0.13295325963E+04  0.50400000000E-02 0.  1.
         -1   -1    0    0    0  501 -0.00000000000E+00 -0.00000000000E+00 -0.58466712533E+02  0.58466712751E+02  0.50400000000E-02 0. -1.
    5000001    1    1    2    0    0 -0.45145489125E+02  0.19260290220E+03  0.53183834861E+03  0.59904091861E+03  0.19200000000E+03 0.  0.
   -5000001    1    1    2    0    0  0.45145489125E+02 -0.19260290220E+03  0.73922753518E+03  0.78895839047E+03  0.19200000000E+03 0.  0.
<mgrwt>
<rscale>  0 0.55761420E+03</rscale>
<asrwt>0</asrwt>
<pdfrwt beam="1">  1        1 0.18993322E+00 0.55761420E+03</pdfrwt>
<pdfrwt beam="2">  1       -1 0.83523881E-02 0.55761420E+03</pdfrwt>
<totfact> 0.86142822E+02</totfact>
</mgrwt>
</event>
<event>
 4    1  0.1454935E-005  0.5418461E+03  0.7818608E-02  0.1003399E+00
          1   -1    0    0  501    0  0.00000000000E+00  0.00000000000E+00  0.15204572473E+04  0.15204572473E+04  0.50400000000E-02 0.  1.
         -1   -1    0    0    0  501 -0.00000000000E+00 -0.00000000000E+00 -0.48274492225E+02  0.48274492488E+02  0.50400000000E-02 0. -1.
    5000001    1    1    2    0    0 -0.52634031792E+02 -0.14303906703E+03  0.40214505388E+03  0.47097256859E+03  0.19200000000E+03 0.  0.
   -5000001    1    1    2    0    0  0.52634031792E+02  0.14303906703E+03  0.10700377012E+04  0.10977591712E+04  0.19200000000E+03 0.  0.
<mgrwt>
<rscale>  0 0.54184611E+03</rscale>
<asrwt>0</asrwt>
<pdfrwt beam="1">  1        1 0.21720820E+00 0.54184611E+03</pdfrwt>
<pdfrwt beam="2">  1       -1 0.68963555E-02 0.54184611E+03</pdfrwt>
<totfact> 0.87292714E+02</totfact>
</mgrwt>
</event>
<event>
 4    1  0.1454935E-005  0.4082342E+03  0.7818608E-02  0.1040965E+00
          1   -1    0    0  501    0  0.00000000000E+00  0.00000000000E+00  0.16704892475E+04  0.16704892475E+04  0.50400000000E-02 0. -1.
         -1   -1    0    0    0  501 -0.00000000000E+00 -0.00000000000E+00 -0.24941073728E+02  0.24941074237E+02  0.50400000000E-02 0.  1.
    5000001    1    1    2    0    0 -0.58222832512E+02  0.17129045122E+02  0.96154505998E+03  0.98240328012E+03  0.19200000000E+03 0.  0.
   -5000001    1    1    2    0    0  0.58222832512E+02 -0.17129045122E+02  0.68400311376E+03  0.71302704160E+03  0.19200000000E+03 0.  0.
<mgrwt>
<rscale>  0 0.40823423E+03</rscale>
<asrwt>0</asrwt>
<pdfrwt beam="1">  1        1 0.23864138E+00 0.40823423E+03</pdfrwt>
<pdfrwt beam="2">  1       -1 0.35630097E-02 0.40823423E+03</pdfrwt>
<totfact> 0.19287688E+03</totfact>
</mgrwt>
</event>
<event>
 4    1  0.1454935E-005  0.4278988E+03  0.7818608E-02  0.1034526E+00
         -1   -1    0    0    0  501 -0.00000000000E+00  0.00000000000E+00  0.29036714504E+03  0.29036714508E+03  0.50400000000E-02 0. -1.
          1   -1    0    0  501    0  0.00000000000E+00 -0.00000000000E+00 -0.15764299896E+03  0.15764299904E+03  0.50400000000E-02 0.  1.
    5000001    1    1    2    0    0  0.63972651113E+02 -0.20336867717E+02  0.13584581681E+03  0.24458980810E+03  0.19200000000E+03 0.  0.
   -5000001    1    1    2    0    0 -0.63972651113E+02  0.20336867717E+02 -0.31216707346E+01  0.20342033602E+03  0.19200000000E+03 0.  0.
<mgrwt>
<rscale>  0 0.42789881E+03</rscale>
<asrwt>0</asrwt>
<pdfrwt beam="1">  1        1 0.22520428E-01 0.42789881E+03</pdfrwt>
<pdfrwt beam="2">  1       -1 0.41481021E-01 0.42789881E+03</pdfrwt>
<totfact> 0.12732029E+03</totfact>
</mgrwt>
</event>
<event>
 4    1  0.1454935E-005  0.4648216E+03  0.7818608E-02  0.1023392E+00
         -1   -1    0    0    0  501 -0.00000000000E+00  0.00000000000E+00  0.52756238370E+03  0.52756238372E+03  0.50400000000E-02 0.  1.
          1   -1    0    0  501    0  0.00000000000E+00 -0.00000000000E+00 -0.10238557579E+03  0.10238557592E+03  0.50400000000E-02 0. -1.
    5000001    1    1    2    0    0 -0.86454254785E+02  0.91359970592E+02  0.26200933252E+03  0.34833012032E+03  0.19200000000E+03 0.  0.
   -5000001    1    1    2    0    0  0.86454254785E+02 -0.91359970592E+02  0.16316747538E+03  0.28161783931E+03  0.19200000000E+03 0.  0.
<mgrwt>
<rscale>  0 0.46482159E+03</rscale>
<asrwt>0</asrwt>
<pdfrwt beam="1">  1        1 0.14626511E-01 0.46482159E+03</pdfrwt>
<pdfrwt beam="2">  1       -1 0.75366056E-01 0.46482159E+03</pdfrwt>
<totfact> 0.71256836E+02</totfact>
</mgrwt>
</event>
<event>
 4    1  0.1454935E-005  0.6327394E+03  0.7818608E-02  0.9839718E-01
         -1   -1    0    0    0  501 -0.00000000000E+00  0.00000000000E+00  0.10900627097E+03  0.10900627109E+03  0.50400000000E-02 0. -1.
          1   -1    0    0  501    0  0.00000000000E+00 -0.00000000000E+00 -0.91820218808E+03  0.91820218810E+03  0.50400000000E-02 0.  1.
    5000001    1    1    2    0    0 -0.12308646304E+03 -0.16999217937E+02 -0.49713886469E+02  0.23403999936E+03  0.19200000000E+03 0.  0.
   -5000001    1    1    2    0    0  0.12308646304E+03  0.16999217937E+02 -0.75948203064E+03  0.79316845982E+03  0.19200000000E+03 0.  0.
<mgrwt>
<rscale>  0 0.63273943E+03</rscale>
<asrwt>0</asrwt>
<pdfrwt beam="1">  1        1 0.13117174E+00 0.63273943E+03</pdfrwt>
<pdfrwt beam="2">  1       -1 0.15572325E-01 0.63273943E+03</pdfrwt>
<totfact> 0.62291672E+02</totfact>
</mgrwt>
</event>
<event>
 4    1  0.1454935E-005  0.4993286E+03  0.7818608E-02  0.1013954E+00
          1   -1    0    0  501    0  0.00000000000E+00  0.00000000000E+00  0.10906474222E+03  0.10906474233E+03  0.50400000000E-02 0.  1.
         -1   -1    0    0    0  501 -0.00000000000E+00 -0.00000000000E+00 -0.57151623699E+03  0.57151623701E+03  0.50400000000E-02 0. -1.
    5000001    1    1    2    0    0 -0.29400208222E+02 -0.15491816456E+03 -0.19772105199E+03  0.31752421066E+03  0.19200000000E+03 0.  0.
   -5000001    1    1    2    0    0  0.29400208222E+02  0.15491816456E+03 -0.26473044278E+03  0.36305676868E+03  0.19200000000E+03 0.  0.
<mgrwt>
<rscale>  0 0.49932863E+03</rscale>
<asrwt>0</asrwt>
<pdfrwt beam="1">  1        1 0.15580678E-01 0.49932863E+03</pdfrwt>
<pdfrwt beam="2">  1       -1 0.81645175E-01 0.49932863E+03</pdfrwt>
<totfact> 0.55376279E+02</totfact>
</mgrwt>
</event>
<event>
 4    1  0.1454935E-005  0.8688467E+03  0.7818608E-02  0.9465385E-01
          1   -1    0    0  501    0  0.00000000000E+00  0.00000000000E+00  0.74063817475E+03  0.74063817476E+03  0.50400000000E-02 0.  1.
         -1   -1    0    0    0  501 -0.00000000000E+00 -0.00000000000E+00 -0.25481219413E+03  0.25481219418E+03  0.50400000000E-02 0. -1.
    5000001    1    1    2    0    0  0.37758548969E+03  0.95100189279E+02  0.26083858724E+03  0.50647370773E+03  0.19200000000E+03 0.  0.
   -5000001    1    1    2    0    0 -0.37758548969E+03 -0.95100189279E+02  0.22498739337E+03  0.48897666121E+03  0.19200000000E+03 0.  0.
<mgrwt>
<rscale>  0 0.86884668E+03</rscale>
<asrwt>0</asrwt>
<pdfrwt beam="1">  1        1 0.10580545E+00 0.86884668E+03</pdfrwt>
<pdfrwt beam="2">  1       -1 0.36401742E-01 0.86884668E+03</pdfrwt>
<totfact> 0.20375051E+02</totfact>
</mgrwt>
</event>
<event>
 4    1  0.1454935E-005  0.7193538E+03  0.7818608E-02  0.9684695E-01
          1   -1    0    0  501    0  0.00000000000E+00  0.00000000000E+00  0.44295030268E+03  0.44295030271E+03  0.50400000000E-02 0. -1.
         -1   -1    0    0    0  501 -0.00000000000E+00 -0.00000000000E+00 -0.29205864962E+03  0.29205864967E+03  0.50400000000E-02 0.  1.
    5000001    1    1    2    0    0 -0.41999321825E+02 -0.26137444060E+03 -0.77555866865E+02  0.33609441191E+03  0.19200000000E+03 0.  0.
   -5000001    1    1    2    0    0  0.41999321825E+02  0.26137444060E+03  0.22844751992E+03  0.39891454046E+03  0.19200000000E+03 0.  0.
<mgrwt>
<rscale>  0 0.71935379E+03</rscale>
<asrwt>0</asrwt>
<pdfrwt beam="1">  1        1 0.63278615E-01 0.71935379E+03</pdfrwt>
<pdfrwt beam="2">  1       -1 0.41722664E-01 0.71935379E+03</pdfrwt>
<totfact> 0.32939538E+02</totfact>
</mgrwt>
</event>
<event>
 4    1  0.1454935E-005  0.5031449E+03  0.7818608E-02  0.1012961E+00
         -1   -1    0    0    0  501 -0.00000000000E+00  0.00000000000E+00  0.25604550708E+03  0.25604550713E+03  0.50400000000E-02 0. -1.
          1   -1    0    0  501    0  0.00000000000E+00 -0.00000000000E+00 -0.24717748925E+03  0.24717748930E+03  0.50400000000E-02 0.  1.
    5000001    1    1    2    0    0 -0.71062795787E+02 -0.13801628520E+03 -0.43804899885E+02  0.25076141086E+03  0.19200000000E+03 0.  0.
   -5000001    1    1    2    0    0  0.71062795787E+02  0.13801628520E+03  0.52672917718E+02  0.25246158556E+03  0.19200000000E+03 0.  0.
<mgrwt>
<rscale>  0 0.50314485E+03</rscale>
<asrwt>0</asrwt>
<pdfrwt beam="1">  1        1 0.35311070E-01 0.50314485E+03</pdfrwt>
<pdfrwt beam="2">  1       -1 0.36577930E-01 0.50314485E+03</pdfrwt>
<totfact> 0.89403633E+02</totfact>
</mgrwt>
</event>
<event>
 4    1  0.1454935E-005  0.5674885E+03  0.7818608E-02  0.9975252E-01
          1   -1    0    0  501    0  0.00000000000E+00  0.00000000000E+00  0.10627364611E+04  0.10627364611E+04  0.50400000000E-02 0.  1.
         -1   -1    0    0    0  501 -0.00000000000E+00 -0.00000000000E+00 -0.75758010386E+02  0.75758010554E+02  0.50400000000E-02 0. -1.
    5000001    1    1    2    0    0  0.67073632469E+02  0.16979355075E+03  0.69727471675E+03  0.74591202743E+03  0.19200000000E+03 0.  0.
   -5000001    1    1    2    0    0 -0.67073632469E+02 -0.16979355075E+03  0.28970373396E+03  0.39258244423E+03  0.19200000000E+03 0.  0.
<mgrwt>
<rscale>  0 0.56748850E+03</rscale>
<asrwt>0</asrwt>
<pdfrwt beam="1">  1        1 0.15181949E+00 0.56748850E+03</pdfrwt>
<pdfrwt beam="2">  1       -1 0.10822574E-01 0.56748850E+03</pdfrwt>
<totfact> 0.87356171E+02</totfact>
</mgrwt>
</event>
<event>
 4    1  0.1454935E-005  0.5816580E+03  0.7818608E-02  0.9944208E-01
          1   -1    0    0  501    0  0.00000000000E+00  0.00000000000E+00  0.51489213565E+03  0.51489213567E+03  0.50400000000E-02 0. -1.
         -1   -1    0    0    0  501 -0.00000000000E+00 -0.00000000000E+00 -0.16427036447E+03  0.16427036455E+03  0.50400000000E-02 0.  1.
    5000001    1    1    2    0    0  0.19562316015E+03  0.79603963527E+02  0.11017097175E+03  0.30595237344E+03  0.19200000000E+03 0.  0.
   -5000001    1    1    2    0    0 -0.19562316015E+03 -0.79603963527E+02  0.24045079942E+03  0.37321012678E+03  0.19200000000E+03 0.  0.
<mgrwt>
<rscale>  0 0.58165804E+03</rscale>
<asrwt>0</asrwt>
<pdfrwt beam="1">  1        1 0.73556017E-01 0.58165804E+03</pdfrwt>
<pdfrwt beam="2">  1       -1 0.23467196E-01 0.58165804E+03</pdfrwt>
<totfact> 0.74041616E+02</totfact>
</mgrwt>
</event>
<event>
 4    1  0.1454935E-005  0.5076298E+03  0.7818608E-02  0.1011806E+00
         -1   -1    0    0    0  501 -0.00000000000E+00  0.00000000000E+00  0.15867484767E+04  0.15867484767E+04  0.50400000000E-02 0. -1.
          1   -1    0    0  501    0  0.00000000000E+00 -0.00000000000E+00 -0.40600011420E+02  0.40600011732E+02  0.50400000000E-02 0.  1.
    5000001    1    1    2    0    0  0.16506754369E+03 -0.70674594925E+01  0.82484169831E+03  0.86285866180E+03  0.19200000000E+03 0.  0.
   -5000001    1    1    2    0    0 -0.16506754369E+03  0.70674594925E+01  0.72130676696E+03  0.76448982664E+03  0.19200000000E+03 0.  0.
<mgrwt>
<rscale>  0 0.50762981E+03</rscale>
<asrwt>0</asrwt>
<pdfrwt beam="1">  1        1 0.58000016E-02 0.50762981E+03</pdfrwt>
<pdfrwt beam="2">  1       -1 0.22667836E+00 0.50762981E+03</pdfrwt>
<totfact> 0.14863059E+02</totfact>
</mgrwt>
</event>
<event>
 4    1  0.1454935E-005  0.1829554E+04  0.7818608E-02  0.8690739E-01
          1   -1    0    0  501    0  0.00000000000E+00  0.00000000000E+00  0.14218600595E+04  0.14218600595E+04  0.50400000000E-02 0. -1.
         -1   -1    0    0    0  501 -0.00000000000E+00 -0.00000000000E+00 -0.58853648129E+03  0.58853648132E+03  0.50400000000E-02 0.  1.
    5000001    1    1    2    0    0 -0.12407735788E+02  0.86680043262E+03  0.65854653677E+03  0.11054612083E+04  0.19200000000E+03 0.  0.
   -5000001    1    1    2    0    0  0.12407735788E+02 -0.86680043262E+03  0.17477704143E+03  0.90493533255E+03  0.19200000000E+03 0.  0.
<mgrwt>
<rscale>  0 0.18295535E+04</rscale>
<asrwt>0</asrwt>
<pdfrwt beam="1">  1        1 0.20312286E+00 0.18295535E+04</pdfrwt>
<pdfrwt beam="2">  1       -1 0.84076642E-01 0.18295535E+04</pdfrwt>
<totfact> 0.11586046E+01</totfact>
</mgrwt>
</event>
<event>
 4    1  0.1454935E-005  0.5339754E+03  0.7818608E-02  0.1005273E+00
          1   -1    0    0  501    0  0.00000000000E+00  0.00000000000E+00  0.90115409642E+03  0.90115409643E+03  0.50400000000E-02 0.  1.
         -1   -1    0    0    0  501 -0.00000000000E+00 -0.00000000000E+00 -0.79101258561E+02  0.79101258722E+02  0.50400000000E-02 0. -1.
    5000001    1    1    2    0    0 -0.17657094413E+03 -0.44292375791E+02  0.47668718823E+03  0.54519151524E+03  0.19200000000E+03 0.  0.
   -5000001    1    1    2    0    0  0.17657094413E+03  0.44292375791E+02  0.34536564963E+03  0.43506383992E+03  0.19200000000E+03 0.  0.
<mgrwt>
<rscale>  0 0.53397537E+03</rscale>
<asrwt>0</asrwt>
<pdfrwt beam="1">  1        1 0.12873629E+00 0.53397537E+03</pdfrwt>
<pdfrwt beam="2">  1       -1 0.11300180E-01 0.53397537E+03</pdfrwt>
<totfact> 0.10773627E+03</totfact>
</mgrwt>
</event>
<event>
 4    1  0.1454935E-005  0.6210051E+03  0.7818608E-02  0.9862761E-01
          1   -1    0    0  501    0  0.00000000000E+00  0.00000000000E+00  0.79352252392E+03  0.79352252393E+03  0.50400000000E-02 0.  1.
         -1   -1    0    0    0  501 -0.00000000000E+00 -0.00000000000E+00 -0.12149855514E+03  0.12149855525E+03  0.50400000000E-02 0. -1.
    5000001    1    1    2    0    0 -0.18284617083E+01  0.20810156542E+03  0.14825100867E+03  0.31961221249E+03  0.19200000000E+03 0.  0.
   -5000001    1    1    2    0    0  0.18284617083E+01 -0.20810156542E+03  0.52377296010E+03  0.59540886669E+03  0.19200000000E+03 0.  0.
<mgrwt>
<rscale>  0 0.62100512E+03</rscale>
<asrwt>0</asrwt>
<pdfrwt beam="1">  1        1 0.11336036E+00 0.62100512E+03</pdfrwt>
<pdfrwt beam="2">  1       -1 0.17356936E-01 0.62100512E+03</pdfrwt>
<totfact> 0.65750727E+02</totfact>
</mgrwt>
</event>
<event>
 4    1  0.1454935E-005  0.5252415E+03  0.7818608E-02  0.1007393E+00
          1   -1    0    0  501    0  0.00000000000E+00  0.00000000000E+00  0.77283324694E+03  0.77283324696E+03  0.50400000000E-02 0.  1.
         -1   -1    0    0    0  501 -0.00000000000E+00 -0.00000000000E+00 -0.89242613775E+02  0.89242613917E+02  0.50400000000E-02 0. -1.
    5000001    1    1    2    0    0 -0.12696604748E+03 -0.12619515766E+03  0.35451550685E+03  0.44112451714E+03  0.19200000000E+03 0.  0.
   -5000001    1    1    2    0    0  0.12696604748E+03  0.12619515766E+03  0.32907512632E+03  0.42095134374E+03  0.19200000000E+03 0.  0.
<mgrwt>
<rscale>  0 0.52524150E+03</rscale>
<asrwt>0</asrwt>
<pdfrwt beam="1">  1        1 0.11040474E+00 0.52524150E+03</pdfrwt>
<pdfrwt beam="2">  1       -1 0.12748946E-01 0.52524150E+03</pdfrwt>
<totfact> 0.11299088E+03</totfact>
</mgrwt>
</event>
<event>
 4    1  0.1454935E-005  0.5079848E+03  0.7818608E-02  0.1011716E+00
         -1   -1    0    0    0  501 -0.00000000000E+00  0.00000000000E+00  0.21333916289E+03  0.21333916295E+03  0.50400000000E-02 0. -1.
          1   -1    0    0  501    0  0.00000000000E+00 -0.00000000000E+00 -0.30239239044E+03  0.30239239048E+03  0.50400000000E-02 0.  1.
    5000001    1    1    2    0    0 -0.34805685162E+02  0.12361813868E+03 -0.15175575418E+03  0.27638141916E+03  0.19200000000E+03 0.  0.
   -5000001    1    1    2    0    0  0.34805685162E+02 -0.12361813868E+03  0.62702526631E+02  0.23935013427E+03  0.19200000000E+03 0.  0.
<mgrwt>
<rscale>  0 0.50798480E+03</rscale>
<asrwt>0</asrwt>
<pdfrwt beam="1">  1        1 0.43198913E-01 0.50798480E+03</pdfrwt>
<pdfrwt beam="2">  1       -1 0.30477023E-01 0.50798480E+03</pdfrwt>
<totfact> 0.95110056E+02</totfact>
</mgrwt>
</event>
<event>
 4    1  0.1454935E-005  0.4509068E+03  0.7818608E-02  0.1027452E+00
         -1   -1    0    0    0  501 -0.00000000000E+00  0.00000000000E+00  0.34657889998E+02  0.34657890365E+02  0.50400000000E-02 0. -1.
          1   -1    0    0  501    0  0.00000000000E+00 -0.00000000000E+00 -0.14665994084E+04  0.14665994084E+04  0.50400000000E-02 0.  1.
    5000001    1    1    2    0    0 -0.93802275126E+02  0.69906384713E+02 -0.77163000586E+03  0.80371800738E+03  0.19200000000E+03 0.  0.
   -5000001    1    1    2    0    0  0.93802275126E+02 -0.69906384713E+02 -0.66031151254E+03  0.69753929139E+03  0.19200000000E+03 0.  0.
<mgrwt>
<rscale>  0 0.45090683E+03</rscale>
<asrwt>0</asrwt>
<pdfrwt beam="1">  1        1 0.20951416E+00 0.45090683E+03</pdfrwt>
<pdfrwt beam="2">  1       -1 0.49511281E-02 0.45090683E+03</pdfrwt>
<totfact> 0.15753273E+03</totfact>
</mgrwt>
</event>
<event>
 4    1  0.1454935E-005  0.4315295E+03  0.7818608E-02  0.1033378E+00
          1   -1    0    0  501    0  0.00000000000E+00  0.00000000000E+00  0.26482297722E+03  0.26482297726E+03  0.50400000000E-02 0.  1.
         -1   -1    0    0    0  501 -0.00000000000E+00 -0.00000000000E+00 -0.17579451626E+03  0.17579451634E+03  0.50400000000E-02 0. -1.
    5000001    1    1    2    0    0  0.90830733081E+02  0.27781290692E+01  0.58689369328E+01  0.21250031646E+03  0.19200000000E+03 0.  0.
   -5000001    1    1    2    0    0 -0.90830733081E+02 -0.27781290692E+01  0.83159524018E+02  0.22811717714E+03  0.19200000000E+03 0.  0.
<mgrwt>
<rscale>  0 0.43152950E+03</rscale>
<asrwt>0</asrwt>
<pdfrwt beam="1">  1        1 0.37831854E-01 0.43152950E+03</pdfrwt>
<pdfrwt beam="2">  1       -1 0.25113502E-01 0.43152950E+03</pdfrwt>
<totfact> 0.15677023E+03</totfact>
</mgrwt>
</event>
<event>
 4    1  0.1454935E-005  0.1270096E+04  0.7818608E-02  0.9053621E-01
         -1   -1    0    0    0  501 -0.00000000000E+00  0.00000000000E+00  0.17063113554E+04  0.17063113554E+04  0.50400000000E-02 0. -1.
          1   -1    0    0  501    0  0.00000000000E+00 -0.00000000000E+00 -0.23634950933E+03  0.23634950938E+03  0.50400000000E-02 0.  1.
    5000001    1    1    2    0    0  0.14361648064E+03  0.43813655992E+03  0.13348888078E+04  0.14252654026E+04  0.19200000000E+03 0.  0.
   -5000001    1    1    2    0    0 -0.14361648064E+03 -0.43813655992E+03  0.13507303829E+03  0.51739546222E+03  0.19200000000E+03 0.  0.
<mgrwt>
<rscale>  0 0.12700958E+04</rscale>
<asrwt>0</asrwt>
<pdfrwt beam="1">  1        1 0.33764215E-01 0.12700958E+04</pdfrwt>
<pdfrwt beam="2">  1       -1 0.24375877E+00 0.12700958E+04</pdfrwt>
<totfact> 0.99637994E+00</totfact>
</mgrwt>
</event>
<event>
 4    1  0.1454935E-005  0.6010239E+03  0.7818608E-02  0.9903284E-01
         -1   -1    0    0    0  501 -0.00000000000E+00  0.00000000000E+00  0.46402057799E+02  0.46402058072E+02  0.50400000000E-02 0. -1.
          1   -1    0    0  501    0  0.00000000000E+00 -0.00000000000E+00 -0.19461943196E+04  0.19461943196E+04  0.50400000000E-02 0.  1.
    5000001    1    1    2    0    0  0.59522770960E+02 -0.22148475303E+03 -0.10462672956E+04  0.10881809178E+04  0.19200000000E+03 0.  0.
   -5000001    1    1    2    0    0 -0.59522770960E+02  0.22148475303E+03 -0.85352496620E+03  0.90441545985E+03  0.19200000000E+03 0.  0.
<mgrwt>
<rscale>  0 0.60102387E+03</rscale>
<asrwt>0</asrwt>
<pdfrwt beam="1">  1        1 0.27802771E+00 0.60102387E+03</pdfrwt>
<pdfrwt beam="2">  1       -1 0.66288666E-02 0.60102387E+03</pdfrwt>
<totfact> 0.50092715E+02</totfact>
</mgrwt>
</event>
<event>
 4    1  0.1454935E-005  0.6295628E+03  0.7818608E-02  0.9845902E-01
          1   -1    0    0  501    0  0.00000000000E+00  0.00000000000E+00  0.65475284775E+03  0.65475284777E+03  0.50400000000E-02 0. -1.
         -1   -1    0    0    0  501 -0.00000000000E+00 -0.00000000000E+00 -0.15133546913E+03  0.15133546921E+03  0.50400000000E-02 0.  1.
    5000001    1    1    2    0    0 -0.16149991287E+03 -0.17953563678E+03  0.33175186857E+03  0.45303263572E+03  0.19200000000E+03 0.  0.
   -5000001    1    1    2    0    0  0.16149991287E+03  0.17953563678E+03  0.17166551006E+03  0.35305568126E+03  0.19200000000E+03 0.  0.
<mgrwt>
<rscale>  0 0.62956280E+03</rscale>
<asrwt>0</asrwt>
<pdfrwt beam="1">  1        1 0.93536122E-01 0.62956280E+03</pdfrwt>
<pdfrwt beam="2">  1       -1 0.21619353E-01 0.62956280E+03</pdfrwt>
<totfact> 0.60753323E+02</totfact>
</mgrwt>
</event>
<event>
 4    1  0.1454935E-005  0.6033963E+03  0.7818608E-02  0.9898385E-01
         -1   -1    0    0    0  501 -0.00000000000E+00  0.00000000000E+00  0.12952170716E+04  0.12952170717E+04  0.50400000000E-02 0. -1.
          1   -1    0    0  501    0  0.00000000000E+00 -0.00000000000E+00 -0.70275293944E+02  0.70275294125E+02  0.50400000000E-02 0.  1.
    5000001    1    1    2    0    0  0.20554537003E+03 -0.88241116359E+02  0.46717277349E+03  0.55240365137E+03  0.19200000000E+03 0.  0.
   -5000001    1    1    2    0    0 -0.20554537003E+03  0.88241116359E+02  0.75776900421E+03  0.81308871441E+03  0.19200000000E+03 0.  0.
<mgrwt>
<rscale>  0 0.60339626E+03</rscale>
<asrwt>0</asrwt>
<pdfrwt beam="1">  1        1 0.10039327E-01 0.60339626E+03</pdfrwt>
<pdfrwt beam="2">  1       -1 0.18503102E+00 0.60339626E+03</pdfrwt>
<totfact> 0.13150586E+02</totfact>
</mgrwt>
</event>
<event>
 4    1  0.1454935E-005  0.4240314E+03  0.7818608E-02  0.1035762E+00
         -1   -1    0    0    0  501 -0.00000000000E+00  0.00000000000E+00  0.24328972867E+02  0.24328973389E+02  0.50400000000E-02 0. -1.
          1   -1    0    0  501    0  0.00000000000E+00 -0.00000000000E+00 -0.18476186771E+04  0.18476186771E+04  0.50400000000E-02 0.  1.
    5000001    1    1    2    0    0 -0.34901215082E+02 -0.82621174283E+02 -0.88292865459E+03  0.90800405415E+03  0.19200000000E+03 0.  0.
   -5000001    1    1    2    0    0  0.34901215082E+02  0.82621174283E+02 -0.94036104968E+03  0.96394359638E+03  0.19200000000E+03 0.  0.
<mgrwt>
<rscale>  0 0.42403144E+03</rscale>
<asrwt>0</asrwt>
<pdfrwt beam="1">  1        1 0.26394544E+00 0.42403144E+03</pdfrwt>
<pdfrwt beam="2">  1       -1 0.34755688E-02 0.42403144E+03</pdfrwt>
<totfact> 0.15556369E+03</totfact>
</mgrwt>
</event>
<event>
 4    1  0.1454935E-005  0.5095659E+03  0.7818608E-02  0.1011312E+00
          1   -1    0    0  501    0  0.00000000000E+00  0.00000000000E+00  0.44654935939E+03  0.44654935942E+03  0.50400000000E-02 0.  1.
         -1   -1    0    0    0  501 -0.00000000000E+00 -0.00000000000E+00 -0.14536879528E+03  0.14536879537E+03  0.50400000000E-02 0. -1.
    5000001    1    1    2    0    0  0.14949406300E+03 -0.44212240447E+02  0.79483405151E+02  0.25977838396E+03  0.19200000000E+03 0.  0.
   -5000001    1    1    2    0    0 -0.14949406300E+03  0.44212240447E+02  0.22169715896E+03  0.33213977083E+03  0.19200000000E+03 0.  0.
<mgrwt>
<rscale>  0 0.50956586E+03</rscale>
<asrwt>0</asrwt>
<pdfrwt beam="1">  1        1 0.63792766E-01 0.50956586E+03</pdfrwt>
<pdfrwt beam="2">  1       -1 0.20766971E-01 0.50956586E+03</pdfrwt>
<totfact> 0.10993300E+03</totfact>
</mgrwt>
</event>
<event>
 4    1  0.1454935E-005  0.6916594E+03  0.7818608E-02  0.9731603E-01
         -1   -1    0    0    0  501 -0.00000000000E+00  0.00000000000E+00  0.41747574208E+02  0.41747574512E+02  0.50400000000E-02 0.  1.
          1   -1    0    0  501    0  0.00000000000E+00 -0.00000000000E+00 -0.28647937466E+04  0.28647937466E+04  0.50400000000E-02 0. -1.
    5000001    1    1    2    0    0 -0.10617432910E+03  0.25157298825E+03 -0.17914102184E+04  0.18222449142E+04  0.19200000000E+03 0.  0.
   -5000001    1    1    2    0    0  0.10617432910E+03 -0.25157298825E+03 -0.10316359540E+04  0.10842964070E+04  0.19200000000E+03 0.  0.
<mgrwt>
<rscale>  0 0.69165942E+03</rscale>
<asrwt>0</asrwt>
<pdfrwt beam="1">  1        1 0.40925613E+00 0.69165942E+03</pdfrwt>
<pdfrwt beam="2">  1       -1 0.59639410E-02 0.69165942E+03</pdfrwt>
<totfact> 0.15616565E+02</totfact>
</mgrwt>
</event>
<event>
 4    1  0.1454935E-005  0.4244163E+03  0.7818608E-02  0.1035638E+00
         -1   -1    0    0    0  501 -0.00000000000E+00  0.00000000000E+00  0.34746756619E+02  0.34746756984E+02  0.50400000000E-02 0. -1.
          1   -1    0    0  501    0  0.00000000000E+00 -0.00000000000E+00 -0.12960143183E+04  0.12960143183E+04  0.50400000000E-02 0.  1.
    5000001    1    1    2    0    0 -0.70365895340E+02  0.68899988571E+01 -0.80715661909E+03  0.83268519805E+03  0.19200000000E+03 0.  0.
   -5000001    1    1    2    0    0  0.70365895340E+02 -0.68899988571E+01 -0.45411094260E+03  0.49807587725E+03  0.19200000000E+03 0.  0.
<mgrwt>
<rscale>  0 0.42441628E+03</rscale>
<asrwt>0</asrwt>
<pdfrwt beam="1">  1        1 0.18514487E+00 0.42441628E+03</pdfrwt>
<pdfrwt beam="2">  1       -1 0.49638232E-02 0.42441628E+03</pdfrwt>
<totfact> 0.20255938E+03</totfact>
</mgrwt>
</event>
<event>
 4    1  0.1454935E-005  0.6198362E+03  0.7818608E-02  0.9865086E-01
          1   -1    0    0  501    0  0.00000000000E+00  0.00000000000E+00  0.56094945197E+03  0.56094945199E+03  0.50400000000E-02 0. -1.
         -1   -1    0    0    0  501 -0.00000000000E+00 -0.00000000000E+00 -0.17122616930E+03  0.17122616937E+03  0.50400000000E-02 0.  1.
    5000001    1    1    2    0    0 -0.74199355605E+02 -0.19982065718E+03  0.33338135271E+03  0.43981924212E+03  0.19200000000E+03 0.  0.
   -5000001    1    1    2    0    0  0.74199355605E+02  0.19982065718E+03  0.56341929964E+02  0.29235637924E+03  0.19200000000E+03 0.  0.
<mgrwt>
<rscale>  0 0.61983619E+03</rscale>
<asrwt>0</asrwt>
<pdfrwt beam="1">  1        1 0.80135636E-01 0.61983619E+03</pdfrwt>
<pdfrwt beam="2">  1       -1 0.24460881E-01 0.61983619E+03</pdfrwt>
<totfact> 0.61355333E+02</totfact>
</mgrwt>
</event>
<event>
 4    1  0.1454935E-005  0.4034150E+03  0.7818608E-02  0.1042604E+00
         -1   -1    0    0    0  501 -0.00000000000E+00  0.00000000000E+00  0.86559341788E+02  0.86559341935E+02  0.50400000000E-02 0.  1.
          1   -1    0    0  501    0  0.00000000000E+00 -0.00000000000E+00 -0.47003501784E+03  0.47003501787E+03  0.50400000000E-02 0. -1.
    5000001    1    1    2    0    0  0.33571052235E+02  0.33656412403E+02 -0.24626945719E+03  0.31586771787E+03  0.19200000000E+03 0.  0.
   -5000001    1    1    2    0    0 -0.33571052235E+02 -0.33656412403E+02 -0.13720621886E+03  0.24072664194E+03  0.19200000000E+03 0.  0.
<mgrwt>
<rscale>  0 0.40341503E+03</rscale>
<asrwt>0</asrwt>
<pdfrwt beam="1">  1        1 0.67147858E-01 0.40341503E+03</pdfrwt>
<pdfrwt beam="2">  1       -1 0.12365621E-01 0.40341503E+03</pdfrwt>
<totfact> 0.23751867E+03</totfact>
</mgrwt>
</event>
<event>
 4    1  0.1454935E-005  0.5226541E+03  0.7818608E-02  0.1008029E+00
          1   -1    0    0  501    0  0.00000000000E+00  0.00000000000E+00  0.11501878029E+04  0.11501878029E+04  0.50400000000E-02 0. -1.
         -1   -1    0    0    0  501 -0.00000000000E+00 -0.00000000000E+00 -0.59374489868E+02  0.59374490082E+02  0.50400000000E-02 0.  1.
    5000001    1    1    2    0    0 -0.16176089370E+03  0.69047550367E+02  0.49398698286E+03  0.55840960788E+03  0.19200000000E+03 0.  0.
   -5000001    1    1    2    0    0  0.16176089370E+03 -0.69047550367E+02  0.59682633021E+03  0.65115268515E+03  0.19200000000E+03 0.  0.
<mgrwt>
<rscale>  0 0.52265405E+03</rscale>
<asrwt>0</asrwt>
<pdfrwt beam="1">  1        1 0.16431253E+00 0.52265405E+03</pdfrwt>
<pdfrwt beam="2">  1       -1 0.84820706E-02 0.52265405E+03</pdfrwt>
<totfact> 0.11129310E+03</totfact>
</mgrwt>
</event>
<event>
 4    1  0.1454935E-005  0.8252980E+03  0.7818608E-02  0.9524104E-01
         -1   -1    0    0    0  501 -0.00000000000E+00  0.00000000000E+00  0.52810952346E+03  0.52810952348E+03  0.50400000000E-02 0.  1.
          1   -1    0    0  501    0  0.00000000000E+00 -0.00000000000E+00 -0.32243158355E+03  0.32243158359E+03  0.50400000000E-02 0. -1.
    5000001    1    1    2    0    0 -0.27897157353E+03  0.23557413921E+03  0.11287733171E+03  0.42769803123E+03  0.19200000000E+03 0.  0.
   -5000001    1    1    2    0    0  0.27897157353E+03 -0.23557413921E+03  0.92800608196E+02  0.42284307584E+03  0.19200000000E+03 0.  0.
<mgrwt>
<rscale>  0 0.82529798E+03</rscale>
<asrwt>0</asrwt>
<pdfrwt beam="1">  1        1 0.46061655E-01 0.82529798E+03</pdfrwt>
<pdfrwt beam="2">  1       -1 0.75444218E-01 0.82529798E+03</pdfrwt>
<totfact> 0.15688846E+02</totfact>
</mgrwt>
</event>
<event>
 4    1  0.1454935E-005  0.5022716E+03  0.7818608E-02  0.1013188E+00
          1   -1    0    0  501    0  0.00000000000E+00  0.00000000000E+00  0.13590740208E+04  0.13590740208E+04  0.50400000000E-02 0. -1.
         -1   -1    0    0    0  501 -0.00000000000E+00 -0.00000000000E+00 -0.46406003738E+02  0.46406004012E+02  0.50400000000E-02 0.  1.
    5000001    1    1    2    0    0 -0.96185882295E+02 -0.66489992078E+02  0.34307340102E+03  0.41016582194E+03  0.19200000000E+03 0.  0.
   -5000001    1    1    2    0    0  0.96185882295E+02  0.66489992078E+02  0.96959461599E+03  0.99531420283E+03  0.19200000000E+03 0.  0.
<mgrwt>
<rscale>  0 0.50227162E+03</rscale>
<asrwt>0</asrwt>
<pdfrwt beam="1">  1        1 0.19415347E+00 0.50227162E+03</pdfrwt>
<pdfrwt beam="2">  1       -1 0.66294278E-02 0.50227162E+03</pdfrwt>
<totfact> 0.11809871E+03</totfact>
</mgrwt>
</event>
<event>
 4    1  0.1454935E-005  0.4851285E+03  0.7818608E-02  0.1017735E+00
          1   -1    0    0  501    0  0.00000000000E+00  0.00000000000E+00  0.56256023767E+02  0.56256023993E+02  0.50400000000E-02 0.  1.
         -1   -1    0    0    0  501 -0.00000000000E+00 -0.00000000000E+00 -0.10458866172E+04  0.10458866172E+04  0.50400000000E-02 0. -1.
    5000001    1    1    2    0    0 -0.48742797210E+02 -0.13996834183E+03 -0.50057414310E+03  0.55624227612E+03  0.19200000000E+03 0.  0.
   -5000001    1    1    2    0    0  0.48742797210E+02  0.13996834183E+03 -0.48905645030E+03  0.54590036506E+03  0.19200000000E+03 0.  0.
<mgrwt>
<rscale>  0 0.48512853E+03</rscale>
<asrwt>0</asrwt>
<pdfrwt beam="1">  1        1 0.80365755E-02 0.48512853E+03</pdfrwt>
<pdfrwt beam="2">  1       -1 0.14941236E+00 0.48512853E+03</pdfrwt>
<totfact> 0.32811728E+02</totfact>
</mgrwt>
</event>
<event>
 4    1  0.1454935E-005  0.1053814E+04  0.7818608E-02  0.9251415E-01
         -1   -1    0    0    0  501 -0.00000000000E+00  0.00000000000E+00  0.24630821389E+03  0.24630821394E+03  0.50400000000E-02 0. -1.
          1   -1    0    0  501    0  0.00000000000E+00 -0.00000000000E+00 -0.11271699169E+04  0.11271699169E+04  0.50400000000E-02 0.  1.
    5000001    1    1    2    0    0 -0.27344181791E+03  0.38789496179E+03 -0.60287466396E+03  0.79092021697E+03  0.19200000000E+03 0.  0.
   -5000001    1    1    2    0    0  0.27344181791E+03 -0.38789496179E+03 -0.27798703906E+03  0.58255791390E+03  0.19200000000E+03 0.  0.
<mgrwt>
<rscale>  0 0.10538144E+04</rscale>
<asrwt>0</asrwt>
<pdfrwt beam="1">  1        1 0.16102427E+00 0.10538144E+04</pdfrwt>
<pdfrwt beam="2">  1       -1 0.35186888E-01 0.10538144E+04</pdfrwt>
<totfact> 0.10680457E+02</totfact>
</mgrwt>
</event>
<event>
 4    1  0.1454935E-005  0.4588914E+03  0.7818608E-02  0.1025103E+00
         -1   -1    0    0    0  501 -0.00000000000E+00  0.00000000000E+00  0.79636297097E+02  0.79636297256E+02  0.50400000000E-02 0. -1.
          1   -1    0    0  501    0  0.00000000000E+00 -0.00000000000E+00 -0.66107193595E+03  0.66107193597E+03  0.50400000000E-02 0.  1.
    5000001    1    1    2    0    0  0.22040873181E+02  0.99394794516E+02 -0.17192656503E+03  0.27710624141E+03  0.19200000000E+03 0.  0.
   -5000001    1    1    2    0    0 -0.22040873181E+02 -0.99394794516E+02 -0.40950907382E+03  0.46360199181E+03  0.19200000000E+03 0.  0.
<mgrwt>
<rscale>  0 0.45889136E+03</rscale>
<asrwt>0</asrwt>
<pdfrwt beam="1">  1        1 0.94438845E-01 0.45889136E+03</pdfrwt>
<pdfrwt beam="2">  1       -1 0.11376614E-01 0.45889136E+03</pdfrwt>
<totfact> 0.17028921E+03</totfact>
</mgrwt>
</event>
<event>
 4    1  0.1454935E-005  0.5103551E+03  0.7818608E-02  0.1011111E+00
          1   -1    0    0  501    0  0.00000000000E+00  0.00000000000E+00  0.12158319139E+04  0.12158319139E+04  0.50400000000E-02 0.  1.
         -1   -1    0    0    0  501 -0.00000000000E+00 -0.00000000000E+00 -0.53556395575E+02  0.53556395812E+02  0.50400000000E-02 0. -1.
    5000001    1    1    2    0    0  0.21529851796E+02 -0.16541688350E+03  0.52984367133E+03  0.58772833513E+03  0.19200000000E+03 0.  0.
   -5000001    1    1    2    0    0 -0.21529851796E+02  0.16541688350E+03  0.63243184695E+03  0.68165997455E+03  0.19200000000E+03 0.  0.
<mgrwt>
<rscale>  0 0.51035507E+03</rscale>
<asrwt>0</asrwt>
<pdfrwt beam="1">  1        1 0.17369026E+00 0.51035507E+03</pdfrwt>
<pdfrwt beam="2">  1       -1 0.76509142E-02 0.51035507E+03</pdfrwt>
<totfact> 0.11783349E+03</totfact>
</mgrwt>
</event>
<event>
 4    1  0.1454935E-005  0.7511235E+03  0.7818608E-02  0.9633589E-01
          1   -1    0    0  501    0  0.00000000000E+00  0.00000000000E+00  0.34013878129E+03  0.34013878133E+03  0.50400000000E-02 0.  1.
         -1   -1    0    0    0  501 -0.00000000000E+00 -0.00000000000E+00 -0.41467373385E+03  0.41467373388E+03  0.50400000000E-02 0. -1.
    5000001    1    1    2    0    0 -0.21319513250E+03  0.20871413091E+03 -0.16103431780E+03  0.38962777682E+03  0.19200000000E+03 0.  0.
   -5000001    1    1    2    0    0  0.21319513250E+03 -0.20871413091E+03  0.86499365232E+02  0.36518473839E+03  0.19200000000E+03 0.  0.
<mgrwt>
<rscale>  0 0.75112347E+03</rscale>
<asrwt>0</asrwt>
<pdfrwt beam="1">  1        1 0.48591255E-01 0.75112347E+03</pdfrwt>
<pdfrwt beam="2">  1       -1 0.59239104E-01 0.75112347E+03</pdfrwt>
<totfact> 0.23961255E+02</totfact>
</mgrwt>
</event>
<event>
 4    1  0.1454935E-005  0.6306630E+03  0.7818608E-02  0.9843756E-01
         -1   -1    0    0    0  501 -0.00000000000E+00  0.00000000000E+00  0.90781587636E+02  0.90781587776E+02  0.50400000000E-02 0.  1.
          1   -1    0    0  501    0  0.00000000000E+00 -0.00000000000E+00 -0.10953097167E+04  0.10953097167E+04  0.50400000000E-02 0. -1.
    5000001    1    1    2    0    0  0.19512184575E+03  0.14921916290E+03 -0.59109752396E+03  0.66828076143E+03  0.19200000000E+03 0.  0.
   -5000001    1    1    2    0    0 -0.19512184575E+03 -0.14921916290E+03 -0.41343060512E+03  0.51781054308E+03  0.19200000000E+03 0.  0.
<mgrwt>
<rscale>  0 0.63066300E+03</rscale>
<asrwt>0</asrwt>
<pdfrwt beam="1">  1        1 0.15647281E+00 0.63066300E+03</pdfrwt>
<pdfrwt beam="2">  1       -1 0.12968799E-01 0.63066300E+03</pdfrwt>
<totfact> 0.61917885E+02</totfact>
</mgrwt>
</event>
<event>
 4    1  0.1454935E-005  0.6592400E+03  0.7818608E-02  0.9789594E-01
          1   -1    0    0  501    0  0.00000000000E+00  0.00000000000E+00  0.14845701550E+04  0.14845701550E+04  0.50400000000E-02 0.  1.
         -1   -1    0    0    0  501 -0.00000000000E+00 -0.00000000000E+00 -0.73185727977E+02  0.73185728151E+02  0.50400000000E-02 0. -1.
    5000001    1    1    2    0    0  0.19124723416E+03 -0.16579266277E+02  0.11473501475E+04  0.11790363598E+04  0.19200000000E+03 0.  0.
   -5000001    1    1    2    0    0 -0.19124723416E+03  0.16579266277E+02  0.26403427951E+03  0.37871952339E+03  0.19200000000E+03 0.  0.
<mgrwt>
<rscale>  0 0.65924001E+03</rscale>
<asrwt>0</asrwt>
<pdfrwt beam="1">  1        1 0.21208144E+00 0.65924001E+03</pdfrwt>
<pdfrwt beam="2">  1       -1 0.10455104E-01 0.65924001E+03</pdfrwt>
<totfact> 0.47712244E+02</totfact>
</mgrwt>
</event>
<event>
 4    1  0.1454935E-005  0.4340805E+03  0.7818608E-02  0.1032579E+00
          1   -1    0    0  501    0  0.00000000000E+00  0.00000000000E+00  0.65086434495E+02  0.65086434691E+02  0.50400000000E-02 0.  1.
         -1   -1    0    0    0  501 -0.00000000000E+00 -0.00000000000E+00 -0.72375260737E+03  0.72375260738E+03  0.50400000000E-02 0. -1.
    5000001    1    1    2    0    0 -0.37482576716E+01  0.89669083890E+02 -0.41433527510E+03  0.46539479395E+03  0.19200000000E+03 0.  0.
   -5000001    1    1    2    0    0  0.37482576716E+01 -0.89669083890E+02 -0.24433089777E+03  0.32344424813E+03  0.19200000000E+03 0.  0.
<mgrwt>
<rscale>  0 0.43408053E+03</rscale>
<asrwt>0</asrwt>
<pdfrwt beam="1">  1        1 0.92980625E-02 0.43408053E+03</pdfrwt>
<pdfrwt beam="2">  1       -1 0.10339323E+00 0.43408053E+03</pdfrwt>
<totfact> 0.66320004E+02</totfact>
</mgrwt>
</event>
<event>
 4    1  0.1454935E-005  0.5491692E+03  0.7818608E-02  0.1001686E+00
          1   -1    0    0  501    0  0.00000000000E+00  0.00000000000E+00  0.14355907560E+04  0.14355907560E+04  0.50400000000E-02 0.  1.
         -1   -1    0    0    0  501 -0.00000000000E+00 -0.00000000000E+00 -0.52519625934E+02  0.52519626176E+02  0.50400000000E-02 0. -1.
    5000001    1    1    2    0    0 -0.67160926934E+02 -0.68850483797E+02  0.11552250342E+04  0.11750148335E+04  0.19200000000E+03 0.  0.
   -5000001    1    1    2    0    0  0.67160926934E+02  0.68850483797E+02  0.22784609587E+03  0.31309554872E+03  0.19200000000E+03 0.  0.
<mgrwt>
<rscale>  0 0.54916915E+03</rscale>
<asrwt>0</asrwt>
<pdfrwt beam="1">  1        1 0.20508438E+00 0.54916915E+03</pdfrwt>
<pdfrwt beam="2">  1       -1 0.75028043E-02 0.54916915E+03</pdfrwt>
<totfact> 0.86815941E+02</totfact>
</mgrwt>
</event>
<event>
 4    1  0.1454935E-005  0.6711488E+03  0.7818608E-02  0.9767885E-01
          1   -1    0    0  501    0  0.00000000000E+00  0.00000000000E+00  0.33940107623E+03  0.33940107627E+03  0.50400000000E-02 0.  1.
         -1   -1    0    0    0  501 -0.00000000000E+00 -0.00000000000E+00 -0.33179088582E+03  0.33179088586E+03  0.50400000000E-02 0. -1.
    5000001    1    1    2    0    0 -0.26842851047E+03 -0.43021214320E+02  0.46720481819E+02  0.33608256952E+03  0.19200000000E+03 0.  0.
   -5000001    1    1    2    0    0  0.26842851047E+03  0.43021214320E+02 -0.39110291408E+02  0.33510939260E+03  0.19200000000E+03 0.  0.
<mgrwt>
<rscale>  0 0.67114882E+03</rscale>
<asrwt>0</asrwt>
<pdfrwt beam="1">  1        1 0.48485868E-01 0.67114882E+03</pdfrwt>
<pdfrwt beam="2">  1       -1 0.47398698E-01 0.67114882E+03</pdfrwt>
<totfact> 0.36939351E+02</totfact>
</mgrwt>
</event>
<event>
 4    1  0.1454935E-005  0.4955845E+03  0.7818608E-02  0.1014938E+00
         -1   -1    0    0    0  501 -0.00000000000E+00  0.00000000000E+00  0.34783424579E+03  0.34783424583E+03  0.50400000000E-02 0. -1.
          1   -1    0    0  501    0  0.00000000000E+00 -0.00000000000E+00 -0.17652370035E+03  0.17652370043E+03  0.50400000000E-02 0.  1.
    5000001    1    1    2    0    0 -0.38976915090E+02  0.14828254597E+03  0.51697079851E+02  0.25108464990E+03  0.19200000000E+03 0.  0.
   -5000001    1    1    2    0    0  0.38976915090E+02 -0.14828254597E+03  0.11961346559E+03  0.27327329635E+03  0.19200000000E+03 0.  0.
<mgrwt>
<rscale>  0 0.49558446E+03</rscale>
<asrwt>0</asrwt>
<pdfrwt beam="1">  1        1 0.25217672E-01 0.49558446E+03</pdfrwt>
<pdfrwt beam="2">  1       -1 0.49690606E-01 0.49558446E+03</pdfrwt>
<totfact> 0.78863081E+02</totfact>
</mgrwt>
</event>
<event>
 4    1  0.1454935E-005  0.8244519E+03  0.7818608E-02  0.9525283E-01
          1   -1    0    0  501    0  0.00000000000E+00  0.00000000000E+00  0.34933503657E+04  0.34933503657E+04  0.50400000000E-02 0.  1.
         -1   -1    0    0    0  501 -0.00000000000E+00 -0.00000000000E+00 -0.48643917580E+02  0.48643917842E+02  0.50400000000E-02 0. -1.
    5000001    1    1    2    0    0 -0.31179913804E+03 -0.18872172850E+03  0.16569645036E+04  0.17074044510E+04  0.19200000000E+03 0.  0.
   -5000001    1    1    2    0    0  0.31179913804E+03  0.18872172850E+03  0.17877419445E+04  0.18345898325E+04  0.19200000000E+03 0.  0.
<mgrwt>
<rscale>  0 0.82445193E+03</rscale>
<asrwt>0</asrwt>
<pdfrwt beam="1">  1        1 0.49905029E+00 0.82445193E+03</pdfrwt>
<pdfrwt beam="2">  1       -1 0.69491278E-02 0.82445193E+03</pdfrwt>
<totfact> 0.46476351E+01</totfact>
</mgrwt>
</event>
<event>
 4    1  0.1454935E-005  0.8262300E+03  0.7818608E-02  0.9522808E-01
         -1   -1    0    0    0  501 -0.00000000000E+00  0.00000000000E+00  0.50870190703E+03  0.50870190705E+03  0.50400000000E-02 0.  1.
          1   -1    0    0  501    0  0.00000000000E+00 -0.00000000000E+00 -0.33548921262E+03  0.33548921266E+03  0.50400000000E-02 0. -1.
    5000001    1    1    2    0    0 -0.26705010306E+03  0.63267228908E+02 -0.16048018915E+03  0.37139788759E+03  0.19200000000E+03 0.  0.
   -5000001    1    1    2    0    0  0.26705010306E+03 -0.63267228908E+02  0.33369288356E+03  0.47279323212E+03  0.19200000000E+03 0.  0.
<mgrwt>
<rscale>  0 0.82623000E+03</rscale>
<asrwt>0</asrwt>
<pdfrwt beam="1">  1        1 0.47927031E-01 0.82623000E+03</pdfrwt>
<pdfrwt beam="2">  1       -1 0.72671700E-01 0.82623000E+03</pdfrwt>
<totfact> 0.16105226E+02</totfact>
</mgrwt>
</event>
<event>
 4    1  0.1454935E-005  0.5281163E+03  0.7818608E-02  0.1006690E+00
         -1   -1    0    0    0  501 -0.00000000000E+00  0.00000000000E+00  0.20336510374E+03  0.20336510381E+03  0.50400000000E-02 0.  1.
          1   -1    0    0  501    0  0.00000000000E+00 -0.00000000000E+00 -0.34286470219E+03  0.34286470223E+03  0.50400000000E-02 0. -1.
    5000001    1    1    2    0    0  0.14932648481E+03  0.96511418307E+02 -0.33183840035E+02  0.26377645871E+03  0.19200000000E+03 0.  0.
   -5000001    1    1    2    0    0 -0.14932648481E+03 -0.96511418307E+02 -0.10631575841E+03  0.28245334733E+03  0.19200000000E+03 0.  0.
<mgrwt>
<rscale>  0 0.52811633E+03</rscale>
<asrwt>0</asrwt>
<pdfrwt beam="1">  1        1 0.48980672E-01 0.52811633E+03</pdfrwt>
<pdfrwt beam="2">  1       -1 0.29052158E-01 0.52811633E+03</pdfrwt>
<totfact> 0.87903154E+02</totfact>
</mgrwt>
</event>
<event>
 4    1  0.1454935E-005  0.5321216E+03  0.7818608E-02  0.1005719E+00
          1   -1    0    0  501    0  0.00000000000E+00  0.00000000000E+00  0.93739946116E+03  0.93739946117E+03  0.50400000000E-02 0.  1.
         -1   -1    0    0    0  501 -0.00000000000E+00 -0.00000000000E+00 -0.75515682341E+02  0.75515682510E+02  0.50400000000E-02 0. -1.
    5000001    1    1    2    0    0  0.98743098681E+02  0.14586565925E+03  0.32847958524E+03  0.41927297552E+03  0.19200000000E+03 0.  0.
   -5000001    1    1    2    0    0 -0.98743098681E+02 -0.14586565925E+03  0.53340419358E+03  0.59364216816E+03  0.19200000000E+03 0.  0.
<mgrwt>
<rscale>  0 0.53212164E+03</rscale>
<asrwt>0</asrwt>
<pdfrwt beam="1">  1        1 0.13391420E+00 0.53212164E+03</pdfrwt>
<pdfrwt beam="2">  1       -1 0.10787955E-01 0.53212164E+03</pdfrwt>
<totfact> 0.10874656E+03</totfact>
</mgrwt>
</event>
<event>
 4    1  0.1454935E-005  0.6510299E+03  0.7818608E-02  0.9804849E-01
         -1   -1    0    0    0  501 -0.00000000000E+00  0.00000000000E+00  0.13510172393E+03  0.13510172403E+03  0.50400000000E-02 0. -1.
          1   -1    0    0  501    0  0.00000000000E+00 -0.00000000000E+00 -0.78429770189E+03  0.78429770191E+03  0.50400000000E-02 0.  1.
    5000001    1    1    2    0    0 -0.70005261303E+02 -0.21483518960E+03 -0.13491231233E+03  0.32576099724E+03  0.19200000000E+03 0.  0.
   -5000001    1    1    2    0    0  0.70005261303E+02  0.21483518960E+03 -0.51428366563E+03  0.59363842870E+03  0.19200000000E+03 0.  0.
<mgrwt>
<rscale>  0 0.65102987E+03</rscale>
<asrwt>0</asrwt>
<pdfrwt beam="1">  1        1 0.11204253E+00 0.65102987E+03</pdfrwt>
<pdfrwt beam="2">  1       -1 0.19300247E-01 0.65102987E+03</pdfrwt>
<totfact> 0.56142992E+02</totfact>
</mgrwt>
</event>
<event>
 4    1  0.1454935E-005  0.9324035E+03  0.7818608E-02  0.9385958E-01
          1   -1    0    0  501    0  0.00000000000E+00  0.00000000000E+00  0.54390175909E+03  0.54390175911E+03  0.50400000000E-02 0. -1.
         -1   -1    0    0    0  501 -0.00000000000E+00 -0.00000000000E+00 -0.39960171480E+03  0.39960171483E+03  0.50400000000E-02 0.  1.
    5000001    1    1    2    0    0 -0.37994179018E+03  0.12140292652E+03  0.22012924497E+03  0.49438377702E+03  0.19200000000E+03 0.  0.
   -5000001    1    1    2    0    0  0.37994179018E+03 -0.12140292652E+03 -0.75829200680E+02  0.44911969692E+03  0.19200000000E+03 0.  0.
<mgrwt>
<rscale>  0 0.93240351E+03</rscale>
<asrwt>0</asrwt>
<pdfrwt beam="1">  1        1 0.77700252E-01 0.93240351E+03</pdfrwt>
<pdfrwt beam="2">  1       -1 0.57085959E-01 0.93240351E+03</pdfrwt>
<totfact> 0.13664327E+02</totfact>
</mgrwt>
</event>
<event>
 4    1  0.1454935E-005  0.6878914E+03  0.7818608E-02  0.9738167E-01
         -1   -1    0    0    0  501 -0.00000000000E+00  0.00000000000E+00  0.14668781831E+03  0.14668781839E+03  0.50400000000E-02 0. -1.
          1   -1    0    0  501    0  0.00000000000E+00 -0.00000000000E+00 -0.80646538592E+03  0.80646538593E+03  0.50400000000E-02 0.  1.
    5000001    1    1    2    0    0 -0.44337902746E+02 -0.19548304552E+03 -0.61132634259E+03  0.67138913296E+03  0.19200000000E+03 0.  0.
   -5000001    1    1    2    0    0  0.44337902746E+02  0.19548304552E+03 -0.48451225017E+02  0.28176407136E+03  0.19200000000E+03 0.  0.
<mgrwt>
<rscale>  0 0.68789141E+03</rscale>
<asrwt>0</asrwt>
<pdfrwt beam="1">  1        1 0.11520934E+00 0.68789141E+03</pdfrwt>
<pdfrwt beam="2">  1       -1 0.20955403E-01 0.68789141E+03</pdfrwt>
<totfact> 0.46843475E+02</totfact>
</mgrwt>
</event>
<event>
 4    1  0.1454935E-005  0.1076944E+04  0.7818608E-02  0.9227960E-01
         -1   -1    0    0    0  501 -0.00000000000E+00  0.00000000000E+00  0.35398874431E+03  0.35398874435E+03  0.50400000000E-02 0. -1.
          1   -1    0    0  501    0  0.00000000000E+00 -0.00000000000E+00 -0.81910009756E+03  0.81910009757E+03  0.50400000000E-02 0.  1.
    5000001    1    1    2    0    0  0.38972137724E+03  0.26531118494E+03 -0.41340716413E+02  0.51073068399E+03  0.19200000000E+03 0.  0.
   -5000001    1    1    2    0    0 -0.38972137724E+03 -0.26531118494E+03 -0.42377063683E+03  0.66235815793E+03  0.19200000000E+03 0.  0.
<mgrwt>
<rscale>  0 0.10769442E+04</rscale>
<asrwt>0</asrwt>
<pdfrwt beam="1">  1        1 0.11701430E+00 0.10769442E+04</pdfrwt>
<pdfrwt beam="2">  1       -1 0.50569821E-01 0.10769442E+04</pdfrwt>
<totfact> 0.93935506E+01</totfact>
</mgrwt>
</event>
<event>
 4    1  0.1454935E-005  0.4704434E+03  0.7818608E-02  0.1021795E+00
          1   -1    0    0  501    0  0.00000000000E+00  0.00000000000E+00  0.18065797174E+04  0.18065797174E+04  0.50400000000E-02 0.  1.
         -1   -1    0    0    0  501 -0.00000000000E+00 -0.00000000000E+00 -0.30626517004E+02  0.30626517418E+02  0.50400000000E-02 0. -1.
    5000001    1    1    2    0    0  0.11919569781E+03 -0.59678647747E+02  0.99101119522E+03  0.10182025066E+04  0.19200000000E+03 0.  0.
   -5000001    1    1    2    0    0 -0.11919569781E+03  0.59678647747E+02  0.78494200519E+03  0.81900372825E+03  0.19200000000E+03 0.  0.
<mgrwt>
<rscale>  0 0.47044339E+03</rscale>
<asrwt>0</asrwt>
<pdfrwt beam="1">  1        1 0.25808288E+00 0.47044339E+03</pdfrwt>
<pdfrwt beam="2">  1       -1 0.43752156E-02 0.47044339E+03</pdfrwt>
<totfact> 0.11629921E+03</totfact>
</mgrwt>
</event>
<event>
 4    1  0.1454935E-005  0.6575133E+03  0.7818608E-02  0.9792782E-01
         -1   -1    0    0    0  501 -0.00000000000E+00  0.00000000000E+00  0.19899005310E+04  0.19899005310E+04  0.50400000000E-02 0. -1.
          1   -1    0    0  501    0  0.00000000000E+00 -0.00000000000E+00 -0.54314748637E+02  0.54314748871E+02  0.50400000000E-02 0.  1.
    5000001    1    1    2    0    0  0.19302666234E+03  0.12232984603E+03  0.53932372281E+03  0.61640730170E+03  0.19200000000E+03 0.  0.
   -5000001    1    1    2    0    0 -0.19302666234E+03 -0.12232984603E+03  0.13962620595E+04  0.14278079782E+04  0.19200000000E+03 0.  0.
<mgrwt>
<rscale>  0 0.65751334E+03</rscale>
<asrwt>0</asrwt>
<pdfrwt beam="1">  1        1 0.77592479E-02 0.65751334E+03</pdfrwt>
<pdfrwt beam="2">  1       -1 0.28427158E+00 0.65751334E+03</pdfrwt>
<totfact> 0.41745948E+01</totfact>
</mgrwt>
</event>
<event>
 4    1  0.1454935E-005  0.5773724E+03  0.7818608E-02  0.9953496E-01
          1   -1    0    0  501    0  0.00000000000E+00  0.00000000000E+00  0.11104681825E+04  0.11104681825E+04  0.50400000000E-02 0.  1.
         -1   -1    0    0    0  501 -0.00000000000E+00 -0.00000000000E+00 -0.75049174573E+02  0.75049174743E+02  0.50400000000E-02 0. -1.
    5000001    1    1    2    0    0  0.35860990174E+02 -0.21193941362E+03  0.48388333873E+03  0.56321524408E+03  0.19200000000E+03 0.  0.
   -5000001    1    1    2    0    0 -0.35860990174E+02  0.21193941362E+03  0.55153566915E+03  0.62230211313E+03  0.19200000000E+03 0.  0.
<mgrwt>
<rscale>  0 0.57737239E+03</rscale>
<asrwt>0</asrwt>
<pdfrwt beam="1">  1        1 0.15863830E+00 0.57737239E+03</pdfrwt>
<pdfrwt beam="2">  1       -1 0.10721311E-01 0.57737239E+03</pdfrwt>
<totfact> 0.81969835E+02</totfact>
</mgrwt>
</event>
<event>
 4    1  0.1454935E-005  0.5079451E+03  0.7818608E-02  0.1011726E+00
         -1   -1    0    0    0  501 -0.00000000000E+00  0.00000000000E+00  0.24136945655E+03  0.24136945660E+03  0.50400000000E-02 0. -1.
          1   -1    0    0  501    0  0.00000000000E+00 -0.00000000000E+00 -0.26723368622E+03  0.26723368627E+03  0.50400000000E-02 0.  1.
    5000001    1    1    2    0    0 -0.12806885641E+02  0.69691048221E+02  0.13765285291E+03  0.24664380478E+03  0.19200000000E+03 0.  0.
   -5000001    1    1    2    0    0  0.12806885641E+02 -0.69691048221E+02 -0.16351708257E+03  0.26195933810E+03  0.19200000000E+03 0.  0.
<mgrwt>
<rscale>  0 0.50794507E+03</rscale>
<asrwt>0</asrwt>
<pdfrwt beam="1">  1        1 0.38176241E-01 0.50794507E+03</pdfrwt>
<pdfrwt beam="2">  1       -1 0.34481351E-01 0.50794507E+03</pdfrwt>
<totfact> 0.89804771E+02</totfact>
</mgrwt>
</event>
<event>
 4    1  0.1454935E-005  0.1003418E+04  0.7818608E-02  0.9304804E-01
         -1   -1    0    0    0  501 -0.00000000000E+00  0.00000000000E+00  0.15379472077E+03  0.15379472085E+03  0.50400000000E-02 0. -1.
          1   -1    0    0  501    0  0.00000000000E+00 -0.00000000000E+00 -0.16366754054E+04  0.16366754054E+04  0.50400000000E-02 0.  1.
    5000001    1    1    2    0    0 -0.21507229113E+03  0.41051271260E+03 -0.72637752381E+03  0.88275992474E+03  0.19200000000E+03 0.  0.
   -5000001    1    1    2    0    0  0.21507229113E+03 -0.41051271260E+03 -0.75650316081E+03  0.90771020152E+03  0.19200000000E+03 0.  0.
<mgrwt>
<rscale>  0 0.10034182E+04</rscale>
<asrwt>0</asrwt>
<pdfrwt beam="1">  1        1 0.23381076E+00 0.10034182E+04</pdfrwt>
<pdfrwt beam="2">  1       -1 0.21970675E-01 0.10034182E+04</pdfrwt>
<totfact> 0.11089099E+02</totfact>
</mgrwt>
</event>
<event>
 4    1  0.1454935E-005  0.7450426E+03  0.7818608E-02  0.9643160E-01
          1   -1    0    0  501    0  0.00000000000E+00  0.00000000000E+00  0.91783575117E+03  0.91783575118E+03  0.50400000000E-02 0.  1.
         -1   -1    0    0    0  501 -0.00000000000E+00 -0.00000000000E+00 -0.15119495229E+03  0.15119495238E+03  0.50400000000E-02 0. -1.
    5000001    1    1    2    0    0 -0.10516562475E+02  0.29329477090E+03  0.20310017114E+03  0.40527287134E+03  0.19200000000E+03 0.  0.
   -5000001    1    1    2    0    0  0.10516562475E+02 -0.29329477090E+03  0.56354062773E+03  0.66375783222E+03  0.19200000000E+03 0.  0.
<mgrwt>
<rscale>  0 0.74504264E+03</rscale>
<asrwt>0</asrwt>
<pdfrwt beam="1">  1        1 0.13111939E+00 0.74504264E+03</pdfrwt>
<pdfrwt beam="2">  1       -1 0.21599279E-01 0.74504264E+03</pdfrwt>
<totfact> 0.36149452E+02</totfact>
</mgrwt>
</event>
<event>
 4    1  0.1454935E-005  0.7194927E+03  0.7818608E-02  0.9684466E-01
         -1   -1    0    0    0  501 -0.00000000000E+00  0.00000000000E+00  0.25982439559E+03  0.25982439564E+03  0.50400000000E-02 0.  1.
          1   -1    0    0  501    0  0.00000000000E+00 -0.00000000000E+00 -0.49809577426E+03  0.49809577428E+03  0.50400000000E-02 0. -1.
    5000001    1    1    2    0    0 -0.28380808047E+03  0.72268892501E+02 -0.32374070537E+02  0.35168437527E+03  0.19200000000E+03 0.  0.
   -5000001    1    1    2    0    0  0.28380808047E+03 -0.72268892501E+02 -0.20589730813E+03  0.40623579465E+03  0.19200000000E+03 0.  0.
<mgrwt>
<rscale>  0 0.71949269E+03</rscale>
<asrwt>0</asrwt>
<pdfrwt beam="1">  1        1 0.71156539E-01 0.71949269E+03</pdfrwt>
<pdfrwt beam="2">  1       -1 0.37117771E-01 0.71949269E+03</pdfrwt>
<totfact> 0.34792421E+02</totfact>
</mgrwt>
</event>
<event>
 4    1  0.1454935E-005  0.8521374E+03  0.7818608E-02  0.9487473E-01
          1   -1    0    0  501    0  0.00000000000E+00  0.00000000000E+00  0.33877667767E+03  0.33877667771E+03  0.50400000000E-02 0.  1.
         -1   -1    0    0    0  501 -0.00000000000E+00 -0.00000000000E+00 -0.53585308430E+03  0.53585308432E+03  0.50400000000E-02 0. -1.
    5000001    1    1    2    0    0  0.31656391463E+03  0.19709271738E+03 -0.17543073496E+03  0.45464073075E+03  0.19200000000E+03 0.  0.
   -5000001    1    1    2    0    0 -0.31656391463E+03 -0.19709271738E+03 -0.21645671671E+02  0.41998903128E+03  0.19200000000E+03 0.  0.
<mgrwt>
<rscale>  0 0.85213738E+03</rscale>
<asrwt>0</asrwt>
<pdfrwt beam="1">  1        1 0.48396668E-01 0.85213738E+03</pdfrwt>
<pdfrwt beam="2">  1       -1 0.76550441E-01 0.85213738E+03</pdfrwt>
<totfact> 0.14250644E+02</totfact>
</mgrwt>
</event>
<event>
 4    1  0.1454935E-005  0.4039721E+03  0.7818608E-02  0.1042413E+00
          1   -1    0    0  501    0  0.00000000000E+00  0.00000000000E+00  0.54080209443E+03  0.54080209445E+03  0.50400000000E-02 0. -1.
         -1   -1    0    0    0  501 -0.00000000000E+00 -0.00000000000E+00 -0.75440467738E+02  0.75440467906E+02  0.50400000000E-02 0.  1.
    5000001    1    1    2    0    0  0.35242250372E+02 -0.20661506647E+02  0.30528764167E+03  0.36295104108E+03  0.19200000000E+03 0.  0.
   -5000001    1    1    2    0    0 -0.35242250372E+02  0.20661506647E+02  0.16007398502E+03  0.25329152127E+03  0.19200000000E+03 0.  0.
<mgrwt>
<rscale>  0 0.40397209E+03</rscale>
<asrwt>0</asrwt>
<pdfrwt beam="1">  1        1 0.77257445E-01 0.40397209E+03</pdfrwt>
<pdfrwt beam="2">  1       -1 0.10777209E-01 0.40397209E+03</pdfrwt>
<totfact> 0.24471059E+03</totfact>
</mgrwt>
</event>
<event>
 4    1  0.1454935E-005  0.4076229E+03  0.7818608E-02  0.1041172E+00
         -1   -1    0    0    0  501 -0.00000000000E+00  0.00000000000E+00  0.14677056334E+03  0.14677056343E+03  0.50400000000E-02 0. -1.
          1   -1    0    0  501    0  0.00000000000E+00 -0.00000000000E+00 -0.28302074635E+03  0.28302074639E+03  0.50400000000E-02 0.  1.
    5000001    1    1    2    0    0 -0.24068160356E+02 -0.44964153774E+02 -0.20106437394E+02  0.19967303346E+03  0.19200000000E+03 0.  0.
   -5000001    1    1    2    0    0  0.24068160356E+02  0.44964153774E+02 -0.11614374561E+03  0.23011827635E+03  0.19200000000E+03 0.  0.
<mgrwt>
<rscale>  0 0.40762294E+03</rscale>
<asrwt>0</asrwt>
<pdfrwt beam="1">  1        1 0.40431535E-01 0.40762294E+03</pdfrwt>
<pdfrwt beam="2">  1       -1 0.20967223E-01 0.40762294E+03</pdfrwt>
<totfact> 0.19452813E+03</totfact>
</mgrwt>
</event>
<event>
 4    1  0.1454935E-005  0.6079975E+03  0.7818608E-02  0.9888951E-01
          1   -1    0    0  501    0  0.00000000000E+00  0.00000000000E+00  0.13859106788E+04  0.13859106788E+04  0.50400000000E-02 0.  1.
         -1   -1    0    0    0  501 -0.00000000000E+00 -0.00000000000E+00 -0.66681949228E+02  0.66681949419E+02  0.50400000000E-02 0. -1.
    5000001    1    1    2    0    0  0.70508581728E+02 -0.19707194332E+03  0.40072108141E+03  0.49117226716E+03  0.19200000000E+03 0.  0.
   -5000001    1    1    2    0    0 -0.70508581728E+02  0.19707194332E+03  0.91850764818E+03  0.96142036108E+03  0.19200000000E+03 0.  0.
<mgrwt>
<rscale>  0 0.60799745E+03</rscale>
<asrwt>0</asrwt>
<pdfrwt beam="1">  1        1 0.19798724E+00 0.60799745E+03</pdfrwt>
<pdfrwt beam="2">  1       -1 0.95259929E-02 0.60799745E+03</pdfrwt>
<totfact> 0.64222949E+02</totfact>
</mgrwt>
</event>
<event>
 4    1  0.1454935E-005  0.7411291E+03  0.7818608E-02  0.9649371E-01
         -1   -1    0    0    0  501 -0.00000000000E+00  0.00000000000E+00  0.17850154292E+03  0.17850154299E+03  0.50400000000E-02 0. -1.
          1   -1    0    0  501    0  0.00000000000E+00 -0.00000000000E+00 -0.76928242855E+03  0.76928242856E+03  0.50400000000E-02 0.  1.
    5000001    1    1    2    0    0  0.26039954910E+03  0.16764804967E+03 -0.38156083474E+03  0.52760445823E+03  0.19200000000E+03 0.  0.
   -5000001    1    1    2    0    0 -0.26039954910E+03 -0.16764804967E+03 -0.20922005088E+03  0.42017951333E+03  0.19200000000E+03 0.  0.
<mgrwt>
<rscale>  0 0.74112914E+03</rscale>
<asrwt>0</asrwt>
<pdfrwt beam="1">  1        1 0.10989749E+00 0.74112914E+03</pdfrwt>
<pdfrwt beam="2">  1       -1 0.25500221E-01 0.74112914E+03</pdfrwt>
<totfact> 0.36071853E+02</totfact>
</mgrwt>
</event>
<event>
 4    1  0.1454935E-005  0.4859378E+03  0.7818608E-02  0.1017516E+00
          1   -1    0    0  501    0  0.00000000000E+00  0.00000000000E+00  0.10953880144E+04  0.10953880144E+04  0.50400000000E-02 0.  1.
         -1   -1    0    0    0  501 -0.00000000000E+00 -0.00000000000E+00 -0.53893130655E+02  0.53893130891E+02  0.50400000000E-02 0. -1.
    5000001    1    1    2    0    0  0.11960801093E+03 -0.55149389330E+02  0.35650881116E+03  0.42580519473E+03  0.19200000000E+03 0.  0.
   -5000001    1    1    2    0    0 -0.11960801093E+03  0.55149389330E+02  0.68498607257E+03  0.72347595056E+03  0.19200000000E+03 0.  0.
<mgrwt>
<rscale>  0 0.48593781E+03</rscale>
<asrwt>0</asrwt>
<pdfrwt beam="1">  1        1 0.15648399E+00 0.48593781E+03</pdfrwt>
<pdfrwt beam="2">  1       -1 0.76990193E-02 0.48593781E+03</pdfrwt>
<totfact> 0.14142868E+03</totfact>
</mgrwt>
</event>
<event>
 4    1  0.1454935E-005  0.4987797E+03  0.7818608E-02  0.1014098E+00
         -1   -1    0    0    0  501 -0.00000000000E+00  0.00000000000E+00  0.29363035562E+03  0.29363035566E+03  0.50400000000E-02 0. -1.
          1   -1    0    0  501    0  0.00000000000E+00 -0.00000000000E+00 -0.21181495503E+03  0.21181495509E+03  0.50400000000E-02 0.  1.
    5000001    1    1    2    0    0 -0.81310382617E+02 -0.64974417203E+02 -0.81110086540E+02  0.23297188532E+03  0.19200000000E+03 0.  0.
   -5000001    1    1    2    0    0  0.81310382617E+02  0.64974417203E+02  0.16292548713E+03  0.27247342543E+03  0.19200000000E+03 0.  0.
<mgrwt>
<rscale>  0 0.49877971E+03</rscale>
<asrwt>0</asrwt>
<pdfrwt beam="1">  1        1 0.30259279E-01 0.49877971E+03</pdfrwt>
<pdfrwt beam="2">  1       -1 0.41947194E-01 0.49877971E+03</pdfrwt>
<totfact> 0.85213757E+02</totfact>
</mgrwt>
</event>
<event>
 4    1  0.1454935E-005  0.5661103E+03  0.7818608E-02  0.9978323E-01
         -1   -1    0    0    0  501 -0.00000000000E+00  0.00000000000E+00  0.56595475684E+03  0.56595475686E+03  0.50400000000E-02 0. -1.
          1   -1    0    0  501    0  0.00000000000E+00 -0.00000000000E+00 -0.14156647796E+03  0.14156647805E+03  0.50400000000E-02 0.  1.
    5000001    1    1    2    0    0 -0.19167773801E+03 -0.46764839038E+02  0.29442370643E+03  0.40308389241E+03  0.19200000000E+03 0.  0.
   -5000001    1    1    2    0    0  0.19167773801E+03  0.46764839038E+02  0.12996457245E+03  0.30443734250E+03  0.19200000000E+03 0.  0.
<mgrwt>
<rscale>  0 0.56611031E+03</rscale>
<asrwt>0</asrwt>
<pdfrwt beam="1">  1        1 0.20223782E-01 0.56611031E+03</pdfrwt>
<pdfrwt beam="2">  1       -1 0.80850682E-01 0.56611031E+03</pdfrwt>
<totfact> 0.39951852E+02</totfact>
</mgrwt>
</event>
<event>
 4    1  0.1454935E-005  0.5161143E+03  0.7818608E-02  0.1009656E+00
          1   -1    0    0  501    0  0.00000000000E+00  0.00000000000E+00  0.22130831145E+03  0.22130831151E+03  0.50400000000E-02 0. -1.
         -1   -1    0    0    0  501 -0.00000000000E+00 -0.00000000000E+00 -0.30090826133E+03  0.30090826137E+03  0.50400000000E-02 0.  1.
    5000001    1    1    2    0    0  0.16303502679E+03  0.39094640808E+02  0.93378416732E+00  0.25489935829E+03  0.19200000000E+03 0.  0.
   -5000001    1    1    2    0    0 -0.16303502679E+03 -0.39094640808E+02 -0.80533734045E+02  0.26731721460E+03  0.19200000000E+03 0.  0.
<mgrwt>
<rscale>  0 0.51611433E+03</rscale>
<asrwt>0</asrwt>
<pdfrwt beam="1">  1        1 0.31615473E-01 0.51611433E+03</pdfrwt>
<pdfrwt beam="2">  1       -1 0.42986894E-01 0.51611433E+03</pdfrwt>
<totfact> 0.77015589E+02</totfact>
</mgrwt>
</event>
<event>
 4    1  0.1454935E-005  0.5802083E+03  0.7818608E-02  0.9947340E-01
         -1   -1    0    0    0  501 -0.00000000000E+00  0.00000000000E+00  0.48200492818E+03  0.48200492821E+03  0.50400000000E-02 0. -1.
          1   -1    0    0  501    0  0.00000000000E+00 -0.00000000000E+00 -0.17460486066E+03  0.17460486073E+03  0.50400000000E-02 0.  1.
    5000001    1    1    2    0    0 -0.12850692010E+03 -0.16765468065E+03  0.21222310732E+03  0.35570320176E+03  0.19200000000E+03 0.  0.
   -5000001    1    1    2    0    0  0.12850692010E+03  0.16765468065E+03  0.95176960200E+02  0.30090658718E+03  0.19200000000E+03 0.  0.
<mgrwt>
<rscale>  0 0.58020825E+03</rscale>
<asrwt>0</asrwt>
<pdfrwt beam="1">  1        1 0.24943552E-01 0.58020825E+03</pdfrwt>
<pdfrwt beam="2">  1       -1 0.68857846E-01 0.58020825E+03</pdfrwt>
<totfact> 0.42314967E+02</totfact>
</mgrwt>
</event>
<event>
 4    1  0.1454935E-005  0.8810525E+03  0.7818608E-02  0.9449582E-01
         -1   -1    0    0    0  501 -0.00000000000E+00  0.00000000000E+00  0.10357626560E+03  0.10357626572E+03  0.50400000000E-02 0. -1.
          1   -1    0    0  501    0  0.00000000000E+00 -0.00000000000E+00 -0.18736278371E+04  0.18736278371E+04  0.50400000000E-02 0.  1.
    5000001    1    1    2    0    0  0.17174064748E+03  0.15474025877E+03 -0.16079031921E+04  0.16357432784E+04  0.19200000000E+03 0.  0.
   -5000001    1    1    2    0    0 -0.17174064748E+03 -0.15474025877E+03 -0.16214837942E+03  0.34146082444E+03  0.19200000000E+03 0.  0.
<mgrwt>
<rscale>  0 0.88105249E+03</rscale>
<asrwt>0</asrwt>
<pdfrwt beam="1">  1        1 0.26766110E+00 0.88105249E+03</pdfrwt>
<pdfrwt beam="2">  1       -1 0.14796611E-01 0.88105249E+03</pdfrwt>
<totfact> 0.15260801E+02</totfact>
</mgrwt>
</event>
<event>
 4    1  0.1454935E-005  0.5742246E+03  0.7818608E-02  0.9960374E-01
         -1   -1    0    0    0  501 -0.00000000000E+00  0.00000000000E+00  0.34431111856E+02  0.34431112225E+02  0.50400000000E-02 0. -1.
          1   -1    0    0  501    0  0.00000000000E+00 -0.00000000000E+00 -0.23941564353E+04  0.23941564353E+04  0.50400000000E-02 0.  1.
    5000001    1    1    2    0    0 -0.15094276098E+03  0.48532543843E+02 -0.17843814685E+04  0.18016715434E+04  0.19200000000E+03 0.  0.
   -5000001    1    1    2    0    0  0.15094276098E+03 -0.48532543843E+02 -0.57534385492E+03  0.62691600418E+03  0.19200000000E+03 0.  0.
<mgrwt>
<rscale>  0 0.57422458E+03</rscale>
<asrwt>0</asrwt>
<pdfrwt beam="1">  1        1 0.34202224E+00 0.57422458E+03</pdfrwt>
<pdfrwt beam="2">  1       -1 0.49187318E-02 0.57422458E+03</pdfrwt>
<totfact> 0.41991251E+02</totfact>
</mgrwt>
</event>
<event>
 4    1  0.1454935E-005  0.5872877E+03  0.7818608E-02  0.9932137E-01
         -1   -1    0    0    0  501 -0.00000000000E+00  0.00000000000E+00  0.10334726051E+03  0.10334726063E+03  0.50400000000E-02 0. -1.
          1   -1    0    0  501    0  0.00000000000E+00 -0.00000000000E+00 -0.83433965755E+03  0.83433965757E+03  0.50400000000E-02 0.  1.
    5000001    1    1    2    0    0  0.12454110885E+03 -0.56933945667E+02 -0.64484316625E+03  0.68661391701E+03  0.19200000000E+03 0.  0.
   -5000001    1    1    2    0    0 -0.12454110885E+03  0.56933945667E+02 -0.86149230789E+02  0.25107300119E+03  0.19200000000E+03 0.  0.
<mgrwt>
<rscale>  0 0.58728773E+03</rscale>
<asrwt>0</asrwt>
<pdfrwt beam="1">  1        1 0.11919138E+00 0.58728773E+03</pdfrwt>
<pdfrwt beam="2">  1       -1 0.14763895E-01 0.58728773E+03</pdfrwt>
<totfact> 0.79258110E+02</totfact>
</mgrwt>
</event>
<event>
 4    1  0.1454935E-005  0.6268069E+03  0.7818608E-02  0.9851300E-01
         -1   -1    0    0    0  501 -0.00000000000E+00  0.00000000000E+00  0.96488267651E+02  0.96488267783E+02  0.50400000000E-02 0. -1.
          1   -1    0    0  501    0  0.00000000000E+00 -0.00000000000E+00 -0.10179653644E+04  0.10179653645E+04  0.50400000000E-02 0.  1.
    5000001    1    1    2    0    0 -0.16069937833E+03  0.17338979364E+03 -0.32924687563E+03  0.44850397529E+03  0.19200000000E+03 0.  0.
   -5000001    1    1    2    0    0  0.16069937833E+03 -0.17338979364E+03 -0.59223022116E+03  0.66594965695E+03  0.19200000000E+03 0.  0.
<mgrwt>
<rscale>  0 0.62680687E+03</rscale>
<asrwt>0</asrwt>
<pdfrwt beam="1">  1        1 0.14542362E+00 0.62680687E+03</pdfrwt>
<pdfrwt beam="2">  1       -1 0.13784039E-01 0.62680687E+03</pdfrwt>
<totfact> 0.63851751E+02</totfact>
</mgrwt>
</event>
<event>
 4    1  0.1454935E-005  0.5646029E+03  0.7818608E-02  0.9981693E-01
          1   -1    0    0  501    0  0.00000000000E+00  0.00000000000E+00  0.58090199767E+03  0.58090199770E+03  0.50400000000E-02 0.  1.
         -1   -1    0    0    0  501 -0.00000000000E+00 -0.00000000000E+00 -0.13719027562E+03  0.13719027572E+03  0.50400000000E-02 0. -1.
    5000001    1    1    2    0    0  0.20321335736E+03 -0.21496301907E+02  0.26350485803E+03  0.38478119732E+03  0.19200000000E+03 0.  0.
   -5000001    1    1    2    0    0 -0.20321335736E+03  0.21496301907E+02  0.18020686402E+03  0.33331107609E+03  0.19200000000E+03 0.  0.
<mgrwt>
<rscale>  0 0.56460289E+03</rscale>
<asrwt>0</asrwt>
<pdfrwt beam="1">  1        1 0.82985998E-01 0.56460289E+03</pdfrwt>
<pdfrwt beam="2">  1       -1 0.19598611E-01 0.56460289E+03</pdfrwt>
<totfact> 0.84814786E+02</totfact>
</mgrwt>
</event>
<event>
 4    1  0.1454935E-005  0.4922336E+03  0.7818608E-02  0.1015826E+00
          1   -1    0    0  501    0  0.00000000000E+00  0.00000000000E+00  0.19903084961E+04  0.19903084961E+04  0.50400000000E-02 0.  1.
         -1   -1    0    0    0  501 -0.00000000000E+00 -0.00000000000E+00 -0.30434213405E+02  0.30434213823E+02  0.50400000000E-02 0. -1.
    5000001    1    1    2    0    0 -0.11961945754E+03 -0.95699650084E+02  0.10438310403E+04  0.10723406541E+04  0.19200000000E+03 0.  0.
   -5000001    1    1    2    0    0  0.11961945754E+03  0.95699650084E+02  0.91604324240E+03  0.94840205588E+03  0.19200000000E+03 0.  0.
<mgrwt>
<rscale>  0 0.49223358E+03</rscale>
<asrwt>0</asrwt>
<pdfrwt beam="1">  1        1 0.28432977E+00 0.49223358E+03</pdfrwt>
<pdfrwt beam="2">  1       -1 0.43477451E-02 0.49223358E+03</pdfrwt>
<totfact> 0.90384071E+02</totfact>
</mgrwt>
</event>
<event>
 4    1  0.1454935E-005  0.4536982E+03  0.7818608E-02  0.1026625E+00
          1   -1    0    0  501    0  0.00000000000E+00  0.00000000000E+00  0.23911214734E+03  0.23911214739E+03  0.50400000000E-02 0.  1.
         -1   -1    0    0    0  501 -0.00000000000E+00 -0.00000000000E+00 -0.21521493995E+03  0.21521494001E+03  0.50400000000E-02 0. -1.
    5000001    1    1    2    0    0 -0.69615332544E+02 -0.97787879840E+02 -0.17723055396E+01  0.22644183588E+03  0.19200000000E+03 0.  0.
   -5000001    1    1    2    0    0  0.69615332544E+02  0.97787879840E+02  0.25669512921E+02  0.22788525152E+03  0.19200000000E+03 0.  0.
<mgrwt>
<rscale>  0 0.45369817E+03</rscale>
<asrwt>0</asrwt>
<pdfrwt beam="1">  1        1 0.34158878E-01 0.45369817E+03</pdfrwt>
<pdfrwt beam="2">  1       -1 0.30744991E-01 0.45369817E+03</pdfrwt>
<totfact> 0.12648028E+03</totfact>
</mgrwt>
</event>
<event>
 4    1  0.1454935E-005  0.6121625E+03  0.7818608E-02  0.9880489E-01
          1   -1    0    0  501    0  0.00000000000E+00  0.00000000000E+00  0.13891270467E+04  0.13891270467E+04  0.50400000000E-02 0.  1.
         -1   -1    0    0    0  501 -0.00000000000E+00 -0.00000000000E+00 -0.67442162196E+02  0.67442162385E+02  0.50400000000E-02 0. -1.
    5000001    1    1    2    0    0 -0.86550681939E+01 -0.22855753244E+03  0.50108185588E+03  0.58331850830E+03  0.19200000000E+03 0.  0.
   -5000001    1    1    2    0    0  0.86550681939E+01  0.22855753244E+03  0.82060302867E+03  0.87325070083E+03  0.19200000000E+03 0.  0.
<mgrwt>
<rscale>  0 0.61216250E+03</rscale>
<asrwt>0</asrwt>
<pdfrwt beam="1">  1        1 0.19844671E+00 0.61216250E+03</pdfrwt>
<pdfrwt beam="2">  1       -1 0.96345952E-02 0.61216250E+03</pdfrwt>
<totfact> 0.62769033E+02</totfact>
</mgrwt>
</event>
<event>
 4    1  0.1454935E-005  0.6594750E+03  0.7818608E-02  0.9789161E-01
         -1   -1    0    0    0  501 -0.00000000000E+00  0.00000000000E+00  0.47970838957E+02  0.47970839221E+02  0.50400000000E-02 0. -1.
          1   -1    0    0  501    0  0.00000000000E+00 -0.00000000000E+00 -0.22665190286E+04  0.22665190287E+04  0.50400000000E-02 0.  1.
    5000001    1    1    2    0    0  0.17691705984E+03  0.19157303261E+03 -0.13274045503E+04  0.13663333097E+04  0.19200000000E+03 0.  0.
   -5000001    1    1    2    0    0 -0.17691705984E+03 -0.19157303261E+03 -0.89114363935E+03  0.94815655819E+03  0.19200000000E+03 0.  0.
<mgrwt>
<rscale>  0 0.65947500E+03</rscale>
<asrwt>0</asrwt>
<pdfrwt beam="1">  1        1 0.32378836E+00 0.65947500E+03</pdfrwt>
<pdfrwt beam="2">  1       -1 0.68529785E-02 0.65947500E+03</pdfrwt>
<totfact> 0.30022757E+02</totfact>
</mgrwt>
</event>
<event>
 4    1  0.1454935E-005  0.8872301E+03  0.7818608E-02  0.9441687E-01
          1   -1    0    0  501    0  0.00000000000E+00  0.00000000000E+00  0.16111595286E+03  0.16111595294E+03  0.50400000000E-02 0.  1.
         -1   -1    0    0    0  501 -0.00000000000E+00 -0.00000000000E+00 -0.12214453644E+04  0.12214453644E+04  0.50400000000E-02 0. -1.
    5000001    1    1    2    0    0  0.16177852281E+03  0.28167606598E+03 -0.16665671584E+03  0.41249503939E+03  0.19200000000E+03 0.  0.
   -5000001    1    1    2    0    0 -0.16177852281E+03 -0.28167606598E+03 -0.89367269566E+03  0.97006627792E+03  0.19200000000E+03 0.  0.
<mgrwt>
<rscale>  0 0.88723015E+03</rscale>
<asrwt>0</asrwt>
<pdfrwt beam="1">  1        1 0.23016565E-01 0.88723015E+03</pdfrwt>
<pdfrwt beam="2">  1       -1 0.17449219E+00 0.88723015E+03</pdfrwt>
<totfact> 0.50213498E+01</totfact>
</mgrwt>
</event>
<event>
 4    1  0.1454935E-005  0.1977471E+04  0.7818608E-02  0.8617227E-01
          1   -1    0    0  501    0  0.00000000000E+00  0.00000000000E+00  0.12462931689E+04  0.12462931690E+04  0.50400000000E-02 0.  1.
         -1   -1    0    0    0  501 -0.00000000000E+00 -0.00000000000E+00 -0.78440465621E+03  0.78440465622E+03  0.50400000000E-02 0. -1.
    5000001    1    1    2    0    0 -0.86509241728E+03 -0.42323896437E+03  0.11287988218E+03  0.98849480484E+03  0.19200000000E+03 0.  0.
   -5000001    1    1    2    0    0  0.86509241728E+03  0.42323896437E+03  0.34900863056E+03  0.10422030203E+04  0.19200000000E+03 0.  0.
<mgrwt>
<rscale>  0 0.19774713E+04</rscale>
<asrwt>0</asrwt>
<pdfrwt beam="1">  1        1 0.17804188E+00 0.19774713E+04</pdfrwt>
<pdfrwt beam="2">  1       -1 0.11205781E+00 0.19774713E+04</pdfrwt>
<totfact> 0.78337159E+00</totfact>
</mgrwt>
</event>
<event>
 4    1  0.1454935E-005  0.5810694E+03  0.7818608E-02  0.9945478E-01
          1   -1    0    0  501    0  0.00000000000E+00  0.00000000000E+00  0.48835649487E+02  0.48835649747E+02  0.50400000000E-02 0.  1.
         -1   -1    0    0    0  501 -0.00000000000E+00 -0.00000000000E+00 -0.17284588723E+04  0.17284588723E+04  0.50400000000E-02 0. -1.
    5000001    1    1    2    0    0 -0.48290816512E+02 -0.15725771754E+03 -0.40204440571E+03  0.47493757153E+03  0.19200000000E+03 0.  0.
   -5000001    1    1    2    0    0  0.48290816512E+02  0.15725771754E+03 -0.12775788171E+04  0.13023569506E+04  0.19200000000E+03 0.  0.
<mgrwt>
<rscale>  0 0.58106940E+03</rscale>
<asrwt>0</asrwt>
<pdfrwt beam="1">  1        1 0.69765225E-02 0.58106940E+03</pdfrwt>
<pdfrwt beam="2">  1       -1 0.24692266E+00 0.58106940E+03</pdfrwt>
<totfact> 0.84414198E+01</totfact>
</mgrwt>
</event>
<event>
 4    1  0.1454935E-005  0.1076206E+04  0.7818608E-02  0.9228699E-01
         -1   -1    0    0    0  501 -0.00000000000E+00  0.00000000000E+00  0.27073048475E+03  0.27073048480E+03  0.50400000000E-02 0. -1.
          1   -1    0    0  501    0  0.00000000000E+00 -0.00000000000E+00 -0.10695312721E+04  0.10695312721E+04  0.50400000000E-02 0.  1.
    5000001    1    1    2    0    0  0.44252922824E+02 -0.33073770048E+03 -0.86760371259E+03  0.94918172643E+03  0.19200000000E+03 0.  0.
   -5000001    1    1    2    0    0 -0.44252922824E+02  0.33073770048E+03  0.68802925258E+02  0.39108003045E+03  0.19200000000E+03 0.  0.
<mgrwt>
<rscale>  0 0.10762058E+04</rscale>
<asrwt>0</asrwt>
<pdfrwt beam="1">  1        1 0.15279018E+00 0.10762058E+04</pdfrwt>
<pdfrwt beam="2">  1       -1 0.38675784E-01 0.10762058E+04</pdfrwt>
<totfact> 0.98954125E+01</totfact>
</mgrwt>
</event>
<event>
 4    1  0.1454935E-005  0.7526272E+03  0.7818608E-02  0.9631238E-01
          1   -1    0    0  501    0  0.00000000000E+00  0.00000000000E+00  0.43330505435E+03  0.43330505438E+03  0.50400000000E-02 0.  1.
         -1   -1    0    0    0  501 -0.00000000000E+00 -0.00000000000E+00 -0.32681809724E+03  0.32681809728E+03  0.50400000000E-02 0. -1.
    5000001    1    1    2    0    0 -0.12014963080E+03  0.19671965075E+03 -0.17620500048E+03  0.34791774454E+03  0.19200000000E+03 0.  0.
   -5000001    1    1    2    0    0  0.12014963080E+03 -0.19671965075E+03  0.28269195758E+03  0.41220540712E+03  0.19200000000E+03 0.  0.
<mgrwt>
<rscale>  0 0.75262722E+03</rscale>
<asrwt>0</asrwt>
<pdfrwt beam="1">  1        1 0.61900722E-01 0.75262722E+03</pdfrwt>
<pdfrwt beam="2">  1       -1 0.46688299E-01 0.75262722E+03</pdfrwt>
<totfact> 0.27512094E+02</totfact>
</mgrwt>
</event>
<event>
 4    1  0.1454935E-005  0.4289118E+03  0.7818608E-02  0.1034204E+00
         -1   -1    0    0    0  501 -0.00000000000E+00  0.00000000000E+00  0.12864471125E+04  0.12864471125E+04  0.50400000000E-02 0. -1.
          1   -1    0    0  501    0  0.00000000000E+00 -0.00000000000E+00 -0.35750656377E+02  0.35750656732E+02  0.50400000000E-02 0.  1.
    5000001    1    1    2    0    0 -0.23532704951E+02  0.67451547465E+02  0.82089390882E+03  0.84606991969E+03  0.19200000000E+03 0.  0.
   -5000001    1    1    2    0    0  0.23532704951E+02 -0.67451547465E+02  0.42980254732E+03  0.47612784958E+03  0.19200000000E+03 0.  0.
<mgrwt>
<rscale>  0 0.42891178E+03</rscale>
<asrwt>0</asrwt>
<pdfrwt beam="1">  1        1 0.51072374E-02 0.42891178E+03</pdfrwt>
<pdfrwt beam="2">  1       -1 0.18377813E+00 0.42891178E+03</pdfrwt>
<totfact> 0.34661146E+02</totfact>
</mgrwt>
</event>
<event>
 4    1  0.1454935E-005  0.7757128E+03  0.7818608E-02  0.9595853E-01
          1   -1    0    0  501    0  0.00000000000E+00  0.00000000000E+00  0.54743824726E+03  0.54743824728E+03  0.50400000000E-02 0.  1.
         -1   -1    0    0    0  501 -0.00000000000E+00 -0.00000000000E+00 -0.27479372519E+03  0.27479372524E+03  0.50400000000E-02 0. -1.
    5000001    1    1    2    0    0  0.54017770696E+02  0.28976988029E+03 -0.36826587259E+02  0.35370142861E+03  0.19200000000E+03 0.  0.
   -5000001    1    1    2    0    0 -0.54017770696E+02 -0.28976988029E+03  0.30947110933E+03  0.46853054391E+03  0.19200000000E+03 0.  0.
<mgrwt>
<rscale>  0 0.77571282E+03</rscale>
<asrwt>0</asrwt>
<pdfrwt beam="1">  1        1 0.78205464E-01 0.77571282E+03</pdfrwt>
<pdfrwt beam="2">  1       -1 0.39256246E-01 0.77571282E+03</pdfrwt>
<totfact> 0.27580042E+02</totfact>
</mgrwt>
</event>
<event>
 4    1  0.1454935E-005  0.1107260E+04  0.7818608E-02  0.9198145E-01
         -1   -1    0    0    0  501 -0.00000000000E+00  0.00000000000E+00  0.21972062147E+03  0.21972062153E+03  0.50400000000E-02 0.  1.
          1   -1    0    0  501    0  0.00000000000E+00 -0.00000000000E+00 -0.13949812831E+04  0.13949812831E+04  0.50400000000E-02 0. -1.
    5000001    1    1    2    0    0  0.25620061195E+03 -0.41148484035E+03 -0.85921485358E+03  0.10050237271E+04  0.19200000000E+03 0.  0.
   -5000001    1    1    2    0    0 -0.25620061195E+03  0.41148484035E+03 -0.31604580804E+03  0.60967817754E+03  0.19200000000E+03 0.  0.
<mgrwt>
<rscale>  0 0.11072600E+04</rscale>
<asrwt>0</asrwt>
<pdfrwt beam="1">  1        1 0.19928304E+00 0.11072600E+04</pdfrwt>
<pdfrwt beam="2">  1       -1 0.31388661E-01 0.11072600E+04</pdfrwt>
<totfact> 0.85460534E+01</totfact>
</mgrwt>
</event>
<event>
 4    1  0.1454935E-005  0.7375962E+03  0.7818608E-02  0.9655013E-01
         -1   -1    0    0    0  501 -0.00000000000E+00  0.00000000000E+00  0.20417487387E+03  0.20417487393E+03  0.50400000000E-02 0. -1.
          1   -1    0    0  501    0  0.00000000000E+00 -0.00000000000E+00 -0.66615458272E+03  0.66615458274E+03  0.50400000000E-02 0.  1.
    5000001    1    1    2    0    0 -0.23944278878E+03  0.18003586368E+03 -0.11657529033E+03  0.37443231648E+03  0.19200000000E+03 0.  0.
   -5000001    1    1    2    0    0  0.23944278878E+03 -0.18003586368E+03 -0.34540441853E+03  0.49589714019E+03  0.19200000000E+03 0.  0.
<mgrwt>
<rscale>  0 0.73759617E+03</rscale>
<asrwt>0</asrwt>
<pdfrwt beam="1">  1        1 0.95164939E-01 0.73759617E+03</pdfrwt>
<pdfrwt beam="2">  1       -1 0.29167839E-01 0.73759617E+03</pdfrwt>
<totfact> 0.35445475E+02</totfact>
</mgrwt>
</event>
<event>
 4    1  0.1454935E-005  0.5130334E+03  0.7818608E-02  0.1010432E+00
         -1   -1    0    0    0  501 -0.00000000000E+00  0.00000000000E+00  0.26575400242E+03  0.26575400247E+03  0.50400000000E-02 0. -1.
          1   -1    0    0  501    0  0.00000000000E+00 -0.00000000000E+00 -0.24760047672E+03  0.24760047677E+03  0.50400000000E-02 0.  1.
    5000001    1    1    2    0    0  0.93525359882E+02  0.14047967010E+03  0.30427573520E+02  0.25743225882E+03  0.19200000000E+03 0.  0.
   -5000001    1    1    2    0    0 -0.93525359882E+02 -0.14047967010E+03 -0.12274047819E+02  0.25592222041E+03  0.19200000000E+03 0.  0.
<mgrwt>
<rscale>  0 0.51303340E+03</rscale>
<asrwt>0</asrwt>
<pdfrwt beam="1">  1        1 0.35371497E-01 0.51303340E+03</pdfrwt>
<pdfrwt beam="2">  1       -1 0.37964858E-01 0.51303340E+03</pdfrwt>
<totfact> 0.83473950E+02</totfact>
</mgrwt>
</event>
<event>
 4    1  0.1454935E-005  0.5266802E+03  0.7818608E-02  0.1007040E+00
         -1   -1    0    0    0  501 -0.00000000000E+00  0.00000000000E+00  0.10140727123E+03  0.10140727136E+03  0.50400000000E-02 0. -1.
          1   -1    0    0  501    0  0.00000000000E+00 -0.00000000000E+00 -0.68385626155E+03  0.68385626157E+03  0.50400000000E-02 0.  1.
    5000001    1    1    2    0    0 -0.16507689909E+03  0.50590796943E+02 -0.36832625410E+03  0.44982000934E+03  0.19200000000E+03 0.  0.
   -5000001    1    1    2    0    0  0.16507689909E+03 -0.50590796943E+02 -0.21412273622E+03  0.33544352358E+03  0.19200000000E+03 0.  0.
<mgrwt>
<rscale>  0 0.52668016E+03</rscale>
<asrwt>0</asrwt>
<pdfrwt beam="1">  1        1 0.97693749E-01 0.52668016E+03</pdfrwt>
<pdfrwt beam="2">  1       -1 0.14486753E-01 0.52668016E+03</pdfrwt>
<totfact> 0.11028758E+03</totfact>
</mgrwt>
</event>
<event>
 4    1  0.1454935E-005  0.6603142E+03  0.7818608E-02  0.9787616E-01
          1   -1    0    0  501    0  0.00000000000E+00  0.00000000000E+00  0.81166336647E+03  0.81166336649E+03  0.50400000000E-02 0.  1.
         -1   -1    0    0    0  501 -0.00000000000E+00 -0.00000000000E+00 -0.13429669636E+03  0.13429669645E+03  0.50400000000E-02 0. -1.
    5000001    1    1    2    0    0  0.23896355823E+03  0.10991016983E+03  0.26079621403E+03  0.41720797313E+03  0.19200000000E+03 0.  0.
   -5000001    1    1    2    0    0 -0.23896355823E+03 -0.10991016983E+03  0.41657045609E+03  0.52875208981E+03  0.19200000000E+03 0.  0.
<mgrwt>
<rscale>  0 0.66031419E+03</rscale>
<asrwt>0</asrwt>
<pdfrwt beam="1">  1        1 0.11595191E+00 0.66031419E+03</pdfrwt>
<pdfrwt beam="2">  1       -1 0.19185242E-01 0.66031419E+03</pdfrwt>
<totfact> 0.53770337E+02</totfact>
</mgrwt>
</event>
<event>
 4    1  0.1454935E-005  0.5104223E+03  0.7818608E-02  0.1011094E+00
         -1   -1    0    0    0  501 -0.00000000000E+00  0.00000000000E+00  0.20077558576E+03  0.20077558582E+03  0.50400000000E-02 0. -1.
          1   -1    0    0  501    0  0.00000000000E+00 -0.00000000000E+00 -0.32440559243E+03  0.32440559247E+03  0.50400000000E-02 0.  1.
    5000001    1    1    2    0    0 -0.91695402941E+02  0.12546871133E+03  0.42144030474E+01  0.24704697050E+03  0.19200000000E+03 0.  0.
   -5000001    1    1    2    0    0  0.91695402941E+02 -0.12546871133E+03 -0.12784440972E+03  0.27813420778E+03  0.19200000000E+03 0.  0.
<mgrwt>
<rscale>  0 0.51042227E+03</rscale>
<asrwt>0</asrwt>
<pdfrwt beam="1">  1        1 0.46343656E-01 0.51042227E+03</pdfrwt>
<pdfrwt beam="2">  1       -1 0.28682227E-01 0.51042227E+03</pdfrwt>
<totfact> 0.96509630E+02</totfact>
</mgrwt>
</event>
<event>
 4    1  0.1454935E-005  0.5662961E+03  0.7818608E-02  0.9977908E-01
         -1   -1    0    0    0  501 -0.00000000000E+00  0.00000000000E+00  0.92498325494E+02  0.92498325632E+02  0.50400000000E-02 0. -1.
          1   -1    0    0  501    0  0.00000000000E+00 -0.00000000000E+00 -0.86674900314E+03  0.86674900316E+03  0.50400000000E-02 0.  1.
    5000001    1    1    2    0    0  0.60066127012E+02  0.19627547058E+03 -0.32901624028E+03  0.43272125709E+03  0.19200000000E+03 0.  0.
   -5000001    1    1    2    0    0 -0.60066127012E+02 -0.19627547058E+03 -0.44523443737E+03  0.52652607170E+03  0.19200000000E+03 0.  0.
<mgrwt>
<rscale>  0 0.56629615E+03</rscale>
<asrwt>0</asrwt>
<pdfrwt beam="1">  1        1 0.12382128E+00 0.56629615E+03</pdfrwt>
<pdfrwt beam="2">  1       -1 0.13214047E-01 0.56629615E+03</pdfrwt>
<totfact> 0.89283792E+02</totfact>
</mgrwt>
</event>
<event>
 4    1  0.1454935E-005  0.4155265E+03  0.7818608E-02  0.1038532E+00
          1   -1    0    0  501    0  0.00000000000E+00  0.00000000000E+00  0.35534030982E+04  0.35534030982E+04  0.50400000000E-02 0.  1.
         -1   -1    0    0    0  501 -0.00000000000E+00 -0.00000000000E+00 -0.12147667095E+02  0.12147668141E+02  0.50400000000E-02 0. -1.
    5000001    1    1    2    0    0 -0.54742446907E+02  0.56909592336E+02  0.18404031901E+04  0.18520754141E+04  0.19200000000E+03 0.  0.
   -5000001    1    1    2    0    0  0.54742446907E+02 -0.56909592336E+02  0.17008522410E+04  0.17134753523E+04  0.19200000000E+03 0.  0.
<mgrwt>
<rscale>  0 0.41552646E+03</rscale>
<asrwt>0</asrwt>
<pdfrwt beam="1">  1        1 0.50762932E+00 0.41552646E+03</pdfrwt>
<pdfrwt beam="2">  1       -1 0.17353801E-02 0.41552646E+03</pdfrwt>
<totfact> 0.36383705E+02</totfact>
</mgrwt>
</event>
<event>
 4    1  0.1454935E-005  0.7404431E+03  0.7818608E-02  0.9650464E-01
          1   -1    0    0  501    0  0.00000000000E+00  0.00000000000E+00  0.13875501243E+04  0.13875501243E+04  0.50400000000E-02 0.  1.
         -1   -1    0    0    0  501 -0.00000000000E+00 -0.00000000000E+00 -0.98781281849E+02  0.98781281978E+02  0.50400000000E-02 0. -1.
    5000001    1    1    2    0    0  0.17487126710E+03 -0.21446119331E+03  0.95293255046E+03  0.10107017410E+04  0.19200000000E+03 0.  0.
   -5000001    1    1    2    0    0 -0.17487126710E+03  0.21446119331E+03  0.33583629195E+03  0.47562966527E+03  0.19200000000E+03 0.  0.
<mgrwt>
<rscale>  0 0.74044306E+03</rscale>
<asrwt>0</asrwt>
<pdfrwt beam="1">  1        1 0.19822145E+00 0.74044306E+03</pdfrwt>
<pdfrwt beam="2">  1       -1 0.14111612E-01 0.74044306E+03</pdfrwt>
<totfact> 0.33980835E+02</totfact>
</mgrwt>
</event>
<event>
 4    1  0.1454935E-005  0.4905995E+03  0.7818608E-02  0.1016262E+00
          1   -1    0    0  501    0  0.00000000000E+00  0.00000000000E+00  0.31606830626E+03  0.31606830630E+03  0.50400000000E-02 0.  1.
         -1   -1    0    0    0  501 -0.00000000000E+00 -0.00000000000E+00 -0.19037648006E+03  0.19037648013E+03  0.50400000000E-02 0. -1.
    5000001    1    1    2    0    0 -0.73475064699E+02  0.13368734006E+03  0.69132056092E+02  0.25478251746E+03  0.19200000000E+03 0.  0.
   -5000001    1    1    2    0    0  0.73475064699E+02 -0.13368734006E+03  0.56559770110E+02  0.25166226896E+03  0.19200000000E+03 0.  0.
<mgrwt>
<rscale>  0 0.49059952E+03</rscale>
<asrwt>0</asrwt>
<pdfrwt beam="1">  1        1 0.45152615E-01 0.49059952E+03</pdfrwt>
<pdfrwt beam="2">  1       -1 0.27196640E-01 0.49059952E+03</pdfrwt>
<totfact> 0.10931509E+03</totfact>
</mgrwt>
</event>
<event>
 4    1  0.1454935E-005  0.4078251E+03  0.7818608E-02  0.1041103E+00
          1   -1    0    0  501    0  0.00000000000E+00  0.00000000000E+00  0.40118590485E+03  0.40118590488E+03  0.50400000000E-02 0.  1.
         -1   -1    0    0    0  501 -0.00000000000E+00 -0.00000000000E+00 -0.10364354754E+03  0.10364354766E+03  0.50400000000E-02 0. -1.
    5000001    1    1    2    0    0  0.64523088013E+02 -0.33266467292E+01  0.17759054152E+03  0.26940062343E+03  0.19200000000E+03 0.  0.
   -5000001    1    1    2    0    0 -0.64523088013E+02  0.33266467292E+01  0.11995181579E+03  0.23542882911E+03  0.19200000000E+03 0.  0.
<mgrwt>
<rscale>  0 0.40782511E+03</rscale>
<asrwt>0</asrwt>
<pdfrwt beam="1">  1        1 0.57312272E-01 0.40782511E+03</pdfrwt>
<pdfrwt beam="2">  1       -1 0.14806221E-01 0.40782511E+03</pdfrwt>
<totfact> 0.21919120E+03</totfact>
</mgrwt>
</event>
<event>
 4    1  0.1454935E-005  0.1204999E+04  0.7818608E-02  0.9108492E-01
          1   -1    0    0  501    0  0.00000000000E+00  0.00000000000E+00  0.24756418033E+04  0.24756418033E+04  0.50400000000E-02 0. -1.
         -1   -1    0    0    0  501 -0.00000000000E+00 -0.00000000000E+00 -0.14663104361E+03  0.14663104370E+03  0.50400000000E-02 0.  1.
    5000001    1    1    2    0    0 -0.75810692339E+02 -0.52112262430E+03  0.68364820218E+03  0.88405594561E+03  0.19200000000E+03 0.  0.
   -5000001    1    1    2    0    0  0.75810692339E+02  0.52112262430E+03  0.16453625575E+04  0.17382169013E+04  0.19200000000E+03 0.  0.
<mgrwt>
<rscale>  0 0.12049995E+04</rscale>
<asrwt>0</asrwt>
<pdfrwt beam="1">  1        1 0.35366309E+00 0.12049995E+04</pdfrwt>
<pdfrwt beam="2">  1       -1 0.20947294E-01 0.12049995E+04</pdfrwt>
<totfact> 0.35074369E+01</totfact>
</mgrwt>
</event>
<event>
 4    1  0.1454935E-005  0.1085810E+04  0.7818608E-02  0.9219134E-01
         -1   -1    0    0    0  501 -0.00000000000E+00  0.00000000000E+00  0.67290679249E+03  0.67290679251E+03  0.50400000000E-02 0.  1.
          1   -1    0    0  501    0  0.00000000000E+00 -0.00000000000E+00 -0.43801841840E+03  0.43801841843E+03  0.50400000000E-02 0. -1.
    5000001    1    1    2    0    0  0.46063241309E+03  0.21063479326E+03  0.15478962508E+03  0.56335873487E+03  0.19200000000E+03 0.  0.
   -5000001    1    1    2    0    0 -0.46063241309E+03 -0.21063479326E+03  0.80098749005E+02  0.54756647606E+03  0.19200000000E+03 0.  0.
<mgrwt>
<rscale>  0 0.10858095E+04</rscale>
<asrwt>0</asrwt>
<pdfrwt beam="1">  1        1 0.62574061E-01 0.10858095E+04</pdfrwt>
<pdfrwt beam="2">  1       -1 0.96129540E-01 0.10858095E+04</pdfrwt>
<totfact> 0.61084059E+01</totfact>
</mgrwt>
</event>
<event>
 4    1  0.1454935E-005  0.6402033E+03  0.7818608E-02  0.9825338E-01
         -1   -1    0    0    0  501 -0.00000000000E+00  0.00000000000E+00  0.33142969203E+03  0.33142969207E+03  0.50400000000E-02 0. -1.
          1   -1    0    0  501    0  0.00000000000E+00 -0.00000000000E+00 -0.30916076723E+03  0.30916076728E+03  0.50400000000E-02 0.  1.
    5000001    1    1    2    0    0  0.12841645356E+02  0.24995615674E+03 -0.43286570544E+02  0.31840338462E+03  0.19200000000E+03 0.  0.
   -5000001    1    1    2    0    0 -0.12841645356E+02 -0.24995615674E+03  0.65555495338E+02  0.32218707472E+03  0.19200000000E+03 0.  0.
<mgrwt>
<rscale>  0 0.64020327E+03</rscale>
<asrwt>0</asrwt>
<pdfrwt beam="1">  1        1 0.44165824E-01 0.64020327E+03</pdfrwt>
<pdfrwt beam="2">  1       -1 0.47347099E-01 0.64020327E+03</pdfrwt>
<totfact> 0.41802907E+02</totfact>
</mgrwt>
</event>
<event>
 4    1  0.1454935E-005  0.6147070E+03  0.7818608E-02  0.9875355E-01
          1   -1    0    0  501    0  0.00000000000E+00  0.00000000000E+00  0.11517199452E+04  0.11517199452E+04  0.50400000000E-02 0.  1.
         -1   -1    0    0    0  501 -0.00000000000E+00 -0.00000000000E+00 -0.82021833669E+02  0.82021833824E+02  0.50400000000E-02 0. -1.
    5000001    1    1    2    0    0 -0.12666966593E+03 -0.19791736037E+03  0.43681800608E+03  0.53187447413E+03  0.19200000000E+03 0.  0.
   -5000001    1    1    2    0    0  0.12666966593E+03  0.19791736037E+03  0.63288010542E+03  0.70186730487E+03  0.19200000000E+03 0.  0.
<mgrwt>
<rscale>  0 0.61470703E+03</rscale>
<asrwt>0</asrwt>
<pdfrwt beam="1">  1        1 0.16453141E+00 0.61470703E+03</pdfrwt>
<pdfrwt beam="2">  1       -1 0.11717405E-01 0.61470703E+03</pdfrwt>
<totfact> 0.66506692E+02</totfact>
</mgrwt>
</event>
<event>
 4    1  0.1454935E-005  0.7978812E+03  0.7818608E-02  0.9563089E-01
         -1   -1    0    0    0  501 -0.00000000000E+00  0.00000000000E+00  0.10858307412E+03  0.10858307424E+03  0.50400000000E-02 0. -1.
          1   -1    0    0  501    0  0.00000000000E+00 -0.00000000000E+00 -0.14657313718E+04  0.14657313718E+04  0.50400000000E-02 0.  1.
    5000001    1    1    2    0    0  0.15439032426E+03  0.67938466877E+02 -0.12829981443E+04  0.13082049709E+04  0.19200000000E+03 0.  0.
   -5000001    1    1    2    0    0 -0.15439032426E+03 -0.67938466877E+02 -0.74150153297E+02  0.26610947511E+03  0.19200000000E+03 0.  0.
<mgrwt>
<rscale>  0 0.79788124E+03</rscale>
<asrwt>0</asrwt>
<pdfrwt beam="1">  1        1 0.20939018E+00 0.79788124E+03</pdfrwt>
<pdfrwt beam="2">  1       -1 0.15511869E-01 0.79788124E+03</pdfrwt>
<totfact> 0.25812305E+02</totfact>
</mgrwt>
</event>
<event>
 4    1  0.1454935E-005  0.5054528E+03  0.7818608E-02  0.1012365E+00
         -1   -1    0    0    0  501 -0.00000000000E+00  0.00000000000E+00  0.40630905112E+03  0.40630905115E+03  0.50400000000E-02 0. -1.
          1   -1    0    0  501    0  0.00000000000E+00 -0.00000000000E+00 -0.15719717667E+03  0.15719717675E+03  0.50400000000E-02 0.  1.
    5000001    1    1    2    0    0 -0.98377714354E+02  0.83027867218E+02  0.10672416794E+02  0.23140808520E+03  0.19200000000E+03 0.  0.
   -5000001    1    1    2    0    0  0.98377714354E+02 -0.83027867218E+02  0.23843945765E+03  0.33209814270E+03  0.19200000000E+03 0.  0.
<mgrwt>
<rscale>  0 0.50545281E+03</rscale>
<asrwt>0</asrwt>
<pdfrwt beam="1">  1        1 0.22456740E-01 0.50545281E+03</pdfrwt>
<pdfrwt beam="2">  1       -1 0.58044150E-01 0.50545281E+03</pdfrwt>
<totfact> 0.68185363E+02</totfact>
</mgrwt>
</event>
<event>
 4    1  0.1454935E-005  0.7619818E+03  0.7818608E-02  0.9616738E-01
          1   -1    0    0  501    0  0.00000000000E+00  0.00000000000E+00  0.31892814407E+04  0.31892814407E+04  0.50400000000E-02 0.  1.
         -1   -1    0    0    0  501 -0.00000000000E+00 -0.00000000000E+00 -0.45513089490E+02  0.45513089769E+02  0.50400000000E-02 0. -1.
    5000001    1    1    2    0    0 -0.20357072399E+03  0.20729165865E+03  0.22278962502E+04  0.22549493504E+04  0.19200000000E+03 0.  0.
   -5000001    1    1    2    0    0  0.20357072399E+03 -0.20729165865E+03  0.91587210100E+03  0.97984518002E+03  0.19200000000E+03 0.  0.
<mgrwt>
<rscale>  0 0.76198176E+03</rscale>
<asrwt>0</asrwt>
<pdfrwt beam="1">  1        1 0.45561171E+00 0.76198176E+03</pdfrwt>
<pdfrwt beam="2">  1       -1 0.65018688E-02 0.76198176E+03</pdfrwt>
<totfact> 0.83334141E+01</totfact>
</mgrwt>
</event>
<event>
 4    1  0.1454935E-005  0.1100643E+04  0.7818608E-02  0.9204565E-01
          1   -1    0    0  501    0  0.00000000000E+00  0.00000000000E+00  0.11605675929E+04  0.11605675929E+04  0.50400000000E-02 0.  1.
         -1   -1    0    0    0  501 -0.00000000000E+00 -0.00000000000E+00 -0.26095319605E+03  0.26095319610E+03  0.50400000000E-02 0. -1.
    5000001    1    1    2    0    0  0.38307891067E+03  0.22844527070E+03  0.78424565820E+03  0.92241094199E+03  0.19200000000E+03 0.  0.
   -5000001    1    1    2    0    0 -0.38307891067E+03 -0.22844527070E+03  0.11536873863E+03  0.49910984699E+03  0.19200000000E+03 0.  0.
<mgrwt>
<rscale>  0 0.11006431E+04</rscale>
<asrwt>0</asrwt>
<pdfrwt beam="1">  1        1 0.16579537E+00 0.11006431E+04</pdfrwt>
<pdfrwt beam="2">  1       -1 0.37279027E-01 0.11006431E+04</pdfrwt>
<totfact> 0.90893515E+01</totfact>
</mgrwt>
</event>
<event>
 4    1  0.1454935E-005  0.5501908E+03  0.7818608E-02  0.1001450E+00
          1   -1    0    0  501    0  0.00000000000E+00  0.00000000000E+00  0.34964195748E+03  0.34964195752E+03  0.50400000000E-02 0.  1.
         -1   -1    0    0    0  501 -0.00000000000E+00 -0.00000000000E+00 -0.21644275565E+03  0.21644275571E+03  0.50400000000E-02 0. -1.
    5000001    1    1    2    0    0 -0.12614727626E+03 -0.14196887947E+03  0.12691651269E+02  0.27035786665E+03  0.19200000000E+03 0.  0.
   -5000001    1    1    2    0    0  0.12614727626E+03  0.14196887947E+03  0.12050755056E+03  0.29572684658E+03  0.19200000000E+03 0.  0.
<mgrwt>
<rscale>  0 0.55019076E+03</rscale>
<asrwt>0</asrwt>
<pdfrwt beam="1">  1        1 0.49948851E-01 0.55019076E+03</pdfrwt>
<pdfrwt beam="2">  1       -1 0.30920393E-01 0.55019076E+03</pdfrwt>
<totfact> 0.76923611E+02</totfact>
</mgrwt>
</event>
<event>
 4    1  0.1454935E-005  0.4432841E+03  0.7818608E-02  0.1029744E+00
          1   -1    0    0  501    0  0.00000000000E+00  0.00000000000E+00  0.15038801958E+03  0.15038801967E+03  0.50400000000E-02 0.  1.
         -1   -1    0    0    0  501 -0.00000000000E+00 -0.00000000000E+00 -0.32665633007E+03  0.32665633011E+03  0.50400000000E-02 0. -1.
    5000001    1    1    2    0    0  0.41510018604E+02  0.10265065898E+03 -0.87080201220E+02  0.23813273794E+03  0.19200000000E+03 0.  0.
   -5000001    1    1    2    0    0 -0.41510018604E+02 -0.10265065898E+03 -0.89188109268E+02  0.23891161183E+03  0.19200000000E+03 0.  0.
<mgrwt>
<rscale>  0 0.44328410E+03</rscale>
<asrwt>0</asrwt>
<pdfrwt beam="1">  1        1 0.21484003E-01 0.44328410E+03</pdfrwt>
<pdfrwt beam="2">  1       -1 0.46665190E-01 0.44328410E+03</pdfrwt>
<totfact> 0.10916956E+03</totfact>
</mgrwt>
</event>
<event>
 4    1  0.1454935E-005  0.8557984E+03  0.7818608E-02  0.9482587E-01
         -1   -1    0    0    0  501 -0.00000000000E+00  0.00000000000E+00  0.10445375962E+03  0.10445375974E+03  0.50400000000E-02 0. -1.
          1   -1    0    0  501    0  0.00000000000E+00 -0.00000000000E+00 -0.17529071158E+04  0.17529071158E+04  0.50400000000E-02 0.  1.
    5000001    1    1    2    0    0 -0.58375590410E+02 -0.27511607532E+03 -0.13865762074E+04  0.14277794450E+04  0.19200000000E+03 0.  0.
   -5000001    1    1    2    0    0  0.58375590410E+02  0.27511607532E+03 -0.26187714872E+03  0.42958143056E+03  0.19200000000E+03 0.  0.
<mgrwt>
<rscale>  0 0.85579843E+03</rscale>
<asrwt>0</asrwt>
<pdfrwt beam="1">  1        1 0.25041528E+00 0.85579843E+03</pdfrwt>
<pdfrwt beam="2">  1       -1 0.14921967E-01 0.85579843E+03</pdfrwt>
<totfact> 0.17956159E+02</totfact>
</mgrwt>
</event>
<event>
 4    1  0.1454935E-005  0.6037864E+03  0.7818608E-02  0.9897581E-01
          1   -1    0    0  501    0  0.00000000000E+00  0.00000000000E+00  0.17574323128E+03  0.17574323135E+03  0.50400000000E-02 0.  1.
         -1   -1    0    0    0  501 -0.00000000000E+00 -0.00000000000E+00 -0.51859468157E+03  0.51859468160E+03  0.50400000000E-02 0. -1.
    5000001    1    1    2    0    0 -0.17888526920E+03 -0.10754776014E+03 -0.52421352349E+02  0.28840675864E+03  0.19200000000E+03 0.  0.
   -5000001    1    1    2    0    0  0.17888526920E+03  0.10754776014E+03 -0.29043009794E+03  0.40593115431E+03  0.19200000000E+03 0.  0.
<mgrwt>
<rscale>  0 0.60378640E+03</rscale>
<asrwt>0</asrwt>
<pdfrwt beam="1">  1        1 0.25106176E-01 0.60378640E+03</pdfrwt>
<pdfrwt beam="2">  1       -1 0.74084954E-01 0.60378640E+03</pdfrwt>
<totfact> 0.36096156E+02</totfact>
</mgrwt>
</event>
<event>
 4    1  0.1454935E-005  0.1004630E+04  0.7818608E-02  0.9303481E-01
          1   -1    0    0  501    0  0.00000000000E+00  0.00000000000E+00  0.24221135563E+04  0.24221135563E+04  0.50400000000E-02 0.  1.
         -1   -1    0    0    0  501 -0.00000000000E+00 -0.00000000000E+00 -0.10417364456E+03  0.10417364468E+03  0.50400000000E-02 0. -1.
    5000001    1    1    2    0    0  0.15458833494E+03  0.43750977147E+03  0.11287896757E+04  0.12354523404E+04  0.19200000000E+03 0.  0.
   -5000001    1    1    2    0    0 -0.15458833494E+03 -0.43750977147E+03  0.11891502360E+04  0.12908348606E+04  0.19200000000E+03 0.  0.
<mgrwt>
<rscale>  0 0.10046301E+04</rscale>
<asrwt>0</asrwt>
<pdfrwt beam="1">  1        1 0.34601615E+00 0.10046301E+04</pdfrwt>
<pdfrwt beam="2">  1       -1 0.14881952E-01 0.10046301E+04</pdfrwt>
<totfact> 0.67967660E+01</totfact>
</mgrwt>
</event>
<event>
 4    1  0.1454935E-005  0.4708603E+03  0.7818608E-02  0.1021678E+00
          1   -1    0    0  501    0  0.00000000000E+00  0.00000000000E+00  0.10620688506E+03  0.10620688518E+03  0.50400000000E-02 0.  1.
         -1   -1    0    0    0  501 -0.00000000000E+00 -0.00000000000E+00 -0.52188097721E+03  0.52188097723E+03  0.50400000000E-02 0. -1.
    5000001    1    1    2    0    0  0.12365651330E+03 -0.21596102804E+02 -0.27849716131E+03  0.36080741927E+03  0.19200000000E+03 0.  0.
   -5000001    1    1    2    0    0 -0.12365651330E+03  0.21596102804E+02 -0.13717693083E+03  0.26728044315E+03  0.19200000000E+03 0.  0.
<mgrwt>
<rscale>  0 0.47086029E+03</rscale>
<asrwt>0</asrwt>
<pdfrwt beam="1">  1        1 0.15172412E-01 0.47086029E+03</pdfrwt>
<pdfrwt beam="2">  1       -1 0.74554424E-01 0.47086029E+03</pdfrwt>
<totfact> 0.69384834E+02</totfact>
</mgrwt>
</event>
<event>
 4    1  0.1454935E-005  0.8697558E+03  0.7818608E-02  0.9464198E-01
          1   -1    0    0  501    0  0.00000000000E+00  0.00000000000E+00  0.14483594262E+03  0.14483594271E+03  0.50400000000E-02 0. -1.
         -1   -1    0    0    0  501 -0.00000000000E+00 -0.00000000000E+00 -0.13057448417E+04  0.13057448417E+04  0.50400000000E-02 0.  1.
    5000001    1    1    2    0    0  0.13174914144E+03  0.35770754950E+03 -0.71941609834E+03  0.83650227124E+03  0.19200000000E+03 0.  0.
   -5000001    1    1    2    0    0 -0.13174914144E+03 -0.35770754950E+03 -0.44149280075E+03  0.61407851319E+03  0.19200000000E+03 0.  0.
<mgrwt>
<rscale>  0 0.86975579E+03</rscale>
<asrwt>0</asrwt>
<pdfrwt beam="1">  1        1 0.20690850E-01 0.86975579E+03</pdfrwt>
<pdfrwt beam="2">  1       -1 0.18653497E+00 0.86975579E+03</pdfrwt>
<totfact> 0.47475823E+01</totfact>
</mgrwt>
</event>
<event>
 4    1  0.1454935E-005  0.5152042E+03  0.7818608E-02  0.1009885E+00
         -1   -1    0    0    0  501 -0.00000000000E+00  0.00000000000E+00  0.19743059468E+03  0.19743059474E+03  0.50400000000E-02 0.  1.
          1   -1    0    0  501    0  0.00000000000E+00 -0.00000000000E+00 -0.33611223889E+03  0.33611223893E+03  0.50400000000E-02 0. -1.
    5000001    1    1    2    0    0  0.10102696173E+03  0.31773623476E+02 -0.20935244546E+03  0.30316407532E+03  0.19200000000E+03 0.  0.
   -5000001    1    1    2    0    0 -0.10102696173E+03 -0.31773623476E+02  0.70670801252E+02  0.23037875834E+03  0.19200000000E+03 0.  0.
<mgrwt>
<rscale>  0 0.51520419E+03</rscale>
<asrwt>0</asrwt>
<pdfrwt beam="1">  1        1 0.48016034E-01 0.51520419E+03</pdfrwt>
<pdfrwt beam="2">  1       -1 0.28204371E-01 0.51520419E+03</pdfrwt>
<totfact> 0.94907264E+02</totfact>
</mgrwt>
</event>
<event>
 4    1  0.1454935E-005  0.5123949E+03  0.7818608E-02  0.1010593E+00
          1   -1    0    0  501    0  0.00000000000E+00  0.00000000000E+00  0.45172986804E+03  0.45172986807E+03  0.50400000000E-02 0.  1.
         -1   -1    0    0    0  501 -0.00000000000E+00 -0.00000000000E+00 -0.14530174573E+03  0.14530174582E+03  0.50400000000E-02 0. -1.
    5000001    1    1    2    0    0 -0.11312325893E+03  0.12638440648E+03  0.15531414783E+03  0.29959368222E+03  0.19200000000E+03 0.  0.
   -5000001    1    1    2    0    0  0.11312325893E+03 -0.12638440648E+03  0.15111397447E+03  0.29743793167E+03  0.19200000000E+03 0.  0.
<mgrwt>
<rscale>  0 0.51239492E+03</rscale>
<asrwt>0</asrwt>
<pdfrwt beam="1">  1        1 0.64532839E-01 0.51239492E+03</pdfrwt>
<pdfrwt beam="2">  1       -1 0.20757392E-01 0.51239492E+03</pdfrwt>
<totfact> 0.10835496E+03</totfact>
</mgrwt>
</event>
<event>
 4    1  0.1454935E-005  0.8571499E+03  0.7818608E-02  0.9480790E-01
         -1   -1    0    0    0  501 -0.00000000000E+00  0.00000000000E+00  0.16103036428E+03  0.16103036436E+03  0.50400000000E-02 0. -1.
          1   -1    0    0  501    0  0.00000000000E+00 -0.00000000000E+00 -0.11406327545E+04  0.11406327545E+04  0.50400000000E-02 0.  1.
    5000001    1    1    2    0    0 -0.15694214567E+03 -0.32033674528E+03 -0.27738223824E+03  0.49096982957E+03  0.19200000000E+03 0.  0.
   -5000001    1    1    2    0    0  0.15694214567E+03  0.32033674528E+03 -0.70222015199E+03  0.81069328930E+03  0.19200000000E+03 0.  0.
<mgrwt>
<rscale>  0 0.85714995E+03</rscale>
<asrwt>0</asrwt>
<pdfrwt beam="1">  1        1 0.16294753E+00 0.85714995E+03</pdfrwt>
<pdfrwt beam="2">  1       -1 0.23004338E-01 0.85714995E+03</pdfrwt>
<totfact> 0.22137448E+02</totfact>
</mgrwt>
</event>
<event>
 4    1  0.1454935E-005  0.4944967E+03  0.7818608E-02  0.1015225E+00
          1   -1    0    0  501    0  0.00000000000E+00  0.00000000000E+00  0.70281992801E+02  0.70281992981E+02  0.50400000000E-02 0.  1.
         -1   -1    0    0    0  501 -0.00000000000E+00 -0.00000000000E+00 -0.86980683616E+03  0.86980683618E+03  0.50400000000E-02 0. -1.
    5000001    1    1    2    0    0  0.75708724419E+02 -0.99110648582E+02 -0.22230671666E+03  0.31912224599E+03  0.19200000000E+03 0.  0.
   -5000001    1    1    2    0    0 -0.75708724419E+02  0.99110648582E+02 -0.57721812670E+03  0.62096658317E+03  0.19200000000E+03 0.  0.
<mgrwt>
<rscale>  0 0.49449675E+03</rscale>
<asrwt>0</asrwt>
<pdfrwt beam="1">  1        1 0.10040285E-01 0.49449675E+03</pdfrwt>
<pdfrwt beam="2">  1       -1 0.12425811E+00 0.49449675E+03</pdfrwt>
<totfact> 0.38633746E+02</totfact>
</mgrwt>
</event>
<event>
 4    1  0.1454935E-005  0.5813237E+03  0.7818608E-02  0.9944929E-01
         -1   -1    0    0    0  501 -0.00000000000E+00  0.00000000000E+00  0.68348198130E+03  0.68348198132E+03  0.50400000000E-02 0. -1.
          1   -1    0    0  501    0  0.00000000000E+00 -0.00000000000E+00 -0.12360870569E+03  0.12360870580E+03  0.50400000000E-02 0.  1.
    5000001    1    1    2    0    0  0.91776626819E+02 -0.17700665952E+03  0.15680158551E+03  0.31812740209E+03  0.19200000000E+03 0.  0.
   -5000001    1    1    2    0    0 -0.91776626819E+02  0.17700665952E+03  0.40307169010E+03  0.48896328503E+03  0.19200000000E+03 0.  0.
<mgrwt>
<rscale>  0 0.58132374E+03</rscale>
<asrwt>0</asrwt>
<pdfrwt beam="1">  1        1 0.17658387E-01 0.58132374E+03</pdfrwt>
<pdfrwt beam="2">  1       -1 0.97640282E-01 0.58132374E+03</pdfrwt>
<totfact> 0.31665818E+02</totfact>
</mgrwt>
</event>
<event>
 4    1  0.1454935E-005  0.1214363E+04  0.7818608E-02  0.9100377E-01
          1   -1    0    0  501    0  0.00000000000E+00  0.00000000000E+00  0.18736470568E+03  0.18736470575E+03  0.50400000000E-02 0. -1.
         -1   -1    0    0    0  501 -0.00000000000E+00 -0.00000000000E+00 -0.19676553729E+04  0.19676553729E+04  0.50400000000E-02 0.  1.
    5000001    1    1    2    0    0  0.95418080915E+02 -0.53444137933E+03 -0.54845584787E+03  0.79523582362E+03  0.19200000000E+03 0.  0.
   -5000001    1    1    2    0    0 -0.95418080915E+02  0.53444137933E+03 -0.12318348193E+04  0.13597842550E+04  0.19200000000E+03 0.  0.
<mgrwt>
<rscale>  0 0.12143627E+04</rscale>
<asrwt>0</asrwt>
<pdfrwt beam="1">  1        1 0.26766388E-01 0.12143627E+04</pdfrwt>
<pdfrwt beam="2">  1       -1 0.28109361E+00 0.12143627E+04</pdfrwt>
<totfact> 0.77726773E+00</totfact>
</mgrwt>
</event>
<event>
 4    1  0.1454935E-005  0.5947450E+03  0.7818608E-02  0.9916369E-01
          1   -1    0    0  501    0  0.00000000000E+00  0.00000000000E+00  0.12839695980E+03  0.12839695990E+03  0.50400000000E-02 0. -1.
         -1   -1    0    0    0  501 -0.00000000000E+00 -0.00000000000E+00 -0.68872669692E+03  0.68872669694E+03  0.50400000000E-02 0.  1.
    5000001    1    1    2    0    0 -0.22393586925E+02 -0.12311067833E+03 -0.19815329043E+02  0.23003121336E+03  0.19200000000E+03 0.  0.
   -5000001    1    1    2    0    0  0.22393586925E+02  0.12311067833E+03 -0.54051440808E+03  0.58709244348E+03  0.19200000000E+03 0.  0.
<mgrwt>
<rscale>  0 0.59474503E+03</rscale>
<asrwt>0</asrwt>
<pdfrwt beam="1">  1        1 0.18342423E-01 0.59474503E+03</pdfrwt>
<pdfrwt beam="2">  1       -1 0.98389526E-01 0.59474503E+03</pdfrwt>
<totfact> 0.29580616E+02</totfact>
</mgrwt>
</event>
<event>
 4    1  0.1454935E-005  0.4691468E+03  0.7818608E-02  0.1022161E+00
         -1   -1    0    0    0  501 -0.00000000000E+00  0.00000000000E+00  0.14530580311E+03  0.14530580320E+03  0.50400000000E-02 0.  1.
          1   -1    0    0  501    0  0.00000000000E+00 -0.00000000000E+00 -0.37868186277E+03  0.37868186280E+03  0.50400000000E-02 0. -1.
    5000001    1    1    2    0    0  0.56470370798E+02 -0.95185893844E+02 -0.20256131219E+03  0.30024047422E+03  0.19200000000E+03 0.  0.
   -5000001    1    1    2    0    0 -0.56470370798E+02  0.95185893844E+02 -0.30814747463E+02  0.22374719177E+03  0.19200000000E+03 0.  0.
<mgrwt>
<rscale>  0 0.46914677E+03</rscale>
<asrwt>0</asrwt>
<pdfrwt beam="1">  1        1 0.54097409E-01 0.46914677E+03</pdfrwt>
<pdfrwt beam="2">  1       -1 0.20757972E-01 0.46914677E+03</pdfrwt>
<totfact> 0.13638575E+03</totfact>
</mgrwt>
</event>
<event>
 4    1  0.1454935E-005  0.8378503E+03  0.7818608E-02  0.9506791E-01
         -1   -1    0    0    0  501 -0.00000000000E+00  0.00000000000E+00  0.29945011998E+03  0.29945012002E+03  0.50400000000E-02 0. -1.
          1   -1    0    0  501    0  0.00000000000E+00 -0.00000000000E+00 -0.58606849174E+03  0.58606849176E+03  0.50400000000E-02 0.  1.
    5000001    1    1    2    0    0  0.17273122184E+03  0.25822061284E+03 -0.36021794906E+03  0.51296679300E+03  0.19200000000E+03 0.  0.
   -5000001    1    1    2    0    0 -0.17273122184E+03 -0.25822061284E+03  0.73599577301E+02  0.37255181878E+03  0.19200000000E+03 0.  0.
<mgrwt>
<rscale>  0 0.83785030E+03</rscale>
<asrwt>0</asrwt>
<pdfrwt beam="1">  1        1 0.83724070E-01 0.83785030E+03</pdfrwt>
<pdfrwt beam="2">  1       -1 0.42778589E-01 0.83785030E+03</pdfrwt>
<totfact> 0.21376326E+02</totfact>
</mgrwt>
</event>
<event>
 4    1  0.1454935E-005  0.7192736E+03  0.7818608E-02  0.9684828E-01
         -1   -1    0    0    0  501 -0.00000000000E+00  0.00000000000E+00  0.14681604310E+03  0.14681604319E+03  0.50400000000E-02 0. -1.
          1   -1    0    0  501    0  0.00000000000E+00 -0.00000000000E+00 -0.88095702279E+03  0.88095702281E+03  0.50400000000E-02 0.  1.
    5000001    1    1    2    0    0 -0.11717053673E+03 -0.21702387213E+03 -0.11287678897E+03  0.33231530997E+03  0.19200000000E+03 0.  0.
   -5000001    1    1    2    0    0  0.11717053673E+03  0.21702387213E+03 -0.62126419072E+03  0.69545775603E+03  0.19200000000E+03 0.  0.
<mgrwt>
<rscale>  0 0.71927359E+03</rscale>
<asrwt>0</asrwt>
<pdfrwt beam="1">  1        1 0.12585100E+00 0.71927359E+03</pdfrwt>
<pdfrwt beam="2">  1       -1 0.20973721E-01 0.71927359E+03</pdfrwt>
<totfact> 0.40638114E+02</totfact>
</mgrwt>
</event>
<event>
 4    1  0.1454935E-005  0.4408177E+03  0.7818608E-02  0.1030496E+00
         -1   -1    0    0    0  501 -0.00000000000E+00  0.00000000000E+00  0.57040498123E+02  0.57040498346E+02  0.50400000000E-02 0.  1.
          1   -1    0    0  501    0  0.00000000000E+00 -0.00000000000E+00 -0.85167669803E+03  0.85167669804E+03  0.50400000000E-02 0. -1.
    5000001    1    1    2    0    0  0.10801611218E+03  0.22505961832E+01 -0.38371926085E+03  0.44246696693E+03  0.19200000000E+03 0.  0.
   -5000001    1    1    2    0    0 -0.10801611218E+03 -0.22505961832E+01 -0.41091693905E+03  0.46625022946E+03  0.19200000000E+03 0.  0.
<mgrwt>
<rscale>  0 0.44081771E+03</rscale>
<asrwt>0</asrwt>
<pdfrwt beam="1">  1        1 0.12166809E+00 0.44081771E+03</pdfrwt>
<pdfrwt beam="2">  1       -1 0.81486431E-02 0.44081771E+03</pdfrwt>
<totfact> 0.19685088E+03</totfact>
</mgrwt>
</event>
<event>
 4    1  0.1454935E-005  0.6644600E+03  0.7818608E-02  0.9780018E-01
         -1   -1    0    0    0  501 -0.00000000000E+00  0.00000000000E+00  0.80990212839E+02  0.80990212996E+02  0.50400000000E-02 0.  1.
          1   -1    0    0  501    0  0.00000000000E+00 -0.00000000000E+00 -0.13628410384E+04  0.13628410384E+04  0.50400000000E-02 0. -1.
    5000001    1    1    2    0    0 -0.12585996775E+03  0.19324192930E+03 -0.95074730817E+03  0.99697924688E+03  0.19200000000E+03 0.  0.
   -5000001    1    1    2    0    0  0.12585996775E+03 -0.19324192930E+03 -0.33110351741E+03  0.44685200454E+03  0.19200000000E+03 0.  0.
<mgrwt>
<rscale>  0 0.66446004E+03</rscale>
<asrwt>0</asrwt>
<pdfrwt beam="1">  1        1 0.19469156E+00 0.66446004E+03</pdfrwt>
<pdfrwt beam="2">  1       -1 0.11570031E-01 0.66446004E+03</pdfrwt>
<totfact> 0.48738669E+02</totfact>
</mgrwt>
</event>
<event>
 4    1  0.1454935E-005  0.1058405E+04  0.7818608E-02  0.9246709E-01
         -1   -1    0    0    0  501 -0.00000000000E+00  0.00000000000E+00  0.23472524779E+03  0.23472524784E+03  0.50400000000E-02 0.  1.
          1   -1    0    0  501    0  0.00000000000E+00 -0.00000000000E+00 -0.11931204530E+04  0.11931204530E+04  0.50400000000E-02 0. -1.
    5000001    1    1    2    0    0 -0.37298158891E+02 -0.40013850436E+03 -0.93619463717E+02  0.45511600643E+03  0.19200000000E+03 0.  0.
   -5000001    1    1    2    0    0  0.37298158891E+02  0.40013850436E+03 -0.86477574152E+03  0.97272969444E+03  0.19200000000E+03 0.  0.
<mgrwt>
<rscale>  0 0.10584054E+04</rscale>
<asrwt>0</asrwt>
<pdfrwt beam="1">  1        1 0.17044578E+00 0.10584054E+04</pdfrwt>
<pdfrwt beam="2">  1       -1 0.33532179E-01 0.10584054E+04</pdfrwt>
<totfact> 0.10455536E+02</totfact>
</mgrwt>
</event>
<event>
 4    1  0.1454935E-005  0.7362968E+03  0.7818608E-02  0.9657097E-01
         -1   -1    0    0    0  501 -0.00000000000E+00  0.00000000000E+00  0.20745480255E+03  0.20745480261E+03  0.50400000000E-02 0. -1.
          1   -1    0    0  501    0  0.00000000000E+00 -0.00000000000E+00 -0.65331448581E+03  0.65331448583E+03  0.50400000000E-02 0.  1.
    5000001    1    1    2    0    0 -0.10975685612E+03  0.22655763720E+03 -0.44255705266E+03  0.54414674059E+03  0.19200000000E+03 0.  0.
   -5000001    1    1    2    0    0  0.10975685612E+03 -0.22655763720E+03 -0.33026306045E+01  0.31662254785E+03  0.19200000000E+03 0.  0.
<mgrwt>
<rscale>  0 0.73629675E+03</rscale>
<asrwt>0</asrwt>
<pdfrwt beam="1">  1        1 0.93330640E-01 0.73629675E+03</pdfrwt>
<pdfrwt beam="2">  1       -1 0.29636401E-01 0.73629675E+03</pdfrwt>
<totfact> 0.35462973E+02</totfact>
</mgrwt>
</event>
<event>
 4    1  0.1454935E-005  0.9044402E+03  0.7818608E-02  0.9420048E-01
          1   -1    0    0  501    0  0.00000000000E+00  0.00000000000E+00  0.12839235164E+04  0.12839235164E+04  0.50400000000E-02 0. -1.
         -1   -1    0    0    0  501 -0.00000000000E+00 -0.00000000000E+00 -0.15927974183E+03  0.15927974191E+03  0.50400000000E-02 0.  1.
    5000001    1    1    2    0    0 -0.30281068970E+01 -0.40879908997E+03  0.52617541058E+03  0.69343379503E+03  0.19200000000E+03 0.  0.
   -5000001    1    1    2    0    0  0.30281068970E+01  0.40879908997E+03  0.59846836401E+03  0.74976946331E+03  0.19200000000E+03 0.  0.
<mgrwt>
<rscale>  0 0.90444017E+03</rscale>
<asrwt>0</asrwt>
<pdfrwt beam="1">  1        1 0.18341765E+00 0.90444017E+03</pdfrwt>
<pdfrwt beam="2">  1       -1 0.22754248E-01 0.90444017E+03</pdfrwt>
<totfact> 0.17907495E+02</totfact>
</mgrwt>
</event>
<event>
 4    1  0.1454935E-005  0.4621595E+03  0.7818608E-02  0.1024157E+00
         -1   -1    0    0    0  501 -0.00000000000E+00  0.00000000000E+00  0.12097300796E+03  0.12097300806E+03  0.50400000000E-02 0. -1.
          1   -1    0    0  501    0  0.00000000000E+00 -0.00000000000E+00 -0.44140297233E+03  0.44140297236E+03  0.50400000000E-02 0.  1.
    5000001    1    1    2    0    0  0.51951160800E+02  0.89078137477E+02 -0.66747361365E+02  0.22793211256E+03  0.19200000000E+03 0.  0.
   -5000001    1    1    2    0    0 -0.51951160800E+02 -0.89078137477E+02 -0.25368260301E+03  0.33444386787E+03  0.19200000000E+03 0.  0.
<mgrwt>
<rscale>  0 0.46215948E+03</rscale>
<asrwt>0</asrwt>
<pdfrwt beam="1">  1        1 0.63057567E-01 0.46215948E+03</pdfrwt>
<pdfrwt beam="2">  1       -1 0.17281859E-01 0.46215948E+03</pdfrwt>
<totfact> 0.15093624E+03</totfact>
</mgrwt>
</event>
<event>
 4    1  0.1454935E-005  0.5620570E+03  0.7818608E-02  0.9987411E-01
         -1   -1    0    0    0  501 -0.00000000000E+00  0.00000000000E+00  0.29428203823E+03  0.29428203827E+03  0.50400000000E-02 0. -1.
          1   -1    0    0  501    0  0.00000000000E+00 -0.00000000000E+00 -0.26837187869E+03  0.26837187874E+03  0.50400000000E-02 0.  1.
    5000001    1    1    2    0    0 -0.29947678960E+02  0.20110197954E+03  0.40808248218E+02  0.28260959427E+03  0.19200000000E+03 0.  0.
   -5000001    1    1    2    0    0  0.29947678960E+02 -0.20110197954E+03 -0.14898088683E+02  0.28004432274E+03  0.19200000000E+03 0.  0.
<mgrwt>
<rscale>  0 0.56205702E+03</rscale>
<asrwt>0</asrwt>
<pdfrwt beam="1">  1        1 0.38338840E-01 0.56205702E+03</pdfrwt>
<pdfrwt beam="2">  1       -1 0.42040291E-01 0.56205702E+03</pdfrwt>
<totfact> 0.62572533E+02</totfact>
</mgrwt>
</event>
<event>
 4    1  0.1454935E-005  0.8373656E+03  0.7818608E-02  0.9507453E-01
         -1   -1    0    0    0  501 -0.00000000000E+00  0.00000000000E+00  0.33918531829E+03  0.33918531832E+03  0.50400000000E-02 0. -1.
          1   -1    0    0  501    0  0.00000000000E+00 -0.00000000000E+00 -0.51681276914E+03  0.51681276916E+03  0.50400000000E-02 0.  1.
    5000001    1    1    2    0    0  0.34550477689E+03 -0.12986898803E+03 -0.40955345567E+02  0.41806799116E+03  0.19200000000E+03 0.  0.
   -5000001    1    1    2    0    0 -0.34550477689E+03  0.12986898803E+03 -0.13667210528E+03  0.43793009632E+03  0.19200000000E+03 0.  0.
<mgrwt>
<rscale>  0 0.83736564E+03</rscale>
<asrwt>0</asrwt>
<pdfrwt beam="1">  1        1 0.73830396E-01 0.83736564E+03</pdfrwt>
<pdfrwt beam="2">  1       -1 0.48455045E-01 0.83736564E+03</pdfrwt>
<totfact> 0.20169614E+02</totfact>
</mgrwt>
</event>
<event>
 4    1  0.1454935E-005  0.4498640E+03  0.7818608E-02  0.1027763E+00
         -1   -1    0    0    0  501 -0.00000000000E+00  0.00000000000E+00  0.29231067722E+02  0.29231068157E+02  0.50400000000E-02 0. -1.
          1   -1    0    0  501    0  0.00000000000E+00 -0.00000000000E+00 -0.17308434285E+04  0.17308434285E+04  0.50400000000E-02 0.  1.
    5000001    1    1    2    0    0  0.64498031579E+02  0.65396342315E+02 -0.56614353765E+03  0.60482987930E+03  0.19200000000E+03 0.  0.
   -5000001    1    1    2    0    0 -0.64498031579E+02 -0.65396342315E+02 -0.11354688232E+04  0.11552446174E+04  0.19200000000E+03 0.  0.
<mgrwt>
<rscale>  0 0.44986399E+03</rscale>
<asrwt>0</asrwt>
<pdfrwt beam="1">  1        1 0.24726328E+00 0.44986399E+03</pdfrwt>
<pdfrwt beam="2">  1       -1 0.41758680E-02 0.44986399E+03</pdfrwt>
<totfact> 0.13914589E+03</totfact>
</mgrwt>
</event>
<event>
 4    1  0.1454935E-005  0.6547806E+03  0.7818608E-02  0.9797850E-01
         -1   -1    0    0    0  501 -0.00000000000E+00  0.00000000000E+00  0.24228739587E+03  0.24228739592E+03  0.50400000000E-02 0. -1.
          1   -1    0    0  501    0  0.00000000000E+00 -0.00000000000E+00 -0.44238543254E+03  0.44238543257E+03  0.50400000000E-02 0.  1.
    5000001    1    1    2    0    0 -0.84764833710E+02  0.17408235153E+03  0.89415183946E+02  0.28696483629E+03  0.19200000000E+03 0.  0.
   -5000001    1    1    2    0    0  0.84764833710E+02 -0.17408235153E+03 -0.28951322061E+03  0.39770799220E+03  0.19200000000E+03 0.  0.
<mgrwt>
<rscale>  0 0.65478062E+03</rscale>
<asrwt>0</asrwt>
<pdfrwt beam="1">  1        1 0.63197919E-01 0.65478062E+03</pdfrwt>
<pdfrwt beam="2">  1       -1 0.34612485E-01 0.65478062E+03</pdfrwt>
<totfact> 0.46291141E+02</totfact>
</mgrwt>
</event>
<event>
 4    1  0.1454935E-005  0.4363810E+03  0.7818608E-02  0.1031863E+00
          1   -1    0    0  501    0  0.00000000000E+00  0.00000000000E+00  0.48362001134E+02  0.48362001397E+02  0.50400000000E-02 0. -1.
         -1   -1    0    0    0  501 -0.00000000000E+00 -0.00000000000E+00 -0.98439066602E+03  0.98439066603E+03  0.50400000000E-02 0.  1.
    5000001    1    1    2    0    0 -0.26846869343E+02 -0.84198219386E+02 -0.59618453947E+03  0.63254256746E+03  0.19200000000E+03 0.  0.
   -5000001    1    1    2    0    0  0.26846869343E+02  0.84198219386E+02 -0.33984412542E+03  0.40021009997E+03  0.19200000000E+03 0.  0.
<mgrwt>
<rscale>  0 0.43638104E+03</rscale>
<asrwt>0</asrwt>
<pdfrwt beam="1">  1        1 0.69088579E-02 0.43638104E+03</pdfrwt>
<pdfrwt beam="2">  1       -1 0.14062723E+00 0.43638104E+03</pdfrwt>
<totfact> 0.47479157E+02</totfact>
</mgrwt>
</event>
<event>
 4    1  0.1454935E-005  0.5655446E+03  0.7818608E-02  0.9979587E-01
         -1   -1    0    0    0  501 -0.00000000000E+00  0.00000000000E+00  0.28873093370E+03  0.28873093375E+03  0.50400000000E-02 0.  1.
          1   -1    0    0  501    0  0.00000000000E+00 -0.00000000000E+00 -0.27693662004E+03  0.27693662009E+03  0.50400000000E-02 0. -1.
    5000001    1    1    2    0    0 -0.14851145823E+03  0.12550131157E+03 -0.66850607297E+02  0.28131696737E+03  0.19200000000E+03 0.  0.
   -5000001    1    1    2    0    0  0.14851145823E+03 -0.12550131157E+03  0.78644920956E+02  0.28435058647E+03  0.19200000000E+03 0.  0.
<mgrwt>
<rscale>  0 0.56554458E+03</rscale>
<asrwt>0</asrwt>
<pdfrwt beam="1">  1        1 0.39562374E-01 0.56554458E+03</pdfrwt>
<pdfrwt beam="2">  1       -1 0.41247276E-01 0.56554458E+03</pdfrwt>
<totfact> 0.62214121E+02</totfact>
</mgrwt>
</event>
<event>
 4    1  0.1454935E-005  0.6820908E+03  0.7818608E-02  0.9748359E-01
         -1   -1    0    0    0  501 -0.00000000000E+00  0.00000000000E+00  0.87892391369E+02  0.87892391513E+02  0.50400000000E-02 0. -1.
          1   -1    0    0  501    0  0.00000000000E+00 -0.00000000000E+00 -0.13233449668E+04  0.13233449668E+04  0.50400000000E-02 0.  1.
    5000001    1    1    2    0    0  0.60111562728E+02  0.20295066751E+03 -0.10028336437E+04  0.10427567743E+04  0.19200000000E+03 0.  0.
   -5000001    1    1    2    0    0 -0.60111562728E+02 -0.20295066751E+03 -0.23261893179E+03  0.36848058408E+03  0.19200000000E+03 0.  0.
<mgrwt>
<rscale>  0 0.68209077E+03</rscale>
<asrwt>0</asrwt>
<pdfrwt beam="1">  1        1 0.18904927E+00 0.68209077E+03</pdfrwt>
<pdfrwt beam="2">  1       -1 0.12556057E-01 0.68209077E+03</pdfrwt>
<totfact> 0.45377665E+02</totfact>
</mgrwt>
</event>
<event>
 4    1  0.1454935E-005  0.4544474E+03  0.7818608E-02  0.1026404E+00
         -1   -1    0    0    0  501 -0.00000000000E+00  0.00000000000E+00  0.47065349910E+02  0.47065350179E+02  0.50400000000E-02 0. -1.
          1   -1    0    0  501    0  0.00000000000E+00 -0.00000000000E+00 -0.10969981232E+04  0.10969981232E+04  0.50400000000E-02 0.  1.
    5000001    1    1    2    0    0 -0.26737373818E+02 -0.10988775951E+03 -0.63688524729E+03  0.67474219156E+03  0.19200000000E+03 0.  0.
   -5000001    1    1    2    0    0  0.26737373818E+02  0.10988775951E+03 -0.41304752601E+03  0.46932128184E+03  0.19200000000E+03 0.  0.
<mgrwt>
<rscale>  0 0.45444736E+03</rscale>
<asrwt>0</asrwt>
<pdfrwt beam="1">  1        1 0.15671400E+00 0.45444736E+03</pdfrwt>
<pdfrwt beam="2">  1       -1 0.67236221E-02 0.45444736E+03</pdfrwt>
<totfact> 0.17394636E+03</totfact>
</mgrwt>
</event>
<event>
 4    1  0.1454935E-005  0.5094443E+03  0.7818608E-02  0.1011343E+00
          1   -1    0    0  501    0  0.00000000000E+00  0.00000000000E+00  0.14277709579E+03  0.14277709588E+03  0.50400000000E-02 0.  1.
         -1   -1    0    0    0  501 -0.00000000000E+00 -0.00000000000E+00 -0.45443829470E+03  0.45443829472E+03  0.50400000000E-02 0. -1.
    5000001    1    1    2    0    0 -0.75651068337E+02 -0.14168918274E+03 -0.21107100359E+03  0.32743530231E+03  0.19200000000E+03 0.  0.
   -5000001    1    1    2    0    0  0.75651068337E+02  0.14168918274E+03 -0.10059019532E+03  0.26978008829E+03  0.19200000000E+03 0.  0.
<mgrwt>
<rscale>  0 0.50944432E+03</rscale>
<asrwt>0</asrwt>
<pdfrwt beam="1">  1        1 0.20396728E-01 0.50944432E+03</pdfrwt>
<pdfrwt beam="2">  1       -1 0.64919756E-01 0.50944432E+03</pdfrwt>
<totfact> 0.62055994E+02</totfact>
</mgrwt>
</event>
<event>
 4    1  0.1454935E-005  0.6071908E+03  0.7818608E-02  0.9890599E-01
          1   -1    0    0  501    0  0.00000000000E+00  0.00000000000E+00  0.81008013151E+03  0.81008013152E+03  0.50400000000E-02 0.  1.
         -1   -1    0    0    0  501 -0.00000000000E+00 -0.00000000000E+00 -0.11377907973E+03  0.11377907984E+03  0.50400000000E-02 0. -1.
    5000001    1    1    2    0    0 -0.12497379321E+03 -0.46584667021E+02  0.53438352345E+02  0.23980875233E+03  0.19200000000E+03 0.  0.
   -5000001    1    1    2    0    0  0.12497379321E+03  0.46584667021E+02  0.64286269943E+03  0.68405045904E+03  0.19200000000E+03 0.  0.
<mgrwt>
<rscale>  0 0.60719082E+03</rscale>
<asrwt>0</asrwt>
<pdfrwt beam="1">  1        1 0.11572573E+00 0.60719082E+03</pdfrwt>
<pdfrwt beam="2">  1       -1 0.16254154E-01 0.60719082E+03</pdfrwt>
<totfact> 0.70940229E+02</totfact>
</mgrwt>
</event>
<event>
 4    1  0.1454935E-005  0.6984011E+03  0.7818608E-02  0.9719970E-01
         -1   -1    0    0    0  501 -0.00000000000E+00  0.00000000000E+00  0.53233056841E+03  0.53233056844E+03  0.50400000000E-02 0. -1.
          1   -1    0    0  501    0  0.00000000000E+00 -0.00000000000E+00 -0.22907013669E+03  0.22907013675E+03  0.50400000000E-02 0.  1.
    5000001    1    1    2    0    0  0.84657186344E+02  0.27060582063E+03  0.22623314707E+03  0.41041416422E+03  0.19200000000E+03 0.  0.
   -5000001    1    1    2    0    0 -0.84657186344E+02 -0.27060582063E+03  0.77027284655E+02  0.35098654097E+03  0.19200000000E+03 0.  0.
<mgrwt>
<rscale>  0 0.69840113E+03</rscale>
<asrwt>0</asrwt>
<pdfrwt beam="1">  1        1 0.32724305E-01 0.69840113E+03</pdfrwt>
<pdfrwt beam="2">  1       -1 0.76047224E-01 0.69840113E+03</pdfrwt>
<totfact> 0.24155659E+02</totfact>
</mgrwt>
</event>
<event>
 4    1  0.1454935E-005  0.6481025E+03  0.7818608E-02  0.9810346E-01
          1   -1    0    0  501    0  0.00000000000E+00  0.00000000000E+00  0.87701346281E+03  0.87701346282E+03  0.50400000000E-02 0.  1.
         -1   -1    0    0    0  501 -0.00000000000E+00 -0.00000000000E+00 -0.11973500068E+03  0.11973500079E+03  0.50400000000E-02 0. -1.
    5000001    1    1    2    0    0  0.22190704915E+03  0.41034001774E+02  0.58044882765E+03  0.65169883327E+03  0.19200000000E+03 0.  0.
   -5000001    1    1    2    0    0 -0.22190704915E+03 -0.41034001774E+02  0.17682963448E+03  0.34504963034E+03  0.19200000000E+03 0.  0.
<mgrwt>
<rscale>  0 0.64810248E+03</rscale>
<asrwt>0</asrwt>
<pdfrwt beam="1">  1        1 0.12528763E+00 0.64810248E+03</pdfrwt>
<pdfrwt beam="2">  1       -1 0.17105001E-01 0.64810248E+03</pdfrwt>
<totfact> 0.57527796E+02</totfact>
</mgrwt>
</event>
<event>
 4    1  0.1454935E-005  0.5976696E+03  0.7818608E-02  0.9910253E-01
         -1   -1    0    0    0  501 -0.00000000000E+00  0.00000000000E+00  0.82328902363E+03  0.82328902364E+03  0.50400000000E-02 0. -1.
          1   -1    0    0  501    0  0.00000000000E+00 -0.00000000000E+00 -0.10847011150E+03  0.10847011162E+03  0.50400000000E-02 0.  1.
    5000001    1    1    2    0    0  0.17270872429E+03  0.89908317850E+02  0.54530743233E+03  0.61002951143E+03  0.19200000000E+03 0.  0.
   -5000001    1    1    2    0    0 -0.17270872429E+03 -0.89908317850E+02  0.16951147979E+03  0.32172962383E+03  0.19200000000E+03 0.  0.
<mgrwt>
<rscale>  0 0.59766965E+03</rscale>
<asrwt>0</asrwt>
<pdfrwt beam="1">  1        1 0.15495730E-01 0.59766965E+03</pdfrwt>
<pdfrwt beam="2">  1       -1 0.11761272E+00 0.59766965E+03</pdfrwt>
<totfact> 0.24440610E+02</totfact>
</mgrwt>
</event>
<event>
 4    1  0.1454935E-005  0.5762428E+03  0.7818608E-02  0.9955959E-01
         -1   -1    0    0    0  501 -0.00000000000E+00  0.00000000000E+00  0.42620583488E+02  0.42620583786E+02  0.50400000000E-02 0. -1.
          1   -1    0    0  501    0  0.00000000000E+00 -0.00000000000E+00 -0.19477431475E+04  0.19477431475E+04  0.50400000000E-02 0.  1.
    5000001    1    1    2    0    0  0.96103279518E+02 -0.19212814640E+03 -0.94931236066E+03  0.99207208562E+03  0.19200000000E+03 0.  0.
   -5000001    1    1    2    0    0 -0.96103279518E+02  0.19212814640E+03 -0.95581020332E+03  0.99829164563E+03  0.19200000000E+03 0.  0.
<mgrwt>
<rscale>  0 0.57624283E+03</rscale>
<asrwt>0</asrwt>
<pdfrwt beam="1">  1        1 0.27824897E+00 0.57624283E+03</pdfrwt>
<pdfrwt beam="2">  1       -1 0.60886560E-02 0.57624283E+03</pdfrwt>
<totfact> 0.57086615E+02</totfact>
</mgrwt>
</event>
<event>
 4    1  0.1454935E-005  0.4569513E+03  0.7818608E-02  0.1025669E+00
          1   -1    0    0  501    0  0.00000000000E+00  0.00000000000E+00  0.49231582008E+03  0.49231582011E+03  0.50400000000E-02 0.  1.
         -1   -1    0    0    0  501 -0.00000000000E+00 -0.00000000000E+00 -0.10603176036E+03  0.10603176048E+03  0.50400000000E-02 0. -1.
    5000001    1    1    2    0    0  0.99099318048E+02  0.50304270485E+02  0.26469417302E+03  0.34536676113E+03  0.19200000000E+03 0.  0.
   -5000001    1    1    2    0    0 -0.99099318048E+02 -0.50304270485E+02  0.12158988670E+03  0.25298081946E+03  0.19200000000E+03 0.  0.
<mgrwt>
<rscale>  0 0.45695126E+03</rscale>
<asrwt>0</asrwt>
<pdfrwt beam="1">  1        1 0.70330832E-01 0.45695126E+03</pdfrwt>
<pdfrwt beam="2">  1       -1 0.15147394E-01 0.45695126E+03</pdfrwt>
<totfact> 0.16174570E+03</totfact>
</mgrwt>
</event>
<event>
 4    1  0.1454935E-005  0.4822264E+03  0.7818608E-02  0.1018525E+00
         -1   -1    0    0    0  501 -0.00000000000E+00  0.00000000000E+00  0.13559897428E+03  0.13559897438E+03  0.50400000000E-02 0. -1.
          1   -1    0    0  501    0  0.00000000000E+00 -0.00000000000E+00 -0.42873162329E+03  0.42873162332E+03  0.50400000000E-02 0.  1.
    5000001    1    1    2    0    0  0.91215562621E+02 -0.60130200939E+02 -0.25963827555E+03  0.34089874459E+03  0.19200000000E+03 0.  0.
   -5000001    1    1    2    0    0 -0.91215562621E+02  0.60130200939E+02 -0.33494373452E+02  0.22343185311E+03  0.19200000000E+03 0.  0.
<mgrwt>
<rscale>  0 0.48222637E+03</rscale>
<asrwt>0</asrwt>
<pdfrwt beam="1">  1        1 0.61247374E-01 0.48222637E+03</pdfrwt>
<pdfrwt beam="2">  1       -1 0.19371282E-01 0.48222637E+03</pdfrwt>
<totfact> 0.13010395E+03</totfact>
</mgrwt>
</event>
<event>
 4    1  0.1454935E-005  0.4738553E+03  0.7818608E-02  0.1020838E+00
         -1   -1    0    0    0  501 -0.00000000000E+00  0.00000000000E+00  0.59268939757E+02  0.59268939972E+02  0.50400000000E-02 0. -1.
          1   -1    0    0  501    0  0.00000000000E+00 -0.00000000000E+00 -0.94711847949E+03  0.94711847951E+03  0.50400000000E-02 0.  1.
    5000001    1    1    2    0    0  0.91029808628E+02 -0.79903031807E+02 -0.58796651055E+03  0.63026941706E+03  0.19200000000E+03 0.  0.
   -5000001    1    1    2    0    0 -0.91029808628E+02  0.79903031807E+02 -0.29988302919E+03  0.37611800242E+03  0.19200000000E+03 0.  0.
<mgrwt>
<rscale>  0 0.47385529E+03</rscale>
<asrwt>0</asrwt>
<pdfrwt beam="1">  1        1 0.13530263E+00 0.47385529E+03</pdfrwt>
<pdfrwt beam="2">  1       -1 0.84669919E-02 0.47385529E+03</pdfrwt>
<totfact> 0.15646220E+03</totfact>
</mgrwt>
</event>
<event>
 4    1  0.1454935E-005  0.4695529E+03  0.7818608E-02  0.1022046E+00
          1   -1    0    0  501    0  0.00000000000E+00  0.00000000000E+00  0.79324298418E+03  0.79324298420E+03  0.50400000000E-02 0.  1.
         -1   -1    0    0    0  501 -0.00000000000E+00 -0.00000000000E+00 -0.69486888721E+02  0.69486888903E+02  0.50400000000E-02 0. -1.
    5000001    1    1    2    0    0  0.89850272172E+01 -0.11997270686E+03  0.24888807401E+03  0.33657607533E+03  0.19200000000E+03 0.  0.
   -5000001    1    1    2    0    0 -0.89850272172E+01  0.11997270686E+03  0.47486802145E+03  0.52615379777E+03  0.19200000000E+03 0.  0.
<mgrwt>
<rscale>  0 0.46955292E+03</rscale>
<asrwt>0</asrwt>
<pdfrwt beam="1">  1        1 0.11332043E+00 0.46955292E+03</pdfrwt>
<pdfrwt beam="2">  1       -1 0.99266983E-02 0.46955292E+03</pdfrwt>
<totfact> 0.16144677E+03</totfact>
</mgrwt>
</event>
<event>
 4    1  0.1454935E-005  0.7084764E+03  0.7818608E-02  0.9702845E-01
         -1   -1    0    0    0  501 -0.00000000000E+00  0.00000000000E+00  0.14836686821E+03  0.14836686829E+03  0.50400000000E-02 0.  1.
          1   -1    0    0  501    0  0.00000000000E+00 -0.00000000000E+00 -0.84577296592E+03  0.84577296594E+03  0.50400000000E-02 0. -1.
    5000001    1    1    2    0    0 -0.25657861591E+03  0.15082454394E+03 -0.35758404038E+03  0.50330008457E+03  0.19200000000E+03 0.  0.
   -5000001    1    1    2    0    0  0.25657861591E+03 -0.15082454394E+03 -0.33982205734E+03  0.49083974966E+03  0.19200000000E+03 0.  0.
<mgrwt>
<rscale>  0 0.70847635E+03</rscale>
<asrwt>0</asrwt>
<pdfrwt beam="1">  1        1 0.12082471E+00 0.70847635E+03</pdfrwt>
<pdfrwt beam="2">  1       -1 0.21195267E-01 0.70847635E+03</pdfrwt>
<totfact> 0.42630441E+02</totfact>
</mgrwt>
</event>
<event>
 4    1  0.1454935E-005  0.4869117E+03  0.7818608E-02  0.1017253E+00
         -1   -1    0    0    0  501 -0.00000000000E+00  0.00000000000E+00  0.48090675918E+02  0.48090676182E+02  0.50400000000E-02 0. -1.
          1   -1    0    0  501    0  0.00000000000E+00 -0.00000000000E+00 -0.12324788967E+04  0.12324788967E+04  0.50400000000E-02 0.  1.
    5000001    1    1    2    0    0 -0.13981244293E+03  0.32681141979E+02 -0.48088747579E+03  0.53733819947E+03  0.19200000000E+03 0.  0.
   -5000001    1    1    2    0    0  0.13981244293E+03 -0.32681141979E+02 -0.70350074502E+03  0.74323137345E+03  0.19200000000E+03 0.  0.
<mgrwt>
<rscale>  0 0.48691167E+03</rscale>
<asrwt>0</asrwt>
<pdfrwt beam="1">  1        1 0.17606839E+00 0.48691167E+03</pdfrwt>
<pdfrwt beam="2">  1       -1 0.68700973E-02 0.48691167E+03</pdfrwt>
<totfact> 0.13569868E+03</totfact>
</mgrwt>
</event>
<event>
 4    1  0.1454935E-005  0.7571890E+03  0.7818608E-02  0.9624139E-01
          1   -1    0    0  501    0  0.00000000000E+00  0.00000000000E+00  0.53365455863E+03  0.53365455866E+03  0.50400000000E-02 0.  1.
         -1   -1    0    0    0  501 -0.00000000000E+00 -0.00000000000E+00 -0.26858908836E+03  0.26858908841E+03  0.50400000000E-02 0. -1.
    5000001    1    1    2    0    0  0.22145416803E+03 -0.17449199731E+03 -0.41498047787E+02  0.34362114841E+03  0.19200000000E+03 0.  0.
   -5000001    1    1    2    0    0 -0.22145416803E+03  0.17449199731E+03  0.30656351806E+03  0.45862249865E+03  0.19200000000E+03 0.  0.
<mgrwt>
<rscale>  0 0.75718899E+03</rscale>
<asrwt>0</asrwt>
<pdfrwt beam="1">  1        1 0.76236365E-01 0.75718899E+03</pdfrwt>
<pdfrwt beam="2">  1       -1 0.38369870E-01 0.75718899E+03</pdfrwt>
<totfact> 0.29793040E+02</totfact>
</mgrwt>
</event>
<event>
 4    1  0.1454935E-005  0.5988052E+03  0.7818608E-02  0.9907888E-01
         -1   -1    0    0    0  501 -0.00000000000E+00  0.00000000000E+00  0.99490895290E+02  0.99490895417E+02  0.50400000000E-02 0. -1.
          1   -1    0    0  501    0  0.00000000000E+00 -0.00000000000E+00 -0.90100612921E+03  0.90100612922E+03  0.50400000000E-02 0.  1.
    5000001    1    1    2    0    0  0.82418489155E+02  0.16468743906E+03 -0.17128158408E+03  0.31641134775E+03  0.19200000000E+03 0.  0.
   -5000001    1    1    2    0    0 -0.82418489155E+02 -0.16468743906E+03 -0.63023364984E+03  0.68408567689E+03  0.19200000000E+03 0.  0.
<mgrwt>
<rscale>  0 0.59880517E+03</rscale>
<asrwt>0</asrwt>
<pdfrwt beam="1">  1        1 0.12871516E+00 0.59880517E+03</pdfrwt>
<pdfrwt beam="2">  1       -1 0.14212986E-01 0.59880517E+03</pdfrwt>
<totfact> 0.74562257E+02</totfact>
</mgrwt>
</event>
<event>
 4    1  0.1454935E-005  0.5134339E+03  0.7818608E-02  0.1010331E+00
         -1   -1    0    0    0  501 -0.00000000000E+00  0.00000000000E+00  0.81326086408E+03  0.81326086409E+03  0.50400000000E-02 0. -1.
          1   -1    0    0  501    0  0.00000000000E+00 -0.00000000000E+00 -0.81036220638E+02  0.81036220795E+02  0.50400000000E-02 0.  1.
    5000001    1    1    2    0    0 -0.17604805165E+02  0.16696069877E+03  0.31521780520E+03  0.40547758115E+03  0.19200000000E+03 0.  0.
   -5000001    1    1    2    0    0  0.17604805165E+02 -0.16696069877E+03  0.41700683824E+03  0.48881950374E+03  0.19200000000E+03 0.  0.
<mgrwt>
<rscale>  0 0.51343388E+03</rscale>
<asrwt>0</asrwt>
<pdfrwt beam="1">  1        1 0.11576603E-01 0.51343388E+03</pdfrwt>
<pdfrwt beam="2">  1       -1 0.11618012E+00 0.51343388E+03</pdfrwt>
<totfact> 0.37414097E+02</totfact>
</mgrwt>
</event>
<event>
 4    1  0.1454935E-005  0.5067560E+03  0.7818608E-02  0.1012030E+00
         -1   -1    0    0    0  501 -0.00000000000E+00  0.00000000000E+00  0.72255226193E+02  0.72255226369E+02  0.50400000000E-02 0. -1.
          1   -1    0    0  501    0  0.00000000000E+00 -0.00000000000E+00 -0.88852263878E+03  0.88852263879E+03  0.50400000000E-02 0.  1.
    5000001    1    1    2    0    0 -0.98786941732E+02  0.13166631747E+03 -0.43759863853E+03  0.50542204884E+03  0.19200000000E+03 0.  0.
   -5000001    1    1    2    0    0  0.98786941732E+02 -0.13166631747E+03 -0.37866877406E+03  0.45535581632E+03  0.19200000000E+03 0.  0.
<mgrwt>
<rscale>  0 0.50675597E+03</rscale>
<asrwt>0</asrwt>
<pdfrwt beam="1">  1        1 0.12693180E+00 0.50675597E+03</pdfrwt>
<pdfrwt beam="2">  1       -1 0.10322176E-01 0.50675597E+03</pdfrwt>
<totfact> 0.12720980E+03</totfact>
</mgrwt>
</event>
<event>
 4    1  0.1454935E-005  0.5846263E+03  0.7818608E-02  0.9937825E-01
         -1   -1    0    0    0  501 -0.00000000000E+00  0.00000000000E+00  0.72239733410E+03  0.72239733412E+03  0.50400000000E-02 0.  1.
          1   -1    0    0  501    0  0.00000000000E+00 -0.00000000000E+00 -0.11828253924E+03  0.11828253935E+03  0.50400000000E-02 0. -1.
    5000001    1    1    2    0    0 -0.52564846624E+02  0.20831055026E+03  0.23122121004E+03  0.36943686392E+03  0.19200000000E+03 0.  0.
   -5000001    1    1    2    0    0  0.52564846624E+02 -0.20831055026E+03  0.37289358482E+03  0.47124300955E+03  0.19200000000E+03 0.  0.
<mgrwt>
<rscale>  0 0.58462635E+03</rscale>
<asrwt>0</asrwt>
<pdfrwt beam="1">  1        1 0.16897506E-01 0.58462635E+03</pdfrwt>
<pdfrwt beam="2">  1       -1 0.10319962E+00 0.58462635E+03</pdfrwt>
<totfact> 0.29602867E+02</totfact>
</mgrwt>
</event>
<event>
 4    1  0.1454935E-005  0.5082663E+03  0.7818608E-02  0.1011644E+00
         -1   -1    0    0    0  501 -0.00000000000E+00  0.00000000000E+00  0.15375703648E+04  0.15375703648E+04  0.50400000000E-02 0. -1.
          1   -1    0    0  501    0  0.00000000000E+00 -0.00000000000E+00 -0.42003701907E+02  0.42003702209E+02  0.50400000000E-02 0.  1.
    5000001    1    1    2    0    0  0.99499799928E+02  0.13195770832E+03  0.68511722828E+03  0.73045373807E+03  0.19200000000E+03 0.  0.
   -5000001    1    1    2    0    0 -0.99499799928E+02 -0.13195770832E+03  0.81044943463E+03  0.84912032897E+03  0.19200000000E+03 0.  0.
<mgrwt>
<rscale>  0 0.50826626E+03</rscale>
<asrwt>0</asrwt>
<pdfrwt beam="1">  1        1 0.60005306E-02 0.50826626E+03</pdfrwt>
<pdfrwt beam="2">  1       -1 0.21965285E+00 0.50826626E+03</pdfrwt>
<totfact> 0.15754039E+02</totfact>
</mgrwt>
</event>
<event>
 4    1  0.1454935E-005  0.3974086E+03  0.7818608E-02  0.1044681E+00
         -1   -1    0    0    0  501 -0.00000000000E+00  0.00000000000E+00  0.27974308958E+03  0.27974308962E+03  0.50400000000E-02 0. -1.
          1   -1    0    0  501    0  0.00000000000E+00 -0.00000000000E+00 -0.14114165175E+03  0.14114165184E+03  0.50400000000E-02 0.  1.
    5000001    1    1    2    0    0 -0.48913454198E+02 -0.13316520468E+02  0.76755422404E+02  0.21289727708E+03  0.19200000000E+03 0.  0.
   -5000001    1    1    2    0    0  0.48913454198E+02  0.13316520468E+02  0.61846015424E+02  0.20798746439E+03  0.19200000000E+03 0.  0.
<mgrwt>
<rscale>  0 0.39740861E+03</rscale>
<asrwt>0</asrwt>
<pdfrwt beam="1">  1        1 0.20163093E-01 0.39740861E+03</pdfrwt>
<pdfrwt beam="2">  1       -1 0.39963298E-01 0.39740861E+03</pdfrwt>
<totfact> 0.15713377E+03</totfact>
</mgrwt>
</event>
<event>
 4    1  0.1454935E-005  0.5459664E+03  0.7818608E-02  0.1002432E+00
         -1   -1    0    0    0  501 -0.00000000000E+00  0.00000000000E+00  0.17833012266E+03  0.17833012273E+03  0.50400000000E-02 0.  1.
          1   -1    0    0  501    0  0.00000000000E+00 -0.00000000000E+00 -0.41787568798E+03  0.41787568801E+03  0.50400000000E-02 0. -1.
    5000001    1    1    2    0    0  0.14552459156E+03 -0.11403916798E+03 -0.55413238050E+02  0.27224431221E+03  0.19200000000E+03 0.  0.
   -5000001    1    1    2    0    0 -0.14552459156E+03  0.11403916798E+03 -0.18413232727E+03  0.32396149853E+03  0.19200000000E+03 0.  0.
<mgrwt>
<rscale>  0 0.54596638E+03</rscale>
<asrwt>0</asrwt>
<pdfrwt beam="1">  1        1 0.59696527E-01 0.54596638E+03</pdfrwt>
<pdfrwt beam="2">  1       -1 0.25475732E-01 0.54596638E+03</pdfrwt>
<totfact> 0.85100933E+02</totfact>
</mgrwt>
</event>
<event>
 4    1  0.1454935E-005  0.4473965E+03  0.7818608E-02  0.1028501E+00
         -1   -1    0    0    0  501 -0.00000000000E+00  0.00000000000E+00  0.16118807544E+03  0.16118807552E+03  0.50400000000E-02 0. -1.
          1   -1    0    0  501    0  0.00000000000E+00 -0.00000000000E+00 -0.31045047844E+03  0.31045047848E+03  0.50400000000E-02 0.  1.
    5000001    1    1    2    0    0 -0.85579266247E+02 -0.51757326689E+02 -0.13402478605E+03  0.25461593617E+03  0.19200000000E+03 0.  0.
   -5000001    1    1    2    0    0  0.85579266247E+02  0.51757326689E+02 -0.15237616956E+02  0.21702261783E+03  0.19200000000E+03 0.  0.
<mgrwt>
<rscale>  0 0.44739654E+03</rscale>
<asrwt>0</asrwt>
<pdfrwt beam="1">  1        1 0.44350068E-01 0.44739654E+03</pdfrwt>
<pdfrwt beam="2">  1       -1 0.23026868E-01 0.44739654E+03</pdfrwt>
<totfact> 0.14809126E+03</totfact>
</mgrwt>
</event>
<event>
 4    1  0.1454935E-005  0.6782096E+03  0.7818608E-02  0.9755240E-01
         -1   -1    0    0    0  501 -0.00000000000E+00  0.00000000000E+00  0.11539455837E+03  0.11539455848E+03  0.50400000000E-02 0. -1.
          1   -1    0    0  501    0  0.00000000000E+00 -0.00000000000E+00 -0.99651208755E+03  0.99651208757E+03  0.50400000000E-02 0.  1.
    5000001    1    1    2    0    0 -0.13614854423E+03  0.23429004145E+03 -0.55295327964E+03  0.64501905327E+03  0.19200000000E+03 0.  0.
   -5000001    1    1    2    0    0  0.13614854423E+03 -0.23429004145E+03 -0.32816424954E+03  0.46688759278E+03  0.19200000000E+03 0.  0.
<mgrwt>
<rscale>  0 0.67820962E+03</rscale>
<asrwt>0</asrwt>
<pdfrwt beam="1">  1        1 0.14235886E+00 0.67820962E+03</pdfrwt>
<pdfrwt beam="2">  1       -1 0.16484937E-01 0.67820962E+03</pdfrwt>
<totfact> 0.49430064E+02</totfact>
</mgrwt>
</event>
<event>
 4    1  0.1454935E-005  0.7350329E+03  0.7818608E-02  0.9659128E-01
          1   -1    0    0  501    0  0.00000000000E+00  0.00000000000E+00  0.14949650083E+04  0.14949650083E+04  0.50400000000E-02 0.  1.
         -1   -1    0    0    0  501 -0.00000000000E+00 -0.00000000000E+00 -0.90348826852E+02  0.90348826992E+02  0.50400000000E-02 0. -1.
    5000001    1    1    2    0    0  0.14415819112E+03 -0.22161434010E+03  0.33941629451E+03  0.47112834853E+03  0.19200000000E+03 0.  0.
   -5000001    1    1    2    0    0 -0.14415819112E+03  0.22161434010E+03  0.10651998870E+04  0.11141854868E+04  0.19200000000E+03 0.  0.
<mgrwt>
<rscale>  0 0.73503288E+03</rscale>
<asrwt>0</asrwt>
<pdfrwt beam="1">  1        1 0.21356641E+00 0.73503288E+03</pdfrwt>
<pdfrwt beam="2">  1       -1 0.12906976E-01 0.73503288E+03</pdfrwt>
<totfact> 0.33414804E+02</totfact>
</mgrwt>
</event>
<event>
 4    1  0.1454935E-005  0.1055104E+04  0.7818608E-02  0.9250090E-01
          1   -1    0    0  501    0  0.00000000000E+00  0.00000000000E+00  0.29584167135E+04  0.29584167135E+04  0.50400000000E-02 0.  1.
         -1   -1    0    0    0  501 -0.00000000000E+00 -0.00000000000E+00 -0.94074396207E+02  0.94074396342E+02  0.50400000000E-02 0. -1.
    5000001    1    1    2    0    0 -0.36159972373E+03  0.30862404838E+03  0.10726368323E+04  0.11888721283E+04  0.19200000000E+03 0.  0.
   -5000001    1    1    2    0    0  0.36159972373E+03 -0.30862404838E+03  0.17917054850E+04  0.18636189816E+04  0.19200000000E+03 0.  0.
<mgrwt>
<rscale>  0 0.10551043E+04</rscale>
<asrwt>0</asrwt>
<pdfrwt beam="1">  1        1 0.42263109E+00 0.10551043E+04</pdfrwt>
<pdfrwt beam="2">  1       -1 0.13439195E-01 0.10551043E+04</pdfrwt>
<totfact> 0.36283452E+01</totfact>
</mgrwt>
</event>
<event>
 4    1  0.1454935E-005  0.7388479E+03  0.7818608E-02  0.9653010E-01
         -1   -1    0    0    0  501 -0.00000000000E+00  0.00000000000E+00  0.11618010052E+03  0.11618010063E+03  0.50400000000E-02 0. -1.
          1   -1    0    0  501    0  0.00000000000E+00 -0.00000000000E+00 -0.11746767798E+04  0.11746767798E+04  0.50400000000E-02 0.  1.
    5000001    1    1    2    0    0 -0.21433780406E+03 -0.50520097397E+02 -0.92425653084E+03  0.96933333239E+03  0.19200000000E+03 0.  0.
   -5000001    1    1    2    0    0  0.21433780406E+03  0.50520097397E+02 -0.13424014843E+03  0.32152354804E+03  0.19200000000E+03 0.  0.
<mgrwt>
<rscale>  0 0.73884793E+03</rscale>
<asrwt>0</asrwt>
<pdfrwt beam="1">  1        1 0.16781096E+00 0.73884793E+03</pdfrwt>
<pdfrwt beam="2">  1       -1 0.16597158E-01 0.73884793E+03</pdfrwt>
<totfact> 0.36319713E+02</totfact>
</mgrwt>
</event>
<event>
 4    1  0.1454935E-005  0.7450443E+03  0.7818608E-02  0.9643157E-01
         -1   -1    0    0    0  501 -0.00000000000E+00  0.00000000000E+00  0.16667180311E+03  0.16667180319E+03  0.50400000000E-02 0. -1.
          1   -1    0    0  501    0  0.00000000000E+00 -0.00000000000E+00 -0.83261090623E+03  0.83261090624E+03  0.50400000000E-02 0.  1.
    5000001    1    1    2    0    0  0.94059415580E+02  0.25101457385E+03 -0.10045392944E+03  0.34468896397E+03  0.19200000000E+03 0.  0.
   -5000001    1    1    2    0    0 -0.94059415580E+02 -0.25101457385E+03 -0.56548517368E+03  0.65459374546E+03  0.19200000000E+03 0.  0.
<mgrwt>
<rscale>  0 0.74504432E+03</rscale>
<asrwt>0</asrwt>
<pdfrwt beam="1">  1        1 0.11894441E+00 0.74504432E+03</pdfrwt>
<pdfrwt beam="2">  1       -1 0.23810258E-01 0.74504432E+03</pdfrwt>
<totfact> 0.35864435E+02</totfact>
</mgrwt>
</event>
<event>
 4    1  0.1454935E-005  0.4431810E+03  0.7818608E-02  0.1029775E+00
          1   -1    0    0  501    0  0.00000000000E+00  0.00000000000E+00  0.15413575127E+04  0.15413575128E+04  0.50400000000E-02 0. -1.
         -1   -1    0    0    0  501 -0.00000000000E+00 -0.00000000000E+00 -0.31856559585E+02  0.31856559984E+02  0.50400000000E-02 0.  1.
    5000001    1    1    2    0    0  0.17302308039E+02 -0.10855164384E+03  0.79901927752E+03  0.82908300857E+03  0.19200000000E+03 0.  0.
   -5000001    1    1    2    0    0 -0.17302308039E+02  0.10855164384E+03  0.71048167564E+03  0.74413106417E+03  0.19200000000E+03 0.  0.
<mgrwt>
<rscale>  0 0.44318099E+03</rscale>
<asrwt>0</asrwt>
<pdfrwt beam="1">  1        1 0.22019388E+00 0.44318099E+03</pdfrwt>
<pdfrwt beam="2">  1       -1 0.45509382E-02 0.44318099E+03</pdfrwt>
<totfact> 0.16051407E+03</totfact>
</mgrwt>
</event>
<event>
 4    1  0.1454935E-005  0.6155005E+03  0.7818608E-02  0.9873759E-01
          1   -1    0    0  501    0  0.00000000000E+00  0.00000000000E+00  0.15812877185E+03  0.15812877193E+03  0.50400000000E-02 0.  1.
         -1   -1    0    0    0  501 -0.00000000000E+00 -0.00000000000E+00 -0.59894355834E+03  0.59894355836E+03  0.50400000000E-02 0. -1.
    5000001    1    1    2    0    0  0.21452034479E+03 -0.55143828276E+02 -0.10511140445E+03  0.31140364075E+03  0.19200000000E+03 0.  0.
   -5000001    1    1    2    0    0 -0.21452034479E+03  0.55143828276E+02 -0.33570338204E+03  0.44566868954E+03  0.19200000000E+03 0.  0.
<mgrwt>
<rscale>  0 0.61550048E+03</rscale>
<asrwt>0</asrwt>
<pdfrwt beam="1">  1        1 0.22589825E-01 0.61550048E+03</pdfrwt>
<pdfrwt beam="2">  1       -1 0.85563364E-01 0.61550048E+03</pdfrwt>
<totfact> 0.30560738E+02</totfact>
</mgrwt>
</event>
<event>
 4    1  0.1454935E-005  0.6696426E+03  0.7818608E-02  0.9770604E-01
          1   -1    0    0  501    0  0.00000000000E+00  0.00000000000E+00  0.13300898976E+04  0.13300898977E+04  0.50400000000E-02 0.  1.
         -1   -1    0    0    0  501 -0.00000000000E+00 -0.00000000000E+00 -0.84284014029E+02  0.84284014180E+02  0.50400000000E-02 0. -1.
    5000001    1    1    2    0    0  0.30179001120E+02 -0.13644880005E+03  0.11214389822E+04  0.11463064328E+04  0.19200000000E+03 0.  0.
   -5000001    1    1    2    0    0 -0.30179001120E+02  0.13644880005E+03  0.12436690146E+03  0.26806747905E+03  0.19200000000E+03 0.  0.
<mgrwt>
<rscale>  0 0.66964264E+03</rscale>
<asrwt>0</asrwt>
<pdfrwt beam="1">  1        1 0.19001283E+00 0.66964264E+03</pdfrwt>
<pdfrwt beam="2">  1       -1 0.12040574E-01 0.66964264E+03</pdfrwt>
<totfact> 0.48060393E+02</totfact>
</mgrwt>
</event>
<event>
 4    1  0.1454935E-005  0.8767313E+03  0.7818608E-02  0.9455145E-01
          1   -1    0    0  501    0  0.00000000000E+00  0.00000000000E+00  0.56908495851E+03  0.56908495853E+03  0.50400000000E-02 0.  1.
         -1   -1    0    0    0  501 -0.00000000000E+00 -0.00000000000E+00 -0.33767271702E+03  0.33767271705E+03  0.50400000000E-02 0. -1.
    5000001    1    1    2    0    0 -0.34780647390E+03 -0.18526824765E+03  0.11840257599E+03  0.45406699601E+03  0.19200000000E+03 0.  0.
   -5000001    1    1    2    0    0  0.34780647390E+03  0.18526824765E+03  0.11300966550E+03  0.45269067957E+03  0.19200000000E+03 0.  0.
<mgrwt>
<rscale>  0 0.87673135E+03</rscale>
<asrwt>0</asrwt>
<pdfrwt beam="1">  1        1 0.81297851E-01 0.87673135E+03</pdfrwt>
<pdfrwt beam="2">  1       -1 0.48238960E-01 0.87673135E+03</pdfrwt>
<totfact> 0.17773438E+02</totfact>
</mgrwt>
</event>
<event>
 4    1  0.1454935E-005  0.6556600E+03  0.7818608E-02  0.9796216E-01
          1   -1    0    0  501    0  0.00000000000E+00  0.00000000000E+00  0.46654532368E+03  0.46654532370E+03  0.50400000000E-02 0.  1.
         -1   -1    0    0    0  501 -0.00000000000E+00 -0.00000000000E+00 -0.23035811987E+03  0.23035811992E+03  0.50400000000E-02 0. -1.
    5000001    1    1    2    0    0  0.70575195306E+02 -0.23667698158E+03  0.22229965500E+03  0.38376814409E+03  0.19200000000E+03 0.  0.
   -5000001    1    1    2    0    0 -0.70575195306E+02  0.23667698158E+03  0.13887548813E+02  0.31313529954E+03  0.19200000000E+03 0.  0.
<mgrwt>
<rscale>  0 0.65565998E+03</rscale>
<asrwt>0</asrwt>
<pdfrwt beam="1">  1        1 0.66649331E-01 0.65565998E+03</pdfrwt>
<pdfrwt beam="2">  1       -1 0.32908304E-01 0.65565998E+03</pdfrwt>
<totfact> 0.47153321E+02</totfact>
</mgrwt>
</event>
<event>
 4    1  0.1454935E-005  0.5031875E+03  0.7818608E-02  0.1012950E+00
         -1   -1    0    0    0  501 -0.00000000000E+00  0.00000000000E+00  0.85996739664E+02  0.85996739812E+02  0.50400000000E-02 0. -1.
          1   -1    0    0  501    0  0.00000000000E+00 -0.00000000000E+00 -0.73606768212E+03  0.73606768214E+03  0.50400000000E-02 0.  1.
    5000001    1    1    2    0    0  0.12850327106E+03 -0.83971740486E+02 -0.23749711022E+03  0.34180874950E+03  0.19200000000E+03 0.  0.
   -5000001    1    1    2    0    0 -0.12850327106E+03  0.83971740486E+02 -0.41257383224E+03  0.48025567245E+03  0.19200000000E+03 0.  0.
<mgrwt>
<rscale>  0 0.50318752E+03</rscale>
<asrwt>0</asrwt>
<pdfrwt beam="1">  1        1 0.10515252E+00 0.50318752E+03</pdfrwt>
<pdfrwt beam="2">  1       -1 0.12285249E-01 0.50318752E+03</pdfrwt>
<totfact> 0.12895924E+03</totfact>
</mgrwt>
</event>
<event>
 4    1  0.1454935E-005  0.6441995E+03  0.7818608E-02  0.9817725E-01
         -1   -1    0    0    0  501 -0.00000000000E+00  0.00000000000E+00  0.10677411075E+03  0.10677411087E+03  0.50400000000E-02 0.  1.
          1   -1    0    0  501    0  0.00000000000E+00 -0.00000000000E+00 -0.97166104415E+03  0.97166104416E+03  0.50400000000E-02 0. -1.
    5000001    1    1    2    0    0  0.22013632641E+03  0.10354398133E+03 -0.57937005399E+03  0.65705023989E+03  0.19200000000E+03 0.  0.
   -5000001    1    1    2    0    0 -0.22013632641E+03 -0.10354398133E+03 -0.28551687941E+03  0.42138491514E+03  0.19200000000E+03 0.  0.
<mgrwt>
<rscale>  0 0.64419948E+03</rscale>
<asrwt>0</asrwt>
<pdfrwt beam="1">  1        1 0.13880872E+00 0.64419948E+03</pdfrwt>
<pdfrwt beam="2">  1       -1 0.15253445E-01 0.64419948E+03</pdfrwt>
<totfact> 0.58629739E+02</totfact>
</mgrwt>
</event>
<event>
 4    1  0.1454935E-005  0.4757010E+03  0.7818608E-02  0.1020323E+00
         -1   -1    0    0    0  501 -0.00000000000E+00  0.00000000000E+00  0.19221185982E+03  0.19221185989E+03  0.50400000000E-02 0.  1.
          1   -1    0    0  501    0  0.00000000000E+00 -0.00000000000E+00 -0.29432553961E+03  0.29432553966E+03  0.50400000000E-02 0. -1.
    5000001    1    1    2    0    0  0.22974925313E+02  0.13515633764E+03 -0.81974184230E+02  0.24975758182E+03  0.19200000000E+03 0.  0.
   -5000001    1    1    2    0    0 -0.22974925313E+02 -0.13515633764E+03 -0.20139495565E+02  0.23677981772E+03  0.19200000000E+03 0.  0.
<mgrwt>
<rscale>  0 0.47570100E+03</rscale>
<asrwt>0</asrwt>
<pdfrwt beam="1">  1        1 0.42046506E-01 0.47570100E+03</pdfrwt>
<pdfrwt beam="2">  1       -1 0.27458837E-01 0.47570100E+03</pdfrwt>
<totfact> 0.11780509E+03</totfact>
</mgrwt>
</event>
<event>
 4    1  0.1454935E-005  0.5009602E+03  0.7818608E-02  0.1013529E+00
          1   -1    0    0  501    0  0.00000000000E+00  0.00000000000E+00  0.81535634877E+03  0.81535634879E+03  0.50400000000E-02 0. -1.
         -1   -1    0    0    0  501 -0.00000000000E+00 -0.00000000000E+00 -0.76948303142E+02  0.76948303307E+02  0.50400000000E-02 0.  1.
    5000001    1    1    2    0    0  0.11153070218E+03  0.82957107120E+02  0.22499033789E+03  0.32681130839E+03  0.19200000000E+03 0.  0.
   -5000001    1    1    2    0    0 -0.11153070218E+03 -0.82957107120E+02  0.51341770774E+03  0.56549334370E+03  0.19200000000E+03 0.  0.
<mgrwt>
<rscale>  0 0.50096023E+03</rscale>
<asrwt>0</asrwt>
<pdfrwt beam="1">  1        1 0.11647948E+00 0.50096023E+03</pdfrwt>
<pdfrwt beam="2">  1       -1 0.10992614E-01 0.50096023E+03</pdfrwt>
<totfact> 0.13181584E+03</totfact>
</mgrwt>
</event>
<event>
 4    1  0.1454935E-005  0.7681880E+03  0.7818608E-02  0.9607241E-01
         -1   -1    0    0    0  501 -0.00000000000E+00  0.00000000000E+00  0.29270563719E+03  0.29270563723E+03  0.50400000000E-02 0. -1.
          1   -1    0    0  501    0  0.00000000000E+00 -0.00000000000E+00 -0.50401560992E+03  0.50401560995E+03  0.50400000000E-02 0.  1.
    5000001    1    1    2    0    0 -0.26610381012E+03  0.15854666529E+03  0.20160090006E+02  0.36499138629E+03  0.19200000000E+03 0.  0.
   -5000001    1    1    2    0    0  0.26610381012E+03 -0.15854666529E+03 -0.23147006274E+03  0.43172986089E+03  0.19200000000E+03 0.  0.
<mgrwt>
<rscale>  0 0.76818802E+03</rscale>
<asrwt>0</asrwt>
<pdfrwt beam="1">  1        1 0.72002230E-01 0.76818802E+03</pdfrwt>
<pdfrwt beam="2">  1       -1 0.41815091E-01 0.76818802E+03</pdfrwt>
<totfact> 0.27531456E+02</totfact>
</mgrwt>
</event>
<event>
 4    1  0.1454935E-005  0.7979755E+03  0.7818608E-02  0.9562952E-01
         -1   -1    0    0    0  501 -0.00000000000E+00  0.00000000000E+00  0.22372898322E+03  0.22372898328E+03  0.50400000000E-02 0. -1.
          1   -1    0    0  501    0  0.00000000000E+00 -0.00000000000E+00 -0.71153607043E+03  0.71153607045E+03  0.50400000000E-02 0.  1.
    5000001    1    1    2    0    0 -0.32331812381E+03  0.48934119946E+02 -0.38934173768E+03  0.54348886464E+03  0.19200000000E+03 0.  0.
   -5000001    1    1    2    0    0  0.32331812381E+03 -0.48934119946E+02 -0.98465349526E+02  0.39177618909E+03  0.19200000000E+03 0.  0.
<mgrwt>
<rscale>  0 0.79797554E+03</rscale>
<asrwt>0</asrwt>
<pdfrwt beam="1">  1        1 0.10164801E+00 0.79797554E+03</pdfrwt>
<pdfrwt beam="2">  1       -1 0.31961284E-01 0.79797554E+03</pdfrwt>
<totfact> 0.27353891E+02</totfact>
</mgrwt>
</event>
<event>
 4    1  0.1454935E-005  0.1112181E+04  0.7818608E-02  0.9193400E-01
         -1   -1    0    0    0  501 -0.00000000000E+00  0.00000000000E+00  0.31222740581E+04  0.31222740581E+04  0.50400000000E-02 0. -1.
          1   -1    0    0  501    0  0.00000000000E+00 -0.00000000000E+00 -0.99042101504E+02  0.99042101632E+02  0.50400000000E-02 0.  1.
    5000001    1    1    2    0    0  0.50517273091E+03  0.12471384586E+03  0.13950543773E+04  0.15012640497E+04  0.19200000000E+03 0.  0.
   -5000001    1    1    2    0    0 -0.50517273091E+03 -0.12471384586E+03  0.16281775793E+04  0.17200521100E+04  0.19200000000E+03 0.  0.
<mgrwt>
<rscale>  0 0.11121809E+04</rscale>
<asrwt>0</asrwt>
<pdfrwt beam="1">  1        1 0.14148876E-01 0.11121809E+04</pdfrwt>
<pdfrwt beam="2">  1       -1 0.44603900E+00 0.11121809E+04</pdfrwt>
<totfact> 0.14645627E+00</totfact>
</mgrwt>
</event>
<event>
 4    1  0.1454935E-005  0.6952886E+03  0.7818608E-02  0.9725323E-01
         -1   -1    0    0    0  501 -0.00000000000E+00  0.00000000000E+00  0.20965551691E+03  0.20965551697E+03  0.50400000000E-02 0. -1.
          1   -1    0    0  501    0  0.00000000000E+00 -0.00000000000E+00 -0.57645295366E+03  0.57645295368E+03  0.50400000000E-02 0.  1.
    5000001    1    1    2    0    0 -0.24992621535E+03  0.13856452379E+03 -0.23796574181E+03  0.41851515462E+03  0.19200000000E+03 0.  0.
   -5000001    1    1    2    0    0  0.24992621535E+03 -0.13856452379E+03 -0.12883169494E+03  0.36759331603E+03  0.19200000000E+03 0.  0.
<mgrwt>
<rscale>  0 0.69528855E+03</rscale>
<asrwt>0</asrwt>
<pdfrwt beam="1">  1        1 0.82350421E-01 0.69528855E+03</pdfrwt>
<pdfrwt beam="2">  1       -1 0.29950788E-01 0.69528855E+03</pdfrwt>
<totfact> 0.41635796E+02</totfact>
</mgrwt>
</event>
<event>
 4    1  0.1454935E-005  0.4091355E+03  0.7818608E-02  0.1040661E+00
          1   -1    0    0  501    0  0.00000000000E+00  0.00000000000E+00  0.19256317756E+04  0.19256317756E+04  0.50400000000E-02 0.  1.
         -1   -1    0    0    0  501 -0.00000000000E+00 -0.00000000000E+00 -0.21732073264E+02  0.21732073848E+02  0.50400000000E-02 0. -1.
    5000001    1    1    2    0    0 -0.47872148156E+02 -0.51847907771E+02  0.94240276858E+03  0.96434792805E+03  0.19200000000E+03 0.  0.
   -5000001    1    1    2    0    0  0.47872148156E+02  0.51847907771E+02  0.96149693373E+03  0.98301592138E+03  0.19200000000E+03 0.  0.
<mgrwt>
<rscale>  0 0.40913553E+03</rscale>
<asrwt>0</asrwt>
<pdfrwt beam="1">  1        1 0.27509043E+00 0.40913553E+03</pdfrwt>
<pdfrwt beam="2">  1       -1 0.31045799E-02 0.40913553E+03</pdfrwt>
<totfact> 0.16510371E+03</totfact>
</mgrwt>
</event>
<event>
 4    1  0.1454935E-005  0.9245724E+03  0.7818608E-02  0.9395375E-01
          1   -1    0    0  501    0  0.00000000000E+00  0.00000000000E+00  0.15067384562E+04  0.15067384563E+04  0.50400000000E-02 0.  1.
         -1   -1    0    0    0  501 -0.00000000000E+00 -0.00000000000E+00 -0.14183519933E+03  0.14183519942E+03  0.50400000000E-02 0. -1.
    5000001    1    1    2    0    0  0.40496174057E+03 -0.10856969208E+03  0.74059051678E+03  0.87242174601E+03  0.19200000000E+03 0.  0.
   -5000001    1    1    2    0    0 -0.40496174057E+03  0.10856969208E+03  0.62431274014E+03  0.77615190966E+03  0.19200000000E+03 0.  0.
<mgrwt>
<rscale>  0 0.92457244E+03</rscale>
<asrwt>0</asrwt>
<pdfrwt beam="1">  1        1 0.21524836E+00 0.92457244E+03</pdfrwt>
<pdfrwt beam="2">  1       -1 0.20262170E-01 0.92457244E+03</pdfrwt>
<totfact> 0.15486196E+02</totfact>
</mgrwt>
</event>
<event>
 4    1  0.1454935E-005  0.5527372E+03  0.7818608E-02  0.1000862E+00
          1   -1    0    0  501    0  0.00000000000E+00  0.00000000000E+00  0.21561711761E+03  0.21561711767E+03  0.50400000000E-02 0.  1.
         -1   -1    0    0    0  501 -0.00000000000E+00 -0.00000000000E+00 -0.35423722461E+03  0.35423722465E+03  0.50400000000E-02 0. -1.
    5000001    1    1    2    0    0  0.13280859621E+03  0.12725174168E+03 -0.14704038773E+03  0.30383548939E+03  0.19200000000E+03 0.  0.
   -5000001    1    1    2    0    0 -0.13280859621E+03 -0.12725174168E+03  0.84202807246E+01  0.26601885293E+03  0.19200000000E+03 0.  0.
<mgrwt>
<rscale>  0 0.55273722E+03</rscale>
<asrwt>0</asrwt>
<pdfrwt beam="1">  1        1 0.30802445E-01 0.55273722E+03</pdfrwt>
<pdfrwt beam="2">  1       -1 0.50605318E-01 0.55273722E+03</pdfrwt>
<totfact> 0.58799435E+02</totfact>
</mgrwt>
</event>
<event>
 4    1  0.1454935E-005  0.4171062E+03  0.7818608E-02  0.1038012E+00
          1   -1    0    0  501    0  0.00000000000E+00  0.00000000000E+00  0.12831465921E+04  0.12831465921E+04  0.50400000000E-02 0.  1.
         -1   -1    0    0    0  501 -0.00000000000E+00 -0.00000000000E+00 -0.33896661841E+02  0.33896662216E+02  0.50400000000E-02 0. -1.
    5000001    1    1    2    0    0  0.80505770597E+02  0.11764271548E+02  0.63500622572E+03  0.66836852401E+03  0.19200000000E+03 0.  0.
   -5000001    1    1    2    0    0 -0.80505770597E+02 -0.11764271548E+02  0.61424370454E+03  0.64867473031E+03  0.19200000000E+03 0.  0.
<mgrwt>
<rscale>  0 0.41710616E+03</rscale>
<asrwt>0</asrwt>
<pdfrwt beam="1">  1        1 0.18330666E+00 0.41710616E+03</pdfrwt>
<pdfrwt beam="2">  1       -1 0.48423802E-02 0.41710616E+03</pdfrwt>
<totfact> 0.21448562E+03</totfact>
</mgrwt>
</event>
<event>
 4    1  0.1454935E-005  0.9900299E+03  0.7818608E-02  0.9319548E-01
          1   -1    0    0  501    0  0.00000000000E+00  0.00000000000E+00  0.39835958092E+03  0.39835958095E+03  0.50400000000E-02 0.  1.
         -1   -1    0    0    0  501 -0.00000000000E+00 -0.00000000000E+00 -0.61512214820E+03  0.61512214822E+03  0.50400000000E-02 0. -1.
    5000001    1    1    2    0    0  0.34676699151E+03  0.17132633072E+03 -0.35613861591E+03  0.55973098158E+03  0.19200000000E+03 0.  0.
   -5000001    1    1    2    0    0 -0.34676699151E+03 -0.17132633072E+03  0.13937604863E+03  0.45375074758E+03  0.19200000000E+03 0.  0.
<mgrwt>
<rscale>  0 0.99002990E+03</rscale>
<asrwt>0</asrwt>
<pdfrwt beam="1">  1        1 0.56908512E-01 0.99002990E+03</pdfrwt>
<pdfrwt beam="2">  1       -1 0.87874592E-01 0.99002990E+03</pdfrwt>
<totfact> 0.85086028E+01</totfact>
</mgrwt>
</event>
<event>
 4    1  0.1454935E-005  0.5097900E+03  0.7818608E-02  0.1011255E+00
          1   -1    0    0  501    0  0.00000000000E+00  0.00000000000E+00  0.26134925610E+04  0.26134925611E+04  0.50400000000E-02 0.  1.
         -1   -1    0    0    0  501 -0.00000000000E+00 -0.00000000000E+00 -0.24860016787E+02  0.24860017298E+02  0.50400000000E-02 0. -1.
    5000001    1    1    2    0    0  0.57741019240E+02  0.15668743664E+03  0.13715128806E+04  0.13949181193E+04  0.19200000000E+03 0.  0.
   -5000001    1    1    2    0    0 -0.57741019240E+02 -0.15668743664E+03  0.12171196637E+04  0.12434344590E+04  0.19200000000E+03 0.  0.
<mgrwt>
<rscale>  0 0.50979003E+03</rscale>
<asrwt>0</asrwt>
<pdfrwt beam="1">  1        1 0.37335584E+00 0.50979003E+03</pdfrwt>
<pdfrwt beam="2">  1       -1 0.35514333E-02 0.50979003E+03</pdfrwt>
<totfact> 0.50563018E+02</totfact>
</mgrwt>
</event>
<event>
 4    1  0.1454935E-005  0.1160603E+04  0.7818608E-02  0.9148057E-01
          1   -1    0    0  501    0  0.00000000000E+00  0.00000000000E+00  0.34663737257E+03  0.34663737260E+03  0.50400000000E-02 0. -1.
         -1   -1    0    0    0  501 -0.00000000000E+00 -0.00000000000E+00 -0.97147627569E+03  0.97147627570E+03  0.50400000000E-02 0.  1.
    5000001    1    1    2    0    0 -0.34578456306E+03  0.10165400318E+03 -0.78066643343E+03  0.88102473330E+03  0.19200000000E+03 0.  0.
   -5000001    1    1    2    0    0  0.34578456306E+03 -0.10165400318E+03  0.15582753030E+03  0.43708891500E+03  0.19200000000E+03 0.  0.
<mgrwt>
<rscale>  0 0.11606033E+04</rscale>
<asrwt>0</asrwt>
<pdfrwt beam="1">  1        1 0.49519625E-01 0.11606033E+04</pdfrwt>
<pdfrwt beam="2">  1       -1 0.13878232E+00 0.11606033E+04</pdfrwt>
<totfact> 0.34058351E+01</totfact>
</mgrwt>
</event>
<event>
 4    1  0.1454935E-005  0.5840727E+03  0.7818608E-02  0.9939012E-01
          1   -1    0    0  501    0  0.00000000000E+00  0.00000000000E+00  0.38916389406E+03  0.38916389409E+03  0.50400000000E-02 0.  1.
         -1   -1    0    0    0  501 -0.00000000000E+00 -0.00000000000E+00 -0.21914992667E+03  0.21914992673E+03  0.50400000000E-02 0. -1.
    5000001    1    1    2    0    0  0.11398647819E+03 -0.18596553765E+03  0.11528484549E+03  0.31261908771E+03  0.19200000000E+03 0.  0.
   -5000001    1    1    2    0    0 -0.11398647819E+03  0.18596553765E+03  0.54729121901E+02  0.29569473311E+03  0.19200000000E+03 0.  0.
<mgrwt>
<rscale>  0 0.58407273E+03</rscale>
<asrwt>0</asrwt>
<pdfrwt beam="1">  1        1 0.55594842E-01 0.58407273E+03</pdfrwt>
<pdfrwt beam="2">  1       -1 0.31307132E-01 0.58407273E+03</pdfrwt>
<totfact> 0.65473649E+02</totfact>
</mgrwt>
</event>
<event>
 4    1  0.1454935E-005  0.5218013E+03  0.7818608E-02  0.1008240E+00
         -1   -1    0    0    0  501 -0.00000000000E+00  0.00000000000E+00  0.20596020512E+03  0.20596020518E+03  0.50400000000E-02 0. -1.
          1   -1    0    0  501    0  0.00000000000E+00 -0.00000000000E+00 -0.33049659053E+03  0.33049659057E+03  0.50400000000E-02 0.  1.
    5000001    1    1    2    0    0 -0.16615311454E+03  0.20555308465E+01 -0.12390248931E+03  0.28253656318E+03  0.19200000000E+03 0.  0.
   -5000001    1    1    2    0    0  0.16615311454E+03 -0.20555308465E+01 -0.63389610552E+00  0.25392023256E+03  0.19200000000E+03 0.  0.
<mgrwt>
<rscale>  0 0.52180129E+03</rscale>
<asrwt>0</asrwt>
<pdfrwt beam="1">  1        1 0.47213799E-01 0.52180129E+03</pdfrwt>
<pdfrwt beam="2">  1       -1 0.29422887E-01 0.52180129E+03</pdfrwt>
<totfact> 0.90172635E+02</totfact>
</mgrwt>
</event>
<event>
 4    1  0.1454935E-005  0.4169051E+03  0.7818608E-02  0.1038078E+00
          1   -1    0    0  501    0  0.00000000000E+00  0.00000000000E+00  0.62597618197E+02  0.62597618400E+02  0.50400000000E-02 0.  1.
         -1   -1    0    0    0  501 -0.00000000000E+00 -0.00000000000E+00 -0.69415538539E+03  0.69415538541E+03  0.50400000000E-02 0. -1.
    5000001    1    1    2    0    0  0.10840537749E+02 -0.78236669667E+02 -0.28182115777E+03  0.35003665338E+03  0.19200000000E+03 0.  0.
   -5000001    1    1    2    0    0 -0.10840537749E+02  0.78236669667E+02 -0.34973660942E+03  0.40671635043E+03  0.19200000000E+03 0.  0.
<mgrwt>
<rscale>  0 0.41690514E+03</rscale>
<asrwt>0</asrwt>
<pdfrwt beam="1">  1        1 0.89425173E-02 0.41690514E+03</pdfrwt>
<pdfrwt beam="2">  1       -1 0.99165051E-01 0.41690514E+03</pdfrwt>
<totfact> 0.76904580E+02</totfact>
</mgrwt>
</event>
<event>
 4    1  0.1454935E-005  0.8951664E+03  0.7818608E-02  0.9431644E-01
         -1   -1    0    0    0  501 -0.00000000000E+00  0.00000000000E+00  0.61184218138E+03  0.61184218140E+03  0.50400000000E-02 0. -1.
          1   -1    0    0  501    0  0.00000000000E+00 -0.00000000000E+00 -0.32742218144E+03  0.32742218148E+03  0.50400000000E-02 0.  1.
    5000001    1    1    2    0    0  0.20990474526E+03 -0.31460723691E+03 -0.77610734845E+01  0.42421922382E+03  0.19200000000E+03 0.  0.
   -5000001    1    1    2    0    0 -0.20990474526E+03  0.31460723691E+03  0.29218107342E+03  0.51504513905E+03  0.19200000000E+03 0.  0.
<mgrwt>
<rscale>  0 0.89516636E+03</rscale>
<asrwt>0</asrwt>
<pdfrwt beam="1">  1        1 0.46774597E-01 0.89516636E+03</pdfrwt>
<pdfrwt beam="2">  1       -1 0.87406026E-01 0.89516636E+03</pdfrwt>
<totfact> 0.11190028E+02</totfact>
</mgrwt>
</event>
<event>
 4    1  0.1454935E-005  0.7068666E+03  0.7818608E-02  0.9705561E-01
         -1   -1    0    0    0  501 -0.00000000000E+00  0.00000000000E+00  0.58412455671E+03  0.58412455673E+03  0.50400000000E-02 0. -1.
          1   -1    0    0  501    0  0.00000000000E+00 -0.00000000000E+00 -0.21385011513E+03  0.21385011519E+03  0.50400000000E-02 0.  1.
    5000001    1    1    2    0    0 -0.28644391088E+03 -0.44484408785E+02  0.25673169867E+03  0.43220844717E+03  0.19200000000E+03 0.  0.
   -5000001    1    1    2    0    0  0.28644391088E+03  0.44484408785E+02  0.11354274291E+03  0.36576622475E+03  0.19200000000E+03 0.  0.
<mgrwt>
<rscale>  0 0.70686662E+03</rscale>
<asrwt>0</asrwt>
<pdfrwt beam="1">  1        1 0.30550017E-01 0.70686662E+03</pdfrwt>
<pdfrwt beam="2">  1       -1 0.83446364E-01 0.70686662E+03</pdfrwt>
<totfact> 0.21686041E+02</totfact>
</mgrwt>
</event>
<event>
 4    1  0.1454935E-005  0.6302835E+03  0.7818608E-02  0.9844496E-01
         -1   -1    0    0    0  501 -0.00000000000E+00  0.00000000000E+00  0.11833238690E+03  0.11833238701E+03  0.50400000000E-02 0. -1.
          1   -1    0    0  501    0  0.00000000000E+00 -0.00000000000E+00 -0.83928267057E+03  0.83928267058E+03  0.50400000000E-02 0.  1.
    5000001    1    1    2    0    0 -0.18932274663E+03 -0.15192810017E+03 -0.27026839724E+03  0.41089445915E+03  0.19200000000E+03 0.  0.
   -5000001    1    1    2    0    0  0.18932274663E+03  0.15192810017E+03 -0.45068188642E+03  0.54672059844E+03  0.19200000000E+03 0.  0.
<mgrwt>
<rscale>  0 0.63028350E+03</rscale>
<asrwt>0</asrwt>
<pdfrwt beam="1">  1        1 0.11989752E+00 0.63028350E+03</pdfrwt>
<pdfrwt beam="2">  1       -1 0.16904627E-01 0.63028350E+03</pdfrwt>
<totfact> 0.62922317E+02</totfact>
</mgrwt>
</event>
<event>
 4    1  0.1454935E-005  0.8531838E+03  0.7818608E-02  0.9486074E-01
         -1   -1    0    0    0  501 -0.00000000000E+00  0.00000000000E+00  0.11097078179E+03  0.11097078191E+03  0.50400000000E-02 0. -1.
          1   -1    0    0  501    0  0.00000000000E+00 -0.00000000000E+00 -0.16398971047E+04  0.16398971047E+04  0.50400000000E-02 0.  1.
    5000001    1    1    2    0    0  0.15519939385E+03  0.79580397179E+02 -0.14594656466E+04  0.14823372980E+04  0.19200000000E+03 0.  0.
   -5000001    1    1    2    0    0 -0.15519939385E+03 -0.79580397179E+02 -0.69460676310E+02  0.26853058861E+03  0.19200000000E+03 0.  0.
<mgrwt>
<rscale>  0 0.85318383E+03</rscale>
<asrwt>0</asrwt>
<pdfrwt beam="1">  1        1 0.23427100E+00 0.85318383E+03</pdfrwt>
<pdfrwt beam="2">  1       -1 0.15852970E-01 0.85318383E+03</pdfrwt>
<totfact> 0.19182354E+02</totfact>
</mgrwt>
</event>
<event>
 4    1  0.1454935E-005  0.4245387E+03  0.7818608E-02  0.1035599E+00
         -1   -1    0    0    0  501 -0.00000000000E+00  0.00000000000E+00  0.23900364253E+03  0.23900364259E+03  0.50400000000E-02 0. -1.
          1   -1    0    0  501    0  0.00000000000E+00 -0.00000000000E+00 -0.18852552469E+03  0.18852552476E+03  0.50400000000E-02 0.  1.
    5000001    1    1    2    0    0 -0.84111643252E+02 -0.26060682219E+02  0.41065006920E+01  0.21126947493E+03  0.19200000000E+03 0.  0.
   -5000001    1    1    2    0    0  0.84111643252E+02  0.26060682219E+02  0.46371617150E+02  0.21625969242E+03  0.19200000000E+03 0.  0.
<mgrwt>
<rscale>  0 0.42453875E+03</rscale>
<asrwt>0</asrwt>
<pdfrwt beam="1">  1        1 0.26932218E-01 0.42453875E+03</pdfrwt>
<pdfrwt beam="2">  1       -1 0.34143377E-01 0.42453875E+03</pdfrwt>
<totfact> 0.14284719E+03</totfact>
</mgrwt>
</event>
<event>
 4    1  0.1454935E-005  0.7712799E+03  0.7818608E-02  0.9602545E-01
         -1   -1    0    0    0  501 -0.00000000000E+00  0.00000000000E+00  0.16640559049E+03  0.16640559057E+03  0.50400000000E-02 0. -1.
          1   -1    0    0  501    0  0.00000000000E+00 -0.00000000000E+00 -0.89370907883E+03  0.89370907885E+03  0.50400000000E-02 0.  1.
    5000001    1    1    2    0    0  0.30418430081E+03  0.93709938011E+02 -0.50479324912E+03  0.62688903779E+03  0.19200000000E+03 0.  0.
   -5000001    1    1    2    0    0 -0.30418430081E+03 -0.93709938011E+02 -0.22251023921E+03  0.43322563163E+03  0.19200000000E+03 0.  0.
<mgrwt>
<rscale>  0 0.77127994E+03</rscale>
<asrwt>0</asrwt>
<pdfrwt beam="1">  1        1 0.12767272E+00 0.77127994E+03</pdfrwt>
<pdfrwt beam="2">  1       -1 0.23772228E-01 0.77127994E+03</pdfrwt>
<totfact> 0.32078202E+02</totfact>
</mgrwt>
</event>
<event>
 4    1  0.1454935E-005  0.9289324E+03  0.7818608E-02  0.9390120E-01
          1   -1    0    0  501    0  0.00000000000E+00  0.00000000000E+00  0.12451244305E+04  0.12451244305E+04  0.50400000000E-02 0.  1.
         -1   -1    0    0    0  501 -0.00000000000E+00 -0.00000000000E+00 -0.17325886645E+03  0.17325886652E+03  0.50400000000E-02 0. -1.
    5000001    1    1    2    0    0 -0.79516460275E+02  0.40865596158E+03  0.42226066933E+03  0.62329016939E+03  0.19200000000E+03 0.  0.
   -5000001    1    1    2    0    0  0.79516460275E+02 -0.40865596158E+03  0.64960489472E+03  0.79509312765E+03  0.19200000000E+03 0.  0.
<mgrwt>
<rscale>  0 0.92893239E+03</rscale>
<asrwt>0</asrwt>
<pdfrwt beam="1">  1        1 0.17787492E+00 0.92893239E+03</pdfrwt>
<pdfrwt beam="2">  1       -1 0.24751267E-01 0.92893239E+03</pdfrwt>
<totfact> 0.16468900E+02</totfact>
</mgrwt>
</event>
<event>
 4    1  0.1454935E-005  0.9316045E+03  0.7818608E-02  0.9386914E-01
         -1   -1    0    0    0  501 -0.00000000000E+00  0.00000000000E+00  0.63783578154E+03  0.63783578156E+03  0.50400000000E-02 0. -1.
          1   -1    0    0  501    0  0.00000000000E+00 -0.00000000000E+00 -0.34016868407E+03  0.34016868411E+03  0.50400000000E-02 0.  1.
    5000001    1    1    2    0    0  0.63991651415E+02  0.29964854061E+03 -0.15943006196E+03  0.39517859760E+03  0.19200000000E+03 0.  0.
   -5000001    1    1    2    0    0 -0.63991651415E+02 -0.29964854061E+03  0.45709715942E+03  0.58282586807E+03  0.19200000000E+03 0.  0.
<mgrwt>
<rscale>  0 0.93160455E+03</rscale>
<asrwt>0</asrwt>
<pdfrwt beam="1">  1        1 0.48595527E-01 0.93160455E+03</pdfrwt>
<pdfrwt beam="2">  1       -1 0.91119396E-01 0.93160455E+03</pdfrwt>
<totfact> 0.96962400E+01</totfact>
</mgrwt>
</event>
<event>
 4    1  0.1454935E-005  0.6884217E+03  0.7818608E-02  0.9737240E-01
         -1   -1    0    0    0  501 -0.00000000000E+00  0.00000000000E+00  0.76010672447E+03  0.76010672449E+03  0.50400000000E-02 0. -1.
          1   -1    0    0  501    0  0.00000000000E+00 -0.00000000000E+00 -0.15587430200E+03  0.15587430208E+03  0.50400000000E-02 0.  1.
    5000001    1    1    2    0    0 -0.64607768586E+02 -0.13442575875E+03 -0.22092870000E+02  0.24412403258E+03  0.19200000000E+03 0.  0.
   -5000001    1    1    2    0    0  0.64607768586E+02  0.13442575875E+03  0.62632529247E+03  0.67185699399E+03  0.19200000000E+03 0.  0.
<mgrwt>
<rscale>  0 0.68842169E+03</rscale>
<asrwt>0</asrwt>
<pdfrwt beam="1">  1        1 0.22267757E-01 0.68842169E+03</pdfrwt>
<pdfrwt beam="2">  1       -1 0.10858668E+00 0.68842169E+03</pdfrwt>
<totfact> 0.18178803E+02</totfact>
</mgrwt>
</event>
<event>
 4    1  0.1454935E-005  0.7023720E+03  0.7818608E-02  0.9713184E-01
         -1   -1    0    0    0  501 -0.00000000000E+00  0.00000000000E+00  0.25559754337E+03  0.25559754342E+03  0.50400000000E-02 0. -1.
          1   -1    0    0  501    0  0.00000000000E+00 -0.00000000000E+00 -0.48252265805E+03  0.48252265808E+03  0.50400000000E-02 0.  1.
    5000001    1    1    2    0    0  0.24121757784E+03  0.16628591850E+03 -0.13985406847E+03  0.37717381539E+03  0.19200000000E+03 0.  0.
   -5000001    1    1    2    0    0 -0.24121757784E+03 -0.16628591850E+03 -0.87071046216E+02  0.36094638610E+03  0.19200000000E+03 0.  0.
<mgrwt>
<rscale>  0 0.70237200E+03</rscale>
<asrwt>0</asrwt>
<pdfrwt beam="1">  1        1 0.68931808E-01 0.70237200E+03</pdfrwt>
<pdfrwt beam="2">  1       -1 0.36513935E-01 0.70237200E+03</pdfrwt>
<totfact> 0.37421351E+02</totfact>
</mgrwt>
</event>
<event>
 4    1  0.1454935E-005  0.6091967E+03  0.7818608E-02  0.9886507E-01
         -1   -1    0    0    0  501 -0.00000000000E+00  0.00000000000E+00  0.36396127194E+03  0.36396127198E+03  0.50400000000E-02 0. -1.
          1   -1    0    0  501    0  0.00000000000E+00 -0.00000000000E+00 -0.25491768042E+03  0.25491768047E+03  0.50400000000E-02 0.  1.
    5000001    1    1    2    0    0 -0.20036517945E+03 -0.12556134684E+03  0.56629933526E+02  0.30981092029E+03  0.19200000000E+03 0.  0.
   -5000001    1    1    2    0    0  0.20036517945E+03  0.12556134684E+03  0.52413658001E+02  0.30906803216E+03  0.19200000000E+03 0.  0.
<mgrwt>
<rscale>  0 0.60919673E+03</rscale>
<asrwt>0</asrwt>
<pdfrwt beam="1">  1        1 0.36416812E-01 0.60919673E+03</pdfrwt>
<pdfrwt beam="2">  1       -1 0.51994467E-01 0.60919673E+03</pdfrwt>
<totfact> 0.44967488E+02</totfact>
</mgrwt>
</event>
<event>
 4    1  0.1454935E-005  0.5759135E+03  0.7818608E-02  0.9956678E-01
          1   -1    0    0  501    0  0.00000000000E+00  0.00000000000E+00  0.19353806302E+04  0.19353806302E+04  0.50400000000E-02 0. -1.
         -1   -1    0    0    0  501 -0.00000000000E+00 -0.00000000000E+00 -0.42843808090E+02  0.42843808386E+02  0.50400000000E-02 0.  1.
    5000001    1    1    2    0    0 -0.10689272945E+02 -0.19538315830E+03  0.64356056889E+03  0.69951629354E+03  0.19200000000E+03 0.  0.
   -5000001    1    1    2    0    0  0.10689272945E+02  0.19538315830E+03  0.12489762532E+04  0.12787081450E+04  0.19200000000E+03 0.  0.
<mgrwt>
<rscale>  0 0.57591345E+03</rscale>
<asrwt>0</asrwt>
<pdfrwt beam="1">  1        1 0.27648301E+00 0.57591345E+03</pdfrwt>
<pdfrwt beam="2">  1       -1 0.61205426E-02 0.57591345E+03</pdfrwt>
<totfact> 0.57635142E+02</totfact>
</mgrwt>
</event>
<event>
 4    1  0.1454935E-005  0.5215251E+03  0.7818608E-02  0.1008308E+00
         -1   -1    0    0    0  501 -0.00000000000E+00  0.00000000000E+00  0.62924864844E+02  0.62924865046E+02  0.50400000000E-02 0.  1.
          1   -1    0    0  501    0  0.00000000000E+00 -0.00000000000E+00 -0.10806080758E+04  0.10806080758E+04  0.50400000000E-02 0. -1.
    5000001    1    1    2    0    0 -0.11645636568E+03  0.11437773533E+03 -0.65574671681E+03  0.70250416942E+03  0.19200000000E+03 0.  0.
   -5000001    1    1    2    0    0  0.11645636568E+03 -0.11437773533E+03 -0.36193649418E+03  0.44102877147E+03  0.19200000000E+03 0.  0.
<mgrwt>
<rscale>  0 0.52152514E+03</rscale>
<asrwt>0</asrwt>
<pdfrwt beam="1">  1        1 0.15437257E+00 0.52152514E+03</pdfrwt>
<pdfrwt beam="2">  1       -1 0.89892671E-02 0.52152514E+03</pdfrwt>
<totfact> 0.11374265E+03</totfact>
</mgrwt>
</event>
<event>
 4    1  0.1454935E-005  0.5021371E+03  0.7818608E-02  0.1013223E+00
          1   -1    0    0  501    0  0.00000000000E+00  0.00000000000E+00  0.69856832229E+03  0.69856832230E+03  0.50400000000E-02 0. -1.
         -1   -1    0    0    0  501 -0.00000000000E+00 -0.00000000000E+00 -0.90235150742E+02  0.90235150883E+02  0.50400000000E-02 0.  1.
    5000001    1    1    2    0    0  0.10957680842E+03 -0.28149299101E+02  0.12251298906E+03  0.25430865591E+03  0.19200000000E+03 0.  0.
   -5000001    1    1    2    0    0 -0.10957680842E+03  0.28149299101E+02  0.48582018249E+03  0.53449481728E+03  0.19200000000E+03 0.  0.
<mgrwt>
<rscale>  0 0.50213710E+03</rscale>
<asrwt>0</asrwt>
<pdfrwt beam="1">  1        1 0.99795475E-01 0.50213710E+03</pdfrwt>
<pdfrwt beam="2">  1       -1 0.12890736E-01 0.50213710E+03</pdfrwt>
<totfact> 0.12897658E+03</totfact>
</mgrwt>
</event>
<event>
 4    1  0.1454935E-005  0.4712338E+03  0.7818608E-02  0.1021573E+00
         -1   -1    0    0    0  501 -0.00000000000E+00  0.00000000000E+00  0.67188457567E+03  0.67188457568E+03  0.50400000000E-02 0. -1.
          1   -1    0    0  501    0  0.00000000000E+00 -0.00000000000E+00 -0.82626283085E+02  0.82626283239E+02  0.50400000000E-02 0.  1.
    5000001    1    1    2    0    0  0.26891142886E+02  0.12813670784E+03  0.23242791753E+03  0.32867748069E+03  0.19200000000E+03 0.  0.
   -5000001    1    1    2    0    0 -0.26891142886E+02 -0.12813670784E+03  0.35683037505E+03  0.42583337824E+03  0.19200000000E+03 0.  0.
<mgrwt>
<rscale>  0 0.47123381E+03</rscale>
<asrwt>0</asrwt>
<pdfrwt beam="1">  1        1 0.11803755E-01 0.47123381E+03</pdfrwt>
<pdfrwt beam="2">  1       -1 0.95983511E-01 0.47123381E+03</pdfrwt>
<totfact> 0.56638782E+02</totfact>
</mgrwt>
</event>
<event>
 4    1  0.1454935E-005  0.6128752E+03  0.7818608E-02  0.9879048E-01
         -1   -1    0    0    0  501 -0.00000000000E+00  0.00000000000E+00  0.81467781401E+02  0.81467781557E+02  0.50400000000E-02 0. -1.
          1   -1    0    0  501    0  0.00000000000E+00 -0.00000000000E+00 -0.11526519171E+04  0.11526519171E+04  0.50400000000E-02 0.  1.
    5000001    1    1    2    0    0  0.21539633711E+03 -0.11058447361E+02 -0.32903648060E+03  0.43777491575E+03  0.19200000000E+03 0.  0.
   -5000001    1    1    2    0    0 -0.21539633711E+03  0.11058447361E+02 -0.74214765509E+03  0.79634478290E+03  0.19200000000E+03 0.  0.
<mgrwt>
<rscale>  0 0.61287517E+03</rscale>
<asrwt>0</asrwt>
<pdfrwt beam="1">  1        1 0.16466455E+00 0.61287517E+03</pdfrwt>
<pdfrwt beam="2">  1       -1 0.11638255E-01 0.61287517E+03</pdfrwt>
<totfact> 0.67133257E+02</totfact>
</mgrwt>
</event>
<event>
 4    1  0.1454935E-005  0.7880455E+03  0.7818608E-02  0.9577484E-01
          1   -1    0    0  501    0  0.00000000000E+00  0.00000000000E+00  0.26028787883E+03  0.26028787888E+03  0.50400000000E-02 0. -1.
         -1   -1    0    0    0  501 -0.00000000000E+00 -0.00000000000E+00 -0.59647005921E+03  0.59647005923E+03  0.50400000000E-02 0.  1.
    5000001    1    1    2    0    0  0.23139690971E+03 -0.25464262690E+03 -0.16982012749E+03  0.42905742385E+03  0.19200000000E+03 0.  0.
   -5000001    1    1    2    0    0 -0.23139690971E+03  0.25464262690E+03 -0.16636205289E+03  0.42770051426E+03  0.19200000000E+03 0.  0.
<mgrwt>
<rscale>  0 0.78804550E+03</rscale>
<asrwt>0</asrwt>
<pdfrwt beam="1">  1        1 0.37183983E-01 0.78804550E+03</pdfrwt>
<pdfrwt beam="2">  1       -1 0.85210008E-01 0.78804550E+03</pdfrwt>
<totfact> 0.16012723E+02</totfact>
</mgrwt>
</event>
<event>
 4    1  0.1454935E-005  0.7345325E+03  0.7818608E-02  0.9659934E-01
         -1   -1    0    0    0  501 -0.00000000000E+00  0.00000000000E+00  0.11551309049E+03  0.11551309060E+03  0.50400000000E-02 0. -1.
          1   -1    0    0  501    0  0.00000000000E+00 -0.00000000000E+00 -0.11676989556E+04  0.11676989556E+04  0.50400000000E-02 0.  1.
    5000001    1    1    2    0    0 -0.20569923410E+03  0.21493259198E+03 -0.35570821538E+03  0.50189693015E+03  0.19200000000E+03 0.  0.
   -5000001    1    1    2    0    0  0.20569923410E+03 -0.21493259198E+03 -0.69647764975E+03  0.78131511607E+03  0.19200000000E+03 0.  0.
<mgrwt>
<rscale>  0 0.73453255E+03</rscale>
<asrwt>0</asrwt>
<pdfrwt beam="1">  1        1 0.16681413E+00 0.73453255E+03</pdfrwt>
<pdfrwt beam="2">  1       -1 0.16501871E-01 0.73453255E+03</pdfrwt>
<totfact> 0.37084175E+02</totfact>
</mgrwt>
</event>
<event>
 4    1  0.1454935E-005  0.4931924E+03  0.7818608E-02  0.1015571E+00
          1   -1    0    0  501    0  0.00000000000E+00  0.00000000000E+00  0.62746707451E+03  0.62746707453E+03  0.50400000000E-02 0.  1.
         -1   -1    0    0    0  501 -0.00000000000E+00 -0.00000000000E+00 -0.96912952252E+02  0.96912952383E+02  0.50400000000E-02 0. -1.
    5000001    1    1    2    0    0  0.10205109515E+03 -0.10557585384E+02  0.95130538012E+02  0.23757042723E+03  0.19200000000E+03 0.  0.
   -5000001    1    1    2    0    0 -0.10205109515E+03  0.10557585384E+02  0.43542358424E+03  0.48680959968E+03  0.19200000000E+03 0.  0.
<mgrwt>
<rscale>  0 0.49319240E+03</rscale>
<asrwt>0</asrwt>
<pdfrwt beam="1">  1        1 0.89638151E-01 0.49319240E+03</pdfrwt>
<pdfrwt beam="2">  1       -1 0.13844708E-01 0.49319240E+03</pdfrwt>
<totfact> 0.13416655E+03</totfact>
</mgrwt>
</event>
<event>
 4    1  0.1454935E-005  0.5804946E+03  0.7818608E-02  0.9946721E-01
          1   -1    0    0  501    0  0.00000000000E+00  0.00000000000E+00  0.13079603254E+03  0.13079603264E+03  0.50400000000E-02 0.  1.
         -1   -1    0    0    0  501 -0.00000000000E+00 -0.00000000000E+00 -0.64408300885E+03  0.64408300887E+03  0.50400000000E-02 0. -1.
    5000001    1    1    2    0    0 -0.13635019974E+03  0.13639119487E+03 -0.12192465211E+03  0.29820052951E+03  0.19200000000E+03 0.  0.
   -5000001    1    1    2    0    0  0.13635019974E+03 -0.13639119487E+03 -0.39136232419E+03  0.47667851200E+03  0.19200000000E+03 0.  0.
<mgrwt>
<rscale>  0 0.58049462E+03</rscale>
<asrwt>0</asrwt>
<pdfrwt beam="1">  1        1 0.18685148E-01 0.58049462E+03</pdfrwt>
<pdfrwt beam="2">  1       -1 0.92011857E-01 0.58049462E+03</pdfrwt>
<totfact> 0.33530189E+02</totfact>
</mgrwt>
</event>
<event>
 4    1  0.1454935E-005  0.4134433E+03  0.7818608E-02  0.1039222E+00
         -1   -1    0    0    0  501 -0.00000000000E+00  0.00000000000E+00  0.79902541807E+02  0.79902541966E+02  0.50400000000E-02 0. -1.
          1   -1    0    0  501    0  0.00000000000E+00 -0.00000000000E+00 -0.53482443038E+03  0.53482443040E+03  0.50400000000E-02 0.  1.
    5000001    1    1    2    0    0 -0.27560430305E+01 -0.55710580418E+02 -0.30555322720E+03  0.36515481538E+03  0.19200000000E+03 0.  0.
   -5000001    1    1    2    0    0  0.27560430305E+01  0.55710580418E+02 -0.14936866138E+03  0.24957215699E+03  0.19200000000E+03 0.  0.
<mgrwt>
<rscale>  0 0.41344326E+03</rscale>
<asrwt>0</asrwt>
<pdfrwt beam="1">  1        1 0.76403488E-01 0.41344326E+03</pdfrwt>
<pdfrwt beam="2">  1       -1 0.11414649E-01 0.41344326E+03</pdfrwt>
<totfact> 0.22700299E+03</totfact>
</mgrwt>
</event>
<event>
 4    1  0.1454935E-005  0.5407440E+03  0.7818608E-02  0.1003659E+00
          1   -1    0    0  501    0  0.00000000000E+00  0.00000000000E+00  0.45276299333E+03  0.45276299336E+03  0.50400000000E-02 0.  1.
         -1   -1    0    0    0  501 -0.00000000000E+00 -0.00000000000E+00 -0.16145535808E+03  0.16145535816E+03  0.50400000000E-02 0. -1.
    5000001    1    1    2    0    0  0.41089229935E+02  0.16448191554E+03  0.24398678066E+03  0.35374591798E+03  0.19200000000E+03 0.  0.
   -5000001    1    1    2    0    0 -0.41089229935E+02 -0.16448191554E+03  0.47320854590E+02  0.26047243354E+03  0.19200000000E+03 0.  0.
<mgrwt>
<rscale>  0 0.54074397E+03</rscale>
<asrwt>0</asrwt>
<pdfrwt beam="1">  1        1 0.64680429E-01 0.54074397E+03</pdfrwt>
<pdfrwt beam="2">  1       -1 0.23065051E-01 0.54074397E+03</pdfrwt>
<totfact> 0.90577641E+02</totfact>
</mgrwt>
</event>
<event>
 4    1  0.1454935E-005  0.5475462E+03  0.7818608E-02  0.1002063E+00
         -1   -1    0    0    0  501 -0.00000000000E+00  0.00000000000E+00  0.23073025268E+02  0.23073025819E+02  0.50400000000E-02 0. -1.
          1   -1    0    0  501    0  0.00000000000E+00 -0.00000000000E+00 -0.32484560146E+04  0.32484560146E+04  0.50400000000E-02 0.  1.
    5000001    1    1    2    0    0  0.39080049336E+02 -0.18142214713E+03 -0.19734909842E+04  0.19914748078E+04  0.19200000000E+03 0.  0.
   -5000001    1    1    2    0    0 -0.39080049336E+02  0.18142214713E+03 -0.12518920052E+04  0.12800542326E+04  0.19200000000E+03 0.  0.
<mgrwt>
<rscale>  0 0.54754619E+03</rscale>
<asrwt>0</asrwt>
<pdfrwt beam="1">  1        1 0.46406485E+00 0.54754619E+03</pdfrwt>
<pdfrwt beam="2">  1       -1 0.32961486E-02 0.54754619E+03</pdfrwt>
<totfact> 0.22052763E+02</totfact>
</mgrwt>
</event>
<event>
 4    1  0.1454935E-005  0.5281279E+03  0.7818608E-02  0.1006687E+00
         -1   -1    0    0    0  501 -0.00000000000E+00  0.00000000000E+00  0.28489878744E+03  0.28489878749E+03  0.50400000000E-02 0. -1.
          1   -1    0    0  501    0  0.00000000000E+00 -0.00000000000E+00 -0.24475274814E+03  0.24475274819E+03  0.50400000000E-02 0.  1.
    5000001    1    1    2    0    0  0.12324935621E+03  0.28207566337E+01  0.15337526998E+03  0.27492968904E+03  0.19200000000E+03 0.  0.
   -5000001    1    1    2    0    0 -0.12324935621E+03 -0.28207566337E+01 -0.11322923068E+03  0.25472184664E+03  0.19200000000E+03 0.  0.
<mgrwt>
<rscale>  0 0.52812787E+03</rscale>
<asrwt>0</asrwt>
<pdfrwt beam="1">  1        1 0.34964678E-01 0.52812787E+03</pdfrwt>
<pdfrwt beam="2">  1       -1 0.40699827E-01 0.52812787E+03</pdfrwt>
<totfact> 0.74740151E+02</totfact>
</mgrwt>
</event>
<event>
 4    1  0.1454935E-005  0.4420181E+03  0.7818608E-02  0.1030129E+00
          1   -1    0    0  501    0  0.00000000000E+00  0.00000000000E+00  0.53151194592E+03  0.53151194594E+03  0.50400000000E-02 0.  1.
         -1   -1    0    0    0  501 -0.00000000000E+00 -0.00000000000E+00 -0.91898237185E+02  0.91898237323E+02  0.50400000000E-02 0. -1.
    5000001    1    1    2    0    0  0.57803421030E+02 -0.85378410184E+02  0.27163304988E+03  0.34825166503E+03  0.19200000000E+03 0.  0.
   -5000001    1    1    2    0    0 -0.57803421030E+02  0.85378410184E+02  0.16798065885E+03  0.27515851823E+03  0.19200000000E+03 0.  0.
<mgrwt>
<rscale>  0 0.44201815E+03</rscale>
<asrwt>0</asrwt>
<pdfrwt beam="1">  1        1 0.75930276E-01 0.44201815E+03</pdfrwt>
<pdfrwt beam="2">  1       -1 0.13128320E-01 0.44201815E+03</pdfrwt>
<totfact> 0.18351502E+03</totfact>
</mgrwt>
</event>
<event>
 4    1  0.1454935E-005  0.5391499E+03  0.7818608E-02  0.1004037E+00
          1   -1    0    0  501    0  0.00000000000E+00  0.00000000000E+00  0.89129740255E+03  0.89129740256E+03  0.50400000000E-02 0.  1.
         -1   -1    0    0    0  501 -0.00000000000E+00 -0.00000000000E+00 -0.81533552868E+02  0.81533553023E+02  0.50400000000E-02 0. -1.
    5000001    1    1    2    0    0  0.13197858877E+03  0.11487319389E+03  0.53490302931E+03  0.59464228687E+03  0.19200000000E+03 0.  0.
   -5000001    1    1    2    0    0 -0.13197858877E+03 -0.11487319389E+03  0.27486082037E+03  0.37818866872E+03  0.19200000000E+03 0.  0.
<mgrwt>
<rscale>  0 0.53914986E+03</rscale>
<asrwt>0</asrwt>
<pdfrwt beam="1">  1        1 0.12732821E+00 0.53914986E+03</pdfrwt>
<pdfrwt beam="2">  1       -1 0.11647650E-01 0.53914986E+03</pdfrwt>
<totfact> 0.10450215E+03</totfact>
</mgrwt>
</event>
<event>
 4    1  0.1454935E-005  0.7325444E+03  0.7818608E-02  0.9663140E-01
          1   -1    0    0  501    0  0.00000000000E+00  0.00000000000E+00  0.97253643029E+03  0.97253643030E+03  0.50400000000E-02 0.  1.
         -1   -1    0    0    0  501 -0.00000000000E+00 -0.00000000000E+00 -0.13794376209E+03  0.13794376218E+03  0.50400000000E-02 0. -1.
    5000001    1    1    2    0    0  0.25041528203E+03  0.54129092233E+02  0.68700080271E+03  0.75793922911E+03  0.19200000000E+03 0.  0.
   -5000001    1    1    2    0    0 -0.25041528203E+03 -0.54129092233E+02  0.14759186549E+03  0.35254096338E+03  0.19200000000E+03 0.  0.
<mgrwt>
<rscale>  0 0.73254443E+03</rscale>
<asrwt>0</asrwt>
<pdfrwt beam="1">  1        1 0.13893378E+00 0.73254443E+03</pdfrwt>
<pdfrwt beam="2">  1       -1 0.19706251E-01 0.73254443E+03</pdfrwt>
<totfact> 0.38288764E+02</totfact>
</mgrwt>
</event>
<event>
 4    1  0.1454935E-005  0.1161961E+04  0.7818608E-02  0.9146820E-01
         -1   -1    0    0    0  501 -0.00000000000E+00  0.00000000000E+00  0.42152887598E+03  0.42152887601E+03  0.50400000000E-02 0. -1.
          1   -1    0    0  501    0  0.00000000000E+00 -0.00000000000E+00 -0.80074759073E+03  0.80074759075E+03  0.50400000000E-02 0.  1.
    5000001    1    1    2    0    0  0.37916567547E+03 -0.36312284525E+03 -0.35609501305E+03  0.66279142158E+03  0.19200000000E+03 0.  0.
   -5000001    1    1    2    0    0 -0.37916567547E+03  0.36312284525E+03 -0.23123701702E+02  0.55948504518E+03  0.19200000000E+03 0.  0.
<mgrwt>
<rscale>  0 0.11619608E+04</rscale>
<asrwt>0</asrwt>
<pdfrwt beam="1">  1        1 0.11439251E+00 0.11619608E+04</pdfrwt>
<pdfrwt beam="2">  1       -1 0.60218411E-01 0.11619608E+04</pdfrwt>
<totfact> 0.68959981E+01</totfact>
</mgrwt>
</event>
<event>
 4    1  0.1454935E-005  0.7453065E+03  0.7818608E-02  0.9642743E-01
         -1   -1    0    0    0  501 -0.00000000000E+00  0.00000000000E+00  0.15877343016E+04  0.15877343017E+04  0.50400000000E-02 0. -1.
          1   -1    0    0  501    0  0.00000000000E+00 -0.00000000000E+00 -0.87464546511E+02  0.87464546657E+02  0.50400000000E-02 0.  1.
    5000001    1    1    2    0    0 -0.89804039939E+02  0.28617664485E+03  0.50345822858E+03  0.61668146200E+03  0.19200000000E+03 0.  0.
   -5000001    1    1    2    0    0  0.89804039939E+02 -0.28617664485E+03  0.99681152656E+03  0.10585173863E+04  0.19200000000E+03 0.  0.
<mgrwt>
<rscale>  0 0.74530654E+03</rscale>
<asrwt>0</asrwt>
<pdfrwt beam="1">  1        1 0.12494936E-01 0.74530654E+03</pdfrwt>
<pdfrwt beam="2">  1       -1 0.22681917E+00 0.74530654E+03</pdfrwt>
<totfact> 0.50319538E+01</totfact>
</mgrwt>
</event>
<event>
 4    1  0.1454935E-005  0.5214157E+03  0.7818608E-02  0.1008335E+00
          1   -1    0    0  501    0  0.00000000000E+00  0.00000000000E+00  0.45591801529E+03  0.45591801532E+03  0.50400000000E-02 0.  1.
         -1   -1    0    0    0  501 -0.00000000000E+00 -0.00000000000E+00 -0.14908069213E+03  0.14908069221E+03  0.50400000000E-02 0. -1.
    5000001    1    1    2    0    0 -0.22917825402E+02 -0.10911268084E+03 -0.51386854824E+01  0.22208379034E+03  0.19200000000E+03 0.  0.
   -5000001    1    1    2    0    0  0.22917825402E+02  0.10911268084E+03  0.31197600865E+03  0.38291491720E+03  0.19200000000E+03 0.  0.
<mgrwt>
<rscale>  0 0.52141566E+03</rscale>
<asrwt>0</asrwt>
<pdfrwt beam="1">  1        1 0.65131145E-01 0.52141566E+03</pdfrwt>
<pdfrwt beam="2">  1       -1 0.21297242E-01 0.52141566E+03</pdfrwt>
<totfact> 0.10256494E+03</totfact>
</mgrwt>
</event>
<event>
 4    1  0.1454935E-005  0.5295349E+03  0.7818608E-02  0.1006345E+00
         -1   -1    0    0    0  501 -0.00000000000E+00  0.00000000000E+00  0.14453539317E+03  0.14453539325E+03  0.50400000000E-02 0. -1.
          1   -1    0    0  501    0  0.00000000000E+00 -0.00000000000E+00 -0.48501475542E+03  0.48501475545E+03  0.50400000000E-02 0.  1.
    5000001    1    1    2    0    0  0.78760447883E+02 -0.11209347091E+02 -0.36526188365E+03  0.42024885635E+03  0.19200000000E+03 0.  0.
   -5000001    1    1    2    0    0 -0.78760447883E+02  0.11209347091E+02  0.24782521399E+02  0.20930129235E+03  0.19200000000E+03 0.  0.
<mgrwt>
<rscale>  0 0.52953488E+03</rscale>
<asrwt>0</asrwt>
<pdfrwt beam="1">  1        1 0.69287822E-01 0.52953488E+03</pdfrwt>
<pdfrwt beam="2">  1       -1 0.20647914E-01 0.52953488E+03</pdfrwt>
<totfact> 0.99455039E+02</totfact>
</mgrwt>
</event>
<event>
 4    1  0.1454935E-005  0.7826170E+03  0.7818608E-02  0.9585525E-01
         -1   -1    0    0    0  501 -0.00000000000E+00  0.00000000000E+00  0.20867322027E+03  0.20867322033E+03  0.50400000000E-02 0. -1.
          1   -1    0    0  501    0  0.00000000000E+00 -0.00000000000E+00 -0.73379018205E+03  0.73379018207E+03  0.50400000000E-02 0.  1.
    5000001    1    1    2    0    0  0.33962417244E+03  0.29850806273E+02 -0.26829746596E+03  0.47442931969E+03  0.19200000000E+03 0.  0.
   -5000001    1    1    2    0    0 -0.33962417244E+03 -0.29850806273E+02 -0.25681949582E+03  0.46803408271E+03  0.19200000000E+03 0.  0.
<mgrwt>
<rscale>  0 0.78261705E+03</rscale>
<asrwt>0</asrwt>
<pdfrwt beam="1">  1        1 0.10482717E+00 0.78261705E+03</pdfrwt>
<pdfrwt beam="2">  1       -1 0.29810460E-01 0.78261705E+03</pdfrwt>
<totfact> 0.29536204E+02</totfact>
</mgrwt>
</event>
<event>
 4    1  0.1454935E-005  0.4383415E+03  0.7818608E-02  0.1031257E+00
         -1   -1    0    0    0  501 -0.00000000000E+00  0.00000000000E+00  0.71569307306E+03  0.71569307307E+03  0.50400000000E-02 0. -1.
          1   -1    0    0  501    0  0.00000000000E+00 -0.00000000000E+00 -0.67117889348E+02  0.67117889538E+02  0.50400000000E-02 0.  1.
    5000001    1    1    2    0    0  0.39848080990E+02  0.86137984679E+02  0.40736667646E+03  0.46023823294E+03  0.19200000000E+03 0.  0.
   -5000001    1    1    2    0    0 -0.39848080990E+02 -0.86137984679E+02  0.24120850724E+03  0.32257272968E+03  0.19200000000E+03 0.  0.
<mgrwt>
<rscale>  0 0.43834146E+03</rscale>
<asrwt>0</asrwt>
<pdfrwt beam="1">  1        1 0.95882694E-02 0.43834146E+03</pdfrwt>
<pdfrwt beam="2">  1       -1 0.10224187E+00 0.43834146E+03</pdfrwt>
<totfact> 0.65230410E+02</totfact>
</mgrwt>
</event>
<event>
 4    1  0.1454935E-005  0.4615347E+03  0.7818608E-02  0.1024337E+00
         -1   -1    0    0    0  501 -0.00000000000E+00  0.00000000000E+00  0.29691523262E+03  0.29691523266E+03  0.50400000000E-02 0. -1.
          1   -1    0    0  501    0  0.00000000000E+00 -0.00000000000E+00 -0.17935613689E+03  0.17935613696E+03  0.50400000000E-02 0.  1.
    5000001    1    1    2    0    0 -0.83321147488E+02  0.85118262429E+02  0.10355352037E+02  0.22618303547E+03  0.19200000000E+03 0.  0.
   -5000001    1    1    2    0    0  0.83321147488E+02 -0.85118262429E+02  0.10720374369E+03  0.25008833415E+03  0.19200000000E+03 0.  0.
<mgrwt>
<rscale>  0 0.46153470E+03</rscale>
<asrwt>0</asrwt>
<pdfrwt beam="1">  1        1 0.25622306E-01 0.46153470E+03</pdfrwt>
<pdfrwt beam="2">  1       -1 0.42416461E-01 0.46153470E+03</pdfrwt>
<totfact> 0.10347838E+03</totfact>
</mgrwt>
</event>
<event>
 4    1  0.1454935E-005  0.4812769E+03  0.7818608E-02  0.1018785E+00
          1   -1    0    0  501    0  0.00000000000E+00  0.00000000000E+00  0.10885937532E+04  0.10885937532E+04  0.50400000000E-02 0.  1.
         -1   -1    0    0    0  501 -0.00000000000E+00 -0.00000000000E+00 -0.53194190285E+02  0.53194190524E+02  0.50400000000E-02 0. -1.
    5000001    1    1    2    0    0 -0.70495702159E+02  0.12677298212E+03  0.51449010875E+03  0.56798336685E+03  0.19200000000E+03 0.  0.
   -5000001    1    1    2    0    0  0.70495702159E+02 -0.12677298212E+03  0.52090945420E+03  0.57380457692E+03  0.19200000000E+03 0.  0.
<mgrwt>
<rscale>  0 0.48127690E+03</rscale>
<asrwt>0</asrwt>
<pdfrwt beam="1">  1        1 0.15551338E+00 0.48127690E+03</pdfrwt>
<pdfrwt beam="2">  1       -1 0.75991706E-02 0.48127690E+03</pdfrwt>
<totfact> 0.14593205E+03</totfact>
</mgrwt>
</event>
<event>
 4    1  0.1454935E-005  0.4794138E+03  0.7818608E-02  0.1019296E+00
         -1   -1    0    0    0  501 -0.00000000000E+00  0.00000000000E+00  0.24097713046E+03  0.24097713052E+03  0.50400000000E-02 0. -1.
          1   -1    0    0  501    0  0.00000000000E+00 -0.00000000000E+00 -0.23844336014E+03  0.23844336019E+03  0.50400000000E-02 0.  1.
    5000001    1    1    2    0    0  0.14252411694E+03  0.23419402941E+01  0.17904068426E+02  0.23979817401E+03  0.19200000000E+03 0.  0.
   -5000001    1    1    2    0    0 -0.14252411694E+03 -0.23419402941E+01 -0.15370298102E+02  0.23962231669E+03  0.19200000000E+03 0.  0.
<mgrwt>
<rscale>  0 0.47941380E+03</rscale>
<asrwt>0</asrwt>
<pdfrwt beam="1">  1        1 0.34063337E-01 0.47941380E+03</pdfrwt>
<pdfrwt beam="2">  1       -1 0.34425304E-01 0.47941380E+03</pdfrwt>
<totfact> 0.10422589E+03</totfact>
</mgrwt>
</event>
<event>
 4    1  0.1454935E-005  0.4898231E+03  0.7818608E-02  0.1016470E+00
         -1   -1    0    0    0  501 -0.00000000000E+00  0.00000000000E+00  0.84394076872E+02  0.84394077023E+02  0.50400000000E-02 0. -1.
          1   -1    0    0  501    0  0.00000000000E+00 -0.00000000000E+00 -0.71073308312E+03  0.71073308314E+03  0.50400000000E-02 0.  1.
    5000001    1    1    2    0    0 -0.16714027622E+02  0.14743256392E+03 -0.36705561994E+03  0.44001084958E+03  0.19200000000E+03 0.  0.
   -5000001    1    1    2    0    0  0.16714027622E+02 -0.14743256392E+03 -0.25928338631E+03  0.35511631058E+03  0.19200000000E+03 0.  0.
<mgrwt>
<rscale>  0 0.48982308E+03</rscale>
<asrwt>0</asrwt>
<pdfrwt beam="1">  1        1 0.10153329E+00 0.48982308E+03</pdfrwt>
<pdfrwt beam="2">  1       -1 0.12056297E-01 0.48982308E+03</pdfrwt>
<totfact> 0.13991665E+03</totfact>
</mgrwt>
</event>
<event>
 4    1  0.1454935E-005  0.6528726E+03  0.7818608E-02  0.9801404E-01
         -1   -1    0    0    0  501 -0.00000000000E+00  0.00000000000E+00  0.11563132456E+03  0.11563132467E+03  0.50400000000E-02 0. -1.
          1   -1    0    0  501    0  0.00000000000E+00 -0.00000000000E+00 -0.92155519822E+03  0.92155519823E+03  0.50400000000E-02 0.  1.
    5000001    1    1    2    0    0 -0.19740055447E+03 -0.80426782433E+02 -0.15551356552E+03  0.32631873268E+03  0.19200000000E+03 0.  0.
   -5000001    1    1    2    0    0  0.19740055447E+03  0.80426782433E+02 -0.65041030813E+03  0.71086779022E+03  0.19200000000E+03 0.  0.
<mgrwt>
<rscale>  0 0.65287257E+03</rscale>
<asrwt>0</asrwt>
<pdfrwt beam="1">  1        1 0.13165074E+00 0.65287257E+03</pdfrwt>
<pdfrwt beam="2">  1       -1 0.16518761E-01 0.65287257E+03</pdfrwt>
<totfact> 0.56201045E+02</totfact>
</mgrwt>
</event>
<event>
 4    1  0.1454935E-005  0.6044877E+03  0.7818608E-02  0.9896139E-01
         -1   -1    0    0    0  501 -0.00000000000E+00  0.00000000000E+00  0.12354340785E+03  0.12354340795E+03  0.50400000000E-02 0.  1.
          1   -1    0    0  501    0  0.00000000000E+00 -0.00000000000E+00 -0.73942707837E+03  0.73942707839E+03  0.50400000000E-02 0. -1.
    5000001    1    1    2    0    0  0.14688378359E+03  0.17633764408E+03 -0.36880427330E+03  0.47492146993E+03  0.19200000000E+03 0.  0.
   -5000001    1    1    2    0    0 -0.14688378359E+03 -0.17633764408E+03 -0.24707939723E+03  0.38804901641E+03  0.19200000000E+03 0.  0.
<mgrwt>
<rscale>  0 0.60448769E+03</rscale>
<asrwt>0</asrwt>
<pdfrwt beam="1">  1        1 0.10563244E+00 0.60448769E+03</pdfrwt>
<pdfrwt beam="2">  1       -1 0.17649059E-01 0.60448769E+03</pdfrwt>
<totfact> 0.71217509E+02</totfact>
</mgrwt>
</event>
<event>
 4    1  0.1454935E-005  0.7274676E+03  0.7818608E-02  0.9671379E-01
          1   -1    0    0  501    0  0.00000000000E+00  0.00000000000E+00  0.36981375118E+03  0.36981375121E+03  0.50400000000E-02 0.  1.
         -1   -1    0    0    0  501 -0.00000000000E+00 -0.00000000000E+00 -0.35775378760E+03  0.35775378764E+03  0.50400000000E-02 0. -1.
    5000001    1    1    2    0    0 -0.22301480592E+03 -0.13241652692E+03 -0.16182790907E+03  0.36100140223E+03  0.19200000000E+03 0.  0.
   -5000001    1    1    2    0    0  0.22301480592E+03  0.13241652692E+03  0.17388787264E+03  0.36656613662E+03  0.19200000000E+03 0.  0.
<mgrwt>
<rscale>  0 0.72746758E+03</rscale>
<asrwt>0</asrwt>
<pdfrwt beam="1">  1        1 0.52830536E-01 0.72746758E+03</pdfrwt>
<pdfrwt beam="2">  1       -1 0.51107684E-01 0.72746758E+03</pdfrwt>
<totfact> 0.28604733E+02</totfact>
</mgrwt>
</event>
<event>
 4    1  0.1454935E-005  0.7080552E+03  0.7818608E-02  0.9703555E-01
         -1   -1    0    0    0  501 -0.00000000000E+00  0.00000000000E+00  0.35743815105E+03  0.35743815109E+03  0.50400000000E-02 0. -1.
          1   -1    0    0  501    0  0.00000000000E+00 -0.00000000000E+00 -0.35064955368E+03  0.35064955372E+03  0.50400000000E-02 0.  1.
    5000001    1    1    2    0    0 -0.14352554283E+03  0.25301538983E+03  0.65487080891E+02  0.35463914999E+03  0.19200000000E+03 0.  0.
   -5000001    1    1    2    0    0  0.14352554283E+03 -0.25301538983E+03 -0.58698483523E+02  0.35344855482E+03  0.19200000000E+03 0.  0.
<mgrwt>
<rscale>  0 0.70805516E+03</rscale>
<asrwt>0</asrwt>
<pdfrwt beam="1">  1        1 0.50092793E-01 0.70805516E+03</pdfrwt>
<pdfrwt beam="2">  1       -1 0.51062593E-01 0.70805516E+03</pdfrwt>
<totfact> 0.30732651E+02</totfact>
</mgrwt>
</event>
<event>
 4    1  0.1454935E-005  0.4711183E+03  0.7818608E-02  0.1021605E+00
         -1   -1    0    0    0  501 -0.00000000000E+00  0.00000000000E+00  0.45045094040E+02  0.45045094321E+02  0.50400000000E-02 0. -1.
          1   -1    0    0  501    0  0.00000000000E+00 -0.00000000000E+00 -0.12318346731E+04  0.12318346731E+04  0.50400000000E-02 0.  1.
    5000001    1    1    2    0    0  0.10509317566E+02  0.10146936974E+03 -0.34770147289E+03  0.41008144679E+03  0.19200000000E+03 0.  0.
   -5000001    1    1    2    0    0 -0.10509317566E+02 -0.10146936974E+03 -0.83908810617E+03  0.86679832064E+03  0.19200000000E+03 0.  0.
<mgrwt>
<rscale>  0 0.47111828E+03</rscale>
<asrwt>0</asrwt>
<pdfrwt beam="1">  1        1 0.17597636E+00 0.47111828E+03</pdfrwt>
<pdfrwt beam="2">  1       -1 0.64350142E-02 0.47111828E+03</pdfrwt>
<totfact> 0.15027885E+03</totfact>
</mgrwt>
</event>
<event>
 4    1  0.1454935E-005  0.5206126E+03  0.7818608E-02  0.1008534E+00
          1   -1    0    0  501    0  0.00000000000E+00  0.00000000000E+00  0.76043313630E+02  0.76043313797E+02  0.50400000000E-02 0.  1.
         -1   -1    0    0    0  501 -0.00000000000E+00 -0.00000000000E+00 -0.89106272201E+03  0.89106272202E+03  0.50400000000E-02 0. -1.
    5000001    1    1    2    0    0  0.14197663549E+03  0.10263778870E+03 -0.38101117119E+03  0.46122163140E+03  0.19200000000E+03 0.  0.
   -5000001    1    1    2    0    0 -0.14197663549E+03 -0.10263778870E+03 -0.43400823718E+03  0.50588440442E+03  0.19200000000E+03 0.  0.
<mgrwt>
<rscale>  0 0.52061257E+03</rscale>
<asrwt>0</asrwt>
<pdfrwt beam="1">  1        1 0.10863331E-01 0.52061257E+03</pdfrwt>
<pdfrwt beam="2">  1       -1 0.12729467E+00 0.52061257E+03</pdfrwt>
<totfact> 0.32659237E+02</totfact>
</mgrwt>
</event>
<event>
 4    1  0.1454935E-005  0.5226449E+03  0.7818608E-02  0.1008032E+00
         -1   -1    0    0    0  501 -0.00000000000E+00  0.00000000000E+00  0.29541784566E+03  0.29541784570E+03  0.50400000000E-02 0. -1.
          1   -1    0    0  501    0  0.00000000000E+00 -0.00000000000E+00 -0.23116215065E+03  0.23116215070E+03  0.50400000000E-02 0.  1.
    5000001    1    1    2    0    0  0.24767556500E+02 -0.17412331961E+03  0.54500038846E+02  0.26601995512E+03  0.19200000000E+03 0.  0.
   -5000001    1    1    2    0    0 -0.24767556500E+02  0.17412331961E+03  0.97556561688E+01  0.26056004129E+03  0.19200000000E+03 0.  0.
<mgrwt>
<rscale>  0 0.52264491E+03</rscale>
<asrwt>0</asrwt>
<pdfrwt beam="1">  1        1 0.33023165E-01 0.52264491E+03</pdfrwt>
<pdfrwt beam="2">  1       -1 0.42202549E-01 0.52264491E+03</pdfrwt>
<totfact> 0.75306273E+02</totfact>
</mgrwt>
</event>
<event>
 4    1  0.1454935E-005  0.5996058E+03  0.7818608E-02  0.9906224E-01
         -1   -1    0    0    0  501 -0.00000000000E+00  0.00000000000E+00  0.16962657313E+03  0.16962657320E+03  0.50400000000E-02 0. -1.
          1   -1    0    0  501    0  0.00000000000E+00 -0.00000000000E+00 -0.52988036589E+03  0.52988036591E+03  0.50400000000E-02 0.  1.
    5000001    1    1    2    0    0  0.21637458246E+02 -0.17975858432E+03 -0.14170700598E+02  0.26428419739E+03  0.19200000000E+03 0.  0.
   -5000001    1    1    2    0    0 -0.21637458246E+02  0.17975858432E+03 -0.34608309216E+03  0.43522274173E+03  0.19200000000E+03 0.  0.
<mgrwt>
<rscale>  0 0.59960584E+03</rscale>
<asrwt>0</asrwt>
<pdfrwt beam="1">  1        1 0.75697195E-01 0.59960584E+03</pdfrwt>
<pdfrwt beam="2">  1       -1 0.24232368E-01 0.59960584E+03</pdfrwt>
<totfact> 0.67434209E+02</totfact>
</mgrwt>
</event>
<event>
 4    1  0.1454935E-005  0.8197951E+03  0.7818608E-02  0.9531798E-01
          1   -1    0    0  501    0  0.00000000000E+00  0.00000000000E+00  0.70133032758E+03  0.70133032760E+03  0.50400000000E-02 0. -1.
         -1   -1    0    0    0  501 -0.00000000000E+00 -0.00000000000E+00 -0.23956754584E+03  0.23956754589E+03  0.50400000000E-02 0.  1.
    5000001    1    1    2    0    0  0.22035485836E+03  0.23782480640E+03  0.41607102570E+03  0.56133412560E+03  0.19200000000E+03 0.  0.
   -5000001    1    1    2    0    0 -0.22035485836E+03 -0.23782480640E+03  0.45691756040E+02  0.37956374789E+03  0.19200000000E+03 0.  0.
<mgrwt>
<rscale>  0 0.81979506E+03</rscale>
<asrwt>0</asrwt>
<pdfrwt beam="1">  1        1 0.10019005E+00 0.81979506E+03</pdfrwt>
<pdfrwt beam="2">  1       -1 0.34223935E-01 0.81979506E+03</pdfrwt>
<totfact> 0.24736849E+02</totfact>
</mgrwt>
</event>
<event>
 4    1  0.1454935E-005  0.6127957E+03  0.7818608E-02  0.9879209E-01
         -1   -1    0    0    0  501 -0.00000000000E+00  0.00000000000E+00  0.28126400134E+03  0.28126400139E+03  0.50400000000E-02 0.  1.
          1   -1    0    0  501    0  0.00000000000E+00 -0.00000000000E+00 -0.33377770120E+03  0.33377770124E+03  0.50400000000E-02 0. -1.
    5000001    1    1    2    0    0  0.21574990188E+03  0.10184914611E+03 -0.16506146417E+02  0.30668831343E+03  0.19200000000E+03 0.  0.
   -5000001    1    1    2    0    0 -0.21574990188E+03 -0.10184914611E+03 -0.36007553445E+02  0.30835338920E+03  0.19200000000E+03 0.  0.
<mgrwt>
<rscale>  0 0.61279573E+03</rscale>
<asrwt>0</asrwt>
<pdfrwt beam="1">  1        1 0.47682529E-01 0.61279573E+03</pdfrwt>
<pdfrwt beam="2">  1       -1 0.40180572E-01 0.61279573E+03</pdfrwt>
<totfact> 0.51254391E+02</totfact>
</mgrwt>
</event>
<event>
 4    1  0.1454935E-005  0.6005535E+03  0.7818608E-02  0.9904258E-01
         -1   -1    0    0    0  501 -0.00000000000E+00  0.00000000000E+00  0.95098044612E+02  0.95098044746E+02  0.50400000000E-02 0. -1.
          1   -1    0    0  501    0  0.00000000000E+00 -0.00000000000E+00 -0.94813867525E+03  0.94813867527E+03  0.50400000000E-02 0.  1.
    5000001    1    1    2    0    0 -0.74003152401E+02  0.21706358044E+03 -0.47277711430E+03  0.55944192221E+03  0.19200000000E+03 0.  0.
   -5000001    1    1    2    0    0  0.74003152401E+02 -0.21706358044E+03 -0.38026351634E+03  0.48379479780E+03  0.19200000000E+03 0.  0.
<mgrwt>
<rscale>  0 0.60055353E+03</rscale>
<asrwt>0</asrwt>
<pdfrwt beam="1">  1        1 0.13544838E+00 0.60055353E+03</pdfrwt>
<pdfrwt beam="2">  1       -1 0.13585436E-01 0.60055353E+03</pdfrwt>
<totfact> 0.73763740E+02</totfact>
</mgrwt>
</event>
<event>
 4    1  0.1454935E-005  0.4062336E+03  0.7818608E-02  0.1041642E+00
         -1   -1    0    0    0  501 -0.00000000000E+00  0.00000000000E+00  0.52155984079E+03  0.52155984082E+03  0.50400000000E-02 0. -1.
          1   -1    0    0  501    0  0.00000000000E+00 -0.00000000000E+00 -0.79102003830E+02  0.79102003991E+02  0.50400000000E-02 0.  1.
    5000001    1    1    2    0    0  0.51228481250E+02 -0.41555449740E+02  0.21173628856E+03  0.29333848808E+03  0.19200000000E+03 0.  0.
   -5000001    1    1    2    0    0 -0.51228481250E+02  0.41555449740E+02  0.23072154840E+03  0.30732335673E+03  0.19200000000E+03 0.  0.
<mgrwt>
<rscale>  0 0.40623357E+03</rscale>
<asrwt>0</asrwt>
<pdfrwt beam="1">  1        1 0.11300287E-01 0.40623357E+03</pdfrwt>
<pdfrwt beam="2">  1       -1 0.74508545E-01 0.40623357E+03</pdfrwt>
<totfact> 0.10319881E+03</totfact>
</mgrwt>
</event>
<event>
 4    1  0.1454935E-005  0.6497635E+03  0.7818608E-02  0.9807223E-01
          1   -1    0    0  501    0  0.00000000000E+00  0.00000000000E+00  0.67174782061E+03  0.67174782062E+03  0.50400000000E-02 0.  1.
         -1   -1    0    0    0  501 -0.00000000000E+00 -0.00000000000E+00 -0.15712468168E+03  0.15712468176E+03  0.50400000000E-02 0. -1.
    5000001    1    1    2    0    0 -0.16565345478E+02  0.24734429740E+03  0.14883946228E+03  0.34708903419E+03  0.19200000000E+03 0.  0.
   -5000001    1    1    2    0    0  0.16565345478E+02 -0.24734429740E+03  0.36578367665E+03  0.48178346820E+03  0.19200000000E+03 0.  0.
<mgrwt>
<rscale>  0 0.64976353E+03</rscale>
<asrwt>0</asrwt>
<pdfrwt beam="1">  1        1 0.95963976E-01 0.64976353E+03</pdfrwt>
<pdfrwt beam="2">  1       -1 0.22446383E-01 0.64976353E+03</pdfrwt>
<totfact> 0.54942178E+02</totfact>
</mgrwt>
</event>
<event>
 4    1  0.1454935E-005  0.5443806E+03  0.7818608E-02  0.1002803E+00
          1   -1    0    0  501    0  0.00000000000E+00  0.00000000000E+00  0.33721805185E+03  0.33721805188E+03  0.50400000000E-02 0.  1.
         -1   -1    0    0    0  501 -0.00000000000E+00 -0.00000000000E+00 -0.21970220561E+03  0.21970220567E+03  0.50400000000E-02 0. -1.
    5000001    1    1    2    0    0  0.82382972279E+02 -0.13891391788E+03 -0.49217179288E+02  0.25567628251E+03  0.19200000000E+03 0.  0.
   -5000001    1    1    2    0    0 -0.82382972279E+02  0.13891391788E+03  0.16673302552E+03  0.30124397505E+03  0.19200000000E+03 0.  0.
<mgrwt>
<rscale>  0 0.54438056E+03</rscale>
<asrwt>0</asrwt>
<pdfrwt beam="1">  1        1 0.48174007E-01 0.54438056E+03</pdfrwt>
<pdfrwt beam="2">  1       -1 0.31386030E-01 0.54438056E+03</pdfrwt>
<totfact> 0.78535942E+02</totfact>
</mgrwt>
</event>
<event>
 4    1  0.1454935E-005  0.6600722E+03  0.7818608E-02  0.9788061E-01
          1   -1    0    0  501    0  0.00000000000E+00  0.00000000000E+00  0.29839400067E+03  0.29839400071E+03  0.50400000000E-02 0.  1.
         -1   -1    0    0    0  501 -0.00000000000E+00 -0.00000000000E+00 -0.36503354454E+03  0.36503354457E+03  0.50400000000E-02 0. -1.
    5000001    1    1    2    0    0  0.10263182954E+03 -0.24457793912E+03 -0.74859746028E+02  0.33588635327E+03  0.19200000000E+03 0.  0.
   -5000001    1    1    2    0    0 -0.10263182954E+03  0.24457793912E+03  0.82202021546E+01  0.32754119201E+03  0.19200000000E+03 0.  0.
<mgrwt>
<rscale>  0 0.66007218E+03</rscale>
<asrwt>0</asrwt>
<pdfrwt beam="1">  1        1 0.42627715E-01 0.66007218E+03</pdfrwt>
<pdfrwt beam="2">  1       -1 0.52147649E-01 0.66007218E+03</pdfrwt>
<totfact> 0.36448817E+02</totfact>
</mgrwt>
</event>
<event>
 4    1  0.1454935E-005  0.4565075E+03  0.7818608E-02  0.1025799E+00
          1   -1    0    0  501    0  0.00000000000E+00  0.00000000000E+00  0.16720097152E+04  0.16720097152E+04  0.50400000000E-02 0. -1.
         -1   -1    0    0    0  501 -0.00000000000E+00 -0.00000000000E+00 -0.31159964750E+02  0.31159965158E+02  0.50400000000E-02 0.  1.
    5000001    1    1    2    0    0  0.11571225832E+03 -0.25899978801E+02  0.69250291725E+03  0.72834361810E+03  0.19200000000E+03 0.  0.
   -5000001    1    1    2    0    0 -0.11571225832E+03  0.25899978801E+02  0.94834683317E+03  0.97482606224E+03  0.19200000000E+03 0.  0.
<mgrwt>
<rscale>  0 0.45650746E+03</rscale>
<asrwt>0</asrwt>
<pdfrwt beam="1">  1        1 0.23885861E+00 0.45650746E+03</pdfrwt>
<pdfrwt beam="2">  1       -1 0.44514222E-02 0.45650746E+03</pdfrwt>
<totfact> 0.13738251E+03</totfact>
</mgrwt>
</event>
<event>
 4    1  0.1454935E-005  0.7195171E+03  0.7818608E-02  0.9684425E-01
          1   -1    0    0  501    0  0.00000000000E+00  0.00000000000E+00  0.11770317457E+03  0.11770317468E+03  0.50400000000E-02 0.  1.
         -1   -1    0    0    0  501 -0.00000000000E+00 -0.00000000000E+00 -0.10995982583E+04  0.10995982583E+04  0.50400000000E-02 0. -1.
    5000001    1    1    2    0    0  0.25996421105E+03  0.10686565825E+03 -0.29393421082E+03  0.44973656759E+03  0.19200000000E+03 0.  0.
   -5000001    1    1    2    0    0 -0.25996421105E+03 -0.10686565825E+03 -0.68796087293E+03  0.76756486542E+03  0.19200000000E+03 0.  0.
<mgrwt>
<rscale>  0 0.71951708E+03</rscale>
<asrwt>0</asrwt>
<pdfrwt beam="1">  1        1 0.16814740E-01 0.71951708E+03</pdfrwt>
<pdfrwt beam="2">  1       -1 0.15708546E+00 0.71951708E+03</pdfrwt>
<totfact> 0.10364132E+02</totfact>
</mgrwt>
</event>
<event>
 4    1  0.1454935E-005  0.7791774E+03  0.7818608E-02  0.9590656E-01
          1   -1    0    0  501    0  0.00000000000E+00  0.00000000000E+00  0.20804345612E+04  0.20804345612E+04  0.50400000000E-02 0.  1.
         -1   -1    0    0    0  501 -0.00000000000E+00 -0.00000000000E+00 -0.72955604965E+02  0.72955605139E+02  0.50400000000E-02 0. -1.
    5000001    1    1    2    0    0 -0.33743887054E+03  0.21107783230E+02  0.10717073806E+04  0.11400575597E+04  0.19200000000E+03 0.  0.
   -5000001    1    1    2    0    0  0.33743887054E+03 -0.21107783230E+02  0.93577157566E+03  0.10133326066E+04  0.19200000000E+03 0.  0.
<mgrwt>
<rscale>  0 0.77917742E+03</rscale>
<asrwt>0</asrwt>
<pdfrwt beam="1">  1        1 0.29720488E+00 0.77917742E+03</pdfrwt>
<pdfrwt beam="2">  1       -1 0.10422231E-01 0.77917742E+03</pdfrwt>
<totfact> 0.20084327E+02</totfact>
</mgrwt>
</event>
<event>
 4    1  0.1454935E-005  0.4234907E+03  0.7818608E-02  0.1035936E+00
          1   -1    0    0  501    0  0.00000000000E+00  0.00000000000E+00  0.24406126537E+04  0.24406126537E+04  0.50400000000E-02 0. -1.
         -1   -1    0    0    0  501 -0.00000000000E+00 -0.00000000000E+00 -0.18370830995E+02  0.18370831686E+02  0.50400000000E-02 0.  1.
    5000001    1    1    2    0    0  0.69361343162E+02  0.56116743361E+02  0.11910078754E+04  0.12096792319E+04  0.19200000000E+03 0.  0.
   -5000001    1    1    2    0    0 -0.69361343162E+02 -0.56116743361E+02  0.12312339473E+04  0.12493042535E+04  0.19200000000E+03 0.  0.
<mgrwt>
<rscale>  0 0.42349065E+03</rscale>
<asrwt>0</asrwt>
<pdfrwt beam="1">  1        1 0.34865901E+00 0.42349065E+03</pdfrwt>
<pdfrwt beam="2">  1       -1 0.26244040E-02 0.42349065E+03</pdfrwt>
<totfact> 0.10258988E+03</totfact>
</mgrwt>
</event>
<event>
 4    1  0.1454935E-005  0.6002252E+03  0.7818608E-02  0.9904939E-01
         -1   -1    0    0    0  501 -0.00000000000E+00  0.00000000000E+00  0.97379225647E+02  0.97379225778E+02  0.50400000000E-02 0. -1.
          1   -1    0    0  501    0  0.00000000000E+00 -0.00000000000E+00 -0.92491559243E+03  0.92491559245E+03  0.50400000000E-02 0.  1.
    5000001    1    1    2    0    0 -0.15505380885E+03  0.16043166721E+03 -0.31411275155E+03  0.43047743747E+03  0.19200000000E+03 0.  0.
   -5000001    1    1    2    0    0  0.15505380885E+03 -0.16043166721E+03 -0.51342361524E+03  0.59181738076E+03  0.19200000000E+03 0.  0.
<mgrwt>
<rscale>  0 0.60022517E+03</rscale>
<asrwt>0</asrwt>
<pdfrwt beam="1">  1        1 0.13213079E+00 0.60022517E+03</pdfrwt>
<pdfrwt beam="2">  1       -1 0.13911318E-01 0.60022517E+03</pdfrwt>
<totfact> 0.73962838E+02</totfact>
</mgrwt>
</event>
<event>
 4    1  0.1454935E-005  0.7304350E+03  0.7818608E-02  0.9666555E-01
          1   -1    0    0  501    0  0.00000000000E+00  0.00000000000E+00  0.16275998345E+04  0.16275998345E+04  0.50400000000E-02 0. -1.
         -1   -1    0    0    0  501 -0.00000000000E+00 -0.00000000000E+00 -0.81951227692E+02  0.81951227847E+02  0.50400000000E-02 0.  1.
    5000001    1    1    2    0    0 -0.82488895514E+02  0.24760585028E+03  0.11672917337E+04  0.12114235702E+04  0.19200000000E+03 0.  0.
   -5000001    1    1    2    0    0  0.82488895514E+02 -0.24760585028E+03  0.37835687314E+03  0.49812749215E+03  0.19200000000E+03 0.  0.
<mgrwt>
<rscale>  0 0.73043495E+03</rscale>
<asrwt>0</asrwt>
<pdfrwt beam="1">  1        1 0.23251425E+00 0.73043495E+03</pdfrwt>
<pdfrwt beam="2">  1       -1 0.11707319E-01 0.73043495E+03</pdfrwt>
<totfact> 0.32147248E+02</totfact>
</mgrwt>
</event>
<event>
 4    1  0.1454935E-005  0.4981478E+03  0.7818608E-02  0.1014264E+00
          1   -1    0    0  501    0  0.00000000000E+00  0.00000000000E+00  0.22228901579E+04  0.22228901580E+04  0.50400000000E-02 0.  1.
         -1   -1    0    0    0  501 -0.00000000000E+00 -0.00000000000E+00 -0.27908619401E+02  0.27908619856E+02  0.50400000000E-02 0. -1.
    5000001    1    1    2    0    0  0.65357744215E+02  0.13649394206E+03  0.13128388847E+04  0.13354071170E+04  0.19200000000E+03 0.  0.
   -5000001    1    1    2    0    0 -0.65357744215E+02 -0.13649394206E+03  0.88214265387E+03  0.91539166083E+03  0.19200000000E+03 0.  0.
<mgrwt>
<rscale>  0 0.49814775E+03</rscale>
<asrwt>0</asrwt>
<pdfrwt beam="1">  1        1 0.31755575E+00 0.49814775E+03</pdfrwt>
<pdfrwt beam="2">  1       -1 0.39869455E-02 0.49814775E+03</pdfrwt>
<totfact> 0.74145941E+02</totfact>
</mgrwt>
</event>
<event>
 4    1  0.1454935E-005  0.8579531E+03  0.7818608E-02  0.9479724E-01
          1   -1    0    0  501    0  0.00000000000E+00  0.00000000000E+00  0.25735537303E+04  0.25735537303E+04  0.50400000000E-02 0.  1.
         -1   -1    0    0    0  501 -0.00000000000E+00 -0.00000000000E+00 -0.71504576669E+02  0.71504576847E+02  0.50400000000E-02 0. -1.
    5000001    1    1    2    0    0  0.54681276925E+01 -0.10198335409E+03  0.11104295836E+03  0.24418239808E+03  0.19200000000E+03 0.  0.
   -5000001    1    1    2    0    0 -0.54681276925E+01  0.10198335409E+03  0.23910061953E+04  0.24008759091E+04  0.19200000000E+03 0.  0.
<mgrwt>
<rscale>  0 0.85795308E+03</rscale>
<asrwt>0</asrwt>
<pdfrwt beam="1">  1        1 0.36765050E+00 0.85795308E+03</pdfrwt>
<pdfrwt beam="2">  1       -1 0.10214940E-01 0.85795308E+03</pdfrwt>
<totfact> 0.10133333E+02</totfact>
</mgrwt>
</event>
<event>
 4    1  0.1454935E-005  0.4500736E+03  0.7818608E-02  0.1027700E+00
          1   -1    0    0  501    0  0.00000000000E+00  0.00000000000E+00  0.65971674760E+02  0.65971674952E+02  0.50400000000E-02 0.  1.
         -1   -1    0    0    0  501 -0.00000000000E+00 -0.00000000000E+00 -0.76762566463E+03  0.76762566465E+03  0.50400000000E-02 0. -1.
    5000001    1    1    2    0    0 -0.35225932215E+02  0.62994505699E+02 -0.52227092057E+03  0.56110612947E+03  0.19200000000E+03 0.  0.
   -5000001    1    1    2    0    0  0.35225932215E+02 -0.62994505699E+02 -0.17938306929E+03  0.27249121013E+03  0.19200000000E+03 0.  0.
<mgrwt>
<rscale>  0 0.45007355E+03</rscale>
<asrwt>0</asrwt>
<pdfrwt beam="1">  1        1 0.94245254E-02 0.45007355E+03</pdfrwt>
<pdfrwt beam="2">  1       -1 0.10966080E+00 0.45007355E+03</pdfrwt>
<totfact> 0.56830855E+02</totfact>
</mgrwt>
</event>
<event>
 4    1  0.1454935E-005  0.4886830E+03  0.7818608E-02  0.1016776E+00
          1   -1    0    0  501    0  0.00000000000E+00  0.00000000000E+00  0.30051166101E+03  0.30051166105E+03  0.50400000000E-02 0.  1.
         -1   -1    0    0    0  501 -0.00000000000E+00 -0.00000000000E+00 -0.19867040894E+03  0.19867040900E+03  0.50400000000E-02 0. -1.
    5000001    1    1    2    0    0  0.10762867776E+03 -0.10464317880E+03  0.33091481414E+02  0.24595359987E+03  0.19200000000E+03 0.  0.
   -5000001    1    1    2    0    0 -0.10762867776E+03  0.10464317880E+03  0.68749770661E+02  0.25322847019E+03  0.19200000000E+03 0.  0.
<mgrwt>
<rscale>  0 0.48868302E+03</rscale>
<asrwt>0</asrwt>
<pdfrwt beam="1">  1        1 0.42930237E-01 0.48868302E+03</pdfrwt>
<pdfrwt beam="2">  1       -1 0.28381487E-01 0.48868302E+03</pdfrwt>
<totfact> 0.10840809E+03</totfact>
</mgrwt>
</event>
<event>
 4    1  0.1454935E-005  0.6448719E+03  0.7818608E-02  0.9816449E-01
          1   -1    0    0  501    0  0.00000000000E+00  0.00000000000E+00  0.33065585374E+03  0.33065585377E+03  0.50400000000E-02 0.  1.
         -1   -1    0    0    0  501 -0.00000000000E+00 -0.00000000000E+00 -0.31442041884E+03  0.31442041888E+03  0.50400000000E-02 0. -1.
    5000001    1    1    2    0    0  0.24176457506E+03  0.51843728115E+02  0.85363104327E+02  0.32448226682E+03  0.19200000000E+03 0.  0.
   -5000001    1    1    2    0    0 -0.24176457506E+03 -0.51843728115E+02 -0.69127669433E+02  0.32059400584E+03  0.19200000000E+03 0.  0.
<mgrwt>
<rscale>  0 0.64487193E+03</rscale>
<asrwt>0</asrwt>
<pdfrwt beam="1">  1        1 0.47236551E-01 0.64487193E+03</pdfrwt>
<pdfrwt beam="2">  1       -1 0.44917203E-01 0.64487193E+03</pdfrwt>
<totfact> 0.42264522E+02</totfact>
</mgrwt>
</event>
<event>
 4    1  0.1454935E-005  0.4330083E+03  0.7818608E-02  0.1032914E+00
         -1   -1    0    0    0  501 -0.00000000000E+00  0.00000000000E+00  0.21379552955E+03  0.21379552961E+03  0.50400000000E-02 0. -1.
          1   -1    0    0  501    0  0.00000000000E+00 -0.00000000000E+00 -0.21924707666E+03  0.21924707671E+03  0.50400000000E-02 0.  1.
    5000001    1    1    2    0    0  0.82368240078E+02  0.53411874047E+02  0.16580927184E+02  0.21627825228E+03  0.19200000000E+03 0.  0.
   -5000001    1    1    2    0    0 -0.82368240078E+02 -0.53411874047E+02 -0.22032474285E+02  0.21676435405E+03  0.19200000000E+03 0.  0.
<mgrwt>
<rscale>  0 0.43300829E+03</rscale>
<asrwt>0</asrwt>
<pdfrwt beam="1">  1        1 0.31321011E-01 0.43300829E+03</pdfrwt>
<pdfrwt beam="2">  1       -1 0.30542218E-01 0.43300829E+03</pdfrwt>
<totfact> 0.14290487E+03</totfact>
</mgrwt>
</event>
<event>
 4    1  0.1454935E-005  0.4472304E+03  0.7818608E-02  0.1028551E+00
          1   -1    0    0  501    0  0.00000000000E+00  0.00000000000E+00  0.15560383601E+03  0.15560383609E+03  0.50400000000E-02 0. -1.
         -1   -1    0    0    0  501 -0.00000000000E+00 -0.00000000000E+00 -0.32135298317E+03  0.32135298321E+03  0.50400000000E-02 0.  1.
    5000001    1    1    2    0    0 -0.57425761579E+02 -0.96803079328E+01 -0.18817081540E+03  0.27507032232E+03  0.19200000000E+03 0.  0.
   -5000001    1    1    2    0    0  0.57425761579E+02  0.96803079328E+01  0.22421668238E+02  0.20188649698E+03  0.19200000000E+03 0.  0.
<mgrwt>
<rscale>  0 0.44723040E+03</rscale>
<asrwt>0</asrwt>
<pdfrwt beam="1">  1        1 0.22229120E-01 0.44723040E+03</pdfrwt>
<pdfrwt beam="2">  1       -1 0.45907569E-01 0.44723040E+03</pdfrwt>
<totfact> 0.10763414E+03</totfact>
</mgrwt>
</event>
<event>
 4    1  0.1454935E-005  0.1076340E+04  0.7818608E-02  0.9228565E-01
         -1   -1    0    0    0  501 -0.00000000000E+00  0.00000000000E+00  0.18012548194E+03  0.18012548201E+03  0.50400000000E-02 0. -1.
          1   -1    0    0  501    0  0.00000000000E+00 -0.00000000000E+00 -0.16079167907E+04  0.16079167907E+04  0.50400000000E-02 0.  1.
    5000001    1    1    2    0    0  0.46830207199E+03 -0.17410402273E+03 -0.80703906096E+03  0.96839820697E+03  0.19200000000E+03 0.  0.
   -5000001    1    1    2    0    0 -0.46830207199E+03  0.17410402273E+03 -0.62075224778E+03  0.81964406573E+03  0.19200000000E+03 0.  0.
<mgrwt>
<rscale>  0 0.10763397E+04</rscale>
<asrwt>0</asrwt>
<pdfrwt beam="1">  1        1 0.22970239E+00 0.10763397E+04</pdfrwt>
<pdfrwt beam="2">  1       -1 0.25732213E-01 0.10763397E+04</pdfrwt>
<totfact> 0.87931675E+01</totfact>
</mgrwt>
</event>
<event>
 4    1  0.1454935E-005  0.6034718E+03  0.7818608E-02  0.9898229E-01
          1   -1    0    0  501    0  0.00000000000E+00  0.00000000000E+00  0.15648891332E+03  0.15648891340E+03  0.50400000000E-02 0.  1.
         -1   -1    0    0    0  501 -0.00000000000E+00 -0.00000000000E+00 -0.58179563532E+03  0.58179563534E+03  0.50400000000E-02 0. -1.
    5000001    1    1    2    0    0  0.44746559700E+01 -0.22000457556E+03 -0.30549068642E+03  0.42262346752E+03  0.19200000000E+03 0.  0.
   -5000001    1    1    2    0    0 -0.44746559700E+01  0.22000457556E+03 -0.11981603558E+03  0.31566108122E+03  0.19200000000E+03 0.  0.
<mgrwt>
<rscale>  0 0.60347184E+03</rscale>
<asrwt>0</asrwt>
<pdfrwt beam="1">  1        1 0.22355559E-01 0.60347184E+03</pdfrwt>
<pdfrwt beam="2">  1       -1 0.83113661E-01 0.60347184E+03</pdfrwt>
<totfact> 0.32988839E+02</totfact>
</mgrwt>
</event>
<event>
 4    1  0.1454935E-005  0.6393444E+03  0.7818608E-02  0.9826982E-01
         -1   -1    0    0    0  501 -0.00000000000E+00  0.00000000000E+00  0.73912234857E+03  0.73912234859E+03  0.50400000000E-02 0. -1.
          1   -1    0    0  501    0  0.00000000000E+00 -0.00000000000E+00 -0.13825901455E+03  0.13825901465E+03  0.50400000000E-02 0.  1.
    5000001    1    1    2    0    0 -0.20120027828E+03 -0.74659793401E+02  0.49093481479E+03  0.56915431045E+03  0.19200000000E+03 0.  0.
   -5000001    1    1    2    0    0  0.20120027828E+03  0.74659793401E+02  0.10992851923E+03  0.30822705278E+03  0.19200000000E+03 0.  0.
<mgrwt>
<rscale>  0 0.63934444E+03</rscale>
<asrwt>0</asrwt>
<pdfrwt beam="1">  1        1 0.19751288E-01 0.63934444E+03</pdfrwt>
<pdfrwt beam="2">  1       -1 0.10558891E+00 0.63934444E+03</pdfrwt>
<totfact> 0.22777894E+02</totfact>
</mgrwt>
</event>
<event>
 4    1  0.1454935E-005  0.4998849E+03  0.7818608E-02  0.1013809E+00
         -1   -1    0    0    0  501 -0.00000000000E+00  0.00000000000E+00  0.12464868783E+03  0.12464868793E+03  0.50400000000E-02 0. -1.
          1   -1    0    0  501    0  0.00000000000E+00 -0.00000000000E+00 -0.50117844873E+03  0.50117844876E+03  0.50400000000E-02 0.  1.
    5000001    1    1    2    0    0  0.95767511133E+02 -0.66445328147E+02 -0.51002438184E+02  0.23032943043E+03  0.19200000000E+03 0.  0.
   -5000001    1    1    2    0    0 -0.95767511133E+02  0.66445328147E+02 -0.32552732272E+03  0.39549770626E+03  0.19200000000E+03 0.  0.
<mgrwt>
<rscale>  0 0.49988493E+03</rscale>
<asrwt>0</asrwt>
<pdfrwt beam="1">  1        1 0.71596920E-01 0.49988493E+03</pdfrwt>
<pdfrwt beam="2">  1       -1 0.17806956E-01 0.49988493E+03</pdfrwt>
<totfact> 0.12149765E+03</totfact>
</mgrwt>
</event>
<event>
 4    1  0.1454935E-005  0.5292992E+03  0.7818608E-02  0.1006402E+00
          1   -1    0    0  501    0  0.00000000000E+00  0.00000000000E+00  0.19442863658E+03  0.19442863665E+03  0.50400000000E-02 0.  1.
         -1   -1    0    0    0  501 -0.00000000000E+00 -0.00000000000E+00 -0.36023203285E+03  0.36023203289E+03  0.50400000000E-02 0. -1.
    5000001    1    1    2    0    0 -0.14909480219E+03  0.92887580622E+02 -0.13335486898E+03  0.29241218127E+03  0.19200000000E+03 0.  0.
   -5000001    1    1    2    0    0  0.14909480219E+03 -0.92887580622E+02 -0.32448527290E+02  0.26224848826E+03  0.19200000000E+03 0.  0.
<mgrwt>
<rscale>  0 0.52929925E+03</rscale>
<asrwt>0</asrwt>
<pdfrwt beam="1">  1        1 0.27775520E-01 0.52929925E+03</pdfrwt>
<pdfrwt beam="2">  1       -1 0.51461719E-01 0.52929925E+03</pdfrwt>
<totfact> 0.65124173E+02</totfact>
</mgrwt>
</event>
<event>
 4    1  0.1454935E-005  0.7895910E+03  0.7818608E-02  0.9575207E-01
         -1   -1    0    0    0  501 -0.00000000000E+00  0.00000000000E+00  0.36375431701E+03  0.36375431704E+03  0.50400000000E-02 0. -1.
          1   -1    0    0  501    0  0.00000000000E+00 -0.00000000000E+00 -0.42848556947E+03  0.42848556950E+03  0.50400000000E-02 0.  1.
    5000001    1    1    2    0    0 -0.25190057539E+03 -0.20382702944E+03  0.86353413781E+02  0.38641981042E+03  0.19200000000E+03 0.  0.
   -5000001    1    1    2    0    0  0.25190057539E+03  0.20382702944E+03 -0.15108466624E+03  0.40582007612E+03  0.19200000000E+03 0.  0.
<mgrwt>
<rscale>  0 0.78959097E+03</rscale>
<asrwt>0</asrwt>
<pdfrwt beam="1">  1        1 0.61212224E-01 0.78959097E+03</pdfrwt>
<pdfrwt beam="2">  1       -1 0.51964902E-01 0.78959097E+03</pdfrwt>
<totfact> 0.22774347E+02</totfact>
</mgrwt>
</event>
<event>
 4    1  0.1454935E-005  0.6357131E+03  0.7818608E-02  0.9833963E-01
         -1   -1    0    0    0  501 -0.00000000000E+00  0.00000000000E+00  0.47127573517E+03  0.47127573520E+03  0.50400000000E-02 0. -1.
          1   -1    0    0  501    0  0.00000000000E+00 -0.00000000000E+00 -0.21438147711E+03  0.21438147717E+03  0.50400000000E-02 0.  1.
    5000001    1    1    2    0    0  0.26142055777E+02 -0.17732622208E+03 -0.64615184426E+02  0.27049421098E+03  0.19200000000E+03 0.  0.
   -5000001    1    1    2    0    0 -0.26142055777E+02  0.17732622208E+03  0.32150944248E+03  0.41516300139E+03  0.19200000000E+03 0.  0.
<mgrwt>
<rscale>  0 0.63571311E+03</rscale>
<asrwt>0</asrwt>
<pdfrwt beam="1">  1        1 0.30625925E-01 0.63571311E+03</pdfrwt>
<pdfrwt beam="2">  1       -1 0.67325106E-01 0.63571311E+03</pdfrwt>
<totfact> 0.33876141E+02</totfact>
</mgrwt>
</event>
<event>
 4    1  0.1454935E-005  0.5004734E+03  0.7818608E-02  0.1013655E+00
          1   -1    0    0  501    0  0.00000000000E+00  0.00000000000E+00  0.58046470812E+03  0.58046470814E+03  0.50400000000E-02 0. -1.
         -1   -1    0    0    0  501 -0.00000000000E+00 -0.00000000000E+00 -0.10787632425E+03  0.10787632437E+03  0.50400000000E-02 0.  1.
    5000001    1    1    2    0    0 -0.75661335828E+02  0.98040698749E+02  0.37667583838E+03  0.44055113616E+03  0.19200000000E+03 0.  0.
   -5000001    1    1    2    0    0  0.75661335828E+02 -0.98040698749E+02  0.95912545486E+02  0.24778989635E+03  0.19200000000E+03 0.  0.
<mgrwt>
<rscale>  0 0.50047337E+03</rscale>
<asrwt>0</asrwt>
<pdfrwt beam="1">  1        1 0.82923528E-01 0.50047337E+03</pdfrwt>
<pdfrwt beam="2">  1       -1 0.15410904E-01 0.50047337E+03</pdfrwt>
<totfact> 0.12585652E+03</totfact>
</mgrwt>
</event>
<event>
 4    1  0.1454935E-005  0.4463006E+03  0.7818608E-02  0.1028831E+00
          1   -1    0    0  501    0  0.00000000000E+00  0.00000000000E+00  0.41835949138E+03  0.41835949141E+03  0.50400000000E-02 0.  1.
         -1   -1    0    0    0  501 -0.00000000000E+00 -0.00000000000E+00 -0.11902697060E+03  0.11902697070E+03  0.50400000000E-02 0. -1.
    5000001    1    1    2    0    0  0.35363335627E+02  0.88629371459E+02  0.75184395353E+02  0.22720568720E+03  0.19200000000E+03 0.  0.
   -5000001    1    1    2    0    0 -0.35363335627E+02 -0.88629371459E+02  0.22414812543E+03  0.31018077491E+03  0.19200000000E+03 0.  0.
<mgrwt>
<rscale>  0 0.44630063E+03</rscale>
<asrwt>0</asrwt>
<pdfrwt beam="1">  1        1 0.59765642E-01 0.44630063E+03</pdfrwt>
<pdfrwt beam="2">  1       -1 0.17003853E-01 0.44630063E+03</pdfrwt>
<totfact> 0.16618178E+03</totfact>
</mgrwt>
</event>
<event>
 4    1  0.1454935E-005  0.5729764E+03  0.7818608E-02  0.9963114E-01
          1   -1    0    0  501    0  0.00000000000E+00  0.00000000000E+00  0.11029644094E+04  0.11029644094E+04  0.50400000000E-02 0. -1.
         -1   -1    0    0    0  501 -0.00000000000E+00 -0.00000000000E+00 -0.74413550600E+02  0.74413550770E+02  0.50400000000E-02 0.  1.
    5000001    1    1    2    0    0  0.12372377473E+03  0.10954487568E+03  0.23932632652E+03  0.34849496810E+03  0.19200000000E+03 0.  0.
   -5000001    1    1    2    0    0 -0.12372377473E+03 -0.10954487568E+03  0.78922453230E+03  0.82888299210E+03  0.19200000000E+03 0.  0.
<mgrwt>
<rscale>  0 0.57297643E+03</rscale>
<asrwt>0</asrwt>
<pdfrwt beam="1">  1        1 0.15756633E+00 0.57297643E+03</pdfrwt>
<pdfrwt beam="2">  1       -1 0.10630508E-01 0.57297643E+03</pdfrwt>
<totfact> 0.84112930E+02</totfact>
</mgrwt>
</event>
<event>
 4    1  0.1454935E-005  0.6448517E+03  0.7818608E-02  0.9816488E-01
          1   -1    0    0  501    0  0.00000000000E+00  0.00000000000E+00  0.10617293228E+04  0.10617293228E+04  0.50400000000E-02 0.  1.
         -1   -1    0    0    0  501 -0.00000000000E+00 -0.00000000000E+00 -0.97914252338E+02  0.97914252468E+02  0.50400000000E-02 0. -1.
    5000001    1    1    2    0    0 -0.21484047043E+03  0.10502756702E+02  0.74143617874E+03  0.79552394230E+03  0.19200000000E+03 0.  0.
   -5000001    1    1    2    0    0  0.21484047043E+03 -0.10502756702E+02  0.22237889172E+03  0.36411963297E+03  0.19200000000E+03 0.  0.
<mgrwt>
<rscale>  0 0.64485171E+03</rscale>
<asrwt>0</asrwt>
<pdfrwt beam="1">  1        1 0.15167561E+00 0.64485171E+03</pdfrwt>
<pdfrwt beam="2">  1       -1 0.13987751E-01 0.64485171E+03</pdfrwt>
<totfact> 0.57908746E+02</totfact>
</mgrwt>
</event>
<event>
 4    1  0.1454935E-005  0.5048084E+03  0.7818608E-02  0.1012531E+00
         -1   -1    0    0    0  501 -0.00000000000E+00  0.00000000000E+00  0.29744816853E+03  0.29744816858E+03  0.50400000000E-02 0. -1.
          1   -1    0    0  501    0  0.00000000000E+00 -0.00000000000E+00 -0.21418148571E+03  0.21418148577E+03  0.50400000000E-02 0.  1.
    5000001    1    1    2    0    0  0.10403006449E+03  0.47306818506E+02  0.16062376928E+03  0.27518027664E+03  0.19200000000E+03 0.  0.
   -5000001    1    1    2    0    0 -0.10403006449E+03 -0.47306818506E+02 -0.77357086456E+02  0.23644937771E+03  0.19200000000E+03 0.  0.
<mgrwt>
<rscale>  0 0.50480844E+03</rscale>
<asrwt>0</asrwt>
<pdfrwt beam="1">  1        1 0.30597355E-01 0.50480844E+03</pdfrwt>
<pdfrwt beam="2">  1       -1 0.42492595E-01 0.50480844E+03</pdfrwt>
<totfact> 0.82048346E+02</totfact>
</mgrwt>
</event>
<event>
 4    1  0.1454935E-005  0.5040003E+03  0.7818608E-02  0.1012740E+00
         -1   -1    0    0    0  501 -0.00000000000E+00  0.00000000000E+00  0.47715660344E+02  0.47715660610E+02  0.50400000000E-02 0. -1.
          1   -1    0    0  501    0  0.00000000000E+00 -0.00000000000E+00 -0.13308856096E+04  0.13308856096E+04  0.50400000000E-02 0.  1.
    5000001    1    1    2    0    0  0.90333189104E+02  0.13432359289E+03 -0.69877688782E+03  0.74253353568E+03  0.19200000000E+03 0.  0.
   -5000001    1    1    2    0    0 -0.90333189104E+02 -0.13432359289E+03 -0.58439306142E+03  0.63606773452E+03  0.19200000000E+03 0.  0.
<mgrwt>
<rscale>  0 0.50400034E+03</rscale>
<asrwt>0</asrwt>
<pdfrwt beam="1">  1        1 0.19012649E+00 0.50400034E+03</pdfrwt>
<pdfrwt beam="2">  1       -1 0.68165238E-02 0.50400034E+03</pdfrwt>
<totfact> 0.11805483E+03</totfact>
</mgrwt>
</event>
<event>
 4    1  0.1454935E-005  0.5417783E+03  0.7818608E-02  0.1003415E+00
          1   -1    0    0  501    0  0.00000000000E+00  0.00000000000E+00  0.12338943952E+03  0.12338943963E+03  0.50400000000E-02 0. -1.
         -1   -1    0    0    0  501 -0.00000000000E+00 -0.00000000000E+00 -0.59471003835E+03  0.59471003837E+03  0.50400000000E-02 0.  1.
    5000001    1    1    2    0    0  0.18640744147E+03  0.31427091102E+02 -0.19860595247E+03  0.33472932445E+03  0.19200000000E+03 0.  0.
   -5000001    1    1    2    0    0 -0.18640744147E+03 -0.31427091102E+02 -0.27271464636E+03  0.38337015355E+03  0.19200000000E+03 0.  0.
<mgrwt>
<rscale>  0 0.54177832E+03</rscale>
<asrwt>0</asrwt>
<pdfrwt beam="1">  1        1 0.17627063E-01 0.54177832E+03</pdfrwt>
<pdfrwt beam="2">  1       -1 0.84958575E-01 0.54177832E+03</pdfrwt>
<totfact> 0.43132326E+02</totfact>
</mgrwt>
</event>
<event>
 4    1  0.1454935E-005  0.6125726E+03  0.7818608E-02  0.9879660E-01
          1   -1    0    0  501    0  0.00000000000E+00  0.00000000000E+00  0.19127978551E+04  0.19127978551E+04  0.50400000000E-02 0.  1.
         -1   -1    0    0    0  501 -0.00000000000E+00 -0.00000000000E+00 -0.49044028053E+02  0.49044028312E+02  0.50400000000E-02 0. -1.
    5000001    1    1    2    0    0 -0.11780021232E+03 -0.16528526053E+03  0.52993500768E+03  0.59907530390E+03  0.19200000000E+03 0.  0.
   -5000001    1    1    2    0    0  0.11780021232E+03  0.16528526053E+03  0.13338188194E+04  0.13627665795E+04  0.19200000000E+03 0.  0.
<mgrwt>
<rscale>  0 0.61257265E+03</rscale>
<asrwt>0</asrwt>
<pdfrwt beam="1">  1        1 0.27325683E+00 0.61257265E+03</pdfrwt>
<pdfrwt beam="2">  1       -1 0.70062900E-02 0.61257265E+03</pdfrwt>
<totfact> 0.48178714E+02</totfact>
</mgrwt>
</event>
<event>
 4    1  0.1454935E-005  0.7504566E+03  0.7818608E-02  0.9634634E-01
          1   -1    0    0  501    0  0.00000000000E+00  0.00000000000E+00  0.76146653839E+03  0.76146653841E+03  0.50400000000E-02 0.  1.
         -1   -1    0    0    0  501 -0.00000000000E+00 -0.00000000000E+00 -0.18490146769E+03  0.18490146776E+03  0.50400000000E-02 0. -1.
    5000001    1    1    2    0    0  0.87622844934E+02  0.27323507027E+03  0.47360681612E+03  0.58609093395E+03  0.19200000000E+03 0.  0.
   -5000001    1    1    2    0    0 -0.87622844934E+02 -0.27323507027E+03  0.10295825457E+03  0.36027707222E+03  0.19200000000E+03 0.  0.
<mgrwt>
<rscale>  0 0.75045661E+03</rscale>
<asrwt>0</asrwt>
<pdfrwt beam="1">  1        1 0.10878093E+00 0.75045661E+03</pdfrwt>
<pdfrwt beam="2">  1       -1 0.26414496E-01 0.75045661E+03</pdfrwt>
<totfact> 0.34478525E+02</totfact>
</mgrwt>
</event>
<event>
 4    1  0.1454935E-005  0.4226593E+03  0.7818608E-02  0.1036204E+00
          1   -1    0    0  501    0  0.00000000000E+00  0.00000000000E+00  0.22848837869E+03  0.22848837875E+03  0.50400000000E-02 0.  1.
         -1   -1    0    0    0  501 -0.00000000000E+00 -0.00000000000E+00 -0.19545946152E+03  0.19545946159E+03  0.50400000000E-02 0. -1.
    5000001    1    1    2    0    0  0.40317079163E+02 -0.46926349743E+02  0.79703871014E+02  0.21689687925E+03  0.19200000000E+03 0.  0.
   -5000001    1    1    2    0    0 -0.40317079163E+02  0.46926349743E+02 -0.46674953846E+02  0.20705096109E+03  0.19200000000E+03 0.  0.
<mgrwt>
<rscale>  0 0.42265927E+03</rscale>
<asrwt>0</asrwt>
<pdfrwt beam="1">  1        1 0.32641197E-01 0.42265927E+03</pdfrwt>
<pdfrwt beam="2">  1       -1 0.27922780E-01 0.42265927E+03</pdfrwt>
<totfact> 0.15808340E+03</totfact>
</mgrwt>
</event>
<event>
 4    1  0.1454935E-005  0.5136070E+03  0.7818608E-02  0.1010287E+00
          1   -1    0    0  501    0  0.00000000000E+00  0.00000000000E+00  0.13397788444E+03  0.13397788453E+03  0.50400000000E-02 0.  1.
         -1   -1    0    0    0  501 -0.00000000000E+00 -0.00000000000E+00 -0.49223074830E+03  0.49223074832E+03  0.50400000000E-02 0. -1.
    5000001    1    1    2    0    0 -0.25499411748E+02  0.15716769676E+03 -0.25361102960E+03  0.35571682451E+03  0.19200000000E+03 0.  0.
   -5000001    1    1    2    0    0  0.25499411748E+02 -0.15716769676E+03 -0.10464183426E+03  0.27049180835E+03  0.19200000000E+03 0.  0.
<mgrwt>
<rscale>  0 0.51360699E+03</rscale>
<asrwt>0</asrwt>
<pdfrwt beam="1">  1        1 0.19139698E-01 0.51360699E+03</pdfrwt>
<pdfrwt beam="2">  1       -1 0.70318677E-01 0.51360699E+03</pdfrwt>
<totfact> 0.57447294E+02</totfact>
</mgrwt>
</event>
<event>
 4    1  0.1454935E-005  0.4998780E+03  0.7818608E-02  0.1013811E+00
          1   -1    0    0  501    0  0.00000000000E+00  0.00000000000E+00  0.17957311907E+03  0.17957311914E+03  0.50400000000E-02 0.  1.
         -1   -1    0    0    0  501 -0.00000000000E+00 -0.00000000000E+00 -0.34787785305E+03  0.34787785308E+03  0.50400000000E-02 0. -1.
    5000001    1    1    2    0    0  0.16369782213E+02 -0.73005094943E+02  0.65098784136E+02  0.21610082219E+03  0.19200000000E+03 0.  0.
   -5000001    1    1    2    0    0 -0.16369782213E+02  0.73005094943E+02 -0.23340351811E+03  0.31135015003E+03  0.19200000000E+03 0.  0.
<mgrwt>
<rscale>  0 0.49987803E+03</rscale>
<asrwt>0</asrwt>
<pdfrwt beam="1">  1        1 0.25653303E-01 0.49987803E+03</pdfrwt>
<pdfrwt beam="2">  1       -1 0.49696836E-01 0.49987803E+03</pdfrwt>
<totfact> 0.77110624E+02</totfact>
</mgrwt>
</event>
<event>
 4    1  0.1454935E-005  0.5434385E+03  0.7818608E-02  0.1003024E+00
          1   -1    0    0  501    0  0.00000000000E+00  0.00000000000E+00  0.26664243974E+03  0.26664243979E+03  0.50400000000E-02 0.  1.
         -1   -1    0    0    0  501 -0.00000000000E+00 -0.00000000000E+00 -0.27689268825E+03  0.27689268830E+03  0.50400000000E-02 0. -1.
    5000001    1    1    2    0    0  0.10402734500E+03  0.15798285000E+03 -0.39585171991E+02  0.27241742830E+03  0.19200000000E+03 0.  0.
   -5000001    1    1    2    0    0 -0.10402734500E+03 -0.15798285000E+03  0.29334923480E+02  0.27111769979E+03  0.19200000000E+03 0.  0.
<mgrwt>
<rscale>  0 0.54343847E+03</rscale>
<asrwt>0</asrwt>
<pdfrwt beam="1">  1        1 0.38091777E-01 0.54343847E+03</pdfrwt>
<pdfrwt beam="2">  1       -1 0.39556098E-01 0.54343847E+03</pdfrwt>
<totfact> 0.70485241E+02</totfact>
</mgrwt>
</event>
<event>
 4    1  0.1454935E-005  0.7181920E+03  0.7818608E-02  0.9686617E-01
          1   -1    0    0  501    0  0.00000000000E+00  0.00000000000E+00  0.89479745439E+03  0.89479745441E+03  0.50400000000E-02 0.  1.
         -1   -1    0    0    0  501 -0.00000000000E+00 -0.00000000000E+00 -0.14411074736E+03  0.14411074745E+03  0.50400000000E-02 0. -1.
    5000001    1    1    2    0    0  0.22992229330E+03  0.38870001357E+02  0.94431897604E+02  0.31647515108E+03  0.19200000000E+03 0.  0.
   -5000001    1    1    2    0    0 -0.22992229330E+03 -0.38870001357E+02  0.65625480943E+03  0.72243305078E+03  0.19200000000E+03 0.  0.
<mgrwt>
<rscale>  0 0.71819198E+03</rscale>
<asrwt>0</asrwt>
<pdfrwt beam="1">  1        1 0.12782820E+00 0.71819198E+03</pdfrwt>
<pdfrwt beam="2">  1       -1 0.20587251E-01 0.71819198E+03</pdfrwt>
<totfact> 0.40880846E+02</totfact>
</mgrwt>
</event>
<event>
 4    1  0.1454935E-005  0.4839798E+03  0.7818608E-02  0.1018047E+00
         -1   -1    0    0    0  501 -0.00000000000E+00  0.00000000000E+00  0.14346236750E+03  0.14346236759E+03  0.50400000000E-02 0. -1.
          1   -1    0    0  501    0  0.00000000000E+00 -0.00000000000E+00 -0.40818441669E+03  0.40818441672E+03  0.50400000000E-02 0.  1.
    5000001    1    1    2    0    0  0.62432811788E+02 -0.12802463490E+03 -0.89607528925E+02  0.25530701590E+03  0.19200000000E+03 0.  0.
   -5000001    1    1    2    0    0 -0.62432811788E+02  0.12802463490E+03 -0.17511452026E+03  0.29633976840E+03  0.19200000000E+03 0.  0.
<mgrwt>
<rscale>  0 0.48397976E+03</rscale>
<asrwt>0</asrwt>
<pdfrwt beam="1">  1        1 0.58312059E-01 0.48397976E+03</pdfrwt>
<pdfrwt beam="2">  1       -1 0.20494624E-01 0.48397976E+03</pdfrwt>
<totfact> 0.12639142E+03</totfact>
</mgrwt>
</event>
<event>
 4    1  0.1454935E-005  0.4573046E+03  0.7818608E-02  0.1025566E+00
          1   -1    0    0  501    0  0.00000000000E+00  0.00000000000E+00  0.11000612603E+04  0.11000612603E+04  0.50400000000E-02 0.  1.
         -1   -1    0    0    0  501 -0.00000000000E+00 -0.00000000000E+00 -0.47526339983E+02  0.47526340250E+02  0.50400000000E-02 0. -1.
    5000001    1    1    2    0    0 -0.11067774479E+03  0.53116032595E+02  0.57301415576E+03  0.61666854859E+03  0.19200000000E+03 0.  0.
   -5000001    1    1    2    0    0  0.11067774479E+03 -0.53116032595E+02  0.47952076454E+03  0.53091905196E+03  0.19200000000E+03 0.  0.
<mgrwt>
<rscale>  0 0.45730465E+03</rscale>
<asrwt>0</asrwt>
<pdfrwt beam="1">  1        1 0.15715160E+00 0.45730465E+03</pdfrwt>
<pdfrwt beam="2">  1       -1 0.67894775E-02 0.45730465E+03</pdfrwt>
<totfact> 0.17050498E+03</totfact>
</mgrwt>
</event>
<event>
 4    1  0.1454935E-005  0.5028565E+03  0.7818608E-02  0.1013036E+00
         -1   -1    0    0    0  501 -0.00000000000E+00  0.00000000000E+00  0.20501049704E+02  0.20501050323E+02  0.50400000000E-02 0. -1.
          1   -1    0    0  501    0  0.00000000000E+00 -0.00000000000E+00 -0.30835570481E+04  0.30835570481E+04  0.50400000000E-02 0.  1.
    5000001    1    1    2    0    0 -0.12362367014E+03  0.10272788423E+03 -0.13912633188E+04  0.14136171520E+04  0.19200000000E+03 0.  0.
   -5000001    1    1    2    0    0  0.12362367014E+03 -0.10272788423E+03 -0.16717926796E+04  0.16904409464E+04  0.19200000000E+03 0.  0.
<mgrwt>
<rscale>  0 0.50285647E+03</rscale>
<asrwt>0</asrwt>
<pdfrwt beam="1">  1        1 0.44050785E+00 0.50285647E+03</pdfrwt>
<pdfrwt beam="2">  1       -1 0.29287234E-02 0.50285647E+03</pdfrwt>
<totfact> 0.33967227E+02</totfact>
</mgrwt>
</event>
<event>
 4    1  0.1454935E-005  0.4938427E+03  0.7818608E-02  0.1015399E+00
         -1   -1    0    0    0  501 -0.00000000000E+00  0.00000000000E+00  0.40118286945E+02  0.40118287262E+02  0.50400000000E-02 0.  1.
          1   -1    0    0  501    0  0.00000000000E+00 -0.00000000000E+00 -0.15197594541E+04  0.15197594541E+04  0.50400000000E-02 0. -1.
    5000001    1    1    2    0    0  0.71066975986E+02  0.13574334773E+03 -0.81906278831E+03  0.85510503607E+03  0.19200000000E+03 0.  0.
   -5000001    1    1    2    0    0 -0.71066975986E+02 -0.13574334773E+03 -0.66057837881E+03  0.70477270526E+03  0.19200000000E+03 0.  0.
<mgrwt>
<rscale>  0 0.49384267E+03</rscale>
<asrwt>0</asrwt>
<pdfrwt beam="1">  1        1 0.21710846E+00 0.49384267E+03</pdfrwt>
<pdfrwt beam="2">  1       -1 0.57311848E-02 0.49384267E+03</pdfrwt>
<totfact> 0.11640074E+03</totfact>
</mgrwt>
</event>
<event>
 4    1  0.1454935E-005  0.6108798E+03  0.7818608E-02  0.9883087E-01
          1   -1    0    0  501    0  0.00000000000E+00  0.00000000000E+00  0.33717239775E+03  0.33717239779E+03  0.50400000000E-02 0.  1.
         -1   -1    0    0    0  501 -0.00000000000E+00 -0.00000000000E+00 -0.27669388631E+03  0.27669388636E+03  0.50400000000E-02 0. -1.
    5000001    1    1    2    0    0  0.11792877550E+03  0.19984204842E+03  0.81335658559E+02  0.31196719340E+03  0.19200000000E+03 0.  0.
   -5000001    1    1    2    0    0 -0.11792877550E+03 -0.19984204842E+03 -0.20857147125E+02  0.30189909074E+03  0.19200000000E+03 0.  0.
<mgrwt>
<rscale>  0 0.61087983E+03</rscale>
<asrwt>0</asrwt>
<pdfrwt beam="1">  1        1 0.48167486E-01 0.61087983E+03</pdfrwt>
<pdfrwt beam="2">  1       -1 0.39527698E-01 0.61087983E+03</pdfrwt>
<totfact> 0.52113991E+02</totfact>
</mgrwt>
</event>
<event>
 4    1  0.1454935E-005  0.4354561E+03  0.7818608E-02  0.1032150E+00
          1   -1    0    0  501    0  0.00000000000E+00  0.00000000000E+00  0.27265844511E+04  0.27265844511E+04  0.50400000000E-02 0.  1.
         -1   -1    0    0    0  501 -0.00000000000E+00 -0.00000000000E+00 -0.17386403509E+02  0.17386404239E+02  0.50400000000E-02 0. -1.
    5000001    1    1    2    0    0 -0.48020955613E+02 -0.82879596056E+02  0.11216647368E+04  0.11420029866E+04  0.19200000000E+03 0.  0.
   -5000001    1    1    2    0    0  0.48020955613E+02  0.82879596056E+02  0.15875333108E+04  0.16019678688E+04  0.19200000000E+03 0.  0.
<mgrwt>
<rscale>  0 0.43545608E+03</rscale>
<asrwt>0</asrwt>
<pdfrwt beam="1">  1        1 0.38951206E+00 0.43545608E+03</pdfrwt>
<pdfrwt beam="2">  1       -1 0.24837720E-02 0.43545608E+03</pdfrwt>
<totfact> 0.73904356E+02</totfact>
</mgrwt>
</event>
<event>
 4    1  0.1454935E-005  0.5952914E+03  0.7818608E-02  0.9915223E-01
         -1   -1    0    0    0  501 -0.00000000000E+00  0.00000000000E+00  0.11794587592E+03  0.11794587603E+03  0.50400000000E-02 0. -1.
          1   -1    0    0  501    0  0.00000000000E+00 -0.00000000000E+00 -0.75113246052E+03  0.75113246054E+03  0.50400000000E-02 0.  1.
    5000001    1    1    2    0    0 -0.14233632886E+03  0.12233817955E+03 -0.12904764561E+03  0.29789856584E+03  0.19200000000E+03 0.  0.
   -5000001    1    1    2    0    0  0.14233632886E+03 -0.12233817955E+03 -0.50413893899E+03  0.57117977073E+03  0.19200000000E+03 0.  0.
<mgrwt>
<rscale>  0 0.59529144E+03</rscale>
<asrwt>0</asrwt>
<pdfrwt beam="1">  1        1 0.10730464E+00 0.59529144E+03</pdfrwt>
<pdfrwt beam="2">  1       -1 0.16849411E-01 0.59529144E+03</pdfrwt>
<totfact> 0.75069370E+02</totfact>
</mgrwt>
</event>
<event>
 4    1  0.1454935E-005  0.5020345E+03  0.7818608E-02  0.1013249E+00
          1   -1    0    0  501    0  0.00000000000E+00  0.00000000000E+00  0.12684690790E+04  0.12684690790E+04  0.50400000000E-02 0.  1.
         -1   -1    0    0    0  501 -0.00000000000E+00 -0.00000000000E+00 -0.49673793660E+02  0.49673793916E+02  0.50400000000E-02 0. -1.
    5000001    1    1    2    0    0 -0.68049871122E+02  0.14649957963E+03  0.62846892755E+03  0.67670533077E+03  0.19200000000E+03 0.  0.
   -5000001    1    1    2    0    0  0.68049871122E+02 -0.14649957963E+03  0.59032635780E+03  0.64143754217E+03  0.19200000000E+03 0.  0.
<mgrwt>
<rscale>  0 0.50203455E+03</rscale>
<asrwt>0</asrwt>
<pdfrwt beam="1">  1        1 0.18120988E+00 0.50203455E+03</pdfrwt>
<pdfrwt beam="2">  1       -1 0.70962558E-02 0.50203455E+03</pdfrwt>
<totfact> 0.12204879E+03</totfact>
</mgrwt>
</event>
<event>
 4    1  0.1454935E-005  0.4954206E+03  0.7818608E-02  0.1014981E+00
          1   -1    0    0  501    0  0.00000000000E+00  0.00000000000E+00  0.82848938213E+03  0.82848938214E+03  0.50400000000E-02 0.  1.
         -1   -1    0    0    0  501 -0.00000000000E+00 -0.00000000000E+00 -0.74062966114E+02  0.74062966285E+02  0.50400000000E-02 0. -1.
    5000001    1    1    2    0    0  0.12017064010E+03  0.60915982273E+01  0.19486764600E+03  0.29885697209E+03  0.19200000000E+03 0.  0.
   -5000001    1    1    2    0    0 -0.12017064010E+03 -0.60915982273E+01  0.55955877001E+03  0.60369537634E+03  0.19200000000E+03 0.  0.
<mgrwt>
<rscale>  0 0.49542055E+03</rscale>
<asrwt>0</asrwt>
<pdfrwt beam="1">  1        1 0.11835562E+00 0.49542055E+03</pdfrwt>
<pdfrwt beam="2">  1       -1 0.10580424E-01 0.49542055E+03</pdfrwt>
<totfact> 0.13660875E+03</totfact>
</mgrwt>
</event>
<event>
 4    1  0.1454935E-005  0.6804169E+03  0.7818608E-02  0.9751321E-01
         -1   -1    0    0    0  501 -0.00000000000E+00  0.00000000000E+00  0.74794900618E+03  0.74794900620E+03  0.50400000000E-02 0. -1.
          1   -1    0    0  501    0  0.00000000000E+00 -0.00000000000E+00 -0.15474557514E+03  0.15474557522E+03  0.50400000000E-02 0.  1.
    5000001    1    1    2    0    0 -0.27321485307E+03 -0.62565391281E+02  0.27298031357E+03  0.43582454694E+03  0.19200000000E+03 0.  0.
   -5000001    1    1    2    0    0  0.27321485307E+03  0.62565391281E+02  0.32022311747E+03  0.46687003447E+03  0.19200000000E+03 0.  0.
<mgrwt>
<rscale>  0 0.68041693E+03</rscale>
<asrwt>0</asrwt>
<pdfrwt beam="1">  1        1 0.22106510E-01 0.68041693E+03</pdfrwt>
<pdfrwt beam="2">  1       -1 0.10684986E+00 0.68041693E+03</pdfrwt>
<totfact> 0.19064910E+02</totfact>
</mgrwt>
</event>
<event>
 4    1  0.1454935E-005  0.4920128E+03  0.7818608E-02  0.1015885E+00
         -1   -1    0    0    0  501 -0.00000000000E+00  0.00000000000E+00  0.20514258989E+02  0.20514259608E+02  0.50400000000E-02 0. -1.
          1   -1    0    0  501    0  0.00000000000E+00 -0.00000000000E+00 -0.29501020617E+04  0.29501020617E+04  0.50400000000E-02 0.  1.
    5000001    1    1    2    0    0 -0.11425793494E+03  0.36646449458E+02 -0.20457091560E+04  0.20582001334E+04  0.19200000000E+03 0.  0.
   -5000001    1    1    2    0    0  0.11425793494E+03 -0.36646449458E+02 -0.88387864668E+03  0.91241618794E+03  0.19200000000E+03 0.  0.
<mgrwt>
<rscale>  0 0.49201284E+03</rscale>
<asrwt>0</asrwt>
<pdfrwt beam="1">  1        1 0.42144288E+00 0.49201284E+03</pdfrwt>
<pdfrwt beam="2">  1       -1 0.29306104E-02 0.49201284E+03</pdfrwt>
<totfact> 0.41422044E+02</totfact>
</mgrwt>
</event>
<event>
 4    1  0.1454935E-005  0.4303356E+03  0.7818608E-02  0.1033754E+00
          1   -1    0    0  501    0  0.00000000000E+00  0.00000000000E+00  0.14901925269E+04  0.14901925269E+04  0.50400000000E-02 0.  1.
         -1   -1    0    0    0  501 -0.00000000000E+00 -0.00000000000E+00 -0.31067913199E+02  0.31067913608E+02  0.50400000000E-02 0. -1.
    5000001    1    1    2    0    0  0.85281933426E+02 -0.35802459596E+02  0.83433055422E+03  0.86111921242E+03  0.19200000000E+03 0.  0.
   -5000001    1    1    2    0    0 -0.85281933426E+02  0.35802459596E+02  0.62479405952E+03  0.66014122814E+03  0.19200000000E+03 0.  0.
<mgrwt>
<rscale>  0 0.43033555E+03</rscale>
<asrwt>0</asrwt>
<pdfrwt beam="1">  1        1 0.21288467E+00 0.43033555E+03</pdfrwt>
<pdfrwt beam="2">  1       -1 0.44382728E-02 0.43033555E+03</pdfrwt>
<totfact> 0.17970154E+03</totfact>
</mgrwt>
</event>
<event>
 4    1  0.1454935E-005  0.7638810E+03  0.7818608E-02  0.9613821E-01
          1   -1    0    0  501    0  0.00000000000E+00  0.00000000000E+00  0.21578103500E+04  0.21578103500E+04  0.50400000000E-02 0.  1.
         -1   -1    0    0    0  501 -0.00000000000E+00 -0.00000000000E+00 -0.67604897004E+02  0.67604897192E+02  0.50400000000E-02 0. -1.
    5000001    1    1    2    0    0 -0.75100928613E+01 -0.32659018324E+03  0.90547695009E+03  0.98156510555E+03  0.19200000000E+03 0.  0.
   -5000001    1    1    2    0    0  0.75100928613E+01  0.32659018324E+03  0.11847285029E+04  0.12438501416E+04  0.19200000000E+03 0.  0.
<mgrwt>
<rscale>  0 0.76388100E+03</rscale>
<asrwt>0</asrwt>
<pdfrwt beam="1">  1        1 0.30825861E+00 0.76388100E+03</pdfrwt>
<pdfrwt beam="2">  1       -1 0.96578429E-02 0.76388100E+03</pdfrwt>
<totfact> 0.20313471E+02</totfact>
</mgrwt>
</event>
<event>
 4    1  0.1454935E-005  0.5230580E+03  0.7818608E-02  0.1007930E+00
         -1   -1    0    0    0  501 -0.00000000000E+00  0.00000000000E+00  0.56362290420E+03  0.56362290422E+03  0.50400000000E-02 0.  1.
          1   -1    0    0  501    0  0.00000000000E+00 -0.00000000000E+00 -0.12135313438E+03  0.12135313449E+03  0.50400000000E-02 0. -1.
    5000001    1    1    2    0    0  0.75631631745E+02 -0.14054942450E+03  0.11919822404E+03  0.27667038342E+03  0.19200000000E+03 0.  0.
   -5000001    1    1    2    0    0 -0.75631631745E+02  0.14054942450E+03  0.32307154578E+03  0.40830565529E+03  0.19200000000E+03 0.  0.
<mgrwt>
<rscale>  0 0.52305796E+03</rscale>
<asrwt>0</asrwt>
<pdfrwt beam="1">  1        1 0.17336162E-01 0.52305796E+03</pdfrwt>
<pdfrwt beam="2">  1       -1 0.80517559E-01 0.52305796E+03</pdfrwt>
<totfact> 0.49455139E+02</totfact>
</mgrwt>
</event>
<event>
 4    1  0.1454935E-005  0.9471203E+03  0.7818608E-02  0.9368523E-01
          1   -1    0    0  501    0  0.00000000000E+00  0.00000000000E+00  0.63552242547E+03  0.63552242549E+03  0.50400000000E-02 0. -1.
         -1   -1    0    0    0  501 -0.00000000000E+00 -0.00000000000E+00 -0.35287381729E+03  0.35287381732E+03  0.50400000000E-02 0.  1.
    5000001    1    1    2    0    0  0.42473784868E+03  0.41618370147E+02  0.65631295521E+02  0.47255242650E+03  0.19200000000E+03 0.  0.
   -5000001    1    1    2    0    0 -0.42473784868E+03 -0.41618370147E+02  0.21701731266E+03  0.51584381632E+03  0.19200000000E+03 0.  0.
<mgrwt>
<rscale>  0 0.94712032E+03</rscale>
<asrwt>0</asrwt>
<pdfrwt beam="1">  1        1 0.90788917E-01 0.94712032E+03</pdfrwt>
<pdfrwt beam="2">  1       -1 0.50410546E-01 0.94712032E+03</pdfrwt>
<totfact> 0.13932776E+02</totfact>
</mgrwt>
</event>
<event>
 4    1  0.1454935E-005  0.7936387E+03  0.7818608E-02  0.9569271E-01
          1   -1    0    0  501    0  0.00000000000E+00  0.00000000000E+00  0.17920975508E+04  0.17920975508E+04  0.50400000000E-02 0. -1.
         -1   -1    0    0    0  501 -0.00000000000E+00 -0.00000000000E+00 -0.87866638956E+02  0.87866639101E+02  0.50400000000E-02 0.  1.
    5000001    1    1    2    0    0  0.17603878097E+03  0.29200956890E+03  0.10082104794E+04  0.10814858351E+04  0.19200000000E+03 0.  0.
   -5000001    1    1    2    0    0 -0.17603878097E+03 -0.29200956890E+03  0.69602043250E+03  0.79847835487E+03  0.19200000000E+03 0.  0.
<mgrwt>
<rscale>  0 0.79363868E+03</rscale>
<asrwt>0</asrwt>
<pdfrwt beam="1">  1        1 0.25601392E+00 0.79363868E+03</pdfrwt>
<pdfrwt beam="2">  1       -1 0.12552378E-01 0.79363868E+03</pdfrwt>
<totfact> 0.22545144E+02</totfact>
</mgrwt>
</event>
<event>
 4    1  0.1454935E-005  0.4092181E+03  0.7818608E-02  0.1040634E+00
          1   -1    0    0  501    0  0.00000000000E+00  0.00000000000E+00  0.10105833330E+04  0.10105833330E+04  0.50400000000E-02 0.  1.
         -1   -1    0    0    0  501 -0.00000000000E+00 -0.00000000000E+00 -0.41426432477E+02  0.41426432784E+02  0.50400000000E-02 0. -1.
    5000001    1    1    2    0    0 -0.60920537185E+02 -0.35696979771E+02  0.49462627486E+03  0.53526137354E+03  0.19200000000E+03 0.  0.
   -5000001    1    1    2    0    0  0.60920537185E+02  0.35696979771E+02  0.47453062568E+03  0.51674839228E+03  0.19200000000E+03 0.  0.
<mgrwt>
<rscale>  0 0.40921810E+03</rscale>
<asrwt>0</asrwt>
<pdfrwt beam="1">  1        1 0.14436904E+00 0.40921810E+03</pdfrwt>
<pdfrwt beam="2">  1       -1 0.59180621E-02 0.40921810E+03</pdfrwt>
<totfact> 0.24382316E+03</totfact>
</mgrwt>
</event>
<event>
 4    1  0.1454935E-005  0.1122199E+04  0.7818608E-02  0.9183822E-01
          1   -1    0    0  501    0  0.00000000000E+00  0.00000000000E+00  0.33982513832E+04  0.33982513832E+04  0.50400000000E-02 0.  1.
         -1   -1    0    0    0  501 -0.00000000000E+00 -0.00000000000E+00 -0.92645417743E+02  0.92645417880E+02  0.50400000000E-02 0. -1.
    5000001    1    1    2    0    0  0.33433217157E+03 -0.40709822191E+03  0.17196269790E+04  0.18087254934E+04  0.19200000000E+03 0.  0.
   -5000001    1    1    2    0    0 -0.33433217157E+03  0.40709822191E+03  0.15859789864E+04  0.16821713077E+04  0.19200000000E+03 0.  0.
<mgrwt>
<rscale>  0 0.11221986E+04</rscale>
<asrwt>0</asrwt>
<pdfrwt beam="1">  1        1 0.48546438E+00 0.11221986E+04</pdfrwt>
<pdfrwt beam="2">  1       -1 0.13235063E-01 0.11221986E+04</pdfrwt>
<totfact> 0.18793454E+01</totfact>
</mgrwt>
</event>
<event>
 4    1  0.1454935E-005  0.7202656E+03  0.7818608E-02  0.9683189E-01
          1   -1    0    0  501    0  0.00000000000E+00  0.00000000000E+00  0.14224354669E+04  0.14224354669E+04  0.50400000000E-02 0.  1.
         -1   -1    0    0    0  501 -0.00000000000E+00 -0.00000000000E+00 -0.91178575405E+02  0.91178575545E+02  0.50400000000E-02 0. -1.
    5000001    1    1    2    0    0  0.44467312230E+02 -0.28191675124E+03  0.44147728925E+03  0.55966114159E+03  0.19200000000E+03 0.  0.
   -5000001    1    1    2    0    0 -0.44467312230E+02  0.28191675124E+03  0.88977960220E+03  0.95395290082E+03  0.19200000000E+03 0.  0.
<mgrwt>
<rscale>  0 0.72026562E+03</rscale>
<asrwt>0</asrwt>
<pdfrwt beam="1">  1        1 0.20320507E+00 0.72026562E+03</pdfrwt>
<pdfrwt beam="2">  1       -1 0.13025511E-01 0.72026562E+03</pdfrwt>
<totfact> 0.36729447E+02</totfact>
</mgrwt>
</event>
<event>
 4    1  0.1454935E-005  0.5323635E+03  0.7818608E-02  0.1005661E+00
         -1   -1    0    0    0  501 -0.00000000000E+00  0.00000000000E+00  0.37402288993E+02  0.37402289333E+02  0.50400000000E-02 0.  1.
          1   -1    0    0  501    0  0.00000000000E+00 -0.00000000000E+00 -0.18943415612E+04  0.18943415612E+04  0.50400000000E-02 0. -1.
    5000001    1    1    2    0    0  0.21097545684E+02 -0.18092514188E+03 -0.10317226401E+04  0.10651265744E+04  0.19200000000E+03 0.  0.
   -5000001    1    1    2    0    0 -0.21097545684E+02  0.18092514188E+03 -0.82521663210E+03  0.86661727614E+03  0.19200000000E+03 0.  0.
<mgrwt>
<rscale>  0 0.53236345E+03</rscale>
<asrwt>0</asrwt>
<pdfrwt beam="1">  1        1 0.27062016E+00 0.53236345E+03</pdfrwt>
<pdfrwt beam="2">  1       -1 0.53431854E-02 0.53236345E+03</pdfrwt>
<totfact> 0.75471594E+02</totfact>
</mgrwt>
</event>
<event>
 4    1  0.1454935E-005  0.8465781E+03  0.7818608E-02  0.9494941E-01
         -1   -1    0    0    0  501 -0.00000000000E+00  0.00000000000E+00  0.18116285595E+03  0.18116285602E+03  0.50400000000E-02 0.  1.
          1   -1    0    0  501    0  0.00000000000E+00 -0.00000000000E+00 -0.98901969716E+03  0.98901969717E+03  0.50400000000E-02 0. -1.
    5000001    1    1    2    0    0 -0.34441436652E+03  0.12267095397E+03 -0.27544448623E+03  0.49639005209E+03  0.19200000000E+03 0.  0.
   -5000001    1    1    2    0    0  0.34441436652E+03 -0.12267095397E+03 -0.53241235498E+03  0.67379250111E+03  0.19200000000E+03 0.  0.
<mgrwt>
<rscale>  0 0.84657813E+03</rscale>
<asrwt>0</asrwt>
<pdfrwt beam="1">  1        1 0.14128852E+00 0.84657813E+03</pdfrwt>
<pdfrwt beam="2">  1       -1 0.25880409E-01 0.84657813E+03</pdfrwt>
<totfact> 0.23354508E+02</totfact>
</mgrwt>
</event>
<event>
 4    1  0.1454935E-005  0.9386864E+03  0.7818608E-02  0.9378473E-01
          1   -1    0    0  501    0  0.00000000000E+00  0.00000000000E+00  0.21379227885E+04  0.21379227885E+04  0.50400000000E-02 0.  1.
         -1   -1    0    0    0  501 -0.00000000000E+00 -0.00000000000E+00 -0.10303600698E+03  0.10303600710E+03  0.50400000000E-02 0. -1.
    5000001    1    1    2    0    0  0.87360754037E+02 -0.34346473754E+03  0.44339431544E+03  0.59921819586E+03  0.19200000000E+03 0.  0.
   -5000001    1    1    2    0    0 -0.87360754037E+02  0.34346473754E+03  0.15914924660E+04  0.16417405997E+04  0.19200000000E+03 0.  0.
<mgrwt>
<rscale>  0 0.93868637E+03</rscale>
<asrwt>0</asrwt>
<pdfrwt beam="1">  1        1 0.30541750E+00 0.93868637E+03</pdfrwt>
<pdfrwt beam="2">  1       -1 0.14719431E-01 0.93868637E+03</pdfrwt>
<totfact> 0.10479113E+02</totfact>
</mgrwt>
</event>
<event>
 4    1  0.1454935E-005  0.6784635E+03  0.7818608E-02  0.9754788E-01
          1   -1    0    0  501    0  0.00000000000E+00  0.00000000000E+00  0.19651834162E+04  0.19651834162E+04  0.50400000000E-02 0.  1.
         -1   -1    0    0    0  501 -0.00000000000E+00 -0.00000000000E+00 -0.58558486631E+02  0.58558486848E+02  0.50400000000E-02 0. -1.
    5000001    1    1    2    0    0  0.19443673657E+03 -0.13987065781E+03  0.13839647043E+04  0.14176007012E+04  0.19200000000E+03 0.  0.
   -5000001    1    1    2    0    0 -0.19443673657E+03  0.13987065781E+03  0.52266022529E+03  0.60614120182E+03  0.19200000000E+03 0.  0.
<mgrwt>
<rscale>  0 0.67846346E+03</rscale>
<asrwt>0</asrwt>
<pdfrwt beam="1">  1        1 0.28074054E+00 0.67846346E+03</pdfrwt>
<pdfrwt beam="2">  1       -1 0.83654967E-02 0.67846346E+03</pdfrwt>
<totfact> 0.33755204E+02</totfact>
</mgrwt>
</event>
<event>
 4    1  0.1454935E-005  0.4909872E+03  0.7818608E-02  0.1016159E+00
          1   -1    0    0  501    0  0.00000000000E+00  0.00000000000E+00  0.11344331023E+03  0.11344331034E+03  0.50400000000E-02 0.  1.
         -1   -1    0    0    0  501 -0.00000000000E+00 -0.00000000000E+00 -0.53125318454E+03  0.53125318456E+03  0.50400000000E-02 0. -1.
    5000001    1    1    2    0    0 -0.13357329142E+03  0.70635873796E+02 -0.17750466735E+03  0.30199860559E+03  0.19200000000E+03 0.  0.
   -5000001    1    1    2    0    0  0.13357329142E+03 -0.70635873796E+02 -0.24030520696E+03  0.34269788931E+03  0.19200000000E+03 0.  0.
<mgrwt>
<rscale>  0 0.49098725E+03</rscale>
<asrwt>0</asrwt>
<pdfrwt beam="1">  1        1 0.16206187E-01 0.49098725E+03</pdfrwt>
<pdfrwt beam="2">  1       -1 0.75893311E-01 0.49098725E+03</pdfrwt>
<totfact> 0.61245357E+02</totfact>
</mgrwt>
</event>
<event>
 4    1  0.1454935E-005  0.7551723E+03  0.7818608E-02  0.9627271E-01
         -1   -1    0    0    0  501 -0.00000000000E+00  0.00000000000E+00  0.13551722830E+03  0.13551722839E+03  0.50400000000E-02 0. -1.
          1   -1    0    0  501    0  0.00000000000E+00 -0.00000000000E+00 -0.10520529003E+04  0.10520529003E+04  0.50400000000E-02 0.  1.
    5000001    1    1    2    0    0 -0.30745301938E+03  0.98376463323E+02 -0.39732130632E+03  0.54674812128E+03  0.19200000000E+03 0.  0.
   -5000001    1    1    2    0    0  0.30745301938E+03 -0.98376463323E+02 -0.51921436566E+03  0.64082200741E+03  0.19200000000E+03 0.  0.
<mgrwt>
<rscale>  0 0.75517228E+03</rscale>
<asrwt>0</asrwt>
<pdfrwt beam="1">  1        1 0.15029327E+00 0.75517228E+03</pdfrwt>
<pdfrwt beam="2">  1       -1 0.19359605E-01 0.75517228E+03</pdfrwt>
<totfact> 0.34399824E+02</totfact>
</mgrwt>
</event>
<event>
 4    1  0.1454935E-005  0.4297198E+03  0.7818608E-02  0.1033949E+00
          1   -1    0    0  501    0  0.00000000000E+00  0.00000000000E+00  0.11607854922E+03  0.11607854933E+03  0.50400000000E-02 0.  1.
         -1   -1    0    0    0  501 -0.00000000000E+00 -0.00000000000E+00 -0.39770291517E+03  0.39770291520E+03  0.50400000000E-02 0. -1.
    5000001    1    1    2    0    0 -0.10847001983E+02  0.69022278043E+02 -0.22029207749E+03  0.30045687165E+03  0.19200000000E+03 0.  0.
   -5000001    1    1    2    0    0  0.10847001983E+02 -0.69022278043E+02 -0.61332288460E+02  0.21332459288E+03  0.19200000000E+03 0.  0.
<mgrwt>
<rscale>  0 0.42971980E+03</rscale>
<asrwt>0</asrwt>
<pdfrwt beam="1">  1        1 0.16582650E-01 0.42971980E+03</pdfrwt>
<pdfrwt beam="2">  1       -1 0.56814702E-01 0.42971980E+03</pdfrwt>
<totfact> 0.10585928E+03</totfact>
</mgrwt>
</event>
<event>
 4    1  0.1454935E-005  0.6544592E+03  0.7818608E-02  0.9798448E-01
          1   -1    0    0  501    0  0.00000000000E+00  0.00000000000E+00  0.21503254783E+04  0.21503254783E+04  0.50400000000E-02 0.  1.
         -1   -1    0    0    0  501 -0.00000000000E+00 -0.00000000000E+00 -0.49796750160E+02  0.49796750415E+02  0.50400000000E-02 0. -1.
    5000001    1    1    2    0    0 -0.96424399153E+02  0.24532379067E+03  0.95919941444E+03  0.10131184253E+04  0.19200000000E+03 0.  0.
   -5000001    1    1    2    0    0  0.96424399153E+02 -0.24532379067E+03  0.11413293137E+04  0.11870038034E+04  0.19200000000E+03 0.  0.
<mgrwt>
<rscale>  0 0.65445923E+03</rscale>
<asrwt>0</asrwt>
<pdfrwt beam="1">  1        1 0.30718933E+00 0.65445923E+03</pdfrwt>
<pdfrwt beam="2">  1       -1 0.71138219E-02 0.65445923E+03</pdfrwt>
<totfact> 0.33446775E+02</totfact>
</mgrwt>
</event>
<event>
 4    1  0.1454935E-005  0.5779784E+03  0.7818608E-02  0.9952177E-01
         -1   -1    0    0    0  501 -0.00000000000E+00  0.00000000000E+00  0.64592936723E+02  0.64592936920E+02  0.50400000000E-02 0. -1.
          1   -1    0    0  501    0  0.00000000000E+00 -0.00000000000E+00 -0.12929396520E+04  0.12929396520E+04  0.50400000000E-02 0.  1.
    5000001    1    1    2    0    0 -0.20807958107E+03  0.56703022426E+02 -0.64180743927E+03  0.70377065434E+03  0.19200000000E+03 0.  0.
   -5000001    1    1    2    0    0  0.20807958107E+03 -0.56703022426E+02 -0.58653927597E+03  0.65376193455E+03  0.19200000000E+03 0.  0.
<mgrwt>
<rscale>  0 0.57797844E+03</rscale>
<asrwt>0</asrwt>
<pdfrwt beam="1">  1        1 0.18470565E+00 0.57797844E+03</pdfrwt>
<pdfrwt beam="2">  1       -1 0.92275632E-02 0.57797844E+03</pdfrwt>
<totfact> 0.77878400E+02</totfact>
</mgrwt>
</event>
<event>
 4    1  0.1454935E-005  0.8795803E+03  0.7818608E-02  0.9451473E-01
         -1   -1    0    0    0  501 -0.00000000000E+00  0.00000000000E+00  0.31273153688E+03  0.31273153693E+03  0.50400000000E-02 0. -1.
          1   -1    0    0  501    0  0.00000000000E+00 -0.00000000000E+00 -0.61847092655E+03  0.61847092657E+03  0.50400000000E-02 0.  1.
    5000001    1    1    2    0    0  0.13746345919E+03 -0.35223489528E+03 -0.29471082637E+02  0.42508607220E+03  0.19200000000E+03 0.  0.
   -5000001    1    1    2    0    0 -0.13746345919E+03  0.35223489528E+03 -0.27626830703E+03  0.50611639130E+03  0.19200000000E+03 0.  0.
<mgrwt>
<rscale>  0 0.87958027E+03</rscale>
<asrwt>0</asrwt>
<pdfrwt beam="1">  1        1 0.88352989E-01 0.87958027E+03</pdfrwt>
<pdfrwt beam="2">  1       -1 0.44675934E-01 0.87958027E+03</pdfrwt>
<totfact> 0.18243035E+02</totfact>
</mgrwt>
</event>
<event>
 4    1  0.1454935E-005  0.4172044E+03  0.7818608E-02  0.1037980E+00
          1   -1    0    0  501    0  0.00000000000E+00  0.00000000000E+00  0.47083888255E+03  0.47083888258E+03  0.50400000000E-02 0. -1.
         -1   -1    0    0    0  501 -0.00000000000E+00 -0.00000000000E+00 -0.92419893016E+02  0.92419893153E+02  0.50400000000E-02 0.  1.
    5000001    1    1    2    0    0  0.40675899074E+02 -0.70647217139E+02  0.18609518650E+03  0.27953707534E+03  0.19200000000E+03 0.  0.
   -5000001    1    1    2    0    0 -0.40675899074E+02  0.70647217139E+02  0.19232380304E+03  0.28372170039E+03  0.19200000000E+03 0.  0.
<mgrwt>
<rscale>  0 0.41720441E+03</rscale>
<asrwt>0</asrwt>
<pdfrwt beam="1">  1        1 0.67262696E-01 0.41720441E+03</pdfrwt>
<pdfrwt beam="2">  1       -1 0.13202842E-01 0.41720441E+03</pdfrwt>
<totfact> 0.21366788E+03</totfact>
</mgrwt>
</event>
<event>
 4    1  0.1454935E-005  0.4263819E+03  0.7818608E-02  0.1035009E+00
          1   -1    0    0  501    0  0.00000000000E+00  0.00000000000E+00  0.23777786429E+04  0.23777786429E+04  0.50400000000E-02 0.  1.
         -1   -1    0    0    0  501 -0.00000000000E+00 -0.00000000000E+00 -0.19114640718E+02  0.19114641383E+02  0.50400000000E-02 0. -1.
    5000001    1    1    2    0    0 -0.73192920109E+02  0.41312574836E+02  0.95998997648E+03  0.98260301615E+03  0.19200000000E+03 0.  0.
   -5000001    1    1    2    0    0  0.73192920109E+02 -0.41312574836E+02  0.13986740257E+04  0.14142902682E+04  0.19200000000E+03 0.  0.
<mgrwt>
<rscale>  0 0.42638192E+03</rscale>
<asrwt>0</asrwt>
<pdfrwt beam="1">  1        1 0.33968242E+00 0.42638192E+03</pdfrwt>
<pdfrwt beam="2">  1       -1 0.27306649E-02 0.42638192E+03</pdfrwt>
<totfact> 0.10567875E+03</totfact>
</mgrwt>
</event>
<event>
 4    1  0.1454935E-005  0.4956838E+03  0.7818608E-02  0.1014912E+00
         -1   -1    0    0    0  501 -0.00000000000E+00  0.00000000000E+00  0.29181694514E+03  0.29181694519E+03  0.50400000000E-02 0.  1.
          1   -1    0    0  501    0  0.00000000000E+00 -0.00000000000E+00 -0.21049363995E+03  0.21049364001E+03  0.50400000000E-02 0. -1.
    5000001    1    1    2    0    0  0.24341000343E+02  0.13390111031E+03  0.11941560820E+03  0.26390543595E+03  0.19200000000E+03 0.  0.
   -5000001    1    1    2    0    0 -0.24341000343E+02 -0.13390111031E+03 -0.38092303008E+02  0.23840514925E+03  0.19200000000E+03 0.  0.
<mgrwt>
<rscale>  0 0.49568381E+03</rscale>
<asrwt>0</asrwt>
<pdfrwt beam="1">  1        1 0.30070520E-01 0.49568381E+03</pdfrwt>
<pdfrwt beam="2">  1       -1 0.41688135E-01 0.49568381E+03</pdfrwt>
<totfact> 0.86876646E+02</totfact>
</mgrwt>
</event>
<event>
 4    1  0.1454935E-005  0.6398270E+03  0.7818608E-02  0.9826058E-01
         -1   -1    0    0    0  501 -0.00000000000E+00  0.00000000000E+00  0.82508473434E+02  0.82508473588E+02  0.50400000000E-02 0. -1.
          1   -1    0    0  501    0  0.00000000000E+00 -0.00000000000E+00 -0.12404136272E+04  0.12404136272E+04  0.50400000000E-02 0.  1.
    5000001    1    1    2    0    0  0.71412326035E+02  0.15729635910E+03 -0.96928361723E+03  0.10031034820E+04  0.19200000000E+03 0.  0.
   -5000001    1    1    2    0    0 -0.71412326035E+02 -0.15729635910E+03 -0.18862153649E+03  0.31981861879E+03  0.19200000000E+03 0.  0.
<mgrwt>
<rscale>  0 0.63982696E+03</rscale>
<asrwt>0</asrwt>
<pdfrwt beam="1">  1        1 0.17720194E+00 0.63982696E+03</pdfrwt>
<pdfrwt beam="2">  1       -1 0.11786925E-01 0.63982696E+03</pdfrwt>
<totfact> 0.57195356E+02</totfact>
</mgrwt>
</event>
<event>
 4    1  0.1454935E-005  0.5294102E+03  0.7818608E-02  0.1006375E+00
          1   -1    0    0  501    0  0.00000000000E+00  0.00000000000E+00  0.44469832155E+02  0.44469832440E+02  0.50400000000E-02 0.  1.
         -1   -1    0    0    0  501 -0.00000000000E+00 -0.00000000000E+00 -0.15756480062E+04  0.15756480062E+04  0.50400000000E-02 0. -1.
    5000001    1    1    2    0    0  0.37384439079E+02  0.12416586915E+03 -0.37380723921E+03  0.43978473306E+03  0.19200000000E+03 0.  0.
   -5000001    1    1    2    0    0 -0.37384439079E+02 -0.12416586915E+03 -0.11573709349E+04  0.11803331056E+04  0.19200000000E+03 0.  0.
<mgrwt>
<rscale>  0 0.52941025E+03</rscale>
<asrwt>0</asrwt>
<pdfrwt beam="1">  1        1 0.63528342E-02 0.52941025E+03</pdfrwt>
<pdfrwt beam="2">  1       -1 0.22509254E+00 0.52941025E+03</pdfrwt>
<totfact> 0.13378242E+02</totfact>
</mgrwt>
</event>
<event>
 4    1  0.1454935E-005  0.5252670E+03  0.7818608E-02  0.1007386E+00
         -1   -1    0    0    0  501 -0.00000000000E+00  0.00000000000E+00  0.69526427095E+02  0.69526427277E+02  0.50400000000E-02 0. -1.
          1   -1    0    0  501    0  0.00000000000E+00 -0.00000000000E+00 -0.99208815001E+03  0.99208815002E+03  0.50400000000E-02 0.  1.
    5000001    1    1    2    0    0  0.27339332246E+02  0.17146050698E+03 -0.37166174958E+03  0.45292670559E+03  0.19200000000E+03 0.  0.
   -5000001    1    1    2    0    0 -0.27339332246E+02 -0.17146050698E+03 -0.55089997334E+03  0.60868787171E+03  0.19200000000E+03 0.  0.
<mgrwt>
<rscale>  0 0.52526696E+03</rscale>
<asrwt>0</asrwt>
<pdfrwt beam="1">  1        1 0.14172687E+00 0.52526696E+03</pdfrwt>
<pdfrwt beam="2">  1       -1 0.99323474E-02 0.52526696E+03</pdfrwt>
<totfact> 0.11273616E+03</totfact>
</mgrwt>
</event>
<event>
 4    1  0.1454935E-005  0.7442429E+03  0.7818608E-02  0.9644426E-01
          1   -1    0    0  501    0  0.00000000000E+00  0.00000000000E+00  0.29660304728E+03  0.29660304732E+03  0.50400000000E-02 0.  1.
         -1   -1    0    0    0  501 -0.00000000000E+00 -0.00000000000E+00 -0.46686768375E+03  0.46686768377E+03  0.50400000000E-02 0. -1.
    5000001    1    1    2    0    0  0.12643940491E+03  0.19615238336E+03  0.13761266319E+03  0.33206012360E+03  0.19200000000E+03 0.  0.
   -5000001    1    1    2    0    0 -0.12643940491E+03 -0.19615238336E+03 -0.30787729966E+03  0.43141060750E+03  0.19200000000E+03 0.  0.
<mgrwt>
<rscale>  0 0.74424291E+03</rscale>
<asrwt>0</asrwt>
<pdfrwt beam="1">  1        1 0.42371864E-01 0.74424291E+03</pdfrwt>
<pdfrwt beam="2">  1       -1 0.66695383E-01 0.74424291E+03</pdfrwt>
<totfact> 0.22603659E+02</totfact>
</mgrwt>
</event>
<event>
 4    1  0.1454935E-005  0.5301566E+03  0.7818608E-02  0.1006194E+00
         -1   -1    0    0    0  501 -0.00000000000E+00  0.00000000000E+00  0.99791989397E+03  0.99791989399E+03  0.50400000000E-02 0. -1.
          1   -1    0    0  501    0  0.00000000000E+00 -0.00000000000E+00 -0.70412982674E+02  0.70412982855E+02  0.50400000000E-02 0.  1.
    5000001    1    1    2    0    0  0.12988795736E+03  0.12249143898E+03  0.54251069200E+03  0.60254201930E+03  0.19200000000E+03 0.  0.
   -5000001    1    1    2    0    0 -0.12988795736E+03 -0.12249143898E+03  0.38499621930E+03  0.46579085754E+03  0.19200000000E+03 0.  0.
<mgrwt>
<rscale>  0 0.53015664E+03</rscale>
<asrwt>0</asrwt>
<pdfrwt beam="1">  1        1 0.10058998E-01 0.53015664E+03</pdfrwt>
<pdfrwt beam="2">  1       -1 0.14255998E+00 0.53015664E+03</pdfrwt>
<totfact> 0.27206962E+02</totfact>
</mgrwt>
</event>
<event>
 4    1  0.1454935E-005  0.5487862E+03  0.7818608E-02  0.1001775E+00
          1   -1    0    0  501    0  0.00000000000E+00  0.00000000000E+00  0.31231985588E+03  0.31231985592E+03  0.50400000000E-02 0.  1.
         -1   -1    0    0    0  501 -0.00000000000E+00 -0.00000000000E+00 -0.24107200649E+03  0.24107200654E+03  0.50400000000E-02 0. -1.
    5000001    1    1    2    0    0 -0.18100620018E+03 -0.58608824408E+02  0.83236021092E+02  0.28282587224E+03  0.19200000000E+03 0.  0.
   -5000001    1    1    2    0    0  0.18100620018E+03  0.58608824408E+02 -0.11988171699E+02  0.27056599022E+03  0.19200000000E+03 0.  0.
<mgrwt>
<rscale>  0 0.54878620E+03</rscale>
<asrwt>0</asrwt>
<pdfrwt beam="1">  1        1 0.44617123E-01 0.54878620E+03</pdfrwt>
<pdfrwt beam="2">  1       -1 0.34438858E-01 0.54878620E+03</pdfrwt>
<totfact> 0.73658816E+02</totfact>
</mgrwt>
</event>
<event>
 4    1  0.1454935E-005  0.6047407E+03  0.7818608E-02  0.9895619E-01
          1   -1    0    0  501    0  0.00000000000E+00  0.00000000000E+00  0.62656339779E+03  0.62656339781E+03  0.50400000000E-02 0.  1.
         -1   -1    0    0    0  501 -0.00000000000E+00 -0.00000000000E+00 -0.14591950860E+03  0.14591950869E+03  0.50400000000E-02 0. -1.
    5000001    1    1    2    0    0 -0.16648802318E+03 -0.10797755845E+03  0.82906541152E+02  0.28829656528E+03  0.19200000000E+03 0.  0.
   -5000001    1    1    2    0    0  0.16648802318E+03  0.10797755845E+03  0.39773734804E+03  0.48418634121E+03  0.19200000000E+03 0.  0.
<mgrwt>
<rscale>  0 0.60474068E+03</rscale>
<asrwt>0</asrwt>
<pdfrwt beam="1">  1        1 0.89509056E-01 0.60474068E+03</pdfrwt>
<pdfrwt beam="2">  1       -1 0.20845644E-01 0.60474068E+03</pdfrwt>
<totfact> 0.68795656E+02</totfact>
</mgrwt>
</event>
<event>
 4    1  0.1454935E-005  0.4881743E+03  0.7818608E-02  0.1016913E+00
          1   -1    0    0  501    0  0.00000000000E+00  0.00000000000E+00  0.11145300071E+04  0.11145300071E+04  0.50400000000E-02 0.  1.
         -1   -1    0    0    0  501 -0.00000000000E+00 -0.00000000000E+00 -0.53456207966E+02  0.53456208204E+02  0.50400000000E-02 0. -1.
    5000001    1    1    2    0    0  0.14993766509E+03 -0.13591505312E+02  0.51387197719E+03  0.56885362033E+03  0.19200000000E+03 0.  0.
   -5000001    1    1    2    0    0 -0.14993766509E+03  0.13591505312E+02  0.54720182197E+03  0.59913259501E+03  0.19200000000E+03 0.  0.
<mgrwt>
<rscale>  0 0.48817435E+03</rscale>
<asrwt>0</asrwt>
<pdfrwt beam="1">  1        1 0.15921857E+00 0.48817435E+03</pdfrwt>
<pdfrwt beam="2">  1       -1 0.76366011E-02 0.48817435E+03</pdfrwt>
<totfact> 0.13884953E+03</totfact>
</mgrwt>
</event>
<event>
 4    1  0.1454935E-005  0.4477099E+03  0.7818608E-02  0.1028407E+00
          1   -1    0    0  501    0  0.00000000000E+00  0.00000000000E+00  0.18167385060E+03  0.18167385067E+03  0.50400000000E-02 0.  1.
         -1   -1    0    0    0  501 -0.00000000000E+00 -0.00000000000E+00 -0.27582971666E+03  0.27582971671E+03  0.50400000000E-02 0. -1.
    5000001    1    1    2    0    0 -0.61536771504E+02  0.69978938565E+02 -0.11610723591E+03  0.24295826045E+03  0.19200000000E+03 0.  0.
   -5000001    1    1    2    0    0  0.61536771504E+02 -0.69978938565E+02  0.21951369848E+02  0.21454530694E+03  0.19200000000E+03 0.  0.
<mgrwt>
<rscale>  0 0.44770994E+03</rscale>
<asrwt>0</asrwt>
<pdfrwt beam="1">  1        1 0.25953407E-01 0.44770994E+03</pdfrwt>
<pdfrwt beam="2">  1       -1 0.39404245E-01 0.44770994E+03</pdfrwt>
<totfact> 0.11625241E+03</totfact>
</mgrwt>
</event>
<event>
 4    1  0.1454935E-005  0.5428550E+03  0.7818608E-02  0.1003161E+00
         -1   -1    0    0    0  501 -0.00000000000E+00  0.00000000000E+00  0.48013104526E+02  0.48013104790E+02  0.50400000000E-02 0. -1.
          1   -1    0    0  501    0  0.00000000000E+00 -0.00000000000E+00 -0.15344328294E+04  0.15344328294E+04  0.50400000000E-02 0.  1.
    5000001    1    1    2    0    0  0.69120609423E+02 -0.16290419502E+03 -0.95926648546E+03  0.99416881138E+03  0.19200000000E+03 0.  0.
   -5000001    1    1    2    0    0 -0.69120609423E+02  0.16290419502E+03 -0.52715323942E+03  0.58827712282E+03  0.19200000000E+03 0.  0.
<mgrwt>
<rscale>  0 0.54285499E+03</rscale>
<asrwt>0</asrwt>
<pdfrwt beam="1">  1        1 0.21920466E+00 0.54285499E+03</pdfrwt>
<pdfrwt beam="2">  1       -1 0.68590159E-02 0.54285499E+03</pdfrwt>
<totfact> 0.86238647E+02</totfact>
</mgrwt>
</event>
<event>
 4    1  0.1454935E-005  0.6614477E+03  0.7818608E-02  0.9785532E-01
          1   -1    0    0  501    0  0.00000000000E+00  0.00000000000E+00  0.92572378693E+02  0.92572378830E+02  0.50400000000E-02 0.  1.
         -1   -1    0    0    0  501 -0.00000000000E+00 -0.00000000000E+00 -0.11815431460E+04  0.11815431460E+04  0.50400000000E-02 0. -1.
    5000001    1    1    2    0    0 -0.13118873164E+03  0.18299757778E+03 -0.25997539772E+03  0.39389059928E+03  0.19200000000E+03 0.  0.
   -5000001    1    1    2    0    0  0.13118873164E+03 -0.18299757778E+03 -0.82899536956E+03  0.88022492554E+03  0.19200000000E+03 0.  0.
<mgrwt>
<rscale>  0 0.66144768E+03</rscale>
<asrwt>0</asrwt>
<pdfrwt beam="1">  1        1 0.13224626E-01 0.66144768E+03</pdfrwt>
<pdfrwt beam="2">  1       -1 0.16879187E+00 0.66144768E+03</pdfrwt>
<totfact> 0.11757529E+02</totfact>
</mgrwt>
</event>
<event>
 4    1  0.1454935E-005  0.5126920E+03  0.7818608E-02  0.1010518E+00
          1   -1    0    0  501    0  0.00000000000E+00  0.00000000000E+00  0.14633059716E+04  0.14633059716E+04  0.50400000000E-02 0.  1.
         -1   -1    0    0    0  501 -0.00000000000E+00 -0.00000000000E+00 -0.44907402408E+02  0.44907402690E+02  0.50400000000E-02 0. -1.
    5000001    1    1    2    0    0 -0.16173148937E+03 -0.57927954017E+01  0.86088195064E+03  0.89675658017E+03  0.19200000000E+03 0.  0.
   -5000001    1    1    2    0    0  0.16173148937E+03  0.57927954017E+01  0.55751661858E+03  0.61145679416E+03  0.19200000000E+03 0.  0.
<mgrwt>
<rscale>  0 0.51269199E+03</rscale>
<asrwt>0</asrwt>
<pdfrwt beam="1">  1        1 0.20904377E+00 0.51269199E+03</pdfrwt>
<pdfrwt beam="2">  1       -1 0.64153413E-02 0.51269199E+03</pdfrwt>
<totfact> 0.10629583E+03</totfact>
</mgrwt>
</event>
<event>
 4    1  0.1454935E-005  0.5565131E+03  0.7818608E-02  0.9999975E-01
         -1   -1    0    0    0  501 -0.00000000000E+00  0.00000000000E+00  0.10990105213E+04  0.10990105213E+04  0.50400000000E-02 0. -1.
          1   -1    0    0  501    0  0.00000000000E+00 -0.00000000000E+00 -0.70451286157E+02  0.70451286337E+02  0.50400000000E-02 0.  1.
    5000001    1    1    2    0    0 -0.74533410910E+02  0.10363420660E+03  0.84163728876E+03  0.87264689534E+03  0.19200000000E+03 0.  0.
   -5000001    1    1    2    0    0  0.74533410910E+02 -0.10363420660E+03  0.18692194635E+03  0.29681491227E+03  0.19200000000E+03 0.  0.
<mgrwt>
<rscale>  0 0.55651309E+03</rscale>
<asrwt>0</asrwt>
<pdfrwt beam="1">  1        1 0.10064471E-01 0.55651309E+03</pdfrwt>
<pdfrwt beam="2">  1       -1 0.15700148E+00 0.55651309E+03</pdfrwt>
<totfact> 0.20998857E+02</totfact>
</mgrwt>
</event>
<event>
 4    1  0.1454935E-005  0.5299347E+03  0.7818608E-02  0.1006248E+00
          1   -1    0    0  501    0  0.00000000000E+00  0.00000000000E+00  0.99362391650E+02  0.99362391778E+02  0.50400000000E-02 0.  1.
         -1   -1    0    0    0  501 -0.00000000000E+00 -0.00000000000E+00 -0.70658214956E+03  0.70658214958E+03  0.50400000000E-02 0. -1.
    5000001    1    1    2    0    0 -0.11287008178E+03  0.14169652919E+03 -0.33849414499E+03  0.42925499175E+03  0.19200000000E+03 0.  0.
   -5000001    1    1    2    0    0  0.11287008178E+03 -0.14169652919E+03 -0.26872561292E+03  0.37668954961E+03  0.19200000000E+03 0.  0.
<mgrwt>
<rscale>  0 0.52993468E+03</rscale>
<asrwt>0</asrwt>
<pdfrwt beam="1">  1        1 0.14194628E-01 0.52993468E+03</pdfrwt>
<pdfrwt beam="2">  1       -1 0.10094030E+00 0.52993468E+03</pdfrwt>
<totfact> 0.39386192E+02</totfact>
</mgrwt>
</event>
<event>
 4    1  0.1454935E-005  0.6513788E+03  0.7818608E-02  0.9804195E-01
         -1   -1    0    0    0  501 -0.00000000000E+00  0.00000000000E+00  0.45070943771E+03  0.45070943774E+03  0.50400000000E-02 0. -1.
          1   -1    0    0  501    0  0.00000000000E+00 -0.00000000000E+00 -0.23534806263E+03  0.23534806269E+03  0.50400000000E-02 0.  1.
    5000001    1    1    2    0    0 -0.23663743913E+03 -0.89282635207E+02  0.31432256130E+02  0.31909348673E+03  0.19200000000E+03 0.  0.
   -5000001    1    1    2    0    0  0.23663743913E+03  0.89282635207E+02  0.18392911895E+03  0.36696401369E+03  0.19200000000E+03 0.  0.
<mgrwt>
<rscale>  0 0.65137882E+03</rscale>
<asrwt>0</asrwt>
<pdfrwt beam="1">  1        1 0.33621152E-01 0.65137882E+03</pdfrwt>
<pdfrwt beam="2">  1       -1 0.64387063E-01 0.65137882E+03</pdfrwt>
<totfact> 0.32826392E+02</totfact>
</mgrwt>
</event>
<event>
 4    1  0.1454935E-005  0.5455015E+03  0.7818608E-02  0.1002541E+00
         -1   -1    0    0    0  501 -0.00000000000E+00  0.00000000000E+00  0.59303108463E+03  0.59303108465E+03  0.50400000000E-02 0. -1.
          1   -1    0    0  501    0  0.00000000000E+00 -0.00000000000E+00 -0.12544530431E+03  0.12544530441E+03  0.50400000000E-02 0.  1.
    5000001    1    1    2    0    0  0.24169970517E+01 -0.18424494102E+03  0.31256481779E+03  0.41050311264E+03  0.19200000000E+03 0.  0.
   -5000001    1    1    2    0    0 -0.24169970517E+01  0.18424494102E+03  0.15502096252E+03  0.30797327642E+03  0.19200000000E+03 0.  0.
<mgrwt>
<rscale>  0 0.54550148E+03</rscale>
<asrwt>0</asrwt>
<pdfrwt beam="1">  1        1 0.17920757E-01 0.54550148E+03</pdfrwt>
<pdfrwt beam="2">  1       -1 0.84718729E-01 0.54550148E+03</pdfrwt>
<totfact> 0.42450330E+02</totfact>
</mgrwt>
</event>
<event>
 4    1  0.1454935E-005  0.5311858E+03  0.7818608E-02  0.1005945E+00
         -1   -1    0    0    0  501 -0.00000000000E+00  0.00000000000E+00  0.26202117411E+03  0.26202117416E+03  0.50400000000E-02 0. -1.
          1   -1    0    0  501    0  0.00000000000E+00 -0.00000000000E+00 -0.26921332849E+03  0.26921332854E+03  0.50400000000E-02 0.  1.
    5000001    1    1    2    0    0 -0.84576014615E+02  0.12050657942E+03  0.10596146271E+03  0.26413399915E+03  0.19200000000E+03 0.  0.
   -5000001    1    1    2    0    0  0.84576014615E+02 -0.12050657942E+03 -0.11315361709E+03  0.26710050354E+03  0.19200000000E+03 0.  0.
<mgrwt>
<rscale>  0 0.53118581E+03</rscale>
<asrwt>0</asrwt>
<pdfrwt beam="1">  1        1 0.38459047E-01 0.53118581E+03</pdfrwt>
<pdfrwt beam="2">  1       -1 0.37431596E-01 0.53118581E+03</pdfrwt>
<totfact> 0.76884808E+02</totfact>
</mgrwt>
</event>
<event>
 4    1  0.1454935E-005  0.6049734E+03  0.7818608E-02  0.9895141E-01
         -1   -1    0    0    0  501 -0.00000000000E+00  0.00000000000E+00  0.39568519280E+03  0.39568519283E+03  0.50400000000E-02 0. -1.
          1   -1    0    0  501    0  0.00000000000E+00 -0.00000000000E+00 -0.23123986063E+03  0.23123986068E+03  0.50400000000E-02 0.  1.
    5000001    1    1    2    0    0 -0.17855409787E+03 -0.10398009475E+03 -0.31016175657E+02  0.28375945644E+03  0.19200000000E+03 0.  0.
   -5000001    1    1    2    0    0  0.17855409787E+03  0.10398009475E+03  0.19546150783E+03  0.34316559707E+03  0.19200000000E+03 0.  0.
<mgrwt>
<rscale>  0 0.60497335E+03</rscale>
<asrwt>0</asrwt>
<pdfrwt beam="1">  1        1 0.33034266E-01 0.60497335E+03</pdfrwt>
<pdfrwt beam="2">  1       -1 0.56526456E-01 0.60497335E+03</pdfrwt>
<totfact> 0.43441960E+02</totfact>
</mgrwt>
</event>
<event>
 4    1  0.1454935E-005  0.4552824E+03  0.7818608E-02  0.1026158E+00
          1   -1    0    0  501    0  0.00000000000E+00  0.00000000000E+00  0.26112441384E+03  0.26112441389E+03  0.50400000000E-02 0.  1.
         -1   -1    0    0    0  501 -0.00000000000E+00 -0.00000000000E+00 -0.19845139727E+03  0.19845139734E+03  0.50400000000E-02 0. -1.
    5000001    1    1    2    0    0  0.47387490500E+02  0.10220584915E+03  0.79376218568E+02  0.23633915023E+03  0.19200000000E+03 0.  0.
   -5000001    1    1    2    0    0 -0.47387490500E+02 -0.10220584915E+03 -0.16703201999E+02  0.22323666100E+03  0.19200000000E+03 0.  0.
<mgrwt>
<rscale>  0 0.45528235E+03</rscale>
<asrwt>0</asrwt>
<pdfrwt beam="1">  1        1 0.37303488E-01 0.45528235E+03</pdfrwt>
<pdfrwt beam="2">  1       -1 0.28350199E-01 0.45528235E+03</pdfrwt>
<totfact> 0.12995077E+03</totfact>
</mgrwt>
</event>
<event>
 4    1  0.1454935E-005  0.4686308E+03  0.7818608E-02  0.1022307E+00
          1   -1    0    0  501    0  0.00000000000E+00  0.00000000000E+00  0.62505882213E+03  0.62505882215E+03  0.50400000000E-02 0.  1.
         -1   -1    0    0    0  501 -0.00000000000E+00 -0.00000000000E+00 -0.87837651758E+02  0.87837651902E+02  0.50400000000E-02 0. -1.
    5000001    1    1    2    0    0  0.65267807794E+02  0.70069204740E+02  0.12533889268E+03  0.24848222915E+03  0.19200000000E+03 0.  0.
   -5000001    1    1    2    0    0 -0.65267807794E+02 -0.70069204740E+02  0.41188227769E+03  0.46441424489E+03  0.19200000000E+03 0.  0.
<mgrwt>
<rscale>  0 0.46863077E+03</rscale>
<asrwt>0</asrwt>
<pdfrwt beam="1">  1        1 0.89294117E-01 0.46863077E+03</pdfrwt>
<pdfrwt beam="2">  1       -1 0.12548236E-01 0.46863077E+03</pdfrwt>
<totfact> 0.15782148E+03</totfact>
</mgrwt>
</event>
<event>
 4    1  0.1454935E-005  0.4994331E+03  0.7818608E-02  0.1013927E+00
          1   -1    0    0  501    0  0.00000000000E+00  0.00000000000E+00  0.10175003363E+04  0.10175003363E+04  0.50400000000E-02 0.  1.
         -1   -1    0    0    0  501 -0.00000000000E+00 -0.00000000000E+00 -0.61285835415E+02  0.61285835622E+02  0.50400000000E-02 0. -1.
    5000001    1    1    2    0    0  0.15155732246E+03  0.31838697426E+02  0.56207163363E+03  0.61381743700E+03  0.19200000000E+03 0.  0.
   -5000001    1    1    2    0    0 -0.15155732246E+03 -0.31838697426E+02  0.39414286721E+03  0.46496873489E+03  0.19200000000E+03 0.  0.
<mgrwt>
<rscale>  0 0.49943311E+03</rscale>
<asrwt>0</asrwt>
<pdfrwt beam="1">  1        1 0.14535720E+00 0.49943311E+03</pdfrwt>
<pdfrwt beam="2">  1       -1 0.87551191E-02 0.49943311E+03</pdfrwt>
<totfact> 0.13166261E+03</totfact>
</mgrwt>
</event>
<event>
 4    1  0.1454935E-005  0.1568734E+04  0.7818608E-02  0.8839990E-01
          1   -1    0    0  501    0  0.00000000000E+00  0.00000000000E+00  0.55024741752E+03  0.55024741755E+03  0.50400000000E-02 0.  1.
         -1   -1    0    0    0  501 -0.00000000000E+00 -0.00000000000E+00 -0.11180999130E+04  0.11180999130E+04  0.50400000000E-02 0. -1.
    5000001    1    1    2    0    0 -0.19877824135E+03  0.59855363146E+03 -0.73586754470E+03  0.98800014287E+03  0.19200000000E+03 0.  0.
   -5000001    1    1    2    0    0  0.19877824135E+03 -0.59855363146E+03  0.16801504926E+03  0.68034718765E+03  0.19200000000E+03 0.  0.
<mgrwt>
<rscale>  0 0.15687340E+04</rscale>
<asrwt>0</asrwt>
<pdfrwt beam="1">  1        1 0.78606774E-01 0.15687340E+04</pdfrwt>
<pdfrwt beam="2">  1       -1 0.15972856E+00 0.15687340E+04</pdfrwt>
<totfact> 0.12181107E+01</totfact>
</mgrwt>
</event>
<event>
 4    1  0.1454935E-005  0.1286518E+04  0.7818608E-02  0.9040325E-01
          1   -1    0    0  501    0  0.00000000000E+00  0.00000000000E+00  0.16893682046E+04  0.16893682046E+04  0.50400000000E-02 0.  1.
         -1   -1    0    0    0  501 -0.00000000000E+00 -0.00000000000E+00 -0.24493305288E+03  0.24493305293E+03  0.50400000000E-02 0. -1.
    5000001    1    1    2    0    0 -0.15680781762E+02 -0.33993543391E+03  0.14905074498E+04  0.15408693793E+04  0.19200000000E+03 0.  0.
   -5000001    1    1    2    0    0  0.15680781762E+02  0.33993543391E+03 -0.46072298100E+02  0.39343187822E+03  0.19200000000E+03 0.  0.
<mgrwt>
<rscale>  0 0.12865180E+04</rscale>
<asrwt>0</asrwt>
<pdfrwt beam="1">  1        1 0.24133831E+00 0.12865180E+04</pdfrwt>
<pdfrwt beam="2">  1       -1 0.34990437E-01 0.12865180E+04</pdfrwt>
<totfact> 0.44795391E+01</totfact>
</mgrwt>
</event>
<event>
 4    1  0.1454935E-005  0.6183676E+03  0.7818608E-02  0.9868015E-01
          1   -1    0    0  501    0  0.00000000000E+00  0.00000000000E+00  0.35928564159E+04  0.35928564159E+04  0.50400000000E-02 0. -1.
         -1   -1    0    0    0  501 -0.00000000000E+00 -0.00000000000E+00 -0.26606855411E+02  0.26606855889E+02  0.50400000000E-02 0.  1.
    5000001    1    1    2    0    0  0.51248660144E+01  0.23037662203E+03  0.13438981285E+04  0.13769625384E+04  0.19200000000E+03 0.  0.
   -5000001    1    1    2    0    0 -0.51248660144E+01 -0.23037662203E+03  0.22223514320E+04  0.22425007334E+04  0.19200000000E+03 0.  0.
<mgrwt>
<rscale>  0 0.61836757E+03</rscale>
<asrwt>0</asrwt>
<pdfrwt beam="1">  1        1 0.51326494E+00 0.61836757E+03</pdfrwt>
<pdfrwt beam="2">  1       -1 0.38009813E-02 0.61836757E+03</pdfrwt>
<totfact> 0.10286663E+02</totfact>
</mgrwt>
</event>
<event>
 4    1  0.1454935E-005  0.5018953E+03  0.7818608E-02  0.1013285E+00
         -1   -1    0    0    0  501 -0.00000000000E+00  0.00000000000E+00  0.29972697531E+03  0.29972697535E+03  0.50400000000E-02 0. -1.
          1   -1    0    0  501    0  0.00000000000E+00 -0.00000000000E+00 -0.21010695940E+03  0.21010695946E+03  0.50400000000E-02 0.  1.
    5000001    1    1    2    0    0  0.16051950735E+03 -0.17935524825E+02  0.39988548217E+02  0.25406943791E+03  0.19200000000E+03 0.  0.
   -5000001    1    1    2    0    0 -0.16051950735E+03  0.17935524825E+02  0.49631467684E+02  0.25576449690E+03  0.19200000000E+03 0.  0.
<mgrwt>
<rscale>  0 0.50189530E+03</rscale>
<asrwt>0</asrwt>
<pdfrwt beam="1">  1        1 0.30015280E-01 0.50189530E+03</pdfrwt>
<pdfrwt beam="2">  1       -1 0.42818139E-01 0.50189530E+03</pdfrwt>
<totfact> 0.82939914E+02</totfact>
</mgrwt>
</event>
<event>
 4    1  0.1454935E-005  0.6484967E+03  0.7818608E-02  0.9809604E-01
         -1   -1    0    0    0  501 -0.00000000000E+00  0.00000000000E+00  0.24853708886E+03  0.24853708891E+03  0.50400000000E-02 0.  1.
          1   -1    0    0  501    0  0.00000000000E+00 -0.00000000000E+00 -0.42302329851E+03  0.42302329854E+03  0.50400000000E-02 0. -1.
    5000001    1    1    2    0    0 -0.22907596869E+03  0.64509702260E+02 -0.19894824964E+03  0.36480365562E+03  0.19200000000E+03 0.  0.
   -5000001    1    1    2    0    0  0.22907596869E+03 -0.64509702260E+02  0.24462039990E+02  0.30675673182E+03  0.19200000000E+03 0.  0.
<mgrwt>
<rscale>  0 0.64849666E+03</rscale>
<asrwt>0</asrwt>
<pdfrwt beam="1">  1        1 0.60431900E-01 0.64849666E+03</pdfrwt>
<pdfrwt beam="2">  1       -1 0.35505298E-01 0.64849666E+03</pdfrwt>
<totfact> 0.46947882E+02</totfact>
</mgrwt>
</event>
<event>
 4    1  0.1454935E-005  0.5665293E+03  0.7818608E-02  0.9977388E-01
          1   -1    0    0  501    0  0.00000000000E+00  0.00000000000E+00  0.79758402659E+03  0.79758402661E+03  0.50400000000E-02 0. -1.
         -1   -1    0    0    0  501 -0.00000000000E+00 -0.00000000000E+00 -0.10060238207E+03  0.10060238220E+03  0.50400000000E-02 0.  1.
    5000001    1    1    2    0    0 -0.11425480287E+03 -0.17385931846E+03  0.33314985742E+03  0.43718880371E+03  0.19200000000E+03 0.  0.
   -5000001    1    1    2    0    0  0.11425480287E+03  0.17385931846E+03  0.36383178710E+03  0.46099760509E+03  0.19200000000E+03 0.  0.
<mgrwt>
<rscale>  0 0.56652927E+03</rscale>
<asrwt>0</asrwt>
<pdfrwt beam="1">  1        1 0.11394058E+00 0.56652927E+03</pdfrwt>
<pdfrwt beam="2">  1       -1 0.14371768E-01 0.56652927E+03</pdfrwt>
<totfact> 0.88796640E+02</totfact>
</mgrwt>
</event>
