<event>
 4    1  0.6476857E-006  0.1223202E+04  0.7818608E-02  0.9092786E-01
          2   -1    0    0  501    0  0.00000000000E+00  0.00000000000E+00  0.10971306077E+04  0.10971306077E+04  0.25500000000E-02 0.  1.
         -2   -1    0    0    0  501 -0.00000000000E+00 -0.00000000000E+00 -0.34094034453E+03  0.34094034454E+03  0.25500000000E-02 0. -1.
   -5000001    1    1    2    0    0  0.52553796460E+03 -0.14386084867E+02  0.59854003476E+03  0.83495346271E+03  0.25000000000E+03 0.  0.
    5000001    1    1    2    0    0 -0.52553796460E+03  0.14386084867E+02  0.15765022843E+03  0.60311748955E+03  0.25000000000E+03 0.  0.
<mgrwt>
<rscale>  0 0.12232025E+04</rscale>
<asrwt>0</asrwt>
<pdfrwt beam="1">  1        2 0.16878932E+00 0.12232025E+04</pdfrwt>
<pdfrwt beam="2">  1       -2 0.52452361E-01 0.12232025E+04</pdfrwt>
<totfact> 0.73915093E+01</totfact>
</mgrwt>
</event>
<event>
 4    1  0.6476857E-006  0.8061280E+03  0.7818608E-02  0.9551189E-01
          2   -1    0    0  501    0  0.00000000000E+00  0.00000000000E+00  0.90499849392E+03  0.90499849392E+03  0.25500000000E-02 0.  1.
         -2   -1    0    0    0  501 -0.00000000000E+00 -0.00000000000E+00 -0.17951476051E+03  0.17951476052E+03  0.25500000000E-02 0. -1.
   -5000001    1    1    2    0    0 -0.13864411335E+03 -0.27760379891E+03  0.44429331394E+03  0.59681036196E+03  0.25000000000E+03 0.  0.
    5000001    1    1    2    0    0  0.13864411335E+03  0.27760379891E+03  0.28119041948E+03  0.48770289249E+03  0.25000000000E+03 0.  0.
<mgrwt>
<rscale>  0 0.80612800E+03</rscale>
<asrwt>0</asrwt>
<pdfrwt beam="1">  1        2 0.13923054E+00 0.80612800E+03</pdfrwt>
<pdfrwt beam="2">  1       -2 0.27617655E-01 0.80612800E+03</pdfrwt>
<totfact> 0.34919823E+02</totfact>
</mgrwt>
</event>
<event>
 4    1  0.6476857E-006  0.5793350E+03  0.7818608E-02  0.9949232E-01
          2   -1    0    0  501    0  0.00000000000E+00  0.00000000000E+00  0.11002446018E+04  0.11002446018E+04  0.25500000000E-02 0.  1.
         -2   -1    0    0    0  501 -0.00000000000E+00 -0.00000000000E+00 -0.76262373823E+02  0.76262373865E+02  0.25500000000E-02 0. -1.
   -5000001    1    1    2    0    0  0.11556674634E+02 -0.14498517883E+03  0.47968903878E+03  0.56013911909E+03  0.25000000000E+03 0.  0.
    5000001    1    1    2    0    0 -0.11556674634E+02  0.14498517883E+03  0.54429318917E+03  0.61636785655E+03  0.25000000000E+03 0.  0.
<mgrwt>
<rscale>  0 0.57933502E+03</rscale>
<asrwt>0</asrwt>
<pdfrwt beam="1">  1        2 0.16926840E+00 0.57933502E+03</pdfrwt>
<pdfrwt beam="2">  1       -2 0.11732673E-01 0.57933502E+03</pdfrwt>
<totfact> 0.11617422E+03</totfact>
</mgrwt>
</event>
<event>
 4    1  0.6476857E-006  0.6973112E+03  0.7818608E-02  0.9721841E-01
          2   -1    0    0  501    0  0.00000000000E+00  0.00000000000E+00  0.12174036824E+04  0.12174036824E+04  0.25500000000E-02 0.  1.
         -2   -1    0    0    0  501 -0.00000000000E+00 -0.00000000000E+00 -0.99852442377E+02  0.99852442410E+02  0.25500000000E-02 0. -1.
   -5000001    1    1    2    0    0 -0.14563029918E+03 -0.96266814722E+02  0.87816065052E+03  0.92959217497E+03  0.25000000000E+03 0.  0.
    5000001    1    1    2    0    0  0.14563029918E+03  0.96266814722E+02  0.23939058948E+03  0.38766394982E+03  0.25000000000E+03 0.  0.
<mgrwt>
<rscale>  0 0.69731121E+03</rscale>
<asrwt>0</asrwt>
<pdfrwt beam="1">  1        2 0.18729287E+00 0.69731121E+03</pdfrwt>
<pdfrwt beam="2">  1       -2 0.15361914E-01 0.69731121E+03</pdfrwt>
<totfact> 0.62833822E+02</totfact>
</mgrwt>
</event>
<event>
 4    1  0.6476857E-006  0.7620451E+03  0.7818608E-02  0.9616641E-01
          2   -1    0    0  501    0  0.00000000000E+00  0.00000000000E+00  0.62182967340E+03  0.62182967340E+03  0.25500000000E-02 0.  1.
         -2   -1    0    0    0  501 -0.00000000000E+00 -0.00000000000E+00 -0.23346935838E+03  0.23346935839E+03  0.25500000000E-02 0. -1.
   -5000001    1    1    2    0    0  0.17978664091E+03  0.22248938500E+03  0.16139202069E+03  0.41276161042E+03  0.25000000000E+03 0.  0.
    5000001    1    1    2    0    0 -0.17978664091E+03 -0.22248938500E+03  0.22696829432E+03  0.44253742138E+03  0.25000000000E+03 0.  0.
<mgrwt>
<rscale>  0 0.76204508E+03</rscale>
<asrwt>0</asrwt>
<pdfrwt beam="1">  1        2 0.95666104E-01 0.76204508E+03</pdfrwt>
<pdfrwt beam="2">  1       -2 0.35918363E-01 0.76204508E+03</pdfrwt>
<totfact> 0.34828110E+02</totfact>
</mgrwt>
</event>
<event>
 4    1  0.6476857E-006  0.6885963E+03  0.7818608E-02  0.9736935E-01
          2   -1    0    0  501    0  0.00000000000E+00  0.00000000000E+00  0.79676570050E+03  0.79676570050E+03  0.25500000000E-02 0.  1.
         -2   -1    0    0    0  501 -0.00000000000E+00 -0.00000000000E+00 -0.14877800488E+03  0.14877800490E+03  0.25500000000E-02 0. -1.
   -5000001    1    1    2    0    0 -0.22138299340E+03 -0.55058446616E+01  0.43888337554E+03  0.55150644731E+03  0.25000000000E+03 0.  0.
    5000001    1    1    2    0    0  0.22138299340E+03  0.55058446616E+01  0.20910432008E+03  0.39403725810E+03  0.25000000000E+03 0.  0.
<mgrwt>
<rscale>  0 0.68859629E+03</rscale>
<asrwt>0</asrwt>
<pdfrwt beam="1">  1        2 0.12257934E+00 0.68859629E+03</pdfrwt>
<pdfrwt beam="2">  1       -2 0.22888924E-01 0.68859629E+03</pdfrwt>
<totfact> 0.58532400E+02</totfact>
</mgrwt>
</event>
<event>
 4    1  0.6476857E-006  0.1373490E+04  0.7818608E-02  0.8973235E-01
          2   -1    0    0  501    0  0.00000000000E+00  0.00000000000E+00  0.91914269666E+03  0.91914269667E+03  0.25500000000E-02 0.  1.
         -2   -1    0    0    0  501 -0.00000000000E+00 -0.00000000000E+00 -0.51310696605E+03  0.51310696605E+03  0.25500000000E-02 0. -1.
   -5000001    1    1    2    0    0  0.28934257798E+03  0.50383984324E+03  0.48193960194E+03  0.79519777099E+03  0.25000000000E+03 0.  0.
    5000001    1    1    2    0    0 -0.28934257798E+03 -0.50383984324E+03 -0.75903871327E+02  0.63705189173E+03  0.25000000000E+03 0.  0.
<mgrwt>
<rscale>  0 0.13734897E+04</rscale>
<asrwt>0</asrwt>
<pdfrwt beam="1">  1        2 0.14140657E+00 0.13734897E+04</pdfrwt>
<pdfrwt beam="2">  1       -2 0.78939534E-01 0.13734897E+04</pdfrwt>
<totfact> 0.39548073E+01</totfact>
</mgrwt>
</event>
<event>
 4    1  0.6476857E-006  0.7430450E+03  0.7818608E-02  0.9646325E-01
          2   -1    0    0  501    0  0.00000000000E+00  0.00000000000E+00  0.83364668678E+03  0.83364668679E+03  0.25500000000E-02 0.  1.
         -2   -1    0    0    0  501 -0.00000000000E+00 -0.00000000000E+00 -0.16557250411E+03  0.16557250413E+03  0.25500000000E-02 0. -1.
   -5000001    1    1    2    0    0 -0.13874390082E+03  0.23424680165E+03  0.38448873378E+03  0.53334137332E+03  0.25000000000E+03 0.  0.
    5000001    1    1    2    0    0  0.13874390082E+03 -0.23424680165E+03  0.28358544890E+03  0.46587781759E+03  0.25000000000E+03 0.  0.
<mgrwt>
<rscale>  0 0.74304500E+03</rscale>
<asrwt>0</asrwt>
<pdfrwt beam="1">  1        2 0.12825333E+00 0.74304500E+03</pdfrwt>
<pdfrwt beam="2">  1       -2 0.25472693E-01 0.74304500E+03</pdfrwt>
<totfact> 0.45402202E+02</totfact>
</mgrwt>
</event>
<event>
 4    1  0.6476857E-006  0.7634314E+03  0.7818608E-02  0.9614511E-01
         -2   -1    0    0    0  501 -0.00000000000E+00  0.00000000000E+00  0.85949839065E+02  0.85949839102E+02  0.25500000000E-02 0. -1.
          2   -1    0    0  501    0  0.00000000000E+00 -0.00000000000E+00 -0.16952547113E+04  0.16952547113E+04  0.25500000000E-02 0.  1.
   -5000001    1    1    2    0    0  0.14403449778E+03 -0.62792170282E+02 -0.24025009401E+03  0.38066901749E+03  0.25000000000E+03 0.  0.
    5000001    1    1    2    0    0 -0.14403449778E+03  0.62792170282E+02 -0.13690547782E+04  0.14005355329E+04  0.25000000000E+03 0.  0.
<mgrwt>
<rscale>  0 0.76343138E+03</rscale>
<asrwt>0</asrwt>
<pdfrwt beam="1">  1        2 0.26080839E+00 0.76343138E+03</pdfrwt>
<pdfrwt beam="2">  1       -2 0.13223053E-01 0.76343138E+03</pdfrwt>
<totfact> 0.43397642E+02</totfact>
</mgrwt>
</event>
<event>
 4    1  0.6476857E-006  0.7383704E+03  0.7818608E-02  0.9653774E-01
         -2   -1    0    0    0  501 -0.00000000000E+00  0.00000000000E+00  0.19002678471E+03  0.19002678472E+03  0.25500000000E-02 0. -1.
          2   -1    0    0  501    0  0.00000000000E+00 -0.00000000000E+00 -0.71725517839E+03  0.71725517839E+03  0.25500000000E-02 0.  1.
   -5000001    1    1    2    0    0  0.11901278403E+03 -0.24132661341E+03 -0.30951005964E+03  0.48031141369E+03  0.25000000000E+03 0.  0.
    5000001    1    1    2    0    0 -0.11901278403E+03  0.24132661341E+03 -0.21771833404E+03  0.42697054943E+03  0.25000000000E+03 0.  0.
<mgrwt>
<rscale>  0 0.73837036E+03</rscale>
<asrwt>0</asrwt>
<pdfrwt beam="1">  1        2 0.11034695E+00 0.73837036E+03</pdfrwt>
<pdfrwt beam="2">  1       -2 0.29234890E-01 0.73837036E+03</pdfrwt>
<totfact> 0.42973834E+02</totfact>
</mgrwt>
</event>
<event>
 4    1  0.6476857E-006  0.8711850E+03  0.7818608E-02  0.9462336E-01
         -2   -1    0    0    0  501 -0.00000000000E+00  0.00000000000E+00  0.70835222170E+02  0.70835222216E+02  0.25500000000E-02 0. -1.
          2   -1    0    0  501    0  0.00000000000E+00 -0.00000000000E+00 -0.26786228102E+04  0.26786228102E+04  0.25500000000E-02 0.  1.
   -5000001    1    1    2    0    0  0.16073706453E+02 -0.35583608031E+03 -0.13640370304E+04  0.14317732713E+04  0.25000000000E+03 0.  0.
    5000001    1    1    2    0    0 -0.16073706453E+02  0.35583608031E+03 -0.12437505576E+04  0.13176847611E+04  0.25000000000E+03 0.  0.
<mgrwt>
<rscale>  0 0.87118504E+03</rscale>
<asrwt>0</asrwt>
<pdfrwt beam="1">  1        2 0.41209574E+00 0.87118504E+03</pdfrwt>
<pdfrwt beam="2">  1       -2 0.10897729E-01 0.87118504E+03</pdfrwt>
<totfact> 0.16813207E+02</totfact>
</mgrwt>
</event>
<event>
 4    1  0.6476857E-006  0.7804948E+03  0.7818608E-02  0.9588687E-01
          2   -1    0    0  501    0  0.00000000000E+00  0.00000000000E+00  0.23925798244E+04  0.23925798244E+04  0.25500000000E-02 0.  1.
         -2   -1    0    0    0  501 -0.00000000000E+00 -0.00000000000E+00 -0.63652222999E+02  0.63652223050E+02  0.25500000000E-02 0. -1.
   -5000001    1    1    2    0    0 -0.27865994971E+03  0.71295436092E+02  0.14288624459E+04  0.14788111090E+04  0.25000000000E+03 0.  0.
    5000001    1    1    2    0    0  0.27865994971E+03 -0.71295436092E+02  0.90006515548E+03  0.97742093843E+03  0.25000000000E+03 0.  0.
<mgrwt>
<rscale>  0 0.78049478E+03</rscale>
<asrwt>0</asrwt>
<pdfrwt beam="1">  1        2 0.36808919E+00 0.78049478E+03</pdfrwt>
<pdfrwt beam="2">  1       -2 0.97926501E-02 0.78049478E+03</pdfrwt>
<totfact> 0.29418087E+02</totfact>
</mgrwt>
</event>
<event>
 4    1  0.6476857E-006  0.7516122E+03  0.7818608E-02  0.9632824E-01
          2   -1    0    0  501    0  0.00000000000E+00  0.00000000000E+00  0.47505051296E+03  0.47505051297E+03  0.25500000000E-02 0.  1.
         -2   -1    0    0    0  501 -0.00000000000E+00 -0.00000000000E+00 -0.29729515730E+03  0.29729515731E+03  0.25500000000E-02 0. -1.
   -5000001    1    1    2    0    0  0.11830082713E+03 -0.25408906736E+03  0.10242767303E+03  0.38929136653E+03  0.25000000000E+03 0.  0.
    5000001    1    1    2    0    0 -0.11830082713E+03  0.25408906736E+03  0.75327682637E+02  0.38305430375E+03  0.25000000000E+03 0.  0.
<mgrwt>
<rscale>  0 0.75161218E+03</rscale>
<asrwt>0</asrwt>
<pdfrwt beam="1">  1        2 0.73084693E-01 0.75161218E+03</pdfrwt>
<pdfrwt beam="2">  1       -2 0.45737718E-01 0.75161218E+03</pdfrwt>
<totfact> 0.29855883E+02</totfact>
</mgrwt>
</event>
<event>
 4    1  0.6476857E-006  0.2155121E+04  0.7818608E-02  0.8537344E-01
         -2   -1    0    0    0  501 -0.00000000000E+00  0.00000000000E+00  0.18945578004E+04  0.18945578004E+04  0.25500000000E-02 0.  1.
          2   -1    0    0  501    0  0.00000000000E+00 -0.00000000000E+00 -0.61287987324E+03  0.61287987324E+03  0.25500000000E-02 0. -1.
   -5000001    1    1    2    0    0 -0.94191850394E+03 -0.27620831433E+02  0.10682496839E+03  0.98075733607E+03  0.25000000000E+03 0.  0.
    5000001    1    1    2    0    0  0.94191850394E+03  0.27620831433E+02  0.11748529588E+04  0.15266803376E+04  0.25000000000E+03 0.  0.
<mgrwt>
<rscale>  0 0.21551207E+04</rscale>
<asrwt>0</asrwt>
<pdfrwt beam="1">  1        2 0.94289213E-01 0.21551207E+04</pdfrwt>
<pdfrwt beam="2">  1       -2 0.29147043E+00 0.21551207E+04</pdfrwt>
<totfact> 0.15899414E+00</totfact>
</mgrwt>
</event>
<event>
 4    1  0.6476857E-006  0.6385449E+03  0.7818608E-02  0.9828515E-01
         -2   -1    0    0    0  501 -0.00000000000E+00  0.00000000000E+00  0.15919724828E+03  0.15919724830E+03  0.25500000000E-02 0. -1.
          2   -1    0    0  501    0  0.00000000000E+00 -0.00000000000E+00 -0.64030561239E+03  0.64030561240E+03  0.25500000000E-02 0.  1.
   -5000001    1    1    2    0    0  0.13513833627E+03 -0.13299212189E+03 -0.31447528451E+03  0.44423414883E+03  0.25000000000E+03 0.  0.
    5000001    1    1    2    0    0 -0.13513833627E+03  0.13299212189E+03 -0.16663307960E+03  0.35526871187E+03  0.25000000000E+03 0.  0.
<mgrwt>
<rscale>  0 0.63854488E+03</rscale>
<asrwt>0</asrwt>
<pdfrwt beam="1">  1        2 0.98508555E-01 0.63854488E+03</pdfrwt>
<pdfrwt beam="2">  1       -2 0.24491885E-01 0.63854488E+03</pdfrwt>
<totfact> 0.68518957E+02</totfact>
</mgrwt>
</event>
<event>
 4    1  0.6476857E-006  0.6162486E+03  0.7818608E-02  0.9872257E-01
         -2   -1    0    0    0  501 -0.00000000000E+00  0.00000000000E+00  0.24892629373E+02  0.24892629504E+02  0.25500000000E-02 0.  1.
          2   -1    0    0  501    0  0.00000000000E+00 -0.00000000000E+00 -0.38140043992E+04  0.38140043992E+04  0.25500000000E-02 0. -1.
   -5000001    1    1    2    0    0  0.73884655421E+02  0.14729484399E+03 -0.14416485718E+04  0.14724147914E+04  0.25000000000E+03 0.  0.
    5000001    1    1    2    0    0 -0.73884655421E+02 -0.14729484399E+03 -0.23474631981E+04  0.23664822373E+04  0.25000000000E+03 0.  0.
<mgrwt>
<rscale>  0 0.61624865E+03</rscale>
<asrwt>0</asrwt>
<pdfrwt beam="1">  1        2 0.58676944E+00 0.61624865E+03</pdfrwt>
<pdfrwt beam="2">  1       -2 0.38296383E-02 0.61624865E+03</pdfrwt>
<totfact> 0.16644670E+02</totfact>
</mgrwt>
</event>
<event>
 4    1  0.6476857E-006  0.7185815E+03  0.7818608E-02  0.9685973E-01
         -2   -1    0    0    0  501 -0.00000000000E+00  0.00000000000E+00  0.12935773700E+03  0.12935773703E+03  0.25500000000E-02 0. -1.
          2   -1    0    0  501    0  0.00000000000E+00 -0.00000000000E+00 -0.99792896232E+03  0.99792896232E+03  0.25500000000E-02 0.  1.
   -5000001    1    1    2    0    0 -0.21687435656E+03  0.13960528293E+03 -0.44700237222E+03  0.57344157708E+03  0.25000000000E+03 0.  0.
    5000001    1    1    2    0    0  0.21687435656E+03 -0.13960528293E+03 -0.42156885310E+03  0.55384512227E+03  0.25000000000E+03 0.  0.
<mgrwt>
<rscale>  0 0.71858147E+03</rscale>
<asrwt>0</asrwt>
<pdfrwt beam="1">  1        2 0.15352753E+00 0.71858147E+03</pdfrwt>
<pdfrwt beam="2">  1       -2 0.19901191E-01 0.71858147E+03</pdfrwt>
<totfact> 0.54749677E+02</totfact>
</mgrwt>
</event>
<event>
 4    1  0.6476857E-006  0.9115077E+03  0.7818608E-02  0.9411309E-01
          2   -1    0    0  501    0  0.00000000000E+00  0.00000000000E+00  0.74857408393E+03  0.74857408394E+03  0.25500000000E-02 0.  1.
         -2   -1    0    0    0  501 -0.00000000000E+00 -0.00000000000E+00 -0.27747630865E+03  0.27747630867E+03  0.25500000000E-02 0. -1.
   -5000001    1    1    2    0    0  0.29077757354E+03 -0.22259683344E+03  0.11689619112E+03  0.45854734437E+03  0.25000000000E+03 0.  0.
    5000001    1    1    2    0    0 -0.29077757354E+03  0.22259683344E+03  0.35420158416E+03  0.56750304823E+03  0.25000000000E+03 0.  0.
<mgrwt>
<rscale>  0 0.91150770E+03</rscale>
<asrwt>0</asrwt>
<pdfrwt beam="1">  1        2 0.11516524E+00 0.91150770E+03</pdfrwt>
<pdfrwt beam="2">  1       -2 0.42688663E-01 0.91150770E+03</pdfrwt>
<totfact> 0.19597322E+02</totfact>
</mgrwt>
</event>
<event>
 4    1  0.6476857E-006  0.5596028E+03  0.7818608E-02  0.9992954E-01
         -2   -1    0    0    0  501 -0.00000000000E+00  0.00000000000E+00  0.98850173843E+02  0.98850173876E+02  0.25500000000E-02 0. -1.
          2   -1    0    0  501    0  0.00000000000E+00 -0.00000000000E+00 -0.79199467462E+03  0.79199467462E+03  0.25500000000E-02 0.  1.
   -5000001    1    1    2    0    0  0.75069676737E+02  0.87261775464E+02 -0.42678273195E+03  0.50783223028E+03  0.25000000000E+03 0.  0.
    5000001    1    1    2    0    0 -0.75069676737E+02 -0.87261775464E+02 -0.26636176883E+03  0.38301261822E+03  0.25000000000E+03 0.  0.
<mgrwt>
<rscale>  0 0.55960276E+03</rscale>
<asrwt>0</asrwt>
<pdfrwt beam="1">  1        2 0.12184533E+00 0.55960276E+03</pdfrwt>
<pdfrwt beam="2">  1       -2 0.15207720E-01 0.55960276E+03</pdfrwt>
<totfact> 0.12002910E+03</totfact>
</mgrwt>
</event>
<event>
 4    1  0.6476857E-006  0.6213635E+03  0.7818608E-02  0.9862049E-01
         -2   -1    0    0    0  501 -0.00000000000E+00  0.00000000000E+00  0.10856876400E+03  0.10856876403E+03  0.25500000000E-02 0. -1.
          2   -1    0    0  501    0  0.00000000000E+00 -0.00000000000E+00 -0.88905077459E+03  0.88905077460E+03  0.25500000000E-02 0.  1.
   -5000001    1    1    2    0    0  0.10849900169E+03  0.60798036665E+02 -0.17154225743E+03  0.32771203932E+03  0.25000000000E+03 0.  0.
    5000001    1    1    2    0    0 -0.10849900169E+03 -0.60798036665E+02 -0.60893975317E+03  0.66990749930E+03  0.25000000000E+03 0.  0.
<mgrwt>
<rscale>  0 0.62136348E+03</rscale>
<asrwt>0</asrwt>
<pdfrwt beam="1">  1        2 0.13677704E+00 0.62136348E+03</pdfrwt>
<pdfrwt beam="2">  1       -2 0.16702887E-01 0.62136348E+03</pdfrwt>
<totfact> 0.87572955E+02</totfact>
</mgrwt>
</event>
<event>
 4    1  0.6476857E-006  0.7550642E+03  0.7818608E-02  0.9627439E-01
         -2   -1    0    0    0  501 -0.00000000000E+00  0.00000000000E+00  0.12216743138E+03  0.12216743141E+03  0.25500000000E-02 0. -1.
          2   -1    0    0  501    0  0.00000000000E+00 -0.00000000000E+00 -0.11666815970E+04  0.11666815970E+04  0.25500000000E-02 0.  1.
   -5000001    1    1    2    0    0  0.25821175395E+03 -0.36694305455E+01 -0.71943424300E+03  0.80422161411E+03  0.25000000000E+03 0.  0.
    5000001    1    1    2    0    0 -0.25821175395E+03  0.36694305455E+01 -0.32507992259E+03  0.48462741428E+03  0.25000000000E+03 0.  0.
<mgrwt>
<rscale>  0 0.75506422E+03</rscale>
<asrwt>0</asrwt>
<pdfrwt beam="1">  1        2 0.17948947E+00 0.75506422E+03</pdfrwt>
<pdfrwt beam="2">  1       -2 0.18794990E-01 0.75506422E+03</pdfrwt>
<totfact> 0.47529930E+02</totfact>
</mgrwt>
</event>
<event>
 4    1  0.6476857E-006  0.6911873E+03  0.7818608E-02  0.9732423E-01
          2   -1    0    0  501    0  0.00000000000E+00  0.00000000000E+00  0.93903419013E+03  0.93903419013E+03  0.25500000000E-02 0.  1.
         -2   -1    0    0    0  501 -0.00000000000E+00 -0.00000000000E+00 -0.12718916012E+03  0.12718916015E+03  0.25500000000E-02 0. -1.
   -5000001    1    1    2    0    0 -0.41685100288E+02 -0.19384073193E+03  0.61070532986E+03  0.68903764546E+03  0.25000000000E+03 0.  0.
    5000001    1    1    2    0    0  0.41685100288E+02  0.19384073193E+03  0.20113970015E+03  0.37718570482E+03  0.25000000000E+03 0.  0.
<mgrwt>
<rscale>  0 0.69118730E+03</rscale>
<asrwt>0</asrwt>
<pdfrwt beam="1">  1        2 0.14446680E+00 0.69118730E+03</pdfrwt>
<pdfrwt beam="2">  1       -2 0.19567563E-01 0.69118730E+03</pdfrwt>
<totfact> 0.61620162E+02</totfact>
</mgrwt>
</event>
<event>
 4    1  0.6476857E-006  0.6923295E+03  0.7818608E-02  0.9730440E-01
          2   -1    0    0  501    0  0.00000000000E+00  0.00000000000E+00  0.53615307676E+03  0.53615307677E+03  0.25500000000E-02 0.  1.
         -2   -1    0    0    0  501 -0.00000000000E+00 -0.00000000000E+00 -0.22349964040E+03  0.22349964042E+03  0.25500000000E-02 0. -1.
   -5000001    1    1    2    0    0 -0.20628865815E+03  0.12105006870E+03  0.14421274052E+03  0.37484055829E+03  0.25000000000E+03 0.  0.
    5000001    1    1    2    0    0  0.20628865815E+03 -0.12105006870E+03  0.16844069585E+03  0.38481215889E+03  0.25000000000E+03 0.  0.
<mgrwt>
<rscale>  0 0.69232946E+03</rscale>
<asrwt>0</asrwt>
<pdfrwt beam="1">  1        2 0.82485089E-01 0.69232946E+03</pdfrwt>
<pdfrwt beam="2">  1       -2 0.34384560E-01 0.69232946E+03</pdfrwt>
<totfact> 0.45280622E+02</totfact>
</mgrwt>
</event>
<event>
 4    1  0.6476857E-006  0.6731380E+03  0.7818608E-02  0.9764306E-01
          2   -1    0    0  501    0  0.00000000000E+00  0.00000000000E+00  0.17067323810E+04  0.17067323810E+04  0.25500000000E-02 0.  1.
         -2   -1    0    0    0  501 -0.00000000000E+00 -0.00000000000E+00 -0.66371668126E+02  0.66371668175E+02  0.25500000000E-02 0. -1.
   -5000001    1    1    2    0    0 -0.22055151054E+02  0.20311373261E+03  0.56977497404E+03  0.65489322726E+03  0.25000000000E+03 0.  0.
    5000001    1    1    2    0    0  0.22055151054E+02 -0.20311373261E+03  0.10705857388E+04  0.11182108219E+04  0.25000000000E+03 0.  0.
<mgrwt>
<rscale>  0 0.67313795E+03</rscale>
<asrwt>0</asrwt>
<pdfrwt beam="1">  1        2 0.26257421E+00 0.67313795E+03</pdfrwt>
<pdfrwt beam="2">  1       -2 0.10211026E-01 0.67313795E+03</pdfrwt>
<totfact> 0.65861187E+02</totfact>
</mgrwt>
</event>
<event>
 4    1  0.6476857E-006  0.6427455E+03  0.7818608E-02  0.9820488E-01
          2   -1    0    0  501    0  0.00000000000E+00  0.00000000000E+00  0.13327346561E+04  0.13327346561E+04  0.25500000000E-02 0.  1.
         -2   -1    0    0    0  501 -0.00000000000E+00 -0.00000000000E+00 -0.77495118268E+02  0.77495118310E+02  0.25500000000E-02 0. -1.
   -5000001    1    1    2    0    0 -0.13785622935E+03  0.82867827738E+02  0.35971816595E+03  0.46665680726E+03  0.25000000000E+03 0.  0.
    5000001    1    1    2    0    0  0.13785622935E+03 -0.82867827738E+02  0.89552137184E+03  0.94357296712E+03  0.25000000000E+03 0.  0.
<mgrwt>
<rscale>  0 0.64274545E+03</rscale>
<asrwt>0</asrwt>
<pdfrwt beam="1">  1        2 0.20503609E+00 0.64274545E+03</pdfrwt>
<pdfrwt beam="2">  1       -2 0.11922326E-01 0.64274545E+03</pdfrwt>
<totfact> 0.82501487E+02</totfact>
</mgrwt>
</event>
<event>
 4    1  0.6476857E-006  0.1161614E+04  0.7818608E-02  0.9147136E-01
          2   -1    0    0  501    0  0.00000000000E+00  0.00000000000E+00  0.15226737020E+04  0.15226737020E+04  0.25500000000E-02 0.  1.
         -2   -1    0    0    0  501 -0.00000000000E+00 -0.00000000000E+00 -0.22154234621E+03  0.22154234622E+03  0.25500000000E-02 0. -1.
   -5000001    1    1    2    0    0 -0.32763269046E+03 -0.39829538493E+03  0.50927423236E+03  0.76670896516E+03  0.25000000000E+03 0.  0.
    5000001    1    1    2    0    0  0.32763269046E+03  0.39829538493E+03  0.79185712342E+03  0.97750708306E+03  0.25000000000E+03 0.  0.
<mgrwt>
<rscale>  0 0.11616139E+04</rscale>
<asrwt>0</asrwt>
<pdfrwt beam="1">  1        2 0.23425749E+00 0.11616139E+04</pdfrwt>
<pdfrwt beam="2">  1       -2 0.34083438E-01 0.11616139E+04</pdfrwt>
<totfact> 0.98196128E+01</totfact>
</mgrwt>
</event>
<event>
 4    1  0.6476857E-006  0.8097466E+03  0.7818608E-02  0.9546015E-01
          2   -1    0    0  501    0  0.00000000000E+00  0.00000000000E+00  0.15887210871E+04  0.15887210871E+04  0.25500000000E-02 0.  1.
         -2   -1    0    0    0  501 -0.00000000000E+00 -0.00000000000E+00 -0.10317884361E+03  0.10317884364E+03  0.25500000000E-02 0. -1.
   -5000001    1    1    2    0    0  0.20146206195E+03  0.11128532815E+03  0.28285675963E+03  0.44213044810E+03  0.25000000000E+03 0.  0.
    5000001    1    1    2    0    0 -0.20146206195E+03 -0.11128532815E+03  0.12026854838E+04  0.12497694826E+04  0.25000000000E+03 0.  0.
<mgrwt>
<rscale>  0 0.80974664E+03</rscale>
<asrwt>0</asrwt>
<pdfrwt beam="1">  1        2 0.24441864E+00 0.80974664E+03</pdfrwt>
<pdfrwt beam="2">  1       -2 0.15873668E-01 0.80974664E+03</pdfrwt>
<totfact> 0.36391420E+02</totfact>
</mgrwt>
</event>
<event>
 4    1  0.6476857E-006  0.1004941E+04  0.7818608E-02  0.9303142E-01
         -2   -1    0    0    0  501 -0.00000000000E+00  0.00000000000E+00  0.59095754313E+03  0.59095754314E+03  0.25500000000E-02 0. -1.
          2   -1    0    0  501    0  0.00000000000E+00 -0.00000000000E+00 -0.42723328699E+03  0.42723328700E+03  0.25500000000E-02 0.  1.
   -5000001    1    1    2    0    0  0.27665848020E+03  0.33654839139E+03  0.68574369280E+02  0.50695875428E+03  0.25000000000E+03 0.  0.
    5000001    1    1    2    0    0 -0.27665848020E+03 -0.33654839139E+03  0.95149886858E+02  0.51123207586E+03  0.25000000000E+03 0.  0.
<mgrwt>
<rscale>  0 0.10049413E+04</rscale>
<asrwt>0</asrwt>
<pdfrwt beam="1">  1        2 0.65728198E-01 0.10049413E+04</pdfrwt>
<pdfrwt beam="2">  1       -2 0.90916545E-01 0.10049413E+04</pdfrwt>
<totfact> 0.76079509E+01</totfact>
</mgrwt>
</event>
<event>
 4    1  0.6476857E-006  0.1901562E+04  0.7818608E-02  0.8654079E-01
          2   -1    0    0  501    0  0.00000000000E+00  0.00000000000E+00  0.13526495459E+04  0.13526495459E+04  0.25500000000E-02 0.  1.
         -2   -1    0    0    0  501 -0.00000000000E+00 -0.00000000000E+00 -0.66830675535E+03  0.66830675535E+03  0.25500000000E-02 0. -1.
   -5000001    1    1    2    0    0  0.63637712657E+03  0.56397047311E+03  0.70794055327E+03  0.11343360916E+04  0.25000000000E+03 0.  0.
    5000001    1    1    2    0    0 -0.63637712657E+03 -0.56397047311E+03 -0.23597762710E+02  0.88662020966E+03  0.25000000000E+03 0.  0.
<mgrwt>
<rscale>  0 0.19015623E+04</rscale>
<asrwt>0</asrwt>
<pdfrwt beam="1">  1        2 0.20809993E+00 0.19015623E+04</pdfrwt>
<pdfrwt beam="2">  1       -2 0.10281642E+00 0.19015623E+04</pdfrwt>
<totfact> 0.11155817E+01</totfact>
</mgrwt>
</event>
<event>
 4    1  0.6476857E-006  0.9107018E+03  0.7818608E-02  0.9412302E-01
          2   -1    0    0  501    0  0.00000000000E+00  0.00000000000E+00  0.10845880727E+04  0.10845880727E+04  0.25500000000E-02 0.  1.
         -2   -1    0    0    0  501 -0.00000000000E+00 -0.00000000000E+00 -0.19117343212E+03  0.19117343213E+03  0.25500000000E-02 0. -1.
   -5000001    1    1    2    0    0 -0.17001578306E+03  0.31233913533E+03  0.63664245920E+03  0.77089216029E+03  0.25000000000E+03 0.  0.
    5000001    1    1    2    0    0  0.17001578306E+03 -0.31233913533E+03  0.25677218143E+03  0.50486934459E+03  0.25000000000E+03 0.  0.
<mgrwt>
<rscale>  0 0.91070176E+03</rscale>
<asrwt>0</asrwt>
<pdfrwt beam="1">  1        2 0.16685970E+00 0.91070176E+03</pdfrwt>
<pdfrwt beam="2">  1       -2 0.29411297E-01 0.91070176E+03</pdfrwt>
<totfact> 0.23713426E+02</totfact>
</mgrwt>
</event>
<event>
 4    1  0.6476857E-006  0.8345312E+03  0.7818608E-02  0.9511337E-01
          2   -1    0    0  501    0  0.00000000000E+00  0.00000000000E+00  0.93274659117E+03  0.93274659117E+03  0.25500000000E-02 0.  1.
         -2   -1    0    0    0  501 -0.00000000000E+00 -0.00000000000E+00 -0.18666439229E+03  0.18666439230E+03  0.25500000000E-02 0. -1.
   -5000001    1    1    2    0    0 -0.23217740548E+00  0.22503752084E+03  0.70424865218E+03  0.78045378068E+03  0.25000000000E+03 0.  0.
    5000001    1    1    2    0    0  0.23217740548E+00 -0.22503752084E+03  0.41833546707E+02  0.33895720279E+03  0.25000000000E+03 0.  0.
<mgrwt>
<rscale>  0 0.83453119E+03</rscale>
<asrwt>0</asrwt>
<pdfrwt beam="1">  1        2 0.14349947E+00 0.83453119E+03</pdfrwt>
<pdfrwt beam="2">  1       -2 0.28717599E-01 0.83453119E+03</pdfrwt>
<totfact> 0.31103868E+02</totfact>
</mgrwt>
</event>
<event>
 4    1  0.6476857E-006  0.5555026E+03  0.7818608E-02  0.1000228E+00
          2   -1    0    0  501    0  0.00000000000E+00  0.00000000000E+00  0.64464728355E+03  0.64464728356E+03  0.25500000000E-02 0. -1.
         -2   -1    0    0    0  501 -0.00000000000E+00 -0.00000000000E+00 -0.11967130812E+03  0.11967130815E+03  0.25500000000E-02 0.  1.
   -5000001    1    1    2    0    0 -0.10542520256E+03  0.15635509221E+02  0.34136994775E+03  0.43633975720E+03  0.25000000000E+03 0.  0.
    5000001    1    1    2    0    0  0.10542520256E+03 -0.15635509221E+02  0.18360602768E+03  0.32797883451E+03  0.25000000000E+03 0.  0.
<mgrwt>
<rscale>  0 0.55550260E+03</rscale>
<asrwt>0</asrwt>
<pdfrwt beam="1">  1        2 0.99176502E-01 0.55550260E+03</pdfrwt>
<pdfrwt beam="2">  1       -2 0.18410971E-01 0.55550260E+03</pdfrwt>
<totfact> 0.11235809E+03</totfact>
</mgrwt>
</event>
<event>
 4    1  0.6476857E-006  0.6452352E+03  0.7818608E-02  0.9815761E-01
          2   -1    0    0  501    0  0.00000000000E+00  0.00000000000E+00  0.25389209174E+04  0.25389209174E+04  0.25500000000E-02 0.  1.
         -2   -1    0    0    0  501 -0.00000000000E+00 -0.00000000000E+00 -0.40994630501E+02  0.40994630580E+02  0.25500000000E-02 0. -1.
   -5000001    1    1    2    0    0  0.16891548581E+03  0.10318842368E+03  0.10530070334E+04  0.11002291145E+04  0.25000000000E+03 0.  0.
    5000001    1    1    2    0    0 -0.16891548581E+03 -0.10318842368E+03  0.14449192535E+04  0.14796864334E+04  0.25000000000E+03 0.  0.
<mgrwt>
<rscale>  0 0.64523523E+03</rscale>
<asrwt>0</asrwt>
<pdfrwt beam="1">  1        2 0.39060327E+00 0.64523523E+03</pdfrwt>
<pdfrwt beam="2">  1       -2 0.63068654E-02 0.64523523E+03</pdfrwt>
<totfact> 0.49751262E+02</totfact>
</mgrwt>
</event>
<event>
 4    1  0.6476857E-006  0.1126372E+04  0.7818608E-02  0.9179862E-01
         -2   -1    0    0    0  501 -0.00000000000E+00  0.00000000000E+00  0.27052573501E+03  0.27052573502E+03  0.25500000000E-02 0. -1.
          2   -1    0    0  501    0  0.00000000000E+00 -0.00000000000E+00 -0.11724527405E+04  0.11724527405E+04  0.25500000000E-02 0.  1.
   -5000001    1    1    2    0    0  0.42145795217E+03  0.27370940775E+03 -0.51015730357E+03  0.75848804850E+03  0.25000000000E+03 0.  0.
    5000001    1    1    2    0    0 -0.42145795217E+03 -0.27370940775E+03 -0.39176970190E+03  0.68449042701E+03  0.25000000000E+03 0.  0.
<mgrwt>
<rscale>  0 0.11263723E+04</rscale>
<asrwt>0</asrwt>
<pdfrwt beam="1">  1        2 0.18037734E+00 0.11263723E+04</pdfrwt>
<pdfrwt beam="2">  1       -2 0.41619344E-01 0.11263723E+04</pdfrwt>
<totfact> 0.10662412E+02</totfact>
</mgrwt>
</event>
<event>
 4    1  0.6476857E-006  0.1666987E+04  0.7818608E-02  0.8780420E-01
          2   -1    0    0  501    0  0.00000000000E+00  0.00000000000E+00  0.22672648674E+04  0.22672648674E+04  0.25500000000E-02 0.  1.
         -2   -1    0    0    0  501 -0.00000000000E+00 -0.00000000000E+00 -0.30640949127E+03  0.30640949128E+03  0.25500000000E-02 0. -1.
   -5000001    1    1    2    0    0 -0.73612904870E+02  0.75561830899E+03  0.61561568013E+03  0.10088907544E+04  0.25000000000E+03 0.  0.
    5000001    1    1    2    0    0  0.73612904870E+02 -0.75561830899E+03  0.13452396960E+04  0.15647836043E+04  0.25000000000E+03 0.  0.
<mgrwt>
<rscale>  0 0.16669871E+04</rscale>
<asrwt>0</asrwt>
<pdfrwt beam="1">  1        2 0.34880998E+00 0.16669871E+04</pdfrwt>
<pdfrwt beam="2">  1       -2 0.47139922E-01 0.16669871E+04</pdfrwt>
<totfact> 0.19268851E+01</totfact>
</mgrwt>
</event>
<event>
 4    1  0.6476857E-006  0.1068350E+04  0.7818608E-02  0.9236602E-01
          2   -1    0    0  501    0  0.00000000000E+00  0.00000000000E+00  0.39587459906E+03  0.39587459907E+03  0.25500000000E-02 0.  1.
         -2   -1    0    0    0  501 -0.00000000000E+00 -0.00000000000E+00 -0.72079058288E+03  0.72079058288E+03  0.25500000000E-02 0. -1.
   -5000001    1    1    2    0    0 -0.40954979301E+03  0.22963815365E+03 -0.11148822444E+03  0.54350192158E+03  0.25000000000E+03 0.  0.
    5000001    1    1    2    0    0  0.40954979301E+03 -0.22963815365E+03 -0.21342775938E+03  0.57316326038E+03  0.25000000000E+03 0.  0.
<mgrwt>
<rscale>  0 0.10683495E+04</rscale>
<asrwt>0</asrwt>
<pdfrwt beam="1">  1        2 0.60903785E-01 0.10683495E+04</pdfrwt>
<pdfrwt beam="2">  1       -2 0.11089086E+00 0.10683495E+04</pdfrwt>
<totfact> 0.51556922E+01</totfact>
</mgrwt>
</event>
<event>
 4    1  0.6476857E-006  0.7779109E+03  0.7818608E-02  0.9592552E-01
          2   -1    0    0  501    0  0.00000000000E+00  0.00000000000E+00  0.31438541169E+04  0.31438541169E+04  0.25500000000E-02 0.  1.
         -2   -1    0    0    0  501 -0.00000000000E+00 -0.00000000000E+00 -0.48121292880E+02  0.48121292948E+02  0.25500000000E-02 0. -1.
   -5000001    1    1    2    0    0 -0.66829666880E+02 -0.25654656779E+03  0.21060309856E+04  0.21373228250E+04  0.25000000000E+03 0.  0.
    5000001    1    1    2    0    0  0.66829666880E+02  0.25654656779E+03  0.98970183840E+03  0.10546525849E+04  0.25000000000E+03 0.  0.
<mgrwt>
<rscale>  0 0.77791086E+03</rscale>
<asrwt>0</asrwt>
<pdfrwt beam="1">  1        2 0.48366992E+00 0.77791086E+03</pdfrwt>
<pdfrwt beam="2">  1       -2 0.74032749E-02 0.77791086E+03</pdfrwt>
<totfact> 0.16607058E+02</totfact>
</mgrwt>
</event>
<event>
 4    1  0.6476857E-006  0.7771853E+03  0.7818608E-02  0.9593640E-01
          2   -1    0    0  501    0  0.00000000000E+00  0.00000000000E+00  0.19049194272E+03  0.19049194274E+03  0.25500000000E-02 0.  1.
         -2   -1    0    0    0  501 -0.00000000000E+00 -0.00000000000E+00 -0.79270681507E+03  0.79270681508E+03  0.25500000000E-02 0. -1.
   -5000001    1    1    2    0    0  0.19270263951E+03 -0.20997774488E+03 -0.40904225110E+03  0.55771007146E+03  0.25000000000E+03 0.  0.
    5000001    1    1    2    0    0 -0.19270263951E+03  0.20997774488E+03 -0.19317262125E+03  0.42548868636E+03  0.25000000000E+03 0.  0.
<mgrwt>
<rscale>  0 0.77718533E+03</rscale>
<asrwt>0</asrwt>
<pdfrwt beam="1">  1        2 0.29306453E-01 0.77718533E+03</pdfrwt>
<pdfrwt beam="2">  1       -2 0.12195489E+00 0.77718533E+03</pdfrwt>
<totfact> 0.93978233E+01</totfact>
</mgrwt>
</event>
<event>
 4    1  0.6476857E-006  0.9251108E+03  0.7818608E-02  0.9394725E-01
          2   -1    0    0  501    0  0.00000000000E+00  0.00000000000E+00  0.21177162479E+04  0.21177162479E+04  0.25500000000E-02 0.  1.
         -2   -1    0    0    0  501 -0.00000000000E+00 -0.00000000000E+00 -0.10103217424E+03  0.10103217427E+03  0.25500000000E-02 0. -1.
   -5000001    1    1    2    0    0  0.38595938871E+03  0.36598977887E+01  0.88891835192E+03  0.10008265988E+04  0.25000000000E+03 0.  0.
    5000001    1    1    2    0    0 -0.38595938871E+03 -0.36598977887E+01  0.11277657218E+04  0.12179218233E+04  0.25000000000E+03 0.  0.
<mgrwt>
<rscale>  0 0.92511075E+03</rscale>
<asrwt>0</asrwt>
<pdfrwt beam="1">  1        2 0.32580247E+00 0.92511075E+03</pdfrwt>
<pdfrwt beam="2">  1       -2 0.15543413E-01 0.92511075E+03</pdfrwt>
<totfact> 0.19169575E+02</totfact>
</mgrwt>
</event>
<event>
 4    1  0.6476857E-006  0.6379546E+03  0.7818608E-02  0.9829648E-01
          2   -1    0    0  501    0  0.00000000000E+00  0.00000000000E+00  0.16558861759E+04  0.16558861759E+04  0.25500000000E-02 0.  1.
         -2   -1    0    0    0  501 -0.00000000000E+00 -0.00000000000E+00 -0.61445360323E+02  0.61445360376E+02  0.25500000000E-02 0. -1.
   -5000001    1    1    2    0    0  0.17173367213E+03 -0.10646000968E+02  0.53290690462E+03  0.61326630469E+03  0.25000000000E+03 0.  0.
    5000001    1    1    2    0    0 -0.17173367213E+03  0.10646000968E+02  0.10615339109E+04  0.11040652315E+04  0.25000000000E+03 0.  0.
<mgrwt>
<rscale>  0 0.63795462E+03</rscale>
<asrwt>0</asrwt>
<pdfrwt beam="1">  1        2 0.25475165E+00 0.63795462E+03</pdfrwt>
<pdfrwt beam="2">  1       -2 0.94531351E-02 0.63795462E+03</pdfrwt>
<totfact> 0.79720750E+02</totfact>
</mgrwt>
</event>
<event>
 4    1  0.6476857E-006  0.6697944E+03  0.7818608E-02  0.9770329E-01
         -2   -1    0    0    0  501 -0.00000000000E+00  0.00000000000E+00  0.10376118358E+03  0.10376118361E+03  0.25500000000E-02 0. -1.
          2   -1    0    0  501    0  0.00000000000E+00 -0.00000000000E+00 -0.10809065872E+04  0.10809065872E+04  0.25500000000E-02 0.  1.
   -5000001    1    1    2    0    0  0.26076020363E+02 -0.22130535811E+03 -0.48794367319E+03  0.59181504591E+03  0.25000000000E+03 0.  0.
    5000001    1    1    2    0    0 -0.26076020363E+02  0.22130535811E+03 -0.48920173042E+03  0.59285272489E+03  0.25000000000E+03 0.  0.
<mgrwt>
<rscale>  0 0.66979444E+03</rscale>
<asrwt>0</asrwt>
<pdfrwt beam="1">  1        2 0.16629331E+00 0.66979444E+03</pdfrwt>
<pdfrwt beam="2">  1       -2 0.15963260E-01 0.66979444E+03</pdfrwt>
<totfact> 0.71163579E+02</totfact>
</mgrwt>
</event>
<event>
 4    1  0.6476857E-006  0.6422240E+03  0.7818608E-02  0.9821481E-01
          2   -1    0    0  501    0  0.00000000000E+00  0.00000000000E+00  0.31082318959E+04  0.31082318959E+04  0.25500000000E-02 0.  1.
         -2   -1    0    0    0  501 -0.00000000000E+00 -0.00000000000E+00 -0.33174135270E+02  0.33174135368E+02  0.25500000000E-02 0. -1.
   -5000001    1    1    2    0    0 -0.15127940022E+03  0.13295435259E+03  0.15027380811E+04  0.15366470178E+04  0.25000000000E+03 0.  0.
    5000001    1    1    2    0    0  0.15127940022E+03 -0.13295435259E+03  0.15723196795E+04  0.16047590135E+04  0.25000000000E+03 0.  0.
<mgrwt>
<rscale>  0 0.64222397E+03</rscale>
<asrwt>0</asrwt>
<pdfrwt beam="1">  1        2 0.47818956E+00 0.64222397E+03</pdfrwt>
<pdfrwt beam="2">  1       -2 0.51037128E-02 0.64222397E+03</pdfrwt>
<totfact> 0.31893807E+02</totfact>
</mgrwt>
</event>
<event>
 4    1  0.6476857E-006  0.8433800E+03  0.7818608E-02  0.9499265E-01
          2   -1    0    0  501    0  0.00000000000E+00  0.00000000000E+00  0.17227742162E+04  0.17227742162E+04  0.25500000000E-02 0.  1.
         -2   -1    0    0    0  501 -0.00000000000E+00 -0.00000000000E+00 -0.10321865424E+03  0.10321865427E+03  0.25500000000E-02 0. -1.
   -5000001    1    1    2    0    0 -0.36817098190E+02 -0.33434016202E+03  0.70860546262E+03  0.82326213585E+03  0.25000000000E+03 0.  0.
    5000001    1    1    2    0    0  0.36817098190E+02  0.33434016202E+03  0.91095009934E+03  0.10027307346E+04  0.25000000000E+03 0.  0.
<mgrwt>
<rscale>  0 0.84337995E+03</rscale>
<asrwt>0</asrwt>
<pdfrwt beam="1">  1        2 0.26504215E+00 0.84337995E+03</pdfrwt>
<pdfrwt beam="2">  1       -2 0.15879795E-01 0.84337995E+03</pdfrwt>
<totfact> 0.30618149E+02</totfact>
</mgrwt>
</event>
<event>
 4    1  0.6476857E-006  0.6567420E+03  0.7818608E-02  0.9794210E-01
         -2   -1    0    0    0  501 -0.00000000000E+00  0.00000000000E+00  0.55599889376E+02  0.55599889435E+02  0.25500000000E-02 0. -1.
          2   -1    0    0  501    0  0.00000000000E+00 -0.00000000000E+00 -0.19393476458E+04  0.19393476458E+04  0.25500000000E-02 0.  1.
   -5000001    1    1    2    0    0 -0.14022909815E+03  0.14683080530E+03 -0.11364734635E+04  0.11812262352E+04  0.25000000000E+03 0.  0.
    5000001    1    1    2    0    0  0.14022909815E+03 -0.14683080530E+03 -0.74727429284E+03  0.81372130001E+03  0.25000000000E+03 0.  0.
<mgrwt>
<rscale>  0 0.65674200E+03</rscale>
<asrwt>0</asrwt>
<pdfrwt beam="1">  1        2 0.29836112E+00 0.65674200E+03</pdfrwt>
<pdfrwt beam="2">  1       -2 0.85538306E-02 0.65674200E+03</pdfrwt>
<totfact> 0.65618231E+02</totfact>
</mgrwt>
</event>
<event>
 4    1  0.6476857E-006  0.5671183E+03  0.7818608E-02  0.9976076E-01
         -2   -1    0    0    0  501 -0.00000000000E+00  0.00000000000E+00  0.95715561665E+02  0.95715561699E+02  0.25500000000E-02 0. -1.
          2   -1    0    0  501    0  0.00000000000E+00 -0.00000000000E+00 -0.84004936453E+03  0.84004936453E+03  0.25500000000E-02 0.  1.
   -5000001    1    1    2    0    0  0.53654563409E+02 -0.12115290998E+03 -0.40299019513E+03  0.49240017988E+03  0.25000000000E+03 0.  0.
    5000001    1    1    2    0    0 -0.53654563409E+02  0.12115290998E+03 -0.34134360773E+03  0.44336474636E+03  0.25000000000E+03 0.  0.
<mgrwt>
<rscale>  0 0.56711832E+03</rscale>
<asrwt>0</asrwt>
<pdfrwt beam="1">  1        2 0.12923836E+00 0.56711832E+03</pdfrwt>
<pdfrwt beam="2">  1       -2 0.14725472E-01 0.56711832E+03</pdfrwt>
<totfact> 0.11720294E+03</totfact>
</mgrwt>
</event>
<event>
 4    1  0.6476857E-006  0.1185873E+04  0.7818608E-02  0.9125312E-01
          2   -1    0    0  501    0  0.00000000000E+00  0.00000000000E+00  0.25492011028E+04  0.25492011028E+04  0.25500000000E-02 0. -1.
         -2   -1    0    0    0  501 -0.00000000000E+00 -0.00000000000E+00 -0.13791533423E+03  0.13791533426E+03  0.25500000000E-02 0.  1.
   -5000001    1    1    2    0    0  0.15705518082E+03 -0.48655853461E+03  0.15825549721E+04  0.16817805378E+04  0.25000000000E+03 0.  0.
    5000001    1    1    2    0    0 -0.15705518082E+03  0.48655853461E+03  0.82873079645E+03  0.10053358993E+04  0.25000000000E+03 0.  0.
<mgrwt>
<rscale>  0 0.11858734E+04</rscale>
<asrwt>0</asrwt>
<pdfrwt beam="1">  1        2 0.39218476E+00 0.11858734E+04</pdfrwt>
<pdfrwt beam="2">  1       -2 0.21217745E-01 0.11858734E+04</pdfrwt>
<totfact> 0.62439575E+01</totfact>
</mgrwt>
</event>
<event>
 4    1  0.6476857E-006  0.1486618E+04  0.7818608E-02  0.8893401E-01
          2   -1    0    0  501    0  0.00000000000E+00  0.00000000000E+00  0.94524629763E+03  0.94524629764E+03  0.25500000000E-02 0.  1.
         -2   -1    0    0    0  501 -0.00000000000E+00 -0.00000000000E+00 -0.58451266344E+03  0.58451266344E+03  0.25500000000E-02 0. -1.
   -5000001    1    1    2    0    0 -0.15005915498E+03 -0.68144926909E+03  0.23782236754E+03  0.77842811797E+03  0.25000000000E+03 0.  0.
    5000001    1    1    2    0    0  0.15005915498E+03  0.68144926909E+03  0.12291126665E+03  0.75133084311E+03  0.25000000000E+03 0.  0.
<mgrwt>
<rscale>  0 0.14866182E+04</rscale>
<asrwt>0</asrwt>
<pdfrwt beam="1">  1        2 0.14542251E+00 0.14866182E+04</pdfrwt>
<pdfrwt beam="2">  1       -2 0.89925026E-01 0.14866182E+04</pdfrwt>
<totfact> 0.28012442E+01</totfact>
</mgrwt>
</event>
<event>
 4    1  0.6476857E-006  0.5831822E+03  0.7818608E-02  0.9940925E-01
         -2   -1    0    0    0  501 -0.00000000000E+00  0.00000000000E+00  0.87872392460E+02  0.87872392497E+02  0.25500000000E-02 0. -1.
          2   -1    0    0  501    0  0.00000000000E+00 -0.00000000000E+00 -0.96760047492E+03  0.96760047493E+03  0.25500000000E-02 0.  1.
   -5000001    1    1    2    0    0 -0.10341358635E+03  0.10784134378E+03 -0.46553864027E+03  0.54913600397E+03  0.25000000000E+03 0.  0.
    5000001    1    1    2    0    0  0.10341358635E+03 -0.10784134378E+03 -0.41418944220E+03  0.50633686346E+03  0.25000000000E+03 0.  0.
<mgrwt>
<rscale>  0 0.58318220E+03</rscale>
<asrwt>0</asrwt>
<pdfrwt beam="1">  1        2 0.14886160E+00 0.58318220E+03</pdfrwt>
<pdfrwt beam="2">  1       -2 0.13518830E-01 0.58318220E+03</pdfrwt>
<totfact> 0.11116383E+03</totfact>
</mgrwt>
</event>
<event>
 4    1  0.6476857E-006  0.7858403E+03  0.7818608E-02  0.9580742E-01
         -2   -1    0    0    0  501 -0.00000000000E+00  0.00000000000E+00  0.12600298884E+03  0.12600298887E+03  0.25500000000E-02 0. -1.
          2   -1    0    0  501    0  0.00000000000E+00 -0.00000000000E+00 -0.12252584796E+04  0.12252584796E+04  0.25500000000E-02 0.  1.
   -5000001    1    1    2    0    0  0.10943790781E+03 -0.27722431895E+03 -0.45456733465E+03  0.59829878858E+03  0.25000000000E+03 0.  0.
    5000001    1    1    2    0    0 -0.10943790781E+03  0.27722431895E+03 -0.64468815606E+03  0.75296267985E+03  0.25000000000E+03 0.  0.
<mgrwt>
<rscale>  0 0.78584027E+03</rscale>
<asrwt>0</asrwt>
<pdfrwt beam="1">  1        2 0.18850130E+00 0.78584027E+03</pdfrwt>
<pdfrwt beam="2">  1       -2 0.19385076E-01 0.78584027E+03</pdfrwt>
<totfact> 0.41516522E+02</totfact>
</mgrwt>
</event>
<event>
 4    1  0.6476857E-006  0.1030033E+04  0.7818608E-02  0.9276205E-01
          2   -1    0    0  501    0  0.00000000000E+00  0.00000000000E+00  0.59116287579E+03  0.59116287580E+03  0.25500000000E-02 0.  1.
         -2   -1    0    0    0  501 -0.00000000000E+00 -0.00000000000E+00 -0.44867856001E+03  0.44867856002E+03  0.25500000000E-02 0. -1.
   -5000001    1    1    2    0    0 -0.92515255700E+02  0.37591623753E+03 -0.16088214696E+03  0.48811387543E+03  0.25000000000E+03 0.  0.
    5000001    1    1    2    0    0  0.92515255700E+02 -0.37591623753E+03  0.30336646274E+03  0.55172756039E+03  0.25000000000E+03 0.  0.
<mgrwt>
<rscale>  0 0.10300332E+04</rscale>
<asrwt>0</asrwt>
<pdfrwt beam="1">  1        2 0.90948135E-01 0.10300332E+04</pdfrwt>
<pdfrwt beam="2">  1       -2 0.69027470E-01 0.10300332E+04</pdfrwt>
<totfact> 0.96537889E+01</totfact>
</mgrwt>
</event>
<event>
 4    1  0.6476857E-006  0.5999099E+03  0.7818608E-02  0.9905593E-01
         -2   -1    0    0    0  501 -0.00000000000E+00  0.00000000000E+00  0.45259326217E+02  0.45259326289E+02  0.25500000000E-02 0. -1.
          2   -1    0    0  501    0  0.00000000000E+00 -0.00000000000E+00 -0.19879435299E+04  0.19879435299E+04  0.25500000000E-02 0.  1.
   -5000001    1    1    2    0    0 -0.10842108606E+03  0.97692328865E+02 -0.70503660146E+03  0.76215190902E+03  0.25000000000E+03 0.  0.
    5000001    1    1    2    0    0  0.10842108606E+03 -0.97692328865E+02 -0.12376476022E+04  0.12710509472E+04  0.25000000000E+03 0.  0.
<mgrwt>
<rscale>  0 0.59990994E+03</rscale>
<asrwt>0</asrwt>
<pdfrwt beam="1">  1        2 0.30583740E+00 0.59990994E+03</pdfrwt>
<pdfrwt beam="2">  1       -2 0.69629748E-02 0.59990994E+03</pdfrwt>
<totfact> 0.86022797E+02</totfact>
</mgrwt>
</event>
<event>
 4    1  0.6476857E-006  0.5770081E+03  0.7818608E-02  0.9954290E-01
          2   -1    0    0  501    0  0.00000000000E+00  0.00000000000E+00  0.16762132027E+04  0.16762132027E+04  0.25500000000E-02 0.  1.
         -2   -1    0    0    0  501 -0.00000000000E+00 -0.00000000000E+00 -0.49656316269E+02  0.49656316335E+02  0.25500000000E-02 0. -1.
   -5000001    1    1    2    0    0  0.13121717235E+03 -0.44284252264E+02  0.93124679558E+03  0.97411479590E+03  0.25000000000E+03 0.  0.
    5000001    1    1    2    0    0 -0.13121717235E+03  0.44284252264E+02  0.69531009087E+03  0.75175472315E+03  0.25000000000E+03 0.  0.
<mgrwt>
<rscale>  0 0.57700805E+03</rscale>
<asrwt>0</asrwt>
<pdfrwt beam="1">  1        2 0.25787899E+00 0.57700805E+03</pdfrwt>
<pdfrwt beam="2">  1       -2 0.76394322E-02 0.57700805E+03</pdfrwt>
<totfact> 0.10967589E+03</totfact>
</mgrwt>
</event>
<event>
 4    1  0.6476857E-006  0.9252250E+03  0.7818608E-02  0.9394587E-01
          2   -1    0    0  501    0  0.00000000000E+00  0.00000000000E+00  0.15371410755E+04  0.15371410755E+04  0.25500000000E-02 0.  1.
         -2   -1    0    0    0  501 -0.00000000000E+00 -0.00000000000E+00 -0.13922622424E+03  0.13922622426E+03  0.25500000000E-02 0. -1.
   -5000001    1    1    2    0    0  0.35837638963E+03  0.22417973275E+02  0.97118208451E+03  0.10651905198E+04  0.25000000000E+03 0.  0.
    5000001    1    1    2    0    0 -0.35837638963E+03 -0.22417973275E+02  0.42673276678E+03  0.61117678000E+03  0.25000000000E+03 0.  0.
<mgrwt>
<rscale>  0 0.92522505E+03</rscale>
<asrwt>0</asrwt>
<pdfrwt beam="1">  1        2 0.23648322E+00 0.92522505E+03</pdfrwt>
<pdfrwt beam="2">  1       -2 0.21419421E-01 0.92522505E+03</pdfrwt>
<totfact> 0.22942116E+02</totfact>
</mgrwt>
</event>
<event>
 4    1  0.6476857E-006  0.8886166E+03  0.7818608E-02  0.9439924E-01
          2   -1    0    0  501    0  0.00000000000E+00  0.00000000000E+00  0.26011575406E+04  0.26011575406E+04  0.25500000000E-02 0.  1.
         -2   -1    0    0    0  501 -0.00000000000E+00 -0.00000000000E+00 -0.75893090634E+02  0.75893090677E+02  0.25500000000E-02 0. -1.
   -5000001    1    1    2    0    0 -0.21535299028E+03  0.27660584396E+03  0.15929514003E+04  0.16501157132E+04  0.25000000000E+03 0.  0.
    5000001    1    1    2    0    0  0.21535299028E+03 -0.27660584396E+03  0.93231304969E+03  0.10269349181E+04  0.25000000000E+03 0.  0.
<mgrwt>
<rscale>  0 0.88861664E+03</rscale>
<asrwt>0</asrwt>
<pdfrwt beam="1">  1        2 0.40017810E+00 0.88861664E+03</pdfrwt>
<pdfrwt beam="2">  1       -2 0.11675860E-01 0.88861664E+03</pdfrwt>
<totfact> 0.16614146E+02</totfact>
</mgrwt>
</event>
<event>
 4    1  0.6476857E-006  0.9835347E+03  0.7818608E-02  0.9326790E-01
         -2   -1    0    0    0  501 -0.00000000000E+00  0.00000000000E+00  0.25771402968E+03  0.25771402970E+03  0.25500000000E-02 0. -1.
          2   -1    0    0  501    0  0.00000000000E+00 -0.00000000000E+00 -0.93838557771E+03  0.93838557771E+03  0.25500000000E-02 0.  1.
   -5000001    1    1    2    0    0 -0.27651971770E+03 -0.15942212570E+03 -0.67879531588E+03  0.79065899686E+03  0.25000000000E+03 0.  0.
    5000001    1    1    2    0    0  0.27651971770E+03  0.15942212570E+03 -0.18762321414E+01  0.40544061056E+03  0.25000000000E+03 0.  0.
<mgrwt>
<rscale>  0 0.98353470E+03</rscale>
<asrwt>0</asrwt>
<pdfrwt beam="1">  1        2 0.14436701E+00 0.98353470E+03</pdfrwt>
<pdfrwt beam="2">  1       -2 0.39648313E-01 0.98353470E+03</pdfrwt>
<totfact> 0.16601199E+02</totfact>
</mgrwt>
</event>
<event>
 4    1  0.6476857E-006  0.8128030E+03  0.7818608E-02  0.9541668E-01
          2   -1    0    0  501    0  0.00000000000E+00  0.00000000000E+00  0.17551234319E+04  0.17551234319E+04  0.25500000000E-02 0.  1.
         -2   -1    0    0    0  501 -0.00000000000E+00 -0.00000000000E+00 -0.94102879231E+02  0.94102879266E+02  0.25500000000E-02 0. -1.
   -5000001    1    1    2    0    0  0.16701156748E+03 -0.23687536756E+02  0.14502805536E+04  0.14813060613E+04  0.25000000000E+03 0.  0.
    5000001    1    1    2    0    0 -0.16701156748E+03  0.23687536756E+02  0.21073999910E+03  0.36792024991E+03  0.25000000000E+03 0.  0.
<mgrwt>
<rscale>  0 0.81280297E+03</rscale>
<asrwt>0</asrwt>
<pdfrwt beam="1">  1        2 0.27001899E+00 0.81280297E+03</pdfrwt>
<pdfrwt beam="2">  1       -2 0.14477366E-01 0.81280297E+03</pdfrwt>
<totfact> 0.34453440E+02</totfact>
</mgrwt>
</event>
<event>
 4    1  0.6476857E-006  0.6517714E+03  0.7818608E-02  0.9803461E-01
          2   -1    0    0  501    0  0.00000000000E+00  0.00000000000E+00  0.99366244019E+03  0.99366244019E+03  0.25500000000E-02 0.  1.
         -2   -1    0    0    0  501 -0.00000000000E+00 -0.00000000000E+00 -0.10687883955E+03  0.10687883958E+03  0.25500000000E-02 0. -1.
   -5000001    1    1    2    0    0  0.18011689637E+03 -0.71005357519E+02  0.57653639031E+03  0.65755461104E+03  0.25000000000E+03 0.  0.
    5000001    1    1    2    0    0 -0.18011689637E+03  0.71005357519E+02  0.31024721032E+03  0.44298666872E+03  0.25000000000E+03 0.  0.
<mgrwt>
<rscale>  0 0.65177140E+03</rscale>
<asrwt>0</asrwt>
<pdfrwt beam="1">  1        2 0.15287114E+00 0.65177140E+03</pdfrwt>
<pdfrwt beam="2">  1       -2 0.16442899E-01 0.65177140E+03</pdfrwt>
<totfact> 0.76766873E+02</totfact>
</mgrwt>
</event>
<event>
 4    1  0.6476857E-006  0.1071057E+04  0.7818608E-02  0.9233870E-01
         -2   -1    0    0    0  501 -0.00000000000E+00  0.00000000000E+00  0.96128952069E+02  0.96128952103E+02  0.25500000000E-02 0. -1.
          2   -1    0    0  501    0  0.00000000000E+00 -0.00000000000E+00 -0.29833956886E+04  0.29833956886E+04  0.25500000000E-02 0.  1.
   -5000001    1    1    2    0    0  0.25184776968E+03  0.39230726950E+03 -0.12037908848E+04  0.13148934509E+04  0.25000000000E+03 0.  0.
    5000001    1    1    2    0    0 -0.25184776968E+03 -0.39230726950E+03 -0.16834758516E+04  0.17646311898E+04  0.25000000000E+03 0.  0.
<mgrwt>
<rscale>  0 0.10710569E+04</rscale>
<asrwt>0</asrwt>
<pdfrwt beam="1">  1        2 0.45898388E+00 0.10710569E+04</pdfrwt>
<pdfrwt beam="2">  1       -2 0.14789072E-01 0.10710569E+04</pdfrwt>
<totfact> 0.65067816E+01</totfact>
</mgrwt>
</event>
<event>
 4    1  0.6476857E-006  0.6399777E+03  0.7818608E-02  0.9825769E-01
          2   -1    0    0  501    0  0.00000000000E+00  0.00000000000E+00  0.25185917479E+04  0.25185917479E+04  0.25500000000E-02 0.  1.
         -2   -1    0    0    0  501 -0.00000000000E+00 -0.00000000000E+00 -0.40654804319E+02  0.40654804399E+02  0.25500000000E-02 0. -1.
   -5000001    1    1    2    0    0  0.11575712624E+03  0.80859842908E+02  0.18038681185E+04  0.18265755433E+04  0.25000000000E+03 0.  0.
    5000001    1    1    2    0    0 -0.11575712624E+03 -0.80859842908E+02  0.67406882506E+03  0.73267100897E+03  0.25000000000E+03 0.  0.
<mgrwt>
<rscale>  0 0.63997767E+03</rscale>
<asrwt>0</asrwt>
<pdfrwt beam="1">  1        2 0.38747573E+00 0.63997767E+03</pdfrwt>
<pdfrwt beam="2">  1       -2 0.62545841E-02 0.63997767E+03</pdfrwt>
<totfact> 0.51785694E+02</totfact>
</mgrwt>
</event>
<event>
 4    1  0.6476857E-006  0.5676795E+03  0.7818608E-02  0.9974827E-01
          2   -1    0    0  501    0  0.00000000000E+00  0.00000000000E+00  0.60206007464E+03  0.60206007464E+03  0.25500000000E-02 0.  1.
         -2   -1    0    0    0  501 -0.00000000000E+00 -0.00000000000E+00 -0.13381556189E+03  0.13381556192E+03  0.25500000000E-02 0. -1.
   -5000001    1    1    2    0    0  0.23190211688E+02 -0.12962869175E+03  0.26899270617E+03  0.39012620986E+03  0.25000000000E+03 0.  0.
    5000001    1    1    2    0    0 -0.23190211688E+02  0.12962869175E+03  0.19925180657E+03  0.34574942670E+03  0.25000000000E+03 0.  0.
<mgrwt>
<rscale>  0 0.56767951E+03</rscale>
<asrwt>0</asrwt>
<pdfrwt beam="1">  1        2 0.92624628E-01 0.56767951E+03</pdfrwt>
<pdfrwt beam="2">  1       -2 0.20587009E-01 0.56767951E+03</pdfrwt>
<totfact> 0.10051704E+03</totfact>
</mgrwt>
</event>
<event>
 4    1  0.6476857E-006  0.8667110E+03  0.7818608E-02  0.9468178E-01
         -2   -1    0    0    0  501 -0.00000000000E+00  0.00000000000E+00  0.97462971363E+02  0.97462971397E+02  0.25500000000E-02 0. -1.
          2   -1    0    0  501    0  0.00000000000E+00 -0.00000000000E+00 -0.19268548687E+04  0.19268548687E+04  0.25500000000E-02 0.  1.
   -5000001    1    1    2    0    0 -0.24412118800E+02  0.26801302159E+03 -0.14517392722E+04  0.14974891805E+04  0.25000000000E+03 0.  0.
    5000001    1    1    2    0    0  0.24412118800E+02 -0.26801302159E+03 -0.37765262509E+03  0.52682865955E+03  0.25000000000E+03 0.  0.
<mgrwt>
<rscale>  0 0.86671103E+03</rscale>
<asrwt>0</asrwt>
<pdfrwt beam="1">  1        2 0.29643918E+00 0.86671103E+03</pdfrwt>
<pdfrwt beam="2">  1       -2 0.14994305E-01 0.86671103E+03</pdfrwt>
<totfact> 0.26054672E+02</totfact>
</mgrwt>
</event>
<event>
 4    1  0.6476857E-006  0.1439091E+04  0.7818608E-02  0.8925999E-01
          2   -1    0    0  501    0  0.00000000000E+00  0.00000000000E+00  0.10653527704E+04  0.10653527704E+04  0.25500000000E-02 0. -1.
         -2   -1    0    0    0  501 -0.00000000000E+00 -0.00000000000E+00 -0.48598514689E+03  0.48598514690E+03  0.25500000000E-02 0.  1.
   -5000001    1    1    2    0    0 -0.58944889836E+03 -0.21901683483E+03  0.55335804735E+03  0.87414158252E+03  0.25000000000E+03 0.  0.
    5000001    1    1    2    0    0  0.58944889836E+03  0.21901683483E+03  0.26009576110E+02  0.67719633473E+03  0.25000000000E+03 0.  0.
<mgrwt>
<rscale>  0 0.14390909E+04</rscale>
<asrwt>0</asrwt>
<pdfrwt beam="1">  1        2 0.16390042E+00 0.14390909E+04</pdfrwt>
<pdfrwt beam="2">  1       -2 0.74766946E-01 0.14390909E+04</pdfrwt>
<totfact> 0.35734631E+01</totfact>
</mgrwt>
</event>
<event>
 4    1  0.6476857E-006  0.1089836E+04  0.7818608E-02  0.9215155E-01
          2   -1    0    0  501    0  0.00000000000E+00  0.00000000000E+00  0.14453466312E+04  0.14453466312E+04  0.25500000000E-02 0.  1.
         -2   -1    0    0    0  501 -0.00000000000E+00 -0.00000000000E+00 -0.20544260454E+03  0.20544260455E+03  0.25500000000E-02 0. -1.
   -5000001    1    1    2    0    0  0.29826327101E+03  0.29267584403E+03  0.99040898710E+03  0.11036440052E+04  0.25000000000E+03 0.  0.
    5000001    1    1    2    0    0 -0.29826327101E+03 -0.29267584403E+03  0.24949503953E+03  0.54714523050E+03  0.25000000000E+03 0.  0.
<mgrwt>
<rscale>  0 0.10898363E+04</rscale>
<asrwt>0</asrwt>
<pdfrwt beam="1">  1        2 0.22236102E+00 0.10898363E+04</pdfrwt>
<pdfrwt beam="2">  1       -2 0.31606554E-01 0.10898363E+04</pdfrwt>
<totfact> 0.12582331E+02</totfact>
</mgrwt>
</event>
<event>
 4    1  0.6476857E-006  0.9268073E+03  0.7818608E-02  0.9392678E-01
         -2   -1    0    0    0  501 -0.00000000000E+00  0.00000000000E+00  0.28172464634E+03  0.28172464635E+03  0.25500000000E-02 0. -1.
          2   -1    0    0  501    0  0.00000000000E+00 -0.00000000000E+00 -0.76224402918E+03  0.76224402918E+03  0.25500000000E-02 0.  1.
   -5000001    1    1    2    0    0  0.83687392870E+02 -0.35702922829E+03 -0.90106214020E+02  0.45287148220E+03  0.25000000000E+03 0.  0.
    5000001    1    1    2    0    0 -0.83687392870E+02  0.35702922829E+03 -0.39041316882E+03  0.59109719334E+03  0.25000000000E+03 0.  0.
<mgrwt>
<rscale>  0 0.92680727E+03</rscale>
<asrwt>0</asrwt>
<pdfrwt beam="1">  1        2 0.11726831E+00 0.92680727E+03</pdfrwt>
<pdfrwt beam="2">  1       -2 0.43342254E-01 0.92680727E+03</pdfrwt>
<totfact> 0.18559952E+02</totfact>
</mgrwt>
</event>
<event>
 4    1  0.6476857E-006  0.5346072E+03  0.7818608E-02  0.1005121E+00
          2   -1    0    0  501    0  0.00000000000E+00  0.00000000000E+00  0.89912693792E+03  0.89912693792E+03  0.25500000000E-02 0.  1.
         -2   -1    0    0    0  501 -0.00000000000E+00 -0.00000000000E+00 -0.79467314176E+02  0.79467314217E+02  0.25500000000E-02 0. -1.
   -5000001    1    1    2    0    0 -0.84488494467E+02 -0.22389018428E+02  0.34353593701E+03  0.43377011638E+03  0.25000000000E+03 0.  0.
    5000001    1    1    2    0    0  0.84488494467E+02  0.22389018428E+02  0.47612368673E+03  0.54482413576E+03  0.25000000000E+03 0.  0.
<mgrwt>
<rscale>  0 0.53460716E+03</rscale>
<asrwt>0</asrwt>
<pdfrwt beam="1">  1        2 0.13832722E+00 0.53460716E+03</pdfrwt>
<pdfrwt beam="2">  1       -2 0.12225741E-01 0.53460716E+03</pdfrwt>
<totfact> 0.14567967E+03</totfact>
</mgrwt>
</event>
<event>
 4    1  0.6476857E-006  0.1020686E+04  0.7818608E-02  0.9286143E-01
         -2   -1    0    0    0  501 -0.00000000000E+00  0.00000000000E+00  0.69410755032E+03  0.69410755032E+03  0.25500000000E-02 0. -1.
          2   -1    0    0  501    0  0.00000000000E+00 -0.00000000000E+00 -0.37523007862E+03  0.37523007863E+03  0.25500000000E-02 0.  1.
   -5000001    1    1    2    0    0 -0.43698775444E+03 -0.66852909411E+02  0.10682108071E+03  0.51897818096E+03  0.25000000000E+03 0.  0.
    5000001    1    1    2    0    0  0.43698775444E+03  0.66852909411E+02  0.21205639099E+03  0.55035944799E+03  0.25000000000E+03 0.  0.
<mgrwt>
<rscale>  0 0.10206861E+04</rscale>
<asrwt>0</asrwt>
<pdfrwt beam="1">  1        2 0.57727705E-01 0.10206861E+04</pdfrwt>
<pdfrwt beam="2">  1       -2 0.10678578E+00 0.10206861E+04</pdfrwt>
<totfact> 0.60161897E+01</totfact>
</mgrwt>
</event>
<event>
 4    1  0.6476857E-006  0.7722906E+03  0.7818608E-02  0.9601015E-01
         -2   -1    0    0    0  501 -0.00000000000E+00  0.00000000000E+00  0.12424975436E+03  0.12424975438E+03  0.25500000000E-02 0. -1.
          2   -1    0    0  501    0  0.00000000000E+00 -0.00000000000E+00 -0.12000682333E+04  0.12000682333E+04  0.25500000000E-02 0.  1.
   -5000001    1    1    2    0    0 -0.17588495088E+03  0.20476871807E+03 -0.73893117845E+03  0.82546049592E+03  0.25000000000E+03 0.  0.
    5000001    1    1    2    0    0  0.17588495088E+03 -0.20476871807E+03 -0.33688730047E+03  0.49885749174E+03  0.25000000000E+03 0.  0.
<mgrwt>
<rscale>  0 0.77229058E+03</rscale>
<asrwt>0</asrwt>
<pdfrwt beam="1">  1        2 0.18462587E+00 0.77229058E+03</pdfrwt>
<pdfrwt beam="2">  1       -2 0.19115348E-01 0.77229058E+03</pdfrwt>
<totfact> 0.44053831E+02</totfact>
</mgrwt>
</event>
<event>
 4    1  0.6476857E-006  0.6556430E+03  0.7818608E-02  0.9796248E-01
          2   -1    0    0  501    0  0.00000000000E+00  0.00000000000E+00  0.27985533636E+03  0.27985533637E+03  0.25500000000E-02 0.  1.
         -2   -1    0    0    0  501 -0.00000000000E+00 -0.00000000000E+00 -0.38400889874E+03  0.38400889875E+03  0.25500000000E-02 0. -1.
   -5000001    1    1    2    0    0  0.21110653321E+03 -0.18870609481E+02 -0.58859377529E+02  0.33299623810E+03  0.25000000000E+03 0.  0.
    5000001    1    1    2    0    0 -0.21110653321E+03  0.18870609481E+02 -0.45294184855E+02  0.33086799701E+03  0.25000000000E+03 0.  0.
<mgrwt>
<rscale>  0 0.65564301E+03</rscale>
<asrwt>0</asrwt>
<pdfrwt beam="1">  1        2 0.43054667E-01 0.65564301E+03</pdfrwt>
<pdfrwt beam="2">  1       -2 0.59078293E-01 0.65564301E+03</pdfrwt>
<totfact> 0.32065313E+02</totfact>
</mgrwt>
</event>
<event>
 4    1  0.6476857E-006  0.7601352E+03  0.7818608E-02  0.9619583E-01
          2   -1    0    0  501    0  0.00000000000E+00  0.00000000000E+00  0.24080050877E+03  0.24080050878E+03  0.25500000000E-02 0.  1.
         -2   -1    0    0    0  501 -0.00000000000E+00 -0.00000000000E+00 -0.59987988048E+03  0.59987988049E+03  0.25500000000E-02 0. -1.
   -5000001    1    1    2    0    0 -0.16917543080E+03  0.21349780319E+03 -0.82178983750E+02  0.37875456924E+03  0.25000000000E+03 0.  0.
    5000001    1    1    2    0    0  0.16917543080E+03 -0.21349780319E+03 -0.27690038796E+03  0.46192582003E+03  0.25000000000E+03 0.  0.
<mgrwt>
<rscale>  0 0.76013520E+03</rscale>
<asrwt>0</asrwt>
<pdfrwt beam="1">  1        2 0.37046232E-01 0.76013520E+03</pdfrwt>
<pdfrwt beam="2">  1       -2 0.92289212E-01 0.76013520E+03</pdfrwt>
<totfact> 0.14113323E+02</totfact>
</mgrwt>
</event>
<event>
 4    1  0.6476857E-006  0.7519287E+03  0.7818608E-02  0.9632329E-01
         -2   -1    0    0    0  501 -0.00000000000E+00  0.00000000000E+00  0.67180540851E+02  0.67180540900E+02  0.25500000000E-02 0. -1.
          2   -1    0    0  501    0  0.00000000000E+00 -0.00000000000E+00 -0.21040196782E+04  0.21040196782E+04  0.25500000000E-02 0.  1.
   -5000001    1    1    2    0    0  0.32609921032E+02 -0.23065439733E+03 -0.56567593732E+03  0.66087375800E+03  0.25000000000E+03 0.  0.
    5000001    1    1    2    0    0 -0.32609921032E+02  0.23065439733E+03 -0.14711632000E+04  0.15103264611E+04  0.25000000000E+03 0.  0.
<mgrwt>
<rscale>  0 0.75192867E+03</rscale>
<asrwt>0</asrwt>
<pdfrwt beam="1">  1        2 0.32369528E+00 0.75192867E+03</pdfrwt>
<pdfrwt beam="2">  1       -2 0.10335469E-01 0.75192867E+03</pdfrwt>
<totfact> 0.39016755E+02</totfact>
</mgrwt>
</event>
<event>
 4    1  0.6476857E-006  0.7978592E+03  0.7818608E-02  0.9563121E-01
         -2   -1    0    0    0  501 -0.00000000000E+00  0.00000000000E+00  0.20204202874E+03  0.20204202875E+03  0.25500000000E-02 0. -1.
          2   -1    0    0  501    0  0.00000000000E+00 -0.00000000000E+00 -0.78768172802E+03  0.78768172802E+03  0.25500000000E-02 0.  1.
   -5000001    1    1    2    0    0  0.10645043872E+03  0.28841902153E+03 -0.23560202243E+03  0.46100492498E+03  0.25000000000E+03 0.  0.
    5000001    1    1    2    0    0 -0.10645043872E+03 -0.28841902153E+03 -0.35003767685E+03  0.52871883180E+03  0.25000000000E+03 0.  0.
<mgrwt>
<rscale>  0 0.79785917E+03</rscale>
<asrwt>0</asrwt>
<pdfrwt beam="1">  1        2 0.12118180E+00 0.79785917E+03</pdfrwt>
<pdfrwt beam="2">  1       -2 0.31083389E-01 0.79785917E+03</pdfrwt>
<totfact> 0.33892547E+02</totfact>
</mgrwt>
</event>
<event>
 4    1  0.6476857E-006  0.1556074E+04  0.7818608E-02  0.8847997E-01
          2   -1    0    0  501    0  0.00000000000E+00  0.00000000000E+00  0.32005577940E+04  0.32005577940E+04  0.25500000000E-02 0.  1.
         -2   -1    0    0    0  501 -0.00000000000E+00 -0.00000000000E+00 -0.18913623357E+03  0.18913623358E+03  0.25500000000E-02 0. -1.
   -5000001    1    1    2    0    0 -0.19829216356E+03 -0.67693798123E+03  0.19692295909E+04  0.21066395027E+04  0.25000000000E+03 0.  0.
    5000001    1    1    2    0    0  0.19829216356E+03  0.67693798123E+03  0.10421919696E+04  0.12830545250E+04  0.25000000000E+03 0.  0.
<mgrwt>
<rscale>  0 0.15560738E+04</rscale>
<asrwt>0</asrwt>
<pdfrwt beam="1">  1        2 0.49239345E+00 0.15560738E+04</pdfrwt>
<pdfrwt beam="2">  1       -2 0.29097885E-01 0.15560738E+04</pdfrwt>
<totfact> 0.13651161E+01</totfact>
</mgrwt>
</event>
<event>
 4    1  0.6476857E-006  0.1036565E+04  0.7818608E-02  0.9269326E-01
          2   -1    0    0  501    0  0.00000000000E+00  0.00000000000E+00  0.90433630207E+03  0.90433630207E+03  0.25500000000E-02 0.  1.
         -2   -1    0    0    0  501 -0.00000000000E+00 -0.00000000000E+00 -0.29703163739E+03  0.29703163740E+03  0.25500000000E-02 0. -1.
   -5000001    1    1    2    0    0 -0.16863208754E+03 -0.37360574813E+03  0.77431083132E+02  0.48632664807E+03  0.25000000000E+03 0.  0.
    5000001    1    1    2    0    0  0.16863208754E+03  0.37360574813E+03  0.52987358155E+03  0.71504129140E+03  0.25000000000E+03 0.  0.
<mgrwt>
<rscale>  0 0.10365645E+04</rscale>
<asrwt>0</asrwt>
<pdfrwt beam="1">  1        2 0.13912866E+00 0.10365645E+04</pdfrwt>
<pdfrwt beam="2">  1       -2 0.45697175E-01 0.10365645E+04</pdfrwt>
<totfact> 0.13173245E+02</totfact>
</mgrwt>
</event>
<event>
 4    1  0.6476857E-006  0.1353031E+04  0.7818608E-02  0.8988537E-01
         -2   -1    0    0    0  501 -0.00000000000E+00  0.00000000000E+00  0.15369527839E+04  0.15369527839E+04  0.25500000000E-02 0. -1.
          2   -1    0    0  501    0  0.00000000000E+00 -0.00000000000E+00 -0.29777981849E+03  0.29777981850E+03  0.25500000000E-02 0.  1.
   -5000001    1    1    2    0    0  0.54906648694E+03  0.29869364384E+03  0.52880809673E+03  0.85605484820E+03  0.25000000000E+03 0.  0.
    5000001    1    1    2    0    0 -0.54906648694E+03 -0.29869364384E+03  0.71036486873E+03  0.97867775426E+03  0.25000000000E+03 0.  0.
<mgrwt>
<rscale>  0 0.13530314E+04</rscale>
<asrwt>0</asrwt>
<pdfrwt beam="1">  1        2 0.45812279E-01 0.13530314E+04</pdfrwt>
<pdfrwt beam="2">  1       -2 0.23645428E+00 0.13530314E+04</pdfrwt>
<totfact> 0.84294272E+00</totfact>
</mgrwt>
</event>
<event>
 4    1  0.6476857E-006  0.8201176E+03  0.7818608E-02  0.9531346E-01
          2   -1    0    0  501    0  0.00000000000E+00  0.00000000000E+00  0.41286214753E+03  0.41286214754E+03  0.25500000000E-02 0.  1.
         -2   -1    0    0    0  501 -0.00000000000E+00 -0.00000000000E+00 -0.40727444140E+03  0.40727444140E+03  0.25500000000E-02 0. -1.
   -5000001    1    1    2    0    0 -0.18947960525E+03 -0.84346788181E+02  0.25306212202E+03  0.41177340745E+03  0.25000000000E+03 0.  0.
    5000001    1    1    2    0    0  0.18947960525E+03  0.84346788181E+02 -0.24747441589E+03  0.40836318149E+03  0.25000000000E+03 0.  0.
<mgrwt>
<rscale>  0 0.82011755E+03</rscale>
<asrwt>0</asrwt>
<pdfrwt beam="1">  1        2 0.63517254E-01 0.82011755E+03</pdfrwt>
<pdfrwt beam="2">  1       -2 0.62657606E-01 0.82011755E+03</pdfrwt>
<totfact> 0.18248595E+02</totfact>
</mgrwt>
</event>
<event>
 4    1  0.6476857E-006  0.1958026E+04  0.7818608E-02  0.8626500E-01
         -2   -1    0    0    0  501 -0.00000000000E+00  0.00000000000E+00  0.11726929506E+04  0.11726929506E+04  0.25500000000E-02 0. -1.
          2   -1    0    0  501    0  0.00000000000E+00 -0.00000000000E+00 -0.81732127088E+03  0.81732127089E+03  0.25500000000E-02 0.  1.
   -5000001    1    1    2    0    0  0.50255302732E+03  0.55904920927E+03 -0.40692544497E+03  0.89060871398E+03  0.25000000000E+03 0.  0.
    5000001    1    1    2    0    0 -0.50255302732E+03 -0.55904920927E+03  0.76229712471E+03  0.10994055075E+04  0.25000000000E+03 0.  0.
<mgrwt>
<rscale>  0 0.19580264E+04</rscale>
<asrwt>0</asrwt>
<pdfrwt beam="1">  1        2 0.12574173E+00 0.19580264E+04</pdfrwt>
<pdfrwt beam="2">  1       -2 0.18041430E+00 0.19580264E+04</pdfrwt>
<totfact> 0.56180484E+00</totfact>
</mgrwt>
</event>
<event>
 4    1  0.6476857E-006  0.5805760E+03  0.7818608E-02  0.9946545E-01
         -2   -1    0    0    0  501 -0.00000000000E+00  0.00000000000E+00  0.58990725830E+02  0.58990725885E+02  0.25500000000E-02 0. -1.
          2   -1    0    0  501    0  0.00000000000E+00 -0.00000000000E+00 -0.14284808445E+04  0.14284808445E+04  0.25500000000E-02 0.  1.
   -5000001    1    1    2    0    0  0.13192792340E+03  0.65514017517E+02 -0.70618975071E+03  0.76347955275E+03  0.25000000000E+03 0.  0.
    5000001    1    1    2    0    0 -0.13192792340E+03 -0.65514017517E+02 -0.66330036798E+03  0.72399201765E+03  0.25000000000E+03 0.  0.
<mgrwt>
<rscale>  0 0.58057600E+03</rscale>
<asrwt>0</asrwt>
<pdfrwt beam="1">  1        2 0.21976626E+00 0.58057600E+03</pdfrwt>
<pdfrwt beam="2">  1       -2 0.90754973E-02 0.58057600E+03</pdfrwt>
<totfact> 0.11390659E+03</totfact>
</mgrwt>
</event>
<event>
 4    1  0.6476857E-006  0.6817522E+03  0.7818608E-02  0.9748957E-01
         -2   -1    0    0    0  501 -0.00000000000E+00  0.00000000000E+00  0.24075050607E+03  0.24075050609E+03  0.25500000000E-02 0. -1.
          2   -1    0    0  501    0  0.00000000000E+00 -0.00000000000E+00 -0.48264285985E+03  0.48264285985E+03  0.25500000000E-02 0.  1.
   -5000001    1    1    2    0    0  0.19051109857E+03 -0.37587886266E+02 -0.25511794443E+03  0.40656179536E+03  0.25000000000E+03 0.  0.
    5000001    1    1    2    0    0 -0.19051109857E+03  0.37587886266E+02  0.13225590660E+02  0.31683157058E+03  0.25000000000E+03 0.  0.
<mgrwt>
<rscale>  0 0.68175219E+03</rscale>
<asrwt>0</asrwt>
<pdfrwt beam="1">  1        2 0.74252747E-01 0.68175219E+03</pdfrwt>
<pdfrwt beam="2">  1       -2 0.37038539E-01 0.68175219E+03</pdfrwt>
<totfact> 0.44410365E+02</totfact>
</mgrwt>
</event>
<event>
 4    1  0.6476857E-006  0.6059547E+03  0.7818608E-02  0.9893128E-01
          2   -1    0    0  501    0  0.00000000000E+00  0.00000000000E+00  0.43811108234E+03  0.43811108235E+03  0.25500000000E-02 0.  1.
         -2   -1    0    0    0  501 -0.00000000000E+00 -0.00000000000E+00 -0.20952509850E+03  0.20952509851E+03  0.25500000000E-02 0. -1.
   -5000001    1    1    2    0    0 -0.12386095212E+03  0.79005437623E+02  0.20435078061E+02  0.29069053485E+03  0.25000000000E+03 0.  0.
    5000001    1    1    2    0    0  0.12386095212E+03 -0.79005437623E+02  0.20815090578E+03  0.35694564602E+03  0.25000000000E+03 0.  0.
<mgrwt>
<rscale>  0 0.60595468E+03</rscale>
<asrwt>0</asrwt>
<pdfrwt beam="1">  1        2 0.67401704E-01 0.60595468E+03</pdfrwt>
<pdfrwt beam="2">  1       -2 0.32234631E-01 0.60595468E+03</pdfrwt>
<totfact> 0.64636352E+02</totfact>
</mgrwt>
</event>
<event>
 4    1  0.6476857E-006  0.8174074E+03  0.7818608E-02  0.9535157E-01
         -2   -1    0    0    0  501 -0.00000000000E+00  0.00000000000E+00  0.59139263487E+02  0.59139263542E+02  0.25500000000E-02 0. -1.
          2   -1    0    0  501    0  0.00000000000E+00 -0.00000000000E+00 -0.28244978767E+04  0.28244978767E+04  0.25500000000E-02 0.  1.
   -5000001    1    1    2    0    0  0.27173460122E+03 -0.16120329687E+02 -0.19981656272E+04  0.20320594067E+04  0.25000000000E+03 0.  0.
    5000001    1    1    2    0    0 -0.27173460122E+03  0.16120329687E+02 -0.76719298605E+03  0.85157773360E+03  0.25000000000E+03 0.  0.
<mgrwt>
<rscale>  0 0.81740742E+03</rscale>
<asrwt>0</asrwt>
<pdfrwt beam="1">  1        2 0.43453803E+00 0.81740742E+03</pdfrwt>
<pdfrwt beam="2">  1       -2 0.90983504E-02 0.81740742E+03</pdfrwt>
<totfact> 0.18617994E+02</totfact>
</mgrwt>
</event>
<event>
 4    1  0.6476857E-006  0.6083104E+03  0.7818608E-02  0.9888313E-01
         -2   -1    0    0    0  501 -0.00000000000E+00  0.00000000000E+00  0.96209709681E+02  0.96209709715E+02  0.25500000000E-02 0. -1.
          2   -1    0    0  501    0  0.00000000000E+00 -0.00000000000E+00 -0.96154943330E+03  0.96154943330E+03  0.25500000000E-02 0.  1.
   -5000001    1    1    2    0    0 -0.11192233261E+03 -0.12583712756E+03 -0.36206321216E+03  0.47111714128E+03  0.25000000000E+03 0.  0.
    5000001    1    1    2    0    0  0.11192233261E+03  0.12583712756E+03 -0.50327651146E+03  0.58664200173E+03  0.25000000000E+03 0.  0.
<mgrwt>
<rscale>  0 0.60831042E+03</rscale>
<asrwt>0</asrwt>
<pdfrwt beam="1">  1        2 0.14793068E+00 0.60831042E+03</pdfrwt>
<pdfrwt beam="2">  1       -2 0.14801494E-01 0.60831042E+03</pdfrwt>
<totfact> 0.96311447E+02</totfact>
</mgrwt>
</event>
<event>
 4    1  0.6476857E-006  0.5894593E+03  0.7818608E-02  0.9927519E-01
          2   -1    0    0  501    0  0.00000000000E+00  0.00000000000E+00  0.10161688439E+04  0.10161688439E+04  0.25500000000E-02 0.  1.
         -2   -1    0    0    0  501 -0.00000000000E+00 -0.00000000000E+00 -0.85483395918E+02  0.85483395956E+02  0.25500000000E-02 0. -1.
   -5000001    1    1    2    0    0  0.71587466522E+02  0.13551743133E+03  0.41003329904E+03  0.50410023396E+03  0.25000000000E+03 0.  0.
    5000001    1    1    2    0    0 -0.71587466522E+02 -0.13551743133E+03  0.52065214896E+03  0.59755200591E+03  0.25000000000E+03 0.  0.
<mgrwt>
<rscale>  0 0.58945929E+03</rscale>
<asrwt>0</asrwt>
<pdfrwt beam="1">  1        2 0.15633367E+00 0.58945929E+03</pdfrwt>
<pdfrwt beam="2">  1       -2 0.13151292E-01 0.58945929E+03</pdfrwt>
<totfact> 0.10838378E+03</totfact>
</mgrwt>
</event>
<event>
 4    1  0.6476857E-006  0.7029695E+03  0.7818608E-02  0.9712167E-01
         -2   -1    0    0    0  501 -0.00000000000E+00  0.00000000000E+00  0.23526340205E+03  0.23526340206E+03  0.25500000000E-02 0. -1.
          2   -1    0    0  501    0  0.00000000000E+00 -0.00000000000E+00 -0.52512009738E+03  0.52512009739E+03  0.25500000000E-02 0.  1.
   -5000001    1    1    2    0    0  0.31961133445E+02  0.10404777614E+03 -0.38484071357E+03  0.47164587202E+03  0.25000000000E+03 0.  0.
    5000001    1    1    2    0    0 -0.31961133445E+02 -0.10404777614E+03  0.94984018244E+02  0.28873762743E+03  0.25000000000E+03 0.  0.
<mgrwt>
<rscale>  0 0.70296953E+03</rscale>
<asrwt>0</asrwt>
<pdfrwt beam="1">  1        2 0.80787707E-01 0.70296953E+03</pdfrwt>
<pdfrwt beam="2">  1       -2 0.36194370E-01 0.70296953E+03</pdfrwt>
<totfact> 0.42066864E+02</totfact>
</mgrwt>
</event>
<event>
 4    1  0.6476857E-006  0.3210641E+04  0.7818608E-02  0.8186013E-01
         -2   -1    0    0    0  501 -0.00000000000E+00  0.00000000000E+00  0.55005509787E+03  0.55005509788E+03  0.25500000000E-02 0. -1.
          2   -1    0    0  501    0  0.00000000000E+00 -0.00000000000E+00 -0.46850821198E+04  0.46850821198E+04  0.25500000000E-02 0.  1.
   -5000001    1    1    2    0    0  0.11657205954E+04  0.10743544424E+04 -0.20062572333E+04  0.25691847073E+04  0.25000000000E+03 0.  0.
    5000001    1    1    2    0    0 -0.11657205954E+04 -0.10743544424E+04 -0.21287697886E+04  0.26659525103E+04  0.25000000000E+03 0.  0.
<mgrwt>
<rscale>  0 0.32106406E+04</rscale>
<asrwt>0</asrwt>
<pdfrwt beam="1">  1        2 0.72078184E+00 0.32106406E+04</pdfrwt>
<pdfrwt beam="2">  1       -2 0.84623864E-01 0.32106406E+04</pdfrwt>
<totfact> 0.81263936E-02</totfact>
</mgrwt>
</event>
<event>
 4    1  0.6476857E-006  0.6158673E+03  0.7818608E-02  0.9873023E-01
          2   -1    0    0  501    0  0.00000000000E+00  0.00000000000E+00  0.42613031850E+04  0.42613031850E+04  0.25500000000E-02 0.  1.
         -2   -1    0    0    0  501 -0.00000000000E+00 -0.00000000000E+00 -0.22252142088E+02  0.22252142234E+02  0.25500000000E-02 0. -1.
   -5000001    1    1    2    0    0  0.10210706670E+03 -0.12131156652E+03  0.27089157277E+04  0.27250443610E+04  0.25000000000E+03 0.  0.
    5000001    1    1    2    0    0 -0.10210706670E+03  0.12131156652E+03  0.15301353152E+04  0.15585109663E+04  0.25000000000E+03 0.  0.
<mgrwt>
<rscale>  0 0.61586727E+03</rscale>
<asrwt>0</asrwt>
<pdfrwt beam="1">  1        2 0.65558448E+00 0.61586727E+03</pdfrwt>
<pdfrwt beam="2">  1       -2 0.34234098E-02 0.61586727E+03</pdfrwt>
<totfact> 0.87029131E+01</totfact>
</mgrwt>
</event>
<event>
 4    1  0.6476857E-006  0.7611362E+03  0.7818608E-02  0.9618040E-01
          2   -1    0    0  501    0  0.00000000000E+00  0.00000000000E+00  0.36785499899E+03  0.36785499900E+03  0.25500000000E-02 0.  1.
         -2   -1    0    0    0  501 -0.00000000000E+00 -0.00000000000E+00 -0.39372056779E+03  0.39372056779E+03  0.25500000000E-02 0. -1.
   -5000001    1    1    2    0    0  0.30242809688E+02  0.28116503987E+03  0.35712888966E+02  0.37913561904E+03  0.25000000000E+03 0.  0.
    5000001    1    1    2    0    0 -0.30242809688E+02 -0.28116503987E+03 -0.61578457761E+02  0.38243994776E+03  0.25000000000E+03 0.  0.
<mgrwt>
<rscale>  0 0.76113620E+03</rscale>
<asrwt>0</asrwt>
<pdfrwt beam="1">  1        2 0.56593077E-01 0.76113620E+03</pdfrwt>
<pdfrwt beam="2">  1       -2 0.60572395E-01 0.76113620E+03</pdfrwt>
<totfact> 0.22375141E+02</totfact>
</mgrwt>
</event>
<event>
 4    1  0.6476857E-006  0.6266265E+03  0.7818608E-02  0.9851654E-01
          2   -1    0    0  501    0  0.00000000000E+00  0.00000000000E+00  0.73278720398E+03  0.73278720398E+03  0.25500000000E-02 0.  1.
         -2   -1    0    0    0  501 -0.00000000000E+00 -0.00000000000E+00 -0.13396139857E+03  0.13396139859E+03  0.25500000000E-02 0. -1.
   -5000001    1    1    2    0    0  0.16658275636E+03 -0.75563265744E+02  0.36437282218E+03  0.47825429992E+03  0.25000000000E+03 0.  0.
    5000001    1    1    2    0    0 -0.16658275636E+03  0.75563265744E+02  0.23445298323E+03  0.38849430265E+03  0.25000000000E+03 0.  0.
<mgrwt>
<rscale>  0 0.62662652E+03</rscale>
<asrwt>0</asrwt>
<pdfrwt beam="1">  1        2 0.11273649E+00 0.62662652E+03</pdfrwt>
<pdfrwt beam="2">  1       -2 0.20609446E-01 0.62662652E+03</pdfrwt>
<totfact> 0.78645565E+02</totfact>
</mgrwt>
</event>
<event>
 4    1  0.6476857E-006  0.1006447E+04  0.7818608E-02  0.9301502E-01
         -2   -1    0    0    0  501 -0.00000000000E+00  0.00000000000E+00  0.43622289248E+03  0.43622289249E+03  0.25500000000E-02 0. -1.
          2   -1    0    0  501    0  0.00000000000E+00 -0.00000000000E+00 -0.58051505848E+03  0.58051505849E+03  0.25500000000E-02 0.  1.
   -5000001    1    1    2    0    0  0.42812554179E+03 -0.30804777817E+02  0.92603946408E+01  0.49681603112E+03  0.25000000000E+03 0.  0.
    5000001    1    1    2    0    0 -0.42812554179E+03  0.30804777817E+02 -0.15355256064E+03  0.51992191986E+03  0.25000000000E+03 0.  0.
<mgrwt>
<rscale>  0 0.10064471E+04</rscale>
<asrwt>0</asrwt>
<pdfrwt beam="1">  1        2 0.89310009E-01 0.10064471E+04</pdfrwt>
<pdfrwt beam="2">  1       -2 0.67111214E-01 0.10064471E+04</pdfrwt>
<totfact> 0.10503538E+02</totfact>
</mgrwt>
</event>
<event>
 4    1  0.6476857E-006  0.8177832E+03  0.7818608E-02  0.9534628E-01
         -2   -1    0    0    0  501 -0.00000000000E+00  0.00000000000E+00  0.87498829863E+03  0.87498829863E+03  0.25500000000E-02 0. -1.
          2   -1    0    0  501    0  0.00000000000E+00 -0.00000000000E+00 -0.19107949780E+03  0.19107949781E+03  0.25500000000E-02 0.  1.
   -5000001    1    1    2    0    0  0.23813188295E+03  0.20901543670E+03  0.25649028165E+03  0.47820655687E+03  0.25000000000E+03 0.  0.
    5000001    1    1    2    0    0 -0.23813188295E+03 -0.20901543670E+03  0.42741851918E+03  0.58786123957E+03  0.25000000000E+03 0.  0.
<mgrwt>
<rscale>  0 0.81778316E+03</rscale>
<asrwt>0</asrwt>
<pdfrwt beam="1">  1        2 0.29396846E-01 0.81778316E+03</pdfrwt>
<pdfrwt beam="2">  1       -2 0.13461358E+00 0.81778316E+03</pdfrwt>
<totfact> 0.72868659E+01</totfact>
</mgrwt>
</event>
<event>
 4    1  0.6476857E-006  0.7083117E+03  0.7818608E-02  0.9703123E-01
          2   -1    0    0  501    0  0.00000000000E+00  0.00000000000E+00  0.68471945708E+03  0.68471945709E+03  0.25500000000E-02 0.  1.
         -2   -1    0    0    0  501 -0.00000000000E+00 -0.00000000000E+00 -0.18317919299E+03  0.18317919301E+03  0.25500000000E-02 0. -1.
   -5000001    1    1    2    0    0  0.19425592335E+03  0.42349819242E+02  0.63344399920E+02  0.32563996061E+03  0.25000000000E+03 0.  0.
    5000001    1    1    2    0    0 -0.19425592335E+03 -0.42349819242E+02  0.43819586417E+03  0.54225868949E+03  0.25000000000E+03 0.  0.
<mgrwt>
<rscale>  0 0.70831168E+03</rscale>
<asrwt>0</asrwt>
<pdfrwt beam="1">  1        2 0.10534145E+00 0.70831168E+03</pdfrwt>
<pdfrwt beam="2">  1       -2 0.28181414E-01 0.70831168E+03</pdfrwt>
<totfact> 0.48799847E+02</totfact>
</mgrwt>
</event>
<event>
 4    1  0.6476857E-006  0.5216503E+03  0.7818608E-02  0.1008277E+00
         -2   -1    0    0    0  501 -0.00000000000E+00  0.00000000000E+00  0.43425990436E+02  0.43425990511E+02  0.25500000000E-02 0. -1.
          2   -1    0    0  501    0  0.00000000000E+00 -0.00000000000E+00 -0.15665678233E+04  0.15665678233E+04  0.25500000000E-02 0.  1.
   -5000001    1    1    2    0    0  0.35789022343E+02  0.65179419467E+02 -0.75928507721E+03  0.80283437851E+03  0.25000000000E+03 0.  0.
    5000001    1    1    2    0    0 -0.35789022343E+02 -0.65179419467E+02 -0.76385675567E+03  0.80715943532E+03  0.25000000000E+03 0.  0.
<mgrwt>
<rscale>  0 0.52165030E+03</rscale>
<asrwt>0</asrwt>
<pdfrwt beam="1">  1        2 0.24101039E+00 0.52165030E+03</pdfrwt>
<pdfrwt beam="2">  1       -2 0.66809228E-02 0.52165030E+03</pdfrwt>
<totfact> 0.15590358E+03</totfact>
</mgrwt>
</event>
<event>
 4    1  0.6476857E-006  0.5900391E+03  0.7818608E-02  0.9926290E-01
         -2   -1    0    0    0  501 -0.00000000000E+00  0.00000000000E+00  0.67143273741E+02  0.67143273790E+02  0.25500000000E-02 0. -1.
          2   -1    0    0  501    0  0.00000000000E+00 -0.00000000000E+00 -0.12962806684E+04  0.12962806684E+04  0.25500000000E-02 0.  1.
   -5000001    1    1    2    0    0  0.15655599628E+03 -0.40924849932E+01 -0.62187566227E+03  0.68829925740E+03  0.25000000000E+03 0.  0.
    5000001    1    1    2    0    0 -0.15655599628E+03  0.40924849932E+01 -0.60726173240E+03  0.67512468482E+03  0.25000000000E+03 0.  0.
<mgrwt>
<rscale>  0 0.59003908E+03</rscale>
<asrwt>0</asrwt>
<pdfrwt beam="1">  1        2 0.19942778E+00 0.59003908E+03</pdfrwt>
<pdfrwt beam="2">  1       -2 0.10329735E-01 0.59003908E+03</pdfrwt>
<totfact> 0.10967667E+03</totfact>
</mgrwt>
</event>
<event>
 4    1  0.6476857E-006  0.6055673E+03  0.7818608E-02  0.9893923E-01
         -2   -1    0    0    0  501 -0.00000000000E+00  0.00000000000E+00  0.40964108236E+03  0.40964108236E+03  0.25500000000E-02 0. -1.
          2   -1    0    0  501    0  0.00000000000E+00 -0.00000000000E+00 -0.22380061461E+03  0.22380061463E+03  0.25500000000E-02 0.  1.
   -5000001    1    1    2    0    0  0.14639923496E+03 -0.25656115389E+02  0.18097929722E+03  0.34255580315E+03  0.25000000000E+03 0.  0.
    5000001    1    1    2    0    0 -0.14639923496E+03  0.25656115389E+02  0.48611705270E+01  0.29088589383E+03  0.25000000000E+03 0.  0.
<mgrwt>
<rscale>  0 0.60556726E+03</rscale>
<asrwt>0</asrwt>
<pdfrwt beam="1">  1        2 0.34430864E-01 0.60556726E+03</pdfrwt>
<pdfrwt beam="2">  1       -2 0.63021705E-01 0.60556726E+03</pdfrwt>
<totfact> 0.35897814E+02</totfact>
</mgrwt>
</event>
<event>
 4    1  0.6476857E-006  0.5517254E+03  0.7818608E-02  0.1001095E+00
         -2   -1    0    0    0  501 -0.00000000000E+00  0.00000000000E+00  0.35565924463E+03  0.35565924464E+03  0.25500000000E-02 0. -1.
          2   -1    0    0  501    0  0.00000000000E+00 -0.00000000000E+00 -0.21396952770E+03  0.21396952771E+03  0.25500000000E-02 0.  1.
   -5000001    1    1    2    0    0 -0.70509311406E+02  0.92256892529E+02  0.59660831118E+02  0.28203246619E+03  0.25000000000E+03 0.  0.
    5000001    1    1    2    0    0  0.70509311406E+02 -0.92256892529E+02  0.82028885818E+02  0.28759630617E+03  0.25000000000E+03 0.  0.
<mgrwt>
<rscale>  0 0.55172544E+03</rscale>
<asrwt>0</asrwt>
<pdfrwt beam="1">  1        2 0.32918389E-01 0.55172544E+03</pdfrwt>
<pdfrwt beam="2">  1       -2 0.54716807E-01 0.55172544E+03</pdfrwt>
<totfact> 0.50779374E+02</totfact>
</mgrwt>
</event>
<event>
 4    1  0.6476857E-006  0.9351166E+03  0.7818608E-02  0.9382718E-01
          2   -1    0    0  501    0  0.00000000000E+00  0.00000000000E+00  0.97187922128E+03  0.97187922128E+03  0.25500000000E-02 0.  1.
         -2   -1    0    0    0  501 -0.00000000000E+00 -0.00000000000E+00 -0.22493613118E+03  0.22493613119E+03  0.25500000000E-02 0. -1.
   -5000001    1    1    2    0    0  0.29982787107E+03 -0.22797081151E+03  0.52621648867E+03  0.69373715204E+03  0.25000000000E+03 0.  0.
    5000001    1    1    2    0    0 -0.29982787107E+03  0.22797081151E+03  0.22072660143E+03  0.50307820043E+03  0.25000000000E+03 0.  0.
<mgrwt>
<rscale>  0 0.93511657E+03</rscale>
<asrwt>0</asrwt>
<pdfrwt beam="1">  1        2 0.14951988E+00 0.93511657E+03</pdfrwt>
<pdfrwt beam="2">  1       -2 0.34605559E-01 0.93511657E+03</pdfrwt>
<totfact> 0.20566333E+02</totfact>
</mgrwt>
</event>
<event>
 4    1  0.6476857E-006  0.8634027E+03  0.7818608E-02  0.9472523E-01
          2   -1    0    0  501    0  0.00000000000E+00  0.00000000000E+00  0.53800008568E+03  0.53800008569E+03  0.25500000000E-02 0.  1.
         -2   -1    0    0    0  501 -0.00000000000E+00 -0.00000000000E+00 -0.34640521735E+03  0.34640521736E+03  0.25500000000E-02 0. -1.
   -5000001    1    1    2    0    0  0.32049873636E+02  0.27134580561E+03  0.32302757955E+03  0.49142909740E+03  0.25000000000E+03 0.  0.
    5000001    1    1    2    0    0 -0.32049873636E+02 -0.27134580561E+03 -0.13143271122E+03  0.39297620564E+03  0.25000000000E+03 0.  0.
<mgrwt>
<rscale>  0 0.86340266E+03</rscale>
<asrwt>0</asrwt>
<pdfrwt beam="1">  1        2 0.82769244E-01 0.86340266E+03</pdfrwt>
<pdfrwt beam="2">  1       -2 0.53293111E-01 0.86340266E+03</pdfrwt>
<totfact> 0.18851817E+02</totfact>
</mgrwt>
</event>
<event>
 4    1  0.6476857E-006  0.6254870E+03  0.7818608E-02  0.9853895E-01
         -2   -1    0    0    0  501 -0.00000000000E+00  0.00000000000E+00  0.44099228480E+03  0.44099228480E+03  0.25500000000E-02 0. -1.
          2   -1    0    0  501    0  0.00000000000E+00 -0.00000000000E+00 -0.22179185429E+03  0.22179185430E+03  0.25500000000E-02 0.  1.
   -5000001    1    1    2    0    0  0.16060175018E+03  0.44118624111E+02  0.20178867429E+03  0.36188125708E+03  0.25000000000E+03 0.  0.
    5000001    1    1    2    0    0 -0.16060175018E+03 -0.44118624111E+02  0.17411756217E+02  0.30090288202E+03  0.25000000000E+03 0.  0.
<mgrwt>
<rscale>  0 0.62548700E+03</rscale>
<asrwt>0</asrwt>
<pdfrwt beam="1">  1        2 0.34121824E-01 0.62548700E+03</pdfrwt>
<pdfrwt beam="2">  1       -2 0.67844966E-01 0.62548700E+03</pdfrwt>
<totfact> 0.30944680E+02</totfact>
</mgrwt>
</event>
<event>
 4    1  0.6476857E-006  0.1024813E+04  0.7818608E-02  0.9281741E-01
         -2   -1    0    0    0  501 -0.00000000000E+00  0.00000000000E+00  0.20160693892E+03  0.20160693894E+03  0.25500000000E-02 0. -1.
          2   -1    0    0  501    0  0.00000000000E+00 -0.00000000000E+00 -0.13023382508E+04  0.13023382508E+04  0.25500000000E-02 0.  1.
   -5000001    1    1    2    0    0  0.16142160999E+03 -0.41274840900E+03 -0.46179867719E+03  0.68715078662E+03  0.25000000000E+03 0.  0.
    5000001    1    1    2    0    0 -0.16142160999E+03  0.41274840900E+03 -0.63893263473E+03  0.81679440316E+03  0.25000000000E+03 0.  0.
<mgrwt>
<rscale>  0 0.10248130E+04</rscale>
<asrwt>0</asrwt>
<pdfrwt beam="1">  1        2 0.20035973E+00 0.10248130E+04</pdfrwt>
<pdfrwt beam="2">  1       -2 0.31016453E-01 0.10248130E+04</pdfrwt>
<totfact> 0.15809719E+02</totfact>
</mgrwt>
</event>
<event>
 4    1  0.6476857E-006  0.6497669E+03  0.7818608E-02  0.9807217E-01
         -2   -1    0    0    0  501 -0.00000000000E+00  0.00000000000E+00  0.85148868503E+02  0.85148868541E+02  0.25500000000E-02 0. -1.
          2   -1    0    0  501    0  0.00000000000E+00 -0.00000000000E+00 -0.12395848569E+04  0.12395848569E+04  0.25500000000E-02 0.  1.
   -5000001    1    1    2    0    0 -0.15481273876E+03 -0.35414440868E+02 -0.30499592649E+03  0.42513960281E+03  0.25000000000E+03 0.  0.
    5000001    1    1    2    0    0  0.15481273876E+03  0.35414440868E+02 -0.84944006194E+03  0.89959412266E+03  0.25000000000E+03 0.  0.
<mgrwt>
<rscale>  0 0.64976688E+03</rscale>
<asrwt>0</asrwt>
<pdfrwt beam="1">  1        2 0.19070535E+00 0.64976688E+03</pdfrwt>
<pdfrwt beam="2">  1       -2 0.13099827E-01 0.64976688E+03</pdfrwt>
<totfact> 0.79840181E+02</totfact>
</mgrwt>
</event>
<event>
 4    1  0.6476857E-006  0.7366538E+03  0.7818608E-02  0.9656524E-01
         -2   -1    0    0    0  501 -0.00000000000E+00  0.00000000000E+00  0.11662306757E+03  0.11662306760E+03  0.25500000000E-02 0. -1.
          2   -1    0    0  501    0  0.00000000000E+00 -0.00000000000E+00 -0.11632749222E+04  0.11632749222E+04  0.25500000000E-02 0.  1.
   -5000001    1    1    2    0    0  0.20237078341E+03 -0.55773506240E+02 -0.81971281013E+03  0.88232290522E+03  0.25000000000E+03 0.  0.
    5000001    1    1    2    0    0 -0.20237078341E+03  0.55773506240E+02 -0.22693904453E+03  0.39757508462E+03  0.25000000000E+03 0.  0.
<mgrwt>
<rscale>  0 0.73665376E+03</rscale>
<asrwt>0</asrwt>
<pdfrwt beam="1">  1        2 0.17896536E+00 0.73665376E+03</pdfrwt>
<pdfrwt beam="2">  1       -2 0.17942011E-01 0.73665376E+03</pdfrwt>
<totfact> 0.51793386E+02</totfact>
</mgrwt>
</event>
<event>
 4    1  0.6476857E-006  0.6266891E+03  0.7818608E-02  0.9851531E-01
          2   -1    0    0  501    0  0.00000000000E+00  0.00000000000E+00  0.26329248836E+04  0.26329248836E+04  0.25500000000E-02 0.  1.
         -2   -1    0    0    0  501 -0.00000000000E+00 -0.00000000000E+00 -0.37291153951E+02  0.37291154039E+02  0.25500000000E-02 0. -1.
   -5000001    1    1    2    0    0  0.84266520110E+02 -0.16567938195E+03  0.14413191616E+04  0.14746021259E+04  0.25000000000E+03 0.  0.
    5000001    1    1    2    0    0 -0.84266520110E+02  0.16567938195E+03  0.11543145680E+04  0.11956139118E+04  0.25000000000E+03 0.  0.
<mgrwt>
<rscale>  0 0.62668910E+03</rscale>
<asrwt>0</asrwt>
<pdfrwt beam="1">  1        2 0.40506533E+00 0.62668910E+03</pdfrwt>
<pdfrwt beam="2">  1       -2 0.57371011E-02 0.62668910E+03</pdfrwt>
<totfact> 0.51103337E+02</totfact>
</mgrwt>
</event>
<event>
 4    1  0.6476857E-006  0.7983043E+03  0.7818608E-02  0.9562475E-01
          2   -1    0    0  501    0  0.00000000000E+00  0.00000000000E+00  0.14466579211E+04  0.14466579211E+04  0.25500000000E-02 0.  1.
         -2   -1    0    0    0  501 -0.00000000000E+00 -0.00000000000E+00 -0.11013137168E+03  0.11013137171E+03  0.25500000000E-02 0. -1.
   -5000001    1    1    2    0    0  0.25747871280E+03 -0.11474697409E+03  0.41131862772E+03  0.55780388051E+03  0.25000000000E+03 0.  0.
    5000001    1    1    2    0    0 -0.25747871280E+03  0.11474697409E+03  0.92520792168E+03  0.99898541227E+03  0.25000000000E+03 0.  0.
<mgrwt>
<rscale>  0 0.79830426E+03</rscale>
<asrwt>0</asrwt>
<pdfrwt beam="1">  1        2 0.22256274E+00 0.79830426E+03</pdfrwt>
<pdfrwt beam="2">  1       -2 0.16943289E-01 0.79830426E+03</pdfrwt>
<totfact> 0.39085639E+02</totfact>
</mgrwt>
</event>
<event>
 4    1  0.6476857E-006  0.8860750E+03  0.7818608E-02  0.9443158E-01
          2   -1    0    0  501    0  0.00000000000E+00  0.00000000000E+00  0.22891717687E+04  0.22891717687E+04  0.25500000000E-02 0.  1.
         -2   -1    0    0    0  501 -0.00000000000E+00 -0.00000000000E+00 -0.85743767168E+02  0.85743767206E+02  0.25500000000E-02 0. -1.
   -5000001    1    1    2    0    0 -0.28521341529E+03  0.15911924172E+03  0.15430762721E+04  0.15969502205E+04  0.25000000000E+03 0.  0.
    5000001    1    1    2    0    0  0.28521341529E+03 -0.15911924172E+03  0.66035172939E+03  0.77796531533E+03  0.25000000000E+03 0.  0.
<mgrwt>
<rscale>  0 0.88607497E+03</rscale>
<asrwt>0</asrwt>
<pdfrwt beam="1">  1        2 0.35218033E+00 0.88607497E+03</pdfrwt>
<pdfrwt beam="2">  1       -2 0.13191347E-01 0.88607497E+03</pdfrwt>
<totfact> 0.20378640E+02</totfact>
</mgrwt>
</event>
<event>
 4    1  0.6476857E-006  0.9043612E+03  0.7818608E-02  0.9420146E-01
          2   -1    0    0  501    0  0.00000000000E+00  0.00000000000E+00  0.25770583808E+04  0.25770583808E+04  0.25500000000E-02 0.  1.
         -2   -1    0    0    0  501 -0.00000000000E+00 -0.00000000000E+00 -0.79341349875E+02  0.79341349916E+02  0.25500000000E-02 0. -1.
   -5000001    1    1    2    0    0  0.18110333153E+03 -0.61970005885E+02  0.22021476671E+04  0.22245433343E+04  0.25000000000E+03 0.  0.
    5000001    1    1    2    0    0 -0.18110333153E+03  0.61970005885E+02  0.29556936382E+03  0.43185639644E+03  0.25000000000E+03 0.  0.
<mgrwt>
<rscale>  0 0.90436119E+03</rscale>
<asrwt>0</asrwt>
<pdfrwt beam="1">  1        2 0.39647054E+00 0.90436119E+03</pdfrwt>
<pdfrwt beam="2">  1       -2 0.12206361E-01 0.90436119E+03</pdfrwt>
<totfact> 0.15913052E+02</totfact>
</mgrwt>
</event>
<event>
 4    1  0.6476857E-006  0.6466878E+03  0.7818608E-02  0.9813014E-01
          2   -1    0    0  501    0  0.00000000000E+00  0.00000000000E+00  0.11266312867E+04  0.11266312868E+04  0.25500000000E-02 0.  1.
         -2   -1    0    0    0  501 -0.00000000000E+00 -0.00000000000E+00 -0.92799918378E+02  0.92799918413E+02  0.25500000000E-02 0. -1.
   -5000001    1    1    2    0    0  0.39148707735E+02 -0.19301940013E+03  0.62461592062E+03  0.70102365041E+03  0.25000000000E+03 0.  0.
    5000001    1    1    2    0    0 -0.39148707735E+02  0.19301940013E+03  0.40921544775E+03  0.51840755475E+03  0.25000000000E+03 0.  0.
<mgrwt>
<rscale>  0 0.64668784E+03</rscale>
<asrwt>0</asrwt>
<pdfrwt beam="1">  1        2 0.17332790E+00 0.64668784E+03</pdfrwt>
<pdfrwt beam="2">  1       -2 0.14276910E-01 0.64668784E+03</pdfrwt>
<totfact> 0.80668130E+02</totfact>
</mgrwt>
</event>
<event>
 4    1  0.6476857E-006  0.7162303E+03  0.7818608E-02  0.9689872E-01
          2   -1    0    0  501    0  0.00000000000E+00  0.00000000000E+00  0.19913158822E+04  0.19913158822E+04  0.25500000000E-02 0.  1.
         -2   -1    0    0    0  501 -0.00000000000E+00 -0.00000000000E+00 -0.64402868275E+02  0.64402868326E+02  0.25500000000E-02 0. -1.
   -5000001    1    1    2    0    0 -0.19828103285E+03 -0.12289777830E+03  0.65798357343E+03  0.74152654356E+03  0.25000000000E+03 0.  0.
    5000001    1    1    2    0    0  0.19828103285E+03  0.12289777830E+03  0.12689294405E+04  0.13141922069E+04  0.25000000000E+03 0.  0.
<mgrwt>
<rscale>  0 0.71623028E+03</rscale>
<asrwt>0</asrwt>
<pdfrwt beam="1">  1        2 0.30635628E+00 0.71623028E+03</pdfrwt>
<pdfrwt beam="2">  1       -2 0.99081339E-02 0.71623028E+03</pdfrwt>
<totfact> 0.48288825E+02</totfact>
</mgrwt>
</event>
<event>
 4    1  0.6476857E-006  0.1516638E+04  0.7818608E-02  0.8873464E-01
          2   -1    0    0  501    0  0.00000000000E+00  0.00000000000E+00  0.19652317744E+04  0.19652317744E+04  0.25500000000E-02 0.  1.
         -2   -1    0    0    0  501 -0.00000000000E+00 -0.00000000000E+00 -0.29261051403E+03  0.29261051404E+03  0.25500000000E-02 0. -1.
   -5000001    1    1    2    0    0  0.18723698508E+03 -0.41580679129E+03  0.16579340046E+04  0.17375839951E+04  0.25000000000E+03 0.  0.
    5000001    1    1    2    0    0 -0.18723698508E+03  0.41580679129E+03  0.14687255682E+02  0.52025829330E+03  0.25000000000E+03 0.  0.
<mgrwt>
<rscale>  0 0.15166377E+04</rscale>
<asrwt>0</asrwt>
<pdfrwt beam="1">  1        2 0.30234335E+00 0.15166377E+04</pdfrwt>
<pdfrwt beam="2">  1       -2 0.45017002E-01 0.15166377E+04</pdfrwt>
<totfact> 0.31553181E+01</totfact>
</mgrwt>
</event>
<event>
 4    1  0.6476857E-006  0.9475810E+03  0.7818608E-02  0.9367982E-01
         -2   -1    0    0    0  501 -0.00000000000E+00  0.00000000000E+00  0.19740613903E+03  0.19740613904E+03  0.25500000000E-02 0. -1.
          2   -1    0    0  501    0  0.00000000000E+00 -0.00000000000E+00 -0.11371350874E+04  0.11371350874E+04  0.25500000000E-02 0.  1.
   -5000001    1    1    2    0    0 -0.98543795428E+02 -0.37631997459E+03 -0.32452376660E+03  0.56492767500E+03  0.25000000000E+03 0.  0.
    5000001    1    1    2    0    0  0.98543795428E+02  0.37631997459E+03 -0.61520518176E+03  0.76961355143E+03  0.25000000000E+03 0.  0.
<mgrwt>
<rscale>  0 0.94758102E+03</rscale>
<asrwt>0</asrwt>
<pdfrwt beam="1">  1        2 0.17494386E+00 0.94758102E+03</pdfrwt>
<pdfrwt beam="2">  1       -2 0.30370176E-01 0.94758102E+03</pdfrwt>
<totfact> 0.20701827E+02</totfact>
</mgrwt>
</event>
<event>
 4    1  0.6476857E-006  0.8498904E+03  0.7818608E-02  0.9490484E-01
          2   -1    0    0  501    0  0.00000000000E+00  0.00000000000E+00  0.11143570455E+04  0.11143570455E+04  0.25500000000E-02 0.  1.
         -2   -1    0    0    0  501 -0.00000000000E+00 -0.00000000000E+00 -0.16204716718E+03  0.16204716720E+03  0.25500000000E-02 0. -1.
   -5000001    1    1    2    0    0  0.13150367431E+03  0.26247437089E+03  0.74436117311E+03  0.83830756155E+03  0.25000000000E+03 0.  0.
    5000001    1    1    2    0    0 -0.13150367431E+03 -0.26247437089E+03  0.20794870517E+03  0.43809665111E+03  0.25000000000E+03 0.  0.
<mgrwt>
<rscale>  0 0.84989035E+03</rscale>
<asrwt>0</asrwt>
<pdfrwt beam="1">  1        2 0.17143954E+00 0.84989035E+03</pdfrwt>
<pdfrwt beam="2">  1       -2 0.24930334E-01 0.84989035E+03</pdfrwt>
<totfact> 0.30860430E+02</totfact>
</mgrwt>
</event>
<event>
 4    1  0.6476857E-006  0.1561784E+04  0.7818608E-02  0.8844376E-01
         -2   -1    0    0    0  501 -0.00000000000E+00  0.00000000000E+00  0.29123440099E+03  0.29123440100E+03  0.25500000000E-02 0. -1.
          2   -1    0    0  501    0  0.00000000000E+00 -0.00000000000E+00 -0.20938185768E+04  0.20938185768E+04  0.25500000000E-02 0.  1.
   -5000001    1    1    2    0    0  0.23985963879E+03 -0.62041026549E+03 -0.40679659937E+03  0.81879485654E+03  0.25000000000E+03 0.  0.
    5000001    1    1    2    0    0 -0.23985963879E+03  0.62041026549E+03 -0.13957875764E+04  0.15662581212E+04  0.25000000000E+03 0.  0.
<mgrwt>
<rscale>  0 0.15617836E+04</rscale>
<asrwt>0</asrwt>
<pdfrwt beam="1">  1        2 0.32212593E+00 0.15617836E+04</pdfrwt>
<pdfrwt beam="2">  1       -2 0.44805294E-01 0.15617836E+04</pdfrwt>
<totfact> 0.26922398E+01</totfact>
</mgrwt>
</event>
<event>
 4    1  0.6476857E-006  0.8449070E+03  0.7818608E-02  0.9497198E-01
          2   -1    0    0  501    0  0.00000000000E+00  0.00000000000E+00  0.97973656553E+03  0.97973656553E+03  0.25500000000E-02 0.  1.
         -2   -1    0    0    0  501 -0.00000000000E+00 -0.00000000000E+00 -0.18215809962E+03  0.18215809964E+03  0.25500000000E-02 0. -1.
   -5000001    1    1    2    0    0  0.32638290467E+03  0.37369998627E+02  0.27544723023E+03  0.49627965292E+03  0.25000000000E+03 0.  0.
    5000001    1    1    2    0    0 -0.32638290467E+03 -0.37369998627E+02  0.52213123568E+03  0.66561501225E+03  0.25000000000E+03 0.  0.
<mgrwt>
<rscale>  0 0.84490698E+03</rscale>
<asrwt>0</asrwt>
<pdfrwt beam="1">  1        2 0.15072870E+00 0.84490698E+03</pdfrwt>
<pdfrwt beam="2">  1       -2 0.28024323E-01 0.84490698E+03</pdfrwt>
<totfact> 0.30298219E+02</totfact>
</mgrwt>
</event>
<event>
 4    1  0.6476857E-006  0.5992100E+03  0.7818608E-02  0.9907046E-01
         -2   -1    0    0    0  501 -0.00000000000E+00  0.00000000000E+00  0.14476551908E+03  0.14476551910E+03  0.25500000000E-02 0. -1.
          2   -1    0    0  501    0  0.00000000000E+00 -0.00000000000E+00 -0.62005899241E+03  0.62005899241E+03  0.25500000000E-02 0.  1.
   -5000001    1    1    2    0    0 -0.71950111077E+02  0.14806230540E+03 -0.25398735257E+03  0.39256698795E+03  0.25000000000E+03 0.  0.
    5000001    1    1    2    0    0  0.71950111077E+02 -0.14806230540E+03 -0.22130612076E+03  0.37225752356E+03  0.25000000000E+03 0.  0.
<mgrwt>
<rscale>  0 0.59921002E+03</rscale>
<asrwt>0</asrwt>
<pdfrwt beam="1">  1        2 0.95393690E-01 0.59921002E+03</pdfrwt>
<pdfrwt beam="2">  1       -2 0.22271619E-01 0.59921002E+03</pdfrwt>
<totfact> 0.84453100E+02</totfact>
</mgrwt>
</event>
<event>
 4    1  0.6476857E-006  0.9045702E+03  0.7818608E-02  0.9419886E-01
          2   -1    0    0  501    0  0.00000000000E+00  0.00000000000E+00  0.13077674627E+03  0.13077674630E+03  0.25500000000E-02 0.  1.
         -2   -1    0    0    0  501 -0.00000000000E+00 -0.00000000000E+00 -0.15642061633E+04  0.15642061633E+04  0.25500000000E-02 0. -1.
   -5000001    1    1    2    0    0  0.32896480618E+03 -0.12139197054E+03 -0.97573273086E+03  0.10665403022E+04  0.25000000000E+03 0.  0.
    5000001    1    1    2    0    0 -0.32896480618E+03  0.12139197054E+03 -0.45769668614E+03  0.62844260734E+03  0.25000000000E+03 0.  0.
<mgrwt>
<rscale>  0 0.90457016E+03</rscale>
<asrwt>0</asrwt>
<pdfrwt beam="1">  1        2 0.20119500E-01 0.90457016E+03</pdfrwt>
<pdfrwt beam="2">  1       -2 0.24064709E+00 0.90457016E+03</pdfrwt>
<totfact> 0.20974558E+01</totfact>
</mgrwt>
</event>
<event>
 4    1  0.6476857E-006  0.2155146E+04  0.7818608E-02  0.8537333E-01
         -2   -1    0    0    0  501 -0.00000000000E+00  0.00000000000E+00  0.59555235530E+03  0.59555235530E+03  0.25500000000E-02 0. -1.
          2   -1    0    0  501    0  0.00000000000E+00 -0.00000000000E+00 -0.19497251921E+04  0.19497251921E+04  0.25500000000E-02 0.  1.
   -5000001    1    1    2    0    0  0.69811881106E+03  0.69735390071E+03 -0.25954649312E+03  0.10504935598E+04  0.25000000000E+03 0.  0.
    5000001    1    1    2    0    0 -0.69811881106E+03 -0.69735390071E+03 -0.10946263437E+04  0.14947839876E+04  0.25000000000E+03 0.  0.
<mgrwt>
<rscale>  0 0.21551459E+04</rscale>
<asrwt>0</asrwt>
<pdfrwt beam="1">  1        2 0.29995772E+00 0.21551459E+04</pdfrwt>
<pdfrwt beam="2">  1       -2 0.91623440E-01 0.21551459E+04</pdfrwt>
<totfact> 0.66278904E+00</totfact>
</mgrwt>
</event>
<event>
 4    1  0.6476857E-006  0.1199566E+04  0.7818608E-02  0.9113237E-01
         -2   -1    0    0    0  501 -0.00000000000E+00  0.00000000000E+00  0.26965833767E+03  0.26965833769E+03  0.25500000000E-02 0. -1.
          2   -1    0    0  501    0  0.00000000000E+00 -0.00000000000E+00 -0.13340564113E+04  0.13340564113E+04  0.25500000000E-02 0.  1.
   -5000001    1    1    2    0    0 -0.67342737010E+02 -0.33095787661E+03 -0.11043778689E+04  0.11816169590E+04  0.25000000000E+03 0.  0.
    5000001    1    1    2    0    0  0.67342737010E+02  0.33095787661E+03  0.39979795297E+02  0.42209779004E+03  0.25000000000E+03 0.  0.
<mgrwt>
<rscale>  0 0.11995656E+04</rscale>
<asrwt>0</asrwt>
<pdfrwt beam="1">  1        2 0.20523944E+00 0.11995656E+04</pdfrwt>
<pdfrwt beam="2">  1       -2 0.41485899E-01 0.11995656E+04</pdfrwt>
<totfact> 0.85742990E+01</totfact>
</mgrwt>
</event>
<event>
 4    1  0.6476857E-006  0.6892744E+03  0.7818608E-02  0.9735752E-01
         -2   -1    0    0    0  501 -0.00000000000E+00  0.00000000000E+00  0.12090620084E+03  0.12090620086E+03  0.25500000000E-02 0. -1.
          2   -1    0    0  501    0  0.00000000000E+00 -0.00000000000E+00 -0.98237135899E+03  0.98237135899E+03  0.25500000000E-02 0.  1.
   -5000001    1    1    2    0    0 -0.19057643041E+03  0.14057464205E+03 -0.45303737679E+03  0.56905489242E+03  0.25000000000E+03 0.  0.
    5000001    1    1    2    0    0  0.19057643041E+03 -0.14057464205E+03 -0.40842778135E+03  0.53422266743E+03  0.25000000000E+03 0.  0.
<mgrwt>
<rscale>  0 0.68927437E+03</rscale>
<asrwt>0</asrwt>
<pdfrwt beam="1">  1        2 0.15113405E+00 0.68927437E+03</pdfrwt>
<pdfrwt beam="2">  1       -2 0.18600955E-01 0.68927437E+03</pdfrwt>
<totfact> 0.63074579E+02</totfact>
</mgrwt>
</event>
<event>
 4    1  0.6476857E-006  0.8975818E+03  0.7818608E-02  0.9428609E-01
          2   -1    0    0  501    0  0.00000000000E+00  0.00000000000E+00  0.22206384940E+04  0.22206384940E+04  0.25500000000E-02 0.  1.
         -2   -1    0    0    0  501 -0.00000000000E+00 -0.00000000000E+00 -0.90700614940E+02  0.90700614976E+02  0.25500000000E-02 0. -1.
   -5000001    1    1    2    0    0  0.20043766971E+03  0.31187395875E+03  0.96615013286E+03  0.10646063614E+04  0.25000000000E+03 0.  0.
    5000001    1    1    2    0    0 -0.20043766971E+03 -0.31187395875E+03  0.11637877462E+04  0.12467327476E+04  0.25000000000E+03 0.  0.
<mgrwt>
<rscale>  0 0.89758181E+03</rscale>
<asrwt>0</asrwt>
<pdfrwt beam="1">  1        2 0.34163663E+00 0.89758181E+03</pdfrwt>
<pdfrwt beam="2">  1       -2 0.13953943E-01 0.89758181E+03</pdfrwt>
<totfact> 0.20226766E+02</totfact>
</mgrwt>
</event>
<event>
 4    1  0.6476857E-006  0.6760027E+03  0.7818608E-02  0.9759174E-01
         -2   -1    0    0    0  501 -0.00000000000E+00  0.00000000000E+00  0.64264298857E+02  0.64264298908E+02  0.25500000000E-02 0. -1.
          2   -1    0    0  501    0  0.00000000000E+00 -0.00000000000E+00 -0.17777350647E+04  0.17777350647E+04  0.25500000000E-02 0.  1.
   -5000001    1    1    2    0    0 -0.15541787646E+03  0.16516350685E+03 -0.90480370084E+03  0.96571395215E+03  0.25000000000E+03 0.  0.
    5000001    1    1    2    0    0  0.15541787646E+03 -0.16516350685E+03 -0.80866706498E+03  0.87628541144E+03  0.25000000000E+03 0.  0.
<mgrwt>
<rscale>  0 0.67600266E+03</rscale>
<asrwt>0</asrwt>
<pdfrwt beam="1">  1        2 0.27349767E+00 0.67600266E+03</pdfrwt>
<pdfrwt beam="2">  1       -2 0.98868165E-02 0.67600266E+03</pdfrwt>
<totfact> 0.63487444E+02</totfact>
</mgrwt>
</event>
<event>
 4    1  0.6476857E-006  0.6536950E+03  0.7818608E-02  0.9799870E-01
          2   -1    0    0  501    0  0.00000000000E+00  0.00000000000E+00  0.11886260960E+04  0.11886260960E+04  0.25500000000E-02 0.  1.
         -2   -1    0    0    0  501 -0.00000000000E+00 -0.00000000000E+00 -0.89876264386E+02  0.89876264422E+02  0.25500000000E-02 0. -1.
   -5000001    1    1    2    0    0 -0.15645724702E+03  0.12344529696E+03  0.41655746928E+03  0.52510735731E+03  0.25000000000E+03 0.  0.
    5000001    1    1    2    0    0  0.15645724702E+03 -0.12344529696E+03  0.68219236231E+03  0.75339500309E+03  0.25000000000E+03 0.  0.
<mgrwt>
<rscale>  0 0.65369495E+03</rscale>
<asrwt>0</asrwt>
<pdfrwt beam="1">  1        2 0.18286556E+00 0.65369495E+03</pdfrwt>
<pdfrwt beam="2">  1       -2 0.13827117E-01 0.65369495E+03</pdfrwt>
<totfact> 0.78142852E+02</totfact>
</mgrwt>
</event>
<event>
 4    1  0.6476857E-006  0.6954207E+03  0.7818608E-02  0.9725096E-01
         -2   -1    0    0    0  501 -0.00000000000E+00  0.00000000000E+00  0.13336620338E+03  0.13336620340E+03  0.25500000000E-02 0. -1.
          2   -1    0    0  501    0  0.00000000000E+00 -0.00000000000E+00 -0.90654522461E+03  0.90654522462E+03  0.25500000000E-02 0.  1.
   -5000001    1    1    2    0    0  0.35986560075E+02 -0.22732540214E+03 -0.49678747833E+03  0.60188841955E+03  0.25000000000E+03 0.  0.
    5000001    1    1    2    0    0 -0.35986560075E+02  0.22732540214E+03 -0.27639154290E+03  0.43802300847E+03  0.25000000000E+03 0.  0.
<mgrwt>
<rscale>  0 0.69542072E+03</rscale>
<asrwt>0</asrwt>
<pdfrwt beam="1">  1        2 0.13946849E+00 0.69542072E+03</pdfrwt>
<pdfrwt beam="2">  1       -2 0.20517878E-01 0.69542072E+03</pdfrwt>
<totfact> 0.59589664E+02</totfact>
</mgrwt>
</event>
<event>
 4    1  0.6476857E-006  0.1086948E+04  0.7818608E-02  0.9218008E-01
          2   -1    0    0  501    0  0.00000000000E+00  0.00000000000E+00  0.98074391740E+03  0.98074391740E+03  0.25500000000E-02 0.  1.
         -2   -1    0    0    0  501 -0.00000000000E+00 -0.00000000000E+00 -0.30116314315E+03  0.30116314316E+03  0.25500000000E-02 0. -1.
   -5000001    1    1    2    0    0 -0.28198406773E+03  0.28623046715E+03  0.24608781116E+02  0.47386547341E+03  0.25000000000E+03 0.  0.
    5000001    1    1    2    0    0  0.28198406773E+03 -0.28623046715E+03  0.65497199313E+03  0.80804158715E+03  0.25000000000E+03 0.  0.
<mgrwt>
<rscale>  0 0.10869479E+04</rscale>
<asrwt>0</asrwt>
<pdfrwt beam="1">  1        2 0.15088368E+00 0.10869479E+04</pdfrwt>
<pdfrwt beam="2">  1       -2 0.46332790E-01 0.10869479E+04</pdfrwt>
<totfact> 0.11370821E+02</totfact>
</mgrwt>
</event>
<event>
 4    1  0.6476857E-006  0.6699348E+03  0.7818608E-02  0.9770076E-01
          2   -1    0    0  501    0  0.00000000000E+00  0.00000000000E+00  0.35333690110E+03  0.35333690111E+03  0.25500000000E-02 0.  1.
         -2   -1    0    0    0  501 -0.00000000000E+00 -0.00000000000E+00 -0.31755292133E+03  0.31755292134E+03  0.25500000000E-02 0. -1.
   -5000001    1    1    2    0    0  0.70590202624E+02  0.18854645147E+03  0.11379083214E+03  0.34055997203E+03  0.25000000000E+03 0.  0.
    5000001    1    1    2    0    0 -0.70590202624E+02 -0.18854645147E+03 -0.78006852373E+02  0.33032985043E+03  0.25000000000E+03 0.  0.
<mgrwt>
<rscale>  0 0.66993482E+03</rscale>
<asrwt>0</asrwt>
<pdfrwt beam="1">  1        2 0.54359523E-01 0.66993482E+03</pdfrwt>
<pdfrwt beam="2">  1       -2 0.48854296E-01 0.66993482E+03</pdfrwt>
<totfact> 0.36610602E+02</totfact>
</mgrwt>
</event>
<event>
 4    1  0.6476857E-006  0.7804732E+03  0.7818608E-02  0.9588719E-01
         -2   -1    0    0    0  501 -0.00000000000E+00  0.00000000000E+00  0.19563087552E+03  0.19563087554E+03  0.25500000000E-02 0. -1.
          2   -1    0    0  501    0  0.00000000000E+00 -0.00000000000E+00 -0.77842828789E+03  0.77842828789E+03  0.25500000000E-02 0.  1.
   -5000001    1    1    2    0    0  0.18929718777E+03 -0.36574964201E+02 -0.51287680817E+01  0.31574904207E+03  0.25000000000E+03 0.  0.
    5000001    1    1    2    0    0 -0.18929718777E+03  0.36574964201E+02 -0.57766864428E+03  0.65831012136E+03  0.25000000000E+03 0.  0.
<mgrwt>
<rscale>  0 0.78047321E+03</rscale>
<asrwt>0</asrwt>
<pdfrwt beam="1">  1        2 0.11975820E+00 0.78047321E+03</pdfrwt>
<pdfrwt beam="2">  1       -2 0.30097058E-01 0.78047321E+03</pdfrwt>
<totfact> 0.36579907E+02</totfact>
</mgrwt>
</event>
<event>
 4    1  0.6476857E-006  0.1492759E+04  0.7818608E-02  0.8889282E-01
          2   -1    0    0  501    0  0.00000000000E+00  0.00000000000E+00  0.14424773625E+04  0.14424773626E+04  0.25500000000E-02 0.  1.
         -2   -1    0    0    0  501 -0.00000000000E+00 -0.00000000000E+00 -0.38619839376E+03  0.38619839376E+03  0.25500000000E-02 0. -1.
   -5000001    1    1    2    0    0 -0.49028716964E+03  0.45798762135E+03  0.26986921827E+03  0.76515590895E+03  0.25000000000E+03 0.  0.
    5000001    1    1    2    0    0  0.49028716964E+03 -0.45798762135E+03  0.78640975053E+03  0.10635198474E+04  0.25000000000E+03 0.  0.
<mgrwt>
<rscale>  0 0.14927591E+04</rscale>
<asrwt>0</asrwt>
<pdfrwt beam="1">  1        2 0.22191959E+00 0.14927591E+04</pdfrwt>
<pdfrwt beam="2">  1       -2 0.59415139E-01 0.14927591E+04</pdfrwt>
<totfact> 0.34974917E+01</totfact>
</mgrwt>
</event>
<event>
 4    1  0.6476857E-006  0.1184457E+04  0.7818608E-02  0.9126571E-01
          2   -1    0    0  501    0  0.00000000000E+00  0.00000000000E+00  0.97826464444E+03  0.97826464444E+03  0.25500000000E-02 0.  1.
         -2   -1    0    0    0  501 -0.00000000000E+00 -0.00000000000E+00 -0.35852733060E+03  0.35852733061E+03  0.25500000000E-02 0. -1.
   -5000001    1    1    2    0    0  0.49734985932E+03 -0.11888525709E+02  0.53765925865E+03  0.77399980492E+03  0.25000000000E+03 0.  0.
    5000001    1    1    2    0    0 -0.49734985932E+03  0.11888525709E+02  0.82078055190E+02  0.56279217013E+03  0.25000000000E+03 0.  0.
<mgrwt>
<rscale>  0 0.11844570E+04</rscale>
<asrwt>0</asrwt>
<pdfrwt beam="1">  1        2 0.15050225E+00 0.11844570E+04</pdfrwt>
<pdfrwt beam="2">  1       -2 0.55158051E-01 0.11844570E+04</pdfrwt>
<totfact> 0.79419866E+01</totfact>
</mgrwt>
</event>
<event>
 4    1  0.6476857E-006  0.7451381E+03  0.7818608E-02  0.9643009E-01
         -2   -1    0    0    0  501 -0.00000000000E+00  0.00000000000E+00  0.11779136483E+03  0.11779136486E+03  0.25500000000E-02 0. -1.
          2   -1    0    0  501    0  0.00000000000E+00 -0.00000000000E+00 -0.11784200251E+04  0.11784200251E+04  0.25500000000E-02 0.  1.
   -5000001    1    1    2    0    0 -0.25583499722E+03 -0.91628709483E+02 -0.61659953720E+03  0.71870881133E+03  0.25000000000E+03 0.  0.
    5000001    1    1    2    0    0  0.25583499722E+03  0.91628709483E+02 -0.44402912310E+03  0.57750257867E+03  0.25000000000E+03 0.  0.
<mgrwt>
<rscale>  0 0.74513812E+03</rscale>
<asrwt>0</asrwt>
<pdfrwt beam="1">  1        2 0.18129538E+00 0.74513812E+03</pdfrwt>
<pdfrwt beam="2">  1       -2 0.18121749E-01 0.74513812E+03</pdfrwt>
<totfact> 0.49841861E+02</totfact>
</mgrwt>
</event>
<event>
 4    1  0.6476857E-006  0.7049673E+03  0.7818608E-02  0.9708775E-01
          2   -1    0    0  501    0  0.00000000000E+00  0.00000000000E+00  0.82284297354E+03  0.82284297354E+03  0.25500000000E-02 0.  1.
         -2   -1    0    0    0  501 -0.00000000000E+00 -0.00000000000E+00 -0.15099447073E+03  0.15099447075E+03  0.25500000000E-02 0. -1.
   -5000001    1    1    2    0    0 -0.24624650686E+03 -0.29017229446E+02  0.31341992990E+03  0.47139303580E+03  0.25000000000E+03 0.  0.
    5000001    1    1    2    0    0  0.24624650686E+03  0.29017229446E+02  0.35842857291E+03  0.50244440849E+03  0.25000000000E+03 0.  0.
<mgrwt>
<rscale>  0 0.70496734E+03</rscale>
<asrwt>0</asrwt>
<pdfrwt beam="1">  1        2 0.12659123E+00 0.70496734E+03</pdfrwt>
<pdfrwt beam="2">  1       -2 0.23229919E-01 0.70496734E+03</pdfrwt>
<totfact> 0.54594532E+02</totfact>
</mgrwt>
</event>
<event>
 4    1  0.6476857E-006  0.8596497E+03  0.7818608E-02  0.9477476E-01
          2   -1    0    0  501    0  0.00000000000E+00  0.00000000000E+00  0.14140823090E+04  0.14140823090E+04  0.25500000000E-02 0.  1.
         -2   -1    0    0    0  501 -0.00000000000E+00 -0.00000000000E+00 -0.13064967127E+03  0.13064967129E+03  0.25500000000E-02 0. -1.
   -5000001    1    1    2    0    0  0.10376906063E+03 -0.31659225971E+03  0.45111687006E+03  0.61400741633E+03  0.25000000000E+03 0.  0.
    5000001    1    1    2    0    0 -0.10376906063E+03  0.31659225971E+03  0.83231576766E+03  0.93072456395E+03  0.25000000000E+03 0.  0.
<mgrwt>
<rscale>  0 0.85964967E+03</rscale>
<asrwt>0</asrwt>
<pdfrwt beam="1">  1        2 0.21755114E+00 0.85964967E+03</pdfrwt>
<pdfrwt beam="2">  1       -2 0.20099948E-01 0.85964967E+03</pdfrwt>
<totfact> 0.30210614E+02</totfact>
</mgrwt>
</event>
<event>
 4    1  0.6476857E-006  0.5265202E+03  0.7818608E-02  0.1007080E+00
         -2   -1    0    0    0  501 -0.00000000000E+00  0.00000000000E+00  0.39589213882E+02  0.39589213964E+02  0.25500000000E-02 0. -1.
          2   -1    0    0  501    0  0.00000000000E+00 -0.00000000000E+00 -0.17506251600E+04  0.17506251600E+04  0.25500000000E-02 0.  1.
   -5000001    1    1    2    0    0 -0.14929540468E+02 -0.78227356441E+02 -0.78232021411E+03  0.82514685232E+03  0.25000000000E+03 0.  0.
    5000001    1    1    2    0    0  0.14929540468E+02  0.78227356441E+02 -0.92871573201E+03  0.96506752166E+03  0.25000000000E+03 0.  0.
<mgrwt>
<rscale>  0 0.52652018E+03</rscale>
<asrwt>0</asrwt>
<pdfrwt beam="1">  1        2 0.26932689E+00 0.52652018E+03</pdfrwt>
<pdfrwt beam="2">  1       -2 0.60906497E-02 0.52652018E+03</pdfrwt>
<totfact> 0.14320792E+03</totfact>
</mgrwt>
</event>
<event>
 4    1  0.6476857E-006  0.9206326E+03  0.7818608E-02  0.9400151E-01
         -2   -1    0    0    0  501 -0.00000000000E+00  0.00000000000E+00  0.11562383583E+03  0.11562383586E+03  0.25500000000E-02 0. -1.
          2   -1    0    0  501    0  0.00000000000E+00 -0.00000000000E+00 -0.18325902108E+04  0.18325902108E+04  0.25500000000E-02 0.  1.
   -5000001    1    1    2    0    0 -0.17733544240E+02  0.37367647576E+03 -0.10641169031E+04  0.11553325801E+04  0.25000000000E+03 0.  0.
    5000001    1    1    2    0    0  0.17733544240E+02 -0.37367647576E+03 -0.65284947188E+03  0.79288146659E+03  0.25000000000E+03 0.  0.
<mgrwt>
<rscale>  0 0.92063263E+03</rscale>
<asrwt>0</asrwt>
<pdfrwt beam="1">  1        2 0.28193693E+00 0.92063263E+03</pdfrwt>
<pdfrwt beam="2">  1       -2 0.17788284E-01 0.92063263E+03</pdfrwt>
<totfact> 0.21819871E+02</totfact>
</mgrwt>
</event>
<event>
 4    1  0.6476857E-006  0.6618247E+03  0.7818608E-02  0.9784840E-01
         -2   -1    0    0    0  501 -0.00000000000E+00  0.00000000000E+00  0.31478583336E+03  0.31478583337E+03  0.25500000000E-02 0. -1.
          2   -1    0    0  501    0  0.00000000000E+00 -0.00000000000E+00 -0.34786505875E+03  0.34786505876E+03  0.25500000000E-02 0.  1.
   -5000001    1    1    2    0    0 -0.18488468378E+03 -0.10161833829E+03  0.33466295159E+02  0.32882917432E+03  0.25000000000E+03 0.  0.
    5000001    1    1    2    0    0  0.18488468378E+03  0.10161833829E+03 -0.66545520552E+02  0.33382171781E+03  0.25000000000E+03 0.  0.
<mgrwt>
<rscale>  0 0.66182473E+03</rscale>
<asrwt>0</asrwt>
<pdfrwt beam="1">  1        2 0.53517701E-01 0.66182473E+03</pdfrwt>
<pdfrwt beam="2">  1       -2 0.48428590E-01 0.66182473E+03</pdfrwt>
<totfact> 0.37924427E+02</totfact>
</mgrwt>
</event>
<event>
 4    1  0.6476857E-006  0.6145575E+03  0.7818608E-02  0.9875656E-01
         -2   -1    0    0    0  501 -0.00000000000E+00  0.00000000000E+00  0.36720530014E+02  0.36720530103E+02  0.25500000000E-02 0.  1.
          2   -1    0    0  501    0  0.00000000000E+00 -0.00000000000E+00 -0.25713200419E+04  0.25713200419E+04  0.25500000000E-02 0. -1.
   -5000001    1    1    2    0    0  0.65889832765E+02 -0.11160835373E+03 -0.17891685296E+04  0.18111935076E+04  0.25000000000E+03 0.  0.
    5000001    1    1    2    0    0 -0.65889832765E+02  0.11160835373E+03 -0.74543098225E+03  0.79684706437E+03  0.25000000000E+03 0.  0.
<mgrwt>
<rscale>  0 0.61455752E+03</rscale>
<asrwt>0</asrwt>
<pdfrwt beam="1">  1        2 0.39558756E+00 0.61455752E+03</pdfrwt>
<pdfrwt beam="2">  1       -2 0.56493143E-02 0.61455752E+03</pdfrwt>
<totfact> 0.56830677E+02</totfact>
</mgrwt>
</event>
<event>
 4    1  0.6476857E-006  0.9082209E+03  0.7818608E-02  0.9415363E-01
         -2   -1    0    0    0  501 -0.00000000000E+00  0.00000000000E+00  0.13086011910E+03  0.13086011912E+03  0.25500000000E-02 0. -1.
          2   -1    0    0  501    0  0.00000000000E+00 -0.00000000000E+00 -0.15758530562E+04  0.15758530562E+04  0.25500000000E-02 0.  1.
   -5000001    1    1    2    0    0  0.61664068355E+02 -0.37035609873E+03 -0.62394732316E+03  0.76991970962E+03  0.25000000000E+03 0.  0.
    5000001    1    1    2    0    0 -0.61664068355E+02  0.37035609873E+03 -0.82104561391E+03  0.93679346566E+03  0.25000000000E+03 0.  0.
<mgrwt>
<rscale>  0 0.90822094E+03</rscale>
<asrwt>0</asrwt>
<pdfrwt beam="1">  1        2 0.24243892E+00 0.90822094E+03</pdfrwt>
<pdfrwt beam="2">  1       -2 0.20132327E-01 0.90822094E+03</pdfrwt>
<totfact> 0.24378330E+02</totfact>
</mgrwt>
</event>
<event>
 4    1  0.6476857E-006  0.9513271E+03  0.7818608E-02  0.9363601E-01
         -2   -1    0    0    0  501 -0.00000000000E+00  0.00000000000E+00  0.11018730268E+03  0.11018730271E+03  0.25500000000E-02 0. -1.
          2   -1    0    0  501    0  0.00000000000E+00 -0.00000000000E+00 -0.20533745351E+04  0.20533745351E+04  0.25500000000E-02 0.  1.
   -5000001    1    1    2    0    0  0.11434533661E+02  0.28244307792E+03 -0.31303645580E+03  0.49030262439E+03  0.25000000000E+03 0.  0.
    5000001    1    1    2    0    0 -0.11434533661E+02 -0.28244307792E+03 -0.16301507766E+04  0.16732592134E+04  0.25000000000E+03 0.  0.
<mgrwt>
<rscale>  0 0.95132708E+03</rscale>
<asrwt>0</asrwt>
<pdfrwt beam="1">  1        2 0.31590374E+00 0.95132708E+03</pdfrwt>
<pdfrwt beam="2">  1       -2 0.16951894E-01 0.95132708E+03</pdfrwt>
<totfact> 0.17894922E+02</totfact>
</mgrwt>
</event>
<event>
 4    1  0.6476857E-006  0.9958059E+03  0.7818608E-02  0.9313157E-01
         -2   -1    0    0    0  501 -0.00000000000E+00  0.00000000000E+00  0.13517879000E+03  0.13517879002E+03  0.25500000000E-02 0. -1.
          2   -1    0    0  501    0  0.00000000000E+00 -0.00000000000E+00 -0.18339220090E+04  0.18339220090E+04  0.25500000000E-02 0.  1.
   -5000001    1    1    2    0    0  0.32184146147E+03 -0.19060217265E+03 -0.42759643434E+03  0.62068496454E+03  0.25000000000E+03 0.  0.
    5000001    1    1    2    0    0 -0.32184146147E+03  0.19060217265E+03 -0.12711467846E+04  0.13484158344E+04  0.25000000000E+03 0.  0.
<mgrwt>
<rscale>  0 0.99580592E+03</rscale>
<asrwt>0</asrwt>
<pdfrwt beam="1">  1        2 0.28214183E+00 0.99580592E+03</pdfrwt>
<pdfrwt beam="2">  1       -2 0.20796738E-01 0.99580592E+03</pdfrwt>
<totfact> 0.16491413E+02</totfact>
</mgrwt>
</event>
<event>
 4    1  0.6476857E-006  0.9012911E+03  0.7818608E-02  0.9423969E-01
         -2   -1    0    0    0  501 -0.00000000000E+00  0.00000000000E+00  0.38024987135E+03  0.38024987136E+03  0.25500000000E-02 0. -1.
          2   -1    0    0  501    0  0.00000000000E+00 -0.00000000000E+00 -0.53407357733E+03  0.53407357733E+03  0.25500000000E-02 0.  1.
   -5000001    1    1    2    0    0  0.31095410321E+03  0.17007016245E+03 -0.20101263314E+03  0.47804015850E+03  0.25000000000E+03 0.  0.
    5000001    1    1    2    0    0 -0.31095410321E+03 -0.17007016245E+03  0.47188927164E+02  0.43628329020E+03  0.25000000000E+03 0.  0.
<mgrwt>
<rscale>  0 0.90129109E+03</rscale>
<asrwt>0</asrwt>
<pdfrwt beam="1">  1        2 0.82165166E-01 0.90129109E+03</pdfrwt>
<pdfrwt beam="2">  1       -2 0.58499980E-01 0.90129109E+03</pdfrwt>
<totfact> 0.15632005E+02</totfact>
</mgrwt>
</event>
<event>
 4    1  0.6476857E-006  0.7581799E+03  0.7818608E-02  0.9622604E-01
         -2   -1    0    0    0  501 -0.00000000000E+00  0.00000000000E+00  0.27411353541E+03  0.27411353542E+03  0.25500000000E-02 0. -1.
          2   -1    0    0  501    0  0.00000000000E+00 -0.00000000000E+00 -0.52426886483E+03  0.52426886483E+03  0.25500000000E-02 0.  1.
   -5000001    1    1    2    0    0 -0.25462754029E+03 -0.22956136040E+02 -0.25763767754E+03  0.44072592542E+03  0.25000000000E+03 0.  0.
    5000001    1    1    2    0    0  0.25462754029E+03  0.22956136040E+02  0.74823481137E+01  0.35765647483E+03  0.25000000000E+03 0.  0.
<mgrwt>
<rscale>  0 0.75817990E+03</rscale>
<asrwt>0</asrwt>
<pdfrwt beam="1">  1        2 0.80656748E-01 0.75817990E+03</pdfrwt>
<pdfrwt beam="2">  1       -2 0.42171313E-01 0.75817990E+03</pdfrwt>
<totfact> 0.31275197E+02</totfact>
</mgrwt>
</event>
<event>
 4    1  0.6476857E-006  0.8214688E+03  0.7818608E-02  0.9529451E-01
         -2   -1    0    0    0  501 -0.00000000000E+00  0.00000000000E+00  0.20625339598E+03  0.20625339599E+03  0.25500000000E-02 0. -1.
          2   -1    0    0  501    0  0.00000000000E+00 -0.00000000000E+00 -0.81793917693E+03  0.81793917694E+03  0.25500000000E-02 0.  1.
   -5000001    1    1    2    0    0  0.18941202226E+03  0.68231234809E+02  0.13660245371E+02  0.32127716677E+03  0.25000000000E+03 0.  0.
    5000001    1    1    2    0    0 -0.18941202226E+03 -0.68231234809E+02 -0.62534602633E+03  0.70291540616E+03  0.25000000000E+03 0.  0.
<mgrwt>
<rscale>  0 0.82146876E+03</rscale>
<asrwt>0</asrwt>
<pdfrwt beam="1">  1        2 0.12583679E+00 0.82146876E+03</pdfrwt>
<pdfrwt beam="2">  1       -2 0.31731292E-01 0.82146876E+03</pdfrwt>
<totfact> 0.30984820E+02</totfact>
</mgrwt>
</event>
<event>
 4    1  0.6476857E-006  0.9060647E+03  0.7818608E-02  0.9418032E-01
         -2   -1    0    0    0  501 -0.00000000000E+00  0.00000000000E+00  0.78858535810E+02  0.78858535851E+02  0.25500000000E-02 0. -1.
          2   -1    0    0  501    0  0.00000000000E+00 -0.00000000000E+00 -0.26026137969E+04  0.26026137969E+04  0.25500000000E-02 0.  1.
   -5000001    1    1    2    0    0  0.23707022111E+03 -0.17922189871E+03 -0.57151773172E+03  0.69098140090E+03  0.25000000000E+03 0.  0.
    5000001    1    1    2    0    0 -0.23707022111E+03  0.17922189871E+03 -0.19522375294E+04  0.19904909319E+04  0.25000000000E+03 0.  0.
<mgrwt>
<rscale>  0 0.90606471E+03</rscale>
<asrwt>0</asrwt>
<pdfrwt beam="1">  1        2 0.40040206E+00 0.90606471E+03</pdfrwt>
<pdfrwt beam="2">  1       -2 0.12132084E-01 0.90606471E+03</pdfrwt>
<totfact> 0.15536702E+02</totfact>
</mgrwt>
</event>
<event>
 4    1  0.6476857E-006  0.6116694E+03  0.7818608E-02  0.9881487E-01
          2   -1    0    0  501    0  0.00000000000E+00  0.00000000000E+00  0.12737273534E+04  0.12737273534E+04  0.25500000000E-02 0. -1.
         -2   -1    0    0    0  501 -0.00000000000E+00 -0.00000000000E+00 -0.73433985031E+02  0.73433985075E+02  0.25500000000E-02 0.  1.
   -5000001    1    1    2    0    0  0.16980791747E+03 -0.94505410425E+01  0.70133488084E+03  0.76373729557E+03  0.25000000000E+03 0.  0.
    5000001    1    1    2    0    0 -0.16980791747E+03  0.94505410425E+01  0.49895848749E+03  0.58342404287E+03  0.25000000000E+03 0.  0.
<mgrwt>
<rscale>  0 0.61166944E+03</rscale>
<asrwt>0</asrwt>
<pdfrwt beam="1">  1        2 0.19595805E+00 0.61166944E+03</pdfrwt>
<pdfrwt beam="2">  1       -2 0.11297537E-01 0.61166944E+03</pdfrwt>
<totfact> 0.97550784E+02</totfact>
</mgrwt>
</event>
<event>
 4    1  0.6476857E-006  0.7909997E+03  0.7818608E-02  0.9573137E-01
         -2   -1    0    0    0  501 -0.00000000000E+00  0.00000000000E+00  0.16187279055E+03  0.16187279057E+03  0.25500000000E-02 0. -1.
          2   -1    0    0  501    0  0.00000000000E+00 -0.00000000000E+00 -0.96631514898E+03  0.96631514898E+03  0.25500000000E-02 0.  1.
   -5000001    1    1    2    0    0 -0.25109942198E+03  0.17556713808E+03 -0.41183033910E+03  0.57094567858E+03  0.25000000000E+03 0.  0.
    5000001    1    1    2    0    0  0.25109942198E+03 -0.17556713808E+03 -0.39261201932E+03  0.55724226097E+03  0.25000000000E+03 0.  0.
<mgrwt>
<rscale>  0 0.79099970E+03</rscale>
<asrwt>0</asrwt>
<pdfrwt beam="1">  1        2 0.14866387E+00 0.79099970E+03</pdfrwt>
<pdfrwt beam="2">  1       -2 0.24903507E-01 0.79099970E+03</pdfrwt>
<totfact> 0.38419078E+02</totfact>
</mgrwt>
</event>
<event>
 4    1  0.6476857E-006  0.6511350E+03  0.7818608E-02  0.9804652E-01
         -2   -1    0    0    0  501 -0.00000000000E+00  0.00000000000E+00  0.22374744337E+03  0.22374744338E+03  0.25500000000E-02 0. -1.
          2   -1    0    0  501    0  0.00000000000E+00 -0.00000000000E+00 -0.47372251313E+03  0.47372251314E+03  0.25500000000E-02 0.  1.
   -5000001    1    1    2    0    0 -0.95995308239E+02 -0.11254449360E+03 -0.28246208088E+03  0.40517427038E+03  0.25000000000E+03 0.  0.
    5000001    1    1    2    0    0  0.95995308239E+02  0.11254449360E+03  0.32487011116E+02  0.29229568614E+03  0.25000000000E+03 0.  0.
<mgrwt>
<rscale>  0 0.65113501E+03</rscale>
<asrwt>0</asrwt>
<pdfrwt beam="1">  1        2 0.72880386E-01 0.65113501E+03</pdfrwt>
<pdfrwt beam="2">  1       -2 0.34422684E-01 0.65113501E+03</pdfrwt>
<totfact> 0.52211623E+02</totfact>
</mgrwt>
</event>
<event>
 4    1  0.6476857E-006  0.6980335E+03  0.7818608E-02  0.9720601E-01
         -2   -1    0    0    0  501 -0.00000000000E+00  0.00000000000E+00  0.73055748032E+02  0.73055748077E+02  0.25500000000E-02 0.  1.
          2   -1    0    0  501    0  0.00000000000E+00 -0.00000000000E+00 -0.16673934864E+04  0.16673934864E+04  0.25500000000E-02 0. -1.
   -5000001    1    1    2    0    0  0.22934913943E+02 -0.23311127517E+03 -0.96341829553E+03  0.10225173295E+04  0.25000000000E+03 0.  0.
    5000001    1    1    2    0    0 -0.22934913943E+02  0.23311127517E+03 -0.63091944284E+03  0.71793190501E+03  0.25000000000E+03 0.  0.
<mgrwt>
<rscale>  0 0.69803346E+03</rscale>
<asrwt>0</asrwt>
<pdfrwt beam="1">  1        2 0.25652205E+00 0.69803346E+03</pdfrwt>
<pdfrwt beam="2">  1       -2 0.11239347E-01 0.69803346E+03</pdfrwt>
<totfact> 0.59065141E+02</totfact>
</mgrwt>
</event>
<event>
 4    1  0.6476857E-006  0.6873036E+03  0.7818608E-02  0.9739194E-01
          2   -1    0    0  501    0  0.00000000000E+00  0.00000000000E+00  0.11070981469E+04  0.11070981469E+04  0.25500000000E-02 0.  1.
         -2   -1    0    0    0  501 -0.00000000000E+00 -0.00000000000E+00 -0.10667217756E+03  0.10667217760E+03  0.25500000000E-02 0. -1.
   -5000001    1    1    2    0    0 -0.22060504894E+03 -0.78306685220E+02  0.45032433829E+03  0.56576544099E+03  0.25000000000E+03 0.  0.
    5000001    1    1    2    0    0  0.22060504894E+03  0.78306685220E+02  0.55010163105E+03  0.64800488351E+03  0.25000000000E+03 0.  0.
<mgrwt>
<rscale>  0 0.68730363E+03</rscale>
<asrwt>0</asrwt>
<pdfrwt beam="1">  1        2 0.17032280E+00 0.68730363E+03</pdfrwt>
<pdfrwt beam="2">  1       -2 0.16411103E-01 0.68730363E+03</pdfrwt>
<totfact> 0.65388566E+02</totfact>
</mgrwt>
</event>
<event>
 4    1  0.6476857E-006  0.1002212E+04  0.7818608E-02  0.9306122E-01
         -2   -1    0    0    0  501 -0.00000000000E+00  0.00000000000E+00  0.15667353847E+03  0.15667353849E+03  0.25500000000E-02 0. -1.
          2   -1    0    0  501    0  0.00000000000E+00 -0.00000000000E+00 -0.16027422951E+04  0.16027422951E+04  0.25500000000E-02 0.  1.
   -5000001    1    1    2    0    0  0.20994500751E+03 -0.28461007051E+03 -0.28055836147E+03  0.51603565052E+03  0.25000000000E+03 0.  0.
    5000001    1    1    2    0    0 -0.20994500751E+03  0.28461007051E+03 -0.11655103951E+04  0.12433801830E+04  0.25000000000E+03 0.  0.
<mgrwt>
<rscale>  0 0.10022122E+04</rscale>
<asrwt>0</asrwt>
<pdfrwt beam="1">  1        2 0.24657573E+00 0.10022122E+04</pdfrwt>
<pdfrwt beam="2">  1       -2 0.24103622E-01 0.10022122E+04</pdfrwt>
<totfact> 0.16997734E+02</totfact>
</mgrwt>
</event>
<event>
 4    1  0.6476857E-006  0.6617505E+03  0.7818608E-02  0.9784977E-01
          2   -1    0    0  501    0  0.00000000000E+00  0.00000000000E+00  0.38119947434E+03  0.38119947435E+03  0.25500000000E-02 0.  1.
         -2   -1    0    0    0  501 -0.00000000000E+00 -0.00000000000E+00 -0.28719459794E+03  0.28719459796E+03  0.25500000000E-02 0. -1.
   -5000001    1    1    2    0    0 -0.13784662852E+03  0.13422686526E+03 -0.53798711466E+02  0.32002007078E+03  0.25000000000E+03 0.  0.
    5000001    1    1    2    0    0  0.13784662852E+03 -0.13422686526E+03  0.14780358786E+03  0.34837400152E+03  0.25000000000E+03 0.  0.
<mgrwt>
<rscale>  0 0.66175050E+03</rscale>
<asrwt>0</asrwt>
<pdfrwt beam="1">  1        2 0.58646073E-01 0.66175050E+03</pdfrwt>
<pdfrwt beam="2">  1       -2 0.44183785E-01 0.66175050E+03</pdfrwt>
<totfact> 0.41141285E+02</totfact>
</mgrwt>
</event>
<event>
 4    1  0.6476857E-006  0.9338726E+03  0.7818608E-02  0.9384202E-01
          2   -1    0    0  501    0  0.00000000000E+00  0.00000000000E+00  0.26128509547E+04  0.26128509547E+04  0.25500000000E-02 0.  1.
         -2   -1    0    0    0  501 -0.00000000000E+00 -0.00000000000E+00 -0.83445060236E+02  0.83445060275E+02  0.25500000000E-02 0. -1.
   -5000001    1    1    2    0    0  0.12565935341E+03  0.15887217585E+03  0.22416713734E+04  0.22646459298E+04  0.25000000000E+03 0.  0.
    5000001    1    1    2    0    0 -0.12565935341E+03 -0.15887217585E+03  0.28773452106E+03  0.43165008511E+03  0.25000000000E+03 0.  0.
<mgrwt>
<rscale>  0 0.93387259E+03</rscale>
<asrwt>0</asrwt>
<pdfrwt beam="1">  1        2 0.40197704E+00 0.93387259E+03</pdfrwt>
<pdfrwt beam="2">  1       -2 0.12837703E-01 0.93387259E+03</pdfrwt>
<totfact> 0.13914172E+02</totfact>
</mgrwt>
</event>
<event>
 4    1  0.6476857E-006  0.5810053E+03  0.7818608E-02  0.9945617E-01
         -2   -1    0    0    0  501 -0.00000000000E+00  0.00000000000E+00  0.22957250000E+03  0.22957250001E+03  0.25500000000E-02 0. -1.
          2   -1    0    0  501    0  0.00000000000E+00 -0.00000000000E+00 -0.36760413624E+03  0.36760413625E+03  0.25500000000E-02 0.  1.
   -5000001    1    1    2    0    0 -0.12804589892E+03 -0.29486432994E+02  0.89648310864E+00  0.28242876207E+03  0.25000000000E+03 0.  0.
    5000001    1    1    2    0    0  0.12804589892E+03  0.29486432994E+02 -0.13892811936E+03  0.31474787419E+03  0.25000000000E+03 0.  0.
<mgrwt>
<rscale>  0 0.58100534E+03</rscale>
<asrwt>0</asrwt>
<pdfrwt beam="1">  1        2 0.56554483E-01 0.58100534E+03</pdfrwt>
<pdfrwt beam="2">  1       -2 0.35318846E-01 0.58100534E+03</pdfrwt>
<totfact> 0.66247665E+02</totfact>
</mgrwt>
</event>
<event>
 4    1  0.6476857E-006  0.1203621E+04  0.7818608E-02  0.9109693E-01
         -2   -1    0    0    0  501 -0.00000000000E+00  0.00000000000E+00  0.10353588696E+03  0.10353588700E+03  0.25500000000E-02 0. -1.
          2   -1    0    0  501    0  0.00000000000E+00 -0.00000000000E+00 -0.34980699122E+04  0.34980699122E+04  0.25500000000E-02 0.  1.
   -5000001    1    1    2    0    0  0.50067054507E+02  0.53884266112E+03 -0.19443391442E+04  0.20336697940E+04  0.25000000000E+03 0.  0.
    5000001    1    1    2    0    0 -0.50067054507E+02 -0.53884266112E+03 -0.14501948811E+04  0.15679360052E+04  0.25000000000E+03 0.  0.
<mgrwt>
<rscale>  0 0.12036208E+04</rscale>
<asrwt>0</asrwt>
<pdfrwt beam="1">  1        2 0.53816451E+00 0.12036208E+04</pdfrwt>
<pdfrwt beam="2">  1       -2 0.15928601E-01 0.12036208E+04</pdfrwt>
<totfact> 0.26166029E+01</totfact>
</mgrwt>
</event>
<event>
 4    1  0.6476857E-006  0.5764529E+03  0.7818608E-02  0.9955500E-01
          2   -1    0    0  501    0  0.00000000000E+00  0.00000000000E+00  0.11376639873E+04  0.11376639873E+04  0.25500000000E-02 0.  1.
         -2   -1    0    0    0  501 -0.00000000000E+00 -0.00000000000E+00 -0.73021988055E+02  0.73021988100E+02  0.25500000000E-02 0. -1.
   -5000001    1    1    2    0    0 -0.65811224315E+02 -0.11084066481E+03  0.66444751818E+03  0.72153120143E+03  0.25000000000E+03 0.  0.
    5000001    1    1    2    0    0  0.65811224315E+02  0.11084066481E+03  0.40019448104E+03  0.48915477395E+03  0.25000000000E+03 0.  0.
<mgrwt>
<rscale>  0 0.57645290E+03</rscale>
<asrwt>0</asrwt>
<pdfrwt beam="1">  1        2 0.17502521E+00 0.57645290E+03</pdfrwt>
<pdfrwt beam="2">  1       -2 0.11234153E-01 0.57645290E+03</pdfrwt>
<totfact> 0.11844839E+03</totfact>
</mgrwt>
</event>
<event>
 4    1  0.6476857E-006  0.7919895E+03  0.7818608E-02  0.9571685E-01
          2   -1    0    0  501    0  0.00000000000E+00  0.00000000000E+00  0.19109799518E+04  0.19109799518E+04  0.25500000000E-02 0.  1.
         -2   -1    0    0    0  501 -0.00000000000E+00 -0.00000000000E+00 -0.82058330505E+02  0.82058330545E+02  0.25500000000E-02 0. -1.
   -5000001    1    1    2    0    0  0.14667384477E+03 -0.26981214911E+03  0.91473609204E+03  0.99677175453E+03  0.25000000000E+03 0.  0.
    5000001    1    1    2    0    0 -0.14667384477E+03  0.26981214911E+03  0.91418552922E+03  0.99626652778E+03  0.25000000000E+03 0.  0.
<mgrwt>
<rscale>  0 0.79198946E+03</rscale>
<asrwt>0</asrwt>
<pdfrwt beam="1">  1        2 0.29399690E+00 0.79198946E+03</pdfrwt>
<pdfrwt beam="2">  1       -2 0.12624359E-01 0.79198946E+03</pdfrwt>
<totfact> 0.35673790E+02</totfact>
</mgrwt>
</event>
<event>
 4    1  0.6476857E-006  0.1220157E+04  0.7818608E-02  0.9095394E-01
          2   -1    0    0  501    0  0.00000000000E+00  0.00000000000E+00  0.24293868373E+04  0.24293868374E+04  0.25500000000E-02 0.  1.
         -2   -1    0    0    0  501 -0.00000000000E+00 -0.00000000000E+00 -0.15320558510E+03  0.15320558512E+03  0.25500000000E-02 0. -1.
   -5000001    1    1    2    0    0 -0.50346406652E+02 -0.53780359494E+03  0.85468520406E+03  0.10415153698E+04  0.25000000000E+03 0.  0.
    5000001    1    1    2    0    0  0.50346406652E+02  0.53780359494E+03  0.14214960482E+04  0.15410770527E+04  0.25000000000E+03 0.  0.
<mgrwt>
<rscale>  0 0.12201568E+04</rscale>
<asrwt>0</asrwt>
<pdfrwt beam="1">  1        2 0.37375179E+00 0.12201568E+04</pdfrwt>
<pdfrwt beam="2">  1       -2 0.23570092E-01 0.12201568E+04</pdfrwt>
<totfact> 0.60445679E+01</totfact>
</mgrwt>
</event>
<event>
 4    1  0.6476857E-006  0.7338322E+03  0.7818608E-02  0.9661062E-01
         -2   -1    0    0    0  501 -0.00000000000E+00  0.00000000000E+00  0.24209658126E+03  0.24209658128E+03  0.25500000000E-02 0. -1.
          2   -1    0    0  501    0  0.00000000000E+00 -0.00000000000E+00 -0.55608977892E+03  0.55608977893E+03  0.25500000000E-02 0.  1.
   -5000001    1    1    2    0    0 -0.22586303892E+03  0.21848076599E+02 -0.31324662843E+03  0.46055933497E+03  0.25000000000E+03 0.  0.
    5000001    1    1    2    0    0  0.22586303892E+03 -0.21848076599E+02 -0.74656922312E+00  0.33762702523E+03  0.25000000000E+03 0.  0.
<mgrwt>
<rscale>  0 0.73383223E+03</rscale>
<asrwt>0</asrwt>
<pdfrwt beam="1">  1        2 0.85552273E-01 0.73383223E+03</pdfrwt>
<pdfrwt beam="2">  1       -2 0.37245628E-01 0.73383223E+03</pdfrwt>
<totfact> 0.37187332E+02</totfact>
</mgrwt>
</event>
<event>
 4    1  0.6476857E-006  0.6657928E+03  0.7818608E-02  0.9777588E-01
         -2   -1    0    0    0  501 -0.00000000000E+00  0.00000000000E+00  0.21058805397E+03  0.21058805399E+03  0.25500000000E-02 0. -1.
          2   -1    0    0  501    0  0.00000000000E+00 -0.00000000000E+00 -0.52624066495E+03  0.52624066495E+03  0.25500000000E-02 0.  1.
   -5000001    1    1    2    0    0  0.17072244715E+03 -0.13764441019E+03 -0.17453188218E+03  0.37557091942E+03  0.25000000000E+03 0.  0.
    5000001    1    1    2    0    0 -0.17072244715E+03  0.13764441019E+03 -0.14112072879E+03  0.36125779952E+03  0.25000000000E+03 0.  0.
<mgrwt>
<rscale>  0 0.66579275E+03</rscale>
<asrwt>0</asrwt>
<pdfrwt beam="1">  1        2 0.80960102E-01 0.66579275E+03</pdfrwt>
<pdfrwt beam="2">  1       -2 0.32398162E-01 0.66579275E+03</pdfrwt>
<totfact> 0.51811832E+02</totfact>
</mgrwt>
</event>
<event>
 4    1  0.6476857E-006  0.5499957E+03  0.7818608E-02  0.1001495E+00
          2   -1    0    0  501    0  0.00000000000E+00  0.00000000000E+00  0.19016368521E+04  0.19016368521E+04  0.25500000000E-02 0.  1.
         -2   -1    0    0    0  501 -0.00000000000E+00 -0.00000000000E+00 -0.39767750552E+02  0.39767750634E+02  0.25500000000E-02 0. -1.
   -5000001    1    1    2    0    0  0.11242265613E+03 -0.88658584026E+01  0.85977817319E+03  0.90246105963E+03  0.25000000000E+03 0.  0.
    5000001    1    1    2    0    0 -0.11242265613E+03  0.88658584026E+01  0.10020909283E+04  0.10389435431E+04  0.25000000000E+03 0.  0.
<mgrwt>
<rscale>  0 0.54999571E+03</rscale>
<asrwt>0</asrwt>
<pdfrwt beam="1">  1        2 0.29255937E+00 0.54999571E+03</pdfrwt>
<pdfrwt beam="2">  1       -2 0.61181185E-02 0.54999571E+03</pdfrwt>
<totfact> 0.11775143E+03</totfact>
</mgrwt>
</event>
<event>
 4    1  0.6476857E-006  0.6524554E+03  0.7818608E-02  0.9802183E-01
          2   -1    0    0  501    0  0.00000000000E+00  0.00000000000E+00  0.46670534535E+02  0.46670534604E+02  0.25500000000E-02 0. -1.
         -2   -1    0    0    0  501 -0.00000000000E+00 -0.00000000000E+00 -0.22803365899E+04  0.22803365899E+04  0.25500000000E-02 0.  1.
   -5000001    1    1    2    0    0  0.15430417761E+03  0.30296722116E+02 -0.16109865748E+04  0.16378355884E+04  0.25000000000E+03 0.  0.
    5000001    1    1    2    0    0 -0.15430417761E+03 -0.30296722116E+02 -0.62267948059E+03  0.68917153608E+03  0.25000000000E+03 0.  0.
<mgrwt>
<rscale>  0 0.65245545E+03</rscale>
<asrwt>0</asrwt>
<pdfrwt beam="1">  1        2 0.71800840E-02 0.65245545E+03</pdfrwt>
<pdfrwt beam="2">  1       -2 0.35082093E+00 0.65245545E+03</pdfrwt>
<totfact> 0.16737810E+01</totfact>
</mgrwt>
</event>
<event>
 4    1  0.6476857E-006  0.1936245E+04  0.7818608E-02  0.8637022E-01
         -2   -1    0    0    0  501 -0.00000000000E+00  0.00000000000E+00  0.40604837905E+03  0.40604837906E+03  0.25500000000E-02 0. -1.
          2   -1    0    0  501    0  0.00000000000E+00 -0.00000000000E+00 -0.23082498016E+04  0.23082498016E+04  0.25500000000E-02 0.  1.
   -5000001    1    1    2    0    0 -0.57072168479E+03 -0.56630751749E+02  0.84580953547E+02  0.63133526849E+03  0.25000000000E+03 0.  0.
    5000001    1    1    2    0    0  0.57072168479E+03  0.56630751749E+02 -0.19867823761E+04  0.20829629122E+04  0.25000000000E+03 0.  0.
<mgrwt>
<rscale>  0 0.19362449E+04</rscale>
<asrwt>0</asrwt>
<pdfrwt beam="1">  1        2 0.35511535E+00 0.19362449E+04</pdfrwt>
<pdfrwt beam="2">  1       -2 0.62468983E-01 0.19362449E+04</pdfrwt>
<totfact> 0.99588234E+00</totfact>
</mgrwt>
</event>
<event>
 4    1  0.6476857E-006  0.1332415E+04  0.7818608E-02  0.9004248E-01
         -2   -1    0    0    0  501 -0.00000000000E+00  0.00000000000E+00  0.28918493670E+03  0.28918493671E+03  0.25500000000E-02 0.  1.
          2   -1    0    0  501    0  0.00000000000E+00 -0.00000000000E+00 -0.15347700316E+04  0.15347700316E+04  0.25500000000E-02 0. -1.
   -5000001    1    1    2    0    0 -0.34181226181E+03 -0.27148112822E+03 -0.12207328631E+04  0.13203129737E+04  0.25000000000E+03 0.  0.
    5000001    1    1    2    0    0  0.34181226181E+03  0.27148112822E+03 -0.24852231732E+02  0.50364199460E+03  0.25000000000E+03 0.  0.
<mgrwt>
<rscale>  0 0.13324149E+04</rscale>
<asrwt>0</asrwt>
<pdfrwt beam="1">  1        2 0.23611846E+00 0.13324149E+04</pdfrwt>
<pdfrwt beam="2">  1       -2 0.44489991E-01 0.13324149E+04</pdfrwt>
<totfact> 0.56834978E+01</totfact>
</mgrwt>
</event>
<event>
 4    1  0.6476857E-006  0.7582338E+03  0.7818608E-02  0.9622521E-01
         -2   -1    0    0    0  501 -0.00000000000E+00  0.00000000000E+00  0.14531188360E+03  0.14531188362E+03  0.25500000000E-02 0. -1.
          2   -1    0    0  501    0  0.00000000000E+00 -0.00000000000E+00 -0.98911140415E+03  0.98911140416E+03  0.25500000000E-02 0.  1.
   -5000001    1    1    2    0    0  0.12413341160E+03  0.24352818330E+03 -0.54265738294E+03  0.65703281135E+03  0.25000000000E+03 0.  0.
    5000001    1    1    2    0    0 -0.12413341160E+03 -0.24352818330E+03 -0.30114213761E+03  0.47739047643E+03  0.25000000000E+03 0.  0.
<mgrwt>
<rscale>  0 0.75823385E+03</rscale>
<asrwt>0</asrwt>
<pdfrwt beam="1">  1        2 0.15217098E+00 0.75823385E+03</pdfrwt>
<pdfrwt beam="2">  1       -2 0.22355675E-01 0.75823385E+03</pdfrwt>
<totfact> 0.45116945E+02</totfact>
</mgrwt>
</event>
<event>
 4    1  0.6476857E-006  0.6871632E+03  0.7818608E-02  0.9739440E-01
          2   -1    0    0  501    0  0.00000000000E+00  0.00000000000E+00  0.62391452046E+03  0.62391452046E+03  0.25500000000E-02 0.  1.
         -2   -1    0    0    0  501 -0.00000000000E+00 -0.00000000000E+00 -0.18920591779E+03  0.18920591781E+03  0.25500000000E-02 0. -1.
   -5000001    1    1    2    0    0  0.13446112854E+02 -0.23525016066E+03  0.22325699329E+03  0.40971590291E+03  0.25000000000E+03 0.  0.
    5000001    1    1    2    0    0 -0.13446112854E+02  0.23525016066E+03  0.21145160938E+03  0.40340453536E+03  0.25000000000E+03 0.  0.
<mgrwt>
<rscale>  0 0.68716321E+03</rscale>
<asrwt>0</asrwt>
<pdfrwt beam="1">  1        2 0.95986851E-01 0.68716321E+03</pdfrwt>
<pdfrwt beam="2">  1       -2 0.29108602E-01 0.68716321E+03</pdfrwt>
<totfact> 0.51597386E+02</totfact>
</mgrwt>
</event>
<event>
 4    1  0.6476857E-006  0.6634340E+03  0.7818608E-02  0.9781893E-01
         -2   -1    0    0    0  501 -0.00000000000E+00  0.00000000000E+00  0.44277075849E+03  0.44277075850E+03  0.25500000000E-02 0. -1.
          2   -1    0    0  501    0  0.00000000000E+00 -0.00000000000E+00 -0.24851725557E+03  0.24851725558E+03  0.25500000000E-02 0.  1.
   -5000001    1    1    2    0    0  0.16652952323E+03 -0.87786988969E+02 -0.17479882266E+02  0.31343928252E+03  0.25000000000E+03 0.  0.
    5000001    1    1    2    0    0 -0.16652952323E+03  0.87786988969E+02  0.21173338519E+03  0.37784873157E+03  0.25000000000E+03 0.  0.
<mgrwt>
<rscale>  0 0.66343402E+03</rscale>
<asrwt>0</asrwt>
<pdfrwt beam="1">  1        2 0.38233424E-01 0.66343402E+03</pdfrwt>
<pdfrwt beam="2">  1       -2 0.68118577E-01 0.66343402E+03</pdfrwt>
<totfact> 0.26997056E+02</totfact>
</mgrwt>
</event>
<event>
 4    1  0.6476857E-006  0.5775227E+03  0.7818608E-02  0.9953169E-01
          2   -1    0    0  501    0  0.00000000000E+00  0.00000000000E+00  0.16749651603E+04  0.16749651603E+04  0.25500000000E-02 0.  1.
         -2   -1    0    0    0  501 -0.00000000000E+00 -0.00000000000E+00 -0.49782003401E+02  0.49782003466E+02  0.25500000000E-02 0. -1.
   -5000001    1    1    2    0    0  0.12419264893E+03 -0.68700107350E+02  0.73137296436E+03  0.78584345247E+03  0.25000000000E+03 0.  0.
    5000001    1    1    2    0    0 -0.12419264893E+03  0.68700107350E+02  0.89381019256E+03  0.93890371131E+03  0.25000000000E+03 0.  0.
<mgrwt>
<rscale>  0 0.57752271E+03</rscale>
<asrwt>0</asrwt>
<pdfrwt beam="1">  1        2 0.25768694E+00 0.57752271E+03</pdfrwt>
<pdfrwt beam="2">  1       -2 0.76587700E-02 0.57752271E+03</pdfrwt>
<totfact> 0.10940413E+03</totfact>
</mgrwt>
</event>
<event>
 4    1  0.6476857E-006  0.8444146E+03  0.7818608E-02  0.9497864E-01
         -2   -1    0    0    0  501 -0.00000000000E+00  0.00000000000E+00  0.11743812037E+03  0.11743812040E+03  0.25500000000E-02 0. -1.
          2   -1    0    0  501    0  0.00000000000E+00 -0.00000000000E+00 -0.15178973650E+04  0.15178973650E+04  0.25500000000E-02 0.  1.
   -5000001    1    1    2    0    0  0.21452216656E+03 -0.34505123980E+02 -0.12072793673E+04  0.12518921016E+04  0.25000000000E+03 0.  0.
    5000001    1    1    2    0    0 -0.21452216656E+03  0.34505123980E+02 -0.19317987736E+03  0.38344338375E+03  0.25000000000E+03 0.  0.
<mgrwt>
<rscale>  0 0.84441462E+03</rscale>
<asrwt>0</asrwt>
<pdfrwt beam="1">  1        2 0.23352266E+00 0.84441462E+03</pdfrwt>
<pdfrwt beam="2">  1       -2 0.18067404E-01 0.84441462E+03</pdfrwt>
<totfact> 0.31834466E+02</totfact>
</mgrwt>
</event>
<event>
 4    1  0.6476857E-006  0.7614971E+03  0.7818608E-02  0.9617484E-01
          2   -1    0    0  501    0  0.00000000000E+00  0.00000000000E+00  0.24170018058E+04  0.24170018058E+04  0.25500000000E-02 0.  1.
         -2   -1    0    0    0  501 -0.00000000000E+00 -0.00000000000E+00 -0.59979037593E+02  0.59979037648E+02  0.25500000000E-02 0. -1.
   -5000001    1    1    2    0    0 -0.22906616091E+03  0.64310486490E+02  0.17016152984E+04  0.17362608584E+04  0.25000000000E+03 0.  0.
    5000001    1    1    2    0    0  0.22906616091E+03 -0.64310486490E+02  0.65540746988E+03  0.74071998510E+03  0.25000000000E+03 0.  0.
<mgrwt>
<rscale>  0 0.76149706E+03</rscale>
<asrwt>0</asrwt>
<pdfrwt beam="1">  1        2 0.37184643E+00 0.76149706E+03</pdfrwt>
<pdfrwt beam="2">  1       -2 0.92275442E-02 0.76149706E+03</pdfrwt>
<totfact> 0.31441701E+02</totfact>
</mgrwt>
</event>
<event>
 4    1  0.6476857E-006  0.8415995E+03  0.7818608E-02  0.9501682E-01
         -2   -1    0    0    0  501 -0.00000000000E+00  0.00000000000E+00  0.39535467212E+03  0.39535467212E+03  0.25500000000E-02 0. -1.
          2   -1    0    0  501    0  0.00000000000E+00 -0.00000000000E+00 -0.44788248741E+03  0.44788248741E+03  0.25500000000E-02 0.  1.
   -5000001    1    1    2    0    0 -0.33444899330E+03 -0.37216681475E+02  0.10293024655E+02  0.41934133692E+03  0.25000000000E+03 0.  0.
    5000001    1    1    2    0    0  0.33444899330E+03  0.37216681475E+02 -0.62820839946E+02  0.42389582261E+03  0.25000000000E+03 0.  0.
<mgrwt>
<rscale>  0 0.84159951E+03</rscale>
<asrwt>0</asrwt>
<pdfrwt beam="1">  1        2 0.68904998E-01 0.84159951E+03</pdfrwt>
<pdfrwt beam="2">  1       -2 0.60823796E-01 0.84159951E+03</pdfrwt>
<totfact> 0.17704377E+02</totfact>
</mgrwt>
</event>
<event>
 4    1  0.6476857E-006  0.8971658E+03  0.7818608E-02  0.9429131E-01
          2   -1    0    0  501    0  0.00000000000E+00  0.00000000000E+00  0.15818377808E+04  0.15818377808E+04  0.25500000000E-02 0.  1.
         -2   -1    0    0    0  501 -0.00000000000E+00 -0.00000000000E+00 -0.12721064333E+03  0.12721064335E+03  0.25500000000E-02 0. -1.
   -5000001    1    1    2    0    0  0.14685195087E+03 -0.27871668175E+03  0.34881878883E+03  0.53237489761E+03  0.25000000000E+03 0.  0.
    5000001    1    1    2    0    0 -0.14685195087E+03  0.27871668175E+03  0.11058083487E+04  0.11766735266E+04  0.25000000000E+03 0.  0.
<mgrwt>
<rscale>  0 0.89716576E+03</rscale>
<asrwt>0</asrwt>
<pdfrwt beam="1">  1        2 0.24335966E+00 0.89716576E+03</pdfrwt>
<pdfrwt beam="2">  1       -2 0.19570868E-01 0.89716576E+03</pdfrwt>
<totfact> 0.25439894E+02</totfact>
</mgrwt>
</event>
<event>
 4    1  0.6476857E-006  0.9429709E+03  0.7818608E-02  0.9373404E-01
          2   -1    0    0  501    0  0.00000000000E+00  0.00000000000E+00  0.56568325760E+03  0.56568325760E+03  0.25500000000E-02 0.  1.
         -2   -1    0    0    0  501 -0.00000000000E+00 -0.00000000000E+00 -0.39297347846E+03  0.39297347847E+03  0.25500000000E-02 0. -1.
   -5000001    1    1    2    0    0  0.43062221924E+02  0.16297302363E+03  0.45485363762E+03  0.54571640350E+03  0.25000000000E+03 0.  0.
    5000001    1    1    2    0    0 -0.43062221924E+02 -0.16297302363E+03 -0.28214385848E+03  0.41294033258E+03  0.25000000000E+03 0.  0.
<mgrwt>
<rscale>  0 0.94297087E+03</rscale>
<asrwt>0</asrwt>
<pdfrwt beam="1">  1        2 0.87028194E-01 0.94297087E+03</pdfrwt>
<pdfrwt beam="2">  1       -2 0.60457458E-01 0.94297087E+03</pdfrwt>
<totfact> 0.13594142E+02</totfact>
</mgrwt>
</event>
<event>
 4    1  0.6476857E-006  0.5949059E+03  0.7818608E-02  0.9916031E-01
          2   -1    0    0  501    0  0.00000000000E+00  0.00000000000E+00  0.58242794477E+03  0.58242794477E+03  0.25500000000E-02 0.  1.
         -2   -1    0    0    0  501 -0.00000000000E+00 -0.00000000000E+00 -0.15191280362E+03  0.15191280364E+03  0.25500000000E-02 0. -1.
   -5000001    1    1    2    0    0  0.13437277559E+03  0.57927188239E+02  0.29867344027E+03  0.41607382264E+03  0.25000000000E+03 0.  0.
    5000001    1    1    2    0    0 -0.13437277559E+03 -0.57927188239E+02  0.13184170087E+03  0.31826692578E+03  0.25000000000E+03 0.  0.
<mgrwt>
<rscale>  0 0.59490592E+03</rscale>
<asrwt>0</asrwt>
<pdfrwt beam="1">  1        2 0.89604299E-01 0.59490592E+03</pdfrwt>
<pdfrwt beam="2">  1       -2 0.23371201E-01 0.59490592E+03</pdfrwt>
<totfact> 0.83585462E+02</totfact>
</mgrwt>
</event>
<event>
 4    1  0.6476857E-006  0.9977692E+03  0.7818608E-02  0.9310995E-01
         -2   -1    0    0    0  501 -0.00000000000E+00  0.00000000000E+00  0.16342852502E+03  0.16342852504E+03  0.25500000000E-02 0. -1.
          2   -1    0    0  501    0  0.00000000000E+00 -0.00000000000E+00 -0.15229031737E+04  0.15229031737E+04  0.25500000000E-02 0.  1.
   -5000001    1    1    2    0    0  0.67462491961E+02 -0.38426371421E+03 -0.36729221223E+03  0.59128111677E+03  0.25000000000E+03 0.  0.
    5000001    1    1    2    0    0 -0.67462491961E+02  0.38426371421E+03 -0.99218243648E+03  0.10950505820E+04  0.25000000000E+03 0.  0.
<mgrwt>
<rscale>  0 0.99776915E+03</rscale>
<asrwt>0</asrwt>
<pdfrwt beam="1">  1        2 0.23429279E+00 0.99776915E+03</pdfrwt>
<pdfrwt beam="2">  1       -2 0.25142851E-01 0.99776915E+03</pdfrwt>
<totfact> 0.17455583E+02</totfact>
</mgrwt>
</event>
<event>
 4    1  0.6476857E-006  0.8966361E+03  0.7818608E-02  0.9429796E-01
          2   -1    0    0  501    0  0.00000000000E+00  0.00000000000E+00  0.15281911982E+04  0.15281911982E+04  0.25500000000E-02 0.  1.
         -2   -1    0    0    0  501 -0.00000000000E+00 -0.00000000000E+00 -0.13152088715E+03  0.13152088717E+03  0.25500000000E-02 0. -1.
   -5000001    1    1    2    0    0  0.26942040978E+03  0.21436826367E+03  0.95977134887E+03  0.10498581579E+04  0.25000000000E+03 0.  0.
    5000001    1    1    2    0    0 -0.26942040978E+03 -0.21436826367E+03  0.43689896221E+03  0.60985392747E+03  0.25000000000E+03 0.  0.
<mgrwt>
<rscale>  0 0.89663607E+03</rscale>
<asrwt>0</asrwt>
<pdfrwt beam="1">  1        2 0.23510636E+00 0.89663607E+03</pdfrwt>
<pdfrwt beam="2">  1       -2 0.20233981E-01 0.89663607E+03</pdfrwt>
<totfact> 0.25704680E+02</totfact>
</mgrwt>
</event>
<event>
 4    1  0.6476857E-006  0.1225545E+04  0.7818608E-02  0.9090786E-01
         -2   -1    0    0    0  501 -0.00000000000E+00  0.00000000000E+00  0.44884869397E+03  0.44884869397E+03  0.25500000000E-02 0. -1.
          2   -1    0    0  501    0  0.00000000000E+00 -0.00000000000E+00 -0.83656294961E+03  0.83656294961E+03  0.25500000000E-02 0.  1.
   -5000001    1    1    2    0    0  0.42842039018E+03  0.35720423926E+03 -0.23898552839E+03  0.65631774473E+03  0.25000000000E+03 0.  0.
    5000001    1    1    2    0    0 -0.42842039018E+03 -0.35720423926E+03 -0.14872872725E+03  0.62909389886E+03  0.25000000000E+03 0.  0.
<mgrwt>
<rscale>  0 0.12255451E+04</rscale>
<asrwt>0</asrwt>
<pdfrwt beam="1">  1        2 0.12870199E+00 0.12255451E+04</pdfrwt>
<pdfrwt beam="2">  1       -2 0.69053645E-01 0.12255451E+04</pdfrwt>
<totfact> 0.61212960E+01</totfact>
</mgrwt>
</event>
<event>
 4    1  0.6476857E-006  0.1322090E+04  0.7818608E-02  0.9012229E-01
         -2   -1    0    0    0  501 -0.00000000000E+00  0.00000000000E+00  0.15723328105E+03  0.15723328107E+03  0.25500000000E-02 0. -1.
          2   -1    0    0  501    0  0.00000000000E+00 -0.00000000000E+00 -0.27791861908E+04  0.27791861908E+04  0.25500000000E-02 0.  1.
   -5000001    1    1    2    0    0 -0.46556277929E+03  0.38274180597E+03 -0.10754979637E+04  0.12579490695E+04  0.25000000000E+03 0.  0.
    5000001    1    1    2    0    0  0.46556277929E+03 -0.38274180597E+03 -0.15464549461E+04  0.16784704024E+04  0.25000000000E+03 0.  0.
<mgrwt>
<rscale>  0 0.13220901E+04</rscale>
<asrwt>0</asrwt>
<pdfrwt beam="1">  1        2 0.42756707E+00 0.13220901E+04</pdfrwt>
<pdfrwt beam="2">  1       -2 0.24189738E-01 0.13220901E+04</pdfrwt>
<totfact> 0.35752140E+01</totfact>
</mgrwt>
</event>
<event>
 4    1  0.6476857E-006  0.8060364E+03  0.7818608E-02  0.9551321E-01
         -2   -1    0    0    0  501 -0.00000000000E+00  0.00000000000E+00  0.54205767879E+02  0.54205767939E+02  0.25500000000E-02 0. -1.
          2   -1    0    0  501    0  0.00000000000E+00 -0.00000000000E+00 -0.29964274352E+04  0.29964274352E+04  0.25500000000E-02 0.  1.
   -5000001    1    1    2    0    0  0.52271546936E+02 -0.27220214629E+03 -0.20463073220E+04  0.20800721092E+04  0.25000000000E+03 0.  0.
    5000001    1    1    2    0    0 -0.52271546936E+02  0.27220214629E+03 -0.89591434524E+03  0.97056109394E+03  0.25000000000E+03 0.  0.
<mgrwt>
<rscale>  0 0.80603635E+03</rscale>
<asrwt>0</asrwt>
<pdfrwt beam="1">  1        2 0.46098871E+00 0.80603635E+03</pdfrwt>
<pdfrwt beam="2">  1       -2 0.83393512E-02 0.80603635E+03</pdfrwt>
<totfact> 0.16893388E+02</totfact>
</mgrwt>
</event>
<event>
 4    1  0.6476857E-006  0.5721994E+03  0.7818608E-02  0.9964824E-01
         -2   -1    0    0    0  501 -0.00000000000E+00  0.00000000000E+00  0.36438795317E+02  0.36438795406E+02  0.25500000000E-02 0. -1.
          2   -1    0    0  501    0  0.00000000000E+00 -0.00000000000E+00 -0.22463153403E+04  0.22463153403E+04  0.25500000000E-02 0.  1.
   -5000001    1    1    2    0    0 -0.11163402202E+03  0.39530003734E+02 -0.13961467602E+04  0.14232886398E+04  0.25000000000E+03 0.  0.
    5000001    1    1    2    0    0  0.11163402202E+03 -0.39530003734E+02 -0.81372978473E+03  0.85946549588E+03  0.25000000000E+03 0.  0.
<mgrwt>
<rscale>  0 0.57219935E+03</rscale>
<asrwt>0</asrwt>
<pdfrwt beam="1">  1        2 0.34558687E+00 0.57219935E+03</pdfrwt>
<pdfrwt beam="2">  1       -2 0.56059703E-02 0.57219935E+03</pdfrwt>
<totfact> 0.87616493E+02</totfact>
</mgrwt>
</event>
<event>
 4    1  0.6476857E-006  0.9204477E+03  0.7818608E-02  0.9400376E-01
         -2   -1    0    0    0  501 -0.00000000000E+00  0.00000000000E+00  0.15218345689E+03  0.15218345691E+03  0.25500000000E-02 0. -1.
          2   -1    0    0  501    0  0.00000000000E+00 -0.00000000000E+00 -0.13917806012E+04  0.13917806012E+04  0.25500000000E-02 0.  1.
   -5000001    1    1    2    0    0 -0.65099025909E+02 -0.37107258756E+03 -0.76383326426E+03  0.88762266984E+03  0.25000000000E+03 0.  0.
    5000001    1    1    2    0    0  0.65099025909E+02  0.37107258756E+03 -0.47576388010E+03  0.65634138832E+03  0.25000000000E+03 0.  0.
<mgrwt>
<rscale>  0 0.92044768E+03</rscale>
<asrwt>0</asrwt>
<pdfrwt beam="1">  1        2 0.21412008E+00 0.92044768E+03</pdfrwt>
<pdfrwt beam="2">  1       -2 0.23412840E-01 0.92044768E+03</pdfrwt>
<totfact> 0.23648626E+02</totfact>
</mgrwt>
</event>
<event>
 4    1  0.6476857E-006  0.8482537E+03  0.7818608E-02  0.9492684E-01
          2   -1    0    0  501    0  0.00000000000E+00  0.00000000000E+00  0.95849820510E+03  0.95849820511E+03  0.25500000000E-02 0.  1.
         -2   -1    0    0    0  501 -0.00000000000E+00 -0.00000000000E+00 -0.18767233397E+03  0.18767233399E+03  0.25500000000E-02 0. -1.
   -5000001    1    1    2    0    0 -0.26462457073E+03 -0.21185844093E+03  0.45261359388E+03  0.61827924742E+03  0.25000000000E+03 0.  0.
    5000001    1    1    2    0    0  0.26462457073E+03  0.21185844093E+03  0.31821227725E+03  0.52789129167E+03  0.25000000000E+03 0.  0.
<mgrwt>
<rscale>  0 0.84825372E+03</rscale>
<asrwt>0</asrwt>
<pdfrwt beam="1">  1        2 0.14746126E+00 0.84825372E+03</pdfrwt>
<pdfrwt beam="2">  1       -2 0.28872667E-01 0.84825372E+03</pdfrwt>
<totfact> 0.29599308E+02</totfact>
</mgrwt>
</event>
<event>
 4    1  0.6476857E-006  0.7733478E+03  0.7818608E-02  0.9599417E-01
          2   -1    0    0  501    0  0.00000000000E+00  0.00000000000E+00  0.18064873705E+04  0.18064873705E+04  0.25500000000E-02 0.  1.
         -2   -1    0    0    0  501 -0.00000000000E+00 -0.00000000000E+00 -0.82766535414E+02  0.82766535453E+02  0.25500000000E-02 0. -1.
   -5000001    1    1    2    0    0 -0.28453214654E+02 -0.26866437891E+03  0.57253194374E+03  0.68064892604E+03  0.25000000000E+03 0.  0.
    5000001    1    1    2    0    0  0.28453214654E+02  0.26866437891E+03  0.11511888914E+04  0.12086049799E+04  0.25000000000E+03 0.  0.
<mgrwt>
<rscale>  0 0.77334779E+03</rscale>
<asrwt>0</asrwt>
<pdfrwt beam="1">  1        2 0.27792112E+00 0.77334779E+03</pdfrwt>
<pdfrwt beam="2">  1       -2 0.12733314E-01 0.77334779E+03</pdfrwt>
<totfact> 0.40152740E+02</totfact>
</mgrwt>
</event>
<event>
 4    1  0.6476857E-006  0.7281095E+03  0.7818608E-02  0.9670333E-01
         -2   -1    0    0    0  501 -0.00000000000E+00  0.00000000000E+00  0.16503067649E+03  0.16503067651E+03  0.25500000000E-02 0.  1.
          2   -1    0    0  501    0  0.00000000000E+00 -0.00000000000E+00 -0.80309822997E+03  0.80309822997E+03  0.25500000000E-02 0. -1.
   -5000001    1    1    2    0    0  0.18140526671E+03  0.17971901999E+03 -0.41143277126E+03  0.54496212914E+03  0.25000000000E+03 0.  0.
    5000001    1    1    2    0    0 -0.18140526671E+03 -0.17971901999E+03 -0.22663478222E+03  0.42316677734E+03  0.25000000000E+03 0.  0.
<mgrwt>
<rscale>  0 0.72810945E+03</rscale>
<asrwt>0</asrwt>
<pdfrwt beam="1">  1        2 0.12355357E+00 0.72810945E+03</pdfrwt>
<pdfrwt beam="2">  1       -2 0.25389335E-01 0.72810945E+03</pdfrwt>
<totfact> 0.48034446E+02</totfact>
</mgrwt>
</event>
<event>
 4    1  0.6476857E-006  0.6609023E+03  0.7818608E-02  0.9786534E-01
          2   -1    0    0  501    0  0.00000000000E+00  0.00000000000E+00  0.32965501985E+04  0.32965501985E+04  0.25500000000E-02 0.  1.
         -2   -1    0    0    0  501 -0.00000000000E+00 -0.00000000000E+00 -0.33124919043E+02  0.33124919141E+02  0.25500000000E-02 0. -1.
   -5000001    1    1    2    0    0 -0.12620505120E+03 -0.17456436909E+03  0.17186139098E+04  0.17500097728E+04  0.25000000000E+03 0.  0.
    5000001    1    1    2    0    0  0.12620505120E+03  0.17456436909E+03  0.15448113697E+04  0.15796653449E+04  0.25000000000E+03 0.  0.
<mgrwt>
<rscale>  0 0.66090229E+03</rscale>
<asrwt>0</asrwt>
<pdfrwt beam="1">  1        2 0.50716151E+00 0.66090229E+03</pdfrwt>
<pdfrwt beam="2">  1       -2 0.50961420E-02 0.66090229E+03</pdfrwt>
<totfact> 0.24222560E+02</totfact>
</mgrwt>
</event>
<event>
 4    1  0.6476857E-006  0.7911860E+03  0.7818608E-02  0.9572863E-01
          2   -1    0    0  501    0  0.00000000000E+00  0.00000000000E+00  0.17834111367E+04  0.17834111367E+04  0.25500000000E-02 0.  1.
         -2   -1    0    0    0  501 -0.00000000000E+00 -0.00000000000E+00 -0.87749710388E+02  0.87749710425E+02  0.25500000000E-02 0. -1.
   -5000001    1    1    2    0    0 -0.26680320652E+03 -0.17126140247E+02  0.12027123406E+04  0.12571770877E+04  0.25000000000E+03 0.  0.
    5000001    1    1    2    0    0  0.26680320652E+03  0.17126140247E+02  0.49294908571E+03  0.61398375939E+03  0.25000000000E+03 0.  0.
<mgrwt>
<rscale>  0 0.79118597E+03</rscale>
<asrwt>0</asrwt>
<pdfrwt beam="1">  1        2 0.27437096E+00 0.79118597E+03</pdfrwt>
<pdfrwt beam="2">  1       -2 0.13499955E-01 0.79118597E+03</pdfrwt>
<totfact> 0.37446706E+02</totfact>
</mgrwt>
</event>
<event>
 4    1  0.6476857E-006  0.1006446E+04  0.7818608E-02  0.9301503E-01
          2   -1    0    0  501    0  0.00000000000E+00  0.00000000000E+00  0.16042109871E+04  0.16042109871E+04  0.25500000000E-02 0.  1.
         -2   -1    0    0    0  501 -0.00000000000E+00 -0.00000000000E+00 -0.15785539423E+03  0.15785539425E+03  0.25500000000E-02 0. -1.
   -5000001    1    1    2    0    0 -0.43057432083E+03  0.67411705933E+02  0.67382024257E+03  0.84051906769E+03  0.25000000000E+03 0.  0.
    5000001    1    1    2    0    0  0.43057432083E+03 -0.67411705933E+02  0.77253535030E+03  0.92154731366E+03  0.25000000000E+03 0.  0.
<mgrwt>
<rscale>  0 0.10064459E+04</rscale>
<asrwt>0</asrwt>
<pdfrwt beam="1">  1        2 0.24680167E+00 0.10064459E+04</pdfrwt>
<pdfrwt beam="2">  1       -2 0.24285447E-01 0.10064459E+04</pdfrwt>
<totfact> 0.16732922E+02</totfact>
</mgrwt>
</event>
<event>
 4    1  0.6476857E-006  0.5721636E+03  0.7818608E-02  0.9964902E-01
         -2   -1    0    0    0  501 -0.00000000000E+00  0.00000000000E+00  0.67728627690E+02  0.67728627738E+02  0.25500000000E-02 0. -1.
          2   -1    0    0  501    0  0.00000000000E+00 -0.00000000000E+00 -0.12083931250E+04  0.12083931250E+04  0.25500000000E-02 0.  1.
   -5000001    1    1    2    0    0 -0.79749298508E+02 -0.97899069489E+02 -0.70035632508E+03  0.75428320974E+03  0.25000000000E+03 0.  0.
    5000001    1    1    2    0    0  0.79749298508E+02  0.97899069489E+02 -0.44030817218E+03  0.52183854295E+03  0.25000000000E+03 0.  0.
<mgrwt>
<rscale>  0 0.57216364E+03</rscale>
<asrwt>0</asrwt>
<pdfrwt beam="1">  1        2 0.18590662E+00 0.57216364E+03</pdfrwt>
<pdfrwt beam="2">  1       -2 0.10419790E-01 0.57216364E+03</pdfrwt>
<totfact> 0.12163770E+03</totfact>
</mgrwt>
</event>
<event>
 4    1  0.6476857E-006  0.6922380E+03  0.7818608E-02  0.9730599E-01
         -2   -1    0    0    0  501 -0.00000000000E+00  0.00000000000E+00  0.61036836449E+03  0.61036836449E+03  0.25500000000E-02 0. -1.
          2   -1    0    0  501    0  0.00000000000E+00 -0.00000000000E+00 -0.19627223705E+03  0.19627223707E+03  0.25500000000E-02 0.  1.
   -5000001    1    1    2    0    0 -0.62181627868E+02 -0.23114248584E+03  0.20445270580E+03  0.40198795071E+03  0.25000000000E+03 0.  0.
    5000001    1    1    2    0    0  0.62181627868E+02  0.23114248584E+03  0.20964342164E+03  0.40465265085E+03  0.25000000000E+03 0.  0.
<mgrwt>
<rscale>  0 0.69223801E+03</rscale>
<asrwt>0</asrwt>
<pdfrwt beam="1">  1        2 0.30195729E-01 0.69223801E+03</pdfrwt>
<pdfrwt beam="2">  1       -2 0.93902825E-01 0.69223801E+03</pdfrwt>
<totfact> 0.17093582E+02</totfact>
</mgrwt>
</event>
<event>
 4    1  0.6476857E-006  0.1156510E+04  0.7818608E-02  0.9151799E-01
         -2   -1    0    0    0  501 -0.00000000000E+00  0.00000000000E+00  0.13277856458E+03  0.13277856461E+03  0.25500000000E-02 0. -1.
          2   -1    0    0  501    0  0.00000000000E+00 -0.00000000000E+00 -0.25183173476E+04  0.25183173476E+04  0.25500000000E-02 0.  1.
   -5000001    1    1    2    0    0  0.41670280394E+03  0.23110494959E+03 -0.70742487372E+03  0.88881982229E+03  0.25000000000E+03 0.  0.
    5000001    1    1    2    0    0 -0.41670280394E+03 -0.23110494959E+03 -0.16781139093E+04  0.17622760899E+04  0.25000000000E+03 0.  0.
<mgrwt>
<rscale>  0 0.11565095E+04</rscale>
<asrwt>0</asrwt>
<pdfrwt beam="1">  1        2 0.38743340E+00 0.11565095E+04</pdfrwt>
<pdfrwt beam="2">  1       -2 0.20427473E-01 0.11565095E+04</pdfrwt>
<totfact> 0.69745332E+01</totfact>
</mgrwt>
</event>
<event>
 4    1  0.6476857E-006  0.1120258E+04  0.7818608E-02  0.9185669E-01
          2   -1    0    0  501    0  0.00000000000E+00  0.00000000000E+00  0.62265241017E+03  0.62265241018E+03  0.25500000000E-02 0.  1.
         -2   -1    0    0    0  501 -0.00000000000E+00 -0.00000000000E+00 -0.50388411680E+03  0.50388411681E+03  0.25500000000E-02 0. -1.
   -5000001    1    1    2    0    0 -0.39465706806E+03  0.25638459812E+03 -0.11408593184E+03  0.54497969079E+03  0.25000000000E+03 0.  0.
    5000001    1    1    2    0    0  0.39465706806E+03 -0.25638459812E+03  0.23285422522E+03  0.58155683620E+03  0.25000000000E+03 0.  0.
<mgrwt>
<rscale>  0 0.11202583E+04</rscale>
<asrwt>0</asrwt>
<pdfrwt beam="1">  1        2 0.95792679E-01 0.11202583E+04</pdfrwt>
<pdfrwt beam="2">  1       -2 0.77520633E-01 0.11202583E+04</pdfrwt>
<totfact> 0.69783367E+01</totfact>
</mgrwt>
</event>
<event>
 4    1  0.6476857E-006  0.6342850E+03  0.7818608E-02  0.9836722E-01
         -2   -1    0    0    0  501 -0.00000000000E+00  0.00000000000E+00  0.18472868958E+03  0.18472868959E+03  0.25500000000E-02 0. -1.
          2   -1    0    0  501    0  0.00000000000E+00 -0.00000000000E+00 -0.54447072648E+03  0.54447072648E+03  0.25500000000E-02 0.  1.
   -5000001    1    1    2    0    0 -0.52788023604E+02 -0.67272464944E+02 -0.38152457631E+03  0.46408314159E+03  0.25000000000E+03 0.  0.
    5000001    1    1    2    0    0  0.52788023604E+02  0.67272464944E+02  0.21782539412E+02  0.26511627449E+03  0.25000000000E+03 0.  0.
<mgrwt>
<rscale>  0 0.63428500E+03</rscale>
<asrwt>0</asrwt>
<pdfrwt beam="1">  1        2 0.83764727E-01 0.63428500E+03</pdfrwt>
<pdfrwt beam="2">  1       -2 0.28419799E-01 0.63428500E+03</pdfrwt>
<totfact> 0.63528145E+02</totfact>
</mgrwt>
</event>
<event>
 4    1  0.6476857E-006  0.8858132E+03  0.7818608E-02  0.9443491E-01
          2   -1    0    0  501    0  0.00000000000E+00  0.00000000000E+00  0.43378444286E+03  0.43378444287E+03  0.25500000000E-02 0.  1.
         -2   -1    0    0    0  501 -0.00000000000E+00 -0.00000000000E+00 -0.45222058812E+03  0.45222058813E+03  0.25500000000E-02 0. -1.
   -5000001    1    1    2    0    0 -0.33569975763E+03 -0.53769826485E+02  0.12527566830E+03  0.44020394658E+03  0.25000000000E+03 0.  0.
    5000001    1    1    2    0    0  0.33569975763E+03  0.53769826485E+02 -0.14371181356E+03  0.44580108442E+03  0.25000000000E+03 0.  0.
<mgrwt>
<rscale>  0 0.88581320E+03</rscale>
<asrwt>0</asrwt>
<pdfrwt beam="1">  1        2 0.66736068E-01 0.88581320E+03</pdfrwt>
<pdfrwt beam="2">  1       -2 0.69572398E-01 0.88581320E+03</pdfrwt>
<totfact> 0.13727599E+02</totfact>
</mgrwt>
</event>
<event>
 4    1  0.6476857E-006  0.6879181E+03  0.7818608E-02  0.9738120E-01
         -2   -1    0    0    0  501 -0.00000000000E+00  0.00000000000E+00  0.16995316455E+03  0.16995316457E+03  0.25500000000E-02 0. -1.
          2   -1    0    0  501    0  0.00000000000E+00 -0.00000000000E+00 -0.69612013098E+03  0.69612013098E+03  0.25500000000E-02 0.  1.
   -5000001    1    1    2    0    0 -0.22403094841E+03 -0.37032317817E+02 -0.18104141513E+03  0.38319349212E+03  0.25000000000E+03 0.  0.
    5000001    1    1    2    0    0  0.22403094841E+03  0.37032317817E+02 -0.34512555130E+03  0.48287980344E+03  0.25000000000E+03 0.  0.
<mgrwt>
<rscale>  0 0.68791807E+03</rscale>
<asrwt>0</asrwt>
<pdfrwt beam="1">  1        2 0.10709540E+00 0.68791807E+03</pdfrwt>
<pdfrwt beam="2">  1       -2 0.26146641E-01 0.68791807E+03</pdfrwt>
<totfact> 0.54836561E+02</totfact>
</mgrwt>
</event>
<event>
 4    1  0.6476857E-006  0.1009112E+04  0.7818608E-02  0.9298607E-01
          2   -1    0    0  501    0  0.00000000000E+00  0.00000000000E+00  0.30519008419E+03  0.30519008420E+03  0.25500000000E-02 0.  1.
         -2   -1    0    0    0  501 -0.00000000000E+00 -0.00000000000E+00 -0.83415741762E+03  0.83415741763E+03  0.25500000000E-02 0. -1.
   -5000001    1    1    2    0    0  0.40771242534E+03  0.12398529729E+03 -0.14892838658E+03  0.51602465062E+03  0.25000000000E+03 0.  0.
    5000001    1    1    2    0    0 -0.40771242534E+03 -0.12398529729E+03 -0.38003894685E+03  0.62332285121E+03  0.25000000000E+03 0.  0.
<mgrwt>
<rscale>  0 0.10091116E+04</rscale>
<asrwt>0</asrwt>
<pdfrwt beam="1">  1        2 0.46952321E-01 0.10091116E+04</pdfrwt>
<pdfrwt beam="2">  1       -2 0.12833191E+00 0.10091116E+04</pdfrwt>
<totfact> 0.48200555E+01</totfact>
</mgrwt>
</event>
<event>
 4    1  0.6476857E-006  0.5425678E+03  0.7818608E-02  0.1003229E+00
         -2   -1    0    0    0  501 -0.00000000000E+00  0.00000000000E+00  0.50372646585E+03  0.50372646586E+03  0.25500000000E-02 0. -1.
          2   -1    0    0  501    0  0.00000000000E+00 -0.00000000000E+00 -0.14610103227E+03  0.14610103229E+03  0.25500000000E-02 0.  1.
   -5000001    1    1    2    0    0 -0.10413019279E+03 -0.13819787370E+02  0.18815723031E+03  0.33005639956E+03  0.25000000000E+03 0.  0.
    5000001    1    1    2    0    0  0.10413019279E+03  0.13819787370E+02  0.16946820327E+03  0.31977109859E+03  0.25000000000E+03 0.  0.
<mgrwt>
<rscale>  0 0.54256781E+03</rscale>
<asrwt>0</asrwt>
<pdfrwt beam="1">  1        2 0.22477082E-01 0.54256781E+03</pdfrwt>
<pdfrwt beam="2">  1       -2 0.77496377E-01 0.54256781E+03</pdfrwt>
<totfact> 0.37175579E+02</totfact>
</mgrwt>
</event>
<event>
 4    1  0.6476857E-006  0.7893716E+03  0.7818608E-02  0.9575530E-01
         -2   -1    0    0    0  501 -0.00000000000E+00  0.00000000000E+00  0.84059567411E+02  0.84059567450E+02  0.25500000000E-02 0. -1.
          2   -1    0    0  501    0  0.00000000000E+00 -0.00000000000E+00 -0.18531726676E+04  0.18531726676E+04  0.25500000000E-02 0.  1.
   -5000001    1    1    2    0    0 -0.21536213159E+03  0.92245857893E+02 -0.40372735783E+03  0.52951480195E+03  0.25000000000E+03 0.  0.
    5000001    1    1    2    0    0  0.21536213159E+03 -0.92245857893E+02 -0.13653857423E+04  0.14077174331E+04  0.25000000000E+03 0.  0.
<mgrwt>
<rscale>  0 0.78937163E+03</rscale>
<asrwt>0</asrwt>
<pdfrwt beam="1">  1        2 0.28510346E+00 0.78937163E+03</pdfrwt>
<pdfrwt beam="2">  1       -2 0.12932243E-01 0.78937163E+03</pdfrwt>
<totfact> 0.36859863E+02</totfact>
</mgrwt>
</event>
<event>
 4    1  0.6476857E-006  0.6294868E+03  0.7818608E-02  0.9846051E-01
         -2   -1    0    0    0  501 -0.00000000000E+00  0.00000000000E+00  0.41385040329E+02  0.41385040408E+02  0.25500000000E-02 0. -1.
          2   -1    0    0  501    0  0.00000000000E+00 -0.00000000000E+00 -0.23937005659E+04  0.23937005659E+04  0.25500000000E-02 0.  1.
   -5000001    1    1    2    0    0 -0.32924362459E+02 -0.18535345816E+03 -0.10464966862E+04  0.10922889876E+04  0.25000000000E+03 0.  0.
    5000001    1    1    2    0    0  0.32924362459E+02  0.18535345816E+03 -0.13058188393E+04  0.13427966187E+04  0.25000000000E+03 0.  0.
<mgrwt>
<rscale>  0 0.62948676E+03</rscale>
<asrwt>0</asrwt>
<pdfrwt beam="1">  1        2 0.36826152E+00 0.62948676E+03</pdfrwt>
<pdfrwt beam="2">  1       -2 0.63669311E-02 0.62948676E+03</pdfrwt>
<totfact> 0.59231057E+02</totfact>
</mgrwt>
</event>
<event>
 4    1  0.6476857E-006  0.5605892E+03  0.7818608E-02  0.9990722E-01
          2   -1    0    0  501    0  0.00000000000E+00  0.00000000000E+00  0.21095506024E+04  0.21095506024E+04  0.25500000000E-02 0.  1.
         -2   -1    0    0    0  501 -0.00000000000E+00 -0.00000000000E+00 -0.37242558404E+02  0.37242558491E+02  0.25500000000E-02 0. -1.
   -5000001    1    1    2    0    0 -0.93300658614E+02 -0.75757015966E+02  0.11903335475E+04  0.12222266944E+04  0.25000000000E+03 0.  0.
    5000001    1    1    2    0    0  0.93300658614E+02  0.75757015966E+02  0.88197449647E+03  0.92456646640E+03  0.25000000000E+03 0.  0.
<mgrwt>
<rscale>  0 0.56058920E+03</rscale>
<asrwt>0</asrwt>
<pdfrwt beam="1">  1        2 0.32454632E+00 0.56058920E+03</pdfrwt>
<pdfrwt beam="2">  1       -2 0.57296231E-02 0.56058920E+03</pdfrwt>
<totfact> 0.10064196E+03</totfact>
</mgrwt>
</event>
<event>
 4    1  0.6476857E-006  0.5686215E+03  0.7818608E-02  0.9972734E-01
         -2   -1    0    0    0  501 -0.00000000000E+00  0.00000000000E+00  0.82099059115E+02  0.82099059154E+02  0.25500000000E-02 0. -1.
          2   -1    0    0  501    0  0.00000000000E+00 -0.00000000000E+00 -0.98457387517E+03  0.98457387517E+03  0.25500000000E-02 0.  1.
   -5000001    1    1    2    0    0 -0.12648701890E+03 -0.41094253125E+02 -0.40359987690E+03  0.49303201136E+03  0.25000000000E+03 0.  0.
    5000001    1    1    2    0    0  0.12648701890E+03  0.41094253125E+02 -0.49887493915E+03  0.57364092296E+03  0.25000000000E+03 0.  0.
<mgrwt>
<rscale>  0 0.56862145E+03</rscale>
<asrwt>0</asrwt>
<pdfrwt beam="1">  1        2 0.15147290E+00 0.56862145E+03</pdfrwt>
<pdfrwt beam="2">  1       -2 0.12630625E-01 0.56862145E+03</pdfrwt>
<totfact> 0.12140344E+03</totfact>
</mgrwt>
</event>
<event>
 4    1  0.6476857E-006  0.1101652E+04  0.7818608E-02  0.9203583E-01
         -2   -1    0    0    0  501 -0.00000000000E+00  0.00000000000E+00  0.98523373541E+03  0.98523373541E+03  0.25500000000E-02 0. -1.
          2   -1    0    0  501    0  0.00000000000E+00 -0.00000000000E+00 -0.30795687784E+03  0.30795687785E+03  0.25500000000E-02 0.  1.
   -5000001    1    1    2    0    0  0.36090024667E+03 -0.33254272369E+03  0.32841475104E+03  0.64124090623E+03  0.25000000000E+03 0.  0.
    5000001    1    1    2    0    0 -0.36090024667E+03  0.33254272369E+03  0.34886210652E+03  0.65194970703E+03  0.25000000000E+03 0.  0.
<mgrwt>
<rscale>  0 0.11016524E+04</rscale>
<asrwt>0</asrwt>
<pdfrwt beam="1">  1        2 0.47377981E-01 0.11016524E+04</pdfrwt>
<pdfrwt beam="2">  1       -2 0.15157442E+00 0.11016524E+04</pdfrwt>
<totfact> 0.30815077E+01</totfact>
</mgrwt>
</event>
<event>
 4    1  0.6476857E-006  0.6815066E+03  0.7818608E-02  0.9749392E-01
         -2   -1    0    0    0  501 -0.00000000000E+00  0.00000000000E+00  0.27807846639E+02  0.27807846756E+02  0.25500000000E-02 0. -1.
          2   -1    0    0  501    0  0.00000000000E+00 -0.00000000000E+00 -0.41755406969E+04  0.41755406969E+04  0.25500000000E-02 0.  1.
   -5000001    1    1    2    0    0 -0.11468304449E+03  0.96895776781E+02 -0.98666854558E+03  0.10288614149E+04  0.25000000000E+03 0.  0.
    5000001    1    1    2    0    0  0.11468304449E+03 -0.96895776781E+02 -0.31610643047E+04  0.31744871287E+04  0.25000000000E+03 0.  0.
<mgrwt>
<rscale>  0 0.68150655E+03</rscale>
<asrwt>0</asrwt>
<pdfrwt beam="1">  1        2 0.64239038E+00 0.68150655E+03</pdfrwt>
<pdfrwt beam="2">  1       -2 0.42781336E-02 0.68150655E+03</pdfrwt>
<totfact> 0.72214020E+01</totfact>
</mgrwt>
</event>
<event>
 4    1  0.6476857E-006  0.7652966E+03  0.7818608E-02  0.9611653E-01
         -2   -1    0    0    0  501 -0.00000000000E+00  0.00000000000E+00  0.25340849801E+03  0.25340849803E+03  0.25500000000E-02 0. -1.
          2   -1    0    0  501    0  0.00000000000E+00 -0.00000000000E+00 -0.57780108858E+03  0.57780108858E+03  0.25500000000E-02 0.  1.
   -5000001    1    1    2    0    0  0.30049090600E+02 -0.28688539635E+03 -0.13318372879E+03  0.40428218376E+03  0.25000000000E+03 0.  0.
    5000001    1    1    2    0    0 -0.30049090600E+02  0.28688539635E+03 -0.19120886177E+03  0.42692740285E+03  0.25000000000E+03 0.  0.
<mgrwt>
<rscale>  0 0.76529656E+03</rscale>
<asrwt>0</asrwt>
<pdfrwt beam="1">  1        2 0.88892475E-01 0.76529656E+03</pdfrwt>
<pdfrwt beam="2">  1       -2 0.38985923E-01 0.76529656E+03</pdfrwt>
<totfact> 0.32494649E+02</totfact>
</mgrwt>
</event>
<event>
 4    1  0.6476857E-006  0.9982100E+03  0.7818608E-02  0.9310510E-01
          2   -1    0    0  501    0  0.00000000000E+00  0.00000000000E+00  0.68001085807E+03  0.68001085808E+03  0.25500000000E-02 0.  1.
         -2   -1    0    0    0  501 -0.00000000000E+00 -0.00000000000E+00 -0.36632621063E+03  0.36632621063E+03  0.25500000000E-02 0. -1.
   -5000001    1    1    2    0    0 -0.32062236247E+03  0.13811567810E+03  0.42353211620E+03  0.60312029754E+03  0.25000000000E+03 0.  0.
    5000001    1    1    2    0    0  0.32062236247E+03 -0.13811567810E+03 -0.10984746875E+03  0.44321677117E+03  0.25000000000E+03 0.  0.
<mgrwt>
<rscale>  0 0.99821000E+03</rscale>
<asrwt>0</asrwt>
<pdfrwt beam="1">  1        2 0.10461705E+00 0.99821000E+03</pdfrwt>
<pdfrwt beam="2">  1       -2 0.56357879E-01 0.99821000E+03</pdfrwt>
<totfact> 0.12543655E+02</totfact>
</mgrwt>
</event>
<event>
 4    1  0.6476857E-006  0.7432566E+03  0.7818608E-02  0.9645990E-01
         -2   -1    0    0    0  501 -0.00000000000E+00  0.00000000000E+00  0.18157272803E+03  0.18157272805E+03  0.25500000000E-02 0.  1.
          2   -1    0    0  501    0  0.00000000000E+00 -0.00000000000E+00 -0.76061851044E+03  0.76061851044E+03  0.25500000000E-02 0. -1.
   -5000001    1    1    2    0    0  0.21750272510E+03 -0.11004004614E+03 -0.12822021103E+03  0.37196326391E+03  0.25000000000E+03 0.  0.
    5000001    1    1    2    0    0 -0.21750272510E+03  0.11004004614E+03 -0.45082557138E+03  0.57022797458E+03  0.25000000000E+03 0.  0.
<mgrwt>
<rscale>  0 0.74325656E+03</rscale>
<asrwt>0</asrwt>
<pdfrwt beam="1">  1        2 0.11701823E+00 0.74325656E+03</pdfrwt>
<pdfrwt beam="2">  1       -2 0.27934266E-01 0.74325656E+03</pdfrwt>
<totfact> 0.43327122E+02</totfact>
</mgrwt>
</event>
<event>
 4    1  0.6476857E-006  0.1316553E+04  0.7818608E-02  0.9016540E-01
         -2   -1    0    0    0  501 -0.00000000000E+00  0.00000000000E+00  0.23169278752E+03  0.23169278754E+03  0.25500000000E-02 0. -1.
          2   -1    0    0  501    0  0.00000000000E+00 -0.00000000000E+00 -0.18702704875E+04  0.18702704875E+04  0.25500000000E-02 0.  1.
   -5000001    1    1    2    0    0  0.13349910082E+03  0.52264018985E+03 -0.36812595010E+03  0.69927926689E+03  0.25000000000E+03 0.  0.
    5000001    1    1    2    0    0 -0.13349910082E+03 -0.52264018985E+03 -0.12704517499E+04  0.14026840082E+04  0.25000000000E+03 0.  0.
<mgrwt>
<rscale>  0 0.13165534E+04</rscale>
<asrwt>0</asrwt>
<pdfrwt beam="1">  1        2 0.28773391E+00 0.13165534E+04</pdfrwt>
<pdfrwt beam="2">  1       -2 0.35645046E-01 0.13165534E+04</pdfrwt>
<totfact> 0.57140106E+01</totfact>
</mgrwt>
</event>
<event>
 4    1  0.6476857E-006  0.1445273E+04  0.7818608E-02  0.8921684E-01
         -2   -1    0    0    0  501 -0.00000000000E+00  0.00000000000E+00  0.33122685066E+03  0.33122685067E+03  0.25500000000E-02 0. -1.
          2   -1    0    0  501    0  0.00000000000E+00 -0.00000000000E+00 -0.15765731850E+04  0.15765731850E+04  0.25500000000E-02 0.  1.
   -5000001    1    1    2    0    0  0.25005226802E+03  0.62692218850E+03 -0.53767933901E+03  0.89841896617E+03  0.25000000000E+03 0.  0.
    5000001    1    1    2    0    0 -0.25005226802E+03 -0.62692218850E+03 -0.70766699534E+03  0.10093810695E+04  0.25000000000E+03 0.  0.
<mgrwt>
<rscale>  0 0.14452728E+04</rscale>
<asrwt>0</asrwt>
<pdfrwt beam="1">  1        2 0.24254972E+00 0.14452728E+04</pdfrwt>
<pdfrwt beam="2">  1       -2 0.50957978E-01 0.14452728E+04</pdfrwt>
<totfact> 0.40581557E+01</totfact>
</mgrwt>
</event>
<event>
 4    1  0.6476857E-006  0.8016414E+03  0.7818608E-02  0.9557644E-01
         -2   -1    0    0    0  501 -0.00000000000E+00  0.00000000000E+00  0.59418519034E+02  0.59418519089E+02  0.25500000000E-02 0. -1.
          2   -1    0    0  501    0  0.00000000000E+00 -0.00000000000E+00 -0.27038240199E+04  0.27038240199E+04  0.25500000000E-02 0.  1.
   -5000001    1    1    2    0    0  0.86199220502E+01 -0.31261242435E+03 -0.13872757034E+04  0.14438956708E+04  0.25000000000E+03 0.  0.
    5000001    1    1    2    0    0 -0.86199220502E+01  0.31261242435E+03 -0.12571297974E+04  0.13193468681E+04  0.25000000000E+03 0.  0.
<mgrwt>
<rscale>  0 0.80164136E+03</rscale>
<asrwt>0</asrwt>
<pdfrwt beam="1">  1        2 0.41597283E+00 0.80164136E+03</pdfrwt>
<pdfrwt beam="2">  1       -2 0.91413127E-02 0.80164136E+03</pdfrwt>
<totfact> 0.21796754E+02</totfact>
</mgrwt>
</event>
<event>
 4    1  0.6476857E-006  0.1116801E+04  0.7818608E-02  0.9188969E-01
         -2   -1    0    0    0  501 -0.00000000000E+00  0.00000000000E+00  0.14063857642E+03  0.14063857644E+03  0.25500000000E-02 0. -1.
          2   -1    0    0  501    0  0.00000000000E+00 -0.00000000000E+00 -0.22171102397E+04  0.22171102397E+04  0.25500000000E-02 0.  1.
   -5000001    1    1    2    0    0 -0.23739116735E+03 -0.18036272336E+03 -0.19264751382E+03  0.43416395854E+03  0.25000000000E+03 0.  0.
    5000001    1    1    2    0    0  0.23739116735E+03  0.18036272336E+03 -0.18838241495E+04  0.19235848576E+04  0.25000000000E+03 0.  0.
<mgrwt>
<rscale>  0 0.11168012E+04</rscale>
<asrwt>0</asrwt>
<pdfrwt beam="1">  1        2 0.34109386E+00 0.11168012E+04</pdfrwt>
<pdfrwt beam="2">  1       -2 0.21636706E-01 0.11168012E+04</pdfrwt>
<totfact> 0.93572742E+01</totfact>
</mgrwt>
</event>
<event>
 4    1  0.6476857E-006  0.7494085E+03  0.7818608E-02  0.9636279E-01
          2   -1    0    0  501    0  0.00000000000E+00  0.00000000000E+00  0.20351210263E+03  0.20351210264E+03  0.25500000000E-02 0.  1.
         -2   -1    0    0    0  501 -0.00000000000E+00 -0.00000000000E+00 -0.68990129709E+03  0.68990129709E+03  0.25500000000E-02 0. -1.
   -5000001    1    1    2    0    0 -0.14704964015E+03  0.36228439247E+02 -0.52269699780E+03  0.59887248057E+03  0.25000000000E+03 0.  0.
    5000001    1    1    2    0    0  0.14704964015E+03 -0.36228439247E+02  0.36307803344E+02  0.29454091916E+03  0.25000000000E+03 0.  0.
<mgrwt>
<rscale>  0 0.74940847E+03</rscale>
<asrwt>0</asrwt>
<pdfrwt beam="1">  1        2 0.31309555E-01 0.74940847E+03</pdfrwt>
<pdfrwt beam="2">  1       -2 0.10613866E+00 0.74940847E+03</pdfrwt>
<totfact> 0.12255162E+02</totfact>
</mgrwt>
</event>
<event>
 4    1  0.6476857E-006  0.7361696E+03  0.7818608E-02  0.9657301E-01
          2   -1    0    0  501    0  0.00000000000E+00  0.00000000000E+00  0.37263517425E+03  0.37263517426E+03  0.25500000000E-02 0.  1.
         -2   -1    0    0    0  501 -0.00000000000E+00 -0.00000000000E+00 -0.36358999530E+03  0.36358999531E+03  0.25500000000E-02 0. -1.
   -5000001    1    1    2    0    0  0.99803744720E+02  0.24160171407E+03  0.72749770208E+02  0.36895081619E+03  0.25000000000E+03 0.  0.
    5000001    1    1    2    0    0 -0.99803744720E+02 -0.24160171407E+03 -0.63704591252E+02  0.36727435338E+03  0.25000000000E+03 0.  0.
<mgrwt>
<rscale>  0 0.73616960E+03</rscale>
<asrwt>0</asrwt>
<pdfrwt beam="1">  1        2 0.57328488E-01 0.73616960E+03</pdfrwt>
<pdfrwt beam="2">  1       -2 0.55936923E-01 0.73616960E+03</pdfrwt>
<totfact> 0.26084650E+02</totfact>
</mgrwt>
</event>
<event>
 4    1  0.6476857E-006  0.7516927E+03  0.7818608E-02  0.9632698E-01
          2   -1    0    0  501    0  0.00000000000E+00  0.00000000000E+00  0.42118060000E+03  0.42118060001E+03  0.25500000000E-02 0.  1.
         -2   -1    0    0    0  501 -0.00000000000E+00 -0.00000000000E+00 -0.33539173749E+03  0.33539173750E+03  0.25500000000E-02 0. -1.
   -5000001    1    1    2    0    0 -0.16007184696E+03  0.22866803036E+03  0.13577545100E+02  0.37496188343E+03  0.25000000000E+03 0.  0.
    5000001    1    1    2    0    0  0.16007184696E+03 -0.22866803036E+03  0.72211317413E+02  0.38161045408E+03  0.25000000000E+03 0.  0.
<mgrwt>
<rscale>  0 0.75169274E+03</rscale>
<asrwt>0</asrwt>
<pdfrwt beam="1">  1        2 0.64797016E-01 0.75169274E+03</pdfrwt>
<pdfrwt beam="2">  1       -2 0.51598729E-01 0.75169274E+03</pdfrwt>
<totfact> 0.26835612E+02</totfact>
</mgrwt>
</event>
<event>
 4    1  0.6476857E-006  0.7935499E+03  0.7818608E-02  0.9569401E-01
          2   -1    0    0  501    0  0.00000000000E+00  0.00000000000E+00  0.32419400547E+04  0.32419400547E+04  0.25500000000E-02 0.  1.
         -2   -1    0    0    0  501 -0.00000000000E+00 -0.00000000000E+00 -0.48560540726E+02  0.48560540793E+02  0.25500000000E-02 0. -1.
   -5000001    1    1    2    0    0 -0.20285009108E+03  0.16981784916E+03  0.94179478302E+03  0.10096849383E+04  0.25000000000E+03 0.  0.
    5000001    1    1    2    0    0  0.20285009108E+03 -0.16981784916E+03  0.22515847309E+04  0.22808156572E+04  0.25000000000E+03 0.  0.
<mgrwt>
<rscale>  0 0.79354990E+03</rscale>
<asrwt>0</asrwt>
<pdfrwt beam="1">  1        2 0.49876006E+00 0.79354990E+03</pdfrwt>
<pdfrwt beam="2">  1       -2 0.74708516E-02 0.79354990E+03</pdfrwt>
<totfact> 0.14150938E+02</totfact>
</mgrwt>
</event>
<event>
 4    1  0.6476857E-006  0.1390137E+04  0.7818608E-02  0.8960989E-01
          2   -1    0    0  501    0  0.00000000000E+00  0.00000000000E+00  0.57936860384E+03  0.57936860385E+03  0.25500000000E-02 0.  1.
         -2   -1    0    0    0  501 -0.00000000000E+00 -0.00000000000E+00 -0.83387334708E+03  0.83387334709E+03  0.25500000000E-02 0. -1.
   -5000001    1    1    2    0    0  0.38568469454E+03  0.49172583540E+03  0.49045789411E+02  0.67487218809E+03  0.25000000000E+03 0.  0.
    5000001    1    1    2    0    0 -0.38568469454E+03 -0.49172583540E+03 -0.30355053265E+03  0.73836976284E+03  0.25000000000E+03 0.  0.
<mgrwt>
<rscale>  0 0.13901367E+04</rscale>
<asrwt>0</asrwt>
<pdfrwt beam="1">  1        2 0.89133631E-01 0.13901367E+04</pdfrwt>
<pdfrwt beam="2">  1       -2 0.12828821E+00 0.13901367E+04</pdfrwt>
<totfact> 0.22622097E+01</totfact>
</mgrwt>
</event>
<event>
 4    1  0.6476857E-006  0.5497327E+03  0.7818608E-02  0.1001556E+00
          2   -1    0    0  501    0  0.00000000000E+00  0.00000000000E+00  0.14967033201E+03  0.14967033204E+03  0.25500000000E-02 0.  1.
         -2   -1    0    0    0  501 -0.00000000000E+00 -0.00000000000E+00 -0.50478610462E+03  0.50478610463E+03  0.25500000000E-02 0. -1.
   -5000001    1    1    2    0    0 -0.73998709767E+02 -0.85930162953E+02 -0.19404112071E+03  0.33617221551E+03  0.25000000000E+03 0.  0.
    5000001    1    1    2    0    0  0.73998709767E+02  0.85930162953E+02 -0.16107465189E+03  0.31828422115E+03  0.25000000000E+03 0.  0.
<mgrwt>
<rscale>  0 0.54973268E+03</rscale>
<asrwt>0</asrwt>
<pdfrwt beam="1">  1        2 0.23026205E-01 0.54973268E+03</pdfrwt>
<pdfrwt beam="2">  1       -2 0.77659400E-01 0.54973268E+03</pdfrwt>
<totfact> 0.35982539E+02</totfact>
</mgrwt>
</event>
<event>
 4    1  0.6476857E-006  0.8004675E+03  0.7818608E-02  0.9559341E-01
          2   -1    0    0  501    0  0.00000000000E+00  0.00000000000E+00  0.73681959520E+03  0.73681959520E+03  0.25500000000E-02 0.  1.
         -2   -1    0    0    0  501 -0.00000000000E+00 -0.00000000000E+00 -0.21740334297E+03  0.21740334298E+03  0.25500000000E-02 0. -1.
   -5000001    1    1    2    0    0 -0.53279571818E+02  0.25877201892E+03  0.60643363598E+02  0.36875369570E+03  0.25000000000E+03 0.  0.
    5000001    1    1    2    0    0  0.53279571818E+02 -0.25877201892E+03  0.45877288863E+03  0.58546924248E+03  0.25000000000E+03 0.  0.
<mgrwt>
<rscale>  0 0.80046747E+03</rscale>
<asrwt>0</asrwt>
<pdfrwt beam="1">  1        2 0.11335686E+00 0.80046747E+03</pdfrwt>
<pdfrwt beam="2">  1       -2 0.33446668E-01 0.80046747E+03</pdfrwt>
<totfact> 0.32211277E+02</totfact>
</mgrwt>
</event>
<event>
 4    1  0.6476857E-006  0.7196604E+03  0.7818608E-02  0.9684189E-01
         -2   -1    0    0    0  501 -0.00000000000E+00  0.00000000000E+00  0.29105588963E+02  0.29105589075E+02  0.25500000000E-02 0. -1.
          2   -1    0    0  501    0  0.00000000000E+00 -0.00000000000E+00 -0.44485541664E+04  0.44485541664E+04  0.25500000000E-02 0.  1.
   -5000001    1    1    2    0    0  0.21586539897E+02 -0.25094248473E+03 -0.18395506787E+04  0.18734686571E+04  0.25000000000E+03 0.  0.
    5000001    1    1    2    0    0 -0.21586539897E+02  0.25094248473E+03 -0.25798978987E+04  0.26041910984E+04  0.25000000000E+03 0.  0.
<mgrwt>
<rscale>  0 0.71966045E+03</rscale>
<asrwt>0</asrwt>
<pdfrwt beam="1">  1        2 0.68439241E+00 0.71966045E+03</pdfrwt>
<pdfrwt beam="2">  1       -2 0.44777864E-02 0.71966045E+03</pdfrwt>
<totfact> 0.38398621E+01</totfact>
</mgrwt>
</event>
<event>
 4    1  0.6476857E-006  0.6422804E+03  0.7818608E-02  0.9821373E-01
          2   -1    0    0  501    0  0.00000000000E+00  0.00000000000E+00  0.94963330869E+03  0.94963330870E+03  0.25500000000E-02 0.  1.
         -2   -1    0    0    0  501 -0.00000000000E+00 -0.00000000000E+00 -0.10860088788E+03  0.10860088791E+03  0.25500000000E-02 0. -1.
   -5000001    1    1    2    0    0 -0.19019536165E+03  0.60168740913E+02  0.37286415034E+03  0.49124558785E+03  0.25000000000E+03 0.  0.
    5000001    1    1    2    0    0  0.19019536165E+03 -0.60168740913E+02  0.46816827048E+03  0.56698860875E+03  0.25000000000E+03 0.  0.
<mgrwt>
<rscale>  0 0.64228038E+03</rscale>
<asrwt>0</asrwt>
<pdfrwt beam="1">  1        2 0.14609743E+00 0.64228038E+03</pdfrwt>
<pdfrwt beam="2">  1       -2 0.16707829E-01 0.64228038E+03</pdfrwt>
<totfact> 0.79764444E+02</totfact>
</mgrwt>
</event>
<event>
 4    1  0.6476857E-006  0.7532206E+03  0.7818608E-02  0.9630311E-01
          2   -1    0    0  501    0  0.00000000000E+00  0.00000000000E+00  0.65834637829E+03  0.65834637829E+03  0.25500000000E-02 0.  1.
         -2   -1    0    0    0  501 -0.00000000000E+00 -0.00000000000E+00 -0.21544178446E+03  0.21544178448E+03  0.25500000000E-02 0. -1.
   -5000001    1    1    2    0    0  0.16405530900E+03 -0.22127776120E+03  0.28966325762E+03  0.47146876337E+03  0.25000000000E+03 0.  0.
    5000001    1    1    2    0    0 -0.16405530900E+03  0.22127776120E+03  0.15324133620E+03  0.40231939940E+03  0.25000000000E+03 0.  0.
<mgrwt>
<rscale>  0 0.75322060E+03</rscale>
<asrwt>0</asrwt>
<pdfrwt beam="1">  1        2 0.10128406E+00 0.75322060E+03</pdfrwt>
<pdfrwt beam="2">  1       -2 0.33144891E-01 0.75322060E+03</pdfrwt>
<totfact> 0.37836472E+02</totfact>
</mgrwt>
</event>
<event>
 4    1  0.6476857E-006  0.5976815E+03  0.7818608E-02  0.9910228E-01
          2   -1    0    0  501    0  0.00000000000E+00  0.00000000000E+00  0.14515884085E+04  0.14515884085E+04  0.25500000000E-02 0.  1.
         -2   -1    0    0    0  501 -0.00000000000E+00 -0.00000000000E+00 -0.61522803122E+02  0.61522803175E+02  0.25500000000E-02 0. -1.
   -5000001    1    1    2    0    0  0.34681405294E+02 -0.15804317052E+03  0.63172450350E+03  0.69839551254E+03  0.25000000000E+03 0.  0.
    5000001    1    1    2    0    0 -0.34681405294E+02  0.15804317052E+03  0.75834110193E+03  0.81471569918E+03  0.25000000000E+03 0.  0.
<mgrwt>
<rscale>  0 0.59768148E+03</rscale>
<asrwt>0</asrwt>
<pdfrwt beam="1">  1        2 0.22332127E+00 0.59768148E+03</pdfrwt>
<pdfrwt beam="2">  1       -2 0.94650478E-02 0.59768148E+03</pdfrwt>
<totfact> 0.10326513E+03</totfact>
</mgrwt>
</event>
<event>
 4    1  0.6476857E-006  0.1412580E+04  0.7818608E-02  0.8944762E-01
         -2   -1    0    0    0  501 -0.00000000000E+00  0.00000000000E+00  0.37826216059E+03  0.37826216060E+03  0.25500000000E-02 0.  1.
          2   -1    0    0  501    0  0.00000000000E+00 -0.00000000000E+00 -0.13187828430E+04  0.13187828430E+04  0.25500000000E-02 0. -1.
   -5000001    1    1    2    0    0  0.35554919546E+03 -0.42781583485E+03 -0.89823492153E+03  0.10857106397E+04  0.25000000000E+03 0.  0.
    5000001    1    1    2    0    0 -0.35554919546E+03  0.42781583485E+03 -0.42285760922E+02  0.61133436393E+03  0.25000000000E+03 0.  0.
<mgrwt>
<rscale>  0 0.14125801E+04</rscale>
<asrwt>0</asrwt>
<pdfrwt beam="1">  1        2 0.20288967E+00 0.14125801E+04</pdfrwt>
<pdfrwt beam="2">  1       -2 0.58194179E-01 0.14125801E+04</pdfrwt>
<totfact> 0.43299168E+01</totfact>
</mgrwt>
</event>
<event>
 4    1  0.6476857E-006  0.7623155E+03  0.7818608E-02  0.9616225E-01
         -2   -1    0    0    0  501 -0.00000000000E+00  0.00000000000E+00  0.16782122909E+03  0.16782122911E+03  0.25500000000E-02 0. -1.
          2   -1    0    0  501    0  0.00000000000E+00 -0.00000000000E+00 -0.86569036527E+03  0.86569036527E+03  0.25500000000E-02 0.  1.
   -5000001    1    1    2    0    0  0.11423279958E+03 -0.17950566478E+03 -0.61150935365E+03  0.69405699031E+03  0.25000000000E+03 0.  0.
    5000001    1    1    2    0    0 -0.11423279958E+03  0.17950566478E+03 -0.86359782526E+02  0.33945460407E+03  0.25000000000E+03 0.  0.
<mgrwt>
<rscale>  0 0.76231548E+03</rscale>
<asrwt>0</asrwt>
<pdfrwt beam="1">  1        2 0.13318313E+00 0.76231548E+03</pdfrwt>
<pdfrwt beam="2">  1       -2 0.25818651E-01 0.76231548E+03</pdfrwt>
<totfact> 0.42062492E+02</totfact>
</mgrwt>
</event>
<event>
 4    1  0.6476857E-006  0.5417481E+03  0.7818608E-02  0.1003422E+00
          2   -1    0    0  501    0  0.00000000000E+00  0.00000000000E+00  0.36804547738E+04  0.36804547739E+04  0.25500000000E-02 0.  1.
         -2   -1    0    0    0  501 -0.00000000000E+00 -0.00000000000E+00 -0.19935786303E+02  0.19935786467E+02  0.25500000000E-02 0. -1.
   -5000001    1    1    2    0    0  0.26641708088E+02 -0.10078364553E+03  0.18464757070E+04  0.18662367643E+04  0.25000000000E+03 0.  0.
    5000001    1    1    2    0    0 -0.26641708088E+02  0.10078364553E+03  0.18140432805E+04  0.18341537960E+04  0.25000000000E+03 0.  0.
<mgrwt>
<rscale>  0 0.54174813E+03</rscale>
<asrwt>0</asrwt>
<pdfrwt beam="1">  1        2 0.56622360E+00 0.54174813E+03</pdfrwt>
<pdfrwt beam="2">  1       -2 0.30670452E-02 0.54174813E+03</pdfrwt>
<totfact> 0.29532242E+02</totfact>
</mgrwt>
</event>
<event>
 4    1  0.6476857E-006  0.7692575E+03  0.7818608E-02  0.9605614E-01
          2   -1    0    0  501    0  0.00000000000E+00  0.00000000000E+00  0.26995707538E+04  0.26995707538E+04  0.25500000000E-02 0.  1.
         -2   -1    0    0    0  501 -0.00000000000E+00 -0.00000000000E+00 -0.54801039470E+02  0.54801039529E+02  0.25500000000E-02 0. -1.
   -5000001    1    1    2    0    0  0.13473182793E+03  0.24870063073E+03  0.15863430678E+04  0.16306406710E+04  0.25000000000E+03 0.  0.
    5000001    1    1    2    0    0 -0.13473182793E+03 -0.24870063073E+03  0.10584266465E+04  0.11237311222E+04  0.25000000000E+03 0.  0.
<mgrwt>
<rscale>  0 0.76925752E+03</rscale>
<asrwt>0</asrwt>
<pdfrwt beam="1">  1        2 0.41531868E+00 0.76925752E+03</pdfrwt>
<pdfrwt beam="2">  1       -2 0.84309270E-02 0.76925752E+03</pdfrwt>
<totfact> 0.25056278E+02</totfact>
</mgrwt>
</event>
<event>
 4    1  0.6476857E-006  0.5623191E+03  0.7818608E-02  0.9986821E-01
         -2   -1    0    0    0  501 -0.00000000000E+00  0.00000000000E+00  0.11296072007E+04  0.11296072007E+04  0.25500000000E-02 0. -1.
          2   -1    0    0  501    0  0.00000000000E+00 -0.00000000000E+00 -0.69980691816E+02  0.69980691863E+02  0.25500000000E-02 0.  1.
   -5000001    1    1    2    0    0  0.97325857952E+02  0.40930287042E+02  0.68662191002E+03  0.73830702173E+03  0.25000000000E+03 0.  0.
    5000001    1    1    2    0    0 -0.97325857952E+02 -0.40930287042E+02  0.37300459888E+03  0.46128087084E+03  0.25000000000E+03 0.  0.
<mgrwt>
<rscale>  0 0.56231910E+03</rscale>
<asrwt>0</asrwt>
<pdfrwt beam="1">  1        2 0.10766260E-01 0.56231910E+03</pdfrwt>
<pdfrwt beam="2">  1       -2 0.17378572E+00 0.56231910E+03</pdfrwt>
<totfact> 0.12386908E+02</totfact>
</mgrwt>
</event>
<event>
 4    1  0.6476857E-006  0.9592568E+03  0.7818608E-02  0.9354396E-01
         -2   -1    0    0    0  501 -0.00000000000E+00  0.00000000000E+00  0.51751005320E+03  0.51751005321E+03  0.25500000000E-02 0. -1.
          2   -1    0    0  501    0  0.00000000000E+00 -0.00000000000E+00 -0.44451970249E+03  0.44451970250E+03  0.25500000000E-02 0.  1.
   -5000001    1    1    2    0    0 -0.19596384982E+03  0.29194049435E+03  0.24665362606E+03  0.49695985142E+03  0.25000000000E+03 0.  0.
    5000001    1    1    2    0    0  0.19596384982E+03 -0.29194049435E+03 -0.17366327534E+03  0.46506990429E+03  0.25000000000E+03 0.  0.
<mgrwt>
<rscale>  0 0.95925683E+03</rscale>
<asrwt>0</asrwt>
<pdfrwt beam="1">  1        2 0.68387647E-01 0.95925683E+03</pdfrwt>
<pdfrwt beam="2">  1       -2 0.79616931E-01 0.95925683E+03</pdfrwt>
<totfact> 0.98671999E+01</totfact>
</mgrwt>
</event>
<event>
 4    1  0.6476857E-006  0.6647435E+03  0.7818608E-02  0.9779501E-01
         -2   -1    0    0    0  501 -0.00000000000E+00  0.00000000000E+00  0.12870761745E+03  0.12870761748E+03  0.25500000000E-02 0. -1.
          2   -1    0    0  501    0  0.00000000000E+00 -0.00000000000E+00 -0.85830961497E+03  0.85830961498E+03  0.25500000000E-02 0.  1.
   -5000001    1    1    2    0    0 -0.16771564090E+03  0.13961240910E+03 -0.39261193793E+03  0.51406643032E+03  0.25000000000E+03 0.  0.
    5000001    1    1    2    0    0  0.16771564090E+03 -0.13961240910E+03 -0.33699005959E+03  0.47295080214E+03  0.25000000000E+03 0.  0.
<mgrwt>
<rscale>  0 0.66474352E+03</rscale>
<asrwt>0</asrwt>
<pdfrwt beam="1">  1        2 0.13204763E+00 0.66474352E+03</pdfrwt>
<pdfrwt beam="2">  1       -2 0.19801172E-01 0.66474352E+03</pdfrwt>
<totfact> 0.68439343E+02</totfact>
</mgrwt>
</event>
<event>
 4    1  0.6476857E-006  0.1152339E+04  0.7818608E-02  0.9155628E-01
         -2   -1    0    0    0  501 -0.00000000000E+00  0.00000000000E+00  0.27682271507E+03  0.27682271508E+03  0.25500000000E-02 0. -1.
          2   -1    0    0  501    0  0.00000000000E+00 -0.00000000000E+00 -0.11992200266E+04  0.11992200266E+04  0.25500000000E-02 0.  1.
   -5000001    1    1    2    0    0  0.45451873528E+03  0.24542095081E+03 -0.52717012456E+03  0.77924775524E+03  0.25000000000E+03 0.  0.
    5000001    1    1    2    0    0 -0.45451873528E+03 -0.24542095081E+03 -0.39522718700E+03  0.69679498646E+03  0.25000000000E+03 0.  0.
<mgrwt>
<rscale>  0 0.11523391E+04</rscale>
<asrwt>0</asrwt>
<pdfrwt beam="1">  1        2 0.18449539E+00 0.11523391E+04</pdfrwt>
<pdfrwt beam="2">  1       -2 0.42588110E-01 0.11523391E+04</pdfrwt>
<totfact> 0.98024543E+01</totfact>
</mgrwt>
</event>
<event>
 4    1  0.6476857E-006  0.1008873E+04  0.7818608E-02  0.9298866E-01
         -2   -1    0    0    0  501 -0.00000000000E+00  0.00000000000E+00  0.12051388274E+03  0.12051388277E+03  0.25500000000E-02 0. -1.
          2   -1    0    0  501    0  0.00000000000E+00 -0.00000000000E+00 -0.21114261704E+04  0.21114261704E+04  0.25500000000E-02 0.  1.
   -5000001    1    1    2    0    0  0.36670194031E+03  0.23931520648E+03 -0.96308641754E+03  0.10870959151E+04  0.25000000000E+03 0.  0.
    5000001    1    1    2    0    0 -0.36670194031E+03 -0.23931520648E+03 -0.10278258702E+04  0.11448441381E+04  0.25000000000E+03 0.  0.
<mgrwt>
<rscale>  0 0.10088730E+04</rscale>
<asrwt>0</asrwt>
<pdfrwt beam="1">  1        2 0.32483477E+00 0.10088730E+04</pdfrwt>
<pdfrwt beam="2">  1       -2 0.18540599E-01 0.10088730E+04</pdfrwt>
<totfact> 0.14173271E+02</totfact>
</mgrwt>
</event>
<event>
 4    1  0.6476857E-006  0.7111928E+03  0.7818608E-02  0.9698280E-01
         -2   -1    0    0    0  501 -0.00000000000E+00  0.00000000000E+00  0.72887537568E+02  0.72887537612E+02  0.25500000000E-02 0. -1.
          2   -1    0    0  501    0  0.00000000000E+00 -0.00000000000E+00 -0.17348482426E+04  0.17348482426E+04  0.25500000000E-02 0.  1.
   -5000001    1    1    2    0    0  0.23081551824E+03  0.88565219660E+02 -0.96618155142E+03  0.10281665195E+04  0.25000000000E+03 0.  0.
    5000001    1    1    2    0    0 -0.23081551824E+03 -0.88565219660E+02 -0.69577915365E+03  0.77956926072E+03  0.25000000000E+03 0.  0.
<mgrwt>
<rscale>  0 0.71119285E+03</rscale>
<asrwt>0</asrwt>
<pdfrwt beam="1">  1        2 0.26689970E+00 0.71119285E+03</pdfrwt>
<pdfrwt beam="2">  1       -2 0.11213469E-01 0.71119285E+03</pdfrwt>
<totfact> 0.54423167E+02</totfact>
</mgrwt>
</event>
<event>
 4    1  0.6476857E-006  0.8761158E+03  0.7818608E-02  0.9455940E-01
         -2   -1    0    0    0  501 -0.00000000000E+00  0.00000000000E+00  0.26213247752E+03  0.26213247754E+03  0.25500000000E-02 0. -1.
          2   -1    0    0  501    0  0.00000000000E+00 -0.00000000000E+00 -0.73205251827E+03  0.73205251828E+03  0.25500000000E-02 0.  1.
   -5000001    1    1    2    0    0 -0.11180913000E+03 -0.54227096366E+02 -0.61802136397E+03  0.67815357100E+03  0.25000000000E+03 0.  0.
    5000001    1    1    2    0    0  0.11180913000E+03  0.54227096366E+02  0.14810132322E+03  0.31603142482E+03  0.25000000000E+03 0.  0.
<mgrwt>
<rscale>  0 0.87611584E+03</rscale>
<asrwt>0</asrwt>
<pdfrwt beam="1">  1        2 0.11262346E+00 0.87611584E+03</pdfrwt>
<pdfrwt beam="2">  1       -2 0.40328074E-01 0.87611584E+03</pdfrwt>
<totfact> 0.22595223E+02</totfact>
</mgrwt>
</event>
<event>
 4    1  0.6476857E-006  0.7081248E+03  0.7818608E-02  0.9703438E-01
         -2   -1    0    0    0  501 -0.00000000000E+00  0.00000000000E+00  0.54496682869E+03  0.54496682870E+03  0.25500000000E-02 0. -1.
          2   -1    0    0  501    0  0.00000000000E+00 -0.00000000000E+00 -0.23003267532E+03  0.23003267533E+03  0.25500000000E-02 0.  1.
   -5000001    1    1    2    0    0 -0.21453974647E+03 -0.12808522899E+03  0.18008383820E+03  0.39669045550E+03  0.25000000000E+03 0.  0.
    5000001    1    1    2    0    0  0.21453974647E+03  0.12808522899E+03  0.13485031518E+03  0.37830904854E+03  0.25000000000E+03 0.  0.
<mgrwt>
<rscale>  0 0.70812478E+03</rscale>
<asrwt>0</asrwt>
<pdfrwt beam="1">  1        2 0.35389643E-01 0.70812478E+03</pdfrwt>
<pdfrwt beam="2">  1       -2 0.83841050E-01 0.70812478E+03</pdfrwt>
<totfact> 0.18546166E+02</totfact>
</mgrwt>
</event>
<event>
 4    1  0.6476857E-006  0.8635846E+03  0.7818608E-02  0.9472283E-01
          2   -1    0    0  501    0  0.00000000000E+00  0.00000000000E+00  0.73608952431E+03  0.73608952431E+03  0.25500000000E-02 0.  1.
         -2   -1    0    0    0  501 -0.00000000000E+00 -0.00000000000E+00 -0.25329062557E+03  0.25329062559E+03  0.25500000000E-02 0. -1.
   -5000001    1    1    2    0    0  0.30115548176E+03 -0.12209475188E+03  0.39656360895E+03  0.57040726554E+03  0.25000000000E+03 0.  0.
    5000001    1    1    2    0    0 -0.30115548176E+03  0.12209475188E+03  0.86235289779E+02  0.41897288436E+03  0.25000000000E+03 0.  0.
<mgrwt>
<rscale>  0 0.86358457E+03</rscale>
<asrwt>0</asrwt>
<pdfrwt beam="1">  1        2 0.11324454E+00 0.86358457E+03</pdfrwt>
<pdfrwt beam="2">  1       -2 0.38967789E-01 0.86358457E+03</pdfrwt>
<totfact> 0.24001540E+02</totfact>
</mgrwt>
</event>
<event>
 4    1  0.6476857E-006  0.6163886E+03  0.7818608E-02  0.9871976E-01
          2   -1    0    0  501    0  0.00000000000E+00  0.00000000000E+00  0.67960457142E+03  0.67960457143E+03  0.25500000000E-02 0.  1.
         -2   -1    0    0    0  501 -0.00000000000E+00 -0.00000000000E+00 -0.13976324091E+03  0.13976324093E+03  0.25500000000E-02 0. -1.
   -5000001    1    1    2    0    0  0.10798878596E+03  0.72601834964E+02  0.10415091012E+03  0.30046633158E+03  0.25000000000E+03 0.  0.
    5000001    1    1    2    0    0 -0.10798878596E+03 -0.72601834964E+02  0.43569042039E+03  0.51890148078E+03  0.25000000000E+03 0.  0.
<mgrwt>
<rscale>  0 0.61638864E+03</rscale>
<asrwt>0</asrwt>
<pdfrwt beam="1">  1        2 0.10455455E+00 0.61638864E+03</pdfrwt>
<pdfrwt beam="2">  1       -2 0.21502037E-01 0.61638864E+03</pdfrwt>
<totfact> 0.80281050E+02</totfact>
</mgrwt>
</event>
<event>
 4    1  0.6476857E-006  0.6831074E+03  0.7818608E-02  0.9746565E-01
          2   -1    0    0  501    0  0.00000000000E+00  0.00000000000E+00  0.24469447400E+04  0.24469447400E+04  0.25500000000E-02 0.  1.
         -2   -1    0    0    0  501 -0.00000000000E+00 -0.00000000000E+00 -0.47675347945E+02  0.47675348014E+02  0.25500000000E-02 0. -1.
   -5000001    1    1    2    0    0 -0.14654221861E+03  0.18078653744E+03  0.12023381059E+04  0.12499101227E+04  0.25000000000E+03 0.  0.
    5000001    1    1    2    0    0  0.14654221861E+03 -0.18078653744E+03  0.11969312862E+04  0.12447099653E+04  0.25000000000E+03 0.  0.
<mgrwt>
<rscale>  0 0.68310744E+03</rscale>
<asrwt>0</asrwt>
<pdfrwt beam="1">  1        2 0.37645300E+00 0.68310744E+03</pdfrwt>
<pdfrwt beam="2">  1       -2 0.73346696E-02 0.68310744E+03</pdfrwt>
<totfact> 0.44009896E+02</totfact>
</mgrwt>
</event>
<event>
 4    1  0.6476857E-006  0.6481442E+03  0.7818608E-02  0.9810268E-01
          2   -1    0    0  501    0  0.00000000000E+00  0.00000000000E+00  0.31192014773E+04  0.31192014773E+04  0.25500000000E-02 0.  1.
         -2   -1    0    0    0  501 -0.00000000000E+00 -0.00000000000E+00 -0.33669746931E+02  0.33669747028E+02  0.25500000000E-02 0. -1.
   -5000001    1    1    2    0    0 -0.64753990590E+02  0.16504954080E+03  0.10305335550E+04  0.10751436361E+04  0.25000000000E+03 0.  0.
    5000001    1    1    2    0    0  0.64753990590E+02 -0.16504954080E+03  0.20549981754E+04  0.20777275883E+04  0.25000000000E+03 0.  0.
<mgrwt>
<rscale>  0 0.64814420E+03</rscale>
<asrwt>0</asrwt>
<pdfrwt beam="1">  1        2 0.47987737E+00 0.64814420E+03</pdfrwt>
<pdfrwt beam="2">  1       -2 0.51799587E-02 0.64814420E+03</pdfrwt>
<totfact> 0.30658479E+02</totfact>
</mgrwt>
</event>
<event>
 4    1  0.6476857E-006  0.8709395E+03  0.7818608E-02  0.9462656E-01
          2   -1    0    0  501    0  0.00000000000E+00  0.00000000000E+00  0.56184665784E+03  0.56184665784E+03  0.25500000000E-02 0.  1.
         -2   -1    0    0    0  501 -0.00000000000E+00 -0.00000000000E+00 -0.33751895134E+03  0.33751895135E+03  0.25500000000E-02 0. -1.
   -5000001    1    1    2    0    0  0.34923593683E+03 -0.70024655370E+02  0.12896456172E+03  0.45387338555E+03  0.25000000000E+03 0.  0.
    5000001    1    1    2    0    0 -0.34923593683E+03  0.70024655370E+02  0.95363144781E+02  0.44549222363E+03  0.25000000000E+03 0.  0.
<mgrwt>
<rscale>  0 0.87093948E+03</rscale>
<asrwt>0</asrwt>
<pdfrwt beam="1">  1        2 0.86437947E-01 0.87093948E+03</pdfrwt>
<pdfrwt beam="2">  1       -2 0.51925993E-01 0.87093948E+03</pdfrwt>
<totfact> 0.18884757E+02</totfact>
</mgrwt>
</event>
<event>
 4    1  0.6476857E-006  0.8716522E+03  0.7818608E-02  0.9461728E-01
          2   -1    0    0  501    0  0.00000000000E+00  0.00000000000E+00  0.92911634167E+03  0.92911634168E+03  0.25500000000E-02 0.  1.
         -2   -1    0    0    0  501 -0.00000000000E+00 -0.00000000000E+00 -0.20443554074E+03  0.20443554075E+03  0.25500000000E-02 0. -1.
   -5000001    1    1    2    0    0  0.33714330021E+03 -0.11702337726E+03  0.35039834768E+03  0.55914137547E+03  0.25000000000E+03 0.  0.
    5000001    1    1    2    0    0 -0.33714330021E+03  0.11702337726E+03  0.37428245325E+03  0.57441050697E+03  0.25000000000E+03 0.  0.
<mgrwt>
<rscale>  0 0.87165223E+03</rscale>
<asrwt>0</asrwt>
<pdfrwt beam="1">  1        2 0.14294098E+00 0.87165223E+03</pdfrwt>
<pdfrwt beam="2">  1       -2 0.31451621E-01 0.87165223E+03</pdfrwt>
<totfact> 0.26365590E+02</totfact>
</mgrwt>
</event>
<event>
 4    1  0.6476857E-006  0.7255549E+03  0.7818608E-02  0.9674501E-01
          2   -1    0    0  501    0  0.00000000000E+00  0.00000000000E+00  0.10284148265E+04  0.10284148265E+04  0.25500000000E-02 0.  1.
         -2   -1    0    0    0  501 -0.00000000000E+00 -0.00000000000E+00 -0.12797121598E+03  0.12797121600E+03  0.25500000000E-02 0. -1.
   -5000001    1    1    2    0    0 -0.18809182528E+03 -0.65126890459E+01  0.74274531436E+03  0.80597242624E+03  0.25000000000E+03 0.  0.
    5000001    1    1    2    0    0  0.18809182528E+03  0.65126890459E+01  0.15769829618E+03  0.35041361628E+03  0.25000000000E+03 0.  0.
<mgrwt>
<rscale>  0 0.72555495E+03</rscale>
<asrwt>0</asrwt>
<pdfrwt beam="1">  1        2 0.15821766E+00 0.72555495E+03</pdfrwt>
<pdfrwt beam="2">  1       -2 0.19687880E-01 0.72555495E+03</pdfrwt>
<totfact> 0.53348999E+02</totfact>
</mgrwt>
</event>
<event>
 4    1  0.6476857E-006  0.7310869E+03  0.7818608E-02  0.9665498E-01
         -2   -1    0    0    0  501 -0.00000000000E+00  0.00000000000E+00  0.97335898906E+02  0.97335898939E+02  0.25500000000E-02 0. -1.
          2   -1    0    0  501    0  0.00000000000E+00 -0.00000000000E+00 -0.13727928365E+04  0.13727928365E+04  0.25500000000E-02 0.  1.
   -5000001    1    1    2    0    0  0.18822450611E+03  0.42751464932E+02 -0.26767244334E+03  0.41401049428E+03  0.25000000000E+03 0.  0.
    5000001    1    1    2    0    0 -0.18822450611E+03 -0.42751464932E+02 -0.10077844943E+04  0.10561182412E+04  0.25000000000E+03 0.  0.
<mgrwt>
<rscale>  0 0.73108693E+03</rscale>
<asrwt>0</asrwt>
<pdfrwt beam="1">  1        2 0.21119888E+00 0.73108693E+03</pdfrwt>
<pdfrwt beam="2">  1       -2 0.14974755E-01 0.73108693E+03</pdfrwt>
<totfact> 0.53289457E+02</totfact>
</mgrwt>
</event>
<event>
 4    1  0.6476857E-006  0.1106937E+04  0.7818608E-02  0.9198457E-01
          2   -1    0    0  501    0  0.00000000000E+00  0.00000000000E+00  0.35798961027E+04  0.35798961027E+04  0.25500000000E-02 0.  1.
         -2   -1    0    0    0  501 -0.00000000000E+00 -0.00000000000E+00 -0.85568832306E+02  0.85568832344E+02  0.25500000000E-02 0. -1.
   -5000001    1    1    2    0    0  0.21356317714E+03 -0.43718507412E+03  0.14683892335E+04  0.15669738226E+04  0.25000000000E+03 0.  0.
    5000001    1    1    2    0    0 -0.21356317714E+03  0.43718507412E+03  0.20259380369E+04  0.20984911124E+04  0.25000000000E+03 0.  0.
<mgrwt>
<rscale>  0 0.11069373E+04</rscale>
<asrwt>0</asrwt>
<pdfrwt beam="1">  1        2 0.55075326E+00 0.11069373E+04</pdfrwt>
<pdfrwt beam="2">  1       -2 0.13164435E-01 0.11069373E+04</pdfrwt>
<totfact> 0.32043284E+01</totfact>
</mgrwt>
</event>
<event>
 4    1  0.6476857E-006  0.8433738E+03  0.7818608E-02  0.9499274E-01
          2   -1    0    0  501    0  0.00000000000E+00  0.00000000000E+00  0.29329221358E+04  0.29329221358E+04  0.25500000000E-02 0.  1.
         -2   -1    0    0    0  501 -0.00000000000E+00 -0.00000000000E+00 -0.60628893661E+02  0.60628893714E+02  0.25500000000E-02 0. -1.
   -5000001    1    1    2    0    0 -0.24071932178E+03 -0.17855567242E+03  0.20028655538E+04  0.20405387393E+04  0.25000000000E+03 0.  0.
    5000001    1    1    2    0    0  0.24071932178E+03  0.17855567242E+03  0.86942768833E+03  0.95301229019E+03  0.25000000000E+03 0.  0.
<mgrwt>
<rscale>  0 0.84337376E+03</rscale>
<asrwt>0</asrwt>
<pdfrwt beam="1">  1        2 0.45121883E+00 0.84337376E+03</pdfrwt>
<pdfrwt beam="2">  1       -2 0.93275214E-02 0.84337376E+03</pdfrwt>
<totfact> 0.15351031E+02</totfact>
</mgrwt>
</event>
<event>
 4    1  0.6476857E-006  0.8258340E+03  0.7818608E-02  0.9523358E-01
         -2   -1    0    0    0  501 -0.00000000000E+00  0.00000000000E+00  0.54218562721E+03  0.54218562722E+03  0.25500000000E-02 0. -1.
          2   -1    0    0  501    0  0.00000000000E+00 -0.00000000000E+00 -0.31446877731E+03  0.31446877732E+03  0.25500000000E-02 0.  1.
   -5000001    1    1    2    0    0 -0.15511430790E+03  0.20371816665E+02  0.41365116469E+03  0.50801844994E+03  0.25000000000E+03 0.  0.
    5000001    1    1    2    0    0  0.15511430790E+03 -0.20371816665E+02 -0.18593431478E+03  0.34863595460E+03  0.25000000000E+03 0.  0.
<mgrwt>
<rscale>  0 0.82583401E+03</rscale>
<asrwt>0</asrwt>
<pdfrwt beam="1">  1        2 0.48379812E-01 0.82583401E+03</pdfrwt>
<pdfrwt beam="2">  1       -2 0.83413174E-01 0.82583401E+03</pdfrwt>
<totfact> 0.13188644E+02</totfact>
</mgrwt>
</event>
<event>
 4    1  0.6476857E-006  0.8672477E+03  0.7818608E-02  0.9467476E-01
          2   -1    0    0  501    0  0.00000000000E+00  0.00000000000E+00  0.37456564509E+03  0.37456564510E+03  0.25500000000E-02 0.  1.
         -2   -1    0    0    0  501 -0.00000000000E+00 -0.00000000000E+00 -0.50199388016E+03  0.50199388016E+03  0.25500000000E-02 0. -1.
   -5000001    1    1    2    0    0  0.20552269840E+03  0.21776065063E+03 -0.25514245635E+03  0.46610830668E+03  0.25000000000E+03 0.  0.
    5000001    1    1    2    0    0 -0.20552269840E+03 -0.21776065063E+03  0.12771422128E+03  0.41045121859E+03  0.25000000000E+03 0.  0.
<mgrwt>
<rscale>  0 0.86724774E+03</rscale>
<asrwt>0</asrwt>
<pdfrwt beam="1">  1        2 0.57625484E-01 0.86724774E+03</pdfrwt>
<pdfrwt beam="2">  1       -2 0.77229828E-01 0.86724774E+03</pdfrwt>
<totfact> 0.12878490E+02</totfact>
</mgrwt>
</event>
<event>
 4    1  0.6476857E-006  0.5625074E+03  0.7818608E-02  0.9986397E-01
         -2   -1    0    0    0  501 -0.00000000000E+00  0.00000000000E+00  0.23607816810E+02  0.23607816947E+02  0.25500000000E-02 0. -1.
          2   -1    0    0  501    0  0.00000000000E+00 -0.00000000000E+00 -0.33507399749E+04  0.33507399749E+04  0.25500000000E-02 0.  1.
   -5000001    1    1    2    0    0 -0.99074049241E+01  0.84378197360E+02 -0.22447286744E+04  0.22602045613E+04  0.25000000000E+03 0.  0.
    5000001    1    1    2    0    0  0.99074049241E+01 -0.84378197360E+02 -0.10824034837E+04  0.11141432306E+04  0.25000000000E+03 0.  0.
<mgrwt>
<rscale>  0 0.56250744E+03</rscale>
<asrwt>0</asrwt>
<pdfrwt beam="1">  1        2 0.51549808E+00 0.56250744E+03</pdfrwt>
<pdfrwt beam="2">  1       -2 0.36319745E-02 0.56250744E+03</pdfrwt>
<totfact> 0.38135859E+02</totfact>
</mgrwt>
</event>
<event>
 4    1  0.6476857E-006  0.7143768E+03  0.7818608E-02  0.9692957E-01
          2   -1    0    0  501    0  0.00000000000E+00  0.00000000000E+00  0.47686749240E+03  0.47686749240E+03  0.25500000000E-02 0.  1.
         -2   -1    0    0    0  501 -0.00000000000E+00 -0.00000000000E+00 -0.26754509423E+03  0.26754509425E+03  0.25500000000E-02 0. -1.
   -5000001    1    1    2    0    0  0.82477459453E+02 -0.20906462792E+03 -0.21133100712E+02  0.33683402131E+03  0.25000000000E+03 0.  0.
    5000001    1    1    2    0    0 -0.82477459453E+02  0.20906462792E+03  0.23045549887E+03  0.40757856534E+03  0.25000000000E+03 0.  0.
<mgrwt>
<rscale>  0 0.71437681E+03</rscale>
<asrwt>0</asrwt>
<pdfrwt beam="1">  1        2 0.73364229E-01 0.71437681E+03</pdfrwt>
<pdfrwt beam="2">  1       -2 0.41160784E-01 0.71437681E+03</pdfrwt>
<totfact> 0.36664546E+02</totfact>
</mgrwt>
</event>
<event>
 4    1  0.6476857E-006  0.7432673E+03  0.7818608E-02  0.9645973E-01
         -2   -1    0    0    0  501 -0.00000000000E+00  0.00000000000E+00  0.17315830729E+03  0.17315830731E+03  0.25500000000E-02 0. -1.
          2   -1    0    0  501    0  0.00000000000E+00 -0.00000000000E+00 -0.79760287673E+03  0.79760287673E+03  0.25500000000E-02 0.  1.
   -5000001    1    1    2    0    0  0.85490474878E+02 -0.13055228874E+03 -0.60792317404E+03  0.67559093165E+03  0.25000000000E+03 0.  0.
    5000001    1    1    2    0    0 -0.85490474878E+02  0.13055228874E+03 -0.16521395400E+02  0.29517025239E+03  0.25000000000E+03 0.  0.
<mgrwt>
<rscale>  0 0.74326728E+03</rscale>
<asrwt>0</asrwt>
<pdfrwt beam="1">  1        2 0.12270813E+00 0.74326728E+03</pdfrwt>
<pdfrwt beam="2">  1       -2 0.26639740E-01 0.74326728E+03</pdfrwt>
<totfact> 0.44401244E+02</totfact>
</mgrwt>
</event>
<event>
 4    1  0.6476857E-006  0.7087289E+03  0.7818608E-02  0.9702420E-01
         -2   -1    0    0    0  501 -0.00000000000E+00  0.00000000000E+00  0.23323976852E+03  0.23323976853E+03  0.25500000000E-02 0. -1.
          2   -1    0    0  501    0  0.00000000000E+00 -0.00000000000E+00 -0.53839092774E+03  0.53839092775E+03  0.25500000000E-02 0.  1.
   -5000001    1    1    2    0    0 -0.23110453764E+03 -0.59319214833E+02 -0.67220553116E+02  0.35206061883E+03  0.25000000000E+03 0.  0.
    5000001    1    1    2    0    0  0.23110453764E+03  0.59319214833E+02 -0.23793060611E+03  0.41957007745E+03  0.25000000000E+03 0.  0.
<mgrwt>
<rscale>  0 0.70872893E+03</rscale>
<asrwt>0</asrwt>
<pdfrwt beam="1">  1        2 0.82829373E-01 0.70872893E+03</pdfrwt>
<pdfrwt beam="2">  1       -2 0.35883042E-01 0.70872893E+03</pdfrwt>
<totfact> 0.41527275E+02</totfact>
</mgrwt>
</event>
<event>
 4    1  0.6476857E-006  0.6747689E+03  0.7818608E-02  0.9761381E-01
         -2   -1    0    0    0  501 -0.00000000000E+00  0.00000000000E+00  0.12208823295E+04  0.12208823295E+04  0.25500000000E-02 0. -1.
          2   -1    0    0  501    0  0.00000000000E+00 -0.00000000000E+00 -0.93234440223E+02  0.93234440258E+02  0.25500000000E-02 0.  1.
   -5000001    1    1    2    0    0  0.20199117025E+03  0.49236627420E+02  0.38850940633E+03  0.50662040735E+03  0.25000000000E+03 0.  0.
    5000001    1    1    2    0    0 -0.20199117025E+03 -0.49236627420E+02  0.73913848299E+03  0.80749636246E+03  0.25000000000E+03 0.  0.
<mgrwt>
<rscale>  0 0.67476894E+03</rscale>
<asrwt>0</asrwt>
<pdfrwt beam="1">  1        2 0.14343760E-01 0.67476894E+03</pdfrwt>
<pdfrwt beam="2">  1       -2 0.18782805E+00 0.67476894E+03</pdfrwt>
<totfact> 0.69219222E+01</totfact>
</mgrwt>
</event>
<event>
 4    1  0.6476857E-006  0.6697542E+03  0.7818608E-02  0.9770402E-01
         -2   -1    0    0    0  501 -0.00000000000E+00  0.00000000000E+00  0.11569882268E+03  0.11569882270E+03  0.25500000000E-02 0. -1.
          2   -1    0    0  501    0  0.00000000000E+00 -0.00000000000E+00 -0.96926372789E+03  0.96926372790E+03  0.25500000000E-02 0.  1.
   -5000001    1    1    2    0    0  0.14887738583E+03 -0.14692635100E+03 -0.30244898472E+03  0.44466528647E+03  0.25000000000E+03 0.  0.
    5000001    1    1    2    0    0 -0.14887738583E+03  0.14692635100E+03 -0.55111592049E+03  0.64029726413E+03  0.25000000000E+03 0.  0.
<mgrwt>
<rscale>  0 0.66975420E+03</rscale>
<asrwt>0</asrwt>
<pdfrwt beam="1">  1        2 0.14911749E+00 0.66975420E+03</pdfrwt>
<pdfrwt beam="2">  1       -2 0.17799819E-01 0.66975420E+03</pdfrwt>
<totfact> 0.69435339E+02</totfact>
</mgrwt>
</event>
<event>
 4    1  0.6476857E-006  0.1174176E+04  0.7818608E-02  0.9135766E-01
          2   -1    0    0  501    0  0.00000000000E+00  0.00000000000E+00  0.33299197175E+04  0.33299197175E+04  0.25500000000E-02 0.  1.
         -2   -1    0    0    0  501 -0.00000000000E+00 -0.00000000000E+00 -0.10350762271E+03  0.10350762275E+03  0.25500000000E-02 0. -1.
   -5000001    1    1    2    0    0 -0.13103843427E+03  0.51072514849E+03  0.18018246646E+04  0.18939597066E+04  0.25000000000E+03 0.  0.
    5000001    1    1    2    0    0  0.13103843427E+03 -0.51072514849E+03  0.14245874302E+04  0.15394676336E+04  0.25000000000E+03 0.  0.
<mgrwt>
<rscale>  0 0.11741756E+04</rscale>
<asrwt>0</asrwt>
<pdfrwt beam="1">  1        2 0.51229540E+00 0.11741756E+04</pdfrwt>
<pdfrwt beam="2">  1       -2 0.15924248E-01 0.11741756E+04</pdfrwt>
<totfact> 0.34117208E+01</totfact>
</mgrwt>
</event>
<event>
 4    1  0.6476857E-006  0.1148989E+04  0.7818608E-02  0.9158717E-01
         -2   -1    0    0    0  501 -0.00000000000E+00  0.00000000000E+00  0.34785399814E+03  0.34785399815E+03  0.25500000000E-02 0. -1.
          2   -1    0    0  501    0  0.00000000000E+00 -0.00000000000E+00 -0.94879965267E+03  0.94879965267E+03  0.25500000000E-02 0.  1.
   -5000001    1    1    2    0    0  0.73813733146E+02 -0.33302247598E+03  0.13833226291E+03  0.44495870782E+03  0.25000000000E+03 0.  0.
    5000001    1    1    2    0    0 -0.73813733146E+02  0.33302247598E+03 -0.73927791744E+03  0.85169494299E+03  0.25000000000E+03 0.  0.
<mgrwt>
<rscale>  0 0.11489887E+04</rscale>
<asrwt>0</asrwt>
<pdfrwt beam="1">  1        2 0.14596918E+00 0.11489887E+04</pdfrwt>
<pdfrwt beam="2">  1       -2 0.53516000E-01 0.11489887E+04</pdfrwt>
<totfact> 0.88601090E+01</totfact>
</mgrwt>
</event>
<event>
 4    1  0.6476857E-006  0.8918010E+03  0.7818608E-02  0.9435889E-01
         -2   -1    0    0    0  501 -0.00000000000E+00  0.00000000000E+00  0.33939554772E+03  0.33939554772E+03  0.25500000000E-02 0. -1.
          2   -1    0    0  501    0  0.00000000000E+00 -0.00000000000E+00 -0.58582753848E+03  0.58582753849E+03  0.25500000000E-02 0.  1.
   -5000001    1    1    2    0    0 -0.33997428709E+02 -0.29381532605E+03  0.10607344695E+03  0.40154059213E+03  0.25000000000E+03 0.  0.
    5000001    1    1    2    0    0  0.33997428709E+02  0.29381532605E+03 -0.35250543772E+03  0.52368249408E+03  0.25000000000E+03 0.  0.
<mgrwt>
<rscale>  0 0.89180101E+03</rscale>
<asrwt>0</asrwt>
<pdfrwt beam="1">  1        2 0.90127314E-01 0.89180101E+03</pdfrwt>
<pdfrwt beam="2">  1       -2 0.52214700E-01 0.89180101E+03</pdfrwt>
<totfact> 0.17742748E+02</totfact>
</mgrwt>
</event>
<event>
 4    1  0.6476857E-006  0.1238851E+04  0.7818608E-02  0.9079514E-01
          2   -1    0    0  501    0  0.00000000000E+00  0.00000000000E+00  0.72518082981E+03  0.72518082982E+03  0.25500000000E-02 0. -1.
         -2   -1    0    0    0  501 -0.00000000000E+00 -0.00000000000E+00 -0.52909269128E+03  0.52909269128E+03  0.25500000000E-02 0.  1.
   -5000001    1    1    2    0    0 -0.40598911331E+03 -0.24663730579E+03  0.41097235960E+03  0.67605872607E+03  0.25000000000E+03 0.  0.
    5000001    1    1    2    0    0  0.40598911331E+03  0.24663730579E+03 -0.21488422106E+03  0.57821479503E+03  0.25000000000E+03 0.  0.
<mgrwt>
<rscale>  0 0.12388509E+04</rscale>
<asrwt>0</asrwt>
<pdfrwt beam="1">  1        2 0.11156628E+00 0.12388509E+04</pdfrwt>
<pdfrwt beam="2">  1       -2 0.81398876E-01 0.12388509E+04</pdfrwt>
<totfact> 0.51266734E+01</totfact>
</mgrwt>
</event>
<event>
 4    1  0.6476857E-006  0.1598840E+04  0.7818608E-02  0.8821261E-01
         -2   -1    0    0    0  501 -0.00000000000E+00  0.00000000000E+00  0.41225470223E+03  0.41225470224E+03  0.25500000000E-02 0. -1.
          2   -1    0    0  501    0  0.00000000000E+00 -0.00000000000E+00 -0.15501872111E+04  0.15501872111E+04  0.25500000000E-02 0.  1.
   -5000001    1    1    2    0    0  0.98750602710E+02 -0.73737033643E+03 -0.38239381967E+03  0.87303592590E+03  0.25000000000E+03 0.  0.
    5000001    1    1    2    0    0 -0.98750602710E+02  0.73737033643E+03 -0.75553868916E+03  0.10894059874E+04  0.25000000000E+03 0.  0.
<mgrwt>
<rscale>  0 0.15988395E+04</rscale>
<asrwt>0</asrwt>
<pdfrwt beam="1">  1        2 0.23849034E+00 0.15988395E+04</pdfrwt>
<pdfrwt beam="2">  1       -2 0.63423801E-01 0.15988395E+04</pdfrwt>
<totfact> 0.26245146E+01</totfact>
</mgrwt>
</event>
<event>
 4    1  0.6476857E-006  0.6273045E+03  0.7818608E-02  0.9850323E-01
          2   -1    0    0  501    0  0.00000000000E+00  0.00000000000E+00  0.12215237744E+04  0.12215237744E+04  0.25500000000E-02 0.  1.
         -2   -1    0    0    0  501 -0.00000000000E+00 -0.00000000000E+00 -0.80536885838E+02  0.80536885878E+02  0.25500000000E-02 0. -1.
   -5000001    1    1    2    0    0  0.11821189014E+03  0.80460443136E+02  0.82832306382E+03  0.87696466972E+03  0.25000000000E+03 0.  0.
    5000001    1    1    2    0    0 -0.11821189014E+03 -0.80460443136E+02  0.31266382469E+03  0.42509599052E+03  0.25000000000E+03 0.  0.
<mgrwt>
<rscale>  0 0.62730446E+03</rscale>
<asrwt>0</asrwt>
<pdfrwt beam="1">  1        2 0.18792674E+00 0.62730446E+03</pdfrwt>
<pdfrwt beam="2">  1       -2 0.12390290E-01 0.62730446E+03</pdfrwt>
<totfact> 0.89795660E+02</totfact>
</mgrwt>
</event>
<event>
 4    1  0.6476857E-006  0.7447199E+03  0.7818608E-02  0.9643671E-01
         -2   -1    0    0    0  501 -0.00000000000E+00  0.00000000000E+00  0.13700019341E+04  0.13700019341E+04  0.25500000000E-02 0. -1.
          2   -1    0    0  501    0  0.00000000000E+00 -0.00000000000E+00 -0.10120563966E+03  0.10120563969E+03  0.25500000000E-02 0.  1.
   -5000001    1    1    2    0    0  0.46215450738E+02  0.24503772388E+03  0.40088081183E+03  0.53421416989E+03  0.25000000000E+03 0.  0.
    5000001    1    1    2    0    0 -0.46215450738E+02 -0.24503772388E+03  0.86791548265E+03  0.93699340395E+03  0.25000000000E+03 0.  0.
<mgrwt>
<rscale>  0 0.74471987E+03</rscale>
<asrwt>0</asrwt>
<pdfrwt beam="1">  1        2 0.15570099E-01 0.74471987E+03</pdfrwt>
<pdfrwt beam="2">  1       -2 0.21076951E+00 0.74471987E+03</pdfrwt>
<totfact> 0.44232778E+01</totfact>
</mgrwt>
</event>
<event>
 4    1  0.6476857E-006  0.8242270E+03  0.7818608E-02  0.9525597E-01
          2   -1    0    0  501    0  0.00000000000E+00  0.00000000000E+00  0.17951140047E+04  0.17951140047E+04  0.25500000000E-02 0. -1.
         -2   -1    0    0    0  501 -0.00000000000E+00 -0.00000000000E+00 -0.94610999597E+02  0.94610999631E+02  0.25500000000E-02 0.  1.
   -5000001    1    1    2    0    0  0.17147494431E+03  0.13588766146E+03  0.29114444912E+03  0.44173997251E+03  0.25000000000E+03 0.  0.
    5000001    1    1    2    0    0 -0.17147494431E+03 -0.13588766146E+03  0.14093585560E+04  0.14479850318E+04  0.25000000000E+03 0.  0.
<mgrwt>
<rscale>  0 0.82422698E+03</rscale>
<asrwt>0</asrwt>
<pdfrwt beam="1">  1        2 0.27617137E+00 0.82422698E+03</pdfrwt>
<pdfrwt beam="2">  1       -2 0.14555539E-01 0.82422698E+03</pdfrwt>
<totfact> 0.32439248E+02</totfact>
</mgrwt>
</event>
<event>
 4    1  0.6476857E-006  0.9016351E+03  0.7818608E-02  0.9423540E-01
         -2   -1    0    0    0  501 -0.00000000000E+00  0.00000000000E+00  0.17928279554E+03  0.17928279556E+03  0.25500000000E-02 0. -1.
          2   -1    0    0  501    0  0.00000000000E+00 -0.00000000000E+00 -0.11336083875E+04  0.11336083875E+04  0.25500000000E-02 0.  1.
   -5000001    1    1    2    0    0  0.94701271358E+02 -0.35453043520E+03 -0.59066864439E+03  0.73895169514E+03  0.25000000000E+03 0.  0.
    5000001    1    1    2    0    0 -0.94701271358E+02  0.35453043520E+03 -0.36365694754E+03  0.57393948790E+03  0.25000000000E+03 0.  0.
<mgrwt>
<rscale>  0 0.90163514E+03</rscale>
<asrwt>0</asrwt>
<pdfrwt beam="1">  1        2 0.17440129E+00 0.90163514E+03</pdfrwt>
<pdfrwt beam="2">  1       -2 0.27581969E-01 0.90163514E+03</pdfrwt>
<totfact> 0.24922997E+02</totfact>
</mgrwt>
</event>
<event>
 4    1  0.6476857E-006  0.1040706E+04  0.7818608E-02  0.9264992E-01
         -2   -1    0    0    0  501 -0.00000000000E+00  0.00000000000E+00  0.70534736007E+02  0.70534736053E+02  0.25500000000E-02 0. -1.
          2   -1    0    0  501    0  0.00000000000E+00 -0.00000000000E+00 -0.38387785485E+04  0.38387785485E+04  0.25500000000E-02 0.  1.
   -5000001    1    1    2    0    0  0.13125162437E+03 -0.17355050671E+03 -0.33909998143E+04  0.34071581278E+04  0.25000000000E+03 0.  0.
    5000001    1    1    2    0    0 -0.13125162437E+03  0.17355050671E+03 -0.37724399821E+03  0.50215515677E+03  0.25000000000E+03 0.  0.
<mgrwt>
<rscale>  0 0.10407060E+04</rscale>
<asrwt>0</asrwt>
<pdfrwt beam="1">  1        2 0.59058115E+00 0.10407060E+04</pdfrwt>
<pdfrwt beam="2">  1       -2 0.10851501E-01 0.10407060E+04</pdfrwt>
<totfact> 0.28844593E+01</totfact>
</mgrwt>
</event>
<event>
 4    1  0.6476857E-006  0.6628471E+03  0.7818608E-02  0.9782967E-01
          2   -1    0    0  501    0  0.00000000000E+00  0.00000000000E+00  0.60917436213E+03  0.60917436214E+03  0.25500000000E-02 0.  1.
         -2   -1    0    0    0  501 -0.00000000000E+00 -0.00000000000E+00 -0.18031218184E+03  0.18031218186E+03  0.25500000000E-02 0. -1.
   -5000001    1    1    2    0    0 -0.26178108368E+02 -0.21362641326E+03  0.17639149745E+03  0.37407953456E+03  0.25000000000E+03 0.  0.
    5000001    1    1    2    0    0  0.26178108368E+02  0.21362641326E+03  0.25247068283E+03  0.41540700944E+03  0.25000000000E+03 0.  0.
<mgrwt>
<rscale>  0 0.66284707E+03</rscale>
<asrwt>0</asrwt>
<pdfrwt beam="1">  1        2 0.93719132E-01 0.66284707E+03</pdfrwt>
<pdfrwt beam="2">  1       -2 0.27740336E-01 0.66284707E+03</pdfrwt>
<totfact> 0.58062586E+02</totfact>
</mgrwt>
</event>
<event>
 4    1  0.6476857E-006  0.6048445E+03  0.7818608E-02  0.9895406E-01
         -2   -1    0    0    0  501 -0.00000000000E+00  0.00000000000E+00  0.11158409582E+03  0.11158409585E+03  0.25500000000E-02 0. -1.
          2   -1    0    0  501    0  0.00000000000E+00 -0.00000000000E+00 -0.81964390733E+03  0.81964390733E+03  0.25500000000E-02 0.  1.
   -5000001    1    1    2    0    0 -0.73804673531E+01 -0.15007075826E+03 -0.47704046825E+03  0.55914516195E+03  0.25000000000E+03 0.  0.
    5000001    1    1    2    0    0  0.73804673531E+01  0.15007075826E+03 -0.23101934325E+03  0.37208284123E+03  0.25000000000E+03 0.  0.
<mgrwt>
<rscale>  0 0.60484452E+03</rscale>
<asrwt>0</asrwt>
<pdfrwt beam="1">  1        2 0.12609906E+00 0.60484452E+03</pdfrwt>
<pdfrwt beam="2">  1       -2 0.17166785E-01 0.60484452E+03</pdfrwt>
<totfact> 0.93319215E+02</totfact>
</mgrwt>
</event>
<event>
 4    1  0.6476857E-006  0.7448965E+03  0.7818608E-02  0.9643391E-01
         -2   -1    0    0    0  501 -0.00000000000E+00  0.00000000000E+00  0.18907140346E+03  0.18907140348E+03  0.25500000000E-02 0. -1.
          2   -1    0    0  501    0  0.00000000000E+00 -0.00000000000E+00 -0.73367892482E+03  0.73367892483E+03  0.25500000000E-02 0.  1.
   -5000001    1    1    2    0    0  0.22823961887E+03  0.14931402605E+03 -0.21931564815E+03  0.43010156419E+03  0.25000000000E+03 0.  0.
    5000001    1    1    2    0    0 -0.22823961887E+03 -0.14931402605E+03 -0.32529187321E+03  0.49264876411E+03  0.25000000000E+03 0.  0.
<mgrwt>
<rscale>  0 0.74489651E+03</rscale>
<asrwt>0</asrwt>
<pdfrwt beam="1">  1        2 0.11287368E+00 0.74489651E+03</pdfrwt>
<pdfrwt beam="2">  1       -2 0.29087909E-01 0.74489651E+03</pdfrwt>
<totfact> 0.42130144E+02</totfact>
</mgrwt>
</event>
<event>
 4    1  0.6476857E-006  0.7148572E+03  0.7818608E-02  0.9692156E-01
         -2   -1    0    0    0  501 -0.00000000000E+00  0.00000000000E+00  0.13729232988E+03  0.13729232990E+03  0.25500000000E-02 0. -1.
          2   -1    0    0  501    0  0.00000000000E+00 -0.00000000000E+00 -0.93053413718E+03  0.93053413718E+03  0.25500000000E-02 0.  1.
   -5000001    1    1    2    0    0 -0.21517051735E+03 -0.13555115614E+03 -0.43268009053E+03  0.56070003407E+03  0.25000000000E+03 0.  0.
    5000001    1    1    2    0    0  0.21517051735E+03  0.13555115614E+03 -0.36056171676E+03  0.50712643301E+03  0.25000000000E+03 0.  0.
<mgrwt>
<rscale>  0 0.71485719E+03</rscale>
<asrwt>0</asrwt>
<pdfrwt beam="1">  1        2 0.14315909E+00 0.71485719E+03</pdfrwt>
<pdfrwt beam="2">  1       -2 0.21121897E-01 0.71485719E+03</pdfrwt>
<totfact> 0.54549942E+02</totfact>
</mgrwt>
</event>
<event>
 4    1  0.6476857E-006  0.8750331E+03  0.7818608E-02  0.9457341E-01
         -2   -1    0    0    0  501 -0.00000000000E+00  0.00000000000E+00  0.45667190626E+03  0.45667190627E+03  0.25500000000E-02 0. -1.
          2   -1    0    0  501    0  0.00000000000E+00 -0.00000000000E+00 -0.41916464586E+03  0.41916464586E+03  0.25500000000E-02 0.  1.
   -5000001    1    1    2    0    0  0.27528902604E+03  0.11340388411E+03  0.21962729419E+03  0.44652058983E+03  0.25000000000E+03 0.  0.
    5000001    1    1    2    0    0 -0.27528902604E+03 -0.11340388411E+03 -0.18212003378E+03  0.42931596231E+03  0.25000000000E+03 0.  0.
<mgrwt>
<rscale>  0 0.87503307E+03</rscale>
<asrwt>0</asrwt>
<pdfrwt beam="1">  1        2 0.64486869E-01 0.87503307E+03</pdfrwt>
<pdfrwt beam="2">  1       -2 0.70257216E-01 0.87503307E+03</pdfrwt>
<totfact> 0.13977565E+02</totfact>
</mgrwt>
</event>
<event>
 4    1  0.6476857E-006  0.1109853E+04  0.7818608E-02  0.9195641E-01
         -2   -1    0    0    0  501 -0.00000000000E+00  0.00000000000E+00  0.64102170258E+03  0.64102170259E+03  0.25500000000E-02 0. -1.
          2   -1    0    0  501    0  0.00000000000E+00 -0.00000000000E+00 -0.48039470288E+03  0.48039470289E+03  0.25500000000E-02 0.  1.
   -5000001    1    1    2    0    0 -0.62511898771E+02 -0.43945320094E+03 -0.14201671063E+03  0.52886255247E+03  0.25000000000E+03 0.  0.
    5000001    1    1    2    0    0  0.62511898771E+02  0.43945320094E+03  0.30264371033E+03  0.59255385300E+03  0.25000000000E+03 0.  0.
<mgrwt>
<rscale>  0 0.11098530E+04</rscale>
<asrwt>0</asrwt>
<pdfrwt beam="1">  1        2 0.73906878E-01 0.11098530E+04</pdfrwt>
<pdfrwt beam="2">  1       -2 0.98618723E-01 0.11098530E+04</pdfrwt>
<totfact> 0.54655830E+01</totfact>
</mgrwt>
</event>
<event>
 4    1  0.6476857E-006  0.6558024E+03  0.7818608E-02  0.9795952E-01
         -2   -1    0    0    0  501 -0.00000000000E+00  0.00000000000E+00  0.84295492506E+02  0.84295492544E+02  0.25500000000E-02 0. -1.
          2   -1    0    0  501    0  0.00000000000E+00 -0.00000000000E+00 -0.12755034643E+04  0.12755034643E+04  0.25500000000E-02 0.  1.
   -5000001    1    1    2    0    0 -0.19728507806E+03  0.54017706780E+02 -0.71252886898E+03  0.78232774704E+03  0.25000000000E+03 0.  0.
    5000001    1    1    2    0    0  0.19728507806E+03 -0.54017706780E+02 -0.47867910280E+03  0.57747120979E+03  0.25000000000E+03 0.  0.
<mgrwt>
<rscale>  0 0.65580239E+03</rscale>
<asrwt>0</asrwt>
<pdfrwt beam="1">  1        2 0.19623129E+00 0.65580239E+03</pdfrwt>
<pdfrwt beam="2">  1       -2 0.12968538E-01 0.65580239E+03</pdfrwt>
<totfact> 0.77368510E+02</totfact>
</mgrwt>
</event>
<event>
 4    1  0.6476857E-006  0.5730765E+03  0.7818608E-02  0.9962894E-01
          2   -1    0    0  501    0  0.00000000000E+00  0.00000000000E+00  0.98242461086E+03  0.98242461086E+03  0.25500000000E-02 0.  1.
         -2   -1    0    0    0  501 -0.00000000000E+00 -0.00000000000E+00 -0.83573008564E+02  0.83573008603E+02  0.25500000000E-02 0. -1.
   -5000001    1    1    2    0    0  0.82525621668E+02  0.11287103443E+03  0.43577798906E+03  0.52149094373E+03  0.25000000000E+03 0.  0.
    5000001    1    1    2    0    0 -0.82525621668E+02 -0.11287103443E+03  0.46307361323E+03  0.54450667573E+03  0.25000000000E+03 0.  0.
<mgrwt>
<rscale>  0 0.57307654E+03</rscale>
<asrwt>0</asrwt>
<pdfrwt beam="1">  1        2 0.15114224E+00 0.57307654E+03</pdfrwt>
<pdfrwt beam="2">  1       -2 0.12857386E-01 0.57307654E+03</pdfrwt>
<totfact> 0.11824149E+03</totfact>
</mgrwt>
</event>
<event>
 4    1  0.6476857E-006  0.6238549E+03  0.7818608E-02  0.9857114E-01
          2   -1    0    0  501    0  0.00000000000E+00  0.00000000000E+00  0.32429369910E+03  0.32429369911E+03  0.25500000000E-02 0.  1.
         -2   -1    0    0    0  501 -0.00000000000E+00 -0.00000000000E+00 -0.30003277836E+03  0.30003277837E+03  0.25500000000E-02 0. -1.
   -5000001    1    1    2    0    0  0.15693424303E+03 -0.61093349534E+02 -0.68167247780E+02  0.30904292204E+03  0.25000000000E+03 0.  0.
    5000001    1    1    2    0    0 -0.15693424303E+03  0.61093349534E+02  0.92428168520E+02  0.31528355544E+03  0.25000000000E+03 0.  0.
<mgrwt>
<rscale>  0 0.62385492E+03</rscale>
<asrwt>0</asrwt>
<pdfrwt beam="1">  1        2 0.49891338E-01 0.62385492E+03</pdfrwt>
<pdfrwt beam="2">  1       -2 0.46158889E-01 0.62385492E+03</pdfrwt>
<totfact> 0.45182873E+02</totfact>
</mgrwt>
</event>
<event>
 4    1  0.6476857E-006  0.6139675E+03  0.7818608E-02  0.9876844E-01
          2   -1    0    0  501    0  0.00000000000E+00  0.00000000000E+00  0.14532167169E+03  0.14532167171E+03  0.25500000000E-02 0.  1.
         -2   -1    0    0    0  501 -0.00000000000E+00 -0.00000000000E+00 -0.64848577089E+03  0.64848577090E+03  0.25500000000E-02 0. -1.
   -5000001    1    1    2    0    0  0.17586963879E+03  0.24601417828E+02 -0.23313017807E+03  0.38520778748E+03  0.25000000000E+03 0.  0.
    5000001    1    1    2    0    0 -0.17586963879E+03 -0.24601417828E+02 -0.27003392113E+03  0.40859965513E+03  0.25000000000E+03 0.  0.
<mgrwt>
<rscale>  0 0.61396754E+03</rscale>
<asrwt>0</asrwt>
<pdfrwt beam="1">  1        2 0.22357181E-01 0.61396754E+03</pdfrwt>
<pdfrwt beam="2">  1       -2 0.99767040E-01 0.61396754E+03</pdfrwt>
<totfact> 0.20963491E+02</totfact>
</mgrwt>
</event>
<event>
 4    1  0.6476857E-006  0.8858025E+03  0.7818608E-02  0.9443505E-01
          2   -1    0    0  501    0  0.00000000000E+00  0.00000000000E+00  0.84458866489E+03  0.84458866490E+03  0.25500000000E-02 0.  1.
         -2   -1    0    0    0  501 -0.00000000000E+00 -0.00000000000E+00 -0.23225685152E+03  0.23225685153E+03  0.25500000000E-02 0. -1.
   -5000001    1    1    2    0    0  0.10418173641E+03 -0.25301727132E+03  0.60092552799E+03  0.70603333064E+03  0.25000000000E+03 0.  0.
    5000001    1    1    2    0    0 -0.10418173641E+03  0.25301727132E+03  0.11406285386E+02  0.37081218579E+03  0.25000000000E+03 0.  0.
<mgrwt>
<rscale>  0 0.88580247E+03</rscale>
<asrwt>0</asrwt>
<pdfrwt beam="1">  1        2 0.12993672E+00 0.88580247E+03</pdfrwt>
<pdfrwt beam="2">  1       -2 0.35731823E-01 0.88580247E+03</pdfrwt>
<totfact> 0.23626762E+02</totfact>
</mgrwt>
</event>
<event>
 4    1  0.6476857E-006  0.1215744E+04  0.7818608E-02  0.9099186E-01
         -2   -1    0    0    0  501 -0.00000000000E+00  0.00000000000E+00  0.70659341048E+03  0.70659341048E+03  0.25500000000E-02 0. -1.
          2   -1    0    0  501    0  0.00000000000E+00 -0.00000000000E+00 -0.52294356267E+03  0.52294356268E+03  0.25500000000E-02 0.  1.
   -5000001    1    1    2    0    0  0.21920990976E+03 -0.47089253532E+03 -0.10327745095E+03  0.58562701119E+03  0.25000000000E+03 0.  0.
    5000001    1    1    2    0    0 -0.21920990976E+03  0.47089253532E+03  0.28692729875E+03  0.64390996197E+03  0.25000000000E+03 0.  0.
<mgrwt>
<rscale>  0 0.12157442E+04</rscale>
<asrwt>0</asrwt>
<pdfrwt beam="1">  1        2 0.80452857E-01 0.12157442E+04</pdfrwt>
<pdfrwt beam="2">  1       -2 0.10870668E+00 0.12157442E+04</pdfrwt>
<totfact> 0.38942857E+01</totfact>
</mgrwt>
</event>
<event>
 4    1  0.6476857E-006  0.7864395E+03  0.7818608E-02  0.9579855E-01
          2   -1    0    0  501    0  0.00000000000E+00  0.00000000000E+00  0.36112175640E+03  0.36112175641E+03  0.25500000000E-02 0.  1.
         -2   -1    0    0    0  501 -0.00000000000E+00 -0.00000000000E+00 -0.42817079516E+03  0.42817079517E+03  0.25500000000E-02 0. -1.
   -5000001    1    1    2    0    0 -0.16668876299E+00 -0.21870121877E+03  0.17769451127E+03  0.37670358402E+03  0.25000000000E+03 0.  0.
    5000001    1    1    2    0    0  0.16668876299E+00  0.21870121877E+03 -0.24474355002E+03  0.41258896756E+03  0.25000000000E+03 0.  0.
<mgrwt>
<rscale>  0 0.78643955E+03</rscale>
<asrwt>0</asrwt>
<pdfrwt beam="1">  1        2 0.55557193E-01 0.78643955E+03</pdfrwt>
<pdfrwt beam="2">  1       -2 0.65872430E-01 0.78643955E+03</pdfrwt>
<totfact> 0.19080500E+02</totfact>
</mgrwt>
</event>
<event>
 4    1  0.6476857E-006  0.7174055E+03  0.7818608E-02  0.9687921E-01
         -2   -1    0    0    0  501 -0.00000000000E+00  0.00000000000E+00  0.42824449035E+02  0.42824449111E+02  0.25500000000E-02 0. -1.
          2   -1    0    0  501    0  0.00000000000E+00 -0.00000000000E+00 -0.30045377079E+04  0.30045377079E+04  0.25500000000E-02 0.  1.
   -5000001    1    1    2    0    0 -0.18109490285E+03  0.46869311961E+02 -0.22308658361E+04  0.22526105910E+04  0.25000000000E+03 0.  0.
    5000001    1    1    2    0    0  0.18109490285E+03 -0.46869311961E+02 -0.73084742282E+03  0.79475156601E+03  0.25000000000E+03 0.  0.
<mgrwt>
<rscale>  0 0.71740553E+03</rscale>
<asrwt>0</asrwt>
<pdfrwt beam="1">  1        2 0.46223641E+00 0.71740553E+03</pdfrwt>
<pdfrwt beam="2">  1       -2 0.65883791E-02 0.71740553E+03</pdfrwt>
<totfact> 0.24550553E+02</totfact>
</mgrwt>
</event>
<event>
 4    1  0.6476857E-006  0.7636857E+03  0.7818608E-02  0.9614121E-01
         -2   -1    0    0    0  501 -0.00000000000E+00  0.00000000000E+00  0.26469002780E+03  0.26469002781E+03  0.25500000000E-02 0. -1.
          2   -1    0    0  501    0  0.00000000000E+00 -0.00000000000E+00 -0.55084799344E+03  0.55084799345E+03  0.25500000000E-02 0.  1.
   -5000001    1    1    2    0    0 -0.12748131271E+03 -0.11152189922E+03  0.10648787369E+03  0.32020038466E+03  0.25000000000E+03 0.  0.
    5000001    1    1    2    0    0  0.12748131271E+03  0.11152189922E+03 -0.39264583933E+03  0.49533763660E+03  0.25000000000E+03 0.  0.
<mgrwt>
<rscale>  0 0.76368572E+03</rscale>
<asrwt>0</asrwt>
<pdfrwt beam="1">  1        2 0.84745845E-01 0.76368572E+03</pdfrwt>
<pdfrwt beam="2">  1       -2 0.40721543E-01 0.76368572E+03</pdfrwt>
<totfact> 0.31597691E+02</totfact>
</mgrwt>
</event>
<event>
 4    1  0.6476857E-006  0.9440608E+03  0.7818608E-02  0.9372120E-01
          2   -1    0    0  501    0  0.00000000000E+00  0.00000000000E+00  0.25967017719E+04  0.25967017719E+04  0.25500000000E-02 0.  1.
         -2   -1    0    0    0  501 -0.00000000000E+00 -0.00000000000E+00 -0.85806034905E+02  0.85806034943E+02  0.25500000000E-02 0. -1.
   -5000001    1    1    2    0    0 -0.30966660634E+03 -0.21548675550E+03  0.16365075981E+04  0.16979355310E+04  0.25000000000E+03 0.  0.
    5000001    1    1    2    0    0  0.30966660634E+03  0.21548675550E+03  0.87438813889E+03  0.98457227582E+03  0.25000000000E+03 0.  0.
<mgrwt>
<rscale>  0 0.94406077E+03</rscale>
<asrwt>0</asrwt>
<pdfrwt beam="1">  1        2 0.39949257E+00 0.94406077E+03</pdfrwt>
<pdfrwt beam="2">  1       -2 0.13200929E-01 0.94406077E+03</pdfrwt>
<totfact> 0.13555629E+02</totfact>
</mgrwt>
</event>
<event>
 4    1  0.6476857E-006  0.7452043E+03  0.7818608E-02  0.9642904E-01
         -2   -1    0    0    0  501 -0.00000000000E+00  0.00000000000E+00  0.12807779896E+04  0.12807779896E+04  0.25500000000E-02 0. -1.
          2   -1    0    0  501    0  0.00000000000E+00 -0.00000000000E+00 -0.10839691227E+03  0.10839691230E+03  0.25500000000E-02 0.  1.
   -5000001    1    1    2    0    0 -0.22885299816E+03 -0.12029229906E+03  0.76777518593E+03  0.84783410412E+03  0.25000000000E+03 0.  0.
    5000001    1    1    2    0    0  0.22885299816E+03  0.12029229906E+03  0.40460589135E+03  0.54134079774E+03  0.25000000000E+03 0.  0.
<mgrwt>
<rscale>  0 0.74520435E+03</rscale>
<asrwt>0</asrwt>
<pdfrwt beam="1">  1        2 0.16676449E-01 0.74520435E+03</pdfrwt>
<pdfrwt beam="2">  1       -2 0.19704276E+00 0.74520435E+03</pdfrwt>
<totfact> 0.49905931E+01</totfact>
</mgrwt>
</event>
<event>
 4    1  0.6476857E-006  0.9428333E+03  0.7818608E-02  0.9373567E-01
         -2   -1    0    0    0  501 -0.00000000000E+00  0.00000000000E+00  0.87026500591E+02  0.87026500628E+02  0.25500000000E-02 0. -1.
          2   -1    0    0  501    0  0.00000000000E+00 -0.00000000000E+00 -0.25536318122E+04  0.25536318122E+04  0.25500000000E-02 0.  1.
   -5000001    1    1    2    0    0  0.35431721697E+03  0.14346006034E+02 -0.17496413102E+04  0.18026345199E+04  0.25000000000E+03 0.  0.
    5000001    1    1    2    0    0 -0.35431721697E+03 -0.14346006034E+02 -0.71696400142E+03  0.83802379290E+03  0.25000000000E+03 0.  0.
<mgrwt>
<rscale>  0 0.94283326E+03</rscale>
<asrwt>0</asrwt>
<pdfrwt beam="1">  1        2 0.39286638E+00 0.94283326E+03</pdfrwt>
<pdfrwt beam="2">  1       -2 0.13388694E-01 0.94283326E+03</pdfrwt>
<totfact> 0.14018184E+02</totfact>
</mgrwt>
</event>
<event>
 4    1  0.6476857E-006  0.7387194E+03  0.7818608E-02  0.9653216E-01
         -2   -1    0    0    0  501 -0.00000000000E+00  0.00000000000E+00  0.17569957390E+04  0.17569957390E+04  0.25500000000E-02 0. -1.
          2   -1    0    0  501    0  0.00000000000E+00 -0.00000000000E+00 -0.77647650040E+02  0.77647650081E+02  0.25500000000E-02 0.  1.
   -5000001    1    1    2    0    0 -0.25130480721E+03 -0.62670738909E+01  0.10969723489E+04  0.11528407160E+04  0.25000000000E+03 0.  0.
    5000001    1    1    2    0    0  0.25130480721E+03  0.62670738909E+01  0.58237574008E+03  0.68180267305E+03  0.25000000000E+03 0.  0.
<mgrwt>
<rscale>  0 0.73871941E+03</rscale>
<asrwt>0</asrwt>
<pdfrwt beam="1">  1        2 0.11945792E-01 0.73871941E+03</pdfrwt>
<pdfrwt beam="2">  1       -2 0.27030704E+00 0.73871941E+03</pdfrwt>
<totfact> 0.26494929E+01</totfact>
</mgrwt>
</event>
<event>
 4    1  0.6476857E-006  0.6580262E+03  0.7818608E-02  0.9791834E-01
          2   -1    0    0  501    0  0.00000000000E+00  0.00000000000E+00  0.10949919022E+04  0.10949919022E+04  0.25500000000E-02 0.  1.
         -2   -1    0    0    0  501 -0.00000000000E+00 -0.00000000000E+00 -0.98858845905E+02  0.98858845938E+02  0.25500000000E-02 0. -1.
   -5000001    1    1    2    0    0 -0.20187256082E+02 -0.20941260258E+03  0.42806988714E+03  0.53852111537E+03  0.25000000000E+03 0.  0.
    5000001    1    1    2    0    0  0.20187256082E+02  0.20941260258E+03  0.56806316913E+03  0.65532963274E+03  0.25000000000E+03 0.  0.
<mgrwt>
<rscale>  0 0.65802625E+03</rscale>
<asrwt>0</asrwt>
<pdfrwt beam="1">  1        2 0.16846029E+00 0.65802625E+03</pdfrwt>
<pdfrwt beam="2">  1       -2 0.15209053E-01 0.65802625E+03</pdfrwt>
<totfact> 0.75761590E+02</totfact>
</mgrwt>
</event>
<event>
 4    1  0.6476857E-006  0.5476929E+03  0.7818608E-02  0.1002029E+00
         -2   -1    0    0    0  501 -0.00000000000E+00  0.00000000000E+00  0.66756680993E+03  0.66756680993E+03  0.25500000000E-02 0. -1.
          2   -1    0    0  501    0  0.00000000000E+00 -0.00000000000E+00 -0.11233615583E+03  0.11233615586E+03  0.25500000000E-02 0.  1.
   -5000001    1    1    2    0    0 -0.76833338561E+02 -0.63138550868E+02  0.35025289667E+03  0.44166382028E+03  0.25000000000E+03 0.  0.
    5000001    1    1    2    0    0  0.76833338561E+02  0.63138550868E+02  0.20497775742E+03  0.33823914551E+03  0.25000000000E+03 0.  0.
<mgrwt>
<rscale>  0 0.54769294E+03</rscale>
<asrwt>0</asrwt>
<pdfrwt beam="1">  1        2 0.17282485E-01 0.54769294E+03</pdfrwt>
<pdfrwt beam="2">  1       -2 0.10270259E+00 0.54769294E+03</pdfrwt>
<totfact> 0.26522416E+02</totfact>
</mgrwt>
</event>
<event>
 4    1  0.6476857E-006  0.7065395E+03  0.7818608E-02  0.9706114E-01
         -2   -1    0    0    0  501 -0.00000000000E+00  0.00000000000E+00  0.30653734400E+03  0.30653734401E+03  0.25500000000E-02 0.  1.
          2   -1    0    0  501    0  0.00000000000E+00 -0.00000000000E+00 -0.40712665993E+03  0.40712665994E+03  0.25500000000E-02 0. -1.
   -5000001    1    1    2    0    0 -0.38032554464E+02 -0.24666136127E+03 -0.53678464496E+02  0.35730894180E+03  0.25000000000E+03 0.  0.
    5000001    1    1    2    0    0  0.38032554464E+02  0.24666136127E+03 -0.46910851436E+02  0.35635506215E+03  0.25000000000E+03 0.  0.
<mgrwt>
<rscale>  0 0.70653952E+03</rscale>
<asrwt>0</asrwt>
<pdfrwt beam="1">  1        2 0.62634871E-01 0.70653952E+03</pdfrwt>
<pdfrwt beam="2">  1       -2 0.47159591E-01 0.70653952E+03</pdfrwt>
<totfact> 0.33512974E+02</totfact>
</mgrwt>
</event>
<event>
 4    1  0.6476857E-006  0.6621253E+03  0.7818608E-02  0.9784289E-01
         -2   -1    0    0    0  501 -0.00000000000E+00  0.00000000000E+00  0.21061728019E+03  0.21061728021E+03  0.25500000000E-02 0. -1.
          2   -1    0    0  501    0  0.00000000000E+00 -0.00000000000E+00 -0.52038691360E+03  0.52038691360E+03  0.25500000000E-02 0.  1.
   -5000001    1    1    2    0    0 -0.17627849023E+03 -0.10501172807E+03 -0.23295839585E+03  0.39858648164E+03  0.25000000000E+03 0.  0.
    5000001    1    1    2    0    0  0.17627849023E+03  0.10501172807E+03 -0.76811237557E+02  0.33241771217E+03  0.25000000000E+03 0.  0.
<mgrwt>
<rscale>  0 0.66212529E+03</rscale>
<asrwt>0</asrwt>
<pdfrwt beam="1">  1        2 0.80059524E-01 0.66212529E+03</pdfrwt>
<pdfrwt beam="2">  1       -2 0.32402659E-01 0.66212529E+03</pdfrwt>
<totfact> 0.52483434E+02</totfact>
</mgrwt>
</event>
<event>
 4    1  0.6476857E-006  0.5192123E+03  0.7818608E-02  0.1008882E+00
         -2   -1    0    0    0  501 -0.00000000000E+00  0.00000000000E+00  0.29463615576E+02  0.29463615687E+02  0.25500000000E-02 0. -1.
          2   -1    0    0  501    0  0.00000000000E+00 -0.00000000000E+00 -0.22874095695E+04  0.22874095695E+04  0.25500000000E-02 0.  1.
   -5000001    1    1    2    0    0  0.14417582573E+02  0.63601681331E+02 -0.10158810559E+04  0.10482210456E+04  0.25000000000E+03 0.  0.
    5000001    1    1    2    0    0 -0.14417582573E+02 -0.63601681331E+02 -0.12420648979E+04  0.12686521396E+04  0.25000000000E+03 0.  0.
<mgrwt>
<rscale>  0 0.51921231E+03</rscale>
<asrwt>0</asrwt>
<pdfrwt beam="1">  1        2 0.35190902E+00 0.51921231E+03</pdfrwt>
<pdfrwt beam="2">  1       -2 0.45328657E-02 0.51921231E+03</pdfrwt>
<totfact> 0.11607784E+03</totfact>
</mgrwt>
</event>
<event>
 4    1  0.6476857E-006  0.6699180E+03  0.7818608E-02  0.9770106E-01
          2   -1    0    0  501    0  0.00000000000E+00  0.00000000000E+00  0.15632214038E+04  0.15632214038E+04  0.25500000000E-02 0.  1.
         -2   -1    0    0    0  501 -0.00000000000E+00 -0.00000000000E+00 -0.71773286221E+02  0.71773286266E+02  0.25500000000E-02 0. -1.
   -5000001    1    1    2    0    0  0.10830288580E+03  0.68338643630E+02  0.11910754343E+04  0.12237484935E+04  0.25000000000E+03 0.  0.
    5000001    1    1    2    0    0 -0.10830288580E+03 -0.68338643630E+02  0.30037268329E+03  0.41124619652E+03  0.25000000000E+03 0.  0.
<mgrwt>
<rscale>  0 0.66991802E+03</rscale>
<asrwt>0</asrwt>
<pdfrwt beam="1">  1        2 0.24049559E+00 0.66991802E+03</pdfrwt>
<pdfrwt beam="2">  1       -2 0.11042045E-01 0.66991802E+03</pdfrwt>
<totfact> 0.69471134E+02</totfact>
</mgrwt>
</event>
<event>
 4    1  0.6476857E-006  0.6939739E+03  0.7818608E-02  0.9727593E-01
         -2   -1    0    0    0  501 -0.00000000000E+00  0.00000000000E+00  0.82977767789E+02  0.82977767828E+02  0.25500000000E-02 0. -1.
          2   -1    0    0  501    0  0.00000000000E+00 -0.00000000000E+00 -0.14509903755E+04  0.14509903755E+04  0.25500000000E-02 0.  1.
   -5000001    1    1    2    0    0 -0.21317986385E+03 -0.11095728056E+03 -0.71041772107E+03  0.79053811475E+03  0.25000000000E+03 0.  0.
    5000001    1    1    2    0    0  0.21317986385E+03  0.11095728056E+03 -0.65759488662E+03  0.74343002857E+03  0.25000000000E+03 0.  0.
<mgrwt>
<rscale>  0 0.69397390E+03</rscale>
<asrwt>0</asrwt>
<pdfrwt beam="1">  1        2 0.22322927E+00 0.69397390E+03</pdfrwt>
<pdfrwt beam="2">  1       -2 0.12765811E-01 0.69397390E+03</pdfrwt>
<totfact> 0.63035498E+02</totfact>
</mgrwt>
</event>
<event>
 4    1  0.6476857E-006  0.8274198E+03  0.7818608E-02  0.9521155E-01
          2   -1    0    0  501    0  0.00000000000E+00  0.00000000000E+00  0.27052902989E+04  0.27052902989E+04  0.25500000000E-02 0.  1.
         -2   -1    0    0    0  501 -0.00000000000E+00 -0.00000000000E+00 -0.63267097606E+02  0.63267097657E+02  0.25500000000E-02 0. -1.
   -5000001    1    1    2    0    0 -0.71035972054E+02 -0.29493291294E+03  0.17524310869E+04  0.17959805808E+04  0.25000000000E+03 0.  0.
    5000001    1    1    2    0    0  0.71035972054E+02  0.29493291294E+03  0.88959211440E+03  0.97257681572E+03  0.25000000000E+03 0.  0.
<mgrwt>
<rscale>  0 0.82741976E+03</rscale>
<asrwt>0</asrwt>
<pdfrwt beam="1">  1        2 0.41619847E+00 0.82741976E+03</pdfrwt>
<pdfrwt beam="2">  1       -2 0.97334004E-02 0.82741976E+03</pdfrwt>
<totfact> 0.19597420E+02</totfact>
</mgrwt>
</event>
<event>
 4    1  0.6476857E-006  0.1042690E+04  0.7818608E-02  0.9262923E-01
          2   -1    0    0  501    0  0.00000000000E+00  0.00000000000E+00  0.24408496630E+04  0.24408496630E+04  0.25500000000E-02 0.  1.
         -2   -1    0    0    0  501 -0.00000000000E+00 -0.00000000000E+00 -0.11135500904E+03  0.11135500907E+03  0.25500000000E-02 0. -1.
   -5000001    1    1    2    0    0 -0.32054066481E+03 -0.24976261032E+03  0.65030187893E+03  0.80654833274E+03  0.25000000000E+03 0.  0.
    5000001    1    1    2    0    0  0.32054066481E+03  0.24976261032E+03  0.16791927750E+04  0.17456563393E+04  0.25000000000E+03 0.  0.
<mgrwt>
<rscale>  0 0.10426904E+04</rscale>
<asrwt>0</asrwt>
<pdfrwt beam="1">  1        2 0.37551532E+00 0.10426904E+04</pdfrwt>
<pdfrwt beam="2">  1       -2 0.17131541E-01 0.10426904E+04</pdfrwt>
<totfact> 0.10599284E+02</totfact>
</mgrwt>
</event>
<event>
 4    1  0.6476857E-006  0.9398741E+03  0.7818608E-02  0.9377065E-01
         -2   -1    0    0    0  501 -0.00000000000E+00  0.00000000000E+00  0.15324778991E+03  0.15324778993E+03  0.25500000000E-02 0. -1.
          2   -1    0    0  501    0  0.00000000000E+00 -0.00000000000E+00 -0.14410703706E+04  0.14410703706E+04  0.25500000000E-02 0.  1.
   -5000001    1    1    2    0    0  0.81639286575E+02 -0.30138494987E+03 -0.22549309589E+03  0.45917861167E+03  0.25000000000E+03 0.  0.
    5000001    1    1    2    0    0 -0.81639286575E+02  0.30138494987E+03 -0.10623294847E+04  0.11351395488E+04  0.25000000000E+03 0.  0.
<mgrwt>
<rscale>  0 0.93987414E+03</rscale>
<asrwt>0</asrwt>
<pdfrwt beam="1">  1        2 0.22170312E+00 0.93987414E+03</pdfrwt>
<pdfrwt beam="2">  1       -2 0.23576584E-01 0.93987414E+03</pdfrwt>
<totfact> 0.21872907E+02</totfact>
</mgrwt>
</event>
<event>
 4    1  0.6476857E-006  0.5879083E+03  0.7818608E-02  0.9930815E-01
         -2   -1    0    0    0  501 -0.00000000000E+00  0.00000000000E+00  0.13948638053E+03  0.13948638055E+03  0.25500000000E-02 0. -1.
          2   -1    0    0  501    0  0.00000000000E+00 -0.00000000000E+00 -0.61948013553E+03  0.61948013554E+03  0.25500000000E-02 0.  1.
   -5000001    1    1    2    0    0  0.11817545085E+03  0.71670902393E+02 -0.15049235931E+03  0.32287784941E+03  0.25000000000E+03 0.  0.
    5000001    1    1    2    0    0 -0.11817545085E+03 -0.71670902393E+02 -0.32950139570E+03  0.43608866668E+03  0.25000000000E+03 0.  0.
<mgrwt>
<rscale>  0 0.58790830E+03</rscale>
<asrwt>0</asrwt>
<pdfrwt beam="1">  1        2 0.95304634E-01 0.58790830E+03</pdfrwt>
<pdfrwt beam="2">  1       -2 0.21459444E-01 0.58790830E+03</pdfrwt>
<totfact> 0.90287878E+02</totfact>
</mgrwt>
</event>
<event>
 4    1  0.6476857E-006  0.2357728E+04  0.7818608E-02  0.8455501E-01
         -2   -1    0    0    0  501 -0.00000000000E+00  0.00000000000E+00  0.49085931446E+03  0.49085931446E+03  0.25500000000E-02 0. -1.
          2   -1    0    0  501    0  0.00000000000E+00 -0.00000000000E+00 -0.28311980486E+04  0.28311980486E+04  0.25500000000E-02 0.  1.
   -5000001    1    1    2    0    0  0.86171430264E+03  0.16391962422E+03 -0.11783862727E+03  0.91967772869E+03  0.25000000000E+03 0.  0.
    5000001    1    1    2    0    0 -0.86171430264E+03 -0.16391962422E+03 -0.22225001069E+04  0.24023796344E+04  0.25000000000E+03 0.  0.
<mgrwt>
<rscale>  0 0.23577277E+04</rscale>
<asrwt>0</asrwt>
<pdfrwt beam="1">  1        2 0.43556892E+00 0.23577277E+04</pdfrwt>
<pdfrwt beam="2">  1       -2 0.75516820E-01 0.23577277E+04</pdfrwt>
<totfact> 0.31422895E+00</totfact>
</mgrwt>
</event>
<event>
 4    1  0.6476857E-006  0.6846660E+03  0.7818608E-02  0.9743821E-01
         -2   -1    0    0    0  501 -0.00000000000E+00  0.00000000000E+00  0.21189573718E+03  0.21189573719E+03  0.25500000000E-02 0. -1.
          2   -1    0    0  501    0  0.00000000000E+00 -0.00000000000E+00 -0.55306387864E+03  0.55306387865E+03  0.25500000000E-02 0.  1.
   -5000001    1    1    2    0    0 -0.18437215675E+03  0.64126297391E+02 -0.31447668209E+03  0.44665518891E+03  0.25000000000E+03 0.  0.
    5000001    1    1    2    0    0  0.18437215675E+03 -0.64126297391E+02 -0.26691459377E+02  0.31830442693E+03  0.25000000000E+03 0.  0.
<mgrwt>
<rscale>  0 0.68466599E+03</rscale>
<asrwt>0</asrwt>
<pdfrwt beam="1">  1        2 0.85086750E-01 0.68466599E+03</pdfrwt>
<pdfrwt beam="2">  1       -2 0.32599344E-01 0.68466599E+03</pdfrwt>
<totfact> 0.48285793E+02</totfact>
</mgrwt>
</event>
<event>
 4    1  0.6476857E-006  0.6799070E+03  0.7818608E-02  0.9752225E-01
         -2   -1    0    0    0  501 -0.00000000000E+00  0.00000000000E+00  0.61677052430E+02  0.61677052483E+02  0.25500000000E-02 0. -1.
          2   -1    0    0  501    0  0.00000000000E+00 -0.00000000000E+00 -0.18737664142E+04  0.18737664142E+04  0.25500000000E-02 0.  1.
   -5000001    1    1    2    0    0 -0.15755392701E+00 -0.22840001959E+03 -0.99152871966E+03  0.10477575081E+04  0.25000000000E+03 0.  0.
    5000001    1    1    2    0    0  0.15755392701E+00  0.22840001959E+03 -0.82056064212E+03  0.88768595864E+03  0.25000000000E+03 0.  0.
<mgrwt>
<rscale>  0 0.67990702E+03</rscale>
<asrwt>0</asrwt>
<pdfrwt beam="1">  1        2 0.28827171E+00 0.67990702E+03</pdfrwt>
<pdfrwt beam="2">  1       -2 0.94887788E-02 0.67990702E+03</pdfrwt>
<totfact> 0.60164550E+02</totfact>
</mgrwt>
</event>
<event>
 4    1  0.6476857E-006  0.6813522E+03  0.7818608E-02  0.9749665E-01
         -2   -1    0    0    0  501 -0.00000000000E+00  0.00000000000E+00  0.23451859698E+03  0.23451859699E+03  0.25500000000E-02 0. -1.
          2   -1    0    0  501    0  0.00000000000E+00 -0.00000000000E+00 -0.49488693604E+03  0.49488693605E+03  0.25500000000E-02 0.  1.
   -5000001    1    1    2    0    0 -0.19030731608E+03  0.86374492447E+02 -0.23760900133E+02  0.32671395421E+03  0.25000000000E+03 0.  0.
    5000001    1    1    2    0    0  0.19030731608E+03 -0.86374492447E+02 -0.23660743894E+03  0.40269157883E+03  0.25000000000E+03 0.  0.
<mgrwt>
<rscale>  0 0.68135216E+03</rscale>
<asrwt>0</asrwt>
<pdfrwt beam="1">  1        2 0.76136451E-01 0.68135216E+03</pdfrwt>
<pdfrwt beam="2">  1       -2 0.36079784E-01 0.68135216E+03</pdfrwt>
<totfact> 0.45369020E+02</totfact>
</mgrwt>
</event>
<event>
 4    1  0.6476857E-006  0.8129612E+03  0.7818608E-02  0.9541444E-01
         -2   -1    0    0    0  501 -0.00000000000E+00  0.00000000000E+00  0.10729633299E+03  0.10729633303E+03  0.25500000000E-02 0. -1.
          2   -1    0    0  501    0  0.00000000000E+00 -0.00000000000E+00 -0.15399078443E+04  0.15399078443E+04  0.25500000000E-02 0.  1.
   -5000001    1    1    2    0    0  0.24257273074E+03 -0.16145035259E+02 -0.11395019320E+04  0.11916655760E+04  0.25000000000E+03 0.  0.
    5000001    1    1    2    0    0 -0.24257273074E+03  0.16145035259E+02 -0.29310957928E+03  0.45553860135E+03  0.25000000000E+03 0.  0.
<mgrwt>
<rscale>  0 0.81296117E+03</rscale>
<asrwt>0</asrwt>
<pdfrwt beam="1">  1        2 0.23690888E+00 0.81296117E+03</pdfrwt>
<pdfrwt beam="2">  1       -2 0.16507129E-01 0.81296117E+03</pdfrwt>
<totfact> 0.36220459E+02</totfact>
</mgrwt>
</event>
<event>
 4    1  0.6476857E-006  0.1137052E+04  0.7818608E-02  0.9169812E-01
          2   -1    0    0  501    0  0.00000000000E+00  0.00000000000E+00  0.26449116750E+04  0.26449116750E+04  0.25500000000E-02 0.  1.
         -2   -1    0    0    0  501 -0.00000000000E+00 -0.00000000000E+00 -0.12220515169E+03  0.12220515172E+03  0.25500000000E-02 0. -1.
   -5000001    1    1    2    0    0 -0.37922334718E+03 -0.34157514111E+03  0.12238169096E+04  0.13493375235E+04  0.25000000000E+03 0.  0.
    5000001    1    1    2    0    0  0.37922334718E+03  0.34157514111E+03  0.12988896137E+04  0.14177793032E+04  0.25000000000E+03 0.  0.
<mgrwt>
<rscale>  0 0.11370520E+04</rscale>
<asrwt>0</asrwt>
<pdfrwt beam="1">  1        2 0.40690948E+00 0.11370520E+04</pdfrwt>
<pdfrwt beam="2">  1       -2 0.18800793E-01 0.11370520E+04</pdfrwt>
<totfact> 0.68256679E+01</totfact>
</mgrwt>
</event>
<event>
 4    1  0.6476857E-006  0.8638639E+03  0.7818608E-02  0.9471916E-01
          2   -1    0    0  501    0  0.00000000000E+00  0.00000000000E+00  0.16089082575E+04  0.16089082575E+04  0.25500000000E-02 0.  1.
         -2   -1    0    0    0  501 -0.00000000000E+00 -0.00000000000E+00 -0.11595764185E+03  0.11595764188E+03  0.25500000000E-02 0. -1.
   -5000001    1    1    2    0    0  0.17864016515E+03 -0.23197007740E+03  0.35549775530E+03  0.52402393022E+03  0.25000000000E+03 0.  0.
    5000001    1    1    2    0    0 -0.17864016515E+03  0.23197007740E+03  0.11374528604E+04  0.12008419692E+04  0.25000000000E+03 0.  0.
<mgrwt>
<rscale>  0 0.86386390E+03</rscale>
<asrwt>0</asrwt>
<pdfrwt beam="1">  1        2 0.24752434E+00 0.86386390E+03</pdfrwt>
<pdfrwt beam="2">  1       -2 0.17839638E-01 0.86386390E+03</pdfrwt>
<totfact> 0.28931076E+02</totfact>
</mgrwt>
</event>
<event>
 4    1  0.6476857E-006  0.7020574E+03  0.7818608E-02  0.9713720E-01
          2   -1    0    0  501    0  0.00000000000E+00  0.00000000000E+00  0.18464824419E+04  0.18464824419E+04  0.25500000000E-02 0.  1.
         -2   -1    0    0    0  501 -0.00000000000E+00 -0.00000000000E+00 -0.66732916917E+02  0.66732916966E+02  0.25500000000E-02 0. -1.
   -5000001    1    1    2    0    0  0.24472906726E+03  0.14639065987E+02  0.82231834911E+03  0.89376399899E+03  0.25000000000E+03 0.  0.
    5000001    1    1    2    0    0 -0.24472906726E+03 -0.14639065987E+02  0.95743117591E+03  0.10194513599E+04  0.25000000000E+03 0.  0.
<mgrwt>
<rscale>  0 0.70205743E+03</rscale>
<asrwt>0</asrwt>
<pdfrwt beam="1">  1        2 0.28407427E+00 0.70205743E+03</pdfrwt>
<pdfrwt beam="2">  1       -2 0.10266601E-01 0.70205743E+03</pdfrwt>
<totfact> 0.54694950E+02</totfact>
</mgrwt>
</event>
<event>
 4    1  0.6476857E-006  0.6690603E+03  0.7818608E-02  0.9771657E-01
          2   -1    0    0  501    0  0.00000000000E+00  0.00000000000E+00  0.28462292906E+04  0.28462292906E+04  0.25500000000E-02 0.  1.
         -2   -1    0    0    0  501 -0.00000000000E+00 -0.00000000000E+00 -0.39318837887E+02  0.39318837970E+02  0.25500000000E-02 0. -1.
   -5000001    1    1    2    0    0 -0.21215980983E+03  0.66265897511E+02  0.13916644409E+04  0.14313046042E+04  0.25000000000E+03 0.  0.
    5000001    1    1    2    0    0  0.21215980983E+03 -0.66265897511E+02  0.14152460118E+04  0.14542435243E+04  0.25000000000E+03 0.  0.
<mgrwt>
<rscale>  0 0.66906032E+03</rscale>
<asrwt>0</asrwt>
<pdfrwt beam="1">  1        2 0.43788143E+00 0.66906032E+03</pdfrwt>
<pdfrwt beam="2">  1       -2 0.60490520E-02 0.66906032E+03</pdfrwt>
<totfact> 0.35169472E+02</totfact>
</mgrwt>
</event>
<event>
 4    1  0.6476857E-006  0.8323799E+03  0.7818608E-02  0.9514296E-01
         -2   -1    0    0    0  501 -0.00000000000E+00  0.00000000000E+00  0.19811428671E+03  0.19811428673E+03  0.25500000000E-02 0. -1.
          2   -1    0    0  501    0  0.00000000000E+00 -0.00000000000E+00 -0.87431382499E+03  0.87431382499E+03  0.25500000000E-02 0.  1.
   -5000001    1    1    2    0    0 -0.15998514359E+03 -0.16954384335E+03 -0.64400358121E+03  0.72909599752E+03  0.25000000000E+03 0.  0.
    5000001    1    1    2    0    0  0.15998514359E+03  0.16954384335E+03 -0.32195957062E+02  0.34333211420E+03  0.25000000000E+03 0.  0.
<mgrwt>
<rscale>  0 0.83237986E+03</rscale>
<asrwt>0</asrwt>
<pdfrwt beam="1">  1        2 0.13450982E+00 0.83237986E+03</pdfrwt>
<pdfrwt beam="2">  1       -2 0.30479122E-01 0.83237986E+03</pdfrwt>
<totfact> 0.30497848E+02</totfact>
</mgrwt>
</event>
<event>
 4    1  0.6476857E-006  0.1123114E+04  0.7818608E-02  0.9182952E-01
          2   -1    0    0  501    0  0.00000000000E+00  0.00000000000E+00  0.28782553897E+04  0.28782553897E+04  0.25500000000E-02 0.  1.
         -2   -1    0    0    0  501 -0.00000000000E+00 -0.00000000000E+00 -0.10956160788E+03  0.10956160791E+03  0.25500000000E-02 0. -1.
   -5000001    1    1    2    0    0  0.36876311695E+03 -0.32169007146E+03  0.16920174632E+04  0.17790148494E+04  0.25000000000E+03 0.  0.
    5000001    1    1    2    0    0 -0.36876311695E+03  0.32169007146E+03  0.10766763186E+04  0.12088021482E+04  0.25000000000E+03 0.  0.
<mgrwt>
<rscale>  0 0.11231140E+04</rscale>
<asrwt>0</asrwt>
<pdfrwt beam="1">  1        2 0.44280848E+00 0.11231140E+04</pdfrwt>
<pdfrwt beam="2">  1       -2 0.16855634E-01 0.11231140E+04</pdfrwt>
<totfact> 0.60014270E+01</totfact>
</mgrwt>
</event>
<event>
 4    1  0.6476857E-006  0.7749706E+03  0.7818608E-02  0.9596970E-01
         -2   -1    0    0    0  501 -0.00000000000E+00  0.00000000000E+00  0.14860151945E+03  0.14860151947E+03  0.25500000000E-02 0.  1.
          2   -1    0    0  501    0  0.00000000000E+00 -0.00000000000E+00 -0.10103858011E+04  0.10103858011E+04  0.25500000000E-02 0. -1.
   -5000001    1    1    2    0    0 -0.20813431567E+03 -0.19246430852E+03 -0.55851620095E+03  0.67439065099E+03  0.25000000000E+03 0.  0.
    5000001    1    1    2    0    0  0.20813431567E+03  0.19246430852E+03 -0.30326808072E+03  0.48459666961E+03  0.25000000000E+03 0.  0.
<mgrwt>
<rscale>  0 0.77497062E+03</rscale>
<asrwt>0</asrwt>
<pdfrwt beam="1">  1        2 0.15544397E+00 0.77497062E+03</pdfrwt>
<pdfrwt beam="2">  1       -2 0.22861773E-01 0.77497062E+03</pdfrwt>
<totfact> 0.41990317E+02</totfact>
</mgrwt>
</event>
<event>
 4    1  0.6476857E-006  0.1439548E+04  0.7818608E-02  0.8925679E-01
          2   -1    0    0  501    0  0.00000000000E+00  0.00000000000E+00  0.21802787717E+04  0.21802787717E+04  0.25500000000E-02 0.  1.
         -2   -1    0    0    0  501 -0.00000000000E+00 -0.00000000000E+00 -0.23761859553E+03  0.23761859554E+03  0.25500000000E-02 0. -1.
   -5000001    1    1    2    0    0  0.57478059074E+03 -0.27897375093E+03  0.13369160019E+04  0.15026787672E+04  0.25000000000E+03 0.  0.
    5000001    1    1    2    0    0 -0.57478059074E+03  0.27897375093E+03  0.60574417422E+03  0.91521860001E+03  0.25000000000E+03 0.  0.
<mgrwt>
<rscale>  0 0.14395482E+04</rscale>
<asrwt>0</asrwt>
<pdfrwt beam="1">  1        2 0.33542749E+00 0.14395482E+04</pdfrwt>
<pdfrwt beam="2">  1       -2 0.36556708E-01 0.14395482E+04</pdfrwt>
<totfact> 0.36270265E+01</totfact>
</mgrwt>
</event>
<event>
 4    1  0.6476857E-006  0.6441099E+03  0.7818608E-02  0.9817895E-01
          2   -1    0    0  501    0  0.00000000000E+00  0.00000000000E+00  0.10056007850E+03  0.10056007854E+03  0.25500000000E-02 0.  1.
         -2   -1    0    0    0  501 -0.00000000000E+00 -0.00000000000E+00 -0.10314172249E+04  0.10314172249E+04  0.25500000000E-02 0. -1.
   -5000001    1    1    2    0    0  0.93588393834E+02  0.17944590480E+03 -0.49375410081E+03  0.58928153906E+03  0.25000000000E+03 0.  0.
    5000001    1    1    2    0    0 -0.93588393834E+02 -0.17944590480E+03 -0.43710304555E+03  0.54269576435E+03  0.25000000000E+03 0.  0.
<mgrwt>
<rscale>  0 0.64410992E+03</rscale>
<asrwt>0</asrwt>
<pdfrwt beam="1">  1        2 0.15470782E-01 0.64410992E+03</pdfrwt>
<pdfrwt beam="2">  1       -2 0.15867957E+00 0.64410992E+03</pdfrwt>
<totfact> 0.10113757E+02</totfact>
</mgrwt>
</event>
<event>
 4    1  0.6476857E-006  0.6283220E+03  0.7818608E-02  0.9848329E-01
          2   -1    0    0  501    0  0.00000000000E+00  0.00000000000E+00  0.58305062245E+03  0.58305062246E+03  0.25500000000E-02 0.  1.
         -2   -1    0    0    0  501 -0.00000000000E+00 -0.00000000000E+00 -0.16927711744E+03  0.16927711746E+03  0.25500000000E-02 0. -1.
   -5000001    1    1    2    0    0  0.12083490642E+03  0.10411377735E+03  0.33106850863E+03  0.44446272133E+03  0.25000000000E+03 0.  0.
    5000001    1    1    2    0    0 -0.12083490642E+03 -0.10411377735E+03  0.82704996387E+02  0.30786501859E+03  0.25000000000E+03 0.  0.
<mgrwt>
<rscale>  0 0.62832198E+03</rscale>
<asrwt>0</asrwt>
<pdfrwt beam="1">  1        2 0.89700095E-01 0.62832198E+03</pdfrwt>
<pdfrwt beam="2">  1       -2 0.26042634E-01 0.62832198E+03</pdfrwt>
<totfact> 0.68701956E+02</totfact>
</mgrwt>
</event>
<event>
 4    1  0.6476857E-006  0.5899316E+03  0.7818608E-02  0.9926518E-01
          2   -1    0    0  501    0  0.00000000000E+00  0.00000000000E+00  0.13489902196E+04  0.13489902196E+04  0.25500000000E-02 0.  1.
         -2   -1    0    0    0  501 -0.00000000000E+00 -0.00000000000E+00 -0.64496263616E+02  0.64496263666E+02  0.25500000000E-02 0. -1.
   -5000001    1    1    2    0    0 -0.11587353365E+03 -0.47468761924E+02  0.86733072501E+03  0.91128620405E+03  0.25000000000E+03 0.  0.
    5000001    1    1    2    0    0  0.11587353365E+03  0.47468761924E+02  0.41716323095E+03  0.50220027918E+03  0.25000000000E+03 0.  0.
<mgrwt>
<rscale>  0 0.58993162E+03</rscale>
<asrwt>0</asrwt>
<pdfrwt beam="1">  1        2 0.20753696E+00 0.58993162E+03</pdfrwt>
<pdfrwt beam="2">  1       -2 0.99225021E-02 0.58993162E+03</pdfrwt>
<totfact> 0.10926251E+03</totfact>
</mgrwt>
</event>
<event>
 4    1  0.6476857E-006  0.7550070E+03  0.7818608E-02  0.9627528E-01
          2   -1    0    0  501    0  0.00000000000E+00  0.00000000000E+00  0.12608590519E+03  0.12608590522E+03  0.25500000000E-02 0.  1.
         -2   -1    0    0    0  501 -0.00000000000E+00 -0.00000000000E+00 -0.11302523241E+04  0.11302523241E+04  0.25500000000E-02 0. -1.
   -5000001    1    1    2    0    0  0.24548475112E+03  0.12525590053E+03 -0.39609377093E+03  0.54345384258E+03  0.25000000000E+03 0.  0.
    5000001    1    1    2    0    0 -0.24548475112E+03 -0.12525590053E+03 -0.60807264802E+03  0.71288438678E+03  0.25000000000E+03 0.  0.
<mgrwt>
<rscale>  0 0.75500699E+03</rscale>
<asrwt>0</asrwt>
<pdfrwt beam="1">  1        2 0.19397832E-01 0.75500699E+03</pdfrwt>
<pdfrwt beam="2">  1       -2 0.17388497E+00 0.75500699E+03</pdfrwt>
<totfact> 0.59703898E+01</totfact>
</mgrwt>
</event>
<event>
 4    1  0.6476857E-006  0.8676404E+03  0.7818608E-02  0.9466962E-01
          2   -1    0    0  501    0  0.00000000000E+00  0.00000000000E+00  0.20056212332E+04  0.20056212332E+04  0.25500000000E-02 0.  1.
         -2   -1    0    0    0  501 -0.00000000000E+00 -0.00000000000E+00 -0.93836254588E+02  0.93836254622E+02  0.25500000000E-02 0. -1.
   -5000001    1    1    2    0    0 -0.29220016910E+03 -0.15975591240E+03  0.12502367137E+04  0.13177612570E+04  0.25000000000E+03 0.  0.
    5000001    1    1    2    0    0  0.29220016910E+03  0.15975591240E+03  0.66154826497E+03  0.78169623081E+03  0.25000000000E+03 0.  0.
<mgrwt>
<rscale>  0 0.86764044E+03</rscale>
<asrwt>0</asrwt>
<pdfrwt beam="1">  1        2 0.30855708E+00 0.86764044E+03</pdfrwt>
<pdfrwt beam="2">  1       -2 0.14436348E-01 0.86764044E+03</pdfrwt>
<totfact> 0.25151631E+02</totfact>
</mgrwt>
</event>
<event>
 4    1  0.6476857E-006  0.1807856E+04  0.7818608E-02  0.8702133E-01
         -2   -1    0    0    0  501 -0.00000000000E+00  0.00000000000E+00  0.51141176934E+03  0.51141176934E+03  0.25500000000E-02 0. -1.
          2   -1    0    0  501    0  0.00000000000E+00 -0.00000000000E+00 -0.15977058748E+04  0.15977058748E+04  0.25500000000E-02 0.  1.
   -5000001    1    1    2    0    0 -0.71791238304E+03  0.75546429488E+02  0.20571076953E+02  0.76421765351E+03  0.25000000000E+03 0.  0.
    5000001    1    1    2    0    0  0.71791238304E+03 -0.75546429488E+02 -0.11068651824E+04  0.13448999906E+04  0.25000000000E+03 0.  0.
<mgrwt>
<rscale>  0 0.18078557E+04</rscale>
<asrwt>0</asrwt>
<pdfrwt beam="1">  1        2 0.24580090E+00 0.18078557E+04</pdfrwt>
<pdfrwt beam="2">  1       -2 0.78678735E-01 0.18078557E+04</pdfrwt>
<totfact> 0.15142468E+01</totfact>
</mgrwt>
</event>
<event>
 4    1  0.6476857E-006  0.7851315E+03  0.7818608E-02  0.9581792E-01
          2   -1    0    0  501    0  0.00000000000E+00  0.00000000000E+00  0.63708315705E+03  0.63708315705E+03  0.25500000000E-02 0.  1.
         -2   -1    0    0    0  501 -0.00000000000E+00 -0.00000000000E+00 -0.24189598197E+03  0.24189598198E+03  0.25500000000E-02 0. -1.
   -5000001    1    1    2    0    0 -0.78712780819E+02 -0.28324777263E+03  0.11699625995E+03  0.40325318028E+03  0.25000000000E+03 0.  0.
    5000001    1    1    2    0    0  0.78712780819E+02  0.28324777263E+03  0.27819091513E+03  0.47572595875E+03  0.25000000000E+03 0.  0.
<mgrwt>
<rscale>  0 0.78513147E+03</rscale>
<asrwt>0</asrwt>
<pdfrwt beam="1">  1        2 0.98012794E-01 0.78513147E+03</pdfrwt>
<pdfrwt beam="2">  1       -2 0.37214766E-01 0.78513147E+03</pdfrwt>
<totfact> 0.31560270E+02</totfact>
</mgrwt>
</event>
<event>
 4    1  0.6476857E-006  0.6558520E+03  0.7818608E-02  0.9795860E-01
          2   -1    0    0  501    0  0.00000000000E+00  0.00000000000E+00  0.17063409113E+04  0.17063409113E+04  0.25500000000E-02 0.  1.
         -2   -1    0    0    0  501 -0.00000000000E+00 -0.00000000000E+00 -0.63021094480E+02  0.63021094532E+02  0.25500000000E-02 0. -1.
   -5000001    1    1    2    0    0 -0.15450530311E+03 -0.31913015088E+02  0.12045692857E+04  0.12403134657E+04  0.25000000000E+03 0.  0.
    5000001    1    1    2    0    0  0.15450530311E+03  0.31913015088E+02  0.43875053108E+03  0.52904854006E+03  0.25000000000E+03 0.  0.
<mgrwt>
<rscale>  0 0.65585203E+03</rscale>
<asrwt>0</asrwt>
<pdfrwt beam="1">  1        2 0.26251397E+00 0.65585203E+03</pdfrwt>
<pdfrwt beam="2">  1       -2 0.96955538E-02 0.65585203E+03</pdfrwt>
<totfact> 0.71750684E+02</totfact>
</mgrwt>
</event>
<event>
 4    1  0.6476857E-006  0.1398703E+04  0.7818608E-02  0.8954758E-01
          2   -1    0    0  501    0  0.00000000000E+00  0.00000000000E+00  0.15834658715E+04  0.15834658715E+04  0.25500000000E-02 0.  1.
         -2   -1    0    0    0  501 -0.00000000000E+00 -0.00000000000E+00 -0.30887468971E+03  0.30887468973E+03  0.25500000000E-02 0. -1.
   -5000001    1    1    2    0    0  0.23695788637E+03  0.52699276007E+03  0.22532571012E+03  0.66868683606E+03  0.25000000000E+03 0.  0.
    5000001    1    1    2    0    0 -0.23695788637E+03 -0.52699276007E+03  0.10492654717E+04  0.12236537252E+04  0.25000000000E+03 0.  0.
<mgrwt>
<rscale>  0 0.13987030E+04</rscale>
<asrwt>0</asrwt>
<pdfrwt beam="1">  1        2 0.24361013E+00 0.13987030E+04</pdfrwt>
<pdfrwt beam="2">  1       -2 0.47519184E-01 0.13987030E+04</pdfrwt>
<totfact> 0.46529286E+01</totfact>
</mgrwt>
</event>
<event>
 4    1  0.6476857E-006  0.8475998E+03  0.7818608E-02  0.9493564E-01
         -2   -1    0    0    0  501 -0.00000000000E+00  0.00000000000E+00  0.21980922093E+03  0.21980922094E+03  0.25500000000E-02 0. -1.
          2   -1    0    0  501    0  0.00000000000E+00 -0.00000000000E+00 -0.81710106981E+03  0.81710106981E+03  0.25500000000E-02 0.  1.
   -5000001    1    1    2    0    0  0.30963492205E+03 -0.64577162339E+02 -0.13884848007E+03  0.42640695968E+03  0.25000000000E+03 0.  0.
    5000001    1    1    2    0    0 -0.30963492205E+03  0.64577162339E+02 -0.45844336881E+03  0.61050333108E+03  0.25000000000E+03 0.  0.
<mgrwt>
<rscale>  0 0.84759979E+03</rscale>
<asrwt>0</asrwt>
<pdfrwt beam="1">  1        2 0.12570786E+00 0.84759979E+03</pdfrwt>
<pdfrwt beam="2">  1       -2 0.33816804E-01 0.84759979E+03</pdfrwt>
<totfact> 0.27487820E+02</totfact>
</mgrwt>
</event>
<event>
 4    1  0.6476857E-006  0.8290729E+03  0.7818608E-02  0.9518863E-01
         -2   -1    0    0    0  501 -0.00000000000E+00  0.00000000000E+00  0.28045662491E+03  0.28045662493E+03  0.25500000000E-02 0. -1.
          2   -1    0    0  501    0  0.00000000000E+00 -0.00000000000E+00 -0.61271675021E+03  0.61271675022E+03  0.25500000000E-02 0.  1.
   -5000001    1    1    2    0    0  0.93640279916E+02  0.25761668012E+03  0.33116919451E+02  0.37246689283E+03  0.25000000000E+03 0.  0.
    5000001    1    1    2    0    0 -0.93640279916E+02 -0.25761668012E+03 -0.36537704475E+03  0.52070648232E+03  0.25000000000E+03 0.  0.
<mgrwt>
<rscale>  0 0.82907291E+03</rscale>
<asrwt>0</asrwt>
<pdfrwt beam="1">  1        2 0.94264115E-01 0.82907291E+03</pdfrwt>
<pdfrwt beam="2">  1       -2 0.43147173E-01 0.82907291E+03</pdfrwt>
<totfact> 0.24757101E+02</totfact>
</mgrwt>
</event>
<event>
 4    1  0.6476857E-006  0.6206629E+03  0.7818608E-02  0.9863441E-01
         -2   -1    0    0    0  501 -0.00000000000E+00  0.00000000000E+00  0.81232070060E+02  0.81232070100E+02  0.25500000000E-02 0. -1.
          2   -1    0    0  501    0  0.00000000000E+00 -0.00000000000E+00 -0.11855615194E+04  0.11855615194E+04  0.25500000000E-02 0.  1.
   -5000001    1    1    2    0    0  0.14934918471E+03  0.79193821724E+01 -0.77044766738E+03  0.82368531841E+03  0.25000000000E+03 0.  0.
    5000001    1    1    2    0    0 -0.14934918471E+03 -0.79193821724E+01 -0.33388178196E+03  0.44310827110E+03  0.25000000000E+03 0.  0.
<mgrwt>
<rscale>  0 0.62066292E+03</rscale>
<asrwt>0</asrwt>
<pdfrwt beam="1">  1        2 0.18239407E+00 0.62066292E+03</pdfrwt>
<pdfrwt beam="2">  1       -2 0.12497242E-01 0.62066292E+03</pdfrwt>
<totfact> 0.92964086E+02</totfact>
</mgrwt>
</event>
<event>
 4    1  0.6476857E-006  0.1033120E+04  0.7818608E-02  0.9272947E-01
          2   -1    0    0  501    0  0.00000000000E+00  0.00000000000E+00  0.27007876091E+04  0.27007876091E+04  0.25500000000E-02 0.  1.
         -2   -1    0    0    0  501 -0.00000000000E+00 -0.00000000000E+00 -0.98798723643E+02  0.98798723676E+02  0.25500000000E-02 0. -1.
   -5000001    1    1    2    0    0 -0.44647288185E+03  0.37760265579E+02  0.11390719027E+04  0.12492992721E+04  0.25000000000E+03 0.  0.
    5000001    1    1    2    0    0  0.44647288185E+03 -0.37760265579E+02  0.14629169828E+04  0.15502870606E+04  0.25000000000E+03 0.  0.
<mgrwt>
<rscale>  0 0.10331203E+04</rscale>
<asrwt>0</asrwt>
<pdfrwt beam="1">  1        2 0.41550579E+00 0.10331203E+04</pdfrwt>
<pdfrwt beam="2">  1       -2 0.15199804E-01 0.10331203E+04</pdfrwt>
<totfact> 0.92161485E+01</totfact>
</mgrwt>
</event>
<event>
 4    1  0.6476857E-006  0.7951554E+03  0.7818608E-02  0.9567056E-01
         -2   -1    0    0    0  501 -0.00000000000E+00  0.00000000000E+00  0.90832984820E+02  0.90832984856E+02  0.25500000000E-02 0. -1.
          2   -1    0    0  501    0  0.00000000000E+00 -0.00000000000E+00 -0.17402051488E+04  0.17402051488E+04  0.25500000000E-02 0.  1.
   -5000001    1    1    2    0    0 -0.28805880712E+03 -0.67793659956E+02 -0.10305745863E+04  0.11009803970E+04  0.25000000000E+03 0.  0.
    5000001    1    1    2    0    0  0.28805880712E+03  0.67793659956E+02 -0.61879757771E+03  0.73005773667E+03  0.25000000000E+03 0.  0.
<mgrwt>
<rscale>  0 0.79515540E+03</rscale>
<asrwt>0</asrwt>
<pdfrwt beam="1">  1        2 0.26772384E+00 0.79515540E+03</pdfrwt>
<pdfrwt beam="2">  1       -2 0.13974307E-01 0.79515540E+03</pdfrwt>
<totfact> 0.37304907E+02</totfact>
</mgrwt>
</event>
<event>
 4    1  0.6476857E-006  0.9673404E+03  0.7818608E-02  0.9345109E-01
         -2   -1    0    0    0  501 -0.00000000000E+00  0.00000000000E+00  0.13940640599E+03  0.13940640602E+03  0.25500000000E-02 0. -1.
          2   -1    0    0  501    0  0.00000000000E+00 -0.00000000000E+00 -0.16780925668E+04  0.16780925668E+04  0.25500000000E-02 0.  1.
   -5000001    1    1    2    0    0 -0.39316305596E+03  0.78825206690E+01 -0.52583264259E+03  0.70259468452E+03  0.25000000000E+03 0.  0.
    5000001    1    1    2    0    0  0.39316305596E+03 -0.78825206690E+01 -0.10128535182E+04  0.11149042883E+04  0.25000000000E+03 0.  0.
<mgrwt>
<rscale>  0 0.96734038E+03</rscale>
<asrwt>0</asrwt>
<pdfrwt beam="1">  1        2 0.25816807E+00 0.96734038E+03</pdfrwt>
<pdfrwt beam="2">  1       -2 0.21447141E-01 0.96734038E+03</pdfrwt>
<totfact> 0.19065836E+02</totfact>
</mgrwt>
</event>
<event>
 4    1  0.6476857E-006  0.1510269E+04  0.7818608E-02  0.8877653E-01
         -2   -1    0    0    0  501 -0.00000000000E+00  0.00000000000E+00  0.38993961428E+03  0.38993961429E+03  0.25500000000E-02 0. -1.
          2   -1    0    0  501    0  0.00000000000E+00 -0.00000000000E+00 -0.14623488244E+04  0.14623488244E+04  0.25500000000E-02 0.  1.
   -5000001    1    1    2    0    0 -0.58126901345E+03  0.40385429833E+03 -0.43539728253E+03  0.86778036041E+03  0.25000000000E+03 0.  0.
    5000001    1    1    2    0    0  0.58126901345E+03 -0.40385429833E+03 -0.63701192756E+03  0.98450807825E+03  0.25000000000E+03 0.  0.
<mgrwt>
<rscale>  0 0.15102685E+04</rscale>
<asrwt>0</asrwt>
<pdfrwt beam="1">  1        2 0.22497674E+00 0.15102685E+04</pdfrwt>
<pdfrwt beam="2">  1       -2 0.59990711E-01 0.15102685E+04</pdfrwt>
<totfact> 0.33345109E+01</totfact>
</mgrwt>
</event>
<event>
 4    1  0.6476857E-006  0.1274506E+04  0.7818608E-02  0.9050030E-01
          2   -1    0    0  501    0  0.00000000000E+00  0.00000000000E+00  0.97569502224E+03  0.97569502224E+03  0.25500000000E-02 0. -1.
         -2   -1    0    0    0  501 -0.00000000000E+00 -0.00000000000E+00 -0.41620715415E+03  0.41620715416E+03  0.25500000000E-02 0.  1.
   -5000001    1    1    2    0    0 -0.12608346103E+03 -0.55313830831E+03  0.44074137100E+03  0.76066548717E+03  0.25000000000E+03 0.  0.
    5000001    1    1    2    0    0  0.12608346103E+03  0.55313830831E+03  0.11874649708E+03  0.63123668923E+03  0.25000000000E+03 0.  0.
<mgrwt>
<rscale>  0 0.12745058E+04</rscale>
<asrwt>0</asrwt>
<pdfrwt beam="1">  1        2 0.15010692E+00 0.12745058E+04</pdfrwt>
<pdfrwt beam="2">  1       -2 0.64031871E-01 0.12745058E+04</pdfrwt>
<totfact> 0.57832403E+01</totfact>
</mgrwt>
</event>
<event>
 4    1  0.6476857E-006  0.1660424E+04  0.7818608E-02  0.8784264E-01
         -2   -1    0    0    0  501 -0.00000000000E+00  0.00000000000E+00  0.50525109381E+03  0.50525109382E+03  0.25500000000E-02 0. -1.
          2   -1    0    0  501    0  0.00000000000E+00 -0.00000000000E+00 -0.13641765198E+04  0.13641765198E+04  0.25500000000E-02 0.  1.
   -5000001    1    1    2    0    0 -0.76358320176E+03 -0.17434963025E+03 -0.29964706679E+03  0.87506883399E+03  0.25000000000E+03 0.  0.
    5000001    1    1    2    0    0  0.76358320176E+03  0.17434963025E+03 -0.55927835922E+03  0.99435877965E+03  0.25000000000E+03 0.  0.
<mgrwt>
<rscale>  0 0.16604237E+04</rscale>
<asrwt>0</asrwt>
<pdfrwt beam="1">  1        2 0.20987331E+00 0.16604237E+04</pdfrwt>
<pdfrwt beam="2">  1       -2 0.77730938E-01 0.16604237E+04</pdfrwt>
<totfact> 0.21355298E+01</totfact>
</mgrwt>
</event>
<event>
 4    1  0.6476857E-006  0.1316859E+04  0.7818608E-02  0.9016301E-01
          2   -1    0    0  501    0  0.00000000000E+00  0.00000000000E+00  0.76900045805E+03  0.76900045806E+03  0.25500000000E-02 0.  1.
         -2   -1    0    0    0  501 -0.00000000000E+00 -0.00000000000E+00 -0.56375735819E+03  0.56375735820E+03  0.25500000000E-02 0. -1.
   -5000001    1    1    2    0    0  0.21224826451E+03  0.54216920368E+03 -0.78516600917E+02  0.63848385088E+03  0.25000000000E+03 0.  0.
    5000001    1    1    2    0    0 -0.21224826451E+03 -0.54216920368E+03  0.28375970078E+03  0.69427396538E+03  0.25000000000E+03 0.  0.
<mgrwt>
<rscale>  0 0.13168594E+04</rscale>
<asrwt>0</asrwt>
<pdfrwt beam="1">  1        2 0.11830776E+00 0.13168594E+04</pdfrwt>
<pdfrwt beam="2">  1       -2 0.86731902E-01 0.13168594E+04</pdfrwt>
<totfact> 0.40902683E+01</totfact>
</mgrwt>
</event>
<event>
 4    1  0.6476857E-006  0.5518961E+03  0.7818608E-02  0.1001056E+00
         -2   -1    0    0    0  501 -0.00000000000E+00  0.00000000000E+00  0.24743392820E+03  0.24743392822E+03  0.25500000000E-02 0. -1.
          2   -1    0    0  501    0  0.00000000000E+00 -0.00000000000E+00 -0.30774814322E+03  0.30774814323E+03  0.25500000000E-02 0.  1.
   -5000001    1    1    2    0    0 -0.68841634896E+02 -0.65930820825E+02  0.37782314226E+02  0.27021019059E+03  0.25000000000E+03 0.  0.
    5000001    1    1    2    0    0  0.68841634896E+02  0.65930820825E+02 -0.98096529238E+02  0.28497188086E+03  0.25000000000E+03 0.  0.
<mgrwt>
<rscale>  0 0.55189612E+03</rscale>
<asrwt>0</asrwt>
<pdfrwt beam="1">  1        2 0.47345868E-01 0.55189612E+03</pdfrwt>
<pdfrwt beam="2">  1       -2 0.38066758E-01 0.55189612E+03</pdfrwt>
<totfact> 0.69913695E+02</totfact>
</mgrwt>
</event>
<event>
 4    1  0.6476857E-006  0.6257243E+03  0.7818608E-02  0.9853428E-01
          2   -1    0    0  501    0  0.00000000000E+00  0.00000000000E+00  0.54726125000E+03  0.54726125001E+03  0.25500000000E-02 0.  1.
         -2   -1    0    0    0  501 -0.00000000000E+00 -0.00000000000E+00 -0.17885920423E+03  0.17885920425E+03  0.25500000000E-02 0. -1.
   -5000001    1    1    2    0    0  0.16842444504E+03 -0.17038416886E+02  0.89032894063E+02  0.31477604350E+03  0.25000000000E+03 0.  0.
    5000001    1    1    2    0    0 -0.16842444504E+03  0.17038416886E+02  0.27936915170E+03  0.41134441076E+03  0.25000000000E+03 0.  0.
<mgrwt>
<rscale>  0 0.62572426E+03</rscale>
<asrwt>0</asrwt>
<pdfrwt beam="1">  1        2 0.84194038E-01 0.62572426E+03</pdfrwt>
<pdfrwt beam="2">  1       -2 0.27516801E-01 0.62572426E+03</pdfrwt>
<totfact> 0.67003574E+02</totfact>
</mgrwt>
</event>
<event>
 4    1  0.6476857E-006  0.7500083E+03  0.7818608E-02  0.9635337E-01
          2   -1    0    0  501    0  0.00000000000E+00  0.00000000000E+00  0.17676514897E+03  0.17676514899E+03  0.25500000000E-02 0.  1.
         -2   -1    0    0    0  501 -0.00000000000E+00 -0.00000000000E+00 -0.79556479285E+03  0.79556479285E+03  0.25500000000E-02 0. -1.
   -5000001    1    1    2    0    0  0.25646942909E+03  0.93304266161E+02 -0.23112024833E+03  0.43634713627E+03  0.25000000000E+03 0.  0.
    5000001    1    1    2    0    0 -0.25646942909E+03 -0.93304266161E+02 -0.38767939554E+03  0.53598280558E+03  0.25000000000E+03 0.  0.
<mgrwt>
<rscale>  0 0.75000834E+03</rscale>
<asrwt>0</asrwt>
<pdfrwt beam="1">  1        2 0.27194639E-01 0.75000834E+03</pdfrwt>
<pdfrwt beam="2">  1       -2 0.12239458E+00 0.75000834E+03</pdfrwt>
<totfact> 0.10152135E+02</totfact>
</mgrwt>
</event>
<event>
 4    1  0.6476857E-006  0.1666950E+04  0.7818608E-02  0.8780442E-01
          2   -1    0    0  501    0  0.00000000000E+00  0.00000000000E+00  0.71273522781E+03  0.71273522781E+03  0.25500000000E-02 0.  1.
         -2   -1    0    0    0  501 -0.00000000000E+00 -0.00000000000E+00 -0.97466796894E+03  0.97466796894E+03  0.25500000000E-02 0. -1.
   -5000001    1    1    2    0    0  0.55250388289E+03  0.41812562415E+03 -0.52573953767E+03  0.90498156868E+03  0.25000000000E+03 0.  0.
    5000001    1    1    2    0    0 -0.55250388289E+03 -0.41812562415E+03  0.26380679654E+03  0.78242162807E+03  0.25000000000E+03 0.  0.
<mgrwt>
<rscale>  0 0.16669495E+04</rscale>
<asrwt>0</asrwt>
<pdfrwt beam="1">  1        2 0.10965157E+00 0.16669495E+04</pdfrwt>
<pdfrwt beam="2">  1       -2 0.14994892E+00 0.16669495E+04</pdfrwt>
<totfact> 0.11450153E+01</totfact>
</mgrwt>
</event>
<event>
 4    1  0.6476857E-006  0.7017342E+03  0.7818608E-02  0.9714271E-01
          2   -1    0    0  501    0  0.00000000000E+00  0.00000000000E+00  0.11450213077E+04  0.11450213077E+04  0.25500000000E-02 0.  1.
         -2   -1    0    0    0  501 -0.00000000000E+00 -0.00000000000E+00 -0.10751565006E+03  0.10751565009E+03  0.25500000000E-02 0. -1.
   -5000001    1    1    2    0    0 -0.12632053915E+03  0.18960494104E+03  0.35225925759E+03  0.48835795973E+03  0.25000000000E+03 0.  0.
    5000001    1    1    2    0    0  0.12632053915E+03 -0.18960494104E+03  0.68524640005E+03  0.76417899805E+03  0.25000000000E+03 0.  0.
<mgrwt>
<rscale>  0 0.70173417E+03</rscale>
<asrwt>0</asrwt>
<pdfrwt beam="1">  1        2 0.17615712E+00 0.70173417E+03</pdfrwt>
<pdfrwt beam="2">  1       -2 0.16540869E-01 0.70173417E+03</pdfrwt>
<totfact> 0.61162441E+02</totfact>
</mgrwt>
</event>
<event>
 4    1  0.6476857E-006  0.6092650E+03  0.7818608E-02  0.9886368E-01
         -2   -1    0    0    0  501 -0.00000000000E+00  0.00000000000E+00  0.93600073439E+02  0.93600073473E+02  0.25500000000E-02 0. -1.
          2   -1    0    0  501    0  0.00000000000E+00 -0.00000000000E+00 -0.99146262177E+03  0.99146262177E+03  0.25500000000E-02 0.  1.
   -5000001    1    1    2    0    0 -0.49117362612E+02 -0.15228858575E+03 -0.32687995915E+03  0.44153690259E+03  0.25000000000E+03 0.  0.
    5000001    1    1    2    0    0  0.49117362612E+02  0.15228858575E+03 -0.57098258918E+03  0.64352579265E+03  0.25000000000E+03 0.  0.
<mgrwt>
<rscale>  0 0.60926505E+03</rscale>
<asrwt>0</asrwt>
<pdfrwt beam="1">  1        2 0.15253270E+00 0.60926505E+03</pdfrwt>
<pdfrwt beam="2">  1       -2 0.14400012E-01 0.60926505E+03</pdfrwt>
<totfact> 0.96508709E+02</totfact>
</mgrwt>
</event>
<event>
 4    1  0.6476857E-006  0.8564641E+03  0.7818608E-02  0.9481702E-01
         -2   -1    0    0    0  501 -0.00000000000E+00  0.00000000000E+00  0.13783482837E+03  0.13783482839E+03  0.25500000000E-02 0. -1.
          2   -1    0    0  501    0  0.00000000000E+00 -0.00000000000E+00 -0.13304524466E+04  0.13304524466E+04  0.25500000000E-02 0.  1.
   -5000001    1    1    2    0    0 -0.15985689353E+03 -0.25672965681E+03 -0.30226572514E+03  0.49530688637E+03  0.25000000000E+03 0.  0.
    5000001    1    1    2    0    0  0.15985689353E+03  0.25672965681E+03 -0.89035189306E+03  0.97298038858E+03  0.25000000000E+03 0.  0.
<mgrwt>
<rscale>  0 0.85646409E+03</rscale>
<asrwt>0</asrwt>
<pdfrwt beam="1">  1        2 0.20468498E+00 0.85646409E+03</pdfrwt>
<pdfrwt beam="2">  1       -2 0.21205359E-01 0.85646409E+03</pdfrwt>
<totfact> 0.30691519E+02</totfact>
</mgrwt>
</event>
<event>
 4    1  0.6476857E-006  0.8113210E+03  0.7818608E-02  0.9543773E-01
         -2   -1    0    0    0  501 -0.00000000000E+00  0.00000000000E+00  0.25672734132E+03  0.25672734133E+03  0.25500000000E-02 0. -1.
          2   -1    0    0  501    0  0.00000000000E+00 -0.00000000000E+00 -0.64099310296E+03  0.64099310297E+03  0.25500000000E-02 0.  1.
   -5000001    1    1    2    0    0 -0.24382263627E+02 -0.31745351185E+03 -0.16308396756E+03  0.43642594726E+03  0.25000000000E+03 0.  0.
    5000001    1    1    2    0    0  0.24382263627E+02  0.31745351185E+03 -0.22118179408E+03  0.46129449704E+03  0.25000000000E+03 0.  0.
<mgrwt>
<rscale>  0 0.81132103E+03</rscale>
<asrwt>0</asrwt>
<pdfrwt beam="1">  1        2 0.98614323E-01 0.81132103E+03</pdfrwt>
<pdfrwt beam="2">  1       -2 0.39496514E-01 0.81132103E+03</pdfrwt>
<totfact> 0.27887232E+02</totfact>
</mgrwt>
</event>
<event>
 4    1  0.6476857E-006  0.6507058E+03  0.7818608E-02  0.9805456E-01
         -2   -1    0    0    0  501 -0.00000000000E+00  0.00000000000E+00  0.43929420673E+03  0.43929420674E+03  0.25500000000E-02 0. -1.
          2   -1    0    0  501    0  0.00000000000E+00 -0.00000000000E+00 -0.24096493031E+03  0.24096493032E+03  0.25500000000E-02 0.  1.
   -5000001    1    1    2    0    0  0.11635471324E+03  0.10868736193E+03 -0.41105043249E+02  0.29923399960E+03  0.25000000000E+03 0.  0.
    5000001    1    1    2    0    0 -0.11635471324E+03 -0.10868736193E+03  0.23943431968E+03  0.38102513746E+03  0.25000000000E+03 0.  0.
<mgrwt>
<rscale>  0 0.65070576E+03</rscale>
<asrwt>0</asrwt>
<pdfrwt beam="1">  1        2 0.37071528E-01 0.65070576E+03</pdfrwt>
<pdfrwt beam="2">  1       -2 0.67583724E-01 0.65070576E+03</pdfrwt>
<totfact> 0.28430489E+02</totfact>
</mgrwt>
</event>
<event>
 4    1  0.6476857E-006  0.7835850E+03  0.7818608E-02  0.9584086E-01
          2   -1    0    0  501    0  0.00000000000E+00  0.00000000000E+00  0.87642579696E+03  0.87642579696E+03  0.25500000000E-02 0.  1.
         -2   -1    0    0    0  501 -0.00000000000E+00 -0.00000000000E+00 -0.17514475320E+03  0.17514475322E+03  0.25500000000E-02 0. -1.
   -5000001    1    1    2    0    0  0.25615854701E+03 -0.15230325259E+03  0.41341249918E+03  0.56764722886E+03  0.25000000000E+03 0.  0.
    5000001    1    1    2    0    0 -0.25615854701E+03  0.15230325259E+03  0.28786854458E+03  0.48392332132E+03  0.25000000000E+03 0.  0.
<mgrwt>
<rscale>  0 0.78358504E+03</rscale>
<asrwt>0</asrwt>
<pdfrwt beam="1">  1        2 0.13483474E+00 0.78358504E+03</pdfrwt>
<pdfrwt beam="2">  1       -2 0.26945347E-01 0.78358504E+03</pdfrwt>
<totfact> 0.38231873E+02</totfact>
</mgrwt>
</event>
<event>
 4    1  0.6476857E-006  0.7405527E+03  0.7818608E-02  0.9650289E-01
          2   -1    0    0  501    0  0.00000000000E+00  0.00000000000E+00  0.13562690730E+04  0.13562690730E+04  0.25500000000E-02 0.  1.
         -2   -1    0    0    0  501 -0.00000000000E+00 -0.00000000000E+00 -0.10108951328E+03  0.10108951331E+03  0.25500000000E-02 0. -1.
   -5000001    1    1    2    0    0 -0.19242082446E+03 -0.10434229390E+03  0.30607801033E+03  0.45177077859E+03  0.25000000000E+03 0.  0.
    5000001    1    1    2    0    0  0.19242082446E+03  0.10434229390E+03  0.94910154943E+03  0.10055878078E+04  0.25000000000E+03 0.  0.
<mgrwt>
<rscale>  0 0.74055271E+03</rscale>
<asrwt>0</asrwt>
<pdfrwt beam="1">  1        2 0.20865678E+00 0.74055271E+03</pdfrwt>
<pdfrwt beam="2">  1       -2 0.15552233E-01 0.74055271E+03</pdfrwt>
<totfact> 0.51049163E+02</totfact>
</mgrwt>
</event>
<event>
 4    1  0.6476857E-006  0.6347546E+03  0.7818608E-02  0.9835814E-01
         -2   -1    0    0    0  501 -0.00000000000E+00  0.00000000000E+00  0.10647736029E+03  0.10647736032E+03  0.25500000000E-02 0. -1.
          2   -1    0    0  501    0  0.00000000000E+00 -0.00000000000E+00 -0.94600710396E+03  0.94600710396E+03  0.25500000000E-02 0.  1.
   -5000001    1    1    2    0    0 -0.12938396475E+03  0.64610574983E+02 -0.63793916768E+03  0.70027217451E+03  0.25000000000E+03 0.  0.
    5000001    1    1    2    0    0  0.12938396475E+03 -0.64610574983E+02 -0.20159057599E+03  0.35221228977E+03  0.25000000000E+03 0.  0.
<mgrwt>
<rscale>  0 0.63475456E+03</rscale>
<asrwt>0</asrwt>
<pdfrwt beam="1">  1        2 0.14553955E+00 0.63475456E+03</pdfrwt>
<pdfrwt beam="2">  1       -2 0.16381133E-01 0.63475456E+03</pdfrwt>
<totfact> 0.82964256E+02</totfact>
</mgrwt>
</event>
<event>
 4    1  0.6476857E-006  0.5777847E+03  0.7818608E-02  0.9952599E-01
         -2   -1    0    0    0  501 -0.00000000000E+00  0.00000000000E+00  0.12277719110E+03  0.12277719113E+03  0.25500000000E-02 0. -1.
          2   -1    0    0  501    0  0.00000000000E+00 -0.00000000000E+00 -0.67975810333E+03  0.67975810333E+03  0.25500000000E-02 0.  1.
   -5000001    1    1    2    0    0 -0.42469281659E+01 -0.12968765968E+03 -0.36766584027E+03  0.46315774373E+03  0.25000000000E+03 0.  0.
    5000001    1    1    2    0    0  0.42469281659E+01  0.12968765968E+03 -0.18931507195E+03  0.33937755073E+03  0.25000000000E+03 0.  0.
<mgrwt>
<rscale>  0 0.57778470E+03</rscale>
<asrwt>0</asrwt>
<pdfrwt beam="1">  1        2 0.10457817E+00 0.57778470E+03</pdfrwt>
<pdfrwt beam="2">  1       -2 0.18888799E-01 0.57778470E+03</pdfrwt>
<totfact> 0.10068736E+03</totfact>
</mgrwt>
</event>
<event>
 4    1  0.6476857E-006  0.8219735E+03  0.7818608E-02  0.9528745E-01
         -2   -1    0    0    0  501 -0.00000000000E+00  0.00000000000E+00  0.74232528514E+02  0.74232528558E+02  0.25500000000E-02 0. -1.
          2   -1    0    0  501    0  0.00000000000E+00 -0.00000000000E+00 -0.22754188388E+04  0.22754188388E+04  0.25500000000E-02 0.  1.
   -5000001    1    1    2    0    0 -0.15467214613E+03  0.27658690588E+03 -0.13217625533E+04  0.13820202736E+04  0.25000000000E+03 0.  0.
    5000001    1    1    2    0    0  0.15467214613E+03 -0.27658690588E+03 -0.87942375699E+03  0.96763109378E+03  0.25000000000E+03 0.  0.
<mgrwt>
<rscale>  0 0.82197346E+03</rscale>
<asrwt>0</asrwt>
<pdfrwt beam="1">  1        2 0.35006438E+00 0.82197346E+03</pdfrwt>
<pdfrwt beam="2">  1       -2 0.11420391E-01 0.82197346E+03</pdfrwt>
<totfact> 0.26493084E+02</totfact>
</mgrwt>
</event>
<event>
 4    1  0.6476857E-006  0.6836798E+03  0.7818608E-02  0.9745556E-01
          2   -1    0    0  501    0  0.00000000000E+00  0.00000000000E+00  0.18467049681E+04  0.18467049681E+04  0.25500000000E-02 0.  1.
         -2   -1    0    0    0  501 -0.00000000000E+00 -0.00000000000E+00 -0.63277308195E+02  0.63277308247E+02  0.25500000000E-02 0. -1.
   -5000001    1    1    2    0    0 -0.21057786823E+03 -0.96538731194E+02  0.81823664571E+03  0.88638252103E+03  0.25000000000E+03 0.  0.
    5000001    1    1    2    0    0  0.21057786823E+03  0.96538731194E+02  0.96519101421E+03  0.10235997553E+04  0.25000000000E+03 0.  0.
<mgrwt>
<rscale>  0 0.68367981E+03</rscale>
<asrwt>0</asrwt>
<pdfrwt beam="1">  1        2 0.28410844E+00 0.68367981E+03</pdfrwt>
<pdfrwt beam="2">  1       -2 0.97349710E-02 0.68367981E+03</pdfrwt>
<totfact> 0.59690212E+02</totfact>
</mgrwt>
</event>
<event>
 4    1  0.6476857E-006  0.8797881E+03  0.7818608E-02  0.9451206E-01
          2   -1    0    0  501    0  0.00000000000E+00  0.00000000000E+00  0.22231572562E+03  0.22231572564E+03  0.25500000000E-02 0.  1.
         -2   -1    0    0    0  501 -0.00000000000E+00 -0.00000000000E+00 -0.87041425043E+03  0.87041425043E+03  0.25500000000E-02 0. -1.
   -5000001    1    1    2    0    0  0.34150506222E+03 -0.16068785118E+01 -0.17511611964E+03  0.45803268981E+03  0.25000000000E+03 0.  0.
    5000001    1    1    2    0    0 -0.34150506222E+03  0.16068785118E+01 -0.47298240517E+03  0.63469728626E+03  0.25000000000E+03 0.  0.
<mgrwt>
<rscale>  0 0.87978810E+03</rscale>
<asrwt>0</asrwt>
<pdfrwt beam="1">  1        2 0.34202420E-01 0.87978810E+03</pdfrwt>
<pdfrwt beam="2">  1       -2 0.13390988E+00 0.87978810E+03</pdfrwt>
<totfact> 0.62061552E+01</totfact>
</mgrwt>
</event>
<event>
 4    1  0.6476857E-006  0.5461459E+03  0.7818608E-02  0.1002390E+00
          2   -1    0    0  501    0  0.00000000000E+00  0.00000000000E+00  0.12124769022E+03  0.12124769025E+03  0.25500000000E-02 0.  1.
         -2   -1    0    0    0  501 -0.00000000000E+00 -0.00000000000E+00 -0.61501244242E+03  0.61501244242E+03  0.25500000000E-02 0. -1.
   -5000001    1    1    2    0    0  0.74131535852E+02 -0.75998412602E+02 -0.28495508294E+03  0.39366310802E+03  0.25000000000E+03 0.  0.
    5000001    1    1    2    0    0 -0.74131535852E+02  0.75998412602E+02 -0.20880966926E+03  0.34259702465E+03  0.25000000000E+03 0.  0.
<mgrwt>
<rscale>  0 0.54614591E+03</rscale>
<asrwt>0</asrwt>
<pdfrwt beam="1">  1        2 0.18653491E-01 0.54614591E+03</pdfrwt>
<pdfrwt beam="2">  1       -2 0.94617297E-01 0.54614591E+03</pdfrwt>
<totfact> 0.29372119E+02</totfact>
</mgrwt>
</event>
<event>
 4    1  0.6476857E-006  0.7766614E+03  0.7818608E-02  0.9594427E-01
         -2   -1    0    0    0  501 -0.00000000000E+00  0.00000000000E+00  0.13568203277E+03  0.13568203279E+03  0.25500000000E-02 0. -1.
          2   -1    0    0  501    0  0.00000000000E+00 -0.00000000000E+00 -0.11114274829E+04  0.11114274829E+04  0.25500000000E-02 0.  1.
   -5000001    1    1    2    0    0 -0.14650185817E+02 -0.25363723143E+03 -0.24039069029E+03  0.42992343166E+03  0.25000000000E+03 0.  0.
    5000001    1    1    2    0    0  0.14650185817E+02  0.25363723143E+03 -0.73535475986E+03  0.81718608405E+03  0.25000000000E+03 0.  0.
<mgrwt>
<rscale>  0 0.77666142E+03</rscale>
<asrwt>0</asrwt>
<pdfrwt beam="1">  1        2 0.17098884E+00 0.77666142E+03</pdfrwt>
<pdfrwt beam="2">  1       -2 0.20874160E-01 0.77666142E+03</pdfrwt>
<totfact> 0.42679865E+02</totfact>
</mgrwt>
</event>
<event>
 4    1  0.6476857E-006  0.8617674E+03  0.7818608E-02  0.9474678E-01
          2   -1    0    0  501    0  0.00000000000E+00  0.00000000000E+00  0.44379277177E+03  0.44379277178E+03  0.25500000000E-02 0.  1.
         -2   -1    0    0    0  501 -0.00000000000E+00 -0.00000000000E+00 -0.41835012438E+03  0.41835012439E+03  0.25500000000E-02 0. -1.
   -5000001    1    1    2    0    0 -0.14080233982E+03 -0.29109518167E+03  0.14915911002E+03  0.43509785543E+03  0.25000000000E+03 0.  0.
    5000001    1    1    2    0    0  0.14080233982E+03  0.29109518167E+03 -0.12371646263E+03  0.42704504074E+03  0.25000000000E+03 0.  0.
<mgrwt>
<rscale>  0 0.86176740E+03</rscale>
<asrwt>0</asrwt>
<pdfrwt beam="1">  1        2 0.68275811E-01 0.86176740E+03</pdfrwt>
<pdfrwt beam="2">  1       -2 0.64361557E-01 0.86176740E+03</pdfrwt>
<totfact> 0.15845740E+02</totfact>
</mgrwt>
</event>
<event>
 4    1  0.6476857E-006  0.6208514E+03  0.7818608E-02  0.9863066E-01
          2   -1    0    0  501    0  0.00000000000E+00  0.00000000000E+00  0.17035885548E+04  0.17035885548E+04  0.25500000000E-02 0.  1.
         -2   -1    0    0    0  501 -0.00000000000E+00 -0.00000000000E+00 -0.56565366850E+02  0.56565366908E+02  0.25500000000E-02 0. -1.
   -5000001    1    1    2    0    0  0.13533543901E+03  0.73924263861E+02  0.53882204583E+03  0.61368532239E+03  0.25000000000E+03 0.  0.
    5000001    1    1    2    0    0 -0.13533543901E+03 -0.73924263861E+02  0.11082011421E+04  0.11464685993E+04  0.25000000000E+03 0.  0.
<mgrwt>
<rscale>  0 0.62085139E+03</rscale>
<asrwt>0</asrwt>
<pdfrwt beam="1">  1        2 0.26209051E+00 0.62085139E+03</pdfrwt>
<pdfrwt beam="2">  1       -2 0.87023655E-02 0.62085139E+03</pdfrwt>
<totfact> 0.85879823E+02</totfact>
</mgrwt>
</event>
<event>
 4    1  0.6476857E-006  0.5644968E+03  0.7818608E-02  0.9981931E-01
          2   -1    0    0  501    0  0.00000000000E+00  0.00000000000E+00  0.69606515130E+03  0.69606515130E+03  0.25500000000E-02 0.  1.
         -2   -1    0    0    0  501 -0.00000000000E+00 -0.00000000000E+00 -0.11444929195E+03  0.11444929198E+03  0.25500000000E-02 0. -1.
   -5000001    1    1    2    0    0 -0.43386987937E+02  0.12349666076E+03  0.29871246611E+03  0.41092942624E+03  0.25000000000E+03 0.  0.
    5000001    1    1    2    0    0  0.43386987937E+02 -0.12349666076E+03  0.28290339323E+03  0.39958501704E+03  0.25000000000E+03 0.  0.
<mgrwt>
<rscale>  0 0.56449682E+03</rscale>
<asrwt>0</asrwt>
<pdfrwt beam="1">  1        2 0.10708695E+00 0.56449682E+03</pdfrwt>
<pdfrwt beam="2">  1       -2 0.17607584E-01 0.56449682E+03</pdfrwt>
<totfact> 0.11033960E+03</totfact>
</mgrwt>
</event>
<event>
 4    1  0.6476857E-006  0.6339645E+03  0.7818608E-02  0.9837343E-01
          2   -1    0    0  501    0  0.00000000000E+00  0.00000000000E+00  0.49958697284E+03  0.49958697285E+03  0.25500000000E-02 0.  1.
         -2   -1    0    0    0  501 -0.00000000000E+00 -0.00000000000E+00 -0.20112161274E+03  0.20112161276E+03  0.25500000000E-02 0. -1.
   -5000001    1    1    2    0    0  0.53698393884E+02 -0.15302780025E+03  0.26866800993E+03  0.40122752238E+03  0.25000000000E+03 0.  0.
    5000001    1    1    2    0    0 -0.53698393884E+02  0.15302780025E+03  0.29797350168E+02  0.29948106323E+03  0.25000000000E+03 0.  0.
<mgrwt>
<rscale>  0 0.63396447E+03</rscale>
<asrwt>0</asrwt>
<pdfrwt beam="1">  1        2 0.76859534E-01 0.63396447E+03</pdfrwt>
<pdfrwt beam="2">  1       -2 0.30941787E-01 0.63396447E+03</pdfrwt>
<totfact> 0.60016032E+02</totfact>
</mgrwt>
</event>
<event>
 4    1  0.6476857E-006  0.6340836E+03  0.7818608E-02  0.9837112E-01
         -2   -1    0    0    0  501 -0.00000000000E+00  0.00000000000E+00  0.32669635222E+02  0.32669635322E+02  0.25500000000E-02 0. -1.
          2   -1    0    0  501    0  0.00000000000E+00 -0.00000000000E+00 -0.30767252415E+04  0.30767252415E+04  0.25500000000E-02 0.  1.
   -5000001    1    1    2    0    0  0.74932612423E+02  0.14553773307E+03 -0.10026139972E+04  0.10461983347E+04  0.25000000000E+03 0.  0.
    5000001    1    1    2    0    0 -0.74932612423E+02 -0.14553773307E+03 -0.20414416091E+04  0.20631965421E+04  0.25000000000E+03 0.  0.
<mgrwt>
<rscale>  0 0.63408356E+03</rscale>
<asrwt>0</asrwt>
<pdfrwt beam="1">  1        2 0.47334212E+00 0.63408356E+03</pdfrwt>
<pdfrwt beam="2">  1       -2 0.50261002E-02 0.63408356E+03</pdfrwt>
<totfact> 0.34197678E+02</totfact>
</mgrwt>
</event>
<event>
 4    1  0.6476857E-006  0.8540601E+03  0.7818608E-02  0.9484904E-01
          2   -1    0    0  501    0  0.00000000000E+00  0.00000000000E+00  0.36877222647E+03  0.36877222648E+03  0.25500000000E-02 0.  1.
         -2   -1    0    0    0  501 -0.00000000000E+00 -0.00000000000E+00 -0.49449134853E+03  0.49449134854E+03  0.25500000000E-02 0. -1.
   -5000001    1    1    2    0    0 -0.27394399688E+03  0.19170215246E+03  0.27883406294E+02  0.41841667394E+03  0.25000000000E+03 0.  0.
    5000001    1    1    2    0    0  0.27394399688E+03 -0.19170215246E+03 -0.15360252836E+03  0.44484690108E+03  0.25000000000E+03 0.  0.
<mgrwt>
<rscale>  0 0.85406013E+03</rscale>
<asrwt>0</asrwt>
<pdfrwt beam="1">  1        2 0.56734189E-01 0.85406013E+03</pdfrwt>
<pdfrwt beam="2">  1       -2 0.76075592E-01 0.85406013E+03</pdfrwt>
<totfact> 0.13560817E+02</totfact>
</mgrwt>
</event>
<event>
 4    1  0.6476857E-006  0.7407139E+03  0.7818608E-02  0.9650032E-01
          2   -1    0    0  501    0  0.00000000000E+00  0.00000000000E+00  0.10803241406E+03  0.10803241409E+03  0.25500000000E-02 0.  1.
         -2   -1    0    0    0  501 -0.00000000000E+00 -0.00000000000E+00 -0.12696585381E+04  0.12696585381E+04  0.25500000000E-02 0. -1.
   -5000001    1    1    2    0    0  0.25380843834E+03  0.82621939603E+02 -0.68957114978E+03  0.78054691011E+03  0.25000000000E+03 0.  0.
    5000001    1    1    2    0    0 -0.25380843834E+03 -0.82621939603E+02 -0.47205497425E+03  0.59714404208E+03  0.25000000000E+03 0.  0.
<mgrwt>
<rscale>  0 0.74071392E+03</rscale>
<asrwt>0</asrwt>
<pdfrwt beam="1">  1        2 0.16620372E-01 0.74071392E+03</pdfrwt>
<pdfrwt beam="2">  1       -2 0.19533207E+00 0.74071392E+03</pdfrwt>
<totfact> 0.51434437E+01</totfact>
</mgrwt>
</event>
<event>
 4    1  0.6476857E-006  0.7935044E+03  0.7818608E-02  0.9569467E-01
          2   -1    0    0  501    0  0.00000000000E+00  0.00000000000E+00  0.12596684990E+04  0.12596684990E+04  0.25500000000E-02 0. -1.
         -2   -1    0    0    0  501 -0.00000000000E+00 -0.00000000000E+00 -0.12496327503E+03  0.12496327506E+03  0.25500000000E-02 0.  1.
   -5000001    1    1    2    0    0  0.28679830941E+03  0.74737575390E+02  0.71410892445E+03  0.81258263052E+03  0.25000000000E+03 0.  0.
    5000001    1    1    2    0    0 -0.28679830941E+03 -0.74737575390E+02  0.42059629955E+03  0.57204914356E+03  0.25000000000E+03 0.  0.
<mgrwt>
<rscale>  0 0.79350438E+03</rscale>
<asrwt>0</asrwt>
<pdfrwt beam="1">  1        2 0.19379514E+00 0.79350438E+03</pdfrwt>
<pdfrwt beam="2">  1       -2 0.19225120E-01 0.79350438E+03</pdfrwt>
<totfact> 0.40194844E+02</totfact>
</mgrwt>
</event>
<event>
 4    1  0.6476857E-006  0.7644294E+03  0.7818608E-02  0.9612981E-01
         -2   -1    0    0    0  501 -0.00000000000E+00  0.00000000000E+00  0.64298646495E+03  0.64298646495E+03  0.25500000000E-02 0. -1.
          2   -1    0    0  501    0  0.00000000000E+00 -0.00000000000E+00 -0.22720243402E+03  0.22720243403E+03  0.25500000000E-02 0.  1.
   -5000001    1    1    2    0    0  0.12728667673E+03  0.25525138335E+03  0.26168343704E+03  0.46079647134E+03  0.25000000000E+03 0.  0.
    5000001    1    1    2    0    0 -0.12728667673E+03 -0.25525138335E+03  0.15410059389E+03  0.40939242764E+03  0.25000000000E+03 0.  0.
<mgrwt>
<rscale>  0 0.76442943E+03</rscale>
<asrwt>0</asrwt>
<pdfrwt beam="1">  1        2 0.34954220E-01 0.76442943E+03</pdfrwt>
<pdfrwt beam="2">  1       -2 0.98920996E-01 0.76442943E+03</pdfrwt>
<totfact> 0.12802238E+02</totfact>
</mgrwt>
</event>
<event>
 4    1  0.6476857E-006  0.8148702E+03  0.7818608E-02  0.9538739E-01
         -2   -1    0    0    0  501 -0.00000000000E+00  0.00000000000E+00  0.99752747179E+02  0.99752747212E+02  0.25500000000E-02 0.  1.
          2   -1    0    0  501    0  0.00000000000E+00 -0.00000000000E+00 -0.16641481889E+04  0.16641481889E+04  0.25500000000E-02 0. -1.
   -5000001    1    1    2    0    0 -0.21559889151E+03 -0.31370371379E+02 -0.26978398078E+03  0.42749313270E+03  0.25000000000E+03 0.  0.
    5000001    1    1    2    0    0  0.21559889151E+03  0.31370371379E+02 -0.12946114609E+04  0.13364078034E+04  0.25000000000E+03 0.  0.
<mgrwt>
<rscale>  0 0.81487018E+03</rscale>
<asrwt>0</asrwt>
<pdfrwt beam="1">  1        2 0.25602278E+00 0.81487018E+03</pdfrwt>
<pdfrwt beam="2">  1       -2 0.15346578E-01 0.81487018E+03</pdfrwt>
<totfact> 0.35012181E+02</totfact>
</mgrwt>
</event>
<event>
 4    1  0.6476857E-006  0.1409572E+04  0.7818608E-02  0.8946919E-01
          2   -1    0    0  501    0  0.00000000000E+00  0.00000000000E+00  0.10926690885E+04  0.10926690885E+04  0.25500000000E-02 0.  1.
         -2   -1    0    0    0  501 -0.00000000000E+00 -0.00000000000E+00 -0.45459627410E+03  0.45459627411E+03  0.25500000000E-02 0. -1.
   -5000001    1    1    2    0    0 -0.61548288259E+03  0.20311138965E+03  0.44960957439E+03  0.82747941651E+03  0.25000000000E+03 0.  0.
    5000001    1    1    2    0    0  0.61548288259E+03 -0.20311138965E+03  0.18846324001E+03  0.71978594610E+03  0.25000000000E+03 0.  0.
<mgrwt>
<rscale>  0 0.14095720E+04</rscale>
<asrwt>0</asrwt>
<pdfrwt beam="1">  1        2 0.16810294E+00 0.14095720E+04</pdfrwt>
<pdfrwt beam="2">  1       -2 0.69937888E-01 0.14095720E+04</pdfrwt>
<totfact> 0.39887955E+01</totfact>
</mgrwt>
</event>
<event>
 4    1  0.6476857E-006  0.9803263E+03  0.7818608E-02  0.9330390E-01
          2   -1    0    0  501    0  0.00000000000E+00  0.00000000000E+00  0.19938543548E+03  0.19938543549E+03  0.25500000000E-02 0.  1.
         -2   -1    0    0    0  501 -0.00000000000E+00 -0.00000000000E+00 -0.12050023570E+04  0.12050023570E+04  0.25500000000E-02 0. -1.
   -5000001    1    1    2    0    0 -0.27861183852E+02  0.40930251245E+03 -0.64210812840E+03  0.80193992345E+03  0.25000000000E+03 0.  0.
    5000001    1    1    2    0    0  0.27861183852E+02 -0.40930251245E+03 -0.36350879316E+03  0.60244786909E+03  0.25000000000E+03 0.  0.
<mgrwt>
<rscale>  0 0.98032631E+03</rscale>
<asrwt>0</asrwt>
<pdfrwt beam="1">  1        2 0.30674683E-01 0.98032631E+03</pdfrwt>
<pdfrwt beam="2">  1       -2 0.18538497E+00 0.98032631E+03</pdfrwt>
<totfact> 0.28908631E+01</totfact>
</mgrwt>
</event>
<event>
 4    1  0.6476857E-006  0.6368412E+03  0.7818608E-02  0.9831789E-01
          2   -1    0    0  501    0  0.00000000000E+00  0.00000000000E+00  0.12481355009E+04  0.12481355009E+04  0.25500000000E-02 0.  1.
         -2   -1    0    0    0  501 -0.00000000000E+00 -0.00000000000E+00 -0.81234502189E+02  0.81234502229E+02  0.25500000000E-02 0. -1.
   -5000001    1    1    2    0    0  0.14413020753E+03 -0.13165693570E+03  0.52497969261E+03  0.61336020664E+03  0.25000000000E+03 0.  0.
    5000001    1    1    2    0    0 -0.14413020753E+03  0.13165693570E+03  0.64192130608E+03  0.71600979647E+03  0.25000000000E+03 0.  0.
<mgrwt>
<rscale>  0 0.63684116E+03</rscale>
<asrwt>0</asrwt>
<pdfrwt beam="1">  1        2 0.19202085E+00 0.63684116E+03</pdfrwt>
<pdfrwt beam="2">  1       -2 0.12497615E-01 0.63684116E+03</pdfrwt>
<totfact> 0.85387274E+02</totfact>
</mgrwt>
</event>
<event>
 4    1  0.6476857E-006  0.6041091E+03  0.7818608E-02  0.9896918E-01
         -2   -1    0    0    0  501 -0.00000000000E+00  0.00000000000E+00  0.81370196103E+02  0.81370196143E+02  0.25500000000E-02 0. -1.
          2   -1    0    0  501    0  0.00000000000E+00 -0.00000000000E+00 -0.11212575425E+04  0.11212575425E+04  0.25500000000E-02 0.  1.
   -5000001    1    1    2    0    0 -0.93895752065E+02  0.14093658616E+03 -0.53502777096E+03  0.61435677686E+03  0.25000000000E+03 0.  0.
    5000001    1    1    2    0    0  0.93895752065E+02 -0.14093658616E+03 -0.50485957545E+03  0.58827096180E+03  0.25000000000E+03 0.  0.
<mgrwt>
<rscale>  0 0.60410908E+03</rscale>
<asrwt>0</asrwt>
<pdfrwt beam="1">  1        2 0.17250115E+00 0.60410908E+03</pdfrwt>
<pdfrwt beam="2">  1       -2 0.12518493E-01 0.60410908E+03</pdfrwt>
<totfact> 0.10131772E+03</totfact>
</mgrwt>
</event>
<event>
 4    1  0.6476857E-006  0.1145021E+04  0.7818608E-02  0.9162389E-01
          2   -1    0    0  501    0  0.00000000000E+00  0.00000000000E+00  0.45230551240E+03  0.45230551241E+03  0.25500000000E-02 0.  1.
         -2   -1    0    0    0  501 -0.00000000000E+00 -0.00000000000E+00 -0.72466132309E+03  0.72466132309E+03  0.25500000000E-02 0. -1.
   -5000001    1    1    2    0    0  0.12176161251E+03 -0.33637967972E+03 -0.51704371775E+03  0.67661760639E+03  0.25000000000E+03 0.  0.
    5000001    1    1    2    0    0 -0.12176161251E+03  0.33637967972E+03  0.24468790707E+03  0.50034922911E+03  0.25000000000E+03 0.  0.
<mgrwt>
<rscale>  0 0.11450211E+04</rscale>
<asrwt>0</asrwt>
<pdfrwt beam="1">  1        2 0.69585464E-01 0.11450211E+04</pdfrwt>
<pdfrwt beam="2">  1       -2 0.11148636E+00 0.11450211E+04</pdfrwt>
<totfact> 0.43535889E+01</totfact>
</mgrwt>
</event>
<event>
 4    1  0.6476857E-006  0.5597268E+03  0.7818608E-02  0.9992673E-01
          2   -1    0    0  501    0  0.00000000000E+00  0.00000000000E+00  0.36590450596E+03  0.36590450597E+03  0.25500000000E-02 0.  1.
         -2   -1    0    0    0  501 -0.00000000000E+00 -0.00000000000E+00 -0.21405453385E+03  0.21405453387E+03  0.25500000000E-02 0. -1.
   -5000001    1    1    2    0    0 -0.96051021587E+02  0.54385049289E+02  0.13411877330E+02  0.27361178847E+03  0.25000000000E+03 0.  0.
    5000001    1    1    2    0    0  0.96051021587E+02 -0.54385049289E+02  0.13843809478E+03  0.30634725137E+03  0.25000000000E+03 0.  0.
<mgrwt>
<rscale>  0 0.55972679E+03</rscale>
<asrwt>0</asrwt>
<pdfrwt beam="1">  1        2 0.56293000E-01 0.55972679E+03</pdfrwt>
<pdfrwt beam="2">  1       -2 0.32931467E-01 0.55972679E+03</pdfrwt>
<totfact> 0.76006161E+02</totfact>
</mgrwt>
</event>
<event>
 4    1  0.6476857E-006  0.1469003E+04  0.7818608E-02  0.8905331E-01
          2   -1    0    0  501    0  0.00000000000E+00  0.00000000000E+00  0.30955988008E+04  0.30955988008E+04  0.25500000000E-02 0.  1.
         -2   -1    0    0    0  501 -0.00000000000E+00 -0.00000000000E+00 -0.17427730789E+03  0.17427730791E+03  0.25500000000E-02 0. -1.
   -5000001    1    1    2    0    0 -0.60462971101E+03 -0.30393015801E+03  0.17678208406E+04  0.19093562142E+04  0.25000000000E+03 0.  0.
    5000001    1    1    2    0    0  0.60462971101E+03  0.30393015801E+03  0.11535006523E+04  0.13605198944E+04  0.25000000000E+03 0.  0.
<mgrwt>
<rscale>  0 0.14690032E+04</rscale>
<asrwt>0</asrwt>
<pdfrwt beam="1">  1        2 0.47624599E+00 0.14690032E+04</pdfrwt>
<pdfrwt beam="2">  1       -2 0.26811892E-01 0.14690032E+04</pdfrwt>
<totfact> 0.18688416E+01</totfact>
</mgrwt>
</event>
<event>
 4    1  0.6476857E-006  0.6696100E+03  0.7818608E-02  0.9770663E-01
          2   -1    0    0  501    0  0.00000000000E+00  0.00000000000E+00  0.49917410816E+03  0.49917410817E+03  0.25500000000E-02 0.  1.
         -2   -1    0    0    0  501 -0.00000000000E+00 -0.00000000000E+00 -0.22455973359E+03  0.22455973360E+03  0.25500000000E-02 0. -1.
   -5000001    1    1    2    0    0 -0.19521648013E+03  0.58709334365E+02  0.40404721718E+02  0.32509814148E+03  0.25000000000E+03 0.  0.
    5000001    1    1    2    0    0  0.19521648013E+03 -0.58709334365E+02  0.23420965286E+03  0.39863570029E+03  0.25000000000E+03 0.  0.
<mgrwt>
<rscale>  0 0.66961005E+03</rscale>
<asrwt>0</asrwt>
<pdfrwt beam="1">  1        2 0.76796016E-01 0.66961005E+03</pdfrwt>
<pdfrwt beam="2">  1       -2 0.34547652E-01 0.66961005E+03</pdfrwt>
<totfact> 0.48801259E+02</totfact>
</mgrwt>
</event>
<event>
 4    1  0.6476857E-006  0.1286885E+04  0.7818608E-02  0.9040031E-01
         -2   -1    0    0    0  501 -0.00000000000E+00  0.00000000000E+00  0.24039180030E+03  0.24039180031E+03  0.25500000000E-02 0.  1.
          2   -1    0    0  501    0  0.00000000000E+00 -0.00000000000E+00 -0.17222638607E+04  0.17222638607E+04  0.25500000000E-02 0. -1.
   -5000001    1    1    2    0    0  0.58708016245E+03 -0.82628560730E+02 -0.73293620880E+03  0.97528769210E+03  0.25000000000E+03 0.  0.
    5000001    1    1    2    0    0 -0.58708016245E+03  0.82628560730E+02 -0.74893585157E+03  0.98736796888E+03  0.25000000000E+03 0.  0.
<mgrwt>
<rscale>  0 0.12868848E+04</rscale>
<asrwt>0</asrwt>
<pdfrwt beam="1">  1        2 0.26496366E+00 0.12868848E+04</pdfrwt>
<pdfrwt beam="2">  1       -2 0.36983355E-01 0.12868848E+04</pdfrwt>
<totfact> 0.64415158E+01</totfact>
</mgrwt>
</event>
<event>
 4    1  0.6476857E-006  0.6353063E+03  0.7818608E-02  0.9834748E-01
         -2   -1    0    0    0  501 -0.00000000000E+00  0.00000000000E+00  0.15652219204E+03  0.15652219206E+03  0.25500000000E-02 0. -1.
          2   -1    0    0  501    0  0.00000000000E+00 -0.00000000000E+00 -0.64465952935E+03  0.64465952935E+03  0.25500000000E-02 0.  1.
   -5000001    1    1    2    0    0  0.17416340139E+03 -0.35479485341E+02 -0.13998561128E+03  0.33717600097E+03  0.25000000000E+03 0.  0.
    5000001    1    1    2    0    0 -0.17416340139E+03  0.35479485341E+02 -0.34815172603E+03  0.46400572044E+03  0.25000000000E+03 0.  0.
<mgrwt>
<rscale>  0 0.63530630E+03</rscale>
<asrwt>0</asrwt>
<pdfrwt beam="1">  1        2 0.99178388E-01 0.63530630E+03</pdfrwt>
<pdfrwt beam="2">  1       -2 0.24080338E-01 0.63530630E+03</pdfrwt>
<totfact> 0.70052983E+02</totfact>
</mgrwt>
</event>
<event>
 4    1  0.6476857E-006  0.1222877E+04  0.7818608E-02  0.9093065E-01
         -2   -1    0    0    0  501 -0.00000000000E+00  0.00000000000E+00  0.14738026294E+04  0.14738026294E+04  0.25500000000E-02 0. -1.
          2   -1    0    0  501    0  0.00000000000E+00 -0.00000000000E+00 -0.25366816761E+03  0.25366816763E+03  0.25500000000E-02 0.  1.
   -5000001    1    1    2    0    0 -0.19016020417E+02 -0.55763035617E+03  0.61939371433E+03  0.87032281167E+03  0.25000000000E+03 0.  0.
    5000001    1    1    2    0    0  0.19016020417E+02  0.55763035617E+03  0.60074074747E+03  0.85714798537E+03  0.25000000000E+03 0.  0.
<mgrwt>
<rscale>  0 0.12228766E+04</rscale>
<asrwt>0</asrwt>
<pdfrwt beam="1">  1        2 0.39025871E-01 0.12228766E+04</pdfrwt>
<pdfrwt beam="2">  1       -2 0.22673887E+00 0.12228766E+04</pdfrwt>
<totfact> 0.11700784E+01</totfact>
</mgrwt>
</event>
<event>
 4    1  0.6476857E-006  0.9423590E+03  0.7818608E-02  0.9374127E-01
         -2   -1    0    0    0  501 -0.00000000000E+00  0.00000000000E+00  0.83629669160E+02  0.83629669199E+02  0.25500000000E-02 0. -1.
          2   -1    0    0  501    0  0.00000000000E+00 -0.00000000000E+00 -0.26546810960E+04  0.26546810960E+04  0.25500000000E-02 0.  1.
   -5000001    1    1    2    0    0 -0.33578416016E+03 -0.20276256559E+03 -0.15038760127E+04  0.15741685811E+04  0.25000000000E+03 0.  0.
    5000001    1    1    2    0    0  0.33578416016E+03  0.20276256559E+03 -0.10671754142E+04  0.11641421841E+04  0.25000000000E+03 0.  0.
<mgrwt>
<rscale>  0 0.94235896E+03</rscale>
<asrwt>0</asrwt>
<pdfrwt beam="1">  1        2 0.40841241E+00 0.94235896E+03</pdfrwt>
<pdfrwt beam="2">  1       -2 0.12866105E-01 0.94235896E+03</pdfrwt>
<totfact> 0.13099001E+02</totfact>
</mgrwt>
</event>
<event>
 4    1  0.6476857E-006  0.6834694E+03  0.7818608E-02  0.9745927E-01
         -2   -1    0    0    0  501 -0.00000000000E+00  0.00000000000E+00  0.91836563838E+03  0.91836563838E+03  0.25500000000E-02 0. -1.
          2   -1    0    0  501    0  0.00000000000E+00 -0.00000000000E+00 -0.12716352965E+03  0.12716352968E+03  0.25500000000E-02 0.  1.
   -5000001    1    1    2    0    0 -0.76665082030E+02 -0.17014165464E+03  0.60898113063E+03  0.68423953036E+03  0.25000000000E+03 0.  0.
    5000001    1    1    2    0    0  0.76665082030E+02  0.17014165464E+03  0.18222097810E+03  0.36128963769E+03  0.25000000000E+03 0.  0.
<mgrwt>
<rscale>  0 0.68346943E+03</rscale>
<asrwt>0</asrwt>
<pdfrwt beam="1">  1        2 0.19563620E-01 0.68346943E+03</pdfrwt>
<pdfrwt beam="2">  1       -2 0.14128702E+00 0.68346943E+03</pdfrwt>
<totfact> 0.10360711E+02</totfact>
</mgrwt>
</event>
<event>
 4    1  0.6476857E-006  0.1062800E+04  0.7818608E-02  0.9242228E-01
          2   -1    0    0  501    0  0.00000000000E+00  0.00000000000E+00  0.17257882782E+04  0.17257882782E+04  0.25500000000E-02 0.  1.
         -2   -1    0    0    0  501 -0.00000000000E+00 -0.00000000000E+00 -0.16362715386E+03  0.16362715388E+03  0.25500000000E-02 0. -1.
   -5000001    1    1    2    0    0  0.11365506692E+03 -0.42085889856E+03  0.10882090377E+04  0.11986403116E+04  0.25000000000E+03 0.  0.
    5000001    1    1    2    0    0 -0.11365506692E+03  0.42085889856E+03  0.47395208665E+03  0.69077512056E+03  0.25000000000E+03 0.  0.
<mgrwt>
<rscale>  0 0.10627997E+04</rscale>
<asrwt>0</asrwt>
<pdfrwt beam="1">  1        2 0.26550588E+00 0.10627997E+04</pdfrwt>
<pdfrwt beam="2">  1       -2 0.25173409E-01 0.10627997E+04</pdfrwt>
<totfact> 0.13377930E+02</totfact>
</mgrwt>
</event>
<event>
 4    1  0.6476857E-006  0.7508695E+03  0.7818608E-02  0.9633987E-01
          2   -1    0    0  501    0  0.00000000000E+00  0.00000000000E+00  0.13317460516E+04  0.13317460516E+04  0.25500000000E-02 0.  1.
         -2   -1    0    0    0  501 -0.00000000000E+00 -0.00000000000E+00 -0.10583942267E+03  0.10583942270E+03  0.25500000000E-02 0. -1.
   -5000001    1    1    2    0    0  0.16189967727E+03 -0.22658160266E+03  0.55550036478E+03  0.66979950988E+03  0.25000000000E+03 0.  0.
    5000001    1    1    2    0    0 -0.16189967727E+03  0.22658160266E+03  0.67040626417E+03  0.76778596445E+03  0.25000000000E+03 0.  0.
<mgrwt>
<rscale>  0 0.75086945E+03</rscale>
<asrwt>0</asrwt>
<pdfrwt beam="1">  1        2 0.20488400E+00 0.75086945E+03</pdfrwt>
<pdfrwt beam="2">  1       -2 0.16282989E-01 0.75086945E+03</pdfrwt>
<totfact> 0.48733114E+02</totfact>
</mgrwt>
</event>
<event>
 4    1  0.6476857E-006  0.7095218E+03  0.7818608E-02  0.9701086E-01
          2   -1    0    0  501    0  0.00000000000E+00  0.00000000000E+00  0.15757535227E+03  0.15757535229E+03  0.25500000000E-02 0.  1.
         -2   -1    0    0    0  501 -0.00000000000E+00 -0.00000000000E+00 -0.79869919173E+03  0.79869919173E+03  0.25500000000E-02 0. -1.
   -5000001    1    1    2    0    0  0.23743492380E+03  0.32344499191E+02 -0.21674140688E+03  0.40853194138E+03  0.25000000000E+03 0.  0.
    5000001    1    1    2    0    0 -0.23743492380E+03 -0.32344499191E+02 -0.42438243258E+03  0.54774260265E+03  0.25000000000E+03 0.  0.
<mgrwt>
<rscale>  0 0.70952183E+03</rscale>
<asrwt>0</asrwt>
<pdfrwt beam="1">  1        2 0.24242362E-01 0.70952183E+03</pdfrwt>
<pdfrwt beam="2">  1       -2 0.12287680E+00 0.70952183E+03</pdfrwt>
<totfact> 0.11488307E+02</totfact>
</mgrwt>
</event>
<event>
 4    1  0.6476857E-006  0.6567634E+03  0.7818608E-02  0.9794170E-01
          2   -1    0    0  501    0  0.00000000000E+00  0.00000000000E+00  0.63252290064E+03  0.63252290064E+03  0.25500000000E-02 0.  1.
         -2   -1    0    0    0  501 -0.00000000000E+00 -0.00000000000E+00 -0.17048319592E+03  0.17048319593E+03  0.25500000000E-02 0. -1.
   -5000001    1    1    2    0    0 -0.19883743039E+03 -0.74054010560E+02  0.20934696620E+03  0.38903273957E+03  0.25000000000E+03 0.  0.
    5000001    1    1    2    0    0  0.19883743039E+03  0.74054010560E+02  0.25269273852E+03  0.41397335700E+03  0.25000000000E+03 0.  0.
<mgrwt>
<rscale>  0 0.65676335E+03</rscale>
<asrwt>0</asrwt>
<pdfrwt beam="1">  1        2 0.97311216E-01 0.65676335E+03</pdfrwt>
<pdfrwt beam="2">  1       -2 0.26228184E-01 0.65676335E+03</pdfrwt>
<totfact> 0.61442680E+02</totfact>
</mgrwt>
</event>
<event>
 4    1  0.6476857E-006  0.6764199E+03  0.7818608E-02  0.9758429E-01
         -2   -1    0    0    0  501 -0.00000000000E+00  0.00000000000E+00  0.29307867359E+03  0.29307867360E+03  0.25500000000E-02 0. -1.
          2   -1    0    0  501    0  0.00000000000E+00 -0.00000000000E+00 -0.39029106149E+03  0.39029106150E+03  0.25500000000E-02 0.  1.
   -5000001    1    1    2    0    0  0.22568571120E+03  0.24520328350E+02 -0.29686803349E+02  0.33899349999E+03  0.25000000000E+03 0.  0.
    5000001    1    1    2    0    0 -0.22568571120E+03 -0.24520328350E+02 -0.67525584554E+02  0.34437623511E+03  0.25000000000E+03 0.  0.
<mgrwt>
<rscale>  0 0.67641995E+03</rscale>
<asrwt>0</asrwt>
<pdfrwt beam="1">  1        2 0.60044779E-01 0.67641995E+03</pdfrwt>
<pdfrwt beam="2">  1       -2 0.45089027E-01 0.67641995E+03</pdfrwt>
<totfact> 0.38474026E+02</totfact>
</mgrwt>
</event>
<event>
 4    1  0.6476857E-006  0.6281389E+03  0.7818608E-02  0.9848687E-01
         -2   -1    0    0    0  501 -0.00000000000E+00  0.00000000000E+00  0.96582607652E+02  0.96582607686E+02  0.25500000000E-02 0. -1.
          2   -1    0    0  501    0  0.00000000000E+00 -0.00000000000E+00 -0.10212978421E+04  0.10212978421E+04  0.25500000000E-02 0.  1.
   -5000001    1    1    2    0    0  0.14836183118E+03  0.50917795244E+02 -0.27121272939E+03  0.40082439971E+03  0.25000000000E+03 0.  0.
    5000001    1    1    2    0    0 -0.14836183118E+03 -0.50917795244E+02 -0.65350250501E+03  0.71705605003E+03  0.25000000000E+03 0.  0.
<mgrwt>
<rscale>  0 0.62813887E+03</rscale>
<asrwt>0</asrwt>
<pdfrwt beam="1">  1        2 0.15712274E+00 0.62813887E+03</pdfrwt>
<pdfrwt beam="2">  1       -2 0.14858863E-01 0.62813887E+03</pdfrwt>
<totfact> 0.87611844E+02</totfact>
</mgrwt>
</event>
<event>
 4    1  0.6476857E-006  0.5223980E+03  0.7818608E-02  0.1008093E+00
         -2   -1    0    0    0  501 -0.00000000000E+00  0.00000000000E+00  0.22259598676E+02  0.22259598822E+02  0.25500000000E-02 0. -1.
          2   -1    0    0  501    0  0.00000000000E+00 -0.00000000000E+00 -0.30649658112E+04  0.30649658112E+04  0.25500000000E-02 0.  1.
   -5000001    1    1    2    0    0  0.18495125898E+02 -0.62414322091E+02 -0.12934422770E+04  0.13189884538E+04  0.25000000000E+03 0.  0.
    5000001    1    1    2    0    0 -0.18495125898E+02  0.62414322091E+02 -0.17492639355E+04  0.17682369563E+04  0.25000000000E+03 0.  0.
<mgrwt>
<rscale>  0 0.52239797E+03</rscale>
<asrwt>0</asrwt>
<pdfrwt beam="1">  1        2 0.47153287E+00 0.52239797E+03</pdfrwt>
<pdfrwt beam="2">  1       -2 0.34245561E-02 0.52239797E+03</pdfrwt>
<totfact> 0.63554525E+02</totfact>
</mgrwt>
</event>
<event>
 4    1  0.6476857E-006  0.1920634E+04  0.7818608E-02  0.8644653E-01
          2   -1    0    0  501    0  0.00000000000E+00  0.00000000000E+00  0.20866578934E+04  0.20866578934E+04  0.25500000000E-02 0.  1.
         -2   -1    0    0    0  501 -0.00000000000E+00 -0.00000000000E+00 -0.44195514905E+03  0.44195514906E+03  0.25500000000E-02 0. -1.
   -5000001    1    1    2    0    0 -0.34297021837E+03 -0.17636716578E+03 -0.28775576480E+03  0.54225208900E+03  0.25000000000E+03 0.  0.
    5000001    1    1    2    0    0  0.34297021837E+03  0.17636716578E+03  0.19324585091E+04  0.19863609535E+04  0.25000000000E+03 0.  0.
<mgrwt>
<rscale>  0 0.19206345E+04</rscale>
<asrwt>0</asrwt>
<pdfrwt beam="1">  1        2 0.32102429E+00 0.19206345E+04</pdfrwt>
<pdfrwt beam="2">  1       -2 0.67993101E-01 0.19206345E+04</pdfrwt>
<totfact> 0.11069884E+01</totfact>
</mgrwt>
</event>
<event>
 4    1  0.6476857E-006  0.5889684E+03  0.7818608E-02  0.9928561E-01
          2   -1    0    0  501    0  0.00000000000E+00  0.00000000000E+00  0.10913726439E+04  0.10913726439E+04  0.25500000000E-02 0.  1.
         -2   -1    0    0    0  501 -0.00000000000E+00 -0.00000000000E+00 -0.79460429634E+02  0.79460429675E+02  0.25500000000E-02 0. -1.
   -5000001    1    1    2    0    0  0.12594416533E+03  0.75014381527E+02  0.40205232796E+03  0.49561594469E+03  0.25000000000E+03 0.  0.
    5000001    1    1    2    0    0 -0.12594416533E+03 -0.75014381527E+02  0.60985988635E+03  0.67521712892E+03  0.25000000000E+03 0.  0.
<mgrwt>
<rscale>  0 0.58896838E+03</rscale>
<asrwt>0</asrwt>
<pdfrwt beam="1">  1        2 0.16790347E+00 0.58896838E+03</pdfrwt>
<pdfrwt beam="2">  1       -2 0.12224683E-01 0.58896838E+03</pdfrwt>
<totfact> 0.10990485E+03</totfact>
</mgrwt>
</event>
<event>
 4    1  0.6476857E-006  0.7036954E+03  0.7818608E-02  0.9710933E-01
          2   -1    0    0  501    0  0.00000000000E+00  0.00000000000E+00  0.19394608973E+04  0.19394608973E+04  0.25500000000E-02 0.  1.
         -2   -1    0    0    0  501 -0.00000000000E+00 -0.00000000000E+00 -0.63830528127E+02  0.63830528178E+02  0.25500000000E-02 0. -1.
   -5000001    1    1    2    0    0 -0.20796140165E+03 -0.12063944550E+03  0.11061145817E+04  0.11592201207E+04  0.25000000000E+03 0.  0.
    5000001    1    1    2    0    0  0.20796140165E+03  0.12063944550E+03  0.76951578752E+03  0.84407130483E+03  0.25000000000E+03 0.  0.
<mgrwt>
<rscale>  0 0.70369543E+03</rscale>
<asrwt>0</asrwt>
<pdfrwt beam="1">  1        2 0.29837856E+00 0.70369543E+03</pdfrwt>
<pdfrwt beam="2">  1       -2 0.98200826E-02 0.70369543E+03</pdfrwt>
<totfact> 0.52331549E+02</totfact>
</mgrwt>
</event>
<event>
 4    1  0.6476857E-006  0.7684570E+03  0.7818608E-02  0.9606831E-01
          2   -1    0    0  501    0  0.00000000000E+00  0.00000000000E+00  0.33579243886E+03  0.33579243887E+03  0.25500000000E-02 0.  1.
         -2   -1    0    0    0  501 -0.00000000000E+00 -0.00000000000E+00 -0.43965114117E+03  0.43965114118E+03  0.25500000000E-02 0. -1.
   -5000001    1    1    2    0    0  0.60344498625E+02 -0.28520747229E+03 -0.39704414640E+02  0.38608444841E+03  0.25000000000E+03 0.  0.
    5000001    1    1    2    0    0 -0.60344498625E+02  0.28520747229E+03 -0.64154287677E+02  0.38935913164E+03  0.25000000000E+03 0.  0.
<mgrwt>
<rscale>  0 0.76845697E+03</rscale>
<asrwt>0</asrwt>
<pdfrwt beam="1">  1        2 0.51660375E-01 0.76845697E+03</pdfrwt>
<pdfrwt beam="2">  1       -2 0.67638637E-01 0.76845697E+03</pdfrwt>
<totfact> 0.19558016E+02</totfact>
</mgrwt>
</event>
<event>
 4    1  0.6476857E-006  0.6625966E+03  0.7818608E-02  0.9783426E-01
          2   -1    0    0  501    0  0.00000000000E+00  0.00000000000E+00  0.23307466967E+04  0.23307466967E+04  0.25500000000E-02 0.  1.
         -2   -1    0    0    0  501 -0.00000000000E+00 -0.00000000000E+00 -0.47091586815E+02  0.47091586884E+02  0.25500000000E-02 0. -1.
   -5000001    1    1    2    0    0  0.16554298913E+03  0.44112200579E+02  0.16220682968E+04  0.16501381539E+04  0.25000000000E+03 0.  0.
    5000001    1    1    2    0    0 -0.16554298913E+03 -0.44112200579E+02  0.66158681307E+03  0.72770012966E+03  0.25000000000E+03 0.  0.
<mgrwt>
<rscale>  0 0.66259659E+03</rscale>
<asrwt>0</asrwt>
<pdfrwt beam="1">  1        2 0.35857648E+00 0.66259659E+03</pdfrwt>
<pdfrwt beam="2">  1       -2 0.72448582E-02 0.66259659E+03</pdfrwt>
<totfact> 0.52202578E+02</totfact>
</mgrwt>
</event>
<event>
 4    1  0.6476857E-006  0.5977985E+03  0.7818608E-02  0.9909984E-01
         -2   -1    0    0    0  501 -0.00000000000E+00  0.00000000000E+00  0.36843608146E+02  0.36843608234E+02  0.25500000000E-02 0. -1.
          2   -1    0    0  501    0  0.00000000000E+00 -0.00000000000E+00 -0.24248646022E+04  0.24248646022E+04  0.25500000000E-02 0.  1.
   -5000001    1    1    2    0    0 -0.60577231895E+02  0.68607317364E+02 -0.63445011463E+03  0.68804324935E+03  0.25000000000E+03 0.  0.
    5000001    1    1    2    0    0  0.60577231895E+02 -0.68607317364E+02 -0.17535708794E+04  0.17736649611E+04  0.25000000000E+03 0.  0.
<mgrwt>
<rscale>  0 0.59779850E+03</rscale>
<asrwt>0</asrwt>
<pdfrwt beam="1">  1        2 0.37305597E+00 0.59779850E+03</pdfrwt>
<pdfrwt beam="2">  1       -2 0.56682493E-02 0.59779850E+03</pdfrwt>
<totfact> 0.68460753E+02</totfact>
</mgrwt>
</event>
<event>
 4    1  0.6476857E-006  0.1005066E+04  0.7818608E-02  0.9303005E-01
         -2   -1    0    0    0  501 -0.00000000000E+00  0.00000000000E+00  0.22613657590E+03  0.22613657591E+03  0.25500000000E-02 0. -1.
          2   -1    0    0  501    0  0.00000000000E+00 -0.00000000000E+00 -0.11167572589E+04  0.11167572589E+04  0.25500000000E-02 0.  1.
   -5000001    1    1    2    0    0  0.42624008396E+03 -0.11651493709E+02 -0.56647329534E+03  0.75180340569E+03  0.25000000000E+03 0.  0.
    5000001    1    1    2    0    0 -0.42624008396E+03  0.11651493709E+02 -0.32414738766E+03  0.59109042913E+03  0.25000000000E+03 0.  0.
<mgrwt>
<rscale>  0 0.10050665E+04</rscale>
<asrwt>0</asrwt>
<pdfrwt beam="1">  1        2 0.17180881E+00 0.10050665E+04</pdfrwt>
<pdfrwt beam="2">  1       -2 0.34790243E-01 0.10050665E+04</pdfrwt>
<totfact> 0.16434574E+02</totfact>
</mgrwt>
</event>
<event>
 4    1  0.6476857E-006  0.6721553E+03  0.7818608E-02  0.9766072E-01
          2   -1    0    0  501    0  0.00000000000E+00  0.00000000000E+00  0.11555251407E+04  0.11555251407E+04  0.25500000000E-02 0.  1.
         -2   -1    0    0    0  501 -0.00000000000E+00 -0.00000000000E+00 -0.97746185355E+02  0.97746185388E+02  0.25500000000E-02 0. -1.
   -5000001    1    1    2    0    0 -0.19996065245E+03 -0.98107283404E+02  0.58289318980E+03  0.67221556981E+03  0.25000000000E+03 0.  0.
    5000001    1    1    2    0    0  0.19996065245E+03  0.98107283404E+02  0.47488576556E+03  0.58105575629E+03  0.25000000000E+03 0.  0.
<mgrwt>
<rscale>  0 0.67215526E+03</rscale>
<asrwt>0</asrwt>
<pdfrwt beam="1">  1        2 0.17777309E+00 0.67215526E+03</pdfrwt>
<pdfrwt beam="2">  1       -2 0.15037875E-01 0.67215526E+03</pdfrwt>
<totfact> 0.70952519E+02</totfact>
</mgrwt>
</event>
<event>
 4    1  0.6476857E-006  0.7950839E+03  0.7818608E-02  0.9567160E-01
          2   -1    0    0  501    0  0.00000000000E+00  0.00000000000E+00  0.89656564135E+03  0.89656564135E+03  0.25500000000E-02 0.  1.
         -2   -1    0    0    0  501 -0.00000000000E+00 -0.00000000000E+00 -0.17627218832E+03  0.17627218834E+03  0.25500000000E-02 0. -1.
   -5000001    1    1    2    0    0  0.13874456280E+03  0.26498173218E+03  0.25498293466E+03  0.46581291208E+03  0.25000000000E+03 0.  0.
    5000001    1    1    2    0    0 -0.13874456280E+03 -0.26498173218E+03  0.46531051837E+03  0.60702491761E+03  0.25000000000E+03 0.  0.
<mgrwt>
<rscale>  0 0.79508386E+03</rscale>
<asrwt>0</asrwt>
<pdfrwt beam="1">  1        2 0.13793318E+00 0.79508386E+03</pdfrwt>
<pdfrwt beam="2">  1       -2 0.27118798E-01 0.79508386E+03</pdfrwt>
<totfact> 0.36597386E+02</totfact>
</mgrwt>
</event>
<event>
 4    1  0.6476857E-006  0.6645472E+03  0.7818608E-02  0.9779859E-01
          2   -1    0    0  501    0  0.00000000000E+00  0.00000000000E+00  0.54052116846E+03  0.54052116846E+03  0.25500000000E-02 0.  1.
         -2   -1    0    0    0  501 -0.00000000000E+00 -0.00000000000E+00 -0.20425793899E+03  0.20425793901E+03  0.25500000000E-02 0. -1.
   -5000001    1    1    2    0    0  0.30990782375E+02 -0.17724402241E+03  0.30779595771E+03  0.43544715369E+03  0.25000000000E+03 0.  0.
    5000001    1    1    2    0    0 -0.30990782375E+02  0.17724402241E+03  0.28467271757E+02  0.30933195379E+03  0.25000000000E+03 0.  0.
<mgrwt>
<rscale>  0 0.66454718E+03</rscale>
<asrwt>0</asrwt>
<pdfrwt beam="1">  1        2 0.83157102E-01 0.66454718E+03</pdfrwt>
<pdfrwt beam="2">  1       -2 0.31424299E-01 0.66454718E+03</pdfrwt>
<totfact> 0.53164468E+02</totfact>
</mgrwt>
</event>
<event>
 4    1  0.6476857E-006  0.8414437E+03  0.7818608E-02  0.9501893E-01
         -2   -1    0    0    0  501 -0.00000000000E+00  0.00000000000E+00  0.38516941773E+03  0.38516941774E+03  0.25500000000E-02 0. -1.
          2   -1    0    0  501    0  0.00000000000E+00 -0.00000000000E+00 -0.45955583970E+03  0.45955583971E+03  0.25500000000E-02 0.  1.
   -5000001    1    1    2    0    0  0.29258584903E+03 -0.16900674902E+03 -0.55624960207E+02  0.42398572672E+03  0.25000000000E+03 0.  0.
    5000001    1    1    2    0    0 -0.29258584903E+03  0.16900674902E+03 -0.18761461764E+02  0.42073953072E+03  0.25000000000E+03 0.  0.
<mgrwt>
<rscale>  0 0.84144365E+03</rscale>
<asrwt>0</asrwt>
<pdfrwt beam="1">  1        2 0.70700898E-01 0.84144365E+03</pdfrwt>
<pdfrwt beam="2">  1       -2 0.59256834E-01 0.84144365E+03</pdfrwt>
<totfact> 0.18165410E+02</totfact>
</mgrwt>
</event>
<event>
 4    1  0.6476857E-006  0.6947704E+03  0.7818608E-02  0.9726218E-01
          2   -1    0    0  501    0  0.00000000000E+00  0.00000000000E+00  0.43903097995E+04  0.43903097995E+04  0.25500000000E-02 0.  1.
         -2   -1    0    0    0  501 -0.00000000000E+00 -0.00000000000E+00 -0.27487007454E+02  0.27487007572E+02  0.25500000000E-02 0. -1.
   -5000001    1    1    2    0    0  0.80485556064E+02  0.16671326493E+03  0.31645414906E+04  0.31797946605E+04  0.25000000000E+03 0.  0.
    5000001    1    1    2    0    0 -0.80485556064E+02 -0.16671326493E+03  0.11982813015E+04  0.12380021466E+04  0.25000000000E+03 0.  0.
<mgrwt>
<rscale>  0 0.69477040E+03</rscale>
<asrwt>0</asrwt>
<pdfrwt beam="1">  1        2 0.67543228E+00 0.69477040E+03</pdfrwt>
<pdfrwt beam="2">  1       -2 0.42287703E-02 0.69477040E+03</pdfrwt>
<totfact> 0.47683379E+01</totfact>
</mgrwt>
</event>
<event>
 4    1  0.6476857E-006  0.8110991E+03  0.7818608E-02  0.9544089E-01
          2   -1    0    0  501    0  0.00000000000E+00  0.00000000000E+00  0.78360585878E+03  0.78360585879E+03  0.25500000000E-02 0.  1.
         -2   -1    0    0    0  501 -0.00000000000E+00 -0.00000000000E+00 -0.20988923268E+03  0.20988923270E+03  0.25500000000E-02 0. -1.
   -5000001    1    1    2    0    0  0.18951843615E+03 -0.24533805977E+03  0.38064273225E+03  0.55090551897E+03  0.25000000000E+03 0.  0.
    5000001    1    1    2    0    0 -0.18951843615E+03  0.24533805977E+03  0.19307389385E+03  0.44258957252E+03  0.25000000000E+03 0.  0.
<mgrwt>
<rscale>  0 0.81109909E+03</rscale>
<asrwt>0</asrwt>
<pdfrwt beam="1">  1        2 0.12055475E+00 0.81109909E+03</pdfrwt>
<pdfrwt beam="2">  1       -2 0.32290652E-01 0.81109909E+03</pdfrwt>
<totfact> 0.31756240E+02</totfact>
</mgrwt>
</event>
<event>
 4    1  0.6476857E-006  0.7589575E+03  0.7818608E-02  0.9621401E-01
         -2   -1    0    0    0  501 -0.00000000000E+00  0.00000000000E+00  0.70348154008E+02  0.70348154054E+02  0.25500000000E-02 0. -1.
          2   -1    0    0  501    0  0.00000000000E+00 -0.00000000000E+00 -0.20470206765E+04  0.20470206765E+04  0.25500000000E-02 0.  1.
   -5000001    1    1    2    0    0  0.23382542200E+03 -0.14815082292E+03 -0.79342393329E+03  0.87672374909E+03  0.25000000000E+03 0.  0.
    5000001    1    1    2    0    0 -0.23382542200E+03  0.14815082292E+03 -0.11832485892E+04  0.12406450815E+04  0.25000000000E+03 0.  0.
<mgrwt>
<rscale>  0 0.75895751E+03</rscale>
<asrwt>0</asrwt>
<pdfrwt beam="1">  1        2 0.31492621E+00 0.75895751E+03</pdfrwt>
<pdfrwt beam="2">  1       -2 0.10822794E-01 0.75895751E+03</pdfrwt>
<totfact> 0.38858799E+02</totfact>
</mgrwt>
</event>
<event>
 4    1  0.6476857E-006  0.5996238E+03  0.7818608E-02  0.9906187E-01
          2   -1    0    0  501    0  0.00000000000E+00  0.00000000000E+00  0.80583986680E+03  0.80583986681E+03  0.25500000000E-02 0.  1.
         -2   -1    0    0    0  501 -0.00000000000E+00 -0.00000000000E+00 -0.11154471747E+03  0.11154471750E+03  0.25500000000E-02 0. -1.
   -5000001    1    1    2    0    0  0.10367722170E+03  0.12881887595E+03  0.33700939133E+03  0.45101951060E+03  0.25000000000E+03 0.  0.
    5000001    1    1    2    0    0 -0.10367722170E+03 -0.12881887595E+03  0.35728575800E+03  0.46636507370E+03  0.25000000000E+03 0.  0.
<mgrwt>
<rscale>  0 0.59962382E+03</rscale>
<asrwt>0</asrwt>
<pdfrwt beam="1">  1        2 0.12397536E+00 0.59962382E+03</pdfrwt>
<pdfrwt beam="2">  1       -2 0.17160726E-01 0.59962382E+03</pdfrwt>
<totfact> 0.95510087E+02</totfact>
</mgrwt>
</event>
<event>
 4    1  0.6476857E-006  0.6710724E+03  0.7818608E-02  0.9768022E-01
         -2   -1    0    0    0  501 -0.00000000000E+00  0.00000000000E+00  0.38262578077E+02  0.38262578162E+02  0.25500000000E-02 0. -1.
          2   -1    0    0  501    0  0.00000000000E+00 -0.00000000000E+00 -0.29424191012E+04  0.29424191012E+04  0.25500000000E-02 0.  1.
   -5000001    1    1    2    0    0  0.19659547721E+03 -0.10373784311E+03 -0.13368326504E+04  0.13780540109E+04  0.25000000000E+03 0.  0.
    5000001    1    1    2    0    0 -0.19659547721E+03  0.10373784311E+03 -0.15673238728E+04  0.16026276685E+04  0.25000000000E+03 0.  0.
<mgrwt>
<rscale>  0 0.67107240E+03</rscale>
<asrwt>0</asrwt>
<pdfrwt beam="1">  1        2 0.45267968E+00 0.67107240E+03</pdfrwt>
<pdfrwt beam="2">  1       -2 0.58865528E-02 0.67107240E+03</pdfrwt>
<totfact> 0.32141268E+02</totfact>
</mgrwt>
</event>
<event>
 4    1  0.6476857E-006  0.8397652E+03  0.7818608E-02  0.9504178E-01
         -2   -1    0    0    0  501 -0.00000000000E+00  0.00000000000E+00  0.88935055629E+02  0.88935055665E+02  0.25500000000E-02 0. -1.
          2   -1    0    0  501    0  0.00000000000E+00 -0.00000000000E+00 -0.19823613445E+04  0.19823613445E+04  0.25500000000E-02 0.  1.
   -5000001    1    1    2    0    0 -0.28331451892E+03 -0.16136258279E+03 -0.73315742137E+03  0.84043132037E+03  0.25000000000E+03 0.  0.
    5000001    1    1    2    0    0  0.28331451892E+03  0.16136258279E+03 -0.11602688675E+04  0.12308650798E+04  0.25000000000E+03 0.  0.
<mgrwt>
<rscale>  0 0.83976524E+03</rscale>
<asrwt>0</asrwt>
<pdfrwt beam="1">  1        2 0.30497864E+00 0.83976524E+03</pdfrwt>
<pdfrwt beam="2">  1       -2 0.13682318E-01 0.83976524E+03</pdfrwt>
<totfact> 0.28407511E+02</totfact>
</mgrwt>
</event>
<event>
 4    1  0.6476857E-006  0.7563298E+03  0.7818608E-02  0.9625472E-01
          2   -1    0    0  501    0  0.00000000000E+00  0.00000000000E+00  0.11575078587E+04  0.11575078587E+04  0.25500000000E-02 0.  1.
         -2   -1    0    0    0  501 -0.00000000000E+00 -0.00000000000E+00 -0.12354878099E+03  0.12354878102E+03  0.25500000000E-02 0. -1.
   -5000001    1    1    2    0    0 -0.17802743948E+03 -0.21537515180E+03  0.43351104399E+03  0.57315970766E+03  0.25000000000E+03 0.  0.
    5000001    1    1    2    0    0  0.17802743948E+03  0.21537515180E+03  0.60044803369E+03  0.70789693204E+03  0.25000000000E+03 0.  0.
<mgrwt>
<rscale>  0 0.75632978E+03</rscale>
<asrwt>0</asrwt>
<pdfrwt beam="1">  1        2 0.17807813E+00 0.75632978E+03</pdfrwt>
<pdfrwt beam="2">  1       -2 0.19007506E-01 0.75632978E+03</pdfrwt>
<totfact> 0.47200850E+02</totfact>
</mgrwt>
</event>
<event>
 4    1  0.6476857E-006  0.6662647E+03  0.7818608E-02  0.9776729E-01
          2   -1    0    0  501    0  0.00000000000E+00  0.00000000000E+00  0.15661030438E+04  0.15661030438E+04  0.25500000000E-02 0.  1.
         -2   -1    0    0    0  501 -0.00000000000E+00 -0.00000000000E+00 -0.70861979603E+02  0.70861979649E+02  0.25500000000E-02 0. -1.
   -5000001    1    1    2    0    0 -0.69341471272E+02 -0.19401897033E+03  0.93833838952E+03  0.99268853813E+03  0.25000000000E+03 0.  0.
    5000001    1    1    2    0    0  0.69341471272E+02  0.19401897033E+03  0.55690267472E+03  0.64427648537E+03  0.25000000000E+03 0.  0.
<mgrwt>
<rscale>  0 0.66626470E+03</rscale>
<asrwt>0</asrwt>
<pdfrwt beam="1">  1        2 0.24093893E+00 0.66626470E+03</pdfrwt>
<pdfrwt beam="2">  1       -2 0.10901843E-01 0.66626470E+03</pdfrwt>
<totfact> 0.70695320E+02</totfact>
</mgrwt>
</event>
<event>
 4    1  0.6476857E-006  0.7833566E+03  0.7818608E-02  0.9584425E-01
         -2   -1    0    0    0  501 -0.00000000000E+00  0.00000000000E+00  0.41900176878E+03  0.41900176879E+03  0.25500000000E-02 0. -1.
          2   -1    0    0  501    0  0.00000000000E+00 -0.00000000000E+00 -0.36613661300E+03  0.36613661301E+03  0.25500000000E-02 0.  1.
   -5000001    1    1    2    0    0  0.19202463995E+03  0.18801387969E+03  0.16345200391E+03  0.40179502098E+03  0.25000000000E+03 0.  0.
    5000001    1    1    2    0    0 -0.19202463995E+03 -0.18801387969E+03 -0.11058684813E+03  0.38334336082E+03  0.25000000000E+03 0.  0.
<mgrwt>
<rscale>  0 0.78335659E+03</rscale>
<asrwt>0</asrwt>
<pdfrwt beam="1">  1        2 0.56328710E-01 0.78335659E+03</pdfrwt>
<pdfrwt beam="2">  1       -2 0.64461810E-01 0.78335659E+03</pdfrwt>
<totfact> 0.19685099E+02</totfact>
</mgrwt>
</event>
<event>
 4    1  0.6476857E-006  0.7036702E+03  0.7818608E-02  0.9710976E-01
         -2   -1    0    0    0  501 -0.00000000000E+00  0.00000000000E+00  0.74704844970E+02  0.74704845013E+02  0.25500000000E-02 0.  1.
          2   -1    0    0  501    0  0.00000000000E+00 -0.00000000000E+00 -0.16570269690E+04  0.16570269690E+04  0.25500000000E-02 0. -1.
   -5000001    1    1    2    0    0  0.16490647614E+03  0.15449672417E+02 -0.12439789211E+04  0.12796157214E+04  0.25000000000E+03 0.  0.
    5000001    1    1    2    0    0 -0.16490647614E+03 -0.15449672417E+02 -0.33834320291E+03  0.45211609262E+03  0.25000000000E+03 0.  0.
<mgrwt>
<rscale>  0 0.70367021E+03</rscale>
<asrwt>0</asrwt>
<pdfrwt beam="1">  1        2 0.25492720E+00 0.70367021E+03</pdfrwt>
<pdfrwt beam="2">  1       -2 0.11493054E-01 0.70367021E+03</pdfrwt>
<totfact> 0.57666210E+02</totfact>
</mgrwt>
</event>
<event>
 4    1  0.6476857E-006  0.9594165E+03  0.7818608E-02  0.9354211E-01
          2   -1    0    0  501    0  0.00000000000E+00  0.00000000000E+00  0.26361979171E+04  0.26361979171E+04  0.25500000000E-02 0.  1.
         -2   -1    0    0    0  501 -0.00000000000E+00 -0.00000000000E+00 -0.87292379097E+02  0.87292379134E+02  0.25500000000E-02 0. -1.
   -5000001    1    1    2    0    0  0.32223878560E+03  0.24136196931E+03  0.10634219773E+04  0.11642421299E+04  0.25000000000E+03 0.  0.
    5000001    1    1    2    0    0 -0.32223878560E+03 -0.24136196931E+03  0.14854835607E+04  0.15592481664E+04  0.25000000000E+03 0.  0.
<mgrwt>
<rscale>  0 0.95941646E+03</rscale>
<asrwt>0</asrwt>
<pdfrwt beam="1">  1        2 0.40556886E+00 0.95941646E+03</pdfrwt>
<pdfrwt beam="2">  1       -2 0.13429598E-01 0.95941646E+03</pdfrwt>
<totfact> 0.12477397E+02</totfact>
</mgrwt>
</event>
<event>
 4    1  0.6476857E-006  0.8295990E+03  0.7818608E-02  0.9518135E-01
         -2   -1    0    0    0  501 -0.00000000000E+00  0.00000000000E+00  0.44286753047E+02  0.44286753120E+02  0.25500000000E-02 0. -1.
          2   -1    0    0  501    0  0.00000000000E+00 -0.00000000000E+00 -0.38851033584E+04  0.38851033584E+04  0.25500000000E-02 0.  1.
   -5000001    1    1    2    0    0  0.33526813724E+02 -0.29585151199E+03 -0.12355557523E+04  0.12952799626E+04  0.25000000000E+03 0.  0.
    5000001    1    1    2    0    0 -0.33526813724E+02  0.29585151199E+03 -0.26052608530E+04  0.26341101489E+04  0.25000000000E+03 0.  0.
<mgrwt>
<rscale>  0 0.82959897E+03</rscale>
<asrwt>0</asrwt>
<pdfrwt beam="1">  1        2 0.59770794E+00 0.82959897E+03</pdfrwt>
<pdfrwt beam="2">  1       -2 0.68133497E-02 0.82959897E+03</pdfrwt>
<totfact> 0.58055119E+01</totfact>
</mgrwt>
</event>
<event>
 4    1  0.6476857E-006  0.7222163E+03  0.7818608E-02  0.9679976E-01
         -2   -1    0    0    0  501 -0.00000000000E+00  0.00000000000E+00  0.92475865572E+02  0.92475865607E+02  0.25500000000E-02 0. -1.
          2   -1    0    0  501    0  0.00000000000E+00 -0.00000000000E+00 -0.14100880500E+04  0.14100880500E+04  0.25500000000E-02 0.  1.
   -5000001    1    1    2    0    0 -0.71154465829E+02 -0.22408432356E+03 -0.42506443996E+03  0.54631174269E+03  0.25000000000E+03 0.  0.
    5000001    1    1    2    0    0  0.71154465829E+02  0.22408432356E+03 -0.89254774448E+03  0.95625217294E+03  0.25000000000E+03 0.  0.
<mgrwt>
<rscale>  0 0.72221635E+03</rscale>
<asrwt>0</asrwt>
<pdfrwt beam="1">  1        2 0.21693661E+00 0.72221635E+03</pdfrwt>
<pdfrwt beam="2">  1       -2 0.14227057E-01 0.72221635E+03</pdfrwt>
<totfact> 0.55366523E+02</totfact>
</mgrwt>
</event>
<event>
 4    1  0.6476857E-006  0.8001566E+03  0.7818608E-02  0.9559790E-01
          2   -1    0    0  501    0  0.00000000000E+00  0.00000000000E+00  0.41207873194E+03  0.41207873195E+03  0.25500000000E-02 0.  1.
         -2   -1    0    0    0  501 -0.00000000000E+00 -0.00000000000E+00 -0.38842734937E+03  0.38842734938E+03  0.25500000000E-02 0. -1.
   -5000001    1    1    2    0    0  0.11865789830E+03  0.28337722699E+03 -0.44593087656E+02  0.39858611751E+03  0.25000000000E+03 0.  0.
    5000001    1    1    2    0    0 -0.11865789830E+03 -0.28337722699E+03  0.68244470221E+02  0.40191996382E+03  0.25000000000E+03 0.  0.
<mgrwt>
<rscale>  0 0.80015661E+03</rscale>
<asrwt>0</asrwt>
<pdfrwt beam="1">  1        2 0.63396728E-01 0.80015661E+03</pdfrwt>
<pdfrwt beam="2">  1       -2 0.59758054E-01 0.80015661E+03</pdfrwt>
<totfact> 0.20237045E+02</totfact>
</mgrwt>
</event>
<event>
 4    1  0.6476857E-006  0.7587226E+03  0.7818608E-02  0.9621764E-01
         -2   -1    0    0    0  501 -0.00000000000E+00  0.00000000000E+00  0.93047747244E+02  0.93047747279E+02  0.25500000000E-02 0. -1.
          2   -1    0    0  501    0  0.00000000000E+00 -0.00000000000E+00 -0.15466790585E+04  0.15466790585E+04  0.25500000000E-02 0.  1.
   -5000001    1    1    2    0    0  0.17931276910E+03  0.11073810608E+03 -0.11425189709E+04  0.11883878139E+04  0.25000000000E+03 0.  0.
    5000001    1    1    2    0    0 -0.17931276910E+03 -0.11073810608E+03 -0.31111234038E+03  0.45133899193E+03  0.25000000000E+03 0.  0.
<mgrwt>
<rscale>  0 0.75872262E+03</rscale>
<asrwt>0</asrwt>
<pdfrwt beam="1">  1        2 0.23795061E+00 0.75872262E+03</pdfrwt>
<pdfrwt beam="2">  1       -2 0.14315039E-01 0.75872262E+03</pdfrwt>
<totfact> 0.45877586E+02</totfact>
</mgrwt>
</event>
<event>
 4    1  0.6476857E-006  0.5550759E+03  0.7818608E-02  0.1000326E+00
         -2   -1    0    0    0  501 -0.00000000000E+00  0.00000000000E+00  0.10132580215E+03  0.10132580218E+03  0.25500000000E-02 0. -1.
          2   -1    0    0  501    0  0.00000000000E+00 -0.00000000000E+00 -0.76019448499E+03  0.76019448500E+03  0.25500000000E-02 0.  1.
   -5000001    1    1    2    0    0 -0.10135619650E+03 -0.65050452336E+02 -0.32204344463E+03  0.42510777475E+03  0.25000000000E+03 0.  0.
    5000001    1    1    2    0    0  0.10135619650E+03  0.65050452336E+02 -0.33682523820E+03  0.43641251243E+03  0.25000000000E+03 0.  0.
<mgrwt>
<rscale>  0 0.55507591E+03</rscale>
<asrwt>0</asrwt>
<pdfrwt beam="1">  1        2 0.11695299E+00 0.55507591E+03</pdfrwt>
<pdfrwt beam="2">  1       -2 0.15588585E-01 0.55507591E+03</pdfrwt>
<totfact> 0.12141236E+03</totfact>
</mgrwt>
</event>
<event>
 4    1  0.6476857E-006  0.6451920E+03  0.7818608E-02  0.9815843E-01
          2   -1    0    0  501    0  0.00000000000E+00  0.00000000000E+00  0.50551034273E+04  0.50551034273E+04  0.25500000000E-02 0.  1.
         -2   -1    0    0    0  501 -0.00000000000E+00 -0.00000000000E+00 -0.20586758310E+02  0.20586758468E+02  0.25500000000E-02 0. -1.
   -5000001    1    1    2    0    0 -0.11259726459E+02 -0.12475250511E+03  0.37827909324E+04  0.37931118106E+04  0.25000000000E+03 0.  0.
    5000001    1    1    2    0    0  0.11259726459E+02  0.12475250511E+03  0.12517257366E+04  0.12825783752E+04  0.25000000000E+03 0.  0.
<mgrwt>
<rscale>  0 0.64519204E+03</rscale>
<asrwt>0</asrwt>
<pdfrwt beam="1">  1        2 0.77770831E+00 0.64519204E+03</pdfrwt>
<pdfrwt beam="2">  1       -2 0.31671932E-02 0.64519204E+03</pdfrwt>
<totfact> 0.14689482E+01</totfact>
</mgrwt>
</event>
<event>
 4    1  0.6476857E-006  0.5431670E+03  0.7818608E-02  0.1003088E+00
         -2   -1    0    0    0  501 -0.00000000000E+00  0.00000000000E+00  0.45300203196E+03  0.45300203197E+03  0.25500000000E-02 0. -1.
          2   -1    0    0  501    0  0.00000000000E+00 -0.00000000000E+00 -0.16281957676E+03  0.16281957678E+03  0.25500000000E-02 0.  1.
   -5000001    1    1    2    0    0 -0.55959056958E+02 -0.46031007589E+02  0.57216849228E+02  0.26650335373E+03  0.25000000000E+03 0.  0.
    5000001    1    1    2    0    0  0.55959056958E+02  0.46031007589E+02  0.23296560598E+03  0.34931825501E+03  0.25000000000E+03 0.  0.
<mgrwt>
<rscale>  0 0.54316701E+03</rscale>
<asrwt>0</asrwt>
<pdfrwt beam="1">  1        2 0.25049166E-01 0.54316701E+03</pdfrwt>
<pdfrwt beam="2">  1       -2 0.69692620E-01 0.54316701E+03</pdfrwt>
<totfact> 0.41437202E+02</totfact>
</mgrwt>
</event>
<event>
 4    1  0.6476857E-006  0.7233673E+03  0.7818608E-02  0.9678085E-01
         -2   -1    0    0    0  501 -0.00000000000E+00  0.00000000000E+00  0.49749106403E+02  0.49749106469E+02  0.25500000000E-02 0. -1.
          2   -1    0    0  501    0  0.00000000000E+00 -0.00000000000E+00 -0.26294958903E+04  0.26294958903E+04  0.25500000000E-02 0.  1.
   -5000001    1    1    2    0    0  0.16759902299E+03  0.19423604577E+03 -0.11047550324E+04  0.11613788165E+04  0.25000000000E+03 0.  0.
    5000001    1    1    2    0    0 -0.16759902299E+03 -0.19423604577E+03 -0.14749917516E+04  0.15178661803E+04  0.25000000000E+03 0.  0.
<mgrwt>
<rscale>  0 0.72336732E+03</rscale>
<asrwt>0</asrwt>
<pdfrwt beam="1">  1        2 0.40453772E+00 0.72336732E+03</pdfrwt>
<pdfrwt beam="2">  1       -2 0.76537108E-02 0.72336732E+03</pdfrwt>
<totfact> 0.32260733E+02</totfact>
</mgrwt>
</event>
<event>
 4    1  0.6476857E-006  0.9763996E+03  0.7818608E-02  0.9334815E-01
         -2   -1    0    0    0  501 -0.00000000000E+00  0.00000000000E+00  0.62693191795E+03  0.62693191795E+03  0.25500000000E-02 0. -1.
          2   -1    0    0  501    0  0.00000000000E+00 -0.00000000000E+00 -0.38016734910E+03  0.38016734911E+03  0.25500000000E-02 0.  1.
   -5000001    1    1    2    0    0 -0.41192747699E+03  0.10424014623E+02  0.43180552296E+02  0.48389819847E+03  0.25000000000E+03 0.  0.
    5000001    1    1    2    0    0  0.41192747699E+03 -0.10424014623E+02  0.20358401655E+03  0.52320106859E+03  0.25000000000E+03 0.  0.
<mgrwt>
<rscale>  0 0.97639960E+03</rscale>
<asrwt>0</asrwt>
<pdfrwt beam="1">  1        2 0.58487285E-01 0.97639960E+03</pdfrwt>
<pdfrwt beam="2">  1       -2 0.96451064E-01 0.97639960E+03</pdfrwt>
<totfact> 0.75744178E+01</totfact>
</mgrwt>
</event>
<event>
 4    1  0.6476857E-006  0.8974107E+03  0.7818608E-02  0.9428824E-01
         -2   -1    0    0    0  501 -0.00000000000E+00  0.00000000000E+00  0.93234511356E+02  0.93234511391E+02  0.25500000000E-02 0. -1.
          2   -1    0    0  501    0  0.00000000000E+00 -0.00000000000E+00 -0.21594632274E+04  0.21594632274E+04  0.25500000000E-02 0.  1.
   -5000001    1    1    2    0    0 -0.32636990711E+03  0.17621550660E+03 -0.11224752687E+04  0.12083128527E+04  0.25000000000E+03 0.  0.
    5000001    1    1    2    0    0  0.32636990711E+03 -0.17621550660E+03 -0.94375344736E+03  0.10443848862E+04  0.25000000000E+03 0.  0.
<mgrwt>
<rscale>  0 0.89741072E+03</rscale>
<asrwt>0</asrwt>
<pdfrwt beam="1">  1        2 0.33222507E+00 0.89741072E+03</pdfrwt>
<pdfrwt beam="2">  1       -2 0.14343773E-01 0.89741072E+03</pdfrwt>
<totfact> 0.20875624E+02</totfact>
</mgrwt>
</event>
<event>
 4    1  0.6476857E-006  0.7727317E+03  0.7818608E-02  0.9600348E-01
         -2   -1    0    0    0  501 -0.00000000000E+00  0.00000000000E+00  0.95361953647E+02  0.95361953681E+02  0.25500000000E-02 0. -1.
          2   -1    0    0  501    0  0.00000000000E+00 -0.00000000000E+00 -0.15653890603E+04  0.15653890603E+04  0.25500000000E-02 0.  1.
   -5000001    1    1    2    0    0 -0.17891453588E+03  0.23072049473E+03 -0.65077714057E+03  0.75581296927E+03  0.25000000000E+03 0.  0.
    5000001    1    1    2    0    0  0.17891453588E+03 -0.23072049473E+03 -0.81924996608E+03  0.90493804471E+03  0.25000000000E+03 0.  0.
<mgrwt>
<rscale>  0 0.77273167E+03</rscale>
<asrwt>0</asrwt>
<pdfrwt beam="1">  1        2 0.24082907E+00 0.77273167E+03</pdfrwt>
<pdfrwt beam="2">  1       -2 0.14671071E-01 0.77273167E+03</pdfrwt>
<totfact> 0.42943603E+02</totfact>
</mgrwt>
</event>
<event>
 4    1  0.6476857E-006  0.7744382E+03  0.7818608E-02  0.9597772E-01
         -2   -1    0    0    0  501 -0.00000000000E+00  0.00000000000E+00  0.14453823706E+03  0.14453823709E+03  0.25500000000E-02 0. -1.
          2   -1    0    0  501    0  0.00000000000E+00 -0.00000000000E+00 -0.10373631700E+04  0.10373631700E+04  0.25500000000E-02 0.  1.
   -5000001    1    1    2    0    0 -0.15135461955E+03  0.54598672308E+02 -0.82503495415E+03  0.87696745176E+03  0.25000000000E+03 0.  0.
    5000001    1    1    2    0    0  0.15135461955E+03 -0.54598672308E+02 -0.67789978757E+02  0.30493395530E+03  0.25000000000E+03 0.  0.
<mgrwt>
<rscale>  0 0.77443823E+03</rscale>
<asrwt>0</asrwt>
<pdfrwt beam="1">  1        2 0.15959433E+00 0.77443823E+03</pdfrwt>
<pdfrwt beam="2">  1       -2 0.22236653E-01 0.77443823E+03</pdfrwt>
<totfact> 0.42416475E+02</totfact>
</mgrwt>
</event>
<event>
 4    1  0.6476857E-006  0.6974653E+03  0.7818608E-02  0.9721577E-01
          2   -1    0    0  501    0  0.00000000000E+00  0.00000000000E+00  0.69782866695E+03  0.69782866696E+03  0.25500000000E-02 0.  1.
         -2   -1    0    0    0  501 -0.00000000000E+00 -0.00000000000E+00 -0.17427554711E+03  0.17427554713E+03  0.25500000000E-02 0. -1.
   -5000001    1    1    2    0    0  0.20710733371E+03 -0.12171161847E+03  0.30868383236E+03  0.46421210034E+03  0.25000000000E+03 0.  0.
    5000001    1    1    2    0    0 -0.20710733371E+03  0.12171161847E+03  0.21486928749E+03  0.40789211374E+03  0.25000000000E+03 0.  0.
<mgrwt>
<rscale>  0 0.69746533E+03</rscale>
<asrwt>0</asrwt>
<pdfrwt beam="1">  1        2 0.10735826E+00 0.69746533E+03</pdfrwt>
<pdfrwt beam="2">  1       -2 0.26811622E-01 0.69746533E+03</pdfrwt>
<totfact> 0.52214668E+02</totfact>
</mgrwt>
</event>
<event>
 4    1  0.6476857E-006  0.7122301E+03  0.7818608E-02  0.9696543E-01
          2   -1    0    0  501    0  0.00000000000E+00  0.00000000000E+00  0.14479401918E+04  0.14479401918E+04  0.25500000000E-02 0.  1.
         -2   -1    0    0    0  501 -0.00000000000E+00 -0.00000000000E+00 -0.87585071893E+02  0.87585071930E+02  0.25500000000E-02 0. -1.
   -5000001    1    1    2    0    0  0.16683771180E+02  0.21413003574E+03  0.38942188801E+03  0.51017587878E+03  0.25000000000E+03 0.  0.
    5000001    1    1    2    0    0 -0.16683771180E+02 -0.21413003574E+03  0.97093323192E+03  0.10253493850E+04  0.25000000000E+03 0.  0.
<mgrwt>
<rscale>  0 0.71223015E+03</rscale>
<asrwt>0</asrwt>
<pdfrwt beam="1">  1        2 0.22276006E+00 0.71223015E+03</pdfrwt>
<pdfrwt beam="2">  1       -2 0.13474625E-01 0.71223015E+03</pdfrwt>
<totfact> 0.57778811E+02</totfact>
</mgrwt>
</event>
<event>
 4    1  0.6476857E-006  0.5293599E+03  0.7818608E-02  0.1006387E+00
         -2   -1    0    0    0  501 -0.00000000000E+00  0.00000000000E+00  0.25079650713E+03  0.25079650715E+03  0.25500000000E-02 0. -1.
          2   -1    0    0  501    0  0.00000000000E+00 -0.00000000000E+00 -0.27933191956E+03  0.27933191957E+03  0.25500000000E-02 0.  1.
   -5000001    1    1    2    0    0  0.53268874161E+02  0.50342052043E+02 -0.61064283485E+02  0.26758314946E+03  0.25000000000E+03 0.  0.
    5000001    1    1    2    0    0 -0.53268874161E+02 -0.50342052043E+02  0.32528871056E+02  0.26254527726E+03  0.25000000000E+03 0.  0.
<mgrwt>
<rscale>  0 0.52935988E+03</rscale>
<asrwt>0</asrwt>
<pdfrwt beam="1">  1        2 0.42974142E-01 0.52935988E+03</pdfrwt>
<pdfrwt beam="2">  1       -2 0.38584078E-01 0.52935988E+03</pdfrwt>
<totfact> 0.75806818E+02</totfact>
</mgrwt>
</event>
<event>
 4    1  0.6476857E-006  0.1112454E+04  0.7818608E-02  0.9193137E-01
          2   -1    0    0  501    0  0.00000000000E+00  0.00000000000E+00  0.19785383119E+04  0.19785383119E+04  0.25500000000E-02 0.  1.
         -2   -1    0    0    0  501 -0.00000000000E+00 -0.00000000000E+00 -0.15637235889E+03  0.15637235891E+03  0.25500000000E-02 0. -1.
   -5000001    1    1    2    0    0  0.73973250858E+02 -0.34541443694E+03  0.24048050583E+03  0.49508994008E+03  0.25000000000E+03 0.  0.
    5000001    1    1    2    0    0 -0.73973250858E+02  0.34541443694E+03  0.15816854471E+04  0.16398207307E+04  0.25000000000E+03 0.  0.
<mgrwt>
<rscale>  0 0.11124544E+04</rscale>
<asrwt>0</asrwt>
<pdfrwt beam="1">  1        2 0.30439051E+00 0.11124544E+04</pdfrwt>
<pdfrwt beam="2">  1       -2 0.24057286E-01 0.11124544E+04</pdfrwt>
<totfact> 0.10498675E+02</totfact>
</mgrwt>
</event>
<event>
 4    1  0.6476857E-006  0.6318764E+03  0.7818608E-02  0.9841394E-01
         -2   -1    0    0    0  501 -0.00000000000E+00  0.00000000000E+00  0.20268252811E+02  0.20268252972E+02  0.25500000000E-02 0. -1.
          2   -1    0    0  501    0  0.00000000000E+00 -0.00000000000E+00 -0.49247921153E+04  0.49247921153E+04  0.25500000000E-02 0.  1.
   -5000001    1    1    2    0    0 -0.46253170884E+01 -0.16346253272E+03 -0.16474567819E+04  0.16743223230E+04  0.25000000000E+03 0.  0.
    5000001    1    1    2    0    0  0.46253170884E+01  0.16346253272E+03 -0.32570670806E+04  0.32707380452E+04  0.25000000000E+03 0.  0.
<mgrwt>
<rscale>  0 0.63187636E+03</rscale>
<asrwt>0</asrwt>
<pdfrwt beam="1">  1        2 0.75765937E+00 0.63187636E+03</pdfrwt>
<pdfrwt beam="2">  1       -2 0.31181967E-02 0.63187636E+03</pdfrwt>
<totfact> 0.21756644E+01</totfact>
</mgrwt>
</event>
<event>
 4    1  0.6476857E-006  0.5478439E+03  0.7818608E-02  0.1001994E+00
          2   -1    0    0  501    0  0.00000000000E+00  0.00000000000E+00  0.38592203343E+03  0.38592203344E+03  0.25500000000E-02 0.  1.
         -2   -1    0    0    0  501 -0.00000000000E+00 -0.00000000000E+00 -0.19442590762E+03  0.19442590763E+03  0.25500000000E-02 0. -1.
   -5000001    1    1    2    0    0  0.80533622202E+02 -0.64066791133E+02  0.49053035473E+02  0.27476611567E+03  0.25000000000E+03 0.  0.
    5000001    1    1    2    0    0 -0.80533622202E+02  0.64066791133E+02  0.14244309034E+03  0.30558182540E+03  0.25000000000E+03 0.  0.
<mgrwt>
<rscale>  0 0.54784393E+03</rscale>
<asrwt>0</asrwt>
<pdfrwt beam="1">  1        2 0.59372620E-01 0.54784393E+03</pdfrwt>
<pdfrwt beam="2">  1       -2 0.29911679E-01 0.54784393E+03</pdfrwt>
<totfact> 0.85675843E+02</totfact>
</mgrwt>
</event>
<event>
 4    1  0.6476857E-006  0.1077715E+04  0.7818608E-02  0.9227189E-01
         -2   -1    0    0    0  501 -0.00000000000E+00  0.00000000000E+00  0.21641809728E+04  0.21641809728E+04  0.25500000000E-02 0. -1.
          2   -1    0    0  501    0  0.00000000000E+00 -0.00000000000E+00 -0.13416964564E+03  0.13416964567E+03  0.25500000000E-02 0.  1.
   -5000001    1    1    2    0    0 -0.40215888890E+03 -0.97447173576E+02  0.50746280361E+03  0.70088959231E+03  0.25000000000E+03 0.  0.
    5000001    1    1    2    0    0  0.40215888890E+03  0.97447173576E+02  0.15225485236E+04  0.15974610262E+04  0.25000000000E+03 0.  0.
<mgrwt>
<rscale>  0 0.10777150E+04</rscale>
<asrwt>0</asrwt>
<pdfrwt beam="1">  1        2 0.20641485E-01 0.10777150E+04</pdfrwt>
<pdfrwt beam="2">  1       -2 0.33295091E+00 0.10777150E+04</pdfrwt>
<totfact> 0.55174459E+00</totfact>
</mgrwt>
</event>
<event>
 4    1  0.6476857E-006  0.6174768E+03  0.7818608E-02  0.9869796E-01
          2   -1    0    0  501    0  0.00000000000E+00  0.00000000000E+00  0.25502760399E+03  0.25502760400E+03  0.25500000000E-02 0.  1.
         -2   -1    0    0    0  501 -0.00000000000E+00 -0.00000000000E+00 -0.37376111311E+03  0.37376111312E+03  0.25500000000E-02 0. -1.
   -5000001    1    1    2    0    0  0.13111190766E+03  0.12501625426E+03 -0.59438680914E+02  0.31440794034E+03  0.25000000000E+03 0.  0.
    5000001    1    1    2    0    0 -0.13111190766E+03 -0.12501625426E+03 -0.59294828210E+02  0.31438077679E+03  0.25000000000E+03 0.  0.
<mgrwt>
<rscale>  0 0.61747680E+03</rscale>
<asrwt>0</asrwt>
<pdfrwt beam="1">  1        2 0.39235016E-01 0.61747680E+03</pdfrwt>
<pdfrwt beam="2">  1       -2 0.57501710E-01 0.61747680E+03</pdfrwt>
<totfact> 0.37644625E+02</totfact>
</mgrwt>
</event>
<event>
 4    1  0.6476857E-006  0.6048141E+03  0.7818608E-02  0.9895468E-01
          2   -1    0    0  501    0  0.00000000000E+00  0.00000000000E+00  0.17596947414E+04  0.17596947414E+04  0.25500000000E-02 0. -1.
         -2   -1    0    0    0  501 -0.00000000000E+00 -0.00000000000E+00 -0.51969258924E+02  0.51969258986E+02  0.25500000000E-02 0.  1.
   -5000001    1    1    2    0    0  0.11829390659E+03  0.81938171393E+02  0.58191153627E+03  0.64948313936E+03  0.25000000000E+03 0.  0.
    5000001    1    1    2    0    0 -0.11829390659E+03 -0.81938171393E+02  0.11258139462E+04  0.11621808610E+04  0.25000000000E+03 0.  0.
<mgrwt>
<rscale>  0 0.60481413E+03</rscale>
<asrwt>0</asrwt>
<pdfrwt beam="1">  1        2 0.27072231E+00 0.60481413E+03</pdfrwt>
<pdfrwt beam="2">  1       -2 0.79952694E-02 0.60481413E+03</pdfrwt>
<totfact> 0.91771312E+02</totfact>
</mgrwt>
</event>
<event>
 4    1  0.6476857E-006  0.5424978E+03  0.7818608E-02  0.1003245E+00
         -2   -1    0    0    0  501 -0.00000000000E+00  0.00000000000E+00  0.34652339170E+02  0.34652339264E+02  0.25500000000E-02 0. -1.
          2   -1    0    0  501    0  0.00000000000E+00 -0.00000000000E+00 -0.21232611068E+04  0.21232611068E+04  0.25500000000E-02 0.  1.
   -5000001    1    1    2    0    0  0.33658329585E+02  0.66853916624E+02 -0.75001543495E+03  0.79411931218E+03  0.25000000000E+03 0.  0.
    5000001    1    1    2    0    0 -0.33658329585E+02 -0.66853916624E+02 -0.13385933327E+04  0.13637941339E+04  0.25000000000E+03 0.  0.
<mgrwt>
<rscale>  0 0.54249779E+03</rscale>
<asrwt>0</asrwt>
<pdfrwt beam="1">  1        2 0.32665545E+00 0.54249779E+03</pdfrwt>
<pdfrwt beam="2">  1       -2 0.53311308E-02 0.54249779E+03</pdfrwt>
<totfact> 0.11081771E+03</totfact>
</mgrwt>
</event>
<event>
 4    1  0.6476857E-006  0.1788963E+04  0.7818608E-02  0.8712191E-01
          2   -1    0    0  501    0  0.00000000000E+00  0.00000000000E+00  0.24485701892E+04  0.24485701892E+04  0.25500000000E-02 0.  1.
         -2   -1    0    0    0  501 -0.00000000000E+00 -0.00000000000E+00 -0.32676097713E+03  0.32676097714E+03  0.25500000000E-02 0. -1.
   -5000001    1    1    2    0    0 -0.85716174669E+03 -0.49930269416E+02  0.10910623943E+04  0.14107219570E+04  0.25000000000E+03 0.  0.
    5000001    1    1    2    0    0  0.85716174669E+03  0.49930269416E+02  0.10307468178E+04  0.13646092093E+04  0.25000000000E+03 0.  0.
<mgrwt>
<rscale>  0 0.17889630E+04</rscale>
<asrwt>0</asrwt>
<pdfrwt beam="1">  1        2 0.37670308E+00 0.17889630E+04</pdfrwt>
<pdfrwt beam="2">  1       -2 0.50270924E-01 0.17889630E+04</pdfrwt>
<totfact> 0.13197104E+01</totfact>
</mgrwt>
</event>
<event>
 4    1  0.6476857E-006  0.6919585E+03  0.7818608E-02  0.9731084E-01
         -2   -1    0    0    0  501 -0.00000000000E+00  0.00000000000E+00  0.11562769386E+03  0.11562769388E+03  0.25500000000E-02 0. -1.
          2   -1    0    0  501    0  0.00000000000E+00 -0.00000000000E+00 -0.10352334428E+04  0.10352334428E+04  0.25500000000E-02 0.  1.
   -5000001    1    1    2    0    0 -0.73605558669E+02  0.14335029387E+03 -0.75374418096E+03  0.81030696365E+03  0.25000000000E+03 0.  0.
    5000001    1    1    2    0    0  0.73605558669E+02 -0.14335029387E+03 -0.16586156794E+03  0.34055417299E+03  0.25000000000E+03 0.  0.
<mgrwt>
<rscale>  0 0.69195854E+03</rscale>
<asrwt>0</asrwt>
<pdfrwt beam="1">  1        2 0.15926668E+00 0.69195854E+03</pdfrwt>
<pdfrwt beam="2">  1       -2 0.17788877E-01 0.69195854E+03</pdfrwt>
<totfact> 0.63063056E+02</totfact>
</mgrwt>
</event>
<event>
 4    1  0.6476857E-006  0.6525778E+03  0.7818608E-02  0.9801954E-01
          2   -1    0    0  501    0  0.00000000000E+00  0.00000000000E+00  0.59667386040E+03  0.59667386041E+03  0.25500000000E-02 0.  1.
         -2   -1    0    0    0  501 -0.00000000000E+00 -0.00000000000E+00 -0.17842990764E+03  0.17842990765E+03  0.25500000000E-02 0. -1.
   -5000001    1    1    2    0    0  0.51904484936E+02 -0.19976285976E+03  0.16523623373E+03  0.36387125283E+03  0.25000000000E+03 0.  0.
    5000001    1    1    2    0    0 -0.51904484936E+02  0.19976285976E+03  0.25300771904E+03  0.41123251524E+03  0.25000000000E+03 0.  0.
<mgrwt>
<rscale>  0 0.65257785E+03</rscale>
<asrwt>0</asrwt>
<pdfrwt beam="1">  1        2 0.91795979E-01 0.65257785E+03</pdfrwt>
<pdfrwt beam="2">  1       -2 0.27450755E-01 0.65257785E+03</pdfrwt>
<totfact> 0.60698018E+02</totfact>
</mgrwt>
</event>
<event>
 4    1  0.6476857E-006  0.1058947E+04  0.7818608E-02  0.9246155E-01
         -2   -1    0    0    0  501 -0.00000000000E+00  0.00000000000E+00  0.13250023435E+03  0.13250023437E+03  0.25500000000E-02 0.  1.
          2   -1    0    0  501    0  0.00000000000E+00 -0.00000000000E+00 -0.21157878240E+04  0.21157878240E+04  0.25500000000E-02 0. -1.
   -5000001    1    1    2    0    0 -0.21422710951E+03  0.34057913041E+03 -0.48942036907E+03  0.68111650705E+03  0.25000000000E+03 0.  0.
    5000001    1    1    2    0    0  0.21422710951E+03 -0.34057913041E+03 -0.14938672206E+04  0.15671715514E+04  0.25000000000E+03 0.  0.
<mgrwt>
<rscale>  0 0.10589474E+04</rscale>
<asrwt>0</asrwt>
<pdfrwt beam="1">  1        2 0.32550579E+00 0.10589474E+04</pdfrwt>
<pdfrwt beam="2">  1       -2 0.20384653E-01 0.10589474E+04</pdfrwt>
<totfact> 0.11891825E+02</totfact>
</mgrwt>
</event>
<event>
 4    1  0.6476857E-006  0.7760103E+03  0.7818608E-02  0.9595405E-01
         -2   -1    0    0    0  501 -0.00000000000E+00  0.00000000000E+00  0.16611676041E+03  0.16611676043E+03  0.25500000000E-02 0. -1.
          2   -1    0    0  501    0  0.00000000000E+00 -0.00000000000E+00 -0.90627820516E+03  0.90627820516E+03  0.25500000000E-02 0.  1.
   -5000001    1    1    2    0    0  0.29552042610E+03  0.26535868594E+02 -0.37477216260E+03  0.53943549051E+03  0.25000000000E+03 0.  0.
    5000001    1    1    2    0    0 -0.29552042610E+03 -0.26535868594E+02 -0.36538928215E+03  0.53295947508E+03  0.25000000000E+03 0.  0.
<mgrwt>
<rscale>  0 0.77601031E+03</rscale>
<asrwt>0</asrwt>
<pdfrwt beam="1">  1        2 0.13942741E+00 0.77601031E+03</pdfrwt>
<pdfrwt beam="2">  1       -2 0.25556425E-01 0.77601031E+03</pdfrwt>
<totfact> 0.40191066E+02</totfact>
</mgrwt>
</event>
<event>
 4    1  0.6476857E-006  0.1294876E+04  0.7818608E-02  0.9033638E-01
          2   -1    0    0  501    0  0.00000000000E+00  0.00000000000E+00  0.11541464283E+04  0.11541464283E+04  0.25500000000E-02 0.  1.
         -2   -1    0    0    0  501 -0.00000000000E+00 -0.00000000000E+00 -0.36319148319E+03  0.36319148320E+03  0.25500000000E-02 0. -1.
   -5000001    1    1    2    0    0  0.98224889579E+02 -0.57632581734E+03  0.25255335194E+03  0.68416574910E+03  0.25000000000E+03 0.  0.
    5000001    1    1    2    0    0 -0.98224889579E+02  0.57632581734E+03  0.53840159313E+03  0.83317216237E+03  0.25000000000E+03 0.  0.
<mgrwt>
<rscale>  0 0.12948763E+04</rscale>
<asrwt>0</asrwt>
<pdfrwt beam="1">  1        2 0.17756099E+00 0.12948763E+04</pdfrwt>
<pdfrwt beam="2">  1       -2 0.55875613E-01 0.12948763E+04</pdfrwt>
<totfact> 0.59534728E+01</totfact>
</mgrwt>
</event>
<event>
 4    1  0.6476857E-006  0.8470674E+03  0.7818608E-02  0.9494281E-01
         -2   -1    0    0    0  501 -0.00000000000E+00  0.00000000000E+00  0.31537902847E+03  0.31537902848E+03  0.25500000000E-02 0.  1.
          2   -1    0    0  501    0  0.00000000000E+00 -0.00000000000E+00 -0.56877850057E+03  0.56877850057E+03  0.25500000000E-02 0. -1.
   -5000001    1    1    2    0    0 -0.20519508259E+03 -0.17584696865E+03  0.91882291134E+02  0.37943317426E+03  0.25000000000E+03 0.  0.
    5000001    1    1    2    0    0  0.20519508259E+03  0.17584696865E+03 -0.34528176323E+03  0.50472435479E+03  0.25000000000E+03 0.  0.
<mgrwt>
<rscale>  0 0.84706744E+03</rscale>
<asrwt>0</asrwt>
<pdfrwt beam="1">  1        2 0.87504385E-01 0.84706744E+03</pdfrwt>
<pdfrwt beam="2">  1       -2 0.48519850E-01 0.84706744E+03</pdfrwt>
<totfact> 0.21393480E+02</totfact>
</mgrwt>
</event>
<event>
 4    1  0.6476857E-006  0.1415372E+04  0.7818608E-02  0.8942766E-01
         -2   -1    0    0    0  501 -0.00000000000E+00  0.00000000000E+00  0.24842447694E+03  0.24842447695E+03  0.25500000000E-02 0. -1.
          2   -1    0    0  501    0  0.00000000000E+00 -0.00000000000E+00 -0.20159820213E+04  0.20159820213E+04  0.25500000000E-02 0.  1.
   -5000001    1    1    2    0    0 -0.65115130874E+03 -0.10605865153E+03 -0.97246415940E+03  0.12014295675E+04  0.25000000000E+03 0.  0.
    5000001    1    1    2    0    0  0.65115130874E+03  0.10605865153E+03 -0.79509338499E+03  0.10629769307E+04  0.25000000000E+03 0.  0.
<mgrwt>
<rscale>  0 0.14153717E+04</rscale>
<asrwt>0</asrwt>
<pdfrwt beam="1">  1        2 0.31015107E+00 0.14153717E+04</pdfrwt>
<pdfrwt beam="2">  1       -2 0.38219152E-01 0.14153717E+04</pdfrwt>
<totfact> 0.41164175E+01</totfact>
</mgrwt>
</event>
<event>
 4    1  0.6476857E-006  0.7663509E+03  0.7818608E-02  0.9610042E-01
         -2   -1    0    0    0  501 -0.00000000000E+00  0.00000000000E+00  0.95472447486E+02  0.95472447520E+02  0.25500000000E-02 0. -1.
          2   -1    0    0  501    0  0.00000000000E+00 -0.00000000000E+00 -0.15378618277E+04  0.15378618277E+04  0.25500000000E-02 0.  1.
   -5000001    1    1    2    0    0 -0.88879115753E+02 -0.27031290653E+03 -0.84464298891E+03  0.92568371670E+03  0.25000000000E+03 0.  0.
    5000001    1    1    2    0    0  0.88879115753E+02  0.27031290653E+03 -0.59774639130E+03  0.70765055852E+03  0.25000000000E+03 0.  0.
<mgrwt>
<rscale>  0 0.76635092E+03</rscale>
<asrwt>0</asrwt>
<pdfrwt beam="1">  1        2 0.23659411E+00 0.76635092E+03</pdfrwt>
<pdfrwt beam="2">  1       -2 0.14688070E-01 0.76635092E+03</pdfrwt>
<totfact> 0.44408159E+02</totfact>
</mgrwt>
</event>
<event>
 4    1  0.6476857E-006  0.7139583E+03  0.7818608E-02  0.9693655E-01
          2   -1    0    0  501    0  0.00000000000E+00  0.00000000000E+00  0.24160500853E+04  0.24160500853E+04  0.25500000000E-02 0.  1.
         -2   -1    0    0    0  501 -0.00000000000E+00 -0.00000000000E+00 -0.52744807296E+02  0.52744807357E+02  0.25500000000E-02 0. -1.
   -5000001    1    1    2    0    0  0.19135562027E+03 -0.13909345224E+03  0.85415236513E+03  0.92089099503E+03  0.25000000000E+03 0.  0.
    5000001    1    1    2    0    0 -0.19135562027E+03  0.13909345224E+03  0.15091529129E+04  0.15479038976E+04  0.25000000000E+03 0.  0.
<mgrwt>
<rscale>  0 0.71395825E+03</rscale>
<asrwt>0</asrwt>
<pdfrwt beam="1">  1        2 0.37169999E+00 0.71395825E+03</pdfrwt>
<pdfrwt beam="2">  1       -2 0.81145863E-02 0.71395825E+03</pdfrwt>
<totfact> 0.38876629E+02</totfact>
</mgrwt>
</event>
<event>
 4    1  0.6476857E-006  0.6670668E+03  0.7818608E-02  0.9775271E-01
          2   -1    0    0  501    0  0.00000000000E+00  0.00000000000E+00  0.96367752537E+03  0.96367752537E+03  0.25500000000E-02 0.  1.
         -2   -1    0    0    0  501 -0.00000000000E+00 -0.00000000000E+00 -0.11543751308E+03  0.11543751311E+03  0.25500000000E-02 0. -1.
   -5000001    1    1    2    0    0  0.21427437020E+02 -0.14958974611E+03  0.16373381836E+03  0.33488056151E+03  0.25000000000E+03 0.  0.
    5000001    1    1    2    0    0 -0.21427437020E+02  0.14958974611E+03  0.68450619392E+03  0.74423447697E+03  0.25000000000E+03 0.  0.
<mgrwt>
<rscale>  0 0.66706682E+03</rscale>
<asrwt>0</asrwt>
<pdfrwt beam="1">  1        2 0.14825808E+00 0.66706682E+03</pdfrwt>
<pdfrwt beam="2">  1       -2 0.17759618E-01 0.66706682E+03</pdfrwt>
<totfact> 0.70294057E+02</totfact>
</mgrwt>
</event>
<event>
 4    1  0.6476857E-006  0.5680136E+03  0.7818608E-02  0.9974084E-01
          2   -1    0    0  501    0  0.00000000000E+00  0.00000000000E+00  0.78422504669E+03  0.78422504669E+03  0.25500000000E-02 0.  1.
         -2   -1    0    0    0  501 -0.00000000000E+00 -0.00000000000E+00 -0.10285296424E+03  0.10285296427E+03  0.25500000000E-02 0. -1.
   -5000001    1    1    2    0    0  0.64339113903E+02  0.11759435387E+03  0.31905089440E+03  0.42692086721E+03  0.25000000000E+03 0.  0.
    5000001    1    1    2    0    0 -0.64339113903E+02 -0.11759435387E+03  0.36232118805E+03  0.46015714376E+03  0.25000000000E+03 0.  0.
<mgrwt>
<rscale>  0 0.56801363E+03</rscale>
<asrwt>0</asrwt>
<pdfrwt beam="1">  1        2 0.12065001E+00 0.56801363E+03</pdfrwt>
<pdfrwt beam="2">  1       -2 0.15823533E-01 0.56801363E+03</pdfrwt>
<totfact> 0.11368638E+03</totfact>
</mgrwt>
</event>
<event>
 4    1  0.6476857E-006  0.5329164E+03  0.7818608E-02  0.1005527E+00
         -2   -1    0    0    0  501 -0.00000000000E+00  0.00000000000E+00  0.21744573343E+03  0.21744573345E+03  0.25500000000E-02 0. -1.
          2   -1    0    0  501    0  0.00000000000E+00 -0.00000000000E+00 -0.32651809413E+03  0.32651809414E+03  0.25500000000E-02 0.  1.
   -5000001    1    1    2    0    0 -0.41233024020E+02 -0.73543542456E+02 -0.92607521547E+02  0.27961575055E+03  0.25000000000E+03 0.  0.
    5000001    1    1    2    0    0  0.41233024020E+02  0.73543542456E+02 -0.16464839152E+02  0.26434807704E+03  0.25000000000E+03 0.  0.
<mgrwt>
<rscale>  0 0.53291638E+03</rscale>
<asrwt>0</asrwt>
<pdfrwt beam="1">  1        2 0.50233553E-01 0.53291638E+03</pdfrwt>
<pdfrwt beam="2">  1       -2 0.33453190E-01 0.53291638E+03</pdfrwt>
<totfact> 0.83724106E+02</totfact>
</mgrwt>
</event>
<event>
 4    1  0.6476857E-006  0.7005803E+03  0.7818608E-02  0.9716240E-01
         -2   -1    0    0    0  501 -0.00000000000E+00  0.00000000000E+00  0.12351233141E+03  0.12351233144E+03  0.25500000000E-02 0. -1.
          2   -1    0    0  501    0  0.00000000000E+00 -0.00000000000E+00 -0.99344876617E+03  0.99344876617E+03  0.25500000000E-02 0.  1.
   -5000001    1    1    2    0    0 -0.13715072396E+03  0.14799181269E+03 -0.65755546809E+03  0.73184089208E+03  0.25000000000E+03 0.  0.
    5000001    1    1    2    0    0  0.13715072396E+03 -0.14799181269E+03 -0.21238096667E+03  0.38512020553E+03  0.25000000000E+03 0.  0.
<mgrwt>
<rscale>  0 0.70058025E+03</rscale>
<asrwt>0</asrwt>
<pdfrwt beam="1">  1        2 0.15283827E+00 0.70058025E+03</pdfrwt>
<pdfrwt beam="2">  1       -2 0.19001898E-01 0.70058025E+03</pdfrwt>
<totfact> 0.59775715E+02</totfact>
</mgrwt>
</event>
<event>
 4    1  0.6476857E-006  0.6503217E+03  0.7818608E-02  0.9806176E-01
         -2   -1    0    0    0  501 -0.00000000000E+00  0.00000000000E+00  0.17509308760E+03  0.17509308762E+03  0.25500000000E-02 0. -1.
          2   -1    0    0  501    0  0.00000000000E+00 -0.00000000000E+00 -0.60384778935E+03  0.60384778936E+03  0.25500000000E-02 0.  1.
   -5000001    1    1    2    0    0 -0.10011888168E+03 -0.98544735766E+02 -0.39797257566E+03  0.49052729424E+03  0.25000000000E+03 0.  0.
    5000001    1    1    2    0    0  0.10011888168E+03  0.98544735766E+02 -0.30782126091E+02  0.28841358273E+03  0.25000000000E+03 0.  0.
<mgrwt>
<rscale>  0 0.65032169E+03</rscale>
<asrwt>0</asrwt>
<pdfrwt beam="1">  1        2 0.92899659E-01 0.65032169E+03</pdfrwt>
<pdfrwt beam="2">  1       -2 0.26937398E-01 0.65032169E+03</pdfrwt>
<totfact> 0.61930230E+02</totfact>
</mgrwt>
</event>
<event>
 4    1  0.6476857E-006  0.5474123E+03  0.7818608E-02  0.1002095E+00
         -2   -1    0    0    0  501 -0.00000000000E+00  0.00000000000E+00  0.47210889746E+02  0.47210889814E+02  0.25500000000E-02 0. -1.
          2   -1    0    0  501    0  0.00000000000E+00 -0.00000000000E+00 -0.15868172157E+04  0.15868172157E+04  0.25500000000E-02 0.  1.
   -5000001    1    1    2    0    0 -0.10266315326E+03 -0.19432482233E+00 -0.64053861913E+03  0.69521901830E+03  0.25000000000E+03 0.  0.
    5000001    1    1    2    0    0  0.10266315326E+03  0.19432482233E+00 -0.89906770686E+03  0.93880908726E+03  0.25000000000E+03 0.  0.
<mgrwt>
<rscale>  0 0.54741229E+03</rscale>
<asrwt>0</asrwt>
<pdfrwt beam="1">  1        2 0.24412568E+00 0.54741229E+03</pdfrwt>
<pdfrwt beam="2">  1       -2 0.72632150E-02 0.54741229E+03</pdfrwt>
<totfact> 0.13308600E+03</totfact>
</mgrwt>
</event>
<event>
 4    1  0.6476857E-006  0.8045004E+03  0.7818608E-02  0.9553526E-01
         -2   -1    0    0    0  501 -0.00000000000E+00  0.00000000000E+00  0.10114198740E+03  0.10114198743E+03  0.25500000000E-02 0. -1.
          2   -1    0    0  501    0  0.00000000000E+00 -0.00000000000E+00 -0.15997829347E+04  0.15997829347E+04  0.25500000000E-02 0.  1.
   -5000001    1    1    2    0    0  0.17713517813E+03 -0.96319580339E+02 -0.12613513969E+04  0.13015996617E+04  0.25000000000E+03 0.  0.
    5000001    1    1    2    0    0 -0.17713517813E+03  0.96319580339E+02 -0.23728955038E+03  0.39932526042E+03  0.25000000000E+03 0.  0.
<mgrwt>
<rscale>  0 0.80450041E+03</rscale>
<asrwt>0</asrwt>
<pdfrwt beam="1">  1        2 0.24612043E+00 0.80450041E+03</pdfrwt>
<pdfrwt beam="2">  1       -2 0.15560307E-01 0.80450041E+03</pdfrwt>
<totfact> 0.37133136E+02</totfact>
</mgrwt>
</event>
<event>
 4    1  0.6476857E-006  0.8225331E+03  0.7818608E-02  0.9527962E-01
         -2   -1    0    0    0  501 -0.00000000000E+00  0.00000000000E+00  0.45990734395E+02  0.45990734466E+02  0.25500000000E-02 0. -1.
          2   -1    0    0  501    0  0.00000000000E+00 -0.00000000000E+00 -0.36777011934E+04  0.36777011934E+04  0.25500000000E-02 0.  1.
   -5000001    1    1    2    0    0  0.12833841713E+03  0.27187657470E+03 -0.23929952804E+04  0.24247296825E+04  0.25000000000E+03 0.  0.
    5000001    1    1    2    0    0 -0.12833841713E+03 -0.27187657470E+03 -0.12387151786E+04  0.12989622454E+04  0.25000000000E+03 0.  0.
<mgrwt>
<rscale>  0 0.82253311E+03</rscale>
<asrwt>0</asrwt>
<pdfrwt beam="1">  1        2 0.56579995E+00 0.82253311E+03</pdfrwt>
<pdfrwt beam="2">  1       -2 0.70755005E-02 0.82253311E+03</pdfrwt>
<totfact> 0.77878180E+01</totfact>
</mgrwt>
</event>
<event>
 4    1  0.6476857E-006  0.7921488E+03  0.7818608E-02  0.9571451E-01
         -2   -1    0    0    0  501 -0.00000000000E+00  0.00000000000E+00  0.42439714995E+02  0.42439715072E+02  0.25500000000E-02 0. -1.
          2   -1    0    0  501    0  0.00000000000E+00 -0.00000000000E+00 -0.36964177783E+04  0.36964177783E+04  0.25500000000E-02 0.  1.
   -5000001    1    1    2    0    0 -0.14861168359E+03  0.18293748909E+03 -0.89699808663E+03  0.96055042806E+03  0.25000000000E+03 0.  0.
    5000001    1    1    2    0    0  0.14861168359E+03 -0.18293748909E+03 -0.27569799766E+04  0.27783070653E+04  0.25000000000E+03 0.  0.
<mgrwt>
<rscale>  0 0.79214877E+03</rscale>
<asrwt>0</asrwt>
<pdfrwt beam="1">  1        2 0.56867940E+00 0.79214877E+03</pdfrwt>
<pdfrwt beam="2">  1       -2 0.65291899E-02 0.79214877E+03</pdfrwt>
<totfact> 0.86127379E+01</totfact>
</mgrwt>
</event>
<event>
 4    1  0.6476857E-006  0.1219816E+04  0.7818608E-02  0.9095686E-01
          2   -1    0    0  501    0  0.00000000000E+00  0.00000000000E+00  0.15310700403E+04  0.15310700403E+04  0.25500000000E-02 0.  1.
         -2   -1    0    0    0  501 -0.00000000000E+00 -0.00000000000E+00 -0.24295933795E+03  0.24295933796E+03  0.25500000000E-02 0. -1.
   -5000001    1    1    2    0    0  0.12298513136E+03 -0.53592535961E+03  0.76700040165E+03  0.97628425663E+03  0.25000000000E+03 0.  0.
    5000001    1    1    2    0    0 -0.12298513136E+03  0.53592535961E+03  0.52111030071E+03  0.79774512165E+03  0.25000000000E+03 0.  0.
<mgrwt>
<rscale>  0 0.12198160E+04</rscale>
<asrwt>0</asrwt>
<pdfrwt beam="1">  1        2 0.23554923E+00 0.12198160E+04</pdfrwt>
<pdfrwt beam="2">  1       -2 0.37378361E-01 0.12198160E+04</pdfrwt>
<totfact> 0.81050919E+01</totfact>
</mgrwt>
</event>
<event>
 4    1  0.6476857E-006  0.5954356E+03  0.7818608E-02  0.9914921E-01
          2   -1    0    0  501    0  0.00000000000E+00  0.00000000000E+00  0.14457922144E+04  0.14457922144E+04  0.25500000000E-02 0.  1.
         -2   -1    0    0    0  501 -0.00000000000E+00 -0.00000000000E+00 -0.61306110467E+02  0.61306110520E+02  0.25500000000E-02 0. -1.
   -5000001    1    1    2    0    0  0.88455270020E+02 -0.12963603032E+03  0.79046944770E+03  0.84378420398E+03  0.25000000000E+03 0.  0.
    5000001    1    1    2    0    0 -0.88455270020E+02  0.12963603032E+03  0.59401665626E+03  0.66331412096E+03  0.25000000000E+03 0.  0.
<mgrwt>
<rscale>  0 0.59543563E+03</rscale>
<asrwt>0</asrwt>
<pdfrwt beam="1">  1        2 0.22242957E+00 0.59543563E+03</pdfrwt>
<pdfrwt beam="2">  1       -2 0.94317095E-02 0.59543563E+03</pdfrwt>
<totfact> 0.10463926E+03</totfact>
</mgrwt>
</event>
<event>
 4    1  0.6476857E-006  0.8222358E+03  0.7818608E-02  0.9528378E-01
         -2   -1    0    0    0  501 -0.00000000000E+00  0.00000000000E+00  0.26803889124E+03  0.26803889126E+03  0.25500000000E-02 0. -1.
          2   -1    0    0  501    0  0.00000000000E+00 -0.00000000000E+00 -0.63057241148E+03  0.63057241148E+03  0.25500000000E-02 0.  1.
   -5000001    1    1    2    0    0  0.12350267849E+03  0.87513459317E+02  0.13473920968E+03  0.32181698492E+03  0.25000000000E+03 0.  0.
    5000001    1    1    2    0    0 -0.12350267849E+03 -0.87513459317E+02 -0.49727272991E+03  0.57679431782E+03  0.25000000000E+03 0.  0.
<mgrwt>
<rscale>  0 0.82223581E+03</rscale>
<asrwt>0</asrwt>
<pdfrwt beam="1">  1        2 0.97011140E-01 0.82223581E+03</pdfrwt>
<pdfrwt beam="2">  1       -2 0.41236753E-01 0.82223581E+03</pdfrwt>
<totfact> 0.26142993E+02</totfact>
</mgrwt>
</event>
<event>
 4    1  0.6476857E-006  0.9252140E+03  0.7818608E-02  0.9394600E-01
         -2   -1    0    0    0  501 -0.00000000000E+00  0.00000000000E+00  0.27556280642E+04  0.27556280642E+04  0.25500000000E-02 0.  1.
          2   -1    0    0  501    0  0.00000000000E+00 -0.00000000000E+00 -0.77661144537E+02  0.77661144579E+02  0.25500000000E-02 0. -1.
   -5000001    1    1    2    0    0 -0.27275783609E+03  0.19011054864E+03  0.71916790811E+03  0.83080764194E+03  0.25000000000E+03 0.  0.
    5000001    1    1    2    0    0  0.27275783609E+03 -0.19011054864E+03  0.19587990115E+04  0.20024815668E+04  0.25000000000E+03 0.  0.
<mgrwt>
<rscale>  0 0.92521398E+03</rscale>
<asrwt>0</asrwt>
<pdfrwt beam="1">  1        2 0.11947871E-01 0.92521398E+03</pdfrwt>
<pdfrwt beam="2">  1       -2 0.42394268E+00 0.92521398E+03</pdfrwt>
<totfact> 0.28588630E+00</totfact>
</mgrwt>
</event>
<event>
 4    1  0.6476857E-006  0.7251723E+03  0.7818608E-02  0.9675127E-01
          2   -1    0    0  501    0  0.00000000000E+00  0.00000000000E+00  0.99702083677E+03  0.99702083677E+03  0.25500000000E-02 0.  1.
         -2   -1    0    0    0  501 -0.00000000000E+00 -0.00000000000E+00 -0.13186155945E+03  0.13186155947E+03  0.25500000000E-02 0. -1.
   -5000001    1    1    2    0    0 -0.26114364603E+03 -0.18689010600E+02  0.46461304370E+03  0.58899114031E+03  0.25000000000E+03 0.  0.
    5000001    1    1    2    0    0  0.26114364603E+03  0.18689010600E+02  0.40054623361E+03  0.53989125594E+03  0.25000000000E+03 0.  0.
<mgrwt>
<rscale>  0 0.72517232E+03</rscale>
<asrwt>0</asrwt>
<pdfrwt beam="1">  1        2 0.15338782E+00 0.72517232E+03</pdfrwt>
<pdfrwt beam="2">  1       -2 0.20286394E-01 0.72517232E+03</pdfrwt>
<totfact> 0.53000276E+02</totfact>
</mgrwt>
</event>
<event>
 4    1  0.6476857E-006  0.8447919E+03  0.7818608E-02  0.9497354E-01
          2   -1    0    0  501    0  0.00000000000E+00  0.00000000000E+00  0.10078472232E+04  0.10078472232E+04  0.25500000000E-02 0.  1.
         -2   -1    0    0    0  501 -0.00000000000E+00 -0.00000000000E+00 -0.17702913511E+03  0.17702913513E+03  0.25500000000E-02 0. -1.
   -5000001    1    1    2    0    0  0.12832179484E+03 -0.17591328371E+03  0.78251273065E+03  0.84984595077E+03  0.25000000000E+03 0.  0.
    5000001    1    1    2    0    0 -0.12832179484E+03  0.17591328371E+03  0.48305357404E+02  0.33503040753E+03  0.25000000000E+03 0.  0.
<mgrwt>
<rscale>  0 0.84479186E+03</rscale>
<asrwt>0</asrwt>
<pdfrwt beam="1">  1        2 0.15505342E+00 0.84479186E+03</pdfrwt>
<pdfrwt beam="2">  1       -2 0.27235252E-01 0.84479186E+03</pdfrwt>
<totfact> 0.30628587E+02</totfact>
</mgrwt>
</event>
<event>
 4    1  0.6476857E-006  0.9062742E+03  0.7818608E-02  0.9417772E-01
         -2   -1    0    0    0  501 -0.00000000000E+00  0.00000000000E+00  0.11795246151E+04  0.11795246151E+04  0.25500000000E-02 0. -1.
          2   -1    0    0  501    0  0.00000000000E+00 -0.00000000000E+00 -0.17408132869E+03  0.17408132871E+03  0.25500000000E-02 0.  1.
   -5000001    1    1    2    0    0 -0.28332025122E+03 -0.23043840543E+03  0.64800000038E+03  0.78471410332E+03  0.25000000000E+03 0.  0.
    5000001    1    1    2    0    0  0.28332025122E+03  0.23043840543E+03  0.35744328603E+03  0.56889184049E+03  0.25000000000E+03 0.  0.
<mgrwt>
<rscale>  0 0.90627416E+03</rscale>
<asrwt>0</asrwt>
<pdfrwt beam="1">  1        2 0.26781742E-01 0.90627416E+03</pdfrwt>
<pdfrwt beam="2">  1       -2 0.18146533E+00 0.90627416E+03</pdfrwt>
<totfact> 0.36042460E+01</totfact>
</mgrwt>
</event>
<event>
 4    1  0.6476857E-006  0.1124085E+04  0.7818608E-02  0.9182029E-01
          2   -1    0    0  501    0  0.00000000000E+00  0.00000000000E+00  0.24337973250E+04  0.24337973250E+04  0.25500000000E-02 0. -1.
         -2   -1    0    0    0  501 -0.00000000000E+00 -0.00000000000E+00 -0.12979387226E+03  0.12979387228E+03  0.25500000000E-02 0.  1.
   -5000001    1    1    2    0    0 -0.43398517014E+03  0.16785734852E+03  0.15899293197E+04  0.16753789001E+04  0.25000000000E+03 0.  0.
    5000001    1    1    2    0    0  0.43398517014E+03 -0.16785734852E+03  0.71407413310E+03  0.88821229721E+03  0.25000000000E+03 0.  0.
<mgrwt>
<rscale>  0 0.11240854E+04</rscale>
<asrwt>0</asrwt>
<pdfrwt beam="1">  1        2 0.37443033E+00 0.11240854E+04</pdfrwt>
<pdfrwt beam="2">  1       -2 0.19968289E-01 0.11240854E+04</pdfrwt>
<totfact> 0.81367269E+01</totfact>
</mgrwt>
</event>
<event>
 4    1  0.6476857E-006  0.6996946E+03  0.7818608E-02  0.9717755E-01
          2   -1    0    0  501    0  0.00000000000E+00  0.00000000000E+00  0.52823458994E+03  0.52823458995E+03  0.25500000000E-02 0.  1.
         -2   -1    0    0    0  501 -0.00000000000E+00 -0.00000000000E+00 -0.23170224818E+03  0.23170224819E+03  0.25500000000E-02 0. -1.
   -5000001    1    1    2    0    0  0.14804906904E+03  0.17897153955E+03  0.64532299233E+02  0.34729491280E+03  0.25000000000E+03 0.  0.
    5000001    1    1    2    0    0 -0.14804906904E+03 -0.17897153955E+03  0.23200004253E+03  0.41264192534E+03  0.25000000000E+03 0.  0.
<mgrwt>
<rscale>  0 0.69969462E+03</rscale>
<asrwt>0</asrwt>
<pdfrwt beam="1">  1        2 0.81266860E-01 0.69969462E+03</pdfrwt>
<pdfrwt beam="2">  1       -2 0.35646500E-01 0.69969462E+03</pdfrwt>
<totfact> 0.43016008E+02</totfact>
</mgrwt>
</event>
<event>
 4    1  0.6476857E-006  0.5428347E+03  0.7818608E-02  0.1003166E+00
          2   -1    0    0  501    0  0.00000000000E+00  0.00000000000E+00  0.30647657393E+04  0.30647657393E+04  0.25500000000E-02 0.  1.
         -2   -1    0    0    0  501 -0.00000000000E+00 -0.00000000000E+00 -0.24036867408E+02  0.24036867543E+02  0.25500000000E-02 0. -1.
   -5000001    1    1    2    0    0 -0.37656599795E+02  0.97608053445E+02  0.16051486559E+04  0.16278659524E+04  0.25000000000E+03 0.  0.
    5000001    1    1    2    0    0  0.37656599795E+02 -0.97608053445E+02  0.14355802160E+04  0.14609366544E+04  0.25000000000E+03 0.  0.
<mgrwt>
<rscale>  0 0.54283466E+03</rscale>
<asrwt>0</asrwt>
<pdfrwt beam="1">  1        2 0.47150216E+00 0.54283466E+03</pdfrwt>
<pdfrwt beam="2">  1       -2 0.36979817E-02 0.54283466E+03</pdfrwt>
<totfact> 0.56408167E+02</totfact>
</mgrwt>
</event>
<event>
 4    1  0.6476857E-006  0.6239098E+03  0.7818608E-02  0.9857006E-01
          2   -1    0    0  501    0  0.00000000000E+00  0.00000000000E+00  0.13304817412E+04  0.13304817412E+04  0.25500000000E-02 0. -1.
         -2   -1    0    0    0  501 -0.00000000000E+00 -0.00000000000E+00 -0.73143319558E+02  0.73143319602E+02  0.25500000000E-02 0.  1.
   -5000001    1    1    2    0    0  0.16901244250E+03  0.57476838623E+02  0.50653883220E+03  0.59241065253E+03  0.25000000000E+03 0.  0.
    5000001    1    1    2    0    0 -0.16901244250E+03 -0.57476838623E+02  0.75079958944E+03  0.81121440828E+03  0.25000000000E+03 0.  0.
<mgrwt>
<rscale>  0 0.62390977E+03</rscale>
<asrwt>0</asrwt>
<pdfrwt beam="1">  1        2 0.20468949E+00 0.62390977E+03</pdfrwt>
<pdfrwt beam="2">  1       -2 0.11252819E-01 0.62390977E+03</pdfrwt>
<totfact> 0.91064256E+02</totfact>
</mgrwt>
</event>
<event>
 4    1  0.6476857E-006  0.7706479E+03  0.7818608E-02  0.9603503E-01
         -2   -1    0    0    0  501 -0.00000000000E+00  0.00000000000E+00  0.88998236162E+02  0.88998236198E+02  0.25500000000E-02 0. -1.
          2   -1    0    0  501    0  0.00000000000E+00 -0.00000000000E+00 -0.16682862681E+04  0.16682862681E+04  0.25500000000E-02 0.  1.
   -5000001    1    1    2    0    0 -0.23438727061E+03  0.15169752800E+03 -0.58537208724E+03  0.69506115785E+03  0.25000000000E+03 0.  0.
    5000001    1    1    2    0    0  0.23438727061E+03 -0.15169752800E+03 -0.99391594471E+03  0.10622233465E+04  0.25000000000E+03 0.  0.
<mgrwt>
<rscale>  0 0.77064787E+03</rscale>
<asrwt>0</asrwt>
<pdfrwt beam="1">  1        2 0.25665940E+00 0.77064787E+03</pdfrwt>
<pdfrwt beam="2">  1       -2 0.13692038E-01 0.77064787E+03</pdfrwt>
<totfact> 0.42337760E+02</totfact>
</mgrwt>
</event>
<event>
 4    1  0.6476857E-006  0.6133040E+03  0.7818608E-02  0.9878183E-01
          2   -1    0    0  501    0  0.00000000000E+00  0.00000000000E+00  0.40707273075E+03  0.40707273076E+03  0.25500000000E-02 0.  1.
         -2   -1    0    0    0  501 -0.00000000000E+00 -0.00000000000E+00 -0.23100403014E+03  0.23100403015E+03  0.25500000000E-02 0. -1.
   -5000001    1    1    2    0    0 -0.51100996227E+02  0.16228308201E+03  0.14096497780E+03  0.33364387524E+03  0.25000000000E+03 0.  0.
    5000001    1    1    2    0    0  0.51100996227E+02 -0.16228308201E+03  0.35103722813E+02  0.30443288567E+03  0.25000000000E+03 0.  0.
<mgrwt>
<rscale>  0 0.61330397E+03</rscale>
<asrwt>0</asrwt>
<pdfrwt beam="1">  1        2 0.62626574E-01 0.61330397E+03</pdfrwt>
<pdfrwt beam="2">  1       -2 0.35539082E-01 0.61330397E+03</pdfrwt>
<totfact> 0.58397567E+02</totfact>
</mgrwt>
</event>
<event>
 4    1  0.6476857E-006  0.1188951E+04  0.7818608E-02  0.9122583E-01
          2   -1    0    0  501    0  0.00000000000E+00  0.00000000000E+00  0.14813566377E+04  0.14813566377E+04  0.25500000000E-02 0.  1.
         -2   -1    0    0    0  501 -0.00000000000E+00 -0.00000000000E+00 -0.23856594597E+03  0.23856594598E+03  0.25500000000E-02 0. -1.
   -5000001    1    1    2    0    0  0.29471120742E+03  0.44378051532E+03  0.74333341539E+03  0.94807194241E+03  0.25000000000E+03 0.  0.
    5000001    1    1    2    0    0 -0.29471120742E+03 -0.44378051532E+03  0.49945727638E+03  0.77185064130E+03  0.25000000000E+03 0.  0.
<mgrwt>
<rscale>  0 0.11889512E+04</rscale>
<asrwt>0</asrwt>
<pdfrwt beam="1">  1        2 0.22790102E+00 0.11889512E+04</pdfrwt>
<pdfrwt beam="2">  1       -2 0.36702454E-01 0.11889512E+04</pdfrwt>
<totfact> 0.89741078E+01</totfact>
</mgrwt>
</event>
<event>
 4    1  0.6476857E-006  0.1496502E+04  0.7818608E-02  0.8886782E-01
          2   -1    0    0  501    0  0.00000000000E+00  0.00000000000E+00  0.12146025964E+04  0.12146025964E+04  0.25500000000E-02 0. -1.
         -2   -1    0    0    0  501 -0.00000000000E+00 -0.00000000000E+00 -0.46095726158E+03  0.46095726159E+03  0.25500000000E-02 0.  1.
   -5000001    1    1    2    0    0 -0.44436440359E+03  0.51685997097E+03  0.57952561167E+03  0.92895311365E+03  0.25000000000E+03 0.  0.
    5000001    1    1    2    0    0  0.44436440359E+03 -0.51685997097E+03  0.17411972319E+03  0.74660674439E+03  0.25000000000E+03 0.  0.
<mgrwt>
<rscale>  0 0.14965024E+04</rscale>
<asrwt>0</asrwt>
<pdfrwt beam="1">  1        2 0.18686194E+00 0.14965024E+04</pdfrwt>
<pdfrwt beam="2">  1       -2 0.70916501E-01 0.14965024E+04</pdfrwt>
<totfact> 0.32417539E+01</totfact>
</mgrwt>
</event>
<event>
 4    1  0.6476857E-006  0.6988457E+03  0.7818608E-02  0.9719208E-01
          2   -1    0    0  501    0  0.00000000000E+00  0.00000000000E+00  0.18104224863E+04  0.18104224863E+04  0.25500000000E-02 0.  1.
         -2   -1    0    0    0  501 -0.00000000000E+00 -0.00000000000E+00 -0.67440792872E+02  0.67440792920E+02  0.25500000000E-02 0. -1.
   -5000001    1    1    2    0    0  0.71308856138E+02  0.23134138630E+03  0.78683514011E+03  0.86035651197E+03  0.25000000000E+03 0.  0.
    5000001    1    1    2    0    0 -0.71308856138E+02 -0.23134138630E+03  0.95614655331E+03  0.10175067672E+04  0.25000000000E+03 0.  0.
<mgrwt>
<rscale>  0 0.69884570E+03</rscale>
<asrwt>0</asrwt>
<pdfrwt beam="1">  1        2 0.27852654E+00 0.69884570E+03</pdfrwt>
<pdfrwt beam="2">  1       -2 0.10375507E-01 0.69884570E+03</pdfrwt>
<totfact> 0.56257118E+02</totfact>
</mgrwt>
</event>
<event>
 4    1  0.6476857E-006  0.6755561E+03  0.7818608E-02  0.9759972E-01
          2   -1    0    0  501    0  0.00000000000E+00  0.00000000000E+00  0.73067774552E+03  0.73067774552E+03  0.25500000000E-02 0.  1.
         -2   -1    0    0    0  501 -0.00000000000E+00 -0.00000000000E+00 -0.15614818251E+03  0.15614818253E+03  0.25500000000E-02 0. -1.
   -5000001    1    1    2    0    0 -0.21039808312E+03 -0.70399576849E+02  0.22334999065E+03  0.40200581106E+03  0.25000000000E+03 0.  0.
    5000001    1    1    2    0    0  0.21039808312E+03  0.70399576849E+02  0.35117957235E+03  0.48482011699E+03  0.25000000000E+03 0.  0.
<mgrwt>
<rscale>  0 0.67555607E+03</rscale>
<asrwt>0</asrwt>
<pdfrwt beam="1">  1        2 0.11241196E+00 0.67555607E+03</pdfrwt>
<pdfrwt beam="2">  1       -2 0.24022798E-01 0.67555607E+03</pdfrwt>
<totfact> 0.60099378E+02</totfact>
</mgrwt>
</event>
<event>
 4    1  0.6476857E-006  0.7720845E+03  0.7818608E-02  0.9601326E-01
         -2   -1    0    0    0  501 -0.00000000000E+00  0.00000000000E+00  0.88391781325E+02  0.88391781362E+02  0.25500000000E-02 0. -1.
          2   -1    0    0  501    0  0.00000000000E+00 -0.00000000000E+00 -0.16860008126E+04  0.16860008126E+04  0.25500000000E-02 0.  1.
   -5000001    1    1    2    0    0 -0.27296088450E+03  0.10267384789E+03 -0.71041992398E+03  0.80761750346E+03  0.25000000000E+03 0.  0.
    5000001    1    1    2    0    0  0.27296088450E+03 -0.10267384789E+03 -0.88718910729E+03  0.96677509049E+03  0.25000000000E+03 0.  0.
<mgrwt>
<rscale>  0 0.77208449E+03</rscale>
<asrwt>0</asrwt>
<pdfrwt beam="1">  1        2 0.25938472E+00 0.77208449E+03</pdfrwt>
<pdfrwt beam="2">  1       -2 0.13598737E-01 0.77208449E+03</pdfrwt>
<totfact> 0.41874451E+02</totfact>
</mgrwt>
</event>
<event>
 4    1  0.6476857E-006  0.7239582E+03  0.7818608E-02  0.9677115E-01
         -2   -1    0    0    0  501 -0.00000000000E+00  0.00000000000E+00  0.68219112750E+02  0.68219112798E+02  0.25500000000E-02 0. -1.
          2   -1    0    0  501    0  0.00000000000E+00 -0.00000000000E+00 -0.19207062655E+04  0.19207062655E+04  0.25500000000E-02 0.  1.
   -5000001    1    1    2    0    0  0.14940971882E+03  0.20853830492E+03 -0.10694560550E+04  0.11278509397E+04  0.25000000000E+03 0.  0.
    5000001    1    1    2    0    0 -0.14940971882E+03 -0.20853830492E+03 -0.78303109778E+03  0.86107443858E+03  0.25000000000E+03 0.  0.
<mgrwt>
<rscale>  0 0.72395822E+03</rscale>
<asrwt>0</asrwt>
<pdfrwt beam="1">  1        2 0.29549323E+00 0.72395822E+03</pdfrwt>
<pdfrwt beam="2">  1       -2 0.10495250E-01 0.72395822E+03</pdfrwt>
<totfact> 0.48008005E+02</totfact>
</mgrwt>
</event>
<event>
 4    1  0.6476857E-006  0.6741318E+03  0.7818608E-02  0.9762522E-01
          2   -1    0    0  501    0  0.00000000000E+00  0.00000000000E+00  0.52113733487E+03  0.52113733487E+03  0.25500000000E-02 0.  1.
         -2   -1    0    0    0  501 -0.00000000000E+00 -0.00000000000E+00 -0.21801053306E+03  0.21801053307E+03  0.25500000000E-02 0. -1.
   -5000001    1    1    2    0    0  0.52419704571E+02  0.21796657930E+03  0.11948096916E+03  0.35641683057E+03  0.25000000000E+03 0.  0.
    5000001    1    1    2    0    0 -0.52419704571E+02 -0.21796657930E+03  0.18364583265E+03  0.38273103738E+03  0.25000000000E+03 0.  0.
<mgrwt>
<rscale>  0 0.67413182E+03</rscale>
<asrwt>0</asrwt>
<pdfrwt beam="1">  1        2 0.80174974E-01 0.67413182E+03</pdfrwt>
<pdfrwt beam="2">  1       -2 0.33540082E-01 0.67413182E+03</pdfrwt>
<totfact> 0.49088277E+02</totfact>
</mgrwt>
</event>
<event>
 4    1  0.6476857E-006  0.5840808E+03  0.7818608E-02  0.9938995E-01
          2   -1    0    0  501    0  0.00000000000E+00  0.00000000000E+00  0.85424064694E+03  0.85424064694E+03  0.25500000000E-02 0.  1.
         -2   -1    0    0    0  501 -0.00000000000E+00 -0.00000000000E+00 -0.99840257343E+02  0.99840257376E+02  0.25500000000E-02 0. -1.
   -5000001    1    1    2    0    0  0.24751311610E+02 -0.11141011535E+03  0.53859838459E+03  0.60465945879E+03  0.25000000000E+03 0.  0.
    5000001    1    1    2    0    0 -0.24751311610E+02  0.11141011535E+03  0.21580200501E+03  0.34942144553E+03  0.25000000000E+03 0.  0.
<mgrwt>
<rscale>  0 0.58408084E+03</rscale>
<asrwt>0</asrwt>
<pdfrwt beam="1">  1        2 0.13142164E+00 0.58408084E+03</pdfrwt>
<pdfrwt beam="2">  1       -2 0.15360040E-01 0.58408084E+03</pdfrwt>
<totfact> 0.10670148E+03</totfact>
</mgrwt>
</event>
<event>
 4    1  0.6476857E-006  0.5417432E+03  0.7818608E-02  0.1003423E+00
         -2   -1    0    0    0  501 -0.00000000000E+00  0.00000000000E+00  0.17256632571E+03  0.17256632573E+03  0.25500000000E-02 0. -1.
          2   -1    0    0  501    0  0.00000000000E+00 -0.00000000000E+00 -0.42517805569E+03  0.42517805570E+03  0.25500000000E-02 0.  1.
   -5000001    1    1    2    0    0 -0.30993105296E+02 -0.95091507877E+02 -0.93790111575E+02  0.28513076382E+03  0.25000000000E+03 0.  0.
    5000001    1    1    2    0    0  0.30993105296E+02  0.95091507877E+02 -0.15882161840E+03  0.31261361761E+03  0.25000000000E+03 0.  0.
<mgrwt>
<rscale>  0 0.54174317E+03</rscale>
<asrwt>0</asrwt>
<pdfrwt beam="1">  1        2 0.65412008E-01 0.54174317E+03</pdfrwt>
<pdfrwt beam="2">  1       -2 0.26548666E-01 0.54174317E+03</pdfrwt>
<totfact> 0.95610176E+02</totfact>
</mgrwt>
</event>
<event>
 4    1  0.6476857E-006  0.5327966E+03  0.7818608E-02  0.1005556E+00
         -2   -1    0    0    0  501 -0.00000000000E+00  0.00000000000E+00  0.10018816303E+04  0.10018816303E+04  0.25500000000E-02 0. -1.
          2   -1    0    0  501    0  0.00000000000E+00 -0.00000000000E+00 -0.70834782078E+02  0.70834782124E+02  0.25500000000E-02 0.  1.
   -5000001    1    1    2    0    0  0.31020356248E+02  0.63651998659E+02  0.34719232107E+03  0.43365464052E+03  0.25000000000E+03 0.  0.
    5000001    1    1    2    0    0 -0.31020356248E+02 -0.63651998659E+02  0.58385452715E+03  0.63906177190E+03  0.25000000000E+03 0.  0.
<mgrwt>
<rscale>  0 0.53279665E+03</rscale>
<asrwt>0</asrwt>
<pdfrwt beam="1">  1        2 0.10897659E-01 0.53279665E+03</pdfrwt>
<pdfrwt beam="2">  1       -2 0.15413564E+00 0.53279665E+03</pdfrwt>
<totfact> 0.16913572E+02</totfact>
</mgrwt>
</event>
<event>
 4    1  0.6476857E-006  0.6106635E+03  0.7818608E-02  0.9883526E-01
          2   -1    0    0  501    0  0.00000000000E+00  0.00000000000E+00  0.48619923996E+03  0.48619923997E+03  0.25500000000E-02 0. -1.
         -2   -1    0    0    0  501 -0.00000000000E+00 -0.00000000000E+00 -0.19174748617E+03  0.19174748618E+03  0.25500000000E-02 0.  1.
   -5000001    1    1    2    0    0 -0.12521145040E+03 -0.12266586756E+03  0.14903641415E+03  0.33975973146E+03  0.25000000000E+03 0.  0.
    5000001    1    1    2    0    0  0.12521145040E+03  0.12266586756E+03  0.14541533964E+03  0.33818699469E+03  0.25000000000E+03 0.  0.
<mgrwt>
<rscale>  0 0.61066351E+03</rscale>
<asrwt>0</asrwt>
<pdfrwt beam="1">  1        2 0.74799882E-01 0.61066351E+03</pdfrwt>
<pdfrwt beam="2">  1       -2 0.29499614E-01 0.61066351E+03</pdfrwt>
<totfact> 0.67677240E+02</totfact>
</mgrwt>
</event>
<event>
 4    1  0.6476857E-006  0.6420974E+03  0.7818608E-02  0.9821722E-01
         -2   -1    0    0    0  501 -0.00000000000E+00  0.00000000000E+00  0.30322931917E+03  0.30322931919E+03  0.25500000000E-02 0. -1.
          2   -1    0    0  501    0  0.00000000000E+00 -0.00000000000E+00 -0.33991524400E+03  0.33991524401E+03  0.25500000000E-02 0.  1.
   -5000001    1    1    2    0    0  0.32737032445E+02 -0.16130320788E+03  0.97957679502E+02  0.31493831958E+03  0.25000000000E+03 0.  0.
    5000001    1    1    2    0    0 -0.32737032445E+02  0.16130320788E+03 -0.13464360433E+03  0.32820624362E+03  0.25000000000E+03 0.  0.
<mgrwt>
<rscale>  0 0.64209740E+03</rscale>
<asrwt>0</asrwt>
<pdfrwt beam="1">  1        2 0.52294653E-01 0.64209740E+03</pdfrwt>
<pdfrwt beam="2">  1       -2 0.46650665E-01 0.64209740E+03</pdfrwt>
<totfact> 0.41969635E+02</totfact>
</mgrwt>
</event>
<event>
 4    1  0.6476857E-006  0.1017856E+04  0.7818608E-02  0.9289175E-01
          2   -1    0    0  501    0  0.00000000000E+00  0.00000000000E+00  0.18922645676E+04  0.18922645676E+04  0.25500000000E-02 0.  1.
         -2   -1    0    0    0  501 -0.00000000000E+00 -0.00000000000E+00 -0.13687699621E+03  0.13687699624E+03  0.25500000000E-02 0. -1.
   -5000001    1    1    2    0    0  0.16602823032E+03 -0.40864248755E+03  0.78958370868E+03  0.93834774413E+03  0.25000000000E+03 0.  0.
    5000001    1    1    2    0    0 -0.16602823032E+03  0.40864248755E+03  0.96580386267E+03  0.10907938197E+04  0.25000000000E+03 0.  0.
<mgrwt>
<rscale>  0 0.10178556E+04</rscale>
<asrwt>0</asrwt>
<pdfrwt beam="1">  1        2 0.29111761E+00 0.10178556E+04</pdfrwt>
<pdfrwt beam="2">  1       -2 0.21058001E-01 0.10178556E+04</pdfrwt>
<totfact> 0.14959480E+02</totfact>
</mgrwt>
</event>
<event>
 4    1  0.6476857E-006  0.9929871E+03  0.7818608E-02  0.9316270E-01
         -2   -1    0    0    0  501 -0.00000000000E+00  0.00000000000E+00  0.72229967437E+02  0.72229967482E+02  0.25500000000E-02 0. -1.
          2   -1    0    0  501    0  0.00000000000E+00 -0.00000000000E+00 -0.34127919631E+04  0.34127919631E+04  0.25500000000E-02 0.  1.
   -5000001    1    1    2    0    0 -0.26603312645E+03  0.23834107683E+03 -0.25039633494E+04  0.25416358017E+04  0.25000000000E+03 0.  0.
    5000001    1    1    2    0    0  0.26603312645E+03 -0.23834107683E+03 -0.83659864631E+03  0.94338612894E+03  0.25000000000E+03 0.  0.
<mgrwt>
<rscale>  0 0.99298711E+03</rscale>
<asrwt>0</asrwt>
<pdfrwt beam="1">  1        2 0.52504479E+00 0.99298711E+03</pdfrwt>
<pdfrwt beam="2">  1       -2 0.11112305E-01 0.99298711E+03</pdfrwt>
<totfact> 0.56071057E+01</totfact>
</mgrwt>
</event>
<event>
 4    1  0.6476857E-006  0.1646277E+04  0.7818608E-02  0.8792612E-01
          2   -1    0    0  501    0  0.00000000000E+00  0.00000000000E+00  0.18483118279E+04  0.18483118279E+04  0.25500000000E-02 0.  1.
         -2   -1    0    0    0  501 -0.00000000000E+00 -0.00000000000E+00 -0.36658151817E+03  0.36658151817E+03  0.25500000000E-02 0. -1.
   -5000001    1    1    2    0    0  0.71690532901E+03  0.22860988911E+03  0.10381982059E+04  0.13063580087E+04  0.25000000000E+03 0.  0.
    5000001    1    1    2    0    0 -0.71690532901E+03 -0.22860988911E+03  0.44353210387E+03  0.90853533741E+03  0.25000000000E+03 0.  0.
<mgrwt>
<rscale>  0 0.16462770E+04</rscale>
<asrwt>0</asrwt>
<pdfrwt beam="1">  1        2 0.28435566E+00 0.16462770E+04</pdfrwt>
<pdfrwt beam="2">  1       -2 0.56397158E-01 0.16462770E+04</pdfrwt>
<totfact> 0.22868790E+01</totfact>
</mgrwt>
</event>
<event>
 4    1  0.6476857E-006  0.6303596E+03  0.7818608E-02  0.9844347E-01
         -2   -1    0    0    0  501 -0.00000000000E+00  0.00000000000E+00  0.70670210860E+02  0.70670210906E+02  0.25500000000E-02 0. -1.
          2   -1    0    0  501    0  0.00000000000E+00 -0.00000000000E+00 -0.14056603613E+04  0.14056603613E+04  0.25500000000E-02 0.  1.
   -5000001    1    1    2    0    0  0.89976395024E+02  0.59539531707E+02 -0.10392655287E+04  0.10743433095E+04  0.25000000000E+03 0.  0.
    5000001    1    1    2    0    0 -0.89976395024E+02 -0.59539531707E+02 -0.29572462180E+03  0.40198726278E+03  0.25000000000E+03 0.  0.
<mgrwt>
<rscale>  0 0.63035962E+03</rscale>
<asrwt>0</asrwt>
<pdfrwt beam="1">  1        2 0.21625542E+00 0.63035962E+03</pdfrwt>
<pdfrwt beam="2">  1       -2 0.10872341E-01 0.63035962E+03</pdfrwt>
<totfact> 0.87336489E+02</totfact>
</mgrwt>
</event>
<event>
 4    1  0.6476857E-006  0.6139350E+03  0.7818608E-02  0.9876910E-01
         -2   -1    0    0    0  501 -0.00000000000E+00  0.00000000000E+00  0.23389300315E+03  0.23389300317E+03  0.25500000000E-02 0. -1.
          2   -1    0    0  501    0  0.00000000000E+00 -0.00000000000E+00 -0.40287247312E+03  0.40287247313E+03  0.25500000000E-02 0.  1.
   -5000001    1    1    2    0    0 -0.12390489062E+03 -0.20332103764E+02  0.46554394997E+02  0.28360734838E+03  0.25000000000E+03 0.  0.
    5000001    1    1    2    0    0  0.12390489062E+03  0.20332103764E+02 -0.21553386497E+03  0.35315812791E+03  0.25000000000E+03 0.  0.
<mgrwt>
<rscale>  0 0.61393502E+03</rscale>
<asrwt>0</asrwt>
<pdfrwt beam="1">  1        2 0.61980380E-01 0.61393502E+03</pdfrwt>
<pdfrwt beam="2">  1       -2 0.35983539E-01 0.61393502E+03</pdfrwt>
<totfact> 0.57697795E+02</totfact>
</mgrwt>
</event>
<event>
 4    1  0.6476857E-006  0.8375564E+03  0.7818608E-02  0.9507192E-01
         -2   -1    0    0    0  501 -0.00000000000E+00  0.00000000000E+00  0.85223277862E+02  0.85223277900E+02  0.25500000000E-02 0. -1.
          2   -1    0    0  501    0  0.00000000000E+00 -0.00000000000E+00 -0.20578319740E+04  0.20578319740E+04  0.25500000000E-02 0.  1.
   -5000001    1    1    2    0    0 -0.30578602507E+03  0.13873224221E+03 -0.10147344826E+04  0.10976965875E+04  0.25000000000E+03 0.  0.
    5000001    1    1    2    0    0  0.30578602507E+03 -0.13873224221E+03 -0.95787421356E+03  0.10453586644E+04  0.25000000000E+03 0.  0.
<mgrwt>
<rscale>  0 0.83755641E+03</rscale>
<asrwt>0</asrwt>
<pdfrwt beam="1">  1        2 0.31658950E+00 0.83755641E+03</pdfrwt>
<pdfrwt beam="2">  1       -2 0.13111275E-01 0.83755641E+03</pdfrwt>
<totfact> 0.27743074E+02</totfact>
</mgrwt>
</event>
<event>
 4    1  0.6476857E-006  0.7072318E+03  0.7818608E-02  0.9704944E-01
         -2   -1    0    0    0  501 -0.00000000000E+00  0.00000000000E+00  0.92152835629E+02  0.92152835664E+02  0.25500000000E-02 0. -1.
          2   -1    0    0  501    0  0.00000000000E+00 -0.00000000000E+00 -0.13569218363E+04  0.13569218363E+04  0.25500000000E-02 0.  1.
   -5000001    1    1    2    0    0 -0.24628436327E+03 -0.80967131306E+01 -0.54491015199E+03  0.64818872105E+03  0.25000000000E+03 0.  0.
    5000001    1    1    2    0    0  0.24628436327E+03  0.80967131306E+01 -0.71985884870E+03  0.80088595094E+03  0.25000000000E+03 0.  0.
<mgrwt>
<rscale>  0 0.70723177E+03</rscale>
<asrwt>0</asrwt>
<pdfrwt beam="1">  1        2 0.20875719E+00 0.70723177E+03</pdfrwt>
<pdfrwt beam="2">  1       -2 0.14177360E-01 0.70723177E+03</pdfrwt>
<totfact> 0.59733912E+02</totfact>
</mgrwt>
</event>
<event>
 4    1  0.6476857E-006  0.8181152E+03  0.7818608E-02  0.9534160E-01
          2   -1    0    0  501    0  0.00000000000E+00  0.00000000000E+00  0.34787096981E+03  0.34787096982E+03  0.25500000000E-02 0.  1.
         -2   -1    0    0    0  501 -0.00000000000E+00 -0.00000000000E+00 -0.48100627456E+03  0.48100627457E+03  0.25500000000E-02 0. -1.
   -5000001    1    1    2    0    0  0.94190560589E+02  0.27345394550E+03  0.80877501681E+02  0.39075579623E+03  0.25000000000E+03 0.  0.
    5000001    1    1    2    0    0 -0.94190560589E+02 -0.27345394550E+03 -0.21401280644E+03  0.43812144815E+03  0.25000000000E+03 0.  0.
<mgrwt>
<rscale>  0 0.81811520E+03</rscale>
<asrwt>0</asrwt>
<pdfrwt beam="1">  1        2 0.53518611E-01 0.81811520E+03</pdfrwt>
<pdfrwt beam="2">  1       -2 0.74000965E-01 0.81811520E+03</pdfrwt>
<totfact> 0.15414849E+02</totfact>
</mgrwt>
</event>
<event>
 4    1  0.6476857E-006  0.5762072E+03  0.7818608E-02  0.9956036E-01
          2   -1    0    0  501    0  0.00000000000E+00  0.00000000000E+00  0.20721321933E+04  0.20721321933E+04  0.25500000000E-02 0.  1.
         -2   -1    0    0    0  501 -0.00000000000E+00 -0.00000000000E+00 -0.40057132247E+02  0.40057132328E+02  0.25500000000E-02 0. -1.
   -5000001    1    1    2    0    0 -0.25686451350E+02 -0.12853834981E+03  0.80476690567E+03  0.85283742508E+03  0.25000000000E+03 0.  0.
    5000001    1    1    2    0    0  0.25686451350E+02  0.12853834981E+03  0.12273081554E+04  0.12593519006E+04  0.25000000000E+03 0.  0.
<mgrwt>
<rscale>  0 0.57620716E+03</rscale>
<asrwt>0</asrwt>
<pdfrwt beam="1">  1        2 0.31878952E+00 0.57620716E+03</pdfrwt>
<pdfrwt beam="2">  1       -2 0.61626366E-02 0.57620716E+03</pdfrwt>
<totfact> 0.94003403E+02</totfact>
</mgrwt>
</event>
<event>
 4    1  0.6476857E-006  0.6862796E+03  0.7818608E-02  0.9740988E-01
          2   -1    0    0  501    0  0.00000000000E+00  0.00000000000E+00  0.15475164730E+04  0.15475164730E+04  0.25500000000E-02 0.  1.
         -2   -1    0    0    0  501 -0.00000000000E+00 -0.00000000000E+00 -0.76086377257E+02  0.76086377300E+02  0.25500000000E-02 0. -1.
   -5000001    1    1    2    0    0 -0.97610847971E+02  0.11808742173E+03  0.31401489010E+03  0.42962526464E+03  0.25000000000E+03 0.  0.
    5000001    1    1    2    0    0  0.97610847971E+02 -0.11808742173E+03  0.11574152056E+04  0.11939775856E+04  0.25000000000E+03 0.  0.
<mgrwt>
<rscale>  0 0.68627960E+03</rscale>
<asrwt>0</asrwt>
<pdfrwt beam="1">  1        2 0.23807946E+00 0.68627960E+03</pdfrwt>
<pdfrwt beam="2">  1       -2 0.11705596E-01 0.68627960E+03</pdfrwt>
<totfact> 0.64333722E+02</totfact>
</mgrwt>
</event>
<event>
 4    1  0.6476857E-006  0.7881059E+03  0.7818608E-02  0.9577395E-01
          2   -1    0    0  501    0  0.00000000000E+00  0.00000000000E+00  0.81048874946E+03  0.81048874947E+03  0.25500000000E-02 0.  1.
         -2   -1    0    0    0  501 -0.00000000000E+00 -0.00000000000E+00 -0.19158528635E+03  0.19158528637E+03  0.25500000000E-02 0. -1.
   -5000001    1    1    2    0    0  0.24621313836E+03 -0.68927844956E+01  0.81611372880E+02  0.36031768783E+03  0.25000000000E+03 0.  0.
    5000001    1    1    2    0    0 -0.24621313836E+03  0.68927844956E+01  0.53729209024E+03  0.64175634801E+03  0.25000000000E+03 0.  0.
<mgrwt>
<rscale>  0 0.78810588E+03</rscale>
<asrwt>0</asrwt>
<pdfrwt beam="1">  1        2 0.12469057E+00 0.78810588E+03</pdfrwt>
<pdfrwt beam="2">  1       -2 0.29474660E-01 0.78810588E+03</pdfrwt>
<totfact> 0.36037593E+02</totfact>
</mgrwt>
</event>
<event>
 4    1  0.6476857E-006  0.5361905E+03  0.7818608E-02  0.1004742E+00
         -2   -1    0    0    0  501 -0.00000000000E+00  0.00000000000E+00  0.26458060531E+02  0.26458060654E+02  0.25500000000E-02 0. -1.
          2   -1    0    0  501    0  0.00000000000E+00 -0.00000000000E+00 -0.27165659148E+04  0.27165659148E+04  0.25500000000E-02 0.  1.
   -5000001    1    1    2    0    0  0.72686044271E+02  0.27343622418E+02 -0.10492171839E+04  0.10813822792E+04  0.25000000000E+03 0.  0.
    5000001    1    1    2    0    0 -0.72686044271E+02 -0.27343622418E+02 -0.16408906704E+04  0.16616416963E+04  0.25000000000E+03 0.  0.
<mgrwt>
<rscale>  0 0.53619051E+03</rscale>
<asrwt>0</asrwt>
<pdfrwt beam="1">  1        2 0.41793300E+00 0.53619051E+03</pdfrwt>
<pdfrwt beam="2">  1       -2 0.40704730E-02 0.53619051E+03</pdfrwt>
<totfact> 0.78507674E+02</totfact>
</mgrwt>
</event>
<event>
 4    1  0.6476857E-006  0.7533808E+03  0.7818608E-02  0.9630061E-01
         -2   -1    0    0    0  501 -0.00000000000E+00  0.00000000000E+00  0.11537316287E+04  0.11537316287E+04  0.25500000000E-02 0. -1.
          2   -1    0    0  501    0  0.00000000000E+00 -0.00000000000E+00 -0.12298845973E+03  0.12298845976E+03  0.25500000000E-02 0.  1.
   -5000001    1    1    2    0    0  0.23567381438E+03 -0.49845533530E+02  0.26764493603E+03  0.43836119329E+03  0.25000000000E+03 0.  0.
    5000001    1    1    2    0    0 -0.23567381438E+03  0.49845533530E+02  0.76309823297E+03  0.83835889520E+03  0.25000000000E+03 0.  0.
<mgrwt>
<rscale>  0 0.75338085E+03</rscale>
<asrwt>0</asrwt>
<pdfrwt beam="1">  1        2 0.18921302E-01 0.75338085E+03</pdfrwt>
<pdfrwt beam="2">  1       -2 0.17749717E+00 0.75338085E+03</pdfrwt>
<totfact> 0.58035944E+01</totfact>
</mgrwt>
</event>
<event>
 4    1  0.6476857E-006  0.8572391E+03  0.7818608E-02  0.9480672E-01
         -2   -1    0    0    0  501 -0.00000000000E+00  0.00000000000E+00  0.25676099371E+03  0.25676099373E+03  0.25500000000E-02 0. -1.
          2   -1    0    0  501    0  0.00000000000E+00 -0.00000000000E+00 -0.71550868953E+03  0.71550868954E+03  0.25500000000E-02 0.  1.
   -5000001    1    1    2    0    0  0.25651840066E+03  0.20308017739E+03 -0.94355659179E+02  0.42242897479E+03  0.25000000000E+03 0.  0.
    5000001    1    1    2    0    0 -0.25651840066E+03 -0.20308017739E+03 -0.36439203664E+03  0.54984070847E+03  0.25000000000E+03 0.  0.
<mgrwt>
<rscale>  0 0.85723911E+03</rscale>
<asrwt>0</asrwt>
<pdfrwt beam="1">  1        2 0.11007826E+00 0.85723911E+03</pdfrwt>
<pdfrwt beam="2">  1       -2 0.39501692E-01 0.85723911E+03</pdfrwt>
<totfact> 0.24246390E+02</totfact>
</mgrwt>
</event>
<event>
 4    1  0.6476857E-006  0.7626783E+03  0.7818608E-02  0.9615667E-01
          2   -1    0    0  501    0  0.00000000000E+00  0.00000000000E+00  0.45212348469E+03  0.45212348469E+03  0.25500000000E-02 0.  1.
         -2   -1    0    0    0  501 -0.00000000000E+00 -0.00000000000E+00 -0.32163680891E+03  0.32163680892E+03  0.25500000000E-02 0. -1.
   -5000001    1    1    2    0    0  0.23171854670E+03  0.14972424552E+03  0.14895727828E+03  0.40099763757E+03  0.25000000000E+03 0.  0.
    5000001    1    1    2    0    0 -0.23171854670E+03 -0.14972424552E+03 -0.18470602504E+02  0.37276265604E+03  0.25000000000E+03 0.  0.
<mgrwt>
<rscale>  0 0.76267832E+03</rscale>
<asrwt>0</asrwt>
<pdfrwt beam="1">  1        2 0.69557459E-01 0.76267832E+03</pdfrwt>
<pdfrwt beam="2">  1       -2 0.49482586E-01 0.76267832E+03</pdfrwt>
<totfact> 0.26954287E+02</totfact>
</mgrwt>
</event>
<event>
 4    1  0.6476857E-006  0.5519666E+03  0.7818608E-02  0.1001040E+00
          2   -1    0    0  501    0  0.00000000000E+00  0.00000000000E+00  0.13495471836E+03  0.13495471838E+03  0.25500000000E-02 0. -1.
         -2   -1    0    0    0  501 -0.00000000000E+00 -0.00000000000E+00 -0.56438763650E+03  0.56438763651E+03  0.25500000000E-02 0.  1.
   -5000001    1    1    2    0    0 -0.46336773494E+02 -0.94656209094E+02 -0.27882071456E+03  0.38903455549E+03  0.25000000000E+03 0.  0.
    5000001    1    1    2    0    0  0.46336773494E+02  0.94656209094E+02 -0.15061220359E+03  0.31030779940E+03  0.25000000000E+03 0.  0.
<mgrwt>
<rscale>  0 0.55196657E+03</rscale>
<asrwt>0</asrwt>
<pdfrwt beam="1">  1        2 0.20762265E-01 0.55196657E+03</pdfrwt>
<pdfrwt beam="2">  1       -2 0.86828866E-01 0.55196657E+03</pdfrwt>
<totfact> 0.31559649E+02</totfact>
</mgrwt>
</event>
<event>
 4    1  0.6476857E-006  0.6949367E+03  0.7818608E-02  0.9725931E-01
         -2   -1    0    0    0  501 -0.00000000000E+00  0.00000000000E+00  0.22302557234E+03  0.22302557236E+03  0.25500000000E-02 0. -1.
          2   -1    0    0  501    0  0.00000000000E+00 -0.00000000000E+00 -0.54134707768E+03  0.54134707769E+03  0.25500000000E-02 0.  1.
   -5000001    1    1    2    0    0 -0.17114820677E+03  0.11521370115E+03 -0.29684091052E+03  0.43952295932E+03  0.25000000000E+03 0.  0.
    5000001    1    1    2    0    0  0.17114820677E+03 -0.11521370115E+03 -0.21480594823E+02  0.32484969073E+03  0.25000000000E+03 0.  0.
<mgrwt>
<rscale>  0 0.69493666E+03</rscale>
<asrwt>0</asrwt>
<pdfrwt beam="1">  1        2 0.83284166E-01 0.69493666E+03</pdfrwt>
<pdfrwt beam="2">  1       -2 0.34311627E-01 0.69493666E+03</pdfrwt>
<totfact> 0.44947978E+02</totfact>
</mgrwt>
</event>
<event>
 4    1  0.6476857E-006  0.5779651E+03  0.7818608E-02  0.9952206E-01
          2   -1    0    0  501    0  0.00000000000E+00  0.00000000000E+00  0.10753115057E+03  0.10753115060E+03  0.25500000000E-02 0. -1.
         -2   -1    0    0    0  501 -0.00000000000E+00 -0.00000000000E+00 -0.77662069760E+03  0.77662069760E+03  0.25500000000E-02 0.  1.
   -5000001    1    1    2    0    0 -0.10407874800E+03 -0.90516538438E+02 -0.26638361561E+03  0.39049437919E+03  0.25000000000E+03 0.  0.
    5000001    1    1    2    0    0  0.10407874800E+03  0.90516538438E+02 -0.40270593141E+03  0.49365746901E+03  0.25000000000E+03 0.  0.
<mgrwt>
<rscale>  0 0.57796511E+03</rscale>
<asrwt>0</asrwt>
<pdfrwt beam="1">  1        2 0.16543254E-01 0.57796511E+03</pdfrwt>
<pdfrwt beam="2">  1       -2 0.11948010E+00 0.57796511E+03</pdfrwt>
<totfact> 0.19381179E+02</totfact>
</mgrwt>
</event>
<event>
 4    1  0.6476857E-006  0.1036235E+04  0.7818608E-02  0.9269673E-01
          2   -1    0    0  501    0  0.00000000000E+00  0.00000000000E+00  0.66576185069E+03  0.66576185069E+03  0.25500000000E-02 0.  1.
         -2   -1    0    0    0  501 -0.00000000000E+00 -0.00000000000E+00 -0.40321549406E+03  0.40321549407E+03  0.25500000000E-02 0. -1.
   -5000001    1    1    2    0    0 -0.43350440641E+03 -0.61151982821E+02  0.25454743535E+03  0.56476546656E+03  0.25000000000E+03 0.  0.
    5000001    1    1    2    0    0  0.43350440641E+03  0.61151982821E+02  0.79989212730E+01  0.50421187820E+03  0.25000000000E+03 0.  0.
<mgrwt>
<rscale>  0 0.10362345E+04</rscale>
<asrwt>0</asrwt>
<pdfrwt beam="1">  1        2 0.10242490E+00 0.10362345E+04</pdfrwt>
<pdfrwt beam="2">  1       -2 0.62033153E-01 0.10362345E+04</pdfrwt>
<totfact> 0.10499358E+02</totfact>
</mgrwt>
</event>
<event>
 4    1  0.6476857E-006  0.5629957E+03  0.7818608E-02  0.9985299E-01
         -2   -1    0    0    0  501 -0.00000000000E+00  0.00000000000E+00  0.60896119718E+02  0.60896119771E+02  0.25500000000E-02 0. -1.
          2   -1    0    0  501    0  0.00000000000E+00 -0.00000000000E+00 -0.13012495842E+04  0.13012495842E+04  0.25500000000E-02 0.  1.
   -5000001    1    1    2    0    0  0.11990494371E+03  0.25973620449E+02 -0.52073645240E+03  0.59052373140E+03  0.25000000000E+03 0.  0.
    5000001    1    1    2    0    0 -0.11990494371E+03 -0.25973620449E+02 -0.71961701209E+03  0.77162197259E+03  0.25000000000E+03 0.  0.
<mgrwt>
<rscale>  0 0.56299574E+03</rscale>
<asrwt>0</asrwt>
<pdfrwt beam="1">  1        2 0.20019222E+00 0.56299574E+03</pdfrwt>
<pdfrwt beam="2">  1       -2 0.93686348E-02 0.56299574E+03</pdfrwt>
<totfact> 0.12773816E+03</totfact>
</mgrwt>
</event>
<event>
 4    1  0.6476857E-006  0.6977613E+03  0.7818608E-02  0.9721068E-01
         -2   -1    0    0    0  501 -0.00000000000E+00  0.00000000000E+00  0.18111964532E+03  0.18111964533E+03  0.25500000000E-02 0. -1.
          2   -1    0    0  501    0  0.00000000000E+00 -0.00000000000E+00 -0.67202925811E+03  0.67202925811E+03  0.25500000000E-02 0.  1.
   -5000001    1    1    2    0    0  0.23967495588E+03 -0.28359479225E+02 -0.28352277468E+03  0.44847910576E+03  0.25000000000E+03 0.  0.
    5000001    1    1    2    0    0 -0.23967495588E+03  0.28359479225E+02 -0.20738683811E+03  0.40466979769E+03  0.25000000000E+03 0.  0.
<mgrwt>
<rscale>  0 0.69776128E+03</rscale>
<asrwt>0</asrwt>
<pdfrwt beam="1">  1        2 0.10338912E+00 0.69776128E+03</pdfrwt>
<pdfrwt beam="2">  1       -2 0.27864561E-01 0.69776128E+03</pdfrwt>
<totfact> 0.51014755E+02</totfact>
</mgrwt>
</event>
<event>
 4    1  0.6476857E-006  0.7675203E+03  0.7818608E-02  0.9608258E-01
         -2   -1    0    0    0  501 -0.00000000000E+00  0.00000000000E+00  0.30224427032E+03  0.30224427033E+03  0.25500000000E-02 0. -1.
          2   -1    0    0  501    0  0.00000000000E+00 -0.00000000000E+00 -0.48726103045E+03  0.48726103045E+03  0.25500000000E-02 0.  1.
   -5000001    1    1    2    0    0 -0.16591038612E+03 -0.23099451170E+03 -0.15664113997E+03  0.40978185342E+03  0.25000000000E+03 0.  0.
    5000001    1    1    2    0    0  0.16591038612E+03  0.23099451170E+03 -0.28375620160E+02  0.37972344737E+03  0.25000000000E+03 0.  0.
<mgrwt>
<rscale>  0 0.76752030E+03</rscale>
<asrwt>0</asrwt>
<pdfrwt beam="1">  1        2 0.74963236E-01 0.76752030E+03</pdfrwt>
<pdfrwt beam="2">  1       -2 0.46499118E-01 0.76752030E+03</pdfrwt>
<totfact> 0.28036372E+02</totfact>
</mgrwt>
</event>
<event>
 4    1  0.6476857E-006  0.7151455E+03  0.7818608E-02  0.9691676E-01
         -2   -1    0    0    0  501 -0.00000000000E+00  0.00000000000E+00  0.53311461085E+03  0.53311461086E+03  0.25500000000E-02 0. -1.
          2   -1    0    0  501    0  0.00000000000E+00 -0.00000000000E+00 -0.23983258937E+03  0.23983258939E+03  0.25500000000E-02 0.  1.
   -5000001    1    1    2    0    0 -0.10562972969E+03  0.22832680779E+03  0.19578572279E+03  0.40512074768E+03  0.25000000000E+03 0.  0.
    5000001    1    1    2    0    0  0.10562972969E+03 -0.22832680779E+03  0.97496298691E+02  0.36782645257E+03  0.25000000000E+03 0.  0.
<mgrwt>
<rscale>  0 0.71514546E+03</rscale>
<asrwt>0</asrwt>
<pdfrwt beam="1">  1        2 0.36897322E-01 0.71514546E+03</pdfrwt>
<pdfrwt beam="2">  1       -2 0.82017632E-01 0.71514546E+03</pdfrwt>
<totfact> 0.18600663E+02</totfact>
</mgrwt>
</event>
<event>
 4    1  0.6476857E-006  0.7008329E+03  0.7818608E-02  0.9715809E-01
         -2   -1    0    0    0  501 -0.00000000000E+00  0.00000000000E+00  0.64763328880E+02  0.64763328931E+02  0.25500000000E-02 0. -1.
          2   -1    0    0  501    0  0.00000000000E+00 -0.00000000000E+00 -0.18960066818E+04  0.18960066818E+04  0.25500000000E-02 0.  1.
   -5000001    1    1    2    0    0 -0.12289586420E+03  0.11680311745E+03 -0.14125340042E+04  0.14444717632E+04  0.25000000000E+03 0.  0.
    5000001    1    1    2    0    0  0.12289586420E+03 -0.11680311745E+03 -0.41870934868E+03  0.51629824749E+03  0.25000000000E+03 0.  0.
<mgrwt>
<rscale>  0 0.70083295E+03</rscale>
<asrwt>0</asrwt>
<pdfrwt beam="1">  1        2 0.29169329E+00 0.70083295E+03</pdfrwt>
<pdfrwt beam="2">  1       -2 0.99635905E-02 0.70083295E+03</pdfrwt>
<totfact> 0.53980919E+02</totfact>
</mgrwt>
</event>
<event>
 4    1  0.6476857E-006  0.7449311E+03  0.7818608E-02  0.9643336E-01
          2   -1    0    0  501    0  0.00000000000E+00  0.00000000000E+00  0.14854784859E+03  0.14854784862E+03  0.25500000000E-02 0.  1.
         -2   -1    0    0    0  501 -0.00000000000E+00 -0.00000000000E+00 -0.93391171358E+03  0.93391171358E+03  0.25500000000E-02 0. -1.
   -5000001    1    1    2    0    0 -0.11955233289E+03  0.13690003831E+03 -0.69468985641E+03  0.76034753725E+03  0.25000000000E+03 0.  0.
    5000001    1    1    2    0    0  0.11955233289E+03 -0.13690003831E+03 -0.90674008567E+02  0.32211202495E+03  0.25000000000E+03 0.  0.
<mgrwt>
<rscale>  0 0.74493107E+03</rscale>
<asrwt>0</asrwt>
<pdfrwt beam="1">  1        2 0.22853516E-01 0.74493107E+03</pdfrwt>
<pdfrwt beam="2">  1       -2 0.14367872E+00 0.74493107E+03</pdfrwt>
<totfact> 0.82469773E+01</totfact>
</mgrwt>
</event>
<event>
 4    1  0.6476857E-006  0.7658732E+03  0.7818608E-02  0.9610772E-01
         -2   -1    0    0    0  501 -0.00000000000E+00  0.00000000000E+00  0.19053833501E+03  0.19053833503E+03  0.25500000000E-02 0. -1.
          2   -1    0    0  501    0  0.00000000000E+00 -0.00000000000E+00 -0.76961120493E+03  0.76961120493E+03  0.25500000000E-02 0.  1.
   -5000001    1    1    2    0    0 -0.24691088369E+03  0.73951891462E+02 -0.12271600372E+03  0.37946420688E+03  0.25000000000E+03 0.  0.
    5000001    1    1    2    0    0  0.24691088369E+03 -0.73951891462E+02 -0.45635686619E+03  0.58068533308E+03  0.25000000000E+03 0.  0.
<mgrwt>
<rscale>  0 0.76587319E+03</rscale>
<asrwt>0</asrwt>
<pdfrwt beam="1">  1        2 0.11840172E+00 0.76587319E+03</pdfrwt>
<pdfrwt beam="2">  1       -2 0.29313591E-01 0.76587319E+03</pdfrwt>
<totfact> 0.39011660E+02</totfact>
</mgrwt>
</event>
<event>
 4    1  0.6476857E-006  0.5738474E+03  0.7818608E-02  0.9961201E-01
         -2   -1    0    0    0  501 -0.00000000000E+00  0.00000000000E+00  0.45245010734E+02  0.45245010806E+02  0.25500000000E-02 0. -1.
          2   -1    0    0  501    0  0.00000000000E+00 -0.00000000000E+00 -0.18195423769E+04  0.18195423769E+04  0.25500000000E-02 0.  1.
   -5000001    1    1    2    0    0 -0.13408010345E+03  0.17680215625E+02 -0.75982525010E+03  0.81124871332E+03  0.25000000000E+03 0.  0.
    5000001    1    1    2    0    0  0.13408010345E+03 -0.17680215625E+02 -0.10144721161E+04  0.10535386744E+04  0.25000000000E+03 0.  0.
<mgrwt>
<rscale>  0 0.57384742E+03</rscale>
<asrwt>0</asrwt>
<pdfrwt beam="1">  1        2 0.27992954E+00 0.57384742E+03</pdfrwt>
<pdfrwt beam="2">  1       -2 0.69607723E-02 0.57384742E+03</pdfrwt>
<totfact> 0.10630925E+03</totfact>
</mgrwt>
</event>
<event>
 4    1  0.6476857E-006  0.1143278E+04  0.7818608E-02  0.9164007E-01
          2   -1    0    0  501    0  0.00000000000E+00  0.00000000000E+00  0.55293212768E+03  0.55293212769E+03  0.25500000000E-02 0.  1.
         -2   -1    0    0    0  501 -0.00000000000E+00 -0.00000000000E+00 -0.59097868131E+03  0.59097868132E+03  0.25500000000E-02 0. -1.
   -5000001    1    1    2    0    0  0.38116099606E+03  0.91700113208E+02  0.31369423844E+03  0.56088919664E+03  0.25000000000E+03 0.  0.
    5000001    1    1    2    0    0 -0.38116099606E+03 -0.91700113208E+02 -0.35174079207E+03  0.58302161237E+03  0.25000000000E+03 0.  0.
<mgrwt>
<rscale>  0 0.11432779E+04</rscale>
<asrwt>0</asrwt>
<pdfrwt beam="1">  1        2 0.85066482E-01 0.11432779E+04</pdfrwt>
<pdfrwt beam="2">  1       -2 0.90919796E-01 0.11432779E+04</pdfrwt>
<totfact> 0.55945388E+01</totfact>
</mgrwt>
</event>
<event>
 4    1  0.6476857E-006  0.5521263E+03  0.7818608E-02  0.1001003E+00
          2   -1    0    0  501    0  0.00000000000E+00  0.00000000000E+00  0.12931330167E+04  0.12931330167E+04  0.25500000000E-02 0.  1.
         -2   -1    0    0    0  501 -0.00000000000E+00 -0.00000000000E+00 -0.58935043815E+02  0.58935043870E+02  0.25500000000E-02 0. -1.
   -5000001    1    1    2    0    0  0.13438579332E+02 -0.11376927340E+03  0.67641994836E+03  0.73018353140E+03  0.25000000000E+03 0.  0.
    5000001    1    1    2    0    0 -0.13438579332E+02  0.11376927340E+03  0.55777802451E+03  0.62188452916E+03  0.25000000000E+03 0.  0.
<mgrwt>
<rscale>  0 0.55212626E+03</rscale>
<asrwt>0</asrwt>
<pdfrwt beam="1">  1        2 0.19894351E+00 0.55212626E+03</pdfrwt>
<pdfrwt beam="2">  1       -2 0.90669312E-02 0.55212626E+03</pdfrwt>
<totfact> 0.13613826E+03</totfact>
</mgrwt>
</event>
<event>
 4    1  0.6476857E-006  0.5733132E+03  0.7818608E-02  0.9962374E-01
         -2   -1    0    0    0  501 -0.00000000000E+00  0.00000000000E+00  0.55199221457E+02  0.55199221515E+02  0.25500000000E-02 0. -1.
          2   -1    0    0  501    0  0.00000000000E+00 -0.00000000000E+00 -0.14886441604E+04  0.14886441604E+04  0.25500000000E-02 0.  1.
   -5000001    1    1    2    0    0 -0.79749729435E+02 -0.10017027371E+03 -0.56254927141E+03  0.62877323881E+03  0.25000000000E+03 0.  0.
    5000001    1    1    2    0    0  0.79749729435E+02  0.10017027371E+03 -0.87089566755E+03  0.91507014312E+03  0.25000000000E+03 0.  0.
<mgrwt>
<rscale>  0 0.57331317E+03</rscale>
<asrwt>0</asrwt>
<pdfrwt beam="1">  1        2 0.22902215E+00 0.57331317E+03</pdfrwt>
<pdfrwt beam="2">  1       -2 0.84921890E-02 0.57331317E+03</pdfrwt>
<totfact> 0.11737222E+03</totfact>
</mgrwt>
</event>
<event>
 4    1  0.6476857E-006  0.6249999E+03  0.7818608E-02  0.9854855E-01
         -2   -1    0    0    0  501 -0.00000000000E+00  0.00000000000E+00  0.99168787708E+03  0.99168787708E+03  0.25500000000E-02 0. -1.
          2   -1    0    0  501    0  0.00000000000E+00 -0.00000000000E+00 -0.98474741647E+02  0.98474741680E+02  0.25500000000E-02 0.  1.
   -5000001    1    1    2    0    0  0.13461664312E+03 -0.19700172037E+02  0.67165316003E+03  0.72947083887E+03  0.25000000000E+03 0.  0.
    5000001    1    1    2    0    0 -0.13461664312E+03  0.19700172037E+02  0.22155997541E+03  0.36069177990E+03  0.25000000000E+03 0.  0.
<mgrwt>
<rscale>  0 0.62499986E+03</rscale>
<asrwt>0</asrwt>
<pdfrwt beam="1">  1        2 0.15149960E-01 0.62499986E+03</pdfrwt>
<pdfrwt beam="2">  1       -2 0.15256736E+00 0.62499986E+03</pdfrwt>
<totfact> 0.11530791E+02</totfact>
</mgrwt>
</event>
<event>
 4    1  0.6476857E-006  0.1395655E+04  0.7818608E-02  0.8956970E-01
         -2   -1    0    0    0  501 -0.00000000000E+00  0.00000000000E+00  0.13399862453E+03  0.13399862456E+03  0.25500000000E-02 0. -1.
          2   -1    0    0  501    0  0.00000000000E+00 -0.00000000000E+00 -0.36340890119E+04  0.36340890119E+04  0.25500000000E-02 0.  1.
   -5000001    1    1    2    0    0  0.22086445350E+03 -0.60783291289E+03 -0.15370978727E+04  0.16862419242E+04  0.25000000000E+03 0.  0.
    5000001    1    1    2    0    0 -0.22086445350E+03  0.60783291289E+03 -0.19629925146E+04  0.20818457122E+04  0.25000000000E+03 0.  0.
<mgrwt>
<rscale>  0 0.13956546E+04</rscale>
<asrwt>0</asrwt>
<pdfrwt beam="1">  1        2 0.55909054E+00 0.13956546E+04</pdfrwt>
<pdfrwt beam="2">  1       -2 0.20615176E-01 0.13956546E+04</pdfrwt>
<totfact> 0.13130152E+01</totfact>
</mgrwt>
</event>
<event>
 4    1  0.6476857E-006  0.8111987E+03  0.7818608E-02  0.9543947E-01
          2   -1    0    0  501    0  0.00000000000E+00  0.00000000000E+00  0.54361842106E+03  0.54361842107E+03  0.25500000000E-02 0.  1.
         -2   -1    0    0    0  501 -0.00000000000E+00 -0.00000000000E+00 -0.30262191345E+03  0.30262191346E+03  0.25500000000E-02 0. -1.
   -5000001    1    1    2    0    0 -0.16621041317E+03  0.27156137366E+03  0.94120299523E+02  0.41560812299E+03  0.25000000000E+03 0.  0.
    5000001    1    1    2    0    0  0.16621041317E+03 -0.27156137366E+03  0.14687620809E+03  0.43063221154E+03  0.25000000000E+03 0.  0.
<mgrwt>
<rscale>  0 0.81119873E+03</rscale>
<asrwt>0</asrwt>
<pdfrwt beam="1">  1        2 0.83633604E-01 0.81119873E+03</pdfrwt>
<pdfrwt beam="2">  1       -2 0.46557217E-01 0.81119873E+03</pdfrwt>
<totfact> 0.24570037E+02</totfact>
</mgrwt>
</event>
<event>
 4    1  0.6476857E-006  0.1152973E+04  0.7818608E-02  0.9155045E-01
         -2   -1    0    0    0  501 -0.00000000000E+00  0.00000000000E+00  0.31251473193E+03  0.31251473194E+03  0.25500000000E-02 0. -1.
          2   -1    0    0  501    0  0.00000000000E+00 -0.00000000000E+00 -0.10634271525E+04  0.10634271525E+04  0.25500000000E-02 0.  1.
   -5000001    1    1    2    0    0 -0.18913161406E+03 -0.47609677501E+03 -0.47809952076E+03  0.74398794235E+03  0.25000000000E+03 0.  0.
    5000001    1    1    2    0    0  0.18913161406E+03  0.47609677501E+03 -0.27281289979E+03  0.63195394207E+03  0.25000000000E+03 0.  0.
<mgrwt>
<rscale>  0 0.11529729E+04</rscale>
<asrwt>0</asrwt>
<pdfrwt beam="1">  1        2 0.16360418E+00 0.11529729E+04</pdfrwt>
<pdfrwt beam="2">  1       -2 0.48079190E-01 0.11529729E+04</pdfrwt>
<totfact> 0.93091189E+01</totfact>
</mgrwt>
</event>
<event>
 4    1  0.6476857E-006  0.8411185E+03  0.7818608E-02  0.9502336E-01
          2   -1    0    0  501    0  0.00000000000E+00  0.00000000000E+00  0.58821632439E+03  0.58821632440E+03  0.25500000000E-02 0.  1.
         -2   -1    0    0    0  501 -0.00000000000E+00 -0.00000000000E+00 -0.30068880696E+03  0.30068880697E+03  0.25500000000E-02 0. -1.
   -5000001    1    1    2    0    0 -0.20915562618E+03 -0.18573451028E+03  0.34463246365E+03  0.50942606850E+03  0.25000000000E+03 0.  0.
    5000001    1    1    2    0    0  0.20915562618E+03  0.18573451028E+03 -0.57104946222E+02  0.37947906286E+03  0.25000000000E+03 0.  0.
<mgrwt>
<rscale>  0 0.84111846E+03</rscale>
<asrwt>0</asrwt>
<pdfrwt beam="1">  1        2 0.90494819E-01 0.84111846E+03</pdfrwt>
<pdfrwt beam="2">  1       -2 0.46259817E-01 0.84111846E+03</pdfrwt>
<totfact> 0.22627944E+02</totfact>
</mgrwt>
</event>
<event>
 4    1  0.6476857E-006  0.9698039E+03  0.7818608E-02  0.9342298E-01
          2   -1    0    0  501    0  0.00000000000E+00  0.00000000000E+00  0.31576916542E+03  0.31576916543E+03  0.25500000000E-02 0.  1.
         -2   -1    0    0    0  501 -0.00000000000E+00 -0.00000000000E+00 -0.74462593718E+03  0.74462593719E+03  0.25500000000E-02 0. -1.
   -5000001    1    1    2    0    0  0.39778661592E+03  0.42653307255E+02 -0.33704863560E+03  0.57978899540E+03  0.25000000000E+03 0.  0.
    5000001    1    1    2    0    0 -0.39778661592E+03 -0.42653307255E+02 -0.91808136159E+02  0.48060610721E+03  0.25000000000E+03 0.  0.
<mgrwt>
<rscale>  0 0.96980392E+03</rscale>
<asrwt>0</asrwt>
<pdfrwt beam="1">  1        2 0.48579872E-01 0.96980392E+03</pdfrwt>
<pdfrwt beam="2">  1       -2 0.11455784E+00 0.96980392E+03</pdfrwt>
<totfact> 0.61697665E+01</totfact>
</mgrwt>
</event>
<event>
 4    1  0.6476857E-006  0.9834895E+03  0.7818608E-02  0.9326841E-01
          2   -1    0    0  501    0  0.00000000000E+00  0.00000000000E+00  0.41439826093E+04  0.41439826093E+04  0.25500000000E-02 0.  1.
         -2   -1    0    0    0  501 -0.00000000000E+00 -0.00000000000E+00 -0.58352777146E+02  0.58352777201E+02  0.25500000000E-02 0. -1.
   -5000001    1    1    2    0    0  0.31236854861E+03  0.27866469486E+03  0.23159043335E+04  0.23666729821E+04  0.25000000000E+03 0.  0.
    5000001    1    1    2    0    0 -0.31236854861E+03 -0.27866469486E+03  0.17697254987E+04  0.18356624044E+04  0.25000000000E+03 0.  0.
<mgrwt>
<rscale>  0 0.98348949E+03</rscale>
<asrwt>0</asrwt>
<pdfrwt beam="1">  1        2 0.63753572E+00 0.98348949E+03</pdfrwt>
<pdfrwt beam="2">  1       -2 0.89773512E-02 0.98348949E+03</pdfrwt>
<totfact> 0.22699710E+01</totfact>
</mgrwt>
</event>
<event>
 4    1  0.6476857E-006  0.6384809E+03  0.7818608E-02  0.9828637E-01
          2   -1    0    0  501    0  0.00000000000E+00  0.00000000000E+00  0.46435089650E+03  0.46435089650E+03  0.25500000000E-02 0.  1.
         -2   -1    0    0    0  501 -0.00000000000E+00 -0.00000000000E+00 -0.21947724658E+03  0.21947724660E+03  0.25500000000E-02 0. -1.
   -5000001    1    1    2    0    0 -0.12045778924E+03  0.70598991554E+02 -0.28726169319E+02  0.28778375458E+03  0.25000000000E+03 0.  0.
    5000001    1    1    2    0    0  0.12045778924E+03 -0.70598991554E+02  0.27359981923E+03  0.39604438852E+03  0.25000000000E+03 0.  0.
<mgrwt>
<rscale>  0 0.63848087E+03</rscale>
<asrwt>0</asrwt>
<pdfrwt beam="1">  1        2 0.71438599E-01 0.63848087E+03</pdfrwt>
<pdfrwt beam="2">  1       -2 0.33765731E-01 0.63848087E+03</pdfrwt>
<totfact> 0.55415974E+02</totfact>
</mgrwt>
</event>
<event>
 4    1  0.6476857E-006  0.8368969E+03  0.7818608E-02  0.9508094E-01
          2   -1    0    0  501    0  0.00000000000E+00  0.00000000000E+00  0.13033038246E+04  0.13033038246E+04  0.25500000000E-02 0.  1.
         -2   -1    0    0    0  501 -0.00000000000E+00 -0.00000000000E+00 -0.13435018668E+03  0.13435018671E+03  0.25500000000E-02 0. -1.
   -5000001    1    1    2    0    0  0.31122366810E+03  0.12544399862E+03  0.58163133018E+03  0.71651334434E+03  0.25000000000E+03 0.  0.
    5000001    1    1    2    0    0 -0.31122366810E+03 -0.12544399862E+03  0.58732230770E+03  0.72114066693E+03  0.25000000000E+03 0.  0.
<mgrwt>
<rscale>  0 0.83689692E+03</rscale>
<asrwt>0</asrwt>
<pdfrwt beam="1">  1        2 0.20050827E+00 0.83689692E+03</pdfrwt>
<pdfrwt beam="2">  1       -2 0.20669261E-01 0.83689692E+03</pdfrwt>
<totfact> 0.33323511E+02</totfact>
</mgrwt>
</event>
<event>
 4    1  0.6476857E-006  0.6159492E+03  0.7818608E-02  0.9872858E-01
          2   -1    0    0  501    0  0.00000000000E+00  0.00000000000E+00  0.77632073031E+03  0.77632073031E+03  0.25500000000E-02 0.  1.
         -2   -1    0    0    0  501 -0.00000000000E+00 -0.00000000000E+00 -0.12217677372E+03  0.12217677374E+03  0.25500000000E-02 0. -1.
   -5000001    1    1    2    0    0  0.53388778768E+02  0.13221959356E+03  0.16717084113E+03  0.33283400179E+03  0.25000000000E+03 0.  0.
    5000001    1    1    2    0    0 -0.53388778768E+02 -0.13221959356E+03  0.48697311546E+03  0.56566350227E+03  0.25000000000E+03 0.  0.
<mgrwt>
<rscale>  0 0.61594923E+03</rscale>
<asrwt>0</asrwt>
<pdfrwt beam="1">  1        2 0.11943396E+00 0.61594923E+03</pdfrwt>
<pdfrwt beam="2">  1       -2 0.18796426E-01 0.61594923E+03</pdfrwt>
<totfact> 0.85729222E+02</totfact>
</mgrwt>
</event>
<event>
 4    1  0.6476857E-006  0.5817817E+03  0.7818608E-02  0.9943941E-01
         -2   -1    0    0    0  501 -0.00000000000E+00  0.00000000000E+00  0.36488138656E+02  0.36488138746E+02  0.25500000000E-02 0. -1.
          2   -1    0    0  501    0  0.00000000000E+00 -0.00000000000E+00 -0.23190409891E+04  0.23190409891E+04  0.25500000000E-02 0.  1.
   -5000001    1    1    2    0    0 -0.12790528367E+02 -0.14789260583E+03 -0.11778659257E+04  0.12132204909E+04  0.25000000000E+03 0.  0.
    5000001    1    1    2    0    0  0.12790528367E+02  0.14789260583E+03 -0.11046869247E+04  0.11423086370E+04  0.25000000000E+03 0.  0.
<mgrwt>
<rscale>  0 0.58178171E+03</rscale>
<asrwt>0</asrwt>
<pdfrwt beam="1">  1        2 0.35677542E+00 0.58178171E+03</pdfrwt>
<pdfrwt beam="2">  1       -2 0.56135616E-02 0.58178171E+03</pdfrwt>
<totfact> 0.79677178E+02</totfact>
</mgrwt>
</event>
<event>
 4    1  0.6476857E-006  0.6776830E+03  0.7818608E-02  0.9756177E-01
         -2   -1    0    0    0  501 -0.00000000000E+00  0.00000000000E+00  0.80861741403E+02  0.80861741443E+02  0.25500000000E-02 0. -1.
          2   -1    0    0  501    0  0.00000000000E+00 -0.00000000000E+00 -0.14198749882E+04  0.14198749882E+04  0.25500000000E-02 0.  1.
   -5000001    1    1    2    0    0 -0.91322826561E+02  0.18623041168E+03 -0.45603945080E+03  0.55990499692E+03  0.25000000000E+03 0.  0.
    5000001    1    1    2    0    0  0.91322826561E+02 -0.18623041168E+03 -0.88297379596E+03  0.94083173269E+03  0.25000000000E+03 0.  0.
<mgrwt>
<rscale>  0 0.67768301E+03</rscale>
<asrwt>0</asrwt>
<pdfrwt beam="1">  1        2 0.21844229E+00 0.67768301E+03</pdfrwt>
<pdfrwt beam="2">  1       -2 0.12440269E-01 0.67768301E+03</pdfrwt>
<totfact> 0.68546358E+02</totfact>
</mgrwt>
</event>
<event>
 4    1  0.6476857E-006  0.6304978E+03  0.7818608E-02  0.9844078E-01
         -2   -1    0    0    0  501 -0.00000000000E+00  0.00000000000E+00  0.13651013474E+03  0.13651013477E+03  0.25500000000E-02 0. -1.
          2   -1    0    0  501    0  0.00000000000E+00 -0.00000000000E+00 -0.72801833300E+03  0.72801833301E+03  0.25500000000E-02 0.  1.
   -5000001    1    1    2    0    0 -0.12328778430E+03 -0.59492012444E+02 -0.48044550969E+03  0.55862963140E+03  0.25000000000E+03 0.  0.
    5000001    1    1    2    0    0  0.12328778430E+03  0.59492012444E+02 -0.11106268857E+03  0.30589883637E+03  0.25000000000E+03 0.  0.
<mgrwt>
<rscale>  0 0.63049784E+03</rscale>
<asrwt>0</asrwt>
<pdfrwt beam="1">  1        2 0.11200282E+00 0.63049784E+03</pdfrwt>
<pdfrwt beam="2">  1       -2 0.21001560E-01 0.63049784E+03</pdfrwt>
<totfact> 0.76716949E+02</totfact>
</mgrwt>
</event>
<event>
 4    1  0.6476857E-006  0.6008202E+03  0.7818608E-02  0.9903706E-01
          2   -1    0    0  501    0  0.00000000000E+00  0.00000000000E+00  0.12901728728E+04  0.12901728728E+04  0.25500000000E-02 0.  1.
         -2   -1    0    0    0  501 -0.00000000000E+00 -0.00000000000E+00 -0.69948934129E+02  0.69948934175E+02  0.25500000000E-02 0. -1.
   -5000001    1    1    2    0    0 -0.12012366176E+03 -0.63743671100E+02  0.39235058665E+03  0.48469777446E+03  0.25000000000E+03 0.  0.
    5000001    1    1    2    0    0  0.12012366176E+03  0.63743671100E+02  0.82787335199E+03  0.87542403249E+03  0.25000000000E+03 0.  0.
<mgrwt>
<rscale>  0 0.60082016E+03</rscale>
<asrwt>0</asrwt>
<pdfrwt beam="1">  1        2 0.19848813E+00 0.60082016E+03</pdfrwt>
<pdfrwt beam="2">  1       -2 0.10761375E-01 0.60082016E+03</pdfrwt>
<totfact> 0.10339214E+03</totfact>
</mgrwt>
</event>
<event>
 4    1  0.6476857E-006  0.2205809E+04  0.7818608E-02  0.8516014E-01
          2   -1    0    0  501    0  0.00000000000E+00  0.00000000000E+00  0.10234313151E+04  0.10234313151E+04  0.25500000000E-02 0. -1.
         -2   -1    0    0    0  501 -0.00000000000E+00 -0.00000000000E+00 -0.11885487583E+04  0.11885487583E+04  0.25500000000E-02 0.  1.
   -5000001    1    1    2    0    0 -0.63066834457E+03  0.50126723544E-01  0.78944614252E+03  0.10408975816E+04  0.25000000000E+03 0.  0.
    5000001    1    1    2    0    0  0.63066834457E+03 -0.50126723544E-01 -0.95456358571E+03  0.11710824918E+04  0.25000000000E+03 0.  0.
<mgrwt>
<rscale>  0 0.22058087E+04</rscale>
<asrwt>0</asrwt>
<pdfrwt beam="1">  1        2 0.15745097E+00 0.22058087E+04</pdfrwt>
<pdfrwt beam="2">  1       -2 0.18285365E+00 0.22058087E+04</pdfrwt>
<totfact> 0.38520811E+00</totfact>
</mgrwt>
</event>
<event>
 4    1  0.6476857E-006  0.6923483E+03  0.7818608E-02  0.9730408E-01
          2   -1    0    0  501    0  0.00000000000E+00  0.00000000000E+00  0.15313938379E+04  0.15313938379E+04  0.25500000000E-02 0.  1.
         -2   -1    0    0    0  501 -0.00000000000E+00 -0.00000000000E+00 -0.78253257515E+02  0.78253257557E+02  0.25500000000E-02 0. -1.
   -5000001    1    1    2    0    0 -0.12392464902E+03 -0.20147935331E+03  0.81310277550E+03  0.88294245111E+03  0.25000000000E+03 0.  0.
    5000001    1    1    2    0    0  0.12392464902E+03  0.20147935331E+03  0.64003780491E+03  0.72670464438E+03  0.25000000000E+03 0.  0.
<mgrwt>
<rscale>  0 0.69234834E+03</rscale>
<asrwt>0</asrwt>
<pdfrwt beam="1">  1        2 0.23559903E+00 0.69234834E+03</pdfrwt>
<pdfrwt beam="2">  1       -2 0.12038964E-01 0.69234834E+03</pdfrwt>
<totfact> 0.62673819E+02</totfact>
</mgrwt>
</event>
<event>
 4    1  0.6476857E-006  0.6503145E+03  0.7818608E-02  0.9806189E-01
          2   -1    0    0  501    0  0.00000000000E+00  0.00000000000E+00  0.47746150066E+03  0.47746150066E+03  0.25500000000E-02 0.  1.
         -2   -1    0    0    0  501 -0.00000000000E+00 -0.00000000000E+00 -0.22143611882E+03  0.22143611883E+03  0.25500000000E-02 0. -1.
   -5000001    1    1    2    0    0  0.13773175810E+03 -0.14274939339E+03  0.61071327930E+02  0.32492635103E+03  0.25000000000E+03 0.  0.
    5000001    1    1    2    0    0 -0.13773175810E+03  0.14274939339E+03  0.19495405391E+03  0.37397126846E+03  0.25000000000E+03 0.  0.
<mgrwt>
<rscale>  0 0.65031445E+03</rscale>
<asrwt>0</asrwt>
<pdfrwt beam="1">  1        2 0.73455614E-01 0.65031445E+03</pdfrwt>
<pdfrwt beam="2">  1       -2 0.34067096E-01 0.65031445E+03</pdfrwt>
<totfact> 0.52770957E+02</totfact>
</mgrwt>
</event>
<event>
 4    1  0.6476857E-006  0.7078567E+03  0.7818608E-02  0.9703890E-01
          2   -1    0    0  501    0  0.00000000000E+00  0.00000000000E+00  0.14621785995E+04  0.14621785995E+04  0.25500000000E-02 0. -1.
         -2   -1    0    0    0  501 -0.00000000000E+00 -0.00000000000E+00 -0.85670288894E+02  0.85670288932E+02  0.25500000000E-02 0.  1.
   -5000001    1    1    2    0    0  0.15164477584E+03 -0.19111317189E+03  0.81281530090E+03  0.88469717751E+03  0.25000000000E+03 0.  0.
    5000001    1    1    2    0    0 -0.15164477584E+03  0.19111317189E+03  0.56369300968E+03  0.66315171090E+03  0.25000000000E+03 0.  0.
<mgrwt>
<rscale>  0 0.70785666E+03</rscale>
<asrwt>0</asrwt>
<pdfrwt beam="1">  1        2 0.22495056E+00 0.70785666E+03</pdfrwt>
<pdfrwt beam="2">  1       -2 0.13180044E-01 0.70785666E+03</pdfrwt>
<totfact> 0.58875291E+02</totfact>
</mgrwt>
</event>
<event>
 4    1  0.6476857E-006  0.1059154E+04  0.7818608E-02  0.9245944E-01
          2   -1    0    0  501    0  0.00000000000E+00  0.00000000000E+00  0.51411050818E+03  0.51411050819E+03  0.25500000000E-02 0.  1.
         -2   -1    0    0    0  501 -0.00000000000E+00 -0.00000000000E+00 -0.54550897508E+03  0.54550897509E+03  0.25500000000E-02 0. -1.
   -5000001    1    1    2    0    0 -0.42082144409E+03  0.19914027123E+03  0.19019916653E+02  0.52878094960E+03  0.25000000000E+03 0.  0.
    5000001    1    1    2    0    0  0.42082144409E+03 -0.19914027123E+03 -0.50418383554E+02  0.53083853368E+03  0.25000000000E+03 0.  0.
<mgrwt>
<rscale>  0 0.10591542E+04</rscale>
<asrwt>0</asrwt>
<pdfrwt beam="1">  1        2 0.79093924E-01 0.10591542E+04</pdfrwt>
<pdfrwt beam="2">  1       -2 0.83924458E-01 0.10591542E+04</pdfrwt>
<totfact> 0.73628704E+01</totfact>
</mgrwt>
</event>
<event>
 4    1  0.6476857E-006  0.7316005E+03  0.7818608E-02  0.9664667E-01
          2   -1    0    0  501    0  0.00000000000E+00  0.00000000000E+00  0.19194068674E+03  0.19194068675E+03  0.25500000000E-02 0.  1.
         -2   -1    0    0    0  501 -0.00000000000E+00 -0.00000000000E+00 -0.69714155378E+03  0.69714155378E+03  0.25500000000E-02 0. -1.
   -5000001    1    1    2    0    0 -0.20452529327E+03  0.12553580313E+03 -0.11025455039E+03  0.36365629286E+03  0.25000000000E+03 0.  0.
    5000001    1    1    2    0    0  0.20452529327E+03 -0.12553580313E+03 -0.39494631665E+03  0.52542594767E+03  0.25000000000E+03 0.  0.
<mgrwt>
<rscale>  0 0.73160052E+03</rscale>
<asrwt>0</asrwt>
<pdfrwt beam="1">  1        2 0.29529337E-01 0.73160052E+03</pdfrwt>
<pdfrwt beam="2">  1       -2 0.10725255E+00 0.73160052E+03</pdfrwt>
<totfact> 0.12776948E+02</totfact>
</mgrwt>
</event>
<event>
 4    1  0.6476857E-006  0.6938552E+03  0.7818608E-02  0.9727799E-01
         -2   -1    0    0    0  501 -0.00000000000E+00  0.00000000000E+00  0.28173668827E+03  0.28173668828E+03  0.25500000000E-02 0. -1.
          2   -1    0    0  501    0  0.00000000000E+00 -0.00000000000E+00 -0.42720298407E+03  0.42720298407E+03  0.25500000000E-02 0.  1.
   -5000001    1    1    2    0    0  0.12803012676E+02  0.12704598968E+03  0.13554689671E+03  0.31173315806E+03  0.25000000000E+03 0.  0.
    5000001    1    1    2    0    0 -0.12803012676E+02 -0.12704598968E+03 -0.28101319251E+03  0.39720651429E+03  0.25000000000E+03 0.  0.
<mgrwt>
<rscale>  0 0.69385518E+03</rscale>
<asrwt>0</asrwt>
<pdfrwt beam="1">  1        2 0.65723536E-01 0.69385518E+03</pdfrwt>
<pdfrwt beam="2">  1       -2 0.43344106E-01 0.69385518E+03</pdfrwt>
<totfact> 0.37565929E+02</totfact>
</mgrwt>
</event>
<event>
 4    1  0.6476857E-006  0.7155255E+03  0.7818608E-02  0.9691044E-01
         -2   -1    0    0    0  501 -0.00000000000E+00  0.00000000000E+00  0.30488306491E+03  0.30488306492E+03  0.25500000000E-02 0. -1.
          2   -1    0    0  501    0  0.00000000000E+00 -0.00000000000E+00 -0.41981398797E+03  0.41981398798E+03  0.25500000000E-02 0.  1.
   -5000001    1    1    2    0    0  0.15929535549E+03  0.19015519993E+03  0.62710129744E+01  0.35224045189E+03  0.25000000000E+03 0.  0.
    5000001    1    1    2    0    0 -0.15929535549E+03 -0.19015519993E+03 -0.12120193603E+03  0.37245660102E+03  0.25000000000E+03 0.  0.
<mgrwt>
<rscale>  0 0.71552547E+03</rscale>
<asrwt>0</asrwt>
<pdfrwt beam="1">  1        2 0.64586768E-01 0.71552547E+03</pdfrwt>
<pdfrwt beam="2">  1       -2 0.46905087E-01 0.71552547E+03</pdfrwt>
<totfact> 0.32718025E+02</totfact>
</mgrwt>
</event>
<event>
 4    1  0.6476857E-006  0.1146017E+04  0.7818608E-02  0.9161466E-01
         -2   -1    0    0    0  501 -0.00000000000E+00  0.00000000000E+00  0.32133727827E+03  0.32133727828E+03  0.25500000000E-02 0. -1.
          2   -1    0    0  501    0  0.00000000000E+00 -0.00000000000E+00 -0.10217882672E+04  0.10217882672E+04  0.25500000000E-02 0.  1.
   -5000001    1    1    2    0    0 -0.20048936785E+03  0.36535982220E+03  0.55571495272E+01  0.48601920560E+03  0.25000000000E+03 0.  0.
    5000001    1    1    2    0    0  0.20048936785E+03 -0.36535982220E+03 -0.70600813842E+03  0.85710633986E+03  0.25000000000E+03 0.  0.
<mgrwt>
<rscale>  0 0.11460169E+04</rscale>
<asrwt>0</asrwt>
<pdfrwt beam="1">  1        2 0.15719819E+00 0.11460169E+04</pdfrwt>
<pdfrwt beam="2">  1       -2 0.49436505E-01 0.11460169E+04</pdfrwt>
<totfact> 0.93509801E+01</totfact>
</mgrwt>
</event>
<event>
 4    1  0.6476857E-006  0.5542282E+03  0.7818608E-02  0.1000520E+00
         -2   -1    0    0    0  501 -0.00000000000E+00  0.00000000000E+00  0.54172239698E+02  0.54172239758E+02  0.25500000000E-02 0.  1.
          2   -1    0    0  501    0  0.00000000000E+00 -0.00000000000E+00 -0.14175567381E+04  0.14175567381E+04  0.25500000000E-02 0. -1.
   -5000001    1    1    2    0    0 -0.99952757172E+02  0.25508242155E+02 -0.52124026102E+03  0.58722451736E+03  0.25000000000E+03 0.  0.
    5000001    1    1    2    0    0  0.99952757172E+02 -0.25508242155E+02 -0.84214423737E+03  0.88450446049E+03  0.25000000000E+03 0.  0.
<mgrwt>
<rscale>  0 0.55422820E+03</rscale>
<asrwt>0</asrwt>
<pdfrwt beam="1">  1        2 0.21808562E+00 0.55422820E+03</pdfrwt>
<pdfrwt beam="2">  1       -2 0.83341918E-02 0.55422820E+03</pdfrwt>
<totfact> 0.13254893E+03</totfact>
</mgrwt>
</event>
<event>
 4    1  0.6476857E-006  0.8029131E+03  0.7818608E-02  0.9555810E-01
         -2   -1    0    0    0  501 -0.00000000000E+00  0.00000000000E+00  0.49033543927E+02  0.49033543994E+02  0.25500000000E-02 0.  1.
          2   -1    0    0  501    0  0.00000000000E+00 -0.00000000000E+00 -0.32868799007E+04  0.32868799007E+04  0.25500000000E-02 0. -1.
   -5000001    1    1    2    0    0 -0.16034412662E+03  0.13794647650E+03 -0.25837580153E+04  0.26044279508E+04  0.25000000000E+03 0.  0.
    5000001    1    1    2    0    0  0.16034412662E+03 -0.13794647650E+03 -0.65408834150E+03  0.73148549392E+03  0.25000000000E+03 0.  0.
<mgrwt>
<rscale>  0 0.80291312E+03</rscale>
<asrwt>0</asrwt>
<pdfrwt beam="1">  1        2 0.50567366E+00 0.80291312E+03</pdfrwt>
<pdfrwt beam="2">  1       -2 0.75436247E-02 0.80291312E+03</pdfrwt>
<totfact> 0.13017503E+02</totfact>
</mgrwt>
</event>
<event>
 4    1  0.6476857E-006  0.1043806E+04  0.7818608E-02  0.9261763E-01
         -2   -1    0    0    0  501 -0.00000000000E+00  0.00000000000E+00  0.22174001792E+03  0.22174001793E+03  0.25500000000E-02 0. -1.
          2   -1    0    0  501    0  0.00000000000E+00 -0.00000000000E+00 -0.12283872277E+04  0.12283872277E+04  0.25500000000E-02 0.  1.
   -5000001    1    1    2    0    0 -0.10642891250E+03 -0.42614395090E+03 -0.32241521513E+03  0.59948090150E+03  0.25000000000E+03 0.  0.
    5000001    1    1    2    0    0  0.10642891250E+03  0.42614395090E+03 -0.68423199469E+03  0.85064634418E+03  0.25000000000E+03 0.  0.
<mgrwt>
<rscale>  0 0.10438057E+04</rscale>
<asrwt>0</asrwt>
<pdfrwt beam="1">  1        2 0.18898265E+00 0.10438057E+04</pdfrwt>
<pdfrwt beam="2">  1       -2 0.34113850E-01 0.10438057E+04</pdfrwt>
<totfact> 0.14581586E+02</totfact>
</mgrwt>
</event>
<event>
 4    1  0.6476857E-006  0.1050817E+04  0.7818608E-02  0.9254501E-01
         -2   -1    0    0    0  501 -0.00000000000E+00  0.00000000000E+00  0.25891160120E+03  0.25891160121E+03  0.25500000000E-02 0. -1.
          2   -1    0    0  501    0  0.00000000000E+00 -0.00000000000E+00 -0.10662100799E+04  0.10662100799E+04  0.25500000000E-02 0.  1.
   -5000001    1    1    2    0    0  0.34542501688E+03  0.30122384042E+03 -0.32904605815E+03  0.61711064867E+03  0.25000000000E+03 0.  0.
    5000001    1    1    2    0    0 -0.34542501688E+03 -0.30122384042E+03 -0.47825242060E+03  0.70801103249E+03  0.25000000000E+03 0.  0.
<mgrwt>
<rscale>  0 0.10508171E+04</rscale>
<asrwt>0</asrwt>
<pdfrwt beam="1">  1        2 0.16403232E+00 0.10508171E+04</pdfrwt>
<pdfrwt beam="2">  1       -2 0.39832555E-01 0.10508171E+04</pdfrwt>
<totfact> 0.13564609E+02</totfact>
</mgrwt>
</event>
<event>
 4    1  0.6476857E-006  0.6300292E+03  0.7818608E-02  0.9844992E-01
         -2   -1    0    0    0  501 -0.00000000000E+00  0.00000000000E+00  0.11508533049E+03  0.11508533052E+03  0.25500000000E-02 0. -1.
          2   -1    0    0  501    0  0.00000000000E+00 -0.00000000000E+00 -0.86226620337E+03  0.86226620337E+03  0.25500000000E-02 0.  1.
   -5000001    1    1    2    0    0 -0.12057610733E+03 -0.13042483903E+03 -0.48529286619E+03  0.57407177450E+03  0.25000000000E+03 0.  0.
    5000001    1    1    2    0    0  0.12057610733E+03  0.13042483903E+03 -0.26188800668E+03  0.40327975940E+03  0.25000000000E+03 0.  0.
<mgrwt>
<rscale>  0 0.63002918E+03</rscale>
<asrwt>0</asrwt>
<pdfrwt beam="1">  1        2 0.13265633E+00 0.63002918E+03</pdfrwt>
<pdfrwt beam="2">  1       -2 0.17705436E-01 0.63002918E+03</pdfrwt>
<totfact> 0.82625637E+02</totfact>
</mgrwt>
</event>
<event>
 4    1  0.6476857E-006  0.9284135E+03  0.7818608E-02  0.9390744E-01
          2   -1    0    0  501    0  0.00000000000E+00  0.00000000000E+00  0.13969856333E+04  0.13969856333E+04  0.25500000000E-02 0.  1.
         -2   -1    0    0    0  501 -0.00000000000E+00 -0.00000000000E+00 -0.15425207135E+03  0.15425207137E+03  0.25500000000E-02 0. -1.
   -5000001    1    1    2    0    0  0.24689608830E+03 -0.29121036628E+03  0.47932730751E+03  0.66182763887E+03  0.25000000000E+03 0.  0.
    5000001    1    1    2    0    0 -0.24689608830E+03  0.29121036628E+03  0.76340625442E+03  0.88941006579E+03  0.25000000000E+03 0.  0.
<mgrwt>
<rscale>  0 0.92841354E+03</rscale>
<asrwt>0</asrwt>
<pdfrwt beam="1">  1        2 0.21492086E+00 0.92841354E+03</pdfrwt>
<pdfrwt beam="2">  1       -2 0.23731089E-01 0.92841354E+03</pdfrwt>
<totfact> 0.22914960E+02</totfact>
</mgrwt>
</event>
<event>
 4    1  0.6476857E-006  0.8776978E+03  0.7818608E-02  0.9453898E-01
         -2   -1    0    0    0  501 -0.00000000000E+00  0.00000000000E+00  0.30198747226E+03  0.30198747227E+03  0.25500000000E-02 0. -1.
          2   -1    0    0  501    0  0.00000000000E+00 -0.00000000000E+00 -0.63773619229E+03  0.63773619230E+03  0.25500000000E-02 0.  1.
   -5000001    1    1    2    0    0  0.79688667137E+02  0.78183907480E+02 -0.53507684063E+03  0.60105759494E+03  0.25000000000E+03 0.  0.
    5000001    1    1    2    0    0 -0.79688667137E+02 -0.78183907480E+02  0.19932812060E+03  0.33866606963E+03  0.25000000000E+03 0.  0.
<mgrwt>
<rscale>  0 0.87769776E+03</rscale>
<asrwt>0</asrwt>
<pdfrwt beam="1">  1        2 0.98113260E-01 0.87769776E+03</pdfrwt>
<pdfrwt beam="2">  1       -2 0.46459611E-01 0.87769776E+03</pdfrwt>
<totfact> 0.20299311E+02</totfact>
</mgrwt>
</event>
<event>
 4    1  0.6476857E-006  0.6331656E+03  0.7818608E-02  0.9838891E-01
         -2   -1    0    0    0  501 -0.00000000000E+00  0.00000000000E+00  0.22856768903E+03  0.22856768905E+03  0.25500000000E-02 0. -1.
          2   -1    0    0  501    0  0.00000000000E+00 -0.00000000000E+00 -0.43849015023E+03  0.43849015023E+03  0.25500000000E-02 0.  1.
   -5000001    1    1    2    0    0 -0.19225029600E+03 -0.18601434806E+02 -0.83409158961E+02  0.32674650340E+03  0.25000000000E+03 0.  0.
    5000001    1    1    2    0    0  0.19225029600E+03  0.18601434806E+02 -0.12651330223E+03  0.34031133588E+03  0.25000000000E+03 0.  0.
<mgrwt>
<rscale>  0 0.63316563E+03</rscale>
<asrwt>0</asrwt>
<pdfrwt beam="1">  1        2 0.67460023E-01 0.63316563E+03</pdfrwt>
<pdfrwt beam="2">  1       -2 0.35164260E-01 0.63316563E+03</pdfrwt>
<totfact> 0.54777060E+02</totfact>
</mgrwt>
</event>
<event>
 4    1  0.6476857E-006  0.9161297E+03  0.7818608E-02  0.9405640E-01
         -2   -1    0    0    0  501 -0.00000000000E+00  0.00000000000E+00  0.13038602886E+03  0.13038602888E+03  0.25500000000E-02 0. -1.
          2   -1    0    0  501    0  0.00000000000E+00 -0.00000000000E+00 -0.16092474648E+04  0.16092474648E+04  0.25500000000E-02 0.  1.
   -5000001    1    1    2    0    0 -0.36610375490E+03 -0.32179035047E+02 -0.94965073869E+03  0.10485246660E+04  0.25000000000E+03 0.  0.
    5000001    1    1    2    0    0  0.36610375490E+03  0.32179035047E+02 -0.52921069723E+03  0.69110882769E+03  0.25000000000E+03 0.  0.
<mgrwt>
<rscale>  0 0.91612966E+03</rscale>
<asrwt>0</asrwt>
<pdfrwt beam="1">  1        2 0.24757652E+00 0.91612966E+03</pdfrwt>
<pdfrwt beam="2">  1       -2 0.20059390E-01 0.91612966E+03</pdfrwt>
<totfact> 0.23497771E+02</totfact>
</mgrwt>
</event>
<event>
 4    1  0.6476857E-006  0.7067670E+03  0.7818608E-02  0.9705729E-01
          2   -1    0    0  501    0  0.00000000000E+00  0.00000000000E+00  0.12609732289E+04  0.12609732289E+04  0.25500000000E-02 0.  1.
         -2   -1    0    0    0  501 -0.00000000000E+00 -0.00000000000E+00 -0.99034539186E+02  0.99034539219E+02  0.25500000000E-02 0. -1.
   -5000001    1    1    2    0    0 -0.23775678976E+03  0.71339634862E+02  0.63409679711E+03  0.72539394999E+03  0.25000000000E+03 0.  0.
    5000001    1    1    2    0    0  0.23775678976E+03 -0.71339634862E+02  0.52784189264E+03  0.63461381817E+03  0.25000000000E+03 0.  0.
<mgrwt>
<rscale>  0 0.70676701E+03</rscale>
<asrwt>0</asrwt>
<pdfrwt beam="1">  1        2 0.19399586E+00 0.70676701E+03</pdfrwt>
<pdfrwt beam="2">  1       -2 0.15236085E-01 0.70676701E+03</pdfrwt>
<totfact> 0.60063302E+02</totfact>
</mgrwt>
</event>
<event>
 4    1  0.6476857E-006  0.8647496E+03  0.7818608E-02  0.9470752E-01
         -2   -1    0    0    0  501 -0.00000000000E+00  0.00000000000E+00  0.14895465964E+03  0.14895465966E+03  0.25500000000E-02 0. -1.
          2   -1    0    0  501    0  0.00000000000E+00 -0.00000000000E+00 -0.12550663497E+04  0.12550663497E+04  0.25500000000E-02 0.  1.
   -5000001    1    1    2    0    0  0.71469008855E+01 -0.27948682921E+03 -0.90235596471E+03  0.97719509461E+03  0.25000000000E+03 0.  0.
    5000001    1    1    2    0    0 -0.71469008855E+01  0.27948682921E+03 -0.20375572535E+03  0.42682591475E+03  0.25000000000E+03 0.  0.
<mgrwt>
<rscale>  0 0.86474963E+03</rscale>
<asrwt>0</asrwt>
<pdfrwt beam="1">  1        2 0.19308712E+00 0.86474963E+03</pdfrwt>
<pdfrwt beam="2">  1       -2 0.22916102E-01 0.86474963E+03</pdfrwt>
<totfact> 0.29560654E+02</totfact>
</mgrwt>
</event>
<event>
 4    1  0.6476857E-006  0.7539372E+03  0.7818608E-02  0.9629194E-01
          2   -1    0    0  501    0  0.00000000000E+00  0.00000000000E+00  0.16110825854E+03  0.16110825856E+03  0.25500000000E-02 0.  1.
         -2   -1    0    0    0  501 -0.00000000000E+00 -0.00000000000E+00 -0.88204856225E+03  0.88204856225E+03  0.25500000000E-02 0. -1.
   -5000001    1    1    2    0    0  0.25517017515E+03  0.34121529680E+02 -0.52021125300E+03  0.63197772495E+03  0.25000000000E+03 0.  0.
    5000001    1    1    2    0    0 -0.25517017515E+03 -0.34121529680E+02 -0.20072905071E+03  0.41117909586E+03  0.25000000000E+03 0.  0.
<mgrwt>
<rscale>  0 0.75393715E+03</rscale>
<asrwt>0</asrwt>
<pdfrwt beam="1">  1        2 0.24785886E-01 0.75393715E+03</pdfrwt>
<pdfrwt beam="2">  1       -2 0.13569978E+00 0.75393715E+03</pdfrwt>
<totfact> 0.87009690E+01</totfact>
</mgrwt>
</event>
<event>
 4    1  0.6476857E-006  0.8803685E+03  0.7818608E-02  0.9450460E-01
          2   -1    0    0  501    0  0.00000000000E+00  0.00000000000E+00  0.43505670212E+03  0.43505670212E+03  0.25500000000E-02 0.  1.
         -2   -1    0    0    0  501 -0.00000000000E+00 -0.00000000000E+00 -0.44537227637E+03  0.44537227638E+03  0.25500000000E-02 0. -1.
   -5000001    1    1    2    0    0 -0.13098719299E+03  0.33778663850E+03 -0.29814245824E+01  0.44018898983E+03  0.25000000000E+03 0.  0.
    5000001    1    1    2    0    0  0.13098719299E+03 -0.33778663850E+03 -0.73341496721E+01  0.44023998867E+03  0.25000000000E+03 0.  0.
<mgrwt>
<rscale>  0 0.88036855E+03</rscale>
<asrwt>0</asrwt>
<pdfrwt beam="1">  1        2 0.66931800E-01 0.88036855E+03</pdfrwt>
<pdfrwt beam="2">  1       -2 0.68518812E-01 0.88036855E+03</pdfrwt>
<totfact> 0.14147830E+02</totfact>
</mgrwt>
</event>
<event>
 4    1  0.6476857E-006  0.6624116E+03  0.7818608E-02  0.9783765E-01
         -2   -1    0    0    0  501 -0.00000000000E+00  0.00000000000E+00  0.55538667293E+03  0.55538667293E+03  0.25500000000E-02 0. -1.
          2   -1    0    0  501    0  0.00000000000E+00 -0.00000000000E+00 -0.19751512676E+03  0.19751512678E+03  0.25500000000E-02 0.  1.
   -5000001    1    1    2    0    0  0.16815451853E+03  0.12254718513E+03  0.24994884927E+03  0.41020504865E+03  0.25000000000E+03 0.  0.
    5000001    1    1    2    0    0 -0.16815451853E+03 -0.12254718513E+03  0.10792269689E+03  0.34269675106E+03  0.25000000000E+03 0.  0.
<mgrwt>
<rscale>  0 0.66241156E+03</rscale>
<asrwt>0</asrwt>
<pdfrwt beam="1">  1        2 0.30386943E-01 0.66241156E+03</pdfrwt>
<pdfrwt beam="2">  1       -2 0.85444102E-01 0.66241156E+03</pdfrwt>
<totfact> 0.21108479E+02</totfact>
</mgrwt>
</event>
<event>
 4    1  0.6476857E-006  0.7403150E+03  0.7818608E-02  0.9650668E-01
          2   -1    0    0  501    0  0.00000000000E+00  0.00000000000E+00  0.61971582019E+03  0.61971582019E+03  0.25500000000E-02 0. -1.
         -2   -1    0    0    0  501 -0.00000000000E+00 -0.00000000000E+00 -0.22109582452E+03  0.22109582454E+03  0.25500000000E-02 0.  1.
   -5000001    1    1    2    0    0 -0.16433759732E+03  0.17916058098E+03  0.34030401299E+03  0.48724960844E+03  0.25000000000E+03 0.  0.
    5000001    1    1    2    0    0  0.16433759732E+03 -0.17916058098E+03  0.58315982676E+02  0.35356203629E+03  0.25000000000E+03 0.  0.
<mgrwt>
<rscale>  0 0.74031501E+03</rscale>
<asrwt>0</asrwt>
<pdfrwt beam="1">  1        2 0.95340896E-01 0.74031501E+03</pdfrwt>
<pdfrwt beam="2">  1       -2 0.34014742E-01 0.74031501E+03</pdfrwt>
<totfact> 0.38821232E+02</totfact>
</mgrwt>
</event>
<event>
 4    1  0.6476857E-006  0.6953657E+03  0.7818608E-02  0.9725190E-01
          2   -1    0    0  501    0  0.00000000000E+00  0.00000000000E+00  0.59687713942E+03  0.59687713943E+03  0.25500000000E-02 0.  1.
         -2   -1    0    0    0  501 -0.00000000000E+00 -0.00000000000E+00 -0.20252638384E+03  0.20252638385E+03  0.25500000000E-02 0. -1.
   -5000001    1    1    2    0    0 -0.14658998166E+02  0.13036097388E+03  0.43044970561E+03  0.51477744589E+03  0.25000000000E+03 0.  0.
    5000001    1    1    2    0    0  0.14658998166E+02 -0.13036097388E+03 -0.36098950026E+02  0.28462607739E+03  0.25000000000E+03 0.  0.
<mgrwt>
<rscale>  0 0.69536571E+03</rscale>
<asrwt>0</asrwt>
<pdfrwt beam="1">  1        2 0.91827251E-01 0.69536571E+03</pdfrwt>
<pdfrwt beam="2">  1       -2 0.31157906E-01 0.69536571E+03</pdfrwt>
<totfact> 0.47973617E+02</totfact>
</mgrwt>
</event>
<event>
 4    1  0.6476857E-006  0.6027654E+03  0.7818608E-02  0.9899685E-01
         -2   -1    0    0    0  501 -0.00000000000E+00  0.00000000000E+00  0.10916708447E+03  0.10916708450E+03  0.25500000000E-02 0. -1.
          2   -1    0    0  501    0  0.00000000000E+00 -0.00000000000E+00 -0.83204125133E+03  0.83204125134E+03  0.25500000000E-02 0.  1.
   -5000001    1    1    2    0    0  0.12569749523E+03 -0.69400123572E+02 -0.49859261687E+03  0.57594343043E+03  0.25000000000E+03 0.  0.
    5000001    1    1    2    0    0 -0.12569749523E+03  0.69400123572E+02 -0.22428154999E+03  0.36526490541E+03  0.25000000000E+03 0.  0.
<mgrwt>
<rscale>  0 0.60276535E+03</rscale>
<asrwt>0</asrwt>
<pdfrwt beam="1">  1        2 0.12800634E+00 0.60276535E+03</pdfrwt>
<pdfrwt beam="2">  1       -2 0.16794937E-01 0.60276535E+03</pdfrwt>
<totfact> 0.94961632E+02</totfact>
</mgrwt>
</event>
<event>
 4    1  0.6476857E-006  0.8428210E+03  0.7818608E-02  0.9500023E-01
          2   -1    0    0  501    0  0.00000000000E+00  0.00000000000E+00  0.14173230294E+04  0.14173230294E+04  0.25500000000E-02 0.  1.
         -2   -1    0    0    0  501 -0.00000000000E+00 -0.00000000000E+00 -0.12529733481E+03  0.12529733484E+03  0.25500000000E-02 0. -1.
   -5000001    1    1    2    0    0 -0.26384948891E+03  0.20167240630E+03  0.51922552259E+03  0.66511912885E+03  0.25000000000E+03 0.  0.
    5000001    1    1    2    0    0  0.26384948891E+03 -0.20167240630E+03  0.77280017196E+03  0.87750123535E+03  0.25000000000E+03 0.  0.
<mgrwt>
<rscale>  0 0.84282097E+03</rscale>
<asrwt>0</asrwt>
<pdfrwt beam="1">  1        2 0.21804970E+00 0.84282097E+03</pdfrwt>
<pdfrwt beam="2">  1       -2 0.19276513E-01 0.84282097E+03</pdfrwt>
<totfact> 0.32399074E+02</totfact>
</mgrwt>
</event>
<event>
 4    1  0.6476857E-006  0.9592737E+03  0.7818608E-02  0.9354376E-01
          2   -1    0    0  501    0  0.00000000000E+00  0.00000000000E+00  0.21587437220E+04  0.21587437220E+04  0.25500000000E-02 0.  1.
         -2   -1    0    0    0  501 -0.00000000000E+00 -0.00000000000E+00 -0.10656731127E+03  0.10656731130E+03  0.25500000000E-02 0. -1.
   -5000001    1    1    2    0    0  0.79119069169E+02  0.37833913337E+03  0.70793389224E+03  0.84443515010E+03  0.25000000000E+03 0.  0.
    5000001    1    1    2    0    0 -0.79119069169E+02 -0.37833913337E+03  0.13442425185E+04  0.14208758832E+04  0.25000000000E+03 0.  0.
<mgrwt>
<rscale>  0 0.95927371E+03</rscale>
<asrwt>0</asrwt>
<pdfrwt beam="1">  1        2 0.33211442E+00 0.95927371E+03</pdfrwt>
<pdfrwt beam="2">  1       -2 0.16394971E-01 0.95927371E+03</pdfrwt>
<totfact> 0.16565197E+02</totfact>
</mgrwt>
</event>
<event>
 4    1  0.6476857E-006  0.6458901E+03  0.7818608E-02  0.9814522E-01
          2   -1    0    0  501    0  0.00000000000E+00  0.00000000000E+00  0.40486081897E+03  0.40486081897E+03  0.25500000000E-02 0.  1.
         -2   -1    0    0    0  501 -0.00000000000E+00 -0.00000000000E+00 -0.25760336590E+03  0.25760336591E+03  0.25500000000E-02 0. -1.
   -5000001    1    1    2    0    0 -0.55586812939E+02 -0.19289877412E+03  0.33988841636E+02  0.32242064479E+03  0.25000000000E+03 0.  0.
    5000001    1    1    2    0    0  0.55586812939E+02  0.19289877412E+03  0.11326861143E+03  0.34004354010E+03  0.25000000000E+03 0.  0.
<mgrwt>
<rscale>  0 0.64589011E+03</rscale>
<asrwt>0</asrwt>
<pdfrwt beam="1">  1        2 0.62286280E-01 0.64589011E+03</pdfrwt>
<pdfrwt beam="2">  1       -2 0.39631287E-01 0.64589011E+03</pdfrwt>
<totfact> 0.47620738E+02</totfact>
</mgrwt>
</event>
<event>
 4    1  0.6476857E-006  0.7527106E+03  0.7818608E-02  0.9631107E-01
         -2   -1    0    0    0  501 -0.00000000000E+00  0.00000000000E+00  0.10740088796E+03  0.10740088799E+03  0.25500000000E-02 0. -1.
          2   -1    0    0  501    0  0.00000000000E+00 -0.00000000000E+00 -0.13188280790E+04  0.13188280790E+04  0.25500000000E-02 0.  1.
   -5000001    1    1    2    0    0  0.16329787846E+03  0.20292461328E+03 -0.80712111393E+03  0.88418837831E+03  0.25000000000E+03 0.  0.
    5000001    1    1    2    0    0 -0.16329787846E+03 -0.20292461328E+03 -0.40430607711E+03  0.54204058868E+03  0.25000000000E+03 0.  0.
<mgrwt>
<rscale>  0 0.75271059E+03</rscale>
<asrwt>0</asrwt>
<pdfrwt beam="1">  1        2 0.20289662E+00 0.75271059E+03</pdfrwt>
<pdfrwt beam="2">  1       -2 0.16523215E-01 0.75271059E+03</pdfrwt>
<totfact> 0.48342373E+02</totfact>
</mgrwt>
</event>
<event>
 4    1  0.6476857E-006  0.7636043E+03  0.7818608E-02  0.9614246E-01
         -2   -1    0    0    0  501 -0.00000000000E+00  0.00000000000E+00  0.13862616628E+03  0.13862616630E+03  0.25500000000E-02 0. -1.
          2   -1    0    0  501    0  0.00000000000E+00 -0.00000000000E+00 -0.10515537958E+04  0.10515537958E+04  0.25500000000E-02 0.  1.
   -5000001    1    1    2    0    0  0.14691725181E+03 -0.22130296722E+03 -0.28072344359E+03  0.46028831612E+03  0.25000000000E+03 0.  0.
    5000001    1    1    2    0    0 -0.14691725181E+03  0.22130296722E+03 -0.63220418597E+03  0.72989164602E+03  0.25000000000E+03 0.  0.
<mgrwt>
<rscale>  0 0.76360427E+03</rscale>
<asrwt>0</asrwt>
<pdfrwt beam="1">  1        2 0.16177750E+00 0.76360427E+03</pdfrwt>
<pdfrwt beam="2">  1       -2 0.21327103E-01 0.76360427E+03</pdfrwt>
<totfact> 0.44767886E+02</totfact>
</mgrwt>
</event>
<event>
 4    1  0.6476857E-006  0.8380851E+03  0.7818608E-02  0.9506470E-01
          2   -1    0    0  501    0  0.00000000000E+00  0.00000000000E+00  0.13281204874E+04  0.13281204874E+04  0.25500000000E-02 0.  1.
         -2   -1    0    0    0  501 -0.00000000000E+00 -0.00000000000E+00 -0.13221439359E+03  0.13221439361E+03  0.25500000000E-02 0. -1.
   -5000001    1    1    2    0    0 -0.64585656103E+02 -0.30879922152E+03  0.80092140304E+03  0.89638348938E+03  0.25000000000E+03 0.  0.
    5000001    1    1    2    0    0  0.64585656103E+02  0.30879922152E+03  0.39498469078E+03  0.56395139164E+03  0.25000000000E+03 0.  0.
<mgrwt>
<rscale>  0 0.83808507E+03</rscale>
<asrwt>0</asrwt>
<pdfrwt beam="1">  1        2 0.20432622E+00 0.83808507E+03</pdfrwt>
<pdfrwt beam="2">  1       -2 0.20340676E-01 0.83808507E+03</pdfrwt>
<totfact> 0.33162793E+02</totfact>
</mgrwt>
</event>
<event>
 4    1  0.6476857E-006  0.1036187E+04  0.7818608E-02  0.9269723E-01
         -2   -1    0    0    0  501 -0.00000000000E+00  0.00000000000E+00  0.10635496389E+03  0.10635496392E+03  0.25500000000E-02 0.  1.
          2   -1    0    0  501    0  0.00000000000E+00 -0.00000000000E+00 -0.25238199048E+04  0.25238199048E+04  0.25500000000E-02 0. -1.
   -5000001    1    1    2    0    0  0.15006480199E+03 -0.20270082089E+03 -0.25116379363E+03  0.43496013475E+03  0.25000000000E+03 0.  0.
    5000001    1    1    2    0    0 -0.15006480199E+03  0.20270082089E+03 -0.21663011473E+04  0.21952147340E+04  0.25000000000E+03 0.  0.
<mgrwt>
<rscale>  0 0.10361868E+04</rscale>
<asrwt>0</asrwt>
<pdfrwt beam="1">  1        2 0.38827994E+00 0.10361868E+04</pdfrwt>
<pdfrwt beam="2">  1       -2 0.16362304E-01 0.10361868E+04</pdfrwt>
<totfact> 0.10290907E+02</totfact>
</mgrwt>
</event>
<event>
 4    1  0.6476857E-006  0.8277079E+03  0.7818608E-02  0.9520755E-01
         -2   -1    0    0    0  501 -0.00000000000E+00  0.00000000000E+00  0.13447418812E+03  0.13447418814E+03  0.25500000000E-02 0. -1.
          2   -1    0    0  501    0  0.00000000000E+00 -0.00000000000E+00 -0.12736652790E+04  0.12736652790E+04  0.25500000000E-02 0.  1.
   -5000001    1    1    2    0    0  0.20385327974E+03  0.25922160220E+03 -0.57777317541E+03  0.71068547258E+03  0.25000000000E+03 0.  0.
    5000001    1    1    2    0    0 -0.20385327974E+03 -0.25922160220E+03 -0.56141791543E+03  0.69745399452E+03  0.25000000000E+03 0.  0.
<mgrwt>
<rscale>  0 0.82770793E+03</rscale>
<asrwt>0</asrwt>
<pdfrwt beam="1">  1        2 0.19594850E+00 0.82770793E+03</pdfrwt>
<pdfrwt beam="2">  1       -2 0.20688338E-01 0.82770793E+03</pdfrwt>
<totfact> 0.34629864E+02</totfact>
</mgrwt>
</event>
<event>
 4    1  0.6476857E-006  0.9020834E+03  0.7818608E-02  0.9422981E-01
          2   -1    0    0  501    0  0.00000000000E+00  0.00000000000E+00  0.10060162600E+04  0.10060162600E+04  0.25500000000E-02 0.  1.
         -2   -1    0    0    0  501 -0.00000000000E+00 -0.00000000000E+00 -0.20222198555E+03  0.20222198557E+03  0.25500000000E-02 0. -1.
   -5000001    1    1    2    0    0 -0.14423151531E+03 -0.34112384543E+03  0.31965403606E+03  0.54940596165E+03  0.25000000000E+03 0.  0.
    5000001    1    1    2    0    0  0.14423151531E+03  0.34112384543E+03  0.48414023842E+03  0.65883228396E+03  0.25000000000E+03 0.  0.
<mgrwt>
<rscale>  0 0.90208338E+03</rscale>
<asrwt>0</asrwt>
<pdfrwt beam="1">  1        2 0.15477173E+00 0.90208338E+03</pdfrwt>
<pdfrwt beam="2">  1       -2 0.31111074E-01 0.90208338E+03</pdfrwt>
<totfact> 0.23941003E+02</totfact>
</mgrwt>
</event>
<event>
 4    1  0.6476857E-006  0.7026058E+03  0.7818608E-02  0.9712786E-01
         -2   -1    0    0    0  501 -0.00000000000E+00  0.00000000000E+00  0.12470736174E+03  0.12470736176E+03  0.25500000000E-02 0. -1.
          2   -1    0    0  501    0  0.00000000000E+00 -0.00000000000E+00 -0.98962650696E+03  0.98962650697E+03  0.25500000000E-02 0.  1.
   -5000001    1    1    2    0    0 -0.14571119041E+03 -0.18114215992E+03 -0.56391105506E+03  0.65919641317E+03  0.25000000000E+03 0.  0.
    5000001    1    1    2    0    0  0.14571119041E+03  0.18114215992E+03 -0.30100809016E+03  0.45513745556E+03  0.25000000000E+03 0.  0.
<mgrwt>
<rscale>  0 0.70260575E+03</rscale>
<asrwt>0</asrwt>
<pdfrwt beam="1">  1        2 0.15225023E+00 0.70260575E+03</pdfrwt>
<pdfrwt beam="2">  1       -2 0.19185749E-01 0.70260575E+03</pdfrwt>
<totfact> 0.59110922E+02</totfact>
</mgrwt>
</event>
<event>
 4    1  0.6476857E-006  0.9832467E+03  0.7818608E-02  0.9327113E-01
          2   -1    0    0  501    0  0.00000000000E+00  0.00000000000E+00  0.19245907593E+04  0.19245907593E+04  0.25500000000E-02 0.  1.
         -2   -1    0    0    0  501 -0.00000000000E+00 -0.00000000000E+00 -0.12558176848E+03  0.12558176851E+03  0.25500000000E-02 0. -1.
   -5000001    1    1    2    0    0  0.21159631142E+03 -0.14260607472E+03  0.16037763390E+04  0.16430788286E+04  0.25000000000E+03 0.  0.
    5000001    1    1    2    0    0 -0.21159631142E+03  0.14260607472E+03  0.19523265176E+03  0.40709369912E+03  0.25000000000E+03 0.  0.
<mgrwt>
<rscale>  0 0.98324669E+03</rscale>
<asrwt>0</asrwt>
<pdfrwt beam="1">  1        2 0.29609089E+00 0.98324669E+03</pdfrwt>
<pdfrwt beam="2">  1       -2 0.19320272E-01 0.98324669E+03</pdfrwt>
<totfact> 0.16750599E+02</totfact>
</mgrwt>
</event>
<event>
 4    1  0.6476857E-006  0.1296847E+04  0.7818608E-02  0.9032069E-01
         -2   -1    0    0    0  501 -0.00000000000E+00  0.00000000000E+00  0.11306582945E+04  0.11306582945E+04  0.25500000000E-02 0. -1.
          2   -1    0    0  501    0  0.00000000000E+00 -0.00000000000E+00 -0.37186573536E+03  0.37186573537E+03  0.25500000000E-02 0.  1.
   -5000001    1    1    2    0    0  0.44923287886E+03  0.29422477494E+03  0.73792815364E+02  0.59692861988E+03  0.25000000000E+03 0.  0.
    5000001    1    1    2    0    0 -0.44923287886E+03 -0.29422477494E+03  0.68499974376E+03  0.90559540998E+03  0.25000000000E+03 0.  0.
<mgrwt>
<rscale>  0 0.12968471E+04</rscale>
<asrwt>0</asrwt>
<pdfrwt beam="1">  1        2 0.57210114E-01 0.12968471E+04</pdfrwt>
<pdfrwt beam="2">  1       -2 0.17394743E+00 0.12968471E+04</pdfrwt>
<totfact> 0.16894975E+01</totfact>
</mgrwt>
</event>
<event>
 4    1  0.6476857E-006  0.7473142E+03  0.7818608E-02  0.9639573E-01
          2   -1    0    0  501    0  0.00000000000E+00  0.00000000000E+00  0.96343060743E+03  0.96343060743E+03  0.25500000000E-02 0.  1.
         -2   -1    0    0    0  501 -0.00000000000E+00 -0.00000000000E+00 -0.14491925610E+03  0.14491925613E+03  0.25500000000E-02 0. -1.
   -5000001    1    1    2    0    0 -0.16547079453E+03 -0.20059202804E+03  0.55382590445E+03  0.66093939056E+03  0.25000000000E+03 0.  0.
    5000001    1    1    2    0    0  0.16547079453E+03  0.20059202804E+03  0.26468544687E+03  0.44741047299E+03  0.25000000000E+03 0.  0.
<mgrwt>
<rscale>  0 0.74731425E+03</rscale>
<asrwt>0</asrwt>
<pdfrwt beam="1">  1        2 0.14822010E+00 0.74731425E+03</pdfrwt>
<pdfrwt beam="2">  1       -2 0.22295270E-01 0.74731425E+03</pdfrwt>
<totfact> 0.47119111E+02</totfact>
</mgrwt>
</event>
<event>
 4    1  0.6476857E-006  0.1512439E+04  0.7818608E-02  0.8876223E-01
         -2   -1    0    0    0  501 -0.00000000000E+00  0.00000000000E+00  0.33123566881E+03  0.33123566882E+03  0.25500000000E-02 0. -1.
          2   -1    0    0  501    0  0.00000000000E+00 -0.00000000000E+00 -0.17264674463E+04  0.17264674463E+04  0.25500000000E-02 0.  1.
   -5000001    1    1    2    0    0  0.31305611265E+03 -0.60455826162E+03 -0.40622062135E+03  0.83127012131E+03  0.25000000000E+03 0.  0.
    5000001    1    1    2    0    0 -0.31305611265E+03  0.60455826162E+03 -0.98901115610E+03  0.12264329938E+04  0.25000000000E+03 0.  0.
<mgrwt>
<rscale>  0 0.15124386E+04</rscale>
<asrwt>0</asrwt>
<pdfrwt beam="1">  1        2 0.26561037E+00 0.15124386E+04</pdfrwt>
<pdfrwt beam="2">  1       -2 0.50959335E-01 0.15124386E+04</pdfrwt>
<totfact> 0.33304432E+01</totfact>
</mgrwt>
</event>
<event>
 4    1  0.6476857E-006  0.9941127E+03  0.7818608E-02  0.9315026E-01
         -2   -1    0    0    0  501 -0.00000000000E+00  0.00000000000E+00  0.17204100130E+03  0.17204100132E+03  0.25500000000E-02 0. -1.
          2   -1    0    0  501    0  0.00000000000E+00 -0.00000000000E+00 -0.14360821247E+04  0.14360821247E+04  0.25500000000E-02 0.  1.
   -5000001    1    1    2    0    0 -0.31959169998E+03 -0.22371517458E+03 -0.92309662784E+03  0.10328575499E+04  0.25000000000E+03 0.  0.
    5000001    1    1    2    0    0  0.31959169998E+03  0.22371517458E+03 -0.34094449554E+03  0.57526557613E+03  0.25000000000E+03 0.  0.
<mgrwt>
<rscale>  0 0.99411268E+03</rscale>
<asrwt>0</asrwt>
<pdfrwt beam="1">  1        2 0.22093570E+00 0.99411268E+03</pdfrwt>
<pdfrwt beam="2">  1       -2 0.26467847E-01 0.99411268E+03</pdfrwt>
<totfact> 0.17797911E+02</totfact>
</mgrwt>
</event>
<event>
 4    1  0.6476857E-006  0.8009759E+03  0.7818608E-02  0.9558606E-01
         -2   -1    0    0    0  501 -0.00000000000E+00  0.00000000000E+00  0.16499730665E+03  0.16499730667E+03  0.25500000000E-02 0. -1.
          2   -1    0    0  501    0  0.00000000000E+00 -0.00000000000E+00 -0.97207998169E+03  0.97207998170E+03  0.25500000000E-02 0.  1.
   -5000001    1    1    2    0    0  0.33390322294E+02 -0.31105432313E+03 -0.39705550306E+03  0.56393508321E+03  0.25000000000E+03 0.  0.
    5000001    1    1    2    0    0 -0.33390322294E+02  0.31105432313E+03 -0.41002717198E+03  0.57314220515E+03  0.25000000000E+03 0.  0.
<mgrwt>
<rscale>  0 0.80097585E+03</rscale>
<asrwt>0</asrwt>
<pdfrwt beam="1">  1        2 0.14955076E+00 0.80097585E+03</pdfrwt>
<pdfrwt beam="2">  1       -2 0.25384202E-01 0.80097585E+03</pdfrwt>
<totfact> 0.36780240E+02</totfact>
</mgrwt>
</event>
<event>
 4    1  0.6476857E-006  0.9420690E+03  0.7818608E-02  0.9374469E-01
          2   -1    0    0  501    0  0.00000000000E+00  0.00000000000E+00  0.19122960074E+04  0.19122960074E+04  0.25500000000E-02 0.  1.
         -2   -1    0    0    0  501 -0.00000000000E+00 -0.00000000000E+00 -0.11602467145E+03  0.11602467147E+03  0.25500000000E-02 0. -1.
   -5000001    1    1    2    0    0 -0.36852208052E+02 -0.39312937641E+03  0.77140310377E+03  0.90192657148E+03  0.25000000000E+03 0.  0.
    5000001    1    1    2    0    0  0.36852208052E+02  0.39312937641E+03  0.10248682321E+04  0.11263941074E+04  0.25000000000E+03 0.  0.
<mgrwt>
<rscale>  0 0.94206903E+03</rscale>
<asrwt>0</asrwt>
<pdfrwt beam="1">  1        2 0.29419936E+00 0.94206903E+03</pdfrwt>
<pdfrwt beam="2">  1       -2 0.17849951E-01 0.94206903E+03</pdfrwt>
<totfact> 0.19582726E+02</totfact>
</mgrwt>
</event>
<event>
 4    1  0.6476857E-006  0.8546290E+03  0.7818608E-02  0.9484145E-01
          2   -1    0    0  501    0  0.00000000000E+00  0.00000000000E+00  0.31384506081E+04  0.31384506082E+04  0.25500000000E-02 0.  1.
         -2   -1    0    0    0  501 -0.00000000000E+00 -0.00000000000E+00 -0.58180835563E+02  0.58180835619E+02  0.25500000000E-02 0. -1.
   -5000001    1    1    2    0    0 -0.22898730677E+03 -0.19896333550E+03  0.21668688153E+04  0.22022356954E+04  0.25000000000E+03 0.  0.
    5000001    1    1    2    0    0  0.22898730677E+03  0.19896333550E+03  0.91340095731E+03  0.99439574836E+03  0.25000000000E+03 0.  0.
<mgrwt>
<rscale>  0 0.85462899E+03</rscale>
<asrwt>0</asrwt>
<pdfrwt beam="1">  1        2 0.48283869E+00 0.85462899E+03</pdfrwt>
<pdfrwt beam="2">  1       -2 0.89508953E-02 0.85462899E+03</pdfrwt>
<totfact> 0.12233403E+02</totfact>
</mgrwt>
</event>
<event>
 4    1  0.6476857E-006  0.7303506E+03  0.7818608E-02  0.9666692E-01
          2   -1    0    0  501    0  0.00000000000E+00  0.00000000000E+00  0.14440979069E+03  0.14440979071E+03  0.25500000000E-02 0.  1.
         -2   -1    0    0    0  501 -0.00000000000E+00 -0.00000000000E+00 -0.92343462162E+03  0.92343462162E+03  0.25500000000E-02 0. -1.
   -5000001    1    1    2    0    0 -0.19414748778E+03  0.17365067311E+03 -0.46966417713E+03  0.59239534313E+03  0.25000000000E+03 0.  0.
    5000001    1    1    2    0    0  0.19414748778E+03 -0.17365067311E+03 -0.30936065379E+03  0.47544906920E+03  0.25000000000E+03 0.  0.
<mgrwt>
<rscale>  0 0.73035060E+03</rscale>
<asrwt>0</asrwt>
<pdfrwt beam="1">  1        2 0.22216891E-01 0.73035060E+03</pdfrwt>
<pdfrwt beam="2">  1       -2 0.14206686E+00 0.73035060E+03</pdfrwt>
<totfact> 0.87823245E+01</totfact>
</mgrwt>
</event>
<event>
 4    1  0.6476857E-006  0.1092592E+04  0.7818608E-02  0.9212443E-01
          2   -1    0    0  501    0  0.00000000000E+00  0.00000000000E+00  0.10233602403E+04  0.10233602403E+04  0.25500000000E-02 0.  1.
         -2   -1    0    0    0  501 -0.00000000000E+00 -0.00000000000E+00 -0.29162665743E+03  0.29162665745E+03  0.25500000000E-02 0. -1.
   -5000001    1    1    2    0    0 -0.47714393190E+03 -0.40217018716E+02  0.26768065495E+03  0.60285709200E+03  0.25000000000E+03 0.  0.
    5000001    1    1    2    0    0  0.47714393190E+03  0.40217018716E+02  0.46405292794E+03  0.71212980578E+03  0.25000000000E+03 0.  0.
<mgrwt>
<rscale>  0 0.10925916E+04</rscale>
<asrwt>0</asrwt>
<pdfrwt beam="1">  1        2 0.15744004E+00 0.10925916E+04</pdfrwt>
<pdfrwt beam="2">  1       -2 0.44865639E-01 0.10925916E+04</pdfrwt>
<totfact> 0.11382955E+02</totfact>
</mgrwt>
</event>
<event>
 4    1  0.6476857E-006  0.6170951E+03  0.7818608E-02  0.9870560E-01
          2   -1    0    0  501    0  0.00000000000E+00  0.00000000000E+00  0.14221898523E+03  0.14221898526E+03  0.25500000000E-02 0.  1.
         -2   -1    0    0    0  501 -0.00000000000E+00 -0.00000000000E+00 -0.66940152303E+03  0.66940152303E+03  0.25500000000E-02 0. -1.
   -5000001    1    1    2    0    0  0.11909884973E+03 -0.12897937779E+03 -0.20654329422E+03  0.36875513324E+03  0.25000000000E+03 0.  0.
    5000001    1    1    2    0    0 -0.11909884973E+03  0.12897937779E+03 -0.32063924357E+03  0.44286537505E+03  0.25000000000E+03 0.  0.
<mgrwt>
<rscale>  0 0.61709515E+03</rscale>
<asrwt>0</asrwt>
<pdfrwt beam="1">  1        2 0.21879844E-01 0.61709515E+03</pdfrwt>
<pdfrwt beam="2">  1       -2 0.10298485E+00 0.61709515E+03</pdfrwt>
<totfact> 0.19933417E+02</totfact>
</mgrwt>
</event>
<event>
 4    1  0.6476857E-006  0.6096435E+03  0.7818608E-02  0.9885598E-01
          2   -1    0    0  501    0  0.00000000000E+00  0.00000000000E+00  0.15504018750E+04  0.15504018750E+04  0.25500000000E-02 0.  1.
         -2   -1    0    0    0  501 -0.00000000000E+00 -0.00000000000E+00 -0.59930459465E+02  0.59930459520E+02  0.25500000000E-02 0. -1.
   -5000001    1    1    2    0    0  0.15879551824E+03  0.20458259442E+02  0.92789111809E+03  0.97422609492E+03  0.25000000000E+03 0.  0.
    5000001    1    1    2    0    0 -0.15879551824E+03 -0.20458259442E+02  0.56258029747E+03  0.63610623963E+03  0.25000000000E+03 0.  0.
<mgrwt>
<rscale>  0 0.60964349E+03</rscale>
<asrwt>0</asrwt>
<pdfrwt beam="1">  1        2 0.23852342E+00 0.60964349E+03</pdfrwt>
<pdfrwt beam="2">  1       -2 0.92200686E-02 0.60964349E+03</pdfrwt>
<totfact> 0.94943836E+02</totfact>
</mgrwt>
</event>
<event>
 4    1  0.6476857E-006  0.6174963E+03  0.7818608E-02  0.9869757E-01
          2   -1    0    0  501    0  0.00000000000E+00  0.00000000000E+00  0.79254533841E+03  0.79254533841E+03  0.25500000000E-02 0. -1.
         -2   -1    0    0    0  501 -0.00000000000E+00 -0.00000000000E+00 -0.12027755881E+03  0.12027755884E+03  0.25500000000E-02 0.  1.
   -5000001    1    1    2    0    0 -0.16007177563E+03  0.76301189779E+02  0.28120738556E+03  0.41595965984E+03  0.25000000000E+03 0.  0.
    5000001    1    1    2    0    0  0.16007177563E+03 -0.76301189779E+02  0.39106039403E+03  0.49686323742E+03  0.25000000000E+03 0.  0.
<mgrwt>
<rscale>  0 0.61749629E+03</rscale>
<asrwt>0</asrwt>
<pdfrwt beam="1">  1        2 0.12193006E+00 0.61749629E+03</pdfrwt>
<pdfrwt beam="2">  1       -2 0.18504239E-01 0.61749629E+03</pdfrwt>
<totfact> 0.85730442E+02</totfact>
</mgrwt>
</event>
<event>
 4    1  0.6476857E-006  0.6228158E+03  0.7818608E-02  0.9859169E-01
         -2   -1    0    0    0  501 -0.00000000000E+00  0.00000000000E+00  0.33266667231E+02  0.33266667329E+02  0.25500000000E-02 0. -1.
          2   -1    0    0  501    0  0.00000000000E+00 -0.00000000000E+00 -0.29150767501E+04  0.29150767501E+04  0.25500000000E-02 0.  1.
   -5000001    1    1    2    0    0  0.10317770961E+03 -0.13693146320E+03 -0.11035334446E+04  0.11444133557E+04  0.25000000000E+03 0.  0.
    5000001    1    1    2    0    0 -0.10317770961E+03  0.13693146320E+03 -0.17782766382E+04  0.18039300617E+04  0.25000000000E+03 0.  0.
<mgrwt>
<rscale>  0 0.62281583E+03</rscale>
<asrwt>0</asrwt>
<pdfrwt beam="1">  1        2 0.44847315E+00 0.62281583E+03</pdfrwt>
<pdfrwt beam="2">  1       -2 0.51179511E-02 0.62281583E+03</pdfrwt>
<totfact> 0.41750456E+02</totfact>
</mgrwt>
</event>
<event>
 4    1  0.6476857E-006  0.1193764E+04  0.7818608E-02  0.9118333E-01
         -2   -1    0    0    0  501 -0.00000000000E+00  0.00000000000E+00  0.17043445262E+03  0.17043445264E+03  0.25500000000E-02 0. -1.
          2   -1    0    0  501    0  0.00000000000E+00 -0.00000000000E+00 -0.20903518238E+04  0.20903518238E+04  0.25500000000E-02 0.  1.
   -5000001    1    1    2    0    0 -0.16064803063E+03  0.45547399513E+03 -0.14257933467E+04  0.15259918143E+04  0.25000000000E+03 0.  0.
    5000001    1    1    2    0    0  0.16064803063E+03 -0.45547399513E+03 -0.49412402457E+03  0.73479446217E+03  0.25000000000E+03 0.  0.
<mgrwt>
<rscale>  0 0.11937637E+04</rscale>
<asrwt>0</asrwt>
<pdfrwt beam="1">  1        2 0.32159257E+00 0.11937637E+04</pdfrwt>
<pdfrwt beam="2">  1       -2 0.26220687E-01 0.11937637E+04</pdfrwt>
<totfact> 0.77402974E+01</totfact>
</mgrwt>
</event>
<event>
 4    1  0.6476857E-006  0.1054876E+04  0.7818608E-02  0.9250325E-01
         -2   -1    0    0    0  501 -0.00000000000E+00  0.00000000000E+00  0.11322396177E+03  0.11322396179E+03  0.25500000000E-02 0. -1.
          2   -1    0    0  501    0  0.00000000000E+00 -0.00000000000E+00 -0.24569939254E+04  0.24569939254E+04  0.25500000000E-02 0.  1.
   -5000001    1    1    2    0    0  0.36336527994E+03  0.21452895402E+03 -0.69921661152E+03  0.85408481348E+03  0.25000000000E+03 0.  0.
    5000001    1    1    2    0    0 -0.36336527994E+03 -0.21452895402E+03 -0.16445533521E+04  0.17161330737E+04  0.25000000000E+03 0.  0.
<mgrwt>
<rscale>  0 0.10548755E+04</rscale>
<asrwt>0</asrwt>
<pdfrwt beam="1">  1        2 0.37799902E+00 0.10548755E+04</pdfrwt>
<pdfrwt beam="2">  1       -2 0.17419073E-01 0.10548755E+04</pdfrwt>
<totfact> 0.10073056E+02</totfact>
</mgrwt>
</event>
<event>
 4    1  0.6476857E-006  0.7719181E+03  0.7818608E-02  0.9601578E-01
         -2   -1    0    0    0  501 -0.00000000000E+00  0.00000000000E+00  0.12478434534E+03  0.12478434537E+03  0.25500000000E-02 0. -1.
          2   -1    0    0  501    0  0.00000000000E+00 -0.00000000000E+00 -0.11937746942E+04  0.11937746942E+04  0.25500000000E-02 0.  1.
   -5000001    1    1    2    0    0 -0.35946793103E+02 -0.28583234780E+03 -0.63514751565E+03  0.74088100909E+03  0.25000000000E+03 0.  0.
    5000001    1    1    2    0    0  0.35946793103E+02  0.28583234780E+03 -0.43384283321E+03  0.57767803049E+03  0.25000000000E+03 0.  0.
<mgrwt>
<rscale>  0 0.77191811E+03</rscale>
<asrwt>0</asrwt>
<pdfrwt beam="1">  1        2 0.18365764E+00 0.77191811E+03</pdfrwt>
<pdfrwt beam="2">  1       -2 0.19197592E-01 0.77191811E+03</pdfrwt>
<totfact> 0.44103797E+02</totfact>
</mgrwt>
</event>
<event>
 4    1  0.6476857E-006  0.8224557E+03  0.7818608E-02  0.9528070E-01
          2   -1    0    0  501    0  0.00000000000E+00  0.00000000000E+00  0.43882214268E+03  0.43882214269E+03  0.25500000000E-02 0.  1.
         -2   -1    0    0    0  501 -0.00000000000E+00 -0.00000000000E+00 -0.38536879538E+03  0.38536879539E+03  0.25500000000E-02 0. -1.
   -5000001    1    1    2    0    0 -0.13796155185E+02 -0.53632374872E+02 -0.29573100656E+03  0.39118230248E+03  0.25000000000E+03 0.  0.
    5000001    1    1    2    0    0  0.13796155185E+02  0.53632374872E+02  0.34918435385E+03  0.43300863561E+03  0.25000000000E+03 0.  0.
<mgrwt>
<rscale>  0 0.82245574E+03</rscale>
<asrwt>0</asrwt>
<pdfrwt beam="1">  1        2 0.67511098E-01 0.82245574E+03</pdfrwt>
<pdfrwt beam="2">  1       -2 0.59287507E-01 0.82245574E+03</pdfrwt>
<totfact> 0.19143636E+02</totfact>
</mgrwt>
</event>
<event>
 4    1  0.6476857E-006  0.1186967E+04  0.7818608E-02  0.9124342E-01
          2   -1    0    0  501    0  0.00000000000E+00  0.00000000000E+00  0.23500705936E+04  0.23500705936E+04  0.25500000000E-02 0.  1.
         -2   -1    0    0    0  501 -0.00000000000E+00 -0.00000000000E+00 -0.14987736665E+03  0.14987736667E+03  0.25500000000E-02 0. -1.
   -5000001    1    1    2    0    0 -0.45985139059E+03  0.57337616426E+02  0.16767841400E+04  0.17575141410E+04  0.25000000000E+03 0.  0.
    5000001    1    1    2    0    0  0.45985139059E+03 -0.57337616426E+02  0.52340908694E+03  0.74243381925E+03  0.25000000000E+03 0.  0.
<mgrwt>
<rscale>  0 0.11869665E+04</rscale>
<asrwt>0</asrwt>
<pdfrwt beam="1">  1        2 0.36154931E+00 0.11869665E+04</pdfrwt>
<pdfrwt beam="2">  1       -2 0.23058057E-01 0.11869665E+04</pdfrwt>
<totfact> 0.69937320E+01</totfact>
</mgrwt>
</event>
<event>
 4    1  0.6476857E-006  0.1070157E+04  0.7818608E-02  0.9234777E-01
         -2   -1    0    0    0  501 -0.00000000000E+00  0.00000000000E+00  0.29652496727E+03  0.29652496728E+03  0.25500000000E-02 0. -1.
          2   -1    0    0  501    0  0.00000000000E+00 -0.00000000000E+00 -0.96554822049E+03  0.96554822050E+03  0.25500000000E-02 0.  1.
   -5000001    1    1    2    0    0 -0.44400207480E+03  0.69833504019E+02 -0.50861665607E+03  0.72332942947E+03  0.25000000000E+03 0.  0.
    5000001    1    1    2    0    0  0.44400207480E+03 -0.69833504019E+02 -0.16040659715E+03  0.53874375831E+03  0.25000000000E+03 0.  0.
<mgrwt>
<rscale>  0 0.10701573E+04</rscale>
<asrwt>0</asrwt>
<pdfrwt beam="1">  1        2 0.14854588E+00 0.10701573E+04</pdfrwt>
<pdfrwt beam="2">  1       -2 0.45619226E-01 0.10701573E+04</pdfrwt>
<totfact> 0.12013087E+02</totfact>
</mgrwt>
</event>
<event>
 4    1  0.6476857E-006  0.1642893E+04  0.7818608E-02  0.8794622E-01
          2   -1    0    0  501    0  0.00000000000E+00  0.00000000000E+00  0.22388233389E+04  0.22388233389E+04  0.25500000000E-02 0.  1.
         -2   -1    0    0    0  501 -0.00000000000E+00 -0.00000000000E+00 -0.30139669734E+03  0.30139669735E+03  0.25500000000E-02 0. -1.
   -5000001    1    1    2    0    0  0.23907125982E+03 -0.74504694035E+03  0.97628012072E+03  0.12758812189E+04  0.25000000000E+03 0.  0.
    5000001    1    1    2    0    0 -0.23907125982E+03  0.74504694035E+03  0.96114652088E+03  0.12643388174E+04  0.25000000000E+03 0.  0.
<mgrwt>
<rscale>  0 0.16428925E+04</rscale>
<asrwt>0</asrwt>
<pdfrwt beam="1">  1        2 0.34443436E+00 0.16428925E+04</pdfrwt>
<pdfrwt beam="2">  1       -2 0.46368723E-01 0.16428925E+04</pdfrwt>
<totfact> 0.20710242E+01</totfact>
</mgrwt>
</event>
<event>
 4    1  0.6476857E-006  0.8494635E+03  0.7818608E-02  0.9491057E-01
          2   -1    0    0  501    0  0.00000000000E+00  0.00000000000E+00  0.11762070899E+04  0.11762070899E+04  0.25500000000E-02 0.  1.
         -2   -1    0    0    0  501 -0.00000000000E+00 -0.00000000000E+00 -0.15337184724E+03  0.15337184726E+03  0.25500000000E-02 0. -1.
   -5000001    1    1    2    0    0  0.27306132689E+03 -0.13829888297E+03  0.75494552464E+03  0.85213368343E+03  0.25000000000E+03 0.  0.
    5000001    1    1    2    0    0 -0.27306132689E+03  0.13829888297E+03  0.26788971800E+03  0.47744525370E+03  0.25000000000E+03 0.  0.
<mgrwt>
<rscale>  0 0.84946349E+03</rscale>
<asrwt>0</asrwt>
<pdfrwt beam="1">  1        2 0.18095493E+00 0.84946349E+03</pdfrwt>
<pdfrwt beam="2">  1       -2 0.23595670E-01 0.84946349E+03</pdfrwt>
<totfact> 0.31262328E+02</totfact>
</mgrwt>
</event>
<event>
 4    1  0.6476857E-006  0.7443156E+03  0.7818608E-02  0.9644311E-01
          2   -1    0    0  501    0  0.00000000000E+00  0.00000000000E+00  0.30747889058E+03  0.30747889059E+03  0.25500000000E-02 0.  1.
         -2   -1    0    0    0  501 -0.00000000000E+00 -0.00000000000E+00 -0.45044203798E+03  0.45044203799E+03  0.25500000000E-02 0. -1.
   -5000001    1    1    2    0    0 -0.15229551966E+03  0.16883451412E+03  0.87260252776E+02  0.34901772187E+03  0.25000000000E+03 0.  0.
    5000001    1    1    2    0    0  0.15229551966E+03 -0.16883451412E+03 -0.23022340017E+03  0.40890320670E+03  0.25000000000E+03 0.  0.
<mgrwt>
<rscale>  0 0.74431557E+03</rscale>
<asrwt>0</asrwt>
<pdfrwt beam="1">  1        2 0.47304445E-01 0.74431557E+03</pdfrwt>
<pdfrwt beam="2">  1       -2 0.69298775E-01 0.74431557E+03</pdfrwt>
<totfact> 0.20483017E+02</totfact>
</mgrwt>
</event>
<event>
 4    1  0.6476857E-006  0.8094157E+03  0.7818608E-02  0.9546487E-01
         -2   -1    0    0    0  501 -0.00000000000E+00  0.00000000000E+00  0.47606471496E+03  0.47606471497E+03  0.25500000000E-02 0. -1.
          2   -1    0    0  501    0  0.00000000000E+00 -0.00000000000E+00 -0.34404660084E+03  0.34404660085E+03  0.25500000000E-02 0.  1.
   -5000001    1    1    2    0    0  0.25455828162E+03 -0.18610740685E+03  0.22398917663E+02  0.40303547876E+03  0.25000000000E+03 0.  0.
    5000001    1    1    2    0    0 -0.25455828162E+03  0.18610740685E+03  0.10961919646E+03  0.41707583706E+03  0.25000000000E+03 0.  0.
<mgrwt>
<rscale>  0 0.80941571E+03</rscale>
<asrwt>0</asrwt>
<pdfrwt beam="1">  1        2 0.52930246E-01 0.80941571E+03</pdfrwt>
<pdfrwt beam="2">  1       -2 0.73240725E-01 0.80941571E+03</pdfrwt>
<totfact> 0.15971858E+02</totfact>
</mgrwt>
</event>
<event>
 4    1  0.6476857E-006  0.1496370E+04  0.7818608E-02  0.8886870E-01
          2   -1    0    0  501    0  0.00000000000E+00  0.00000000000E+00  0.32856792839E+04  0.32856792839E+04  0.25500000000E-02 0.  1.
         -2   -1    0    0    0  501 -0.00000000000E+00 -0.00000000000E+00 -0.17036999154E+03  0.17036999156E+03  0.25500000000E-02 0. -1.
   -5000001    1    1    2    0    0  0.76081886950E+02  0.66577613481E+03  0.20649036474E+04  0.21852627733E+04  0.25000000000E+03 0.  0.
    5000001    1    1    2    0    0 -0.76081886950E+02 -0.66577613481E+03  0.10504056450E+04  0.12707865022E+04  0.25000000000E+03 0.  0.
<mgrwt>
<rscale>  0 0.14963705E+04</rscale>
<asrwt>0</asrwt>
<pdfrwt beam="1">  1        2 0.50548911E+00 0.14963705E+04</pdfrwt>
<pdfrwt beam="2">  1       -2 0.26210768E-01 0.14963705E+04</pdfrwt>
<totfact> 0.14644057E+01</totfact>
</mgrwt>
</event>
<event>
 4    1  0.6476857E-006  0.1119800E+04  0.7818608E-02  0.9186105E-01
          2   -1    0    0  501    0  0.00000000000E+00  0.00000000000E+00  0.22080067067E+04  0.22080067067E+04  0.25500000000E-02 0.  1.
         -2   -1    0    0    0  501 -0.00000000000E+00 -0.00000000000E+00 -0.14197784307E+03  0.14197784310E+03  0.25500000000E-02 0. -1.
   -5000001    1    1    2    0    0  0.31166917369E+03  0.36834581117E+03  0.13159076524E+04  0.14237026586E+04  0.25000000000E+03 0.  0.
    5000001    1    1    2    0    0 -0.31166917369E+03 -0.36834581117E+03  0.75012121120E+03  0.92628189118E+03  0.25000000000E+03 0.  0.
<mgrwt>
<rscale>  0 0.11198000E+04</rscale>
<asrwt>0</asrwt>
<pdfrwt beam="1">  1        2 0.33969334E+00 0.11198000E+04</pdfrwt>
<pdfrwt beam="2">  1       -2 0.21842745E-01 0.11198000E+04</pdfrwt>
<totfact> 0.93069364E+01</totfact>
</mgrwt>
</event>
<event>
 4    1  0.6476857E-006  0.6358587E+03  0.7818608E-02  0.9833682E-01
         -2   -1    0    0    0  501 -0.00000000000E+00  0.00000000000E+00  0.35144333153E+02  0.35144333245E+02  0.25500000000E-02 0. -1.
          2   -1    0    0  501    0  0.00000000000E+00 -0.00000000000E+00 -0.28761127693E+04  0.28761127693E+04  0.25500000000E-02 0.  1.
   -5000001    1    1    2    0    0 -0.12805655656E+03 -0.11264680893E+03 -0.97443543914E+03  0.10203490630E+04  0.25000000000E+03 0.  0.
    5000001    1    1    2    0    0  0.12805655656E+03  0.11264680893E+03 -0.18665329971E+04  0.18909080396E+04  0.25000000000E+03 0.  0.
<mgrwt>
<rscale>  0 0.63585868E+03</rscale>
<asrwt>0</asrwt>
<pdfrwt beam="1">  1        2 0.44247870E+00 0.63585868E+03</pdfrwt>
<pdfrwt beam="2">  1       -2 0.54068227E-02 0.63585868E+03</pdfrwt>
<totfact> 0.40383689E+02</totfact>
</mgrwt>
</event>
<event>
 4    1  0.6476857E-006  0.8944868E+03  0.7818608E-02  0.9432500E-01
         -2   -1    0    0    0  501 -0.00000000000E+00  0.00000000000E+00  0.14670433809E+03  0.14670433811E+03  0.25500000000E-02 0.  1.
          2   -1    0    0  501    0  0.00000000000E+00 -0.00000000000E+00 -0.13634678492E+04  0.13634678492E+04  0.25500000000E-02 0. -1.
   -5000001    1    1    2    0    0  0.30215358718E+03 -0.18562636694E+03 -0.79156711698E+03  0.90268069605E+03  0.25000000000E+03 0.  0.
    5000001    1    1    2    0    0 -0.30215358718E+03  0.18562636694E+03 -0.42519639409E+03  0.60749149121E+03  0.25000000000E+03 0.  0.
<mgrwt>
<rscale>  0 0.89448678E+03</rscale>
<asrwt>0</asrwt>
<pdfrwt beam="1">  1        2 0.20976428E+00 0.89448678E+03</pdfrwt>
<pdfrwt beam="2">  1       -2 0.22569899E-01 0.89448678E+03</pdfrwt>
<totfact> 0.26247322E+02</totfact>
</mgrwt>
</event>
<event>
 4    1  0.6476857E-006  0.6363864E+03  0.7818608E-02  0.9832665E-01
         -2   -1    0    0    0  501 -0.00000000000E+00  0.00000000000E+00  0.60278209807E+02  0.60278209861E+02  0.25500000000E-02 0. -1.
          2   -1    0    0  501    0  0.00000000000E+00 -0.00000000000E+00 -0.16796600915E+04  0.16796600915E+04  0.25500000000E-02 0.  1.
   -5000001    1    1    2    0    0  0.16899035058E+03 -0.40705764257E+02 -0.55714311484E+03  0.63491979670E+03  0.25000000000E+03 0.  0.
    5000001    1    1    2    0    0 -0.16899035058E+03  0.40705764257E+02 -0.10622387668E+04  0.11050185046E+04  0.25000000000E+03 0.  0.
<mgrwt>
<rscale>  0 0.63638637E+03</rscale>
<asrwt>0</asrwt>
<pdfrwt beam="1">  1        2 0.25840921E+00 0.63638637E+03</pdfrwt>
<pdfrwt beam="2">  1       -2 0.92735720E-02 0.63638637E+03</pdfrwt>
<totfact> 0.79817617E+02</totfact>
</mgrwt>
</event>
<event>
 4    1  0.6476857E-006  0.6390673E+03  0.7818608E-02  0.9827513E-01
         -2   -1    0    0    0  501 -0.00000000000E+00  0.00000000000E+00  0.62706705909E+02  0.62706705961E+02  0.25500000000E-02 0. -1.
          2   -1    0    0  501    0  0.00000000000E+00 -0.00000000000E+00 -0.16282430786E+04  0.16282430786E+04  0.25500000000E-02 0.  1.
   -5000001    1    1    2    0    0  0.53901160710E+02  0.10145461456E+03 -0.12127141868E+04  0.12435328998E+04  0.25000000000E+03 0.  0.
    5000001    1    1    2    0    0 -0.53901160710E+02 -0.10145461456E+03 -0.35282218588E+03  0.44741688478E+03  0.25000000000E+03 0.  0.
<mgrwt>
<rscale>  0 0.63906732E+03</rscale>
<asrwt>0</asrwt>
<pdfrwt beam="1">  1        2 0.25049890E+00 0.63906732E+03</pdfrwt>
<pdfrwt beam="2">  1       -2 0.96471868E-02 0.63906732E+03</pdfrwt>
<totfact> 0.79867078E+02</totfact>
</mgrwt>
</event>
<event>
 4    1  0.6476857E-006  0.6822591E+03  0.7818608E-02  0.9748062E-01
         -2   -1    0    0    0  501 -0.00000000000E+00  0.00000000000E+00  0.84284575158E+02  0.84284575196E+02  0.25500000000E-02 0. -1.
          2   -1    0    0  501    0  0.00000000000E+00 -0.00000000000E+00 -0.13806723941E+04  0.13806723941E+04  0.25500000000E-02 0.  1.
   -5000001    1    1    2    0    0  0.20806745637E+03  0.82685120351E+02 -0.51687121387E+03  0.61626678253E+03  0.25000000000E+03 0.  0.
    5000001    1    1    2    0    0 -0.20806745637E+03 -0.82685120351E+02 -0.77951660509E+03  0.84869018678E+03  0.25000000000E+03 0.  0.
<mgrwt>
<rscale>  0 0.68225915E+03</rscale>
<asrwt>0</asrwt>
<pdfrwt beam="1">  1        2 0.21241112E+00 0.68225915E+03</pdfrwt>
<pdfrwt beam="2">  1       -2 0.12966859E-01 0.68225915E+03</pdfrwt>
<totfact> 0.67310842E+02</totfact>
</mgrwt>
</event>
<event>
 4    1  0.6476857E-006  0.5370435E+03  0.7818608E-02  0.1004538E+00
         -2   -1    0    0    0  501 -0.00000000000E+00  0.00000000000E+00  0.31259824820E+02  0.31259824924E+02  0.25500000000E-02 0. -1.
          2   -1    0    0  501    0  0.00000000000E+00 -0.00000000000E+00 -0.23066005546E+04  0.23066005546E+04  0.25500000000E-02 0.  1.
   -5000001    1    1    2    0    0 -0.11928883100E+02 -0.95630355722E+02 -0.10602290398E+04  0.10935598200E+04  0.25000000000E+03 0.  0.
    5000001    1    1    2    0    0  0.11928883100E+02  0.95630355722E+02 -0.12151116900E+04  0.12443005595E+04  0.25000000000E+03 0.  0.
<mgrwt>
<rscale>  0 0.53704350E+03</rscale>
<asrwt>0</asrwt>
<pdfrwt beam="1">  1        2 0.35486149E+00 0.53704350E+03</pdfrwt>
<pdfrwt beam="2">  1       -2 0.48092056E-02 0.53704350E+03</pdfrwt>
<totfact> 0.10327287E+03</totfact>
</mgrwt>
</event>
<event>
 4    1  0.6476857E-006  0.6499383E+03  0.7818608E-02  0.9806895E-01
          2   -1    0    0  501    0  0.00000000000E+00  0.00000000000E+00  0.14795854510E+03  0.14795854512E+03  0.25500000000E-02 0.  1.
         -2   -1    0    0    0  501 -0.00000000000E+00 -0.00000000000E+00 -0.71374678461E+03  0.71374678462E+03  0.25500000000E-02 0. -1.
   -5000001    1    1    2    0    0 -0.17875383905E+03  0.90240763090E+02 -0.21017153611E+03  0.38310364771E+03  0.25000000000E+03 0.  0.
    5000001    1    1    2    0    0  0.17875383905E+03 -0.90240763090E+02 -0.35561670340E+03  0.47860168202E+03  0.25000000000E+03 0.  0.
<mgrwt>
<rscale>  0 0.64993826E+03</rscale>
<asrwt>0</asrwt>
<pdfrwt beam="1">  1        2 0.22762853E-01 0.64993826E+03</pdfrwt>
<pdfrwt beam="2">  1       -2 0.10980720E+00 0.64993826E+03</pdfrwt>
<totfact> 0.16307742E+02</totfact>
</mgrwt>
</event>
<event>
 4    1  0.6476857E-006  0.6283378E+03  0.7818608E-02  0.9848298E-01
         -2   -1    0    0    0  501 -0.00000000000E+00  0.00000000000E+00  0.87687767764E+02  0.87687767802E+02  0.25500000000E-02 0. -1.
          2   -1    0    0  501    0  0.00000000000E+00 -0.00000000000E+00 -0.11256083696E+04  0.11256083696E+04  0.25500000000E-02 0.  1.
   -5000001    1    1    2    0    0 -0.17730880839E+03 -0.21572766261E+02 -0.64555671033E+03  0.71494563712E+03  0.25000000000E+03 0.  0.
    5000001    1    1    2    0    0  0.17730880839E+03  0.21572766261E+02 -0.39236389147E+03  0.49835050026E+03  0.25000000000E+03 0.  0.
<mgrwt>
<rscale>  0 0.62833776E+03</rscale>
<asrwt>0</asrwt>
<pdfrwt beam="1">  1        2 0.17317051E+00 0.62833776E+03</pdfrwt>
<pdfrwt beam="2">  1       -2 0.13490427E-01 0.62833776E+03</pdfrwt>
<totfact> 0.88874364E+02</totfact>
</mgrwt>
</event>
<event>
 4    1  0.6476857E-006  0.9448238E+03  0.7818608E-02  0.9371221E-01
         -2   -1    0    0    0  501 -0.00000000000E+00  0.00000000000E+00  0.15922133579E+03  0.15922133581E+03  0.25500000000E-02 0. -1.
          2   -1    0    0  501    0  0.00000000000E+00 -0.00000000000E+00 -0.14016527655E+04  0.14016527655E+04  0.25500000000E-02 0.  1.
   -5000001    1    1    2    0    0 -0.36862503233E+03  0.70750299749E+02 -0.85357668050E+03  0.96539275369E+03  0.25000000000E+03 0.  0.
    5000001    1    1    2    0    0  0.36862503233E+03 -0.70750299749E+02 -0.38885474920E+03  0.59548134761E+03  0.25000000000E+03 0.  0.
<mgrwt>
<rscale>  0 0.94482385E+03</rscale>
<asrwt>0</asrwt>
<pdfrwt beam="1">  1        2 0.21563888E+00 0.94482385E+03</pdfrwt>
<pdfrwt beam="2">  1       -2 0.24495591E-01 0.94482385E+03</pdfrwt>
<totfact> 0.21490853E+02</totfact>
</mgrwt>
</event>
<event>
 4    1  0.6476857E-006  0.1105599E+04  0.7818608E-02  0.9199752E-01
         -2   -1    0    0    0  501 -0.00000000000E+00  0.00000000000E+00  0.14565847341E+03  0.14565847343E+03  0.25500000000E-02 0. -1.
          2   -1    0    0  501    0  0.00000000000E+00 -0.00000000000E+00 -0.20979721021E+04  0.20979721021E+04  0.25500000000E-02 0.  1.
   -5000001    1    1    2    0    0  0.34554849138E+03 -0.34070811122E+03 -0.79922449179E+03  0.96785616969E+03  0.25000000000E+03 0.  0.
    5000001    1    1    2    0    0 -0.34554849138E+03  0.34070811122E+03 -0.11530891369E+04  0.12757744058E+04  0.25000000000E+03 0.  0.
<mgrwt>
<rscale>  0 0.11055992E+04</rscale>
<asrwt>0</asrwt>
<pdfrwt beam="1">  1        2 0.32276492E+00 0.11055992E+04</pdfrwt>
<pdfrwt beam="2">  1       -2 0.22408997E-01 0.11055992E+04</pdfrwt>
<totfact> 0.10247936E+02</totfact>
</mgrwt>
</event>
<event>
 4    1  0.6476857E-006  0.7681996E+03  0.7818608E-02  0.9607223E-01
         -2   -1    0    0    0  501 -0.00000000000E+00  0.00000000000E+00  0.73100549213E+03  0.73100549213E+03  0.25500000000E-02 0. -1.
          2   -1    0    0  501    0  0.00000000000E+00 -0.00000000000E+00 -0.20182154952E+03  0.20182154954E+03  0.25500000000E-02 0.  1.
   -5000001    1    1    2    0    0  0.19045060680E+03  0.15380590572E+03  0.72191157551E+02  0.35726636211E+03  0.25000000000E+03 0.  0.
    5000001    1    1    2    0    0 -0.19045060680E+03 -0.15380590572E+03  0.45699278506E+03  0.57556067956E+03  0.25000000000E+03 0.  0.
<mgrwt>
<rscale>  0 0.76819961E+03</rscale>
<asrwt>0</asrwt>
<pdfrwt beam="1">  1        2 0.31049469E-01 0.76819961E+03</pdfrwt>
<pdfrwt beam="2">  1       -2 0.11246238E+00 0.76819961E+03</pdfrwt>
<totfact> 0.10747788E+02</totfact>
</mgrwt>
</event>
<event>
 4    1  0.6476857E-006  0.7846736E+03  0.7818608E-02  0.9582470E-01
         -2   -1    0    0    0  501 -0.00000000000E+00  0.00000000000E+00  0.28434322724E+03  0.28434322725E+03  0.25500000000E-02 0. -1.
          2   -1    0    0  501    0  0.00000000000E+00 -0.00000000000E+00 -0.54134630688E+03  0.54134630688E+03  0.25500000000E-02 0.  1.
   -5000001    1    1    2    0    0  0.69040349965E+02  0.28003965468E+03 -0.22401728327E+03  0.44257487651E+03  0.25000000000E+03 0.  0.
    5000001    1    1    2    0    0 -0.69040349965E+02 -0.28003965468E+03 -0.32985796370E+02  0.38311465762E+03  0.25000000000E+03 0.  0.
<mgrwt>
<rscale>  0 0.78467358E+03</rscale>
<asrwt>0</asrwt>
<pdfrwt beam="1">  1        2 0.83284047E-01 0.78467358E+03</pdfrwt>
<pdfrwt beam="2">  1       -2 0.43745112E-01 0.78467358E+03</pdfrwt>
<totfact> 0.27988762E+02</totfact>
</mgrwt>
</event>
<event>
 4    1  0.6476857E-006  0.1085085E+04  0.7818608E-02  0.9219852E-01
         -2   -1    0    0    0  501 -0.00000000000E+00  0.00000000000E+00  0.36546556298E+03  0.36546556299E+03  0.25500000000E-02 0. -1.
          2   -1    0    0  501    0  0.00000000000E+00 -0.00000000000E+00 -0.80541756207E+03  0.80541756208E+03  0.25500000000E-02 0.  1.
   -5000001    1    1    2    0    0  0.40331357422E+03  0.10011174145E+03  0.42502593314E+02  0.48681687559E+03  0.25000000000E+03 0.  0.
    5000001    1    1    2    0    0 -0.40331357422E+03 -0.10011174145E+03 -0.48245459241E+03  0.68406624947E+03  0.25000000000E+03 0.  0.
<mgrwt>
<rscale>  0 0.10850850E+04</rscale>
<asrwt>0</asrwt>
<pdfrwt beam="1">  1        2 0.12391039E+00 0.10850850E+04</pdfrwt>
<pdfrwt beam="2">  1       -2 0.56225472E-01 0.10850850E+04</pdfrwt>
<totfact> 0.10075145E+02</totfact>
</mgrwt>
</event>
<event>
 4    1  0.6476857E-006  0.7207414E+03  0.7818608E-02  0.9682405E-01
          2   -1    0    0  501    0  0.00000000000E+00  0.00000000000E+00  0.19905610379E+04  0.19905610379E+04  0.25500000000E-02 0.  1.
         -2   -1    0    0    0  501 -0.00000000000E+00 -0.00000000000E+00 -0.65241431177E+02  0.65241431227E+02  0.25500000000E-02 0. -1.
   -5000001    1    1    2    0    0 -0.21284277808E+03  0.14187159127E+03  0.10882100718E+04  0.11454827615E+04  0.25000000000E+03 0.  0.
    5000001    1    1    2    0    0  0.21284277808E+03 -0.14187159127E+03  0.83710953494E+03  0.91031970762E+03  0.25000000000E+03 0.  0.
<mgrwt>
<rscale>  0 0.72074143E+03</rscale>
<asrwt>0</asrwt>
<pdfrwt beam="1">  1        2 0.30624012E+00 0.72074143E+03</pdfrwt>
<pdfrwt beam="2">  1       -2 0.10037144E-01 0.72074143E+03</pdfrwt>
<totfact> 0.47312574E+02</totfact>
</mgrwt>
</event>
<event>
 4    1  0.6476857E-006  0.6217118E+03  0.7818608E-02  0.9861357E-01
         -2   -1    0    0    0  501 -0.00000000000E+00  0.00000000000E+00  0.44300480957E+02  0.44300481030E+02  0.25500000000E-02 0.  1.
          2   -1    0    0  501    0  0.00000000000E+00 -0.00000000000E+00 -0.21812718031E+04  0.21812718031E+04  0.25500000000E-02 0. -1.
   -5000001    1    1    2    0    0  0.14677233069E+03 -0.53958405608E+02 -0.71632560300E+03  0.77464572296E+03  0.25000000000E+03 0.  0.
    5000001    1    1    2    0    0 -0.14677233069E+03  0.53958405608E+02 -0.14206457192E+04  0.14509265612E+04  0.25000000000E+03 0.  0.
<mgrwt>
<rscale>  0 0.62171180E+03</rscale>
<asrwt>0</asrwt>
<pdfrwt beam="1">  1        2 0.33558020E+00 0.62171180E+03</pdfrwt>
<pdfrwt beam="2">  1       -2 0.68154603E-02 0.62171180E+03</pdfrwt>
<totfact> 0.69735737E+02</totfact>
</mgrwt>
</event>
<event>
 4    1  0.6476857E-006  0.6287792E+03  0.7818608E-02  0.9847434E-01
         -2   -1    0    0    0  501 -0.00000000000E+00  0.00000000000E+00  0.60568192567E+02  0.60568192621E+02  0.25500000000E-02 0. -1.
          2   -1    0    0  501    0  0.00000000000E+00 -0.00000000000E+00 -0.16318929556E+04  0.16318929556E+04  0.25500000000E-02 0.  1.
   -5000001    1    1    2    0    0  0.26836989075E+02  0.17443084192E+03 -0.59166719622E+03  0.66612041980E+03  0.25000000000E+03 0.  0.
    5000001    1    1    2    0    0 -0.26836989075E+02 -0.17443084192E+03 -0.97965756677E+03  0.10263407284E+04  0.25000000000E+03 0.  0.
<mgrwt>
<rscale>  0 0.62877916E+03</rscale>
<asrwt>0</asrwt>
<pdfrwt beam="1">  1        2 0.25106042E+00 0.62877916E+03</pdfrwt>
<pdfrwt beam="2">  1       -2 0.93181847E-02 0.62877916E+03</pdfrwt>
<totfact> 0.84134755E+02</totfact>
</mgrwt>
</event>
<event>
 4    1  0.6476857E-006  0.5257729E+03  0.7818608E-02  0.1007262E+00
          2   -1    0    0  501    0  0.00000000000E+00  0.00000000000E+00  0.13957285569E+03  0.13957285571E+03  0.25500000000E-02 0.  1.
         -2   -1    0    0    0  501 -0.00000000000E+00 -0.00000000000E+00 -0.49514837356E+03  0.49514837357E+03  0.25500000000E-02 0. -1.
   -5000001    1    1    2    0    0  0.76572896878E+02 -0.25789956487E+02 -0.16694012789E+03  0.31128369166E+03  0.25000000000E+03 0.  0.
    5000001    1    1    2    0    0 -0.76572896878E+02  0.25789956487E+02 -0.18863538997E+03  0.32343753762E+03  0.25000000000E+03 0.  0.
<mgrwt>
<rscale>  0 0.52577285E+03</rscale>
<asrwt>0</asrwt>
<pdfrwt beam="1">  1        2 0.21472747E-01 0.52577285E+03</pdfrwt>
<pdfrwt beam="2">  1       -2 0.76176672E-01 0.52577285E+03</pdfrwt>
<totfact> 0.40724694E+02</totfact>
</mgrwt>
</event>
<event>
 4    1  0.6476857E-006  0.9633717E+03  0.7818608E-02  0.9349656E-01
          2   -1    0    0  501    0  0.00000000000E+00  0.00000000000E+00  0.57379355066E+03  0.57379355067E+03  0.25500000000E-02 0.  1.
         -2   -1    0    0    0  501 -0.00000000000E+00 -0.00000000000E+00 -0.40436366400E+03  0.40436366401E+03  0.25500000000E-02 0. -1.
   -5000001    1    1    2    0    0 -0.16200549262E+03  0.27698732838E+03  0.34665398425E+03  0.53444994576E+03  0.25000000000E+03 0.  0.
    5000001    1    1    2    0    0  0.16200549262E+03 -0.27698732838E+03 -0.17722409759E+03  0.44370726892E+03  0.25000000000E+03 0.  0.
<mgrwt>
<rscale>  0 0.96337171E+03</rscale>
<asrwt>0</asrwt>
<pdfrwt beam="1">  1        2 0.88275931E-01 0.96337171E+03</pdfrwt>
<pdfrwt beam="2">  1       -2 0.62209794E-01 0.96337171E+03</pdfrwt>
<totfact> 0.12564596E+02</totfact>
</mgrwt>
</event>
<event>
 4    1  0.6476857E-006  0.1188283E+04  0.7818608E-02  0.9123174E-01
          2   -1    0    0  501    0  0.00000000000E+00  0.00000000000E+00  0.12985936538E+04  0.12985936538E+04  0.25500000000E-02 0.  1.
         -2   -1    0    0    0  501 -0.00000000000E+00 -0.00000000000E+00 -0.27183588039E+03  0.27183588040E+03  0.25500000000E-02 0. -1.
   -5000001    1    1    2    0    0  0.46676497993E+03  0.26812266800E+03  0.54945232343E+03  0.80879983142E+03  0.25000000000E+03 0.  0.
    5000001    1    1    2    0    0 -0.46676497993E+03 -0.26812266800E+03  0.47730545000E+03  0.76162970280E+03  0.25000000000E+03 0.  0.
<mgrwt>
<rscale>  0 0.11882834E+04</rscale>
<asrwt>0</asrwt>
<pdfrwt beam="1">  1        2 0.19978365E+00 0.11882834E+04</pdfrwt>
<pdfrwt beam="2">  1       -2 0.41820903E-01 0.11882834E+04</pdfrwt>
<totfact> 0.88562350E+01</totfact>
</mgrwt>
</event>
<event>
 4    1  0.6476857E-006  0.5949021E+03  0.7818608E-02  0.9916039E-01
          2   -1    0    0  501    0  0.00000000000E+00  0.00000000000E+00  0.18597257507E+04  0.18597257507E+04  0.25500000000E-02 0.  1.
         -2   -1    0    0    0  501 -0.00000000000E+00 -0.00000000000E+00 -0.47575360318E+02  0.47575360387E+02  0.25500000000E-02 0. -1.
   -5000001    1    1    2    0    0 -0.12743946168E+03 -0.16858134356E+02  0.12177761599E+04  0.12498014998E+04  0.25000000000E+03 0.  0.
    5000001    1    1    2    0    0  0.12743946168E+03  0.16858134356E+02  0.59437423048E+03  0.65749961136E+03  0.25000000000E+03 0.  0.
<mgrwt>
<rscale>  0 0.59490209E+03</rscale>
<asrwt>0</asrwt>
<pdfrwt beam="1">  1        2 0.28611163E+00 0.59490209E+03</pdfrwt>
<pdfrwt beam="2">  1       -2 0.73192869E-02 0.59490209E+03</pdfrwt>
<totfact> 0.93284915E+02</totfact>
</mgrwt>
</event>
<event>
 4    1  0.6476857E-006  0.6617219E+03  0.7818608E-02  0.9785029E-01
          2   -1    0    0  501    0  0.00000000000E+00  0.00000000000E+00  0.59935392107E+03  0.59935392108E+03  0.25500000000E-02 0.  1.
         -2   -1    0    0    0  501 -0.00000000000E+00 -0.00000000000E+00 -0.18264497491E+03  0.18264497493E+03  0.25500000000E-02 0. -1.
   -5000001    1    1    2    0    0  0.44300122813E+02 -0.19450846377E+03  0.10826713032E+03  0.33766524084E+03  0.25000000000E+03 0.  0.
    5000001    1    1    2    0    0 -0.44300122813E+02  0.19450846377E+03  0.30844181584E+03  0.44433365517E+03  0.25000000000E+03 0.  0.
<mgrwt>
<rscale>  0 0.66172194E+03</rscale>
<asrwt>0</asrwt>
<pdfrwt beam="1">  1        2 0.92208296E-01 0.66172194E+03</pdfrwt>
<pdfrwt beam="2">  1       -2 0.28099227E-01 0.66172194E+03</pdfrwt>
<totfact> 0.57834798E+02</totfact>
</mgrwt>
</event>
<event>
 4    1  0.6476857E-006  0.5762314E+03  0.7818608E-02  0.9955983E-01
          2   -1    0    0  501    0  0.00000000000E+00  0.00000000000E+00  0.30271559586E+03  0.30271559587E+03  0.25500000000E-02 0.  1.
         -2   -1    0    0    0  501 -0.00000000000E+00 -0.00000000000E+00 -0.27421999587E+03  0.27421999588E+03  0.25500000000E-02 0. -1.
   -5000001    1    1    2    0    0 -0.52897358010E+02  0.12252556054E+03  0.66273070830E+02  0.29103739173E+03  0.25000000000E+03 0.  0.
    5000001    1    1    2    0    0  0.52897358010E+02 -0.12252556054E+03 -0.37777470839E+02  0.28589820002E+03  0.25000000000E+03 0.  0.
<mgrwt>
<rscale>  0 0.57623144E+03</rscale>
<asrwt>0</asrwt>
<pdfrwt beam="1">  1        2 0.46571630E-01 0.57623144E+03</pdfrwt>
<pdfrwt beam="2">  1       -2 0.42187692E-01 0.57623144E+03</pdfrwt>
<totfact> 0.58304133E+02</totfact>
</mgrwt>
</event>
<event>
 4    1  0.6476857E-006  0.5594649E+03  0.7818608E-02  0.9993266E-01
          2   -1    0    0  501    0  0.00000000000E+00  0.00000000000E+00  0.40698297966E+03  0.40698297967E+03  0.25500000000E-02 0.  1.
         -2   -1    0    0    0  501 -0.00000000000E+00 -0.00000000000E+00 -0.19226908093E+03  0.19226908094E+03  0.25500000000E-02 0. -1.
   -5000001    1    1    2    0    0 -0.48583193568E+02 -0.98213714538E+02  0.41817373281E+02  0.27614299399E+03  0.25000000000E+03 0.  0.
    5000001    1    1    2    0    0  0.48583193568E+02  0.98213714538E+02  0.17289652546E+03  0.32310906662E+03  0.25000000000E+03 0.  0.
<mgrwt>
<rscale>  0 0.55946490E+03</rscale>
<asrwt>0</asrwt>
<pdfrwt beam="1">  1        2 0.62612766E-01 0.55946490E+03</pdfrwt>
<pdfrwt beam="2">  1       -2 0.29579859E-01 0.55946490E+03</pdfrwt>
<totfact> 0.82415823E+02</totfact>
</mgrwt>
</event>
<event>
 4    1  0.6476857E-006  0.8650391E+03  0.7818608E-02  0.9470371E-01
         -2   -1    0    0    0  501 -0.00000000000E+00  0.00000000000E+00  0.44668049318E+03  0.44668049319E+03  0.25500000000E-02 0. -1.
          2   -1    0    0  501    0  0.00000000000E+00 -0.00000000000E+00 -0.41880755000E+03  0.41880755001E+03  0.25500000000E-02 0.  1.
   -5000001    1    1    2    0    0  0.14803244151E+03  0.30362357233E+03  0.11632376685E+03  0.43604139270E+03  0.25000000000E+03 0.  0.
    5000001    1    1    2    0    0 -0.14803244151E+03 -0.30362357233E+03 -0.88450823677E+02  0.42944665050E+03  0.25000000000E+03 0.  0.
<mgrwt>
<rscale>  0 0.86503910E+03</rscale>
<asrwt>0</asrwt>
<pdfrwt beam="1">  1        2 0.64431931E-01 0.86503910E+03</pdfrwt>
<pdfrwt beam="2">  1       -2 0.68720076E-01 0.86503910E+03</pdfrwt>
<totfact> 0.14689217E+02</totfact>
</mgrwt>
</event>
<event>
 4    1  0.6476857E-006  0.1248784E+04  0.7818608E-02  0.9071196E-01
         -2   -1    0    0    0  501 -0.00000000000E+00  0.00000000000E+00  0.12618779228E+04  0.12618779228E+04  0.25500000000E-02 0. -1.
          2   -1    0    0  501    0  0.00000000000E+00 -0.00000000000E+00 -0.30895633681E+03  0.30895633682E+03  0.25500000000E-02 0.  1.
   -5000001    1    1    2    0    0  0.27840425758E+03 -0.48843323198E+03  0.34280885442E+03  0.70433930986E+03  0.25000000000E+03 0.  0.
    5000001    1    1    2    0    0 -0.27840425758E+03  0.48843323198E+03  0.61011273156E+03  0.86649494976E+03  0.25000000000E+03 0.  0.
<mgrwt>
<rscale>  0 0.12487837E+04</rscale>
<asrwt>0</asrwt>
<pdfrwt beam="1">  1        2 0.47531744E-01 0.12487837E+04</pdfrwt>
<pdfrwt beam="2">  1       -2 0.19413507E+00 0.12487837E+04</pdfrwt>
<totfact> 0.15184156E+01</totfact>
</mgrwt>
</event>
<event>
 4    1  0.6476857E-006  0.1011150E+04  0.7818608E-02  0.9296400E-01
          2   -1    0    0  501    0  0.00000000000E+00  0.00000000000E+00  0.67111122567E+03  0.67111122568E+03  0.25500000000E-02 0.  1.
         -2   -1    0    0    0  501 -0.00000000000E+00 -0.00000000000E+00 -0.38086974987E+03  0.38086974988E+03  0.25500000000E-02 0. -1.
   -5000001    1    1    2    0    0 -0.37904262813E+03 -0.15688947137E+03 -0.18779205093E+02  0.48077050525E+03  0.25000000000E+03 0.  0.
    5000001    1    1    2    0    0  0.37904262813E+03  0.15688947137E+03  0.30902068090E+03  0.57121047031E+03  0.25000000000E+03 0.  0.
<mgrwt>
<rscale>  0 0.10111498E+04</rscale>
<asrwt>0</asrwt>
<pdfrwt beam="1">  1        2 0.10324788E+00 0.10111498E+04</pdfrwt>
<pdfrwt beam="2">  1       -2 0.58595346E-01 0.10111498E+04</pdfrwt>
<totfact> 0.11744775E+02</totfact>
</mgrwt>
</event>
<event>
 4    1  0.6476857E-006  0.8210117E+03  0.7818608E-02  0.9530092E-01
          2   -1    0    0  501    0  0.00000000000E+00  0.00000000000E+00  0.19820280681E+04  0.19820280681E+04  0.25500000000E-02 0.  1.
         -2   -1    0    0    0  501 -0.00000000000E+00 -0.00000000000E+00 -0.85021528291E+02  0.85021528329E+02  0.25500000000E-02 0. -1.
   -5000001    1    1    2    0    0  0.21142364896E+03  0.23397263293E+03  0.74440133267E+03  0.84621303250E+03  0.25000000000E+03 0.  0.
    5000001    1    1    2    0    0 -0.21142364896E+03 -0.23397263293E+03  0.11526052072E+04  0.12208365640E+04  0.25000000000E+03 0.  0.
<mgrwt>
<rscale>  0 0.82101171E+03</rscale>
<asrwt>0</asrwt>
<pdfrwt beam="1">  1        2 0.30492736E+00 0.82101171E+03</pdfrwt>
<pdfrwt beam="2">  1       -2 0.13080237E-01 0.82101171E+03</pdfrwt>
<totfact> 0.30686145E+02</totfact>
</mgrwt>
</event>
<event>
 4    1  0.6476857E-006  0.7509865E+03  0.7818608E-02  0.9633804E-01
          2   -1    0    0  501    0  0.00000000000E+00  0.00000000000E+00  0.45564574593E+03  0.45564574593E+03  0.25500000000E-02 0.  1.
         -2   -1    0    0    0  501 -0.00000000000E+00 -0.00000000000E+00 -0.30944038210E+03  0.30944038211E+03  0.25500000000E-02 0. -1.
   -5000001    1    1    2    0    0 -0.19424811204E+03 -0.11632585042E+03  0.24121953750E+03  0.41466962486E+03  0.25000000000E+03 0.  0.
    5000001    1    1    2    0    0  0.19424811204E+03  0.11632585042E+03 -0.95014173681E+02  0.35041650319E+03  0.25000000000E+03 0.  0.
<mgrwt>
<rscale>  0 0.75098653E+03</rscale>
<asrwt>0</asrwt>
<pdfrwt beam="1">  1        2 0.70099345E-01 0.75098653E+03</pdfrwt>
<pdfrwt beam="2">  1       -2 0.47606213E-01 0.75098653E+03</pdfrwt>
<totfact> 0.28900792E+02</totfact>
</mgrwt>
</event>
<event>
 4    1  0.6476857E-006  0.6276182E+03  0.7818608E-02  0.9849708E-01
          2   -1    0    0  501    0  0.00000000000E+00  0.00000000000E+00  0.21263248014E+03  0.21263248016E+03  0.25500000000E-02 0.  1.
         -2   -1    0    0    0  501 -0.00000000000E+00 -0.00000000000E+00 -0.46312848638E+03  0.46312848639E+03  0.25500000000E-02 0. -1.
   -5000001    1    1    2    0    0  0.18915853286E+03 -0.13658710295E+02 -0.12208172088E+03  0.33670678267E+03  0.25000000000E+03 0.  0.
    5000001    1    1    2    0    0 -0.18915853286E+03  0.13658710295E+02 -0.12841428535E+03  0.33905418387E+03  0.25000000000E+03 0.  0.
<mgrwt>
<rscale>  0 0.62761822E+03</rscale>
<asrwt>0</asrwt>
<pdfrwt beam="1">  1        2 0.32712689E-01 0.62761822E+03</pdfrwt>
<pdfrwt beam="2">  1       -2 0.71250536E-01 0.62761822E+03</pdfrwt>
<totfact> 0.29162462E+02</totfact>
</mgrwt>
</event>
<event>
 4    1  0.6476857E-006  0.8313747E+03  0.7818608E-02  0.9515682E-01
          2   -1    0    0  501    0  0.00000000000E+00  0.00000000000E+00  0.15406766970E+04  0.15406766970E+04  0.25500000000E-02 0.  1.
         -2   -1    0    0    0  501 -0.00000000000E+00 -0.00000000000E+00 -0.11215588471E+03  0.11215588474E+03  0.25500000000E-02 0. -1.
   -5000001    1    1    2    0    0 -0.45969512370E+02  0.32696395533E+03  0.78531371321E+03  0.88782670173E+03  0.25000000000E+03 0.  0.
    5000001    1    1    2    0    0  0.45969512370E+02 -0.32696395533E+03  0.64320709908E+03  0.76500588002E+03  0.25000000000E+03 0.  0.
<mgrwt>
<rscale>  0 0.83137466E+03</rscale>
<asrwt>0</asrwt>
<pdfrwt beam="1">  1        2 0.23702716E+00 0.83137466E+03</pdfrwt>
<pdfrwt beam="2">  1       -2 0.17254753E-01 0.83137466E+03</pdfrwt>
<totfact> 0.33499442E+02</totfact>
</mgrwt>
</event>
<event>
 4    1  0.6476857E-006  0.1010722E+04  0.7818608E-02  0.9296863E-01
         -2   -1    0    0    0  501 -0.00000000000E+00  0.00000000000E+00  0.19602744086E+04  0.19602744086E+04  0.25500000000E-02 0. -1.
          2   -1    0    0  501    0  0.00000000000E+00 -0.00000000000E+00 -0.13028267562E+03  0.13028267564E+03  0.25500000000E-02 0.  1.
   -5000001    1    1    2    0    0 -0.61223054848E+02 -0.42409611417E+03  0.11142917197E+04  0.12197343207E+04  0.25000000000E+03 0.  0.
    5000001    1    1    2    0    0  0.61223054848E+02  0.42409611417E+03  0.71570001330E+03  0.87082276356E+03  0.25000000000E+03 0.  0.
<mgrwt>
<rscale>  0 0.10107221E+04</rscale>
<asrwt>0</asrwt>
<pdfrwt beam="1">  1        2 0.20043489E-01 0.10107221E+04</pdfrwt>
<pdfrwt beam="2">  1       -2 0.30158068E+00 0.10107221E+04</pdfrwt>
<totfact> 0.89350471E+00</totfact>
</mgrwt>
</event>
<event>
 4    1  0.6476857E-006  0.5524659E+03  0.7818608E-02  0.1000925E+00
          2   -1    0    0  501    0  0.00000000000E+00  0.00000000000E+00  0.30615395260E+04  0.30615395260E+04  0.25500000000E-02 0.  1.
         -2   -1    0    0    0  501 -0.00000000000E+00 -0.00000000000E+00 -0.24923616792E+02  0.24923616923E+02  0.25500000000E-02 0. -1.
   -5000001    1    1    2    0    0  0.70779197591E+01 -0.76776489455E+02  0.20136035535E+04  0.20305280094E+04  0.25000000000E+03 0.  0.
    5000001    1    1    2    0    0 -0.70779197591E+01  0.76776489455E+02  0.10230123557E+04  0.10559351335E+04  0.25000000000E+03 0.  0.
<mgrwt>
<rscale>  0 0.55246588E+03</rscale>
<asrwt>0</asrwt>
<pdfrwt beam="1">  1        2 0.47100609E+00 0.55246588E+03</pdfrwt>
<pdfrwt beam="2">  1       -2 0.38344025E-02 0.55246588E+03</pdfrwt>
<totfact> 0.53550334E+02</totfact>
</mgrwt>
</event>
<event>
 4    1  0.6476857E-006  0.6666791E+03  0.7818608E-02  0.9775976E-01
         -2   -1    0    0    0  501 -0.00000000000E+00  0.00000000000E+00  0.45562127053E+02  0.45562127124E+02  0.25500000000E-02 0. -1.
          2   -1    0    0  501    0  0.00000000000E+00 -0.00000000000E+00 -0.24387633082E+04  0.24387633082E+04  0.25500000000E-02 0.  1.
   -5000001    1    1    2    0    0 -0.13186228883E+03  0.17409802672E+03 -0.13094721915E+04  0.13508942247E+04  0.25000000000E+03 0.  0.
    5000001    1    1    2    0    0  0.13186228883E+03 -0.17409802672E+03 -0.10837289896E+04  0.11334312106E+04  0.25000000000E+03 0.  0.
<mgrwt>
<rscale>  0 0.66667906E+03</rscale>
<asrwt>0</asrwt>
<pdfrwt beam="1">  1        2 0.37519425E+00 0.66667906E+03</pdfrwt>
<pdfrwt beam="2">  1       -2 0.70095599E-02 0.66667906E+03</pdfrwt>
<totfact> 0.47865431E+02</totfact>
</mgrwt>
</event>
<event>
 4    1  0.6476857E-006  0.5841393E+03  0.7818608E-02  0.9938869E-01
          2   -1    0    0  501    0  0.00000000000E+00  0.00000000000E+00  0.22329506027E+04  0.22329506027E+04  0.25500000000E-02 0.  1.
         -2   -1    0    0    0  501 -0.00000000000E+00 -0.00000000000E+00 -0.38202673331E+02  0.38202673416E+02  0.25500000000E-02 0. -1.
   -5000001    1    1    2    0    0 -0.13270233343E+03 -0.71938767188E+02  0.11145813208E+04  0.11522051103E+04  0.25000000000E+03 0.  0.
    5000001    1    1    2    0    0  0.13270233343E+03  0.71938767188E+02  0.10801666086E+04  0.11189481658E+04  0.25000000000E+03 0.  0.
<mgrwt>
<rscale>  0 0.58413931E+03</rscale>
<asrwt>0</asrwt>
<pdfrwt beam="1">  1        2 0.34353096E+00 0.58413931E+03</pdfrwt>
<pdfrwt beam="2">  1       -2 0.58773328E-02 0.58413931E+03</pdfrwt>
<totfact> 0.82691070E+02</totfact>
</mgrwt>
</event>
<event>
 4    1  0.6476857E-006  0.5441079E+03  0.7818608E-02  0.1002867E+00
         -2   -1    0    0    0  501 -0.00000000000E+00  0.00000000000E+00  0.28010777974E+03  0.28010777975E+03  0.25500000000E-02 0. -1.
          2   -1    0    0  501    0  0.00000000000E+00 -0.00000000000E+00 -0.26423169950E+03  0.26423169951E+03  0.25500000000E-02 0.  1.
   -5000001    1    1    2    0    0 -0.15328985499E+02 -0.98168908828E+02 -0.32591449540E+02  0.27098766584E+03  0.25000000000E+03 0.  0.
    5000001    1    1    2    0    0  0.15328985499E+02  0.98168908828E+02  0.48467529784E+02  0.27335181342E+03  0.25000000000E+03 0.  0.
<mgrwt>
<rscale>  0 0.54410791E+03</rscale>
<asrwt>0</asrwt>
<pdfrwt beam="1">  1        2 0.40651031E-01 0.54410791E+03</pdfrwt>
<pdfrwt beam="2">  1       -2 0.43093505E-01 0.54410791E+03</pdfrwt>
<totfact> 0.64992892E+02</totfact>
</mgrwt>
</event>
<event>
 4    1  0.6476857E-006  0.1015047E+04  0.7818608E-02  0.9292193E-01
          2   -1    0    0  501    0  0.00000000000E+00  0.00000000000E+00  0.61757320489E+03  0.61757320490E+03  0.25500000000E-02 0.  1.
         -2   -1    0    0    0  501 -0.00000000000E+00 -0.00000000000E+00 -0.41708466441E+03  0.41708466442E+03  0.25500000000E-02 0. -1.
   -5000001    1    1    2    0    0 -0.16887650315E+03  0.32110404728E+03 -0.15652160520E+03  0.46757469498E+03  0.25000000000E+03 0.  0.
    5000001    1    1    2    0    0  0.16887650315E+03 -0.32110404728E+03  0.35701014568E+03  0.56708317433E+03  0.25000000000E+03 0.  0.
<mgrwt>
<rscale>  0 0.10150474E+04</rscale>
<asrwt>0</asrwt>
<pdfrwt beam="1">  1        2 0.95011261E-01 0.10150474E+04</pdfrwt>
<pdfrwt beam="2">  1       -2 0.64166872E-01 0.10150474E+04</pdfrwt>
<totfact> 0.10729271E+02</totfact>
</mgrwt>
</event>
<event>
 4    1  0.6476857E-006  0.5820335E+03  0.7818608E-02  0.9943398E-01
          2   -1    0    0  501    0  0.00000000000E+00  0.00000000000E+00  0.64095914126E+03  0.64095914126E+03  0.25500000000E-02 0.  1.
         -2   -1    0    0    0  501 -0.00000000000E+00 -0.00000000000E+00 -0.13213126330E+03  0.13213126333E+03  0.25500000000E-02 0. -1.
   -5000001    1    1    2    0    0  0.13422692029E+03 -0.64485207414E+02  0.24917902509E+03  0.38309971894E+03  0.25000000000E+03 0.  0.
    5000001    1    1    2    0    0 -0.13422692029E+03  0.64485207414E+02  0.25964885286E+03  0.38999068566E+03  0.25000000000E+03 0.  0.
<mgrwt>
<rscale>  0 0.58203347E+03</rscale>
<asrwt>0</asrwt>
<pdfrwt beam="1">  1        2 0.98609100E-01 0.58203347E+03</pdfrwt>
<pdfrwt beam="2">  1       -2 0.20327886E-01 0.58203347E+03</pdfrwt>
<totfact> 0.95262846E+02</totfact>
</mgrwt>
</event>
<event>
 4    1  0.6476857E-006  0.7971854E+03  0.7818608E-02  0.9564100E-01
          2   -1    0    0  501    0  0.00000000000E+00  0.00000000000E+00  0.64202312786E+03  0.64202312787E+03  0.25500000000E-02 0.  1.
         -2   -1    0    0    0  501 -0.00000000000E+00 -0.00000000000E+00 -0.24746172160E+03  0.24746172161E+03  0.25500000000E-02 0. -1.
   -5000001    1    1    2    0    0 -0.13829060006E+03  0.27180810499E+03  0.26207498441E+03  0.47348414277E+03  0.25000000000E+03 0.  0.
    5000001    1    1    2    0    0  0.13829060006E+03 -0.27180810499E+03  0.13248642186E+03  0.41600070670E+03  0.25000000000E+03 0.  0.
<mgrwt>
<rscale>  0 0.79718542E+03</rscale>
<asrwt>0</asrwt>
<pdfrwt beam="1">  1        2 0.98772789E-01 0.79718542E+03</pdfrwt>
<pdfrwt beam="2">  1       -2 0.38071034E-01 0.79718542E+03</pdfrwt>
<totfact> 0.29905921E+02</totfact>
</mgrwt>
</event>
<event>
 4    1  0.6476857E-006  0.1068235E+04  0.7818608E-02  0.9236717E-01
          2   -1    0    0  501    0  0.00000000000E+00  0.00000000000E+00  0.29131328169E+04  0.29131328169E+04  0.25500000000E-02 0.  1.
         -2   -1    0    0    0  501 -0.00000000000E+00 -0.00000000000E+00 -0.97929542220E+02  0.97929542253E+02  0.25500000000E-02 0. -1.
   -5000001    1    1    2    0    0  0.40278945631E+03  0.79433269354E+02  0.20640244324E+04  0.21192559657E+04  0.25000000000E+03 0.  0.
    5000001    1    1    2    0    0 -0.40278945631E+03 -0.79433269354E+02  0.75117884221E+03  0.89180639344E+03  0.25000000000E+03 0.  0.
<mgrwt>
<rscale>  0 0.10682355E+04</rscale>
<asrwt>0</asrwt>
<pdfrwt beam="1">  1        2 0.44817432E+00 0.10682355E+04</pdfrwt>
<pdfrwt beam="2">  1       -2 0.15066082E-01 0.10682355E+04</pdfrwt>
<totfact> 0.69628026E+01</totfact>
</mgrwt>
</event>
<event>
 4    1  0.6476857E-006  0.7889885E+03  0.7818608E-02  0.9576094E-01
          2   -1    0    0  501    0  0.00000000000E+00  0.00000000000E+00  0.15100839064E+04  0.15100839064E+04  0.25500000000E-02 0.  1.
         -2   -1    0    0    0  501 -0.00000000000E+00 -0.00000000000E+00 -0.10305764981E+03  0.10305764984E+03  0.25500000000E-02 0. -1.
   -5000001    1    1    2    0    0  0.17821419637E+03 -0.24746334882E+03  0.72658051239E+03  0.82669078245E+03  0.25000000000E+03 0.  0.
    5000001    1    1    2    0    0 -0.17821419637E+03  0.24746334882E+03  0.68044574415E+03  0.78645077375E+03  0.25000000000E+03 0.  0.
<mgrwt>
<rscale>  0 0.78898846E+03</rscale>
<asrwt>0</asrwt>
<pdfrwt beam="1">  1        2 0.23232061E+00 0.78898846E+03</pdfrwt>
<pdfrwt beam="2">  1       -2 0.15855022E-01 0.78898846E+03</pdfrwt>
<totfact> 0.40368397E+02</totfact>
</mgrwt>
</event>
<event>
 4    1  0.6476857E-006  0.5563697E+03  0.7818608E-02  0.1000030E+00
          2   -1    0    0  501    0  0.00000000000E+00  0.00000000000E+00  0.26594426138E+04  0.26594426138E+04  0.25500000000E-02 0.  1.
         -2   -1    0    0    0  501 -0.00000000000E+00 -0.00000000000E+00 -0.29098881128E+02  0.29098881240E+02  0.25500000000E-02 0. -1.
   -5000001    1    1    2    0    0  0.86476402386E+02  0.48498157420E+02  0.97154975946E+03  0.10080868884E+04  0.25000000000E+03 0.  0.
    5000001    1    1    2    0    0 -0.86476402386E+02 -0.48498157420E+02  0.16587939732E+04  0.16804546067E+04  0.25000000000E+03 0.  0.
<mgrwt>
<rscale>  0 0.55636968E+03</rscale>
<asrwt>0</asrwt>
<pdfrwt beam="1">  1        2 0.40914500E+00 0.55636968E+03</pdfrwt>
<pdfrwt beam="2">  1       -2 0.44767511E-02 0.55636968E+03</pdfrwt>
<totfact> 0.73014845E+02</totfact>
</mgrwt>
</event>
<event>
 4    1  0.6476857E-006  0.6176792E+03  0.7818608E-02  0.9869391E-01
          2   -1    0    0  501    0  0.00000000000E+00  0.00000000000E+00  0.11416603234E+04  0.11416603234E+04  0.25500000000E-02 0.  1.
         -2   -1    0    0    0  501 -0.00000000000E+00 -0.00000000000E+00 -0.83546651708E+02  0.83546651747E+02  0.25500000000E-02 0. -1.
   -5000001    1    1    2    0    0  0.62590699243E+02  0.15338087336E+03  0.67533867913E+03  0.73893546367E+03  0.25000000000E+03 0.  0.
    5000001    1    1    2    0    0 -0.62590699243E+02 -0.15338087336E+03  0.38277499256E+03  0.48627151148E+03  0.25000000000E+03 0.  0.
<mgrwt>
<rscale>  0 0.61767920E+03</rscale>
<asrwt>0</asrwt>
<pdfrwt beam="1">  1        2 0.17564004E+00 0.61767920E+03</pdfrwt>
<pdfrwt beam="2">  1       -2 0.12853332E-01 0.61767920E+03</pdfrwt>
<totfact> 0.94242803E+02</totfact>
</mgrwt>
</event>
<event>
 4    1  0.6476857E-006  0.6466553E+03  0.7818608E-02  0.9813076E-01
          2   -1    0    0  501    0  0.00000000000E+00  0.00000000000E+00  0.10013820586E+04  0.10013820586E+04  0.25500000000E-02 0.  1.
         -2   -1    0    0    0  501 -0.00000000000E+00 -0.00000000000E+00 -0.10439648180E+03  0.10439648183E+03  0.25500000000E-02 0. -1.
   -5000001    1    1    2    0    0 -0.33987457749E+02 -0.17497888965E+03  0.27521681071E+03  0.41233124064E+03  0.25000000000E+03 0.  0.
    5000001    1    1    2    0    0  0.33987457749E+02  0.17497888965E+03  0.62176876610E+03  0.69344729980E+03  0.25000000000E+03 0.  0.
<mgrwt>
<rscale>  0 0.64665528E+03</rscale>
<asrwt>0</asrwt>
<pdfrwt beam="1">  1        2 0.15405877E+00 0.64665528E+03</pdfrwt>
<pdfrwt beam="2">  1       -2 0.16060998E-01 0.64665528E+03</pdfrwt>
<totfact> 0.79014964E+02</totfact>
</mgrwt>
</event>
<event>
 4    1  0.6476857E-006  0.2413995E+04  0.7818608E-02  0.8434283E-01
         -2   -1    0    0    0  501 -0.00000000000E+00  0.00000000000E+00  0.49767920028E+03  0.49767920029E+03  0.25500000000E-02 0. -1.
          2   -1    0    0  501    0  0.00000000000E+00 -0.00000000000E+00 -0.29272720890E+04  0.29272720890E+04  0.25500000000E-02 0.  1.
   -5000001    1    1    2    0    0 -0.11712930414E+04  0.12451177542E+03 -0.13327512435E+04  0.17961504525E+04  0.25000000000E+03 0.  0.
    5000001    1    1    2    0    0  0.11712930414E+04 -0.12451177542E+03 -0.10968416452E+04  0.16288008367E+04  0.25000000000E+03 0.  0.
<mgrwt>
<rscale>  0 0.24139946E+04</rscale>
<asrwt>0</asrwt>
<pdfrwt beam="1">  1        2 0.45034954E+00 0.24139946E+04</pdfrwt>
<pdfrwt beam="2">  1       -2 0.76566033E-01 0.24139946E+04</pdfrwt>
<totfact> 0.26481424E+00</totfact>
</mgrwt>
</event>
<event>
 4    1  0.6476857E-006  0.7786761E+03  0.7818608E-02  0.9591406E-01
         -2   -1    0    0    0  501 -0.00000000000E+00  0.00000000000E+00  0.18672228501E+03  0.18672228503E+03  0.25500000000E-02 0. -1.
          2   -1    0    0  501    0  0.00000000000E+00 -0.00000000000E+00 -0.81181581689E+03  0.81181581689E+03  0.25500000000E-02 0.  1.
   -5000001    1    1    2    0    0 -0.33789690929E+02  0.21859644542E+03 -0.55570147509E+02  0.33839945399E+03  0.25000000000E+03 0.  0.
    5000001    1    1    2    0    0  0.33789690929E+02 -0.21859644542E+03 -0.56952338437E+03  0.66013864794E+03  0.25000000000E+03 0.  0.
<mgrwt>
<rscale>  0 0.77867607E+03</rscale>
<asrwt>0</asrwt>
<pdfrwt beam="1">  1        2 0.12489474E+00 0.77867607E+03</pdfrwt>
<pdfrwt beam="2">  1       -2 0.28726506E-01 0.77867607E+03</pdfrwt>
<totfact> 0.37722781E+02</totfact>
</mgrwt>
</event>
<event>
 4    1  0.6476857E-006  0.1145188E+04  0.7818608E-02  0.9162234E-01
          2   -1    0    0  501    0  0.00000000000E+00  0.00000000000E+00  0.26659170291E+04  0.26659170291E+04  0.25500000000E-02 0.  1.
         -2   -1    0    0    0  501 -0.00000000000E+00 -0.00000000000E+00 -0.12298353946E+03  0.12298353948E+03  0.25500000000E-02 0. -1.
   -5000001    1    1    2    0    0  0.49805022991E+03  0.13150341433E+03  0.12814285726E+04  0.14035335287E+04  0.25000000000E+03 0.  0.
    5000001    1    1    2    0    0 -0.49805022991E+03 -0.13150341433E+03  0.12615049170E+04  0.13853670398E+04  0.25000000000E+03 0.  0.
<mgrwt>
<rscale>  0 0.11451880E+04</rscale>
<asrwt>0</asrwt>
<pdfrwt beam="1">  1        2 0.41014109E+00 0.11451880E+04</pdfrwt>
<pdfrwt beam="2">  1       -2 0.18920544E-01 0.11451880E+04</pdfrwt>
<totfact> 0.65572925E+01</totfact>
</mgrwt>
</event>
<event>
 4    1  0.6476857E-006  0.1638690E+04  0.7818608E-02  0.8797126E-01
         -2   -1    0    0    0  501 -0.00000000000E+00  0.00000000000E+00  0.25056685242E+03  0.25056685243E+03  0.25500000000E-02 0. -1.
          2   -1    0    0  501    0  0.00000000000E+00 -0.00000000000E+00 -0.26792293433E+04  0.26792293433E+04  0.25500000000E-02 0.  1.
   -5000001    1    1    2    0    0 -0.27163555896E+03  0.70754417195E+03 -0.88262387347E+03  0.11899283735E+04  0.25000000000E+03 0.  0.
    5000001    1    1    2    0    0  0.27163555896E+03 -0.70754417195E+03 -0.15460386175E+04  0.17398678222E+04  0.25000000000E+03 0.  0.
<mgrwt>
<rscale>  0 0.16386898E+04</rscale>
<asrwt>0</asrwt>
<pdfrwt beam="1">  1        2 0.41218911E+00 0.16386898E+04</pdfrwt>
<pdfrwt beam="2">  1       -2 0.38548748E-01 0.16386898E+04</pdfrwt>
<totfact> 0.16656383E+01</totfact>
</mgrwt>
</event>
<event>
 4    1  0.6476857E-006  0.5429850E+03  0.7818608E-02  0.1003131E+00
          2   -1    0    0  501    0  0.00000000000E+00  0.00000000000E+00  0.75459622873E+02  0.75459622916E+02  0.25500000000E-02 0.  1.
         -2   -1    0    0    0  501 -0.00000000000E+00 -0.00000000000E+00 -0.97678978310E+03  0.97678978310E+03  0.25500000000E-02 0. -1.
   -5000001    1    1    2    0    0 -0.71826317662E+02 -0.54618654219E+02 -0.55796882346E+03  0.61803836876E+03  0.25000000000E+03 0.  0.
    5000001    1    1    2    0    0  0.71826317662E+02  0.54618654219E+02 -0.34336133676E+03  0.43421103726E+03  0.25000000000E+03 0.  0.
<mgrwt>
<rscale>  0 0.54298504E+03</rscale>
<asrwt>0</asrwt>
<pdfrwt beam="1">  1        2 0.11609173E-01 0.54298504E+03</pdfrwt>
<pdfrwt beam="2">  1       -2 0.15027534E+00 0.54298504E+03</pdfrwt>
<totfact> 0.16701222E+02</totfact>
</mgrwt>
</event>
<event>
 4    1  0.6476857E-006  0.8109350E+03  0.7818608E-02  0.9544323E-01
         -2   -1    0    0    0  501 -0.00000000000E+00  0.00000000000E+00  0.45594885781E+03  0.45594885782E+03  0.25500000000E-02 0. -1.
          2   -1    0    0  501    0  0.00000000000E+00 -0.00000000000E+00 -0.36057532290E+03  0.36057532291E+03  0.25500000000E-02 0.  1.
   -5000001    1    1    2    0    0  0.15212134362E+02  0.31537898230E+03  0.36716979448E+00  0.40273495791E+03  0.25000000000E+03 0.  0.
    5000001    1    1    2    0    0 -0.15212134362E+02 -0.31537898230E+03  0.95006365118E+02  0.41378922282E+03  0.25000000000E+03 0.  0.
<mgrwt>
<rscale>  0 0.81093503E+03</rscale>
<asrwt>0</asrwt>
<pdfrwt beam="1">  1        2 0.55473127E-01 0.81093503E+03</pdfrwt>
<pdfrwt beam="2">  1       -2 0.70145977E-01 0.81093503E+03</pdfrwt>
<totfact> 0.16660881E+02</totfact>
</mgrwt>
</event>
<event>
 4    1  0.6476857E-006  0.5810447E+03  0.7818608E-02  0.9945532E-01
         -2   -1    0    0    0  501 -0.00000000000E+00  0.00000000000E+00  0.28170906097E+02  0.28170906213E+02  0.25500000000E-02 0.  1.
          2   -1    0    0  501    0  0.00000000000E+00 -0.00000000000E+00 -0.29961131240E+04  0.29961131240E+04  0.25500000000E-02 0. -1.
   -5000001    1    1    2    0    0  0.53063528637E+02 -0.74385355421E+02 -0.20899418501E+04  0.21068236414E+04  0.25000000000E+03 0.  0.
    5000001    1    1    2    0    0 -0.53063528637E+02  0.74385355421E+02 -0.87800036774E+03  0.91746038875E+03  0.25000000000E+03 0.  0.
<mgrwt>
<rscale>  0 0.58104465E+03</rscale>
<asrwt>0</asrwt>
<pdfrwt beam="1">  1        2 0.46094023E+00 0.58104465E+03</pdfrwt>
<pdfrwt beam="2">  1       -2 0.43339879E-02 0.58104465E+03</pdfrwt>
<totfact> 0.48478843E+02</totfact>
</mgrwt>
</event>
<event>
 4    1  0.6476857E-006  0.8449114E+03  0.7818608E-02  0.9497192E-01
         -2   -1    0    0    0  501 -0.00000000000E+00  0.00000000000E+00  0.18724768639E+03  0.18724768641E+03  0.25500000000E-02 0. -1.
          2   -1    0    0  501    0  0.00000000000E+00 -0.00000000000E+00 -0.95311620552E+03  0.95311620552E+03  0.25500000000E-02 0.  1.
   -5000001    1    1    2    0    0 -0.27019122562E+03 -0.20459496549E+03 -0.42782839124E+03  0.60033284989E+03  0.25000000000E+03 0.  0.
    5000001    1    1    2    0    0  0.27019122562E+03  0.20459496549E+03 -0.33804012789E+03  0.54003104204E+03  0.25000000000E+03 0.  0.
<mgrwt>
<rscale>  0 0.84491137E+03</rscale>
<asrwt>0</asrwt>
<pdfrwt beam="1">  1        2 0.14663326E+00 0.84491137E+03</pdfrwt>
<pdfrwt beam="2">  1       -2 0.28807337E-01 0.84491137E+03</pdfrwt>
<totfact> 0.29970098E+02</totfact>
</mgrwt>
</event>
<event>
 4    1  0.6476857E-006  0.6952862E+03  0.7818608E-02  0.9725328E-01
         -2   -1    0    0    0  501 -0.00000000000E+00  0.00000000000E+00  0.16174789560E+03  0.16174789562E+03  0.25500000000E-02 0. -1.
          2   -1    0    0  501    0  0.00000000000E+00 -0.00000000000E+00 -0.74718570401E+03  0.74718570402E+03  0.25500000000E-02 0.  1.
   -5000001    1    1    2    0    0  0.11587214311E+03 -0.15314969749E+03 -0.10114761659E+03  0.33107706615E+03  0.25000000000E+03 0.  0.
    5000001    1    1    2    0    0 -0.11587214311E+03  0.15314969749E+03 -0.48429019183E+03  0.57785653348E+03  0.25000000000E+03 0.  0.
<mgrwt>
<rscale>  0 0.69528617E+03</rscale>
<asrwt>0</asrwt>
<pdfrwt beam="1">  1        2 0.11495164E+00 0.69528617E+03</pdfrwt>
<pdfrwt beam="2">  1       -2 0.24884292E-01 0.69528617E+03</pdfrwt>
<totfact> 0.54790277E+02</totfact>
</mgrwt>
</event>
<event>
 4    1  0.6476857E-006  0.7208395E+03  0.7818608E-02  0.9682243E-01
         -2   -1    0    0    0  501 -0.00000000000E+00  0.00000000000E+00  0.33001280109E+03  0.33001280110E+03  0.25500000000E-02 0. -1.
          2   -1    0    0  501    0  0.00000000000E+00 -0.00000000000E+00 -0.39362831809E+03  0.39362831810E+03  0.25500000000E-02 0.  1.
   -5000001    1    1    2    0    0  0.19303647127E+03  0.17360024508E+03 -0.33316769833E+02  0.36195321726E+03  0.25000000000E+03 0.  0.
    5000001    1    1    2    0    0 -0.19303647127E+03 -0.17360024508E+03 -0.30298747173E+02  0.36168790194E+03  0.25000000000E+03 0.  0.
<mgrwt>
<rscale>  0 0.72083947E+03</rscale>
<asrwt>0</asrwt>
<pdfrwt beam="1">  1        2 0.60558203E-01 0.72083947E+03</pdfrwt>
<pdfrwt beam="2">  1       -2 0.50771200E-01 0.72083947E+03</pdfrwt>
<totfact> 0.29965114E+02</totfact>
</mgrwt>
</event>
<event>
 4    1  0.6476857E-006  0.6076269E+03  0.7818608E-02  0.9889708E-01
         -2   -1    0    0    0  501 -0.00000000000E+00  0.00000000000E+00  0.44069589212E+02  0.44069589286E+02  0.25500000000E-02 0. -1.
          2   -1    0    0  501    0  0.00000000000E+00 -0.00000000000E+00 -0.20944739584E+04  0.20944739584E+04  0.25500000000E-02 0.  1.
   -5000001    1    1    2    0    0  0.27296567100E+02 -0.10111856806E+03 -0.54221504816E+03  0.60619075037E+03  0.25000000000E+03 0.  0.
    5000001    1    1    2    0    0 -0.27296567100E+02  0.10111856806E+03 -0.15081893210E+04  0.15323527973E+04  0.25000000000E+03 0.  0.
<mgrwt>
<rscale>  0 0.60762688E+03</rscale>
<asrwt>0</asrwt>
<pdfrwt beam="1">  1        2 0.32222669E+00 0.60762688E+03</pdfrwt>
<pdfrwt beam="2">  1       -2 0.67799384E-02 0.60762688E+03</pdfrwt>
<totfact> 0.78494249E+02</totfact>
</mgrwt>
</event>
<event>
 4    1  0.6476857E-006  0.6809981E+03  0.7818608E-02  0.9750291E-01
          2   -1    0    0  501    0  0.00000000000E+00  0.00000000000E+00  0.39895830075E+03  0.39895830076E+03  0.25500000000E-02 0.  1.
         -2   -1    0    0    0  501 -0.00000000000E+00 -0.00000000000E+00 -0.29060583453E+03  0.29060583454E+03  0.25500000000E-02 0. -1.
   -5000001    1    1    2    0    0  0.13103453915E+03 -0.17969562364E+03 -0.96968724042E+01  0.33474557046E+03  0.25000000000E+03 0.  0.
    5000001    1    1    2    0    0 -0.13103453915E+03  0.17969562364E+03  0.11804933863E+03  0.35481856484E+03  0.25000000000E+03 0.  0.
<mgrwt>
<rscale>  0 0.68099812E+03</rscale>
<asrwt>0</asrwt>
<pdfrwt beam="1">  1        2 0.61378201E-01 0.68099812E+03</pdfrwt>
<pdfrwt beam="2">  1       -2 0.44708590E-01 0.68099812E+03</pdfrwt>
<totfact> 0.38171446E+02</totfact>
</mgrwt>
</event>
<event>
 4    1  0.6476857E-006  0.8806272E+03  0.7818608E-02  0.9450128E-01
          2   -1    0    0  501    0  0.00000000000E+00  0.00000000000E+00  0.12888175081E+04  0.12888175081E+04  0.25500000000E-02 0.  1.
         -2   -1    0    0    0  501 -0.00000000000E+00 -0.00000000000E+00 -0.15042941454E+03  0.15042941456E+03  0.25500000000E-02 0. -1.
   -5000001    1    1    2    0    0  0.16660114816E+03 -0.18267953892E+03  0.10023668162E+04  0.10622462006E+04  0.25000000000E+03 0.  0.
    5000001    1    1    2    0    0 -0.16660114816E+03  0.18267953892E+03  0.13602127733E+03  0.37700072201E+03  0.25000000000E+03 0.  0.
<mgrwt>
<rscale>  0 0.88062719E+03</rscale>
<asrwt>0</asrwt>
<pdfrwt beam="1">  1        2 0.19827962E+00 0.88062719E+03</pdfrwt>
<pdfrwt beam="2">  1       -2 0.23142987E-01 0.88062719E+03</pdfrwt>
<totfact> 0.27733799E+02</totfact>
</mgrwt>
</event>
<event>
 4    1  0.6476857E-006  0.9963405E+03  0.7818608E-02  0.9312568E-01
         -2   -1    0    0    0  501 -0.00000000000E+00  0.00000000000E+00  0.98016233944E+03  0.98016233944E+03  0.25500000000E-02 0. -1.
          2   -1    0    0  501    0  0.00000000000E+00 -0.00000000000E+00 -0.25319643709E+03  0.25319643711E+03  0.25500000000E-02 0.  1.
   -5000001    1    1    2    0    0 -0.24985864440E+03 -0.15956379360E+03 -0.23609577536E+02  0.38851944425E+03  0.25000000000E+03 0.  0.
    5000001    1    1    2    0    0  0.24985864440E+03  0.15956379360E+03  0.75057547988E+03  0.84483933230E+03  0.25000000000E+03 0.  0.
<mgrwt>
<rscale>  0 0.99634053E+03</rscale>
<asrwt>0</asrwt>
<pdfrwt beam="1">  1        2 0.38953298E-01 0.99634053E+03</pdfrwt>
<pdfrwt beam="2">  1       -2 0.15079421E+00 0.99634053E+03</pdfrwt>
<totfact> 0.39110597E+01</totfact>
</mgrwt>
</event>
<event>
 4    1  0.6476857E-006  0.1074999E+04  0.7818608E-02  0.9229908E-01
          2   -1    0    0  501    0  0.00000000000E+00  0.00000000000E+00  0.67899126742E+03  0.67899126742E+03  0.25500000000E-02 0.  1.
         -2   -1    0    0    0  501 -0.00000000000E+00 -0.00000000000E+00 -0.42549231393E+03  0.42549231393E+03  0.25500000000E-02 0. -1.
   -5000001    1    1    2    0    0 -0.40847244145E+03 -0.99539209573E+02 -0.10217973518E+03  0.49969839698E+03  0.25000000000E+03 0.  0.
    5000001    1    1    2    0    0  0.40847244145E+03  0.99539209573E+02  0.35567868867E+03  0.60478518438E+03  0.25000000000E+03 0.  0.
<mgrwt>
<rscale>  0 0.10749987E+04</rscale>
<asrwt>0</asrwt>
<pdfrwt beam="1">  1        2 0.10446019E+00 0.10749987E+04</pdfrwt>
<pdfrwt beam="2">  1       -2 0.65460357E-01 0.10749987E+04</pdfrwt>
<totfact> 0.91088021E+01</totfact>
</mgrwt>
</event>
<event>
 4    1  0.6476857E-006  0.6958299E+03  0.7818608E-02  0.9724390E-01
          2   -1    0    0  501    0  0.00000000000E+00  0.00000000000E+00  0.14610166127E+04  0.14610166127E+04  0.25500000000E-02 0.  1.
         -2   -1    0    0    0  501 -0.00000000000E+00 -0.00000000000E+00 -0.82849720804E+02  0.82849720844E+02  0.25500000000E-02 0. -1.
   -5000001    1    1    2    0    0  0.19337502887E+03 -0.98734768987E+02  0.45216219695E+03  0.56044010273E+03  0.25000000000E+03 0.  0.
    5000001    1    1    2    0    0 -0.19337502887E+03  0.98734768987E+02  0.92600469493E+03  0.98342623081E+03  0.25000000000E+03 0.  0.
<mgrwt>
<rscale>  0 0.69582992E+03</rscale>
<asrwt>0</asrwt>
<pdfrwt beam="1">  1        2 0.22477177E+00 0.69582992E+03</pdfrwt>
<pdfrwt beam="2">  1       -2 0.12746112E-01 0.69582992E+03</pdfrwt>
<totfact> 0.62381386E+02</totfact>
</mgrwt>
</event>
<event>
 4    1  0.6476857E-006  0.8846152E+03  0.7818608E-02  0.9445020E-01
          2   -1    0    0  501    0  0.00000000000E+00  0.00000000000E+00  0.10372786472E+04  0.10372786472E+04  0.25500000000E-02 0.  1.
         -2   -1    0    0    0  501 -0.00000000000E+00 -0.00000000000E+00 -0.18860505441E+03  0.18860505442E+03  0.25500000000E-02 0. -1.
   -5000001    1    1    2    0    0 -0.30377142771E+03 -0.19919920786E+03  0.47191153958E+03  0.64587762455E+03  0.25000000000E+03 0.  0.
    5000001    1    1    2    0    0  0.30377142771E+03  0.19919920786E+03  0.37676205321E+03  0.58000607707E+03  0.25000000000E+03 0.  0.
<mgrwt>
<rscale>  0 0.88461516E+03</rscale>
<asrwt>0</asrwt>
<pdfrwt beam="1">  1        2 0.15958133E+00 0.88461516E+03</pdfrwt>
<pdfrwt beam="2">  1       -2 0.29016162E-01 0.88461516E+03</pdfrwt>
<totfact> 0.26061381E+02</totfact>
</mgrwt>
</event>
<event>
 4    1  0.6476857E-006  0.9214514E+03  0.7818608E-02  0.9399156E-01
         -2   -1    0    0    0  501 -0.00000000000E+00  0.00000000000E+00  0.63329852686E+03  0.63329852687E+03  0.25500000000E-02 0. -1.
          2   -1    0    0  501    0  0.00000000000E+00 -0.00000000000E+00 -0.33517865731E+03  0.33517865732E+03  0.25500000000E-02 0.  1.
   -5000001    1    1    2    0    0  0.19043269435E+03 -0.33530528950E+03  0.18350279753E+03  0.49484090872E+03  0.25000000000E+03 0.  0.
    5000001    1    1    2    0    0 -0.19043269435E+03  0.33530528950E+03  0.11461707201E+03  0.47363627547E+03  0.25000000000E+03 0.  0.
<mgrwt>
<rscale>  0 0.92145136E+03</rscale>
<asrwt>0</asrwt>
<pdfrwt beam="1">  1        2 0.51565947E-01 0.92145136E+03</pdfrwt>
<pdfrwt beam="2">  1       -2 0.97430542E-01 0.92145136E+03</pdfrwt>
<totfact> 0.85415715E+01</totfact>
</mgrwt>
</event>
<event>
 4    1  0.6476857E-006  0.7547983E+03  0.7818608E-02  0.9627853E-01
         -2   -1    0    0    0  501 -0.00000000000E+00  0.00000000000E+00  0.41756980163E+02  0.41756980241E+02  0.25500000000E-02 0. -1.
          2   -1    0    0  501    0  0.00000000000E+00 -0.00000000000E+00 -0.34109294943E+04  0.34109294943E+04  0.25500000000E-02 0.  1.
   -5000001    1    1    2    0    0  0.49887090828E+02  0.20847474559E+03 -0.84137608176E+03  0.90352872247E+03  0.25000000000E+03 0.  0.
    5000001    1    1    2    0    0 -0.49887090828E+02 -0.20847474559E+03 -0.25277964324E+04  0.25491577520E+04  0.25000000000E+03 0.  0.
<mgrwt>
<rscale>  0 0.75479829E+03</rscale>
<asrwt>0</asrwt>
<pdfrwt beam="1">  1        2 0.52475816E+00 0.75479829E+03</pdfrwt>
<pdfrwt beam="2">  1       -2 0.64241535E-02 0.75479829E+03</pdfrwt>
<totfact> 0.14001579E+02</totfact>
</mgrwt>
</event>
<event>
 4    1  0.6476857E-006  0.9092369E+03  0.7818608E-02  0.9414108E-01
         -2   -1    0    0    0  501 -0.00000000000E+00  0.00000000000E+00  0.64872012471E+02  0.64872012521E+02  0.25500000000E-02 0. -1.
          2   -1    0    0  501    0  0.00000000000E+00 -0.00000000000E+00 -0.31859338952E+04  0.31859338952E+04  0.25500000000E-02 0.  1.
   -5000001    1    1    2    0    0  0.19226801953E+03  0.32044935866E+03 -0.13200752914E+04  0.13945442115E+04  0.25000000000E+03 0.  0.
    5000001    1    1    2    0    0 -0.19226801953E+03 -0.32044935866E+03 -0.18009865914E+04  0.18562616963E+04  0.25000000000E+03 0.  0.
<mgrwt>
<rscale>  0 0.90923692E+03</rscale>
<asrwt>0</asrwt>
<pdfrwt beam="1">  1        2 0.49014355E+00 0.90923692E+03</pdfrwt>
<pdfrwt beam="2">  1       -2 0.99803121E-02 0.90923692E+03</pdfrwt>
<totfact> 0.95052518E+01</totfact>
</mgrwt>
</event>
<event>
 4    1  0.6476857E-006  0.6579067E+03  0.7818608E-02  0.9792055E-01
         -2   -1    0    0    0  501 -0.00000000000E+00  0.00000000000E+00  0.14800378533E+03  0.14800378535E+03  0.25500000000E-02 0.  1.
          2   -1    0    0  501    0  0.00000000000E+00 -0.00000000000E+00 -0.73113203532E+03  0.73113203532E+03  0.25500000000E-02 0. -1.
   -5000001    1    1    2    0    0 -0.19148980291E+03  0.67741194404E+02 -0.38073491844E+03  0.49871464001E+03  0.25000000000E+03 0.  0.
    5000001    1    1    2    0    0  0.19148980291E+03 -0.67741194404E+02 -0.20239333155E+03  0.38042118066E+03  0.25000000000E+03 0.  0.
<mgrwt>
<rscale>  0 0.65790671E+03</rscale>
<asrwt>0</asrwt>
<pdfrwt beam="1">  1        2 0.11248185E+00 0.65790671E+03</pdfrwt>
<pdfrwt beam="2">  1       -2 0.22769813E-01 0.65790671E+03</pdfrwt>
<totfact> 0.66103939E+02</totfact>
</mgrwt>
</event>
<event>
 4    1  0.6476857E-006  0.6703530E+03  0.7818608E-02  0.9769320E-01
          2   -1    0    0  501    0  0.00000000000E+00  0.00000000000E+00  0.30305570896E+04  0.30305570896E+04  0.25500000000E-02 0.  1.
         -2   -1    0    0    0  501 -0.00000000000E+00 -0.00000000000E+00 -0.37070174140E+02  0.37070174228E+02  0.25500000000E-02 0. -1.
   -5000001    1    1    2    0    0  0.11763753147E+03 -0.18807030403E+03  0.16119904677E+04  0.16462752796E+04  0.25000000000E+03 0.  0.
    5000001    1    1    2    0    0 -0.11763753147E+03  0.18807030403E+03  0.13814964477E+04  0.14213519842E+04  0.25000000000E+03 0.  0.
<mgrwt>
<rscale>  0 0.67035298E+03</rscale>
<asrwt>0</asrwt>
<pdfrwt beam="1">  1        2 0.46623978E+00 0.67035298E+03</pdfrwt>
<pdfrwt beam="2">  1       -2 0.57031009E-02 0.67035298E+03</pdfrwt>
<totfact> 0.29854998E+02</totfact>
</mgrwt>
</event>
<event>
 4    1  0.6476857E-006  0.6786784E+03  0.7818608E-02  0.9754406E-01
          2   -1    0    0  501    0  0.00000000000E+00  0.00000000000E+00  0.62039687986E+03  0.62039687987E+03  0.25500000000E-02 0.  1.
         -2   -1    0    0    0  501 -0.00000000000E+00 -0.00000000000E+00 -0.18560877926E+03  0.18560877927E+03  0.25500000000E-02 0. -1.
   -5000001    1    1    2    0    0  0.16824847790E+03  0.11418253720E+03  0.34367176385E+03  0.47112151658E+03  0.25000000000E+03 0.  0.
    5000001    1    1    2    0    0 -0.16824847790E+03 -0.11418253720E+03  0.91116336759E+02  0.33488414256E+03  0.25000000000E+03 0.  0.
<mgrwt>
<rscale>  0 0.67867844E+03</rscale>
<asrwt>0</asrwt>
<pdfrwt beam="1">  1        2 0.95445675E-01 0.67867844E+03</pdfrwt>
<pdfrwt beam="2">  1       -2 0.28555196E-01 0.67867844E+03</pdfrwt>
<totfact> 0.53834643E+02</totfact>
</mgrwt>
</event>
<event>
 4    1  0.6476857E-006  0.8060201E+03  0.7818608E-02  0.9551344E-01
         -2   -1    0    0    0  501 -0.00000000000E+00  0.00000000000E+00  0.15453373506E+03  0.15453373508E+03  0.25500000000E-02 0. -1.
          2   -1    0    0  501    0  0.00000000000E+00 -0.00000000000E+00 -0.10510137502E+04  0.10510137502E+04  0.25500000000E-02 0.  1.
   -5000001    1    1    2    0    0 -0.19654219249E+03  0.24536935246E+03 -0.49744144267E+03  0.63936135436E+03  0.25000000000E+03 0.  0.
    5000001    1    1    2    0    0  0.19654219249E+03 -0.24536935246E+03 -0.39903857249E+03  0.56618613096E+03  0.25000000000E+03 0.  0.
<mgrwt>
<rscale>  0 0.80602005E+03</rscale>
<asrwt>0</asrwt>
<pdfrwt beam="1">  1        2 0.16169442E+00 0.80602005E+03</pdfrwt>
<pdfrwt beam="2">  1       -2 0.23774421E-01 0.80602005E+03</pdfrwt>
<totfact> 0.36859837E+02</totfact>
</mgrwt>
</event>
<event>
 4    1  0.6476857E-006  0.7336423E+03  0.7818608E-02  0.9661368E-01
          2   -1    0    0  501    0  0.00000000000E+00  0.00000000000E+00  0.15341312112E+04  0.15341312112E+04  0.25500000000E-02 0.  1.
         -2   -1    0    0    0  501 -0.00000000000E+00 -0.00000000000E+00 -0.87709428380E+02  0.87709428417E+02  0.25500000000E-02 0. -1.
   -5000001    1    1    2    0    0  0.20305307039E+03 -0.12864036584E+03  0.45904859032E+03  0.57532990658E+03  0.25000000000E+03 0.  0.
    5000001    1    1    2    0    0 -0.20305307039E+03  0.12864036584E+03  0.98737319253E+03  0.10465107331E+04  0.25000000000E+03 0.  0.
<mgrwt>
<rscale>  0 0.73364234E+03</rscale>
<asrwt>0</asrwt>
<pdfrwt beam="1">  1        2 0.23602020E+00 0.73364234E+03</pdfrwt>
<pdfrwt beam="2">  1       -2 0.13493757E-01 0.73364234E+03</pdfrwt>
<totfact> 0.51550312E+02</totfact>
</mgrwt>
</event>
<event>
 4    1  0.6476857E-006  0.1100926E+04  0.7818608E-02  0.9204290E-01
         -2   -1    0    0    0  501 -0.00000000000E+00  0.00000000000E+00  0.17307577935E+03  0.17307577937E+03  0.25500000000E-02 0. -1.
          2   -1    0    0  501    0  0.00000000000E+00 -0.00000000000E+00 -0.17507340838E+04  0.17507340838E+04  0.25500000000E-02 0.  1.
   -5000001    1    1    2    0    0 -0.42433240878E+03 -0.12116977201E+03 -0.11626747534E+04  0.12684844063E+04  0.25000000000E+03 0.  0.
    5000001    1    1    2    0    0  0.42433240878E+03  0.12116977201E+03 -0.41498355102E+03  0.65532545686E+03  0.25000000000E+03 0.  0.
<mgrwt>
<rscale>  0 0.11009263E+04</rscale>
<asrwt>0</asrwt>
<pdfrwt beam="1">  1        2 0.26934369E+00 0.11009263E+04</pdfrwt>
<pdfrwt beam="2">  1       -2 0.26627044E-01 0.11009263E+04</pdfrwt>
<totfact> 0.11669898E+02</totfact>
</mgrwt>
</event>
<event>
 4    1  0.6476857E-006  0.8420769E+03  0.7818608E-02  0.9501033E-01
          2   -1    0    0  501    0  0.00000000000E+00  0.00000000000E+00  0.14923241615E+04  0.14923241615E+04  0.25500000000E-02 0.  1.
         -2   -1    0    0    0  501 -0.00000000000E+00 -0.00000000000E+00 -0.11879013345E+03  0.11879013347E+03  0.25500000000E-02 0. -1.
   -5000001    1    1    2    0    0 -0.31118351280E+03 -0.11013848757E+03  0.83257370912E+03  0.92986270288E+03  0.25000000000E+03 0.  0.
    5000001    1    1    2    0    0  0.31118351280E+03  0.11013848757E+03  0.54096031895E+03  0.68125159212E+03  0.25000000000E+03 0.  0.
<mgrwt>
<rscale>  0 0.84207692E+03</rscale>
<asrwt>0</asrwt>
<pdfrwt beam="1">  1        2 0.22958834E+00 0.84207692E+03</pdfrwt>
<pdfrwt beam="2">  1       -2 0.18275404E-01 0.84207692E+03</pdfrwt>
<totfact> 0.32257925E+02</totfact>
</mgrwt>
</event>
<event>
 4    1  0.6476857E-006  0.4820266E+04  0.7818608E-02  0.7856847E-01
          2   -1    0    0  501    0  0.00000000000E+00  0.00000000000E+00  0.24097730954E+04  0.24097730954E+04  0.25500000000E-02 0.  1.
         -2   -1    0    0    0  501 -0.00000000000E+00 -0.00000000000E+00 -0.24104927637E+04  0.24104927637E+04  0.25500000000E-02 0. -1.
   -5000001    1    1    2    0    0 -0.20816332419E+04 -0.49263101631E+03 -0.10821908573E+04  0.24102944475E+04  0.25000000000E+03 0.  0.
    5000001    1    1    2    0    0  0.20816332419E+04  0.49263101631E+03  0.10814711890E+04  0.24099714116E+04  0.25000000000E+03 0.  0.
<mgrwt>
<rscale>  0 0.48202658E+04</rscale>
<asrwt>0</asrwt>
<pdfrwt beam="1">  1        2 0.37073432E+00 0.48202658E+04</pdfrwt>
<pdfrwt beam="2">  1       -2 0.37084504E+00 0.48202658E+04</pdfrwt>
<totfact> 0.33236313E-02</totfact>
</mgrwt>
</event>
<event>
 4    1  0.6476857E-006  0.7508249E+03  0.7818608E-02  0.9634057E-01
          2   -1    0    0  501    0  0.00000000000E+00  0.00000000000E+00  0.53856232609E+03  0.53856232610E+03  0.25500000000E-02 0.  1.
         -2   -1    0    0    0  501 -0.00000000000E+00 -0.00000000000E+00 -0.26168655169E+03  0.26168655170E+03  0.25500000000E-02 0. -1.
   -5000001    1    1    2    0    0 -0.88858323428E+02  0.26417476577E+03  0.10924106758E+03  0.39002271647E+03  0.25000000000E+03 0.  0.
    5000001    1    1    2    0    0  0.88858323428E+02 -0.26417476577E+03  0.16763470682E+03  0.41022616134E+03  0.25000000000E+03 0.  0.
<mgrwt>
<rscale>  0 0.75082493E+03</rscale>
<asrwt>0</asrwt>
<pdfrwt beam="1">  1        2 0.82855742E-01 0.75082493E+03</pdfrwt>
<pdfrwt beam="2">  1       -2 0.40259470E-01 0.75082493E+03</pdfrwt>
<totfact> 0.33196481E+02</totfact>
</mgrwt>
</event>
<event>
 4    1  0.6476857E-006  0.7336778E+03  0.7818608E-02  0.9661311E-01
          2   -1    0    0  501    0  0.00000000000E+00  0.00000000000E+00  0.67351932231E+02  0.67351932279E+02  0.25500000000E-02 0. -1.
         -2   -1    0    0    0  501 -0.00000000000E+00 -0.00000000000E+00 -0.19980238194E+04  0.19980238194E+04  0.25500000000E-02 0.  1.
   -5000001    1    1    2    0    0 -0.17233377727E+01  0.26651128192E+03 -0.10560997241E+04  0.11175320400E+04  0.25000000000E+03 0.  0.
    5000001    1    1    2    0    0  0.17233377727E+01 -0.26651128192E+03 -0.87457216316E+03  0.94784371172E+03  0.25000000000E+03 0.  0.
<mgrwt>
<rscale>  0 0.73367776E+03</rscale>
<asrwt>0</asrwt>
<pdfrwt beam="1">  1        2 0.10361837E-01 0.73367776E+03</pdfrwt>
<pdfrwt beam="2">  1       -2 0.30738823E+00 0.73367776E+03</pdfrwt>
<totfact> 0.19000355E+01</totfact>
</mgrwt>
</event>
<event>
 4    1  0.6476857E-006  0.5694550E+03  0.7818608E-02  0.9970885E-01
          2   -1    0    0  501    0  0.00000000000E+00  0.00000000000E+00  0.43019313543E+03  0.43019313544E+03  0.25500000000E-02 0.  1.
         -2   -1    0    0    0  501 -0.00000000000E+00 -0.00000000000E+00 -0.18844963565E+03  0.18844963567E+03  0.25500000000E-02 0. -1.
   -5000001    1    1    2    0    0 -0.94126014652E+02  0.47601226769E+02  0.27139660755E+02  0.27269423281E+03  0.25000000000E+03 0.  0.
    5000001    1    1    2    0    0  0.94126014652E+02 -0.47601226769E+02  0.21460383902E+03  0.34594853829E+03  0.25000000000E+03 0.  0.
<mgrwt>
<rscale>  0 0.56945497E+03</rscale>
<asrwt>0</asrwt>
<pdfrwt beam="1">  1        2 0.66183560E-01 0.56945497E+03</pdfrwt>
<pdfrwt beam="2">  1       -2 0.28992251E-01 0.56945497E+03</pdfrwt>
<totfact> 0.80347039E+02</totfact>
</mgrwt>
</event>
<event>
 4    1  0.6476857E-006  0.1307037E+04  0.7818608E-02  0.9024003E-01
          2   -1    0    0  501    0  0.00000000000E+00  0.00000000000E+00  0.83441848214E+03  0.83441848214E+03  0.25500000000E-02 0.  1.
         -2   -1    0    0    0  501 -0.00000000000E+00 -0.00000000000E+00 -0.51183732538E+03  0.51183732539E+03  0.25500000000E-02 0. -1.
   -5000001    1    1    2    0    0  0.41208045539E+03 -0.40077984288E+03 -0.29056439652E+02  0.62751817572E+03  0.25000000000E+03 0.  0.
    5000001    1    1    2    0    0 -0.41208045539E+03  0.40077984288E+03  0.35163759641E+03  0.71873763181E+03  0.25000000000E+03 0.  0.
<mgrwt>
<rscale>  0 0.13070371E+04</rscale>
<asrwt>0</asrwt>
<pdfrwt beam="1">  1        2 0.12837207E+00 0.13070371E+04</pdfrwt>
<pdfrwt beam="2">  1       -2 0.78744205E-01 0.13070371E+04</pdfrwt>
<totfact> 0.45692589E+01</totfact>
</mgrwt>
</event>
<event>
 4    1  0.6476857E-006  0.8840977E+03  0.7818608E-02  0.9445681E-01
         -2   -1    0    0    0  501 -0.00000000000E+00  0.00000000000E+00  0.18860909837E+03  0.18860909838E+03  0.25500000000E-02 0. -1.
          2   -1    0    0  501    0  0.00000000000E+00 -0.00000000000E+00 -0.10360431482E+04  0.10360431482E+04  0.25500000000E-02 0.  1.
   -5000001    1    1    2    0    0 -0.32616577345E+03  0.15374378991E+02 -0.19913219248E+03  0.45691805981E+03  0.25000000000E+03 0.  0.
    5000001    1    1    2    0    0  0.32616577345E+03 -0.15374378991E+02 -0.64830185736E+03  0.76773418678E+03  0.25000000000E+03 0.  0.
<mgrwt>
<rscale>  0 0.88409765E+03</rscale>
<asrwt>0</asrwt>
<pdfrwt beam="1">  1        2 0.15939125E+00 0.88409765E+03</pdfrwt>
<pdfrwt beam="2">  1       -2 0.29016785E-01 0.88409765E+03</pdfrwt>
<totfact> 0.26107812E+02</totfact>
</mgrwt>
</event>
<event>
 4    1  0.6476857E-006  0.7291996E+03  0.7818608E-02  0.9668560E-01
         -2   -1    0    0    0  501 -0.00000000000E+00  0.00000000000E+00  0.11515591017E+03  0.11515591020E+03  0.25500000000E-02 0. -1.
          2   -1    0    0  501    0  0.00000000000E+00 -0.00000000000E+00 -0.11543743785E+04  0.11543743785E+04  0.25500000000E-02 0.  1.
   -5000001    1    1    2    0    0  0.68255211574E+02 -0.25150791446E+03 -0.43224637601E+03  0.56325121795E+03  0.25000000000E+03 0.  0.
    5000001    1    1    2    0    0 -0.68255211574E+02  0.25150791446E+03 -0.60697209236E+03  0.70627907080E+03  0.25000000000E+03 0.  0.
<mgrwt>
<rscale>  0 0.72919965E+03</rscale>
<asrwt>0</asrwt>
<pdfrwt beam="1">  1        2 0.17759605E+00 0.72919965E+03</pdfrwt>
<pdfrwt beam="2">  1       -2 0.17716295E-01 0.72919965E+03</pdfrwt>
<totfact> 0.53607698E+02</totfact>
</mgrwt>
</event>
<event>
 4    1  0.6476857E-006  0.1030923E+04  0.7818608E-02  0.9275264E-01
         -2   -1    0    0    0  501 -0.00000000000E+00  0.00000000000E+00  0.37093111746E+03  0.37093111747E+03  0.25500000000E-02 0. -1.
          2   -1    0    0  501    0  0.00000000000E+00 -0.00000000000E+00 -0.71630720652E+03  0.71630720653E+03  0.25500000000E-02 0.  1.
   -5000001    1    1    2    0    0 -0.44330956672E+03 -0.77541873484E+02 -0.19987446280E+03  0.55225529872E+03  0.25000000000E+03 0.  0.
    5000001    1    1    2    0    0  0.44330956672E+03  0.77541873484E+02 -0.14550162627E+03  0.53498302527E+03  0.25000000000E+03 0.  0.
<mgrwt>
<rscale>  0 0.10309231E+04</rscale>
<asrwt>0</asrwt>
<pdfrwt beam="1">  1        2 0.11020111E+00 0.10309231E+04</pdfrwt>
<pdfrwt beam="2">  1       -2 0.57066326E-01 0.10309231E+04</pdfrwt>
<totfact> 0.11420145E+02</totfact>
</mgrwt>
</event>
<event>
 4    1  0.6476857E-006  0.6369022E+03  0.7818608E-02  0.9831672E-01
          2   -1    0    0  501    0  0.00000000000E+00  0.00000000000E+00  0.26464883898E+04  0.26464883898E+04  0.25500000000E-02 0.  1.
         -2   -1    0    0    0  501 -0.00000000000E+00 -0.00000000000E+00 -0.38319113687E+02  0.38319113772E+02  0.25500000000E-02 0. -1.
   -5000001    1    1    2    0    0  0.17983564226E+03  0.80387407034E+02  0.12602572524E+04  0.12998274253E+04  0.25000000000E+03 0.  0.
    5000001    1    1    2    0    0 -0.17983564226E+03 -0.80387407034E+02  0.13479120238E+04  0.13849800783E+04  0.25000000000E+03 0.  0.
<mgrwt>
<rscale>  0 0.63690216E+03</rscale>
<asrwt>0</asrwt>
<pdfrwt beam="1">  1        2 0.40715198E+00 0.63690216E+03</pdfrwt>
<pdfrwt beam="2">  1       -2 0.58952494E-02 0.63690216E+03</pdfrwt>
<totfact> 0.48056592E+02</totfact>
</mgrwt>
</event>
<event>
 4    1  0.6476857E-006  0.9578567E+03  0.7818608E-02  0.9356014E-01
         -2   -1    0    0    0  501 -0.00000000000E+00  0.00000000000E+00  0.29753474158E+03  0.29753474159E+03  0.25500000000E-02 0. -1.
          2   -1    0    0  501    0  0.00000000000E+00 -0.00000000000E+00 -0.77090954483E+03  0.77090954483E+03  0.25500000000E-02 0.  1.
   -5000001    1    1    2    0    0  0.82288793397E+01  0.29419210611E+03  0.79314120254E+02  0.39421750268E+03  0.25000000000E+03 0.  0.
    5000001    1    1    2    0    0 -0.82288793397E+01 -0.29419210611E+03 -0.55268892350E+03  0.67422678374E+03  0.25000000000E+03 0.  0.
<mgrwt>
<rscale>  0 0.95785672E+03</rscale>
<asrwt>0</asrwt>
<pdfrwt beam="1">  1        2 0.11860147E+00 0.95785672E+03</pdfrwt>
<pdfrwt beam="2">  1       -2 0.45774576E-01 0.95785672E+03</pdfrwt>
<totfact> 0.16375682E+02</totfact>
</mgrwt>
</event>
<event>
 4    1  0.6476857E-006  0.1329091E+04  0.7818608E-02  0.9006809E-01
         -2   -1    0    0    0  501 -0.00000000000E+00  0.00000000000E+00  0.77908507911E+03  0.77908507911E+03  0.25500000000E-02 0. -1.
          2   -1    0    0  501    0  0.00000000000E+00 -0.00000000000E+00 -0.56684503131E+03  0.56684503131E+03  0.25500000000E-02 0.  1.
   -5000001    1    1    2    0    0 -0.29083818015E+03  0.92922806419E+02  0.64758980540E+03  0.75834955729E+03  0.25000000000E+03 0.  0.
    5000001    1    1    2    0    0  0.29083818015E+03 -0.92922806419E+02 -0.43534975760E+03  0.58758055313E+03  0.25000000000E+03 0.  0.
<mgrwt>
<rscale>  0 0.13290907E+04</rscale>
<asrwt>0</asrwt>
<pdfrwt beam="1">  1        2 0.87206928E-01 0.13290907E+04</pdfrwt>
<pdfrwt beam="2">  1       -2 0.11985924E+00 0.13290907E+04</pdfrwt>
<totfact> 0.27660194E+01</totfact>
</mgrwt>
</event>
<event>
 4    1  0.6476857E-006  0.8794510E+03  0.7818608E-02  0.9451640E-01
         -2   -1    0    0    0  501 -0.00000000000E+00  0.00000000000E+00  0.16549759793E+04  0.16549759793E+04  0.25500000000E-02 0. -1.
          2   -1    0    0  501    0  0.00000000000E+00 -0.00000000000E+00 -0.11683462714E+03  0.11683462717E+03  0.25500000000E-02 0.  1.
   -5000001    1    1    2    0    0 -0.34187703793E+03  0.24861365740E+02  0.53619876815E+03  0.68374491994E+03  0.25000000000E+03 0.  0.
    5000001    1    1    2    0    0  0.34187703793E+03 -0.24861365740E+02  0.10019425840E+04  0.10880656865E+04  0.25000000000E+03 0.  0.
<mgrwt>
<rscale>  0 0.87945097E+03</rscale>
<asrwt>0</asrwt>
<pdfrwt beam="1">  1        2 0.17974559E-01 0.87945097E+03</pdfrwt>
<pdfrwt beam="2">  1       -2 0.25461168E+00 0.87945097E+03</pdfrwt>
<totfact> 0.19754097E+01</totfact>
</mgrwt>
</event>
<event>
 4    1  0.6476857E-006  0.9667657E+03  0.7818608E-02  0.9345766E-01
         -2   -1    0    0    0  501 -0.00000000000E+00  0.00000000000E+00  0.16103347808E+04  0.16103347808E+04  0.25500000000E-02 0. -1.
          2   -1    0    0  501    0  0.00000000000E+00 -0.00000000000E+00 -0.14509964413E+03  0.14509964416E+03  0.25500000000E-02 0.  1.
   -5000001    1    1    2    0    0 -0.32024189813E+03  0.78729587913E+02  0.11862204145E+04  0.12563327955E+04  0.25000000000E+03 0.  0.
    5000001    1    1    2    0    0  0.32024189813E+03 -0.78729587913E+02  0.27901472219E+03  0.49910162946E+03  0.25000000000E+03 0.  0.
<mgrwt>
<rscale>  0 0.96676575E+03</rscale>
<asrwt>0</asrwt>
<pdfrwt beam="1">  1        2 0.22323022E-01 0.96676575E+03</pdfrwt>
<pdfrwt beam="2">  1       -2 0.24774382E+00 0.96676575E+03</pdfrwt>
<totfact> 0.16723863E+01</totfact>
</mgrwt>
</event>
<event>
 4    1  0.6476857E-006  0.8223533E+03  0.7818608E-02  0.9528214E-01
         -2   -1    0    0    0  501 -0.00000000000E+00  0.00000000000E+00  0.49911566830E+03  0.49911566831E+03  0.25500000000E-02 0. -1.
          2   -1    0    0  501    0  0.00000000000E+00 -0.00000000000E+00 -0.33873155273E+03  0.33873155274E+03  0.25500000000E-02 0.  1.
   -5000001    1    1    2    0    0  0.21352064440E+03  0.22780597584E+03  0.17727427772E+03  0.43750748309E+03  0.25000000000E+03 0.  0.
    5000001    1    1    2    0    0 -0.21352064440E+03 -0.22780597584E+03 -0.16890162157E+02  0.40033973796E+03  0.25000000000E+03 0.  0.
<mgrwt>
<rscale>  0 0.82235327E+03</rscale>
<asrwt>0</asrwt>
<pdfrwt beam="1">  1        2 0.52112547E-01 0.82235327E+03</pdfrwt>
<pdfrwt beam="2">  1       -2 0.76787026E-01 0.82235327E+03</pdfrwt>
<totfact> 0.14626803E+02</totfact>
</mgrwt>
</event>
<event>
 4    1  0.6476857E-006  0.7093986E+03  0.7818608E-02  0.9701293E-01
         -2   -1    0    0    0  501 -0.00000000000E+00  0.00000000000E+00  0.12054283941E+03  0.12054283944E+03  0.25500000000E-02 0. -1.
          2   -1    0    0  501    0  0.00000000000E+00 -0.00000000000E+00 -0.10437085451E+04  0.10437085451E+04  0.25500000000E-02 0.  1.
   -5000001    1    1    2    0    0  0.20435674777E+03  0.12794549036E+03 -0.34346499465E+03  0.48846691947E+03  0.25000000000E+03 0.  0.
    5000001    1    1    2    0    0 -0.20435674777E+03 -0.12794549036E+03 -0.57970071106E+03  0.67578446510E+03  0.25000000000E+03 0.  0.
<mgrwt>
<rscale>  0 0.70939859E+03</rscale>
<asrwt>0</asrwt>
<pdfrwt beam="1">  1        2 0.16057054E+00 0.70939859E+03</pdfrwt>
<pdfrwt beam="2">  1       -2 0.18545053E-01 0.70939859E+03</pdfrwt>
<totfact> 0.57939148E+02</totfact>
</mgrwt>
</event>
<event>
 4    1  0.6476857E-006  0.1748100E+04  0.7818608E-02  0.8734397E-01
         -2   -1    0    0    0  501 -0.00000000000E+00  0.00000000000E+00  0.73056895315E+03  0.73056895316E+03  0.25500000000E-02 0.  1.
          2   -1    0    0  501    0  0.00000000000E+00 -0.00000000000E+00 -0.10457106786E+04  0.10457106786E+04  0.25500000000E-02 0. -1.
   -5000001    1    1    2    0    0  0.33959676091E+03  0.72229745057E+03 -0.41548161111E+03  0.93389749774E+03  0.25000000000E+03 0.  0.
    5000001    1    1    2    0    0 -0.33959676091E+03 -0.72229745057E+03  0.10033988563E+03  0.84238213405E+03  0.25000000000E+03 0.  0.
<mgrwt>
<rscale>  0 0.17481004E+04</rscale>
<asrwt>0</asrwt>
<pdfrwt beam="1">  1        2 0.16087857E+00 0.17481004E+04</pdfrwt>
<pdfrwt beam="2">  1       -2 0.11239522E+00 0.17481004E+04</pdfrwt>
<totfact> 0.13924566E+01</totfact>
</mgrwt>
</event>
<event>
 4    1  0.6476857E-006  0.6503301E+03  0.7818608E-02  0.9806160E-01
         -2   -1    0    0    0  501 -0.00000000000E+00  0.00000000000E+00  0.11258190206E+04  0.11258190206E+04  0.25500000000E-02 0. -1.
          2   -1    0    0  501    0  0.00000000000E+00 -0.00000000000E+00 -0.93915911727E+02  0.93915911762E+02  0.25500000000E-02 0.  1.
   -5000001    1    1    2    0    0 -0.20092918663E+03  0.48680324700E+02  0.55746923167E+03  0.64499167151E+03  0.25000000000E+03 0.  0.
    5000001    1    1    2    0    0  0.20092918663E+03 -0.48680324700E+02  0.47443387715E+03  0.57474326081E+03  0.25000000000E+03 0.  0.
<mgrwt>
<rscale>  0 0.65033013E+03</rscale>
<asrwt>0</asrwt>
<pdfrwt beam="1">  1        2 0.14448602E-01 0.65033013E+03</pdfrwt>
<pdfrwt beam="2">  1       -2 0.17320292E+00 0.65033013E+03</pdfrwt>
<totfact> 0.86461212E+01</totfact>
</mgrwt>
</event>
<event>
 4    1  0.6476857E-006  0.7415044E+03  0.7818608E-02  0.9648774E-01
          2   -1    0    0  501    0  0.00000000000E+00  0.00000000000E+00  0.52860362888E+03  0.52860362889E+03  0.25500000000E-02 0.  1.
         -2   -1    0    0    0  501 -0.00000000000E+00 -0.00000000000E+00 -0.26003831364E+03  0.26003831365E+03  0.25500000000E-02 0. -1.
   -5000001    1    1    2    0    0 -0.14598153243E+03 -0.16049659451E+03  0.31189387590E+03  0.45480496312E+03  0.25000000000E+03 0.  0.
    5000001    1    1    2    0    0  0.14598153243E+03  0.16049659451E+03 -0.43328560650E+02  0.33383697942E+03  0.25000000000E+03 0.  0.
<mgrwt>
<rscale>  0 0.74150441E+03</rscale>
<asrwt>0</asrwt>
<pdfrwt beam="1">  1        2 0.81323635E-01 0.74150441E+03</pdfrwt>
<pdfrwt beam="2">  1       -2 0.40005894E-01 0.74150441E+03</pdfrwt>
<totfact> 0.34363941E+02</totfact>
</mgrwt>
</event>
<event>
 4    1  0.6476857E-006  0.9281875E+03  0.7818608E-02  0.9391016E-01
         -2   -1    0    0    0  501 -0.00000000000E+00  0.00000000000E+00  0.79449457570E+02  0.79449457611E+02  0.25500000000E-02 0. -1.
          2   -1    0    0  501    0  0.00000000000E+00 -0.00000000000E+00 -0.27109439738E+04  0.27109439738E+04  0.25500000000E-02 0.  1.
   -5000001    1    1    2    0    0 -0.16531086177E+03  0.26074761787E+03 -0.20370421133E+04  0.20754174454E+04  0.25000000000E+03 0.  0.
    5000001    1    1    2    0    0  0.16531086177E+03 -0.26074761787E+03 -0.59445240291E+03  0.71497598601E+03  0.25000000000E+03 0.  0.
<mgrwt>
<rscale>  0 0.92818754E+03</rscale>
<asrwt>0</asrwt>
<pdfrwt beam="1">  1        2 0.41706823E+00 0.92818754E+03</pdfrwt>
<pdfrwt beam="2">  1       -2 0.12222996E-01 0.92818754E+03</pdfrwt>
<totfact> 0.13244787E+02</totfact>
</mgrwt>
</event>
<event>
 4    1  0.6476857E-006  0.1725588E+04  0.7818608E-02  0.8746904E-01
         -2   -1    0    0    0  501 -0.00000000000E+00  0.00000000000E+00  0.27490320297E+04  0.27490320297E+04  0.25500000000E-02 0. -1.
          2   -1    0    0  501    0  0.00000000000E+00 -0.00000000000E+00 -0.27079109818E+03  0.27079109819E+03  0.25500000000E-02 0.  1.
   -5000001    1    1    2    0    0  0.53454999778E+02 -0.79653792053E+03  0.16086341756E+04  0.18131558142E+04  0.25000000000E+03 0.  0.
    5000001    1    1    2    0    0 -0.53454999778E+02  0.79653792053E+03  0.86960675590E+03  0.12066673136E+04  0.25000000000E+03 0.  0.
<mgrwt>
<rscale>  0 0.17255879E+04</rscale>
<asrwt>0</asrwt>
<pdfrwt beam="1">  1        2 0.41660173E-01 0.17255879E+04</pdfrwt>
<pdfrwt beam="2">  1       -2 0.42292797E+00 0.17255879E+04</pdfrwt>
<totfact> 0.61641844E-01</totfact>
</mgrwt>
</event>
<event>
 4    1  0.6476857E-006  0.7211189E+03  0.7818608E-02  0.9681782E-01
          2   -1    0    0  501    0  0.00000000000E+00  0.00000000000E+00  0.43015380570E+03  0.43015380571E+03  0.25500000000E-02 0.  1.
         -2   -1    0    0    0  501 -0.00000000000E+00 -0.00000000000E+00 -0.30222474291E+03  0.30222474293E+03  0.25500000000E-02 0. -1.
   -5000001    1    1    2    0    0  0.23833531855E+03 -0.47170245140E+02  0.15745823566E+03  0.38252039432E+03  0.25000000000E+03 0.  0.
    5000001    1    1    2    0    0 -0.23833531855E+03  0.47170245140E+02 -0.29529172869E+02  0.34985815432E+03  0.25000000000E+03 0.  0.
<mgrwt>
<rscale>  0 0.72111892E+03</rscale>
<asrwt>0</asrwt>
<pdfrwt beam="1">  1        2 0.66177508E-01 0.72111892E+03</pdfrwt>
<pdfrwt beam="2">  1       -2 0.46496114E-01 0.72111892E+03</pdfrwt>
<totfact> 0.32388069E+02</totfact>
</mgrwt>
</event>
<event>
 4    1  0.6476857E-006  0.6351275E+03  0.7818608E-02  0.9835094E-01
         -2   -1    0    0    0  501 -0.00000000000E+00  0.00000000000E+00  0.48108035050E+02  0.48108035118E+02  0.25500000000E-02 0. -1.
          2   -1    0    0  501    0  0.00000000000E+00 -0.00000000000E+00 -0.20962553462E+04  0.20962553462E+04  0.25500000000E-02 0.  1.
   -5000001    1    1    2    0    0 -0.19990411131E+02  0.17451838092E+03 -0.13162810920E+04  0.13512779858E+04  0.25000000000E+03 0.  0.
    5000001    1    1    2    0    0  0.19990411131E+02 -0.17451838092E+03 -0.73186621915E+03  0.79308539549E+03  0.25000000000E+03 0.  0.
<mgrwt>
<rscale>  0 0.63512747E+03</rscale>
<asrwt>0</asrwt>
<pdfrwt beam="1">  1        2 0.32250075E+00 0.63512747E+03</pdfrwt>
<pdfrwt beam="2">  1       -2 0.74012378E-02 0.63512747E+03</pdfrwt>
<totfact> 0.68034820E+02</totfact>
</mgrwt>
</event>
<event>
 4    1  0.6476857E-006  0.6017364E+03  0.7818608E-02  0.9901810E-01
         -2   -1    0    0    0  501 -0.00000000000E+00  0.00000000000E+00  0.16027110593E+03  0.16027110595E+03  0.25500000000E-02 0. -1.
          2   -1    0    0  501    0  0.00000000000E+00 -0.00000000000E+00 -0.56480347945E+03  0.56480347946E+03  0.25500000000E-02 0.  1.
   -5000001    1    1    2    0    0 -0.13337891239E+03  0.20254037607E+02 -0.82849313197E+02  0.29591243469E+03  0.25000000000E+03 0.  0.
    5000001    1    1    2    0    0  0.13337891239E+03 -0.20254037607E+02 -0.32168306032E+03  0.42916215072E+03  0.25000000000E+03 0.  0.
<mgrwt>
<rscale>  0 0.60173642E+03</rscale>
<asrwt>0</asrwt>
<pdfrwt beam="1">  1        2 0.86892842E-01 0.60173642E+03</pdfrwt>
<pdfrwt beam="2">  1       -2 0.24657094E-01 0.60173642E+03</pdfrwt>
<totfact> 0.78767827E+02</totfact>
</mgrwt>
</event>
<event>
 4    1  0.6476857E-006  0.5862956E+03  0.7818608E-02  0.9934253E-01
          2   -1    0    0  501    0  0.00000000000E+00  0.00000000000E+00  0.32815810082E+03  0.32815810083E+03  0.25500000000E-02 0.  1.
         -2   -1    0    0    0  501 -0.00000000000E+00 -0.00000000000E+00 -0.26187266715E+03  0.26187266716E+03  0.25500000000E-02 0. -1.
   -5000001    1    1    2    0    0 -0.15215971542E+02  0.89744292064E+02  0.15701250101E+03  0.30893120467E+03  0.25000000000E+03 0.  0.
    5000001    1    1    2    0    0  0.15215971542E+02 -0.89744292064E+02 -0.90727067343E+02  0.28109956332E+03  0.25000000000E+03 0.  0.
<mgrwt>
<rscale>  0 0.58629562E+03</rscale>
<asrwt>0</asrwt>
<pdfrwt beam="1">  1        2 0.50485861E-01 0.58629562E+03</pdfrwt>
<pdfrwt beam="2">  1       -2 0.40288103E-01 0.58629562E+03</pdfrwt>
<totfact> 0.58341968E+02</totfact>
</mgrwt>
</event>
<event>
 4    1  0.6476857E-006  0.1080202E+04  0.7818608E-02  0.9224706E-01
          2   -1    0    0  501    0  0.00000000000E+00  0.00000000000E+00  0.17268913165E+04  0.17268913165E+04  0.25500000000E-02 0.  1.
         -2   -1    0    0    0  501 -0.00000000000E+00 -0.00000000000E+00 -0.16892150963E+03  0.16892150965E+03  0.25500000000E-02 0. -1.
   -5000001    1    1    2    0    0 -0.19853931322E+03  0.43020489455E+03  0.65847289721E+03  0.84887022952E+03  0.25000000000E+03 0.  0.
    5000001    1    1    2    0    0  0.19853931322E+03 -0.43020489455E+03  0.89949690969E+03  0.10469425967E+04  0.25000000000E+03 0.  0.
<mgrwt>
<rscale>  0 0.10802020E+04</rscale>
<asrwt>0</asrwt>
<pdfrwt beam="1">  1        2 0.26567556E+00 0.10802020E+04</pdfrwt>
<pdfrwt beam="2">  1       -2 0.25987927E-01 0.10802020E+04</pdfrwt>
<totfact> 0.12592767E+02</totfact>
</mgrwt>
</event>
<event>
 4    1  0.6476857E-006  0.8700738E+03  0.7818608E-02  0.9463784E-01
          2   -1    0    0  501    0  0.00000000000E+00  0.00000000000E+00  0.19586074986E+03  0.19586074988E+03  0.25500000000E-02 0.  1.
         -2   -1    0    0    0  501 -0.00000000000E+00 -0.00000000000E+00 -0.96628388224E+03  0.96628388225E+03  0.25500000000E-02 0. -1.
   -5000001    1    1    2    0    0  0.73377004985E+02  0.30588371606E+03 -0.16247608569E+03  0.43341378731E+03  0.25000000000E+03 0.  0.
    5000001    1    1    2    0    0 -0.73377004985E+02 -0.30588371606E+03 -0.60794704669E+03  0.72873084481E+03  0.25000000000E+03 0.  0.
<mgrwt>
<rscale>  0 0.87007376E+03</rscale>
<asrwt>0</asrwt>
<pdfrwt beam="1">  1        2 0.30132424E-01 0.87007376E+03</pdfrwt>
<pdfrwt beam="2">  1       -2 0.14865906E+00 0.87007376E+03</pdfrwt>
<totfact> 0.54591531E+01</totfact>
</mgrwt>
</event>
<event>
 4    1  0.6476857E-006  0.6884171E+03  0.7818608E-02  0.9737248E-01
         -2   -1    0    0    0  501 -0.00000000000E+00  0.00000000000E+00  0.10882188362E+04  0.10882188362E+04  0.25500000000E-02 0. -1.
          2   -1    0    0  501    0  0.00000000000E+00 -0.00000000000E+00 -0.10887471169E+03  0.10887471172E+03  0.25500000000E-02 0.  1.
   -5000001    1    1    2    0    0 -0.90488785976E+02  0.21363915040E+03  0.57029447810E+03  0.66450409985E+03  0.25000000000E+03 0.  0.
    5000001    1    1    2    0    0  0.90488785976E+02 -0.21363915040E+03  0.40904964640E+03  0.53258944806E+03  0.25000000000E+03 0.  0.
<mgrwt>
<rscale>  0 0.68841706E+03</rscale>
<asrwt>0</asrwt>
<pdfrwt beam="1">  1        2 0.16749956E-01 0.68841706E+03</pdfrwt>
<pdfrwt beam="2">  1       -2 0.16741828E+00 0.68841706E+03</pdfrwt>
<totfact> 0.79260441E+01</totfact>
</mgrwt>
</event>
<event>
 4    1  0.6476857E-006  0.1525569E+04  0.7818608E-02  0.8867626E-01
          2   -1    0    0  501    0  0.00000000000E+00  0.00000000000E+00  0.99762880093E+03  0.99762880093E+03  0.25500000000E-02 0.  1.
         -2   -1    0    0    0  501 -0.00000000000E+00 -0.00000000000E+00 -0.58322280380E+03  0.58322280381E+03  0.25500000000E-02 0. -1.
   -5000001    1    1    2    0    0 -0.37402679992E+02 -0.71385129414E+03  0.30193368839E+03  0.81525859873E+03  0.25000000000E+03 0.  0.
    5000001    1    1    2    0    0  0.37402679992E+02  0.71385129414E+03  0.11247230874E+03  0.76559300601E+03  0.25000000000E+03 0.  0.
<mgrwt>
<rscale>  0 0.15255686E+04</rscale>
<asrwt>0</asrwt>
<pdfrwt beam="1">  1        2 0.15348135E+00 0.15255686E+04</pdfrwt>
<pdfrwt beam="2">  1       -2 0.89726586E-01 0.15255686E+04</pdfrwt>
<totfact> 0.25948402E+01</totfact>
</mgrwt>
</event>
<event>
 4    1  0.6476857E-006  0.6234593E+03  0.7818608E-02  0.9857896E-01
         -2   -1    0    0    0  501 -0.00000000000E+00  0.00000000000E+00  0.16027346481E+03  0.16027346483E+03  0.25500000000E-02 0. -1.
          2   -1    0    0  501    0  0.00000000000E+00 -0.00000000000E+00 -0.60630989638E+03  0.60630989638E+03  0.25500000000E-02 0.  1.
   -5000001    1    1    2    0    0 -0.69109305696E+02 -0.17287289049E+03 -0.22766060671E+03  0.38599285518E+03  0.25000000000E+03 0.  0.
    5000001    1    1    2    0    0  0.69109305696E+02  0.17287289049E+03 -0.21837582486E+03  0.38059050603E+03  0.25000000000E+03 0.  0.
<mgrwt>
<rscale>  0 0.62345934E+03</rscale>
<asrwt>0</asrwt>
<pdfrwt beam="1">  1        2 0.93278444E-01 0.62345934E+03</pdfrwt>
<pdfrwt beam="2">  1       -2 0.24657456E-01 0.62345934E+03</pdfrwt>
<totfact> 0.72349827E+02</totfact>
</mgrwt>
</event>
<event>
 4    1  0.6476857E-006  0.6430922E+03  0.7818608E-02  0.9819828E-01
         -2   -1    0    0    0  501 -0.00000000000E+00  0.00000000000E+00  0.41012638113E+02  0.41012638192E+02  0.25500000000E-02 0. -1.
          2   -1    0    0  501    0  0.00000000000E+00 -0.00000000000E+00 -0.25209765972E+04  0.25209765972E+04  0.25500000000E-02 0.  1.
   -5000001    1    1    2    0    0  0.45153785071E+01 -0.19982628311E+03 -0.13621877413E+04  0.13992878098E+04  0.25000000000E+03 0.  0.
    5000001    1    1    2    0    0 -0.45153785071E+01  0.19982628311E+03 -0.11177762178E+04  0.11627014256E+04  0.25000000000E+03 0.  0.
<mgrwt>
<rscale>  0 0.64309222E+03</rscale>
<asrwt>0</asrwt>
<pdfrwt beam="1">  1        2 0.38784243E+00 0.64309222E+03</pdfrwt>
<pdfrwt beam="2">  1       -2 0.63096386E-02 0.64309222E+03</pdfrwt>
<totfact> 0.50904095E+02</totfact>
</mgrwt>
</event>
<event>
 4    1  0.6476857E-006  0.1290702E+04  0.7818608E-02  0.9036971E-01
          2   -1    0    0  501    0  0.00000000000E+00  0.00000000000E+00  0.69874533394E+03  0.69874533395E+03  0.25500000000E-02 0.  1.
         -2   -1    0    0    0  501 -0.00000000000E+00 -0.00000000000E+00 -0.59603682674E+03  0.59603682675E+03  0.25500000000E-02 0. -1.
   -5000001    1    1    2    0    0  0.47602166881E+03 -0.31126953756E+01  0.40937406825E+03  0.67579097790E+03  0.25000000000E+03 0.  0.
    5000001    1    1    2    0    0 -0.47602166881E+03  0.31126953756E+01 -0.30666556105E+03  0.61899118280E+03  0.25000000000E+03 0.  0.
<mgrwt>
<rscale>  0 0.12907021E+04</rscale>
<asrwt>0</asrwt>
<pdfrwt beam="1">  1        2 0.10749928E+00 0.12907021E+04</pdfrwt>
<pdfrwt beam="2">  1       -2 0.91697974E-01 0.12907021E+04</pdfrwt>
<totfact> 0.40778907E+01</totfact>
</mgrwt>
</event>
<event>
 4    1  0.6476857E-006  0.1185846E+04  0.7818608E-02  0.9125336E-01
          2   -1    0    0  501    0  0.00000000000E+00  0.00000000000E+00  0.12584022651E+04  0.12584022651E+04  0.25500000000E-02 0.  1.
         -2   -1    0    0    0  501 -0.00000000000E+00 -0.00000000000E+00 -0.27936846163E+03  0.27936846164E+03  0.25500000000E-02 0. -1.
   -5000001    1    1    2    0    0  0.41598433549E+03 -0.19869570777E+03  0.13076594287E+03  0.54048374950E+03  0.25000000000E+03 0.  0.
    5000001    1    1    2    0    0 -0.41598433549E+03  0.19869570777E+03  0.84826786062E+03  0.99728697727E+03  0.25000000000E+03 0.  0.
<mgrwt>
<rscale>  0 0.11858464E+04</rscale>
<asrwt>0</asrwt>
<pdfrwt beam="1">  1        2 0.19360035E+00 0.11858464E+04</pdfrwt>
<pdfrwt beam="2">  1       -2 0.42979763E-01 0.11858464E+04</pdfrwt>
<totfact> 0.88592449E+01</totfact>
</mgrwt>
</event>
<event>
 4    1  0.6476857E-006  0.5502570E+03  0.7818608E-02  0.1001434E+00
          2   -1    0    0  501    0  0.00000000000E+00  0.00000000000E+00  0.73370824345E+03  0.73370824345E+03  0.25500000000E-02 0.  1.
         -2   -1    0    0    0  501 -0.00000000000E+00 -0.00000000000E+00 -0.10316864639E+03  0.10316864642E+03  0.25500000000E-02 0. -1.
   -5000001    1    1    2    0    0  0.73117911171E+02 -0.41616480541E+02  0.43422513345E+03  0.50806458930E+03  0.25000000000E+03 0.  0.
    5000001    1    1    2    0    0 -0.73117911171E+02  0.41616480541E+02  0.19631446361E+03  0.32881230057E+03  0.25000000000E+03 0.  0.
<mgrwt>
<rscale>  0 0.55025698E+03</rscale>
<asrwt>0</asrwt>
<pdfrwt beam="1">  1        2 0.11287819E+00 0.55025698E+03</pdfrwt>
<pdfrwt beam="2">  1       -2 0.15872099E-01 0.55025698E+03</pdfrwt>
<totfact> 0.12323402E+03</totfact>
</mgrwt>
</event>
<event>
 4    1  0.6476857E-006  0.7680017E+03  0.7818608E-02  0.9607524E-01
          2   -1    0    0  501    0  0.00000000000E+00  0.00000000000E+00  0.10958155214E+03  0.10958155217E+03  0.25500000000E-02 0.  1.
         -2   -1    0    0    0  501 -0.00000000000E+00 -0.00000000000E+00 -0.13456337817E+04  0.13456337817E+04  0.25500000000E-02 0. -1.
   -5000001    1    1    2    0    0  0.24075531790E+03  0.10483089171E+03 -0.85773236946E+03  0.93121289541E+03  0.25000000000E+03 0.  0.
    5000001    1    1    2    0    0 -0.24075531790E+03 -0.10483089171E+03 -0.37831986006E+03  0.52400243842E+03  0.25000000000E+03 0.  0.
<mgrwt>
<rscale>  0 0.76800166E+03</rscale>
<asrwt>0</asrwt>
<pdfrwt beam="1">  1        2 0.16858701E-01 0.76800166E+03</pdfrwt>
<pdfrwt beam="2">  1       -2 0.20702057E+00 0.76800166E+03</pdfrwt>
<totfact> 0.42392480E+01</totfact>
</mgrwt>
</event>
<event>
 4    1  0.6476857E-006  0.1051064E+04  0.7818608E-02  0.9254246E-01
         -2   -1    0    0    0  501 -0.00000000000E+00  0.00000000000E+00  0.13365658897E+03  0.13365658900E+03  0.25500000000E-02 0. -1.
          2   -1    0    0  501    0  0.00000000000E+00 -0.00000000000E+00 -0.20663708638E+04  0.20663708638E+04  0.25500000000E-02 0.  1.
   -5000001    1    1    2    0    0  0.31356692450E+03 -0.13045824615E+03 -0.16227517585E+04  0.16766534645E+04  0.25000000000E+03 0.  0.
    5000001    1    1    2    0    0 -0.31356692450E+03  0.13045824615E+03 -0.30996251627E+03  0.52337398829E+03  0.25000000000E+03 0.  0.
<mgrwt>
<rscale>  0 0.10510644E+04</rscale>
<asrwt>0</asrwt>
<pdfrwt beam="1">  1        2 0.31790319E+00 0.10510644E+04</pdfrwt>
<pdfrwt beam="2">  1       -2 0.20562554E-01 0.10510644E+04</pdfrwt>
<totfact> 0.12479361E+02</totfact>
</mgrwt>
</event>
<event>
 4    1  0.6476857E-006  0.6050042E+03  0.7818608E-02  0.9895078E-01
          2   -1    0    0  501    0  0.00000000000E+00  0.00000000000E+00  0.11739482382E+04  0.11739482382E+04  0.25500000000E-02 0.  1.
         -2   -1    0    0    0  501 -0.00000000000E+00 -0.00000000000E+00 -0.77948506842E+02  0.77948506883E+02  0.25500000000E-02 0. -1.
   -5000001    1    1    2    0    0 -0.16888961625E+03  0.21942411875E+02  0.54483428023E+03  0.62317699318E+03  0.25000000000E+03 0.  0.
    5000001    1    1    2    0    0  0.16888961625E+03 -0.21942411875E+02  0.55116545109E+03  0.62871975187E+03  0.25000000000E+03 0.  0.
<mgrwt>
<rscale>  0 0.60500417E+03</rscale>
<asrwt>0</asrwt>
<pdfrwt beam="1">  1        2 0.18060742E+00 0.60500417E+03</pdfrwt>
<pdfrwt beam="2">  1       -2 0.11992078E-01 0.60500417E+03</pdfrwt>
<totfact> 0.10115882E+03</totfact>
</mgrwt>
</event>
<event>
 4    1  0.6476857E-006  0.7535178E+03  0.7818608E-02  0.9629848E-01
         -2   -1    0    0    0  501 -0.00000000000E+00  0.00000000000E+00  0.11240797841E+03  0.11240797844E+03  0.25500000000E-02 0. -1.
          2   -1    0    0  501    0  0.00000000000E+00 -0.00000000000E+00 -0.12627864264E+04  0.12627864264E+04  0.25500000000E-02 0.  1.
   -5000001    1    1    2    0    0 -0.18485642778E+03  0.17007694305E+03 -0.34183327051E+03  0.49239014031E+03  0.25000000000E+03 0.  0.
    5000001    1    1    2    0    0  0.18485642778E+03 -0.17007694305E+03 -0.80854517746E+03  0.88280426452E+03  0.25000000000E+03 0.  0.
<mgrwt>
<rscale>  0 0.75351780E+03</rscale>
<asrwt>0</asrwt>
<pdfrwt beam="1">  1        2 0.19427482E+00 0.75351780E+03</pdfrwt>
<pdfrwt beam="2">  1       -2 0.17293536E-01 0.75351780E+03</pdfrwt>
<totfact> 0.48170704E+02</totfact>
</mgrwt>
</event>
<event>
 4    1  0.6476857E-006  0.6584916E+03  0.7818608E-02  0.9790975E-01
         -2   -1    0    0    0  501 -0.00000000000E+00  0.00000000000E+00  0.75049582687E+03  0.75049582687E+03  0.25500000000E-02 0. -1.
          2   -1    0    0  501    0  0.00000000000E+00 -0.00000000000E+00 -0.14444155848E+03  0.14444155850E+03  0.25500000000E-02 0.  1.
   -5000001    1    1    2    0    0 -0.19906677299E+03 -0.60070796697E+02  0.37320982466E+03  0.49499662013E+03  0.25000000000E+03 0.  0.
    5000001    1    1    2    0    0  0.19906677299E+03  0.60070796697E+02  0.23284444373E+03  0.39994076524E+03  0.25000000000E+03 0.  0.
<mgrwt>
<rscale>  0 0.65849157E+03</rscale>
<asrwt>0</asrwt>
<pdfrwt beam="1">  1        2 0.22221778E-01 0.65849157E+03</pdfrwt>
<pdfrwt beam="2">  1       -2 0.11546090E+00 0.65849157E+03</pdfrwt>
<totfact> 0.14842226E+02</totfact>
</mgrwt>
</event>
<event>
 4    1  0.6476857E-006  0.7725362E+03  0.7818608E-02  0.9600643E-01
          2   -1    0    0  501    0  0.00000000000E+00  0.00000000000E+00  0.16656529976E+04  0.16656529976E+04  0.25500000000E-02 0.  1.
         -2   -1    0    0    0  501 -0.00000000000E+00 -0.00000000000E+00 -0.89576304656E+02  0.89576304692E+02  0.25500000000E-02 0. -1.
   -5000001    1    1    2    0    0  0.27849614899E+03  0.77714208352E+02  0.66146667653E+03  0.76396188867E+03  0.25000000000E+03 0.  0.
    5000001    1    1    2    0    0 -0.27849614899E+03 -0.77714208352E+02  0.91461001641E+03  0.99126741362E+03  0.25000000000E+03 0.  0.
<mgrwt>
<rscale>  0 0.77253619E+03</rscale>
<asrwt>0</asrwt>
<pdfrwt beam="1">  1        2 0.25625430E+00 0.77253619E+03</pdfrwt>
<pdfrwt beam="2">  1       -2 0.13780971E-01 0.77253619E+03</pdfrwt>
<totfact> 0.42015261E+02</totfact>
</mgrwt>
</event>
<event>
 4    1  0.6476857E-006  0.5720390E+03  0.7818608E-02  0.9965177E-01
          2   -1    0    0  501    0  0.00000000000E+00  0.00000000000E+00  0.18850891276E+04  0.18850891276E+04  0.25500000000E-02 0.  1.
         -2   -1    0    0    0  501 -0.00000000000E+00 -0.00000000000E+00 -0.43396967778E+02  0.43396967853E+02  0.25500000000E-02 0. -1.
   -5000001    1    1    2    0    0 -0.39066131660E+02 -0.82445842763E+02  0.12741631886E+04  0.13016586768E+04  0.25000000000E+03 0.  0.
    5000001    1    1    2    0    0  0.39066131660E+02  0.82445842763E+02  0.56752897119E+03  0.62682741865E+03  0.25000000000E+03 0.  0.
<mgrwt>
<rscale>  0 0.57203899E+03</rscale>
<asrwt>0</asrwt>
<pdfrwt beam="1">  1        2 0.29001367E+00 0.57203899E+03</pdfrwt>
<pdfrwt beam="2">  1       -2 0.66764575E-02 0.57203899E+03</pdfrwt>
<totfact> 0.10465958E+03</totfact>
</mgrwt>
</event>
<event>
 4    1  0.6476857E-006  0.6875631E+03  0.7818608E-02  0.9738740E-01
         -2   -1    0    0    0  501 -0.00000000000E+00  0.00000000000E+00  0.58369458850E+03  0.58369458850E+03  0.25500000000E-02 0. -1.
          2   -1    0    0  501    0  0.00000000000E+00 -0.00000000000E+00 -0.20247876755E+03  0.20247876757E+03  0.25500000000E-02 0.  1.
   -5000001    1    1    2    0    0  0.19261716073E+03  0.12918588230E+03  0.14082778685E+03  0.36894827326E+03  0.25000000000E+03 0.  0.
    5000001    1    1    2    0    0 -0.19261716073E+03 -0.12918588230E+03  0.24038803410E+03  0.41722508281E+03  0.25000000000E+03 0.  0.
<mgrwt>
<rscale>  0 0.68756312E+03</rscale>
<asrwt>0</asrwt>
<pdfrwt beam="1">  1        2 0.31150580E-01 0.68756312E+03</pdfrwt>
<pdfrwt beam="2">  1       -2 0.89799166E-01 0.68756312E+03</pdfrwt>
<totfact> 0.18305173E+02</totfact>
</mgrwt>
</event>
<event>
 4    1  0.6476857E-006  0.5953401E+03  0.7818608E-02  0.9915121E-01
         -2   -1    0    0    0  501 -0.00000000000E+00  0.00000000000E+00  0.46947745523E+02  0.46947745592E+02  0.25500000000E-02 0. -1.
          2   -1    0    0  501    0  0.00000000000E+00 -0.00000000000E+00 -0.18873636311E+04  0.18873636311E+04  0.25500000000E-02 0.  1.
   -5000001    1    1    2    0    0 -0.15313781388E+03 -0.45737880257E+02 -0.99739161060E+03  0.10405927006E+04  0.25000000000E+03 0.  0.
    5000001    1    1    2    0    0  0.15313781388E+03  0.45737880257E+02 -0.84302427502E+03  0.89371867609E+03  0.25000000000E+03 0.  0.
<mgrwt>
<rscale>  0 0.59534013E+03</rscale>
<asrwt>0</asrwt>
<pdfrwt beam="1">  1        2 0.29036358E+00 0.59534013E+03</pdfrwt>
<pdfrwt beam="2">  1       -2 0.72227315E-02 0.59534013E+03</pdfrwt>
<totfact> 0.92043757E+02</totfact>
</mgrwt>
</event>
<event>
 4    1  0.6476857E-006  0.6545351E+03  0.7818608E-02  0.9798306E-01
          2   -1    0    0  501    0  0.00000000000E+00  0.00000000000E+00  0.14070633586E+04  0.14070633587E+04  0.25500000000E-02 0.  1.
         -2   -1    0    0    0  501 -0.00000000000E+00 -0.00000000000E+00 -0.76118847931E+02  0.76118847974E+02  0.25500000000E-02 0. -1.
   -5000001    1    1    2    0    0 -0.17191747942E+03 -0.86936439701E+02  0.46935476140E+03  0.56560362121E+03  0.25000000000E+03 0.  0.
    5000001    1    1    2    0    0  0.17191747942E+03  0.86936439701E+02  0.86158974932E+03  0.91757858541E+03  0.25000000000E+03 0.  0.
<mgrwt>
<rscale>  0 0.65453508E+03</rscale>
<asrwt>0</asrwt>
<pdfrwt beam="1">  1        2 0.21647129E+00 0.65453508E+03</pdfrwt>
<pdfrwt beam="2">  1       -2 0.11710592E-01 0.65453508E+03</pdfrwt>
<totfact> 0.77092747E+02</totfact>
</mgrwt>
</event>
<event>
 4    1  0.6476857E-006  0.1476728E+04  0.7818608E-02  0.8900078E-01
          2   -1    0    0  501    0  0.00000000000E+00  0.00000000000E+00  0.26577443921E+04  0.26577443921E+04  0.25500000000E-02 0.  1.
         -2   -1    0    0    0  501 -0.00000000000E+00 -0.00000000000E+00 -0.20512936859E+03  0.20512936860E+03  0.25500000000E-02 0. -1.
   -5000001    1    1    2    0    0 -0.10476524754E+03 -0.68490440813E+03  0.11272341331E+04  0.13465610258E+04  0.25000000000E+03 0.  0.
    5000001    1    1    2    0    0  0.10476524754E+03  0.68490440813E+03  0.13253808904E+04  0.15163127349E+04  0.25000000000E+03 0.  0.
<mgrwt>
<rscale>  0 0.14767280E+04</rscale>
<asrwt>0</asrwt>
<pdfrwt beam="1">  1        2 0.40888374E+00 0.14767280E+04</pdfrwt>
<pdfrwt beam="2">  1       -2 0.31558365E-01 0.14767280E+04</pdfrwt>
<totfact> 0.25502332E+01</totfact>
</mgrwt>
</event>
<event>
 4    1  0.6476857E-006  0.6299792E+03  0.7818608E-02  0.9845089E-01
         -2   -1    0    0    0  501 -0.00000000000E+00  0.00000000000E+00  0.43218167043E+03  0.43218167044E+03  0.25500000000E-02 0. -1.
          2   -1    0    0  501    0  0.00000000000E+00 -0.00000000000E+00 -0.22957579557E+03  0.22957579559E+03  0.25500000000E-02 0.  1.
   -5000001    1    1    2    0    0 -0.17272378955E+03 -0.76585899036E+02  0.67761976839E+02  0.32060972055E+03  0.25000000000E+03 0.  0.
    5000001    1    1    2    0    0  0.17272378955E+03  0.76585899036E+02  0.13484389802E+03  0.34114774547E+03  0.25000000000E+03 0.  0.
<mgrwt>
<rscale>  0 0.62997921E+03</rscale>
<asrwt>0</asrwt>
<pdfrwt beam="1">  1        2 0.35319353E-01 0.62997921E+03</pdfrwt>
<pdfrwt beam="2">  1       -2 0.66489487E-01 0.62997921E+03</pdfrwt>
<totfact> 0.31097501E+02</totfact>
</mgrwt>
</event>
<event>
 4    1  0.6476857E-006  0.6466858E+03  0.7818608E-02  0.9813018E-01
          2   -1    0    0  501    0  0.00000000000E+00  0.00000000000E+00  0.12672828329E+04  0.12672828329E+04  0.25500000000E-02 0.  1.
         -2   -1    0    0    0  501 -0.00000000000E+00 -0.00000000000E+00 -0.82499848745E+02  0.82499848784E+02  0.25500000000E-02 0. -1.
   -5000001    1    1    2    0    0 -0.13493063977E+03 -0.88730877914E+02  0.32861309728E+03  0.44335765917E+03  0.25000000000E+03 0.  0.
    5000001    1    1    2    0    0  0.13493063977E+03  0.88730877914E+02  0.85616988693E+03  0.90642502256E+03  0.25000000000E+03 0.  0.
<mgrwt>
<rscale>  0 0.64668583E+03</rscale>
<asrwt>0</asrwt>
<pdfrwt beam="1">  1        2 0.19496659E+00 0.64668583E+03</pdfrwt>
<pdfrwt beam="2">  1       -2 0.12692285E-01 0.64668583E+03</pdfrwt>
<totfact> 0.81096985E+02</totfact>
</mgrwt>
</event>
<event>
 4    1  0.6476857E-006  0.6441863E+03  0.7818608E-02  0.9817750E-01
          2   -1    0    0  501    0  0.00000000000E+00  0.00000000000E+00  0.12457176336E+04  0.12457176336E+04  0.25500000000E-02 0.  1.
         -2   -1    0    0    0  501 -0.00000000000E+00 -0.00000000000E+00 -0.83280510970E+02  0.83280511009E+02  0.25500000000E-02 0. -1.
   -5000001    1    1    2    0    0  0.14195573669E+02 -0.19780267587E+03  0.49089994284E+03  0.58549992892E+03  0.25000000000E+03 0.  0.
    5000001    1    1    2    0    0 -0.14195573669E+02  0.19780267587E+03  0.67153717984E+03  0.74349821573E+03  0.25000000000E+03 0.  0.
<mgrwt>
<rscale>  0 0.64418631E+03</rscale>
<asrwt>0</asrwt>
<pdfrwt beam="1">  1        2 0.19164887E+00 0.64418631E+03</pdfrwt>
<pdfrwt beam="2">  1       -2 0.12812386E-01 0.64418631E+03</pdfrwt>
<totfact> 0.82179796E+02</totfact>
</mgrwt>
</event>
<event>
 4    1  0.6476857E-006  0.9885705E+03  0.7818608E-02  0.9321170E-01
         -2   -1    0    0    0  501 -0.00000000000E+00  0.00000000000E+00  0.36442649073E+03  0.36442649074E+03  0.25500000000E-02 0. -1.
          2   -1    0    0  501    0  0.00000000000E+00 -0.00000000000E+00 -0.67041759368E+03  0.67041759369E+03  0.25500000000E-02 0.  1.
   -5000001    1    1    2    0    0 -0.26706209994E+03  0.32386498716E+03 -0.23138212254E+03  0.54060002013E+03  0.25000000000E+03 0.  0.
    5000001    1    1    2    0    0  0.26706209994E+03 -0.32386498716E+03 -0.74608980410E+02  0.49424406429E+03  0.25000000000E+03 0.  0.
<mgrwt>
<rscale>  0 0.98857055E+03</rscale>
<asrwt>0</asrwt>
<pdfrwt beam="1">  1        2 0.10314117E+00 0.98857055E+03</pdfrwt>
<pdfrwt beam="2">  1       -2 0.56065614E-01 0.98857055E+03</pdfrwt>
<totfact> 0.12915134E+02</totfact>
</mgrwt>
</event>
<event>
 4    1  0.6476857E-006  0.8045780E+03  0.7818608E-02  0.9553414E-01
         -2   -1    0    0    0  501 -0.00000000000E+00  0.00000000000E+00  0.22756231154E+03  0.22756231155E+03  0.25500000000E-02 0. -1.
          2   -1    0    0  501    0  0.00000000000E+00 -0.00000000000E+00 -0.71117420878E+03  0.71117420878E+03  0.25500000000E-02 0.  1.
   -5000001    1    1    2    0    0 -0.26600398804E+03  0.47186598357E+01 -0.43896861805E+03  0.57094118352E+03  0.25000000000E+03 0.  0.
    5000001    1    1    2    0    0  0.26600398804E+03 -0.47186598357E+01 -0.44643279189E+02  0.36779533681E+03  0.25000000000E+03 0.  0.
<mgrwt>
<rscale>  0 0.80457802E+03</rscale>
<asrwt>0</asrwt>
<pdfrwt beam="1">  1        2 0.10941142E+00 0.80457802E+03</pdfrwt>
<pdfrwt beam="2">  1       -2 0.35009587E-01 0.80457802E+03</pdfrwt>
<totfact> 0.30900233E+02</totfact>
</mgrwt>
</event>
<event>
 4    1  0.6476857E-006  0.1204846E+04  0.7818608E-02  0.9108625E-01
          2   -1    0    0  501    0  0.00000000000E+00  0.00000000000E+00  0.24564783222E+04  0.24564783222E+04  0.25500000000E-02 0.  1.
         -2   -1    0    0    0  501 -0.00000000000E+00 -0.00000000000E+00 -0.14773740313E+03  0.14773740315E+03  0.25500000000E-02 0. -1.
   -5000001    1    1    2    0    0 -0.39364628223E+03  0.34032215501E+03  0.15264738103E+04  0.16319922972E+04  0.25000000000E+03 0.  0.
    5000001    1    1    2    0    0  0.39364628223E+03 -0.34032215501E+03  0.78226710879E+03  0.97222342812E+03  0.25000000000E+03 0.  0.
<mgrwt>
<rscale>  0 0.12048464E+04</rscale>
<asrwt>0</asrwt>
<pdfrwt beam="1">  1        2 0.37791973E+00 0.12048464E+04</pdfrwt>
<pdfrwt beam="2">  1       -2 0.22728832E-01 0.12048464E+04</pdfrwt>
<totfact> 0.62342964E+01</totfact>
</mgrwt>
</event>
<event>
 4    1  0.6476857E-006  0.7492578E+03  0.7818608E-02  0.9636515E-01
          2   -1    0    0  501    0  0.00000000000E+00  0.00000000000E+00  0.21021820274E+04  0.21021820274E+04  0.25500000000E-02 0.  1.
         -2   -1    0    0    0  501 -0.00000000000E+00 -0.00000000000E+00 -0.66762448417E+02  0.66762448465E+02  0.25500000000E-02 0. -1.
   -5000001    1    1    2    0    0  0.78798156918E+02  0.67311023503E+02  0.26781432572E+03  0.38074195524E+03  0.25000000000E+03 0.  0.
    5000001    1    1    2    0    0 -0.78798156918E+02 -0.67311023503E+02  0.17676052533E+04  0.17882025207E+04  0.25000000000E+03 0.  0.
<mgrwt>
<rscale>  0 0.74925782E+03</rscale>
<asrwt>0</asrwt>
<pdfrwt beam="1">  1        2 0.32341256E+00 0.74925782E+03</pdfrwt>
<pdfrwt beam="2">  1       -2 0.10271148E-01 0.74925782E+03</pdfrwt>
<totfact> 0.39515894E+02</totfact>
</mgrwt>
</event>
<event>
 4    1  0.6476857E-006  0.5533513E+03  0.7818608E-02  0.1000721E+00
         -2   -1    0    0    0  501 -0.00000000000E+00  0.00000000000E+00  0.48876389053E+02  0.48876389120E+02  0.25500000000E-02 0. -1.
          2   -1    0    0  501    0  0.00000000000E+00 -0.00000000000E+00 -0.15661838450E+04  0.15661838450E+04  0.25500000000E-02 0.  1.
   -5000001    1    1    2    0    0  0.92883571135E+02  0.69835522037E+01 -0.97260145032E+03  0.10085284869E+04  0.25000000000E+03 0.  0.
    5000001    1    1    2    0    0 -0.92883571135E+02 -0.69835522037E+01 -0.54470600567E+03  0.60653174723E+03  0.25000000000E+03 0.  0.
<mgrwt>
<rscale>  0 0.55335128E+03</rscale>
<asrwt>0</asrwt>
<pdfrwt beam="1">  1        2 0.24095132E+00 0.55335128E+03</pdfrwt>
<pdfrwt beam="2">  1       -2 0.75194457E-02 0.55335128E+03</pdfrwt>
<totfact> 0.12925651E+03</totfact>
</mgrwt>
</event>
<event>
 4    1  0.6476857E-006  0.7122271E+03  0.7818608E-02  0.9696548E-01
         -2   -1    0    0    0  501 -0.00000000000E+00  0.00000000000E+00  0.36908918643E+02  0.36908918731E+02  0.25500000000E-02 0. -1.
          2   -1    0    0  501    0  0.00000000000E+00 -0.00000000000E+00 -0.34359409664E+04  0.34359409664E+04  0.25500000000E-02 0.  1.
   -5000001    1    1    2    0    0  0.42479699599E+02  0.24991034211E+03 -0.16626505052E+04  0.17003430261E+04  0.25000000000E+03 0.  0.
    5000001    1    1    2    0    0 -0.42479699599E+02 -0.24991034211E+03 -0.17363815425E+04  0.17725068590E+04  0.25000000000E+03 0.  0.
<mgrwt>
<rscale>  0 0.71222711E+03</rscale>
<asrwt>0</asrwt>
<pdfrwt beam="1">  1        2 0.52860605E+00 0.71222711E+03</pdfrwt>
<pdfrwt beam="2">  1       -2 0.56782979E-02 0.71222711E+03</pdfrwt>
<totfact> 0.16447618E+02</totfact>
</mgrwt>
</event>
<event>
 4    1  0.6476857E-006  0.7516740E+03  0.7818608E-02  0.9632728E-01
          2   -1    0    0  501    0  0.00000000000E+00  0.00000000000E+00  0.18285185460E+04  0.18285185460E+04  0.25500000000E-02 0.  1.
         -2   -1    0    0    0  501 -0.00000000000E+00 -0.00000000000E+00 -0.77250222008E+02  0.77250222050E+02  0.25500000000E-02 0. -1.
   -5000001    1    1    2    0    0  0.14499264900E+03  0.23948142653E+03  0.92500820894E+03  0.99825568295E+03  0.25000000000E+03 0.  0.
    5000001    1    1    2    0    0 -0.14499264900E+03 -0.23948142653E+03  0.82626011504E+03  0.90751308510E+03  0.25000000000E+03 0.  0.
<mgrwt>
<rscale>  0 0.75167403E+03</rscale>
<asrwt>0</asrwt>
<pdfrwt beam="1">  1        2 0.28131053E+00 0.75167403E+03</pdfrwt>
<pdfrwt beam="2">  1       -2 0.11884650E-01 0.75167403E+03</pdfrwt>
<totfact> 0.43852469E+02</totfact>
</mgrwt>
</event>
<event>
 4    1  0.6476857E-006  0.5759324E+03  0.7818608E-02  0.9956636E-01
          2   -1    0    0  501    0  0.00000000000E+00  0.00000000000E+00  0.95510613718E+03  0.95510613719E+03  0.25500000000E-02 0.  1.
         -2   -1    0    0    0  501 -0.00000000000E+00 -0.00000000000E+00 -0.86822332884E+02  0.86822332922E+02  0.25500000000E-02 0. -1.
   -5000001    1    1    2    0    0  0.13162578501E+03 -0.41546382405E+02  0.50117919595E+03  0.57682929505E+03  0.25000000000E+03 0.  0.
    5000001    1    1    2    0    0 -0.13162578501E+03  0.41546382405E+02  0.36710460835E+03  0.46509917506E+03  0.25000000000E+03 0.  0.
<mgrwt>
<rscale>  0 0.57593244E+03</rscale>
<asrwt>0</asrwt>
<pdfrwt beam="1">  1        2 0.14693939E+00 0.57593244E+03</pdfrwt>
<pdfrwt beam="2">  1       -2 0.13357283E-01 0.57593244E+03</pdfrwt>
<totfact> 0.11555216E+03</totfact>
</mgrwt>
</event>
<event>
 4    1  0.6476857E-006  0.5441692E+03  0.7818608E-02  0.1002853E+00
          2   -1    0    0  501    0  0.00000000000E+00  0.00000000000E+00  0.14034736984E+04  0.14034736984E+04  0.25500000000E-02 0.  1.
         -2   -1    0    0    0  501 -0.00000000000E+00 -0.00000000000E+00 -0.52747708217E+02  0.52747708278E+02  0.25500000000E-02 0. -1.
   -5000001    1    1    2    0    0 -0.92228447755E+02  0.50203240029E+02  0.61531160033E+03  0.67240970946E+03  0.25000000000E+03 0.  0.
    5000001    1    1    2    0    0  0.92228447755E+02 -0.50203240029E+02  0.73541438985E+03  0.78381169721E+03  0.25000000000E+03 0.  0.
<mgrwt>
<rscale>  0 0.54416917E+03</rscale>
<asrwt>0</asrwt>
<pdfrwt beam="1">  1        2 0.21591900E+00 0.54416917E+03</pdfrwt>
<pdfrwt beam="2">  1       -2 0.81150334E-02 0.54416917E+03</pdfrwt>
<totfact> 0.14087888E+03</totfact>
</mgrwt>
</event>
<event>
 4    1  0.6476857E-006  0.7331097E+03  0.7818608E-02  0.9662228E-01
         -2   -1    0    0    0  501 -0.00000000000E+00  0.00000000000E+00  0.14058431476E+03  0.14058431478E+03  0.25500000000E-02 0. -1.
          2   -1    0    0  501    0  0.00000000000E+00 -0.00000000000E+00 -0.95574299104E+03  0.95574299104E+03  0.25500000000E-02 0.  1.
   -5000001    1    1    2    0    0  0.59335790344E+02  0.25451320510E+03 -0.49686603326E+03  0.61455151337E+03  0.25000000000E+03 0.  0.
    5000001    1    1    2    0    0 -0.59335790344E+02 -0.25451320510E+03 -0.31829264303E+03  0.48177579245E+03  0.25000000000E+03 0.  0.
<mgrwt>
<rscale>  0 0.73310974E+03</rscale>
<asrwt>0</asrwt>
<pdfrwt beam="1">  1        2 0.14703738E+00 0.73310974E+03</pdfrwt>
<pdfrwt beam="2">  1       -2 0.21628357E-01 0.73310974E+03</pdfrwt>
<totfact> 0.50327477E+02</totfact>
</mgrwt>
</event>
<event>
 4    1  0.6476857E-006  0.9018409E+03  0.7818608E-02  0.9423283E-01
          2   -1    0    0  501    0  0.00000000000E+00  0.00000000000E+00  0.22623969404E+04  0.22623969404E+04  0.25500000000E-02 0.  1.
         -2   -1    0    0    0  501 -0.00000000000E+00 -0.00000000000E+00 -0.89873386117E+02  0.89873386154E+02  0.25500000000E-02 0. -1.
   -5000001    1    1    2    0    0 -0.12986314679E+02 -0.34310538716E+03  0.14813076924E+04  0.15409939749E+04  0.25000000000E+03 0.  0.
    5000001    1    1    2    0    0  0.12986314679E+02  0.34310538716E+03  0.69121586191E+03  0.81127635170E+03  0.25000000000E+03 0.  0.
<mgrwt>
<rscale>  0 0.90184095E+03</rscale>
<asrwt>0</asrwt>
<pdfrwt beam="1">  1        2 0.34806104E+00 0.90184095E+03</pdfrwt>
<pdfrwt beam="2">  1       -2 0.13826676E-01 0.90184095E+03</pdfrwt>
<totfact> 0.19465303E+02</totfact>
</mgrwt>
</event>
<event>
 4    1  0.6476857E-006  0.6690351E+03  0.7818608E-02  0.9771702E-01
          2   -1    0    0  501    0  0.00000000000E+00  0.00000000000E+00  0.86164785201E+03  0.86164785201E+03  0.25500000000E-02 0.  1.
         -2   -1    0    0    0  501 -0.00000000000E+00 -0.00000000000E+00 -0.12986975369E+03  0.12986975371E+03  0.25500000000E-02 0. -1.
   -5000001    1    1    2    0    0  0.18899099960E+03 -0.38956546213E+02  0.20241853887E+03  0.37511128389E+03  0.25000000000E+03 0.  0.
    5000001    1    1    2    0    0 -0.18899099960E+03  0.38956546213E+02  0.52935955945E+03  0.61640632184E+03  0.25000000000E+03 0.  0.
<mgrwt>
<rscale>  0 0.66903511E+03</rscale>
<asrwt>0</asrwt>
<pdfrwt beam="1">  1        2 0.13256121E+00 0.66903511E+03</pdfrwt>
<pdfrwt beam="2">  1       -2 0.19979962E-01 0.66903511E+03</pdfrwt>
<totfact> 0.67010351E+02</totfact>
</mgrwt>
</event>
<event>
 4    1  0.6476857E-006  0.1313438E+04  0.7818608E-02  0.9018976E-01
          2   -1    0    0  501    0  0.00000000000E+00  0.00000000000E+00  0.26557032703E+04  0.26557032703E+04  0.25500000000E-02 0.  1.
         -2   -1    0    0    0  501 -0.00000000000E+00 -0.00000000000E+00 -0.16239764549E+03  0.16239764551E+03  0.25500000000E-02 0. -1.
   -5000001    1    1    2    0    0 -0.44578287946E+03  0.41088504661E+03  0.13219340434E+04  0.14756552824E+04  0.25000000000E+03 0.  0.
    5000001    1    1    2    0    0  0.44578287946E+03 -0.41088504661E+03  0.11713715814E+04  0.13424456335E+04  0.25000000000E+03 0.  0.
<mgrwt>
<rscale>  0 0.13134382E+04</rscale>
<asrwt>0</asrwt>
<pdfrwt beam="1">  1        2 0.40856977E+00 0.13134382E+04</pdfrwt>
<pdfrwt beam="2">  1       -2 0.24984251E-01 0.13134382E+04</pdfrwt>
<totfact> 0.39935330E+01</totfact>
</mgrwt>
</event>
<event>
 4    1  0.6476857E-006  0.7549746E+03  0.7818608E-02  0.9627578E-01
          2   -1    0    0  501    0  0.00000000000E+00  0.00000000000E+00  0.19991070305E+04  0.19991070305E+04  0.25500000000E-02 0.  1.
         -2   -1    0    0    0  501 -0.00000000000E+00 -0.00000000000E+00 -0.71280155304E+02  0.71280155350E+02  0.25500000000E-02 0. -1.
   -5000001    1    1    2    0    0  0.24213685700E+03 -0.14462282619E+03  0.90569852678E+03  0.98098717667E+03  0.25000000000E+03 0.  0.
    5000001    1    1    2    0    0 -0.24213685700E+03  0.14462282619E+03  0.10221283484E+04  0.10894000092E+04  0.25000000000E+03 0.  0.
<mgrwt>
<rscale>  0 0.75497459E+03</rscale>
<asrwt>0</asrwt>
<pdfrwt beam="1">  1        2 0.30755494E+00 0.75497459E+03</pdfrwt>
<pdfrwt beam="2">  1       -2 0.10966177E-01 0.75497459E+03</pdfrwt>
<totfact> 0.40403425E+02</totfact>
</mgrwt>
</event>
<event>
 4    1  0.6476857E-006  0.8645002E+03  0.7818608E-02  0.9471079E-01
          2   -1    0    0  501    0  0.00000000000E+00  0.00000000000E+00  0.15633950035E+04  0.15633950035E+04  0.25500000000E-02 0.  1.
         -2   -1    0    0    0  501 -0.00000000000E+00 -0.00000000000E+00 -0.11950924460E+03  0.11950924463E+03  0.25500000000E-02 0. -1.
   -5000001    1    1    2    0    0 -0.13766021784E+03 -0.32425276989E+03  0.69116555226E+03  0.81504602017E+03  0.25000000000E+03 0.  0.
    5000001    1    1    2    0    0  0.13766021784E+03  0.32425276989E+03  0.75272020659E+03  0.86785822792E+03  0.25000000000E+03 0.  0.
<mgrwt>
<rscale>  0 0.86450022E+03</rscale>
<asrwt>0</asrwt>
<pdfrwt beam="1">  1        2 0.24052228E+00 0.86450022E+03</pdfrwt>
<pdfrwt beam="2">  1       -2 0.18386040E-01 0.86450022E+03</pdfrwt>
<totfact> 0.29099755E+02</totfact>
</mgrwt>
</event>
<event>
 4    1  0.6476857E-006  0.8033042E+03  0.7818608E-02  0.9555247E-01
         -2   -1    0    0    0  501 -0.00000000000E+00  0.00000000000E+00  0.12464624260E+03  0.12464624263E+03  0.25500000000E-02 0. -1.
          2   -1    0    0  501    0  0.00000000000E+00 -0.00000000000E+00 -0.12942580769E+04  0.12942580770E+04  0.25500000000E-02 0.  1.
   -5000001    1    1    2    0    0  0.26651044866E+03 -0.68902435446E+02 -0.85296932226E+03  0.93050095624E+03  0.25000000000E+03 0.  0.
    5000001    1    1    2    0    0 -0.26651044866E+03  0.68902435446E+02 -0.31664251209E+03  0.48840336334E+03  0.25000000000E+03 0.  0.
<mgrwt>
<rscale>  0 0.80330419E+03</rscale>
<asrwt>0</asrwt>
<pdfrwt beam="1">  1        2 0.19911662E+00 0.80330419E+03</pdfrwt>
<pdfrwt beam="2">  1       -2 0.19176346E-01 0.80330419E+03</pdfrwt>
<totfact> 0.38528345E+02</totfact>
</mgrwt>
</event>
<event>
 4    1  0.6476857E-006  0.6133571E+03  0.7818608E-02  0.9878075E-01
         -2   -1    0    0    0  501 -0.00000000000E+00  0.00000000000E+00  0.25137267595E+03  0.25137267597E+03  0.25500000000E-02 0. -1.
          2   -1    0    0  501    0  0.00000000000E+00 -0.00000000000E+00 -0.37415253112E+03  0.37415253113E+03  0.25500000000E-02 0.  1.
   -5000001    1    1    2    0    0 -0.13309866262E+03  0.89021361898E+02 -0.13980262430E+03  0.32815366923E+03  0.25000000000E+03 0.  0.
    5000001    1    1    2    0    0  0.13309866262E+03 -0.89021361898E+02  0.17022769130E+02  0.29737153787E+03  0.25000000000E+03 0.  0.
<mgrwt>
<rscale>  0 0.61335707E+03</rscale>
<asrwt>0</asrwt>
<pdfrwt beam="1">  1        2 0.57561928E-01 0.61335707E+03</pdfrwt>
<pdfrwt beam="2">  1       -2 0.38672719E-01 0.61335707E+03</pdfrwt>
<totfact> 0.54572780E+02</totfact>
</mgrwt>
</event>
<event>
 4    1  0.6476857E-006  0.7882762E+03  0.7818608E-02  0.9577144E-01
          2   -1    0    0  501    0  0.00000000000E+00  0.00000000000E+00  0.73589708576E+03  0.73589708576E+03  0.25500000000E-02 0.  1.
         -2   -1    0    0    0  501 -0.00000000000E+00 -0.00000000000E+00 -0.21109585875E+03  0.21109585876E+03  0.25500000000E-02 0. -1.
   -5000001    1    1    2    0    0  0.21855281163E+03 -0.18383137619E+03  0.13477755312E+03  0.40277077249E+03  0.25000000000E+03 0.  0.
    5000001    1    1    2    0    0 -0.21855281163E+03  0.18383137619E+03  0.39002367389E+03  0.54422217204E+03  0.25000000000E+03 0.  0.
<mgrwt>
<rscale>  0 0.78827616E+03</rscale>
<asrwt>0</asrwt>
<pdfrwt beam="1">  1        2 0.11321494E+00 0.78827616E+03</pdfrwt>
<pdfrwt beam="2">  1       -2 0.32476286E-01 0.78827616E+03</pdfrwt>
<totfact> 0.34121609E+02</totfact>
</mgrwt>
</event>
<event>
 4    1  0.6476857E-006  0.7903619E+03  0.7818608E-02  0.9574074E-01
         -2   -1    0    0    0  501 -0.00000000000E+00  0.00000000000E+00  0.74304413982E+03  0.74304413982E+03  0.25500000000E-02 0. -1.
          2   -1    0    0  501    0  0.00000000000E+00 -0.00000000000E+00 -0.21017320757E+03  0.21017320759E+03  0.25500000000E-02 0.  1.
   -5000001    1    1    2    0    0 -0.14683257987E+03  0.20114874515E+03  0.48098847373E+03  0.59654885471E+03  0.25000000000E+03 0.  0.
    5000001    1    1    2    0    0  0.14683257987E+03 -0.20114874515E+03  0.51882458513E+02  0.35666849271E+03  0.25000000000E+03 0.  0.
<mgrwt>
<rscale>  0 0.79036187E+03</rscale>
<asrwt>0</asrwt>
<pdfrwt beam="1">  1        2 0.32334340E-01 0.79036187E+03</pdfrwt>
<pdfrwt beam="2">  1       -2 0.11431448E+00 0.79036187E+03</pdfrwt>
<totfact> 0.98581018E+01</totfact>
</mgrwt>
</event>
<event>
 4    1  0.6476857E-006  0.1012606E+04  0.7818608E-02  0.9294826E-01
         -2   -1    0    0    0  501 -0.00000000000E+00  0.00000000000E+00  0.24851729744E+03  0.24851729746E+03  0.25500000000E-02 0. -1.
          2   -1    0    0  501    0  0.00000000000E+00 -0.00000000000E+00 -0.10314885261E+04  0.10314885261E+04  0.25500000000E-02 0.  1.
   -5000001    1    1    2    0    0 -0.20481994343E+03  0.38323634218E+03 -0.30191089089E+03  0.58521063664E+03  0.25000000000E+03 0.  0.
    5000001    1    1    2    0    0  0.20481994343E+03 -0.38323634218E+03 -0.48106033773E+03  0.69479518689E+03  0.25000000000E+03 0.  0.
<mgrwt>
<rscale>  0 0.10126060E+04</rscale>
<asrwt>0</asrwt>
<pdfrwt beam="1">  1        2 0.15869054E+00 0.10126060E+04</pdfrwt>
<pdfrwt beam="2">  1       -2 0.38233431E-01 0.10126060E+04</pdfrwt>
<totfact> 0.15483003E+02</totfact>
</mgrwt>
</event>
<event>
 4    1  0.6476857E-006  0.5447424E+03  0.7818608E-02  0.1002718E+00
          2   -1    0    0  501    0  0.00000000000E+00  0.00000000000E+00  0.41454567621E+03  0.41454567622E+03  0.25500000000E-02 0.  1.
         -2   -1    0    0    0  501 -0.00000000000E+00 -0.00000000000E+00 -0.17895753144E+03  0.17895753146E+03  0.25500000000E-02 0. -1.
   -5000001    1    1    2    0    0  0.10670644953E+03 -0.14174544192E+02  0.12862837825E+03  0.30105222764E+03  0.25000000000E+03 0.  0.
    5000001    1    1    2    0    0 -0.10670644953E+03  0.14174544192E+02  0.10695976652E+03  0.29245098004E+03  0.25000000000E+03 0.  0.
<mgrwt>
<rscale>  0 0.54474240E+03</rscale>
<asrwt>0</asrwt>
<pdfrwt beam="1">  1        2 0.63776258E-01 0.54474240E+03</pdfrwt>
<pdfrwt beam="2">  1       -2 0.27531928E-01 0.54474240E+03</pdfrwt>
<totfact> 0.92080308E+02</totfact>
</mgrwt>
</event>
<event>
 4    1  0.6476857E-006  0.6650718E+03  0.7818608E-02  0.9778902E-01
          2   -1    0    0  501    0  0.00000000000E+00  0.00000000000E+00  0.20452483931E+04  0.20452483931E+04  0.25500000000E-02 0.  1.
         -2   -1    0    0    0  501 -0.00000000000E+00 -0.00000000000E+00 -0.54066847852E+02  0.54066847912E+02  0.25500000000E-02 0. -1.
   -5000001    1    1    2    0    0  0.13379881144E+03 -0.15654966832E+03  0.12332796177E+04  0.12751033433E+04  0.25000000000E+03 0.  0.
    5000001    1    1    2    0    0 -0.13379881144E+03  0.15654966832E+03  0.75790192751E+03  0.82421189770E+03  0.25000000000E+03 0.  0.
<mgrwt>
<rscale>  0 0.66507183E+03</rscale>
<asrwt>0</asrwt>
<pdfrwt beam="1">  1        2 0.31465363E+00 0.66507183E+03</pdfrwt>
<pdfrwt beam="2">  1       -2 0.83179758E-02 0.66507183E+03</pdfrwt>
<totfact> 0.60073917E+02</totfact>
</mgrwt>
</event>
<event>
 4    1  0.6476857E-006  0.6426351E+03  0.7818608E-02  0.9820698E-01
         -2   -1    0    0    0  501 -0.00000000000E+00  0.00000000000E+00  0.12328106605E+03  0.12328106607E+03  0.25500000000E-02 0. -1.
          2   -1    0    0  501    0  0.00000000000E+00 -0.00000000000E+00 -0.83747636778E+03  0.83747636778E+03  0.25500000000E-02 0.  1.
   -5000001    1    1    2    0    0  0.51221975465E+02 -0.19161061484E+03 -0.30102591519E+03  0.43869684306E+03  0.25000000000E+03 0.  0.
    5000001    1    1    2    0    0 -0.51221975465E+02  0.19161061484E+03 -0.41316938654E+03  0.52206059080E+03  0.25000000000E+03 0.  0.
<mgrwt>
<rscale>  0 0.64263514E+03</rscale>
<asrwt>0</asrwt>
<pdfrwt beam="1">  1        2 0.12884251E+00 0.64263514E+03</pdfrwt>
<pdfrwt beam="2">  1       -2 0.18966318E-01 0.64263514E+03</pdfrwt>
<totfact> 0.76302038E+02</totfact>
</mgrwt>
</event>
<event>
 4    1  0.6476857E-006  0.8600076E+03  0.7818608E-02  0.9477003E-01
          2   -1    0    0  501    0  0.00000000000E+00  0.00000000000E+00  0.36987144552E+03  0.36987144553E+03  0.25500000000E-02 0.  1.
         -2   -1    0    0    0  501 -0.00000000000E+00 -0.00000000000E+00 -0.49991227929E+03  0.49991227930E+03  0.25500000000E-02 0. -1.
   -5000001    1    1    2    0    0  0.11974035491E+02 -0.18060297497E+03 -0.36782739048E+03  0.48016434820E+03  0.25000000000E+03 0.  0.
    5000001    1    1    2    0    0 -0.11974035491E+02  0.18060297497E+03  0.23778655671E+03  0.38961937663E+03  0.25000000000E+03 0.  0.
<mgrwt>
<rscale>  0 0.86000762E+03</rscale>
<asrwt>0</asrwt>
<pdfrwt beam="1">  1        2 0.56903299E-01 0.86000762E+03</pdfrwt>
<pdfrwt beam="2">  1       -2 0.76909582E-01 0.86000762E+03</pdfrwt>
<totfact> 0.13187879E+02</totfact>
</mgrwt>
</event>
<event>
 4    1  0.6476857E-006  0.7024168E+03  0.7818608E-02  0.9713108E-01
          2   -1    0    0  501    0  0.00000000000E+00  0.00000000000E+00  0.28018494309E+03  0.28018494311E+03  0.25500000000E-02 0.  1.
         -2   -1    0    0    0  501 -0.00000000000E+00 -0.00000000000E+00 -0.44023543146E+03  0.44023543147E+03  0.25500000000E-02 0. -1.
   -5000001    1    1    2    0    0 -0.11057921351E+03  0.14513276673E+03  0.90229661519E+02  0.32238590890E+03  0.25000000000E+03 0.  0.
    5000001    1    1    2    0    0  0.11057921351E+03 -0.14513276673E+03 -0.25028014989E+03  0.39803446568E+03  0.25000000000E+03 0.  0.
<mgrwt>
<rscale>  0 0.70241680E+03</rscale>
<asrwt>0</asrwt>
<pdfrwt beam="1">  1        2 0.43105376E-01 0.70241680E+03</pdfrwt>
<pdfrwt beam="2">  1       -2 0.67728528E-01 0.70241680E+03</pdfrwt>
<totfact> 0.23900189E+02</totfact>
</mgrwt>
</event>
<event>
 4    1  0.6476857E-006  0.8592875E+03  0.7818608E-02  0.9477956E-01
          2   -1    0    0  501    0  0.00000000000E+00  0.00000000000E+00  0.86650752001E+03  0.86650752001E+03  0.25500000000E-02 0.  1.
         -2   -1    0    0    0  501 -0.00000000000E+00 -0.00000000000E+00 -0.21303188930E+03  0.21303188931E+03  0.25500000000E-02 0. -1.
   -5000001    1    1    2    0    0  0.19393395538E+03  0.26858338915E+03  0.46633246056E+03  0.62427027780E+03  0.25000000000E+03 0.  0.
    5000001    1    1    2    0    0 -0.19393395538E+03 -0.26858338915E+03  0.18714317015E+03  0.45526913152E+03  0.25000000000E+03 0.  0.
<mgrwt>
<rscale>  0 0.85928746E+03</rscale>
<asrwt>0</asrwt>
<pdfrwt beam="1">  1        2 0.13330885E+00 0.85928746E+03</pdfrwt>
<pdfrwt beam="2">  1       -2 0.32774137E-01 0.85928746E+03</pdfrwt>
<totfact> 0.26916182E+02</totfact>
</mgrwt>
</event>
<event>
 4    1  0.6476857E-006  0.7121248E+03  0.7818608E-02  0.9696719E-01
          2   -1    0    0  501    0  0.00000000000E+00  0.00000000000E+00  0.45393676330E+03  0.45393676331E+03  0.25500000000E-02 0.  1.
         -2   -1    0    0    0  501 -0.00000000000E+00 -0.00000000000E+00 -0.27929096882E+03  0.27929096883E+03  0.25500000000E-02 0. -1.
   -5000001    1    1    2    0    0 -0.17523004597E+03  0.16784026571E+03  0.16301683690E+03  0.38464322809E+03  0.25000000000E+03 0.  0.
    5000001    1    1    2    0    0  0.17523004597E+03 -0.16784026571E+03  0.11628957584E+02  0.34858450404E+03  0.25000000000E+03 0.  0.
<mgrwt>
<rscale>  0 0.71212482E+03</rscale>
<asrwt>0</asrwt>
<pdfrwt beam="1">  1        2 0.69836425E-01 0.71212482E+03</pdfrwt>
<pdfrwt beam="2">  1       -2 0.42967841E-01 0.71212482E+03</pdfrwt>
<totfact> 0.35653241E+02</totfact>
</mgrwt>
</event>
<event>
 4    1  0.6476857E-006  0.5718191E+03  0.7818608E-02  0.9965661E-01
          2   -1    0    0  501    0  0.00000000000E+00  0.00000000000E+00  0.62679989359E+03  0.62679989360E+03  0.25500000000E-02 0.  1.
         -2   -1    0    0    0  501 -0.00000000000E+00 -0.00000000000E+00 -0.13041525338E+03  0.13041525340E+03  0.25500000000E-02 0. -1.
   -5000001    1    1    2    0    0 -0.46327784681E+02 -0.13053873176E+03  0.23813844943E+03  0.37201686147E+03  0.25000000000E+03 0.  0.
    5000001    1    1    2    0    0  0.46327784681E+02  0.13053873176E+03  0.25824619078E+03  0.38519828553E+03  0.25000000000E+03 0.  0.
<mgrwt>
<rscale>  0 0.57181909E+03</rscale>
<asrwt>0</asrwt>
<pdfrwt beam="1">  1        2 0.96430751E-01 0.57181909E+03</pdfrwt>
<pdfrwt beam="2">  1       -2 0.20063886E-01 0.57181909E+03</pdfrwt>
<totfact> 0.10015367E+03</totfact>
</mgrwt>
</event>
<event>
 4    1  0.6476857E-006  0.1396513E+04  0.7818608E-02  0.8956347E-01
         -2   -1    0    0    0  501 -0.00000000000E+00  0.00000000000E+00  0.15104172931E+03  0.15104172933E+03  0.25500000000E-02 0. -1.
          2   -1    0    0  501    0  0.00000000000E+00 -0.00000000000E+00 -0.32279954907E+04  0.32279954907E+04  0.25500000000E-02 0.  1.
   -5000001    1    1    2    0    0  0.18249372637E+03  0.58532076128E+03 -0.20749447044E+04  0.21780266022E+04  0.25000000000E+03 0.  0.
    5000001    1    1    2    0    0 -0.18249372637E+03 -0.58532076128E+03 -0.10020090570E+04  0.12010106178E+04  0.25000000000E+03 0.  0.
<mgrwt>
<rscale>  0 0.13965128E+04</rscale>
<asrwt>0</asrwt>
<pdfrwt beam="1">  1        2 0.49661464E+00 0.13965128E+04</pdfrwt>
<pdfrwt beam="2">  1       -2 0.23237191E-01 0.13965128E+04</pdfrwt>
<totfact> 0.20064900E+01</totfact>
</mgrwt>
</event>
<event>
 4    1  0.6476857E-006  0.6983758E+03  0.7818608E-02  0.9720014E-01
          2   -1    0    0  501    0  0.00000000000E+00  0.00000000000E+00  0.10961774586E+04  0.10961774586E+04  0.25500000000E-02 0.  1.
         -2   -1    0    0    0  501 -0.00000000000E+00 -0.00000000000E+00 -0.11123398147E+03  0.11123398150E+03  0.25500000000E-02 0. -1.
   -5000001    1    1    2    0    0  0.17162949060E+03 -0.62384458285E+02  0.21324914837E+03  0.37593044830E+03  0.25000000000E+03 0.  0.
    5000001    1    1    2    0    0 -0.17162949060E+03  0.62384458285E+02  0.77169432879E+03  0.83148099182E+03  0.25000000000E+03 0.  0.
<mgrwt>
<rscale>  0 0.69837578E+03</rscale>
<asrwt>0</asrwt>
<pdfrwt beam="1">  1        2 0.16864268E+00 0.69837578E+03</pdfrwt>
<pdfrwt beam="2">  1       -2 0.17112921E-01 0.69837578E+03</pdfrwt>
<totfact> 0.61783763E+02</totfact>
</mgrwt>
</event>
<event>
 4    1  0.6476857E-006  0.8279031E+03  0.7818608E-02  0.9520484E-01
          2   -1    0    0  501    0  0.00000000000E+00  0.00000000000E+00  0.23338810386E+04  0.23338810386E+04  0.25500000000E-02 0.  1.
         -2   -1    0    0    0  501 -0.00000000000E+00 -0.00000000000E+00 -0.73421001815E+02  0.73421001859E+02  0.25500000000E-02 0. -1.
   -5000001    1    1    2    0    0 -0.65208618284E+02  0.27210590680E+03  0.62190364535E+03  0.72633183361E+03  0.25000000000E+03 0.  0.
    5000001    1    1    2    0    0  0.65208618284E+02 -0.27210590680E+03  0.16385563914E+04  0.16809702069E+04  0.25000000000E+03 0.  0.
<mgrwt>
<rscale>  0 0.82790310E+03</rscale>
<asrwt>0</asrwt>
<pdfrwt beam="1">  1        2 0.35905860E+00 0.82790310E+03</pdfrwt>
<pdfrwt beam="2">  1       -2 0.11295539E-01 0.82790310E+03</pdfrwt>
<totfact> 0.25015141E+02</totfact>
</mgrwt>
</event>
<event>
 4    1  0.6476857E-006  0.7979745E+03  0.7818608E-02  0.9562954E-01
          2   -1    0    0  501    0  0.00000000000E+00  0.00000000000E+00  0.92300604161E+03  0.92300604161E+03  0.25500000000E-02 0.  1.
         -2   -1    0    0    0  501 -0.00000000000E+00 -0.00000000000E+00 -0.17246995637E+03  0.17246995639E+03  0.25500000000E-02 0. -1.
   -5000001    1    1    2    0    0 -0.25057702886E+03 -0.55982877117E+02  0.13446461101E+03  0.38275796731E+03  0.25000000000E+03 0.  0.
    5000001    1    1    2    0    0  0.25057702886E+03  0.55982877117E+02  0.61607147423E+03  0.71271803070E+03  0.25000000000E+03 0.  0.
<mgrwt>
<rscale>  0 0.79797447E+03</rscale>
<asrwt>0</asrwt>
<pdfrwt beam="1">  1        2 0.14200093E+00 0.79797447E+03</pdfrwt>
<pdfrwt beam="2">  1       -2 0.26533839E-01 0.79797447E+03</pdfrwt>
<totfact> 0.36555818E+02</totfact>
</mgrwt>
</event>
<event>
 4    1  0.6476857E-006  0.1014018E+04  0.7818608E-02  0.9293302E-01
         -2   -1    0    0    0  501 -0.00000000000E+00  0.00000000000E+00  0.12310360181E+03  0.12310360184E+03  0.25500000000E-02 0. -1.
          2   -1    0    0  501    0  0.00000000000E+00 -0.00000000000E+00 -0.20881443198E+04  0.20881443198E+04  0.25500000000E-02 0.  1.
   -5000001    1    1    2    0    0  0.14598086319E+03  0.29249461547E+03 -0.16282908101E+04  0.16794923265E+04  0.25000000000E+03 0.  0.
    5000001    1    1    2    0    0 -0.14598086319E+03 -0.29249461547E+03 -0.33674990785E+03  0.53175559511E+03  0.25000000000E+03 0.  0.
<mgrwt>
<rscale>  0 0.10140179E+04</rscale>
<asrwt>0</asrwt>
<pdfrwt beam="1">  1        2 0.32125295E+00 0.10140179E+04</pdfrwt>
<pdfrwt beam="2">  1       -2 0.18939017E-01 0.10140179E+04</pdfrwt>
<totfact> 0.14062964E+02</totfact>
</mgrwt>
</event>
<event>
 4    1  0.6476857E-006  0.7412606E+03  0.7818608E-02  0.9649162E-01
          2   -1    0    0  501    0  0.00000000000E+00  0.00000000000E+00  0.63684816949E+03  0.63684816949E+03  0.25500000000E-02 0.  1.
         -2   -1    0    0    0  501 -0.00000000000E+00 -0.00000000000E+00 -0.21569792621E+03  0.21569792623E+03  0.25500000000E-02 0. -1.
   -5000001    1    1    2    0    0  0.10052871010E+02 -0.27324656132E+03  0.22219576078E+03  0.43201354099E+03  0.25000000000E+03 0.  0.
    5000001    1    1    2    0    0 -0.10052871010E+02  0.27324656132E+03  0.19895448249E+03  0.42053255473E+03  0.25000000000E+03 0.  0.
<mgrwt>
<rscale>  0 0.74126063E+03</rscale>
<asrwt>0</asrwt>
<pdfrwt beam="1">  1        2 0.97976642E-01 0.74126063E+03</pdfrwt>
<pdfrwt beam="2">  1       -2 0.33184296E-01 0.74126063E+03</pdfrwt>
<totfact> 0.39344289E+02</totfact>
</mgrwt>
</event>
<event>
 4    1  0.6476857E-006  0.7316355E+03  0.7818608E-02  0.9664610E-01
          2   -1    0    0  501    0  0.00000000000E+00  0.00000000000E+00  0.20107864854E+03  0.20107864855E+03  0.25500000000E-02 0.  1.
         -2   -1    0    0    0  501 -0.00000000000E+00 -0.00000000000E+00 -0.66552374286E+03  0.66552374287E+03  0.25500000000E-02 0. -1.
   -5000001    1    1    2    0    0 -0.20465778903E+03  0.16314232599E+03 -0.16929608584E+03  0.39957651810E+03  0.25000000000E+03 0.  0.
    5000001    1    1    2    0    0  0.20465778903E+03 -0.16314232599E+03 -0.29514900848E+03  0.46702587331E+03  0.25000000000E+03 0.  0.
<mgrwt>
<rscale>  0 0.73163547E+03</rscale>
<asrwt>0</asrwt>
<pdfrwt beam="1">  1        2 0.30935177E-01 0.73163547E+03</pdfrwt>
<pdfrwt beam="2">  1       -2 0.10238827E+00 0.73163547E+03</pdfrwt>
<totfact> 0.13549461E+02</totfact>
</mgrwt>
</event>
<event>
 4    1  0.6476857E-006  0.7753957E+03  0.7818608E-02  0.9596330E-01
          2   -1    0    0  501    0  0.00000000000E+00  0.00000000000E+00  0.11826264531E+04  0.11826264531E+04  0.25500000000E-02 0.  1.
         -2   -1    0    0    0  501 -0.00000000000E+00 -0.00000000000E+00 -0.12709812674E+03  0.12709812677E+03  0.25500000000E-02 0. -1.
   -5000001    1    1    2    0    0 -0.47038273597E+02 -0.26629616773E+03  0.73244129254E+03  0.81981491518E+03  0.25000000000E+03 0.  0.
    5000001    1    1    2    0    0  0.47038273597E+02  0.26629616773E+03  0.32308703381E+03  0.48990966468E+03  0.25000000000E+03 0.  0.
<mgrwt>
<rscale>  0 0.77539566E+03</rscale>
<asrwt>0</asrwt>
<pdfrwt beam="1">  1        2 0.18194254E+00 0.77539566E+03</pdfrwt>
<pdfrwt beam="2">  1       -2 0.19553557E-01 0.77539566E+03</pdfrwt>
<totfact> 0.43362759E+02</totfact>
</mgrwt>
</event>
<event>
 4    1  0.6476857E-006  0.7208639E+03  0.7818608E-02  0.9682203E-01
         -2   -1    0    0    0  501 -0.00000000000E+00  0.00000000000E+00  0.11569984150E+03  0.11569984153E+03  0.25500000000E-02 0. -1.
          2   -1    0    0  501    0  0.00000000000E+00 -0.00000000000E+00 -0.11228293229E+04  0.11228293229E+04  0.25500000000E-02 0.  1.
   -5000001    1    1    2    0    0 -0.39747537779E+02 -0.19532583477E+03 -0.21772067846E+03  0.38682598454E+03  0.25000000000E+03 0.  0.
    5000001    1    1    2    0    0  0.39747537779E+02  0.19532583477E+03 -0.78940880296E+03  0.85170317991E+03  0.25000000000E+03 0.  0.
<mgrwt>
<rscale>  0 0.72086386E+03</rscale>
<asrwt>0</asrwt>
<pdfrwt beam="1">  1        2 0.17274297E+00 0.72086386E+03</pdfrwt>
<pdfrwt beam="2">  1       -2 0.17799976E-01 0.72086386E+03</pdfrwt>
<totfact> 0.55574178E+02</totfact>
</mgrwt>
</event>
<event>
 4    1  0.6476857E-006  0.6479528E+03  0.7818608E-02  0.9810628E-01
         -2   -1    0    0    0  501 -0.00000000000E+00  0.00000000000E+00  0.19472938700E+03  0.19472938702E+03  0.25500000000E-02 0. -1.
          2   -1    0    0  501    0  0.00000000000E+00 -0.00000000000E+00 -0.53900799984E+03  0.53900799984E+03  0.25500000000E-02 0.  1.
   -5000001    1    1    2    0    0 -0.15542708366E+03 -0.12408190227E+03 -0.23319201272E+03  0.39551537467E+03  0.25000000000E+03 0.  0.
    5000001    1    1    2    0    0  0.15542708366E+03  0.12408190227E+03 -0.11108660011E+03  0.33822201219E+03  0.25000000000E+03 0.  0.
<mgrwt>
<rscale>  0 0.64795277E+03</rscale>
<asrwt>0</asrwt>
<pdfrwt beam="1">  1        2 0.82924307E-01 0.64795277E+03</pdfrwt>
<pdfrwt beam="2">  1       -2 0.29958367E-01 0.64795277E+03</pdfrwt>
<totfact> 0.58314761E+02</totfact>
</mgrwt>
</event>
<event>
 4    1  0.6476857E-006  0.1552831E+04  0.7818608E-02  0.8850061E-01
          2   -1    0    0  501    0  0.00000000000E+00  0.00000000000E+00  0.18866618592E+04  0.18866618592E+04  0.25500000000E-02 0.  1.
         -2   -1    0    0    0  501 -0.00000000000E+00 -0.00000000000E+00 -0.31951743563E+03  0.31951743564E+03  0.25500000000E-02 0. -1.
   -5000001    1    1    2    0    0  0.18039661598E+02  0.66521824123E+03  0.12271559709E+04  0.14181863470E+04  0.25000000000E+03 0.  0.
    5000001    1    1    2    0    0 -0.18039661598E+02 -0.66521824123E+03  0.33998845259E+03  0.78799294778E+03  0.25000000000E+03 0.  0.
<mgrwt>
<rscale>  0 0.15528314E+04</rscale>
<asrwt>0</asrwt>
<pdfrwt beam="1">  1        2 0.29025567E+00 0.15528314E+04</pdfrwt>
<pdfrwt beam="2">  1       -2 0.49156529E-01 0.15528314E+04</pdfrwt>
<totfact> 0.29125035E+01</totfact>
</mgrwt>
</event>
<event>
 4    1  0.6476857E-006  0.8124027E+03  0.7818608E-02  0.9542236E-01
          2   -1    0    0  501    0  0.00000000000E+00  0.00000000000E+00  0.79581802441E+03  0.79581802442E+03  0.25500000000E-02 0.  1.
         -2   -1    0    0    0  501 -0.00000000000E+00 -0.00000000000E+00 -0.20733324330E+03  0.20733324332E+03  0.25500000000E-02 0. -1.
   -5000001    1    1    2    0    0 -0.20167261102E+03  0.24121619557E+03  0.21971925805E+03  0.45785767155E+03  0.25000000000E+03 0.  0.
    5000001    1    1    2    0    0  0.20167261102E+03 -0.24121619557E+03  0.36876552306E+03  0.54529359619E+03  0.25000000000E+03 0.  0.
<mgrwt>
<rscale>  0 0.81240269E+03</rscale>
<asrwt>0</asrwt>
<pdfrwt beam="1">  1        2 0.12243354E+00 0.81240269E+03</pdfrwt>
<pdfrwt beam="2">  1       -2 0.31897423E-01 0.81240269E+03</pdfrwt>
<totfact> 0.31836668E+02</totfact>
</mgrwt>
</event>
<event>
 4    1  0.6476857E-006  0.6020431E+03  0.7818608E-02  0.9901176E-01
         -2   -1    0    0    0  501 -0.00000000000E+00  0.00000000000E+00  0.55081389482E+02  0.55081389541E+02  0.25500000000E-02 0. -1.
          2   -1    0    0  501    0  0.00000000000E+00 -0.00000000000E+00 -0.16450924846E+04  0.16450924846E+04  0.25500000000E-02 0.  1.
   -5000001    1    1    2    0    0 -0.15801661409E+03  0.55920311418E+02 -0.78314190415E+03  0.83899199853E+03  0.25000000000E+03 0.  0.
    5000001    1    1    2    0    0  0.15801661409E+03 -0.55920311418E+02 -0.80686919097E+03  0.86118187562E+03  0.25000000000E+03 0.  0.
<mgrwt>
<rscale>  0 0.60204312E+03</rscale>
<asrwt>0</asrwt>
<pdfrwt beam="1">  1        2 0.25309111E+00 0.60204312E+03</pdfrwt>
<pdfrwt beam="2">  1       -2 0.84740612E-02 0.60204312E+03</pdfrwt>
<totfact> 0.96533337E+02</totfact>
</mgrwt>
</event>
<event>
 4    1  0.6476857E-006  0.6484836E+03  0.7818608E-02  0.9809629E-01
         -2   -1    0    0    0  501 -0.00000000000E+00  0.00000000000E+00  0.53546235152E+02  0.53546235213E+02  0.25500000000E-02 0. -1.
          2   -1    0    0  501    0  0.00000000000E+00 -0.00000000000E+00 -0.19634011417E+04  0.19634011417E+04  0.25500000000E-02 0.  1.
   -5000001    1    1    2    0    0  0.19087281049E+03 -0.61863579092E+02 -0.80340974241E+03  0.86500100948E+03  0.25000000000E+03 0.  0.
    5000001    1    1    2    0    0 -0.19087281049E+03  0.61863579092E+02 -0.11064451642E+04  0.11519463675E+04  0.25000000000E+03 0.  0.
<mgrwt>
<rscale>  0 0.64848358E+03</rscale>
<asrwt>0</asrwt>
<pdfrwt beam="1">  1        2 0.30206166E+00 0.64848358E+03</pdfrwt>
<pdfrwt beam="2">  1       -2 0.82378839E-02 0.64848358E+03</pdfrwt>
<totfact> 0.67671381E+02</totfact>
</mgrwt>
</event>
<event>
 4    1  0.6476857E-006  0.7348808E+03  0.7818608E-02  0.9659373E-01
          2   -1    0    0  501    0  0.00000000000E+00  0.00000000000E+00  0.12911997429E+04  0.12911997429E+04  0.25500000000E-02 0.  1.
         -2   -1    0    0    0  501 -0.00000000000E+00 -0.00000000000E+00 -0.10456357519E+03  0.10456357522E+03  0.25500000000E-02 0. -1.
   -5000001    1    1    2    0    0 -0.23864925812E+03 -0.45681494575E+02  0.37286609431E+03  0.51045998045E+03  0.25000000000E+03 0.  0.
    5000001    1    1    2    0    0  0.23864925812E+03  0.45681494575E+02  0.81377007342E+03  0.88530333770E+03  0.25000000000E+03 0.  0.
<mgrwt>
<rscale>  0 0.73488084E+03</rscale>
<asrwt>0</asrwt>
<pdfrwt beam="1">  1        2 0.19864612E+00 0.73488084E+03</pdfrwt>
<pdfrwt beam="2">  1       -2 0.16086704E-01 0.73488084E+03</pdfrwt>
<totfact> 0.52536756E+02</totfact>
</mgrwt>
</event>
<event>
 4    1  0.6476857E-006  0.1307337E+04  0.7818608E-02  0.9023767E-01
          2   -1    0    0  501    0  0.00000000000E+00  0.00000000000E+00  0.17648110808E+04  0.17648110808E+04  0.25500000000E-02 0.  1.
         -2   -1    0    0    0  501 -0.00000000000E+00 -0.00000000000E+00 -0.24211248067E+03  0.24211248069E+03  0.25500000000E-02 0. -1.
   -5000001    1    1    2    0    0 -0.39470013080E+03 -0.44912359934E+03  0.63034486276E+03  0.90406573143E+03  0.25000000000E+03 0.  0.
    5000001    1    1    2    0    0  0.39470013080E+03  0.44912359934E+03  0.89235373735E+03  0.11028578300E+04  0.25000000000E+03 0.  0.
<mgrwt>
<rscale>  0 0.13073374E+04</rscale>
<asrwt>0</asrwt>
<pdfrwt beam="1">  1        2 0.27150940E+00 0.13073374E+04</pdfrwt>
<pdfrwt beam="2">  1       -2 0.37248073E-01 0.13073374E+04</pdfrwt>
<totfact> 0.60087204E+01</totfact>
</mgrwt>
</event>
<event>
 4    1  0.6476857E-006  0.7704343E+03  0.7818608E-02  0.9603827E-01
         -2   -1    0    0    0  501 -0.00000000000E+00  0.00000000000E+00  0.67888450035E+02  0.67888450083E+02  0.25500000000E-02 0. -1.
          2   -1    0    0  501    0  0.00000000000E+00 -0.00000000000E+00 -0.21858247481E+04  0.21858247481E+04  0.25500000000E-02 0.  1.
   -5000001    1    1    2    0    0  0.22885165562E+03 -0.43858999924E+02 -0.15789355052E+04  0.16154980723E+04  0.25000000000E+03 0.  0.
    5000001    1    1    2    0    0 -0.22885165562E+03  0.43858999924E+02 -0.53900079291E+03  0.63821512589E+03  0.25000000000E+03 0.  0.
<mgrwt>
<rscale>  0 0.77043430E+03</rscale>
<asrwt>0</asrwt>
<pdfrwt beam="1">  1        2 0.33628068E+00 0.77043430E+03</pdfrwt>
<pdfrwt beam="2">  1       -2 0.10444379E-01 0.77043430E+03</pdfrwt>
<totfact> 0.34533092E+02</totfact>
</mgrwt>
</event>
<event>
 4    1  0.6476857E-006  0.5655336E+03  0.7818608E-02  0.9979611E-01
         -2   -1    0    0    0  501 -0.00000000000E+00  0.00000000000E+00  0.43730049530E+02  0.43730049605E+02  0.25500000000E-02 0. -1.
          2   -1    0    0  501    0  0.00000000000E+00 -0.00000000000E+00 -0.18284236408E+04  0.18284236408E+04  0.25500000000E-02 0.  1.
   -5000001    1    1    2    0    0 -0.58626240970E+02 -0.51932231920E+02 -0.12446082123E+04  0.12718819108E+04  0.25000000000E+03 0.  0.
    5000001    1    1    2    0    0  0.58626240970E+02  0.51932231920E+02 -0.54008537899E+03  0.60027177964E+03  0.25000000000E+03 0.  0.
<mgrwt>
<rscale>  0 0.56553358E+03</rscale>
<asrwt>0</asrwt>
<pdfrwt beam="1">  1        2 0.28129589E+00 0.56553358E+03</pdfrwt>
<pdfrwt beam="2">  1       -2 0.67277014E-02 0.56553358E+03</pdfrwt>
<totfact> 0.11099521E+03</totfact>
</mgrwt>
</event>
<event>
 4    1  0.6476857E-006  0.5957739E+03  0.7818608E-02  0.9914213E-01
          2   -1    0    0  501    0  0.00000000000E+00  0.00000000000E+00  0.19917584002E+04  0.19917584002E+04  0.25500000000E-02 0.  1.
         -2   -1    0    0    0  501 -0.00000000000E+00 -0.00000000000E+00 -0.44551911746E+02  0.44551911819E+02  0.25500000000E-02 0. -1.
   -5000001    1    1    2    0    0  0.13112930105E+03 -0.30494258643E+02  0.66576508760E+03  0.72378722376E+03  0.25000000000E+03 0.  0.
    5000001    1    1    2    0    0 -0.13112930105E+03  0.30494258643E+02  0.12814414008E+04  0.13125230882E+04  0.25000000000E+03 0.  0.
<mgrwt>
<rscale>  0 0.59577393E+03</rscale>
<asrwt>0</asrwt>
<pdfrwt beam="1">  1        2 0.30642439E+00 0.59577393E+03</pdfrwt>
<pdfrwt beam="2">  1       -2 0.68541397E-02 0.59577393E+03</pdfrwt>
<totfact> 0.87795292E+02</totfact>
</mgrwt>
</event>
<event>
 4    1  0.6476857E-006  0.1009846E+04  0.7818608E-02  0.9297811E-01
         -2   -1    0    0    0  501 -0.00000000000E+00  0.00000000000E+00  0.22980882828E+03  0.22980882829E+03  0.25500000000E-02 0. -1.
          2   -1    0    0  501    0  0.00000000000E+00 -0.00000000000E+00 -0.11093887125E+04  0.11093887125E+04  0.25500000000E-02 0.  1.
   -5000001    1    1    2    0    0 -0.32745747515E+03 -0.26318427692E+03 -0.60728810165E+03  0.77961092864E+03  0.25000000000E+03 0.  0.
    5000001    1    1    2    0    0  0.32745747515E+03  0.26318427692E+03 -0.27229178257E+03  0.55958661216E+03  0.25000000000E+03 0.  0.
<mgrwt>
<rscale>  0 0.10098462E+04</rscale>
<asrwt>0</asrwt>
<pdfrwt beam="1">  1        2 0.17067518E+00 0.10098462E+04</pdfrwt>
<pdfrwt beam="2">  1       -2 0.35355205E-01 0.10098462E+04</pdfrwt>
<totfact> 0.16098913E+02</totfact>
</mgrwt>
</event>
<event>
 4    1  0.6476857E-006  0.1071907E+04  0.7818608E-02  0.9233015E-01
          2   -1    0    0  501    0  0.00000000000E+00  0.00000000000E+00  0.19388769698E+04  0.19388769698E+04  0.25500000000E-02 0.  1.
         -2   -1    0    0    0  501 -0.00000000000E+00 -0.00000000000E+00 -0.14815069038E+03  0.14815069040E+03  0.25500000000E-02 0. -1.
   -5000001    1    1    2    0    0  0.20116612706E+03  0.40077218786E+03  0.59587693741E+03  0.78654655411E+03  0.25000000000E+03 0.  0.
    5000001    1    1    2    0    0 -0.20116612706E+03 -0.40077218786E+03  0.11948493421E+04  0.13004811061E+04  0.25000000000E+03 0.  0.
<mgrwt>
<rscale>  0 0.10719066E+04</rscale>
<asrwt>0</asrwt>
<pdfrwt beam="1">  1        2 0.29828878E+00 0.10719066E+04</pdfrwt>
<pdfrwt beam="2">  1       -2 0.22792413E-01 0.10719066E+04</pdfrwt>
<totfact> 0.12201490E+02</totfact>
</mgrwt>
</event>
<event>
 4    1  0.6476857E-006  0.1154808E+04  0.7818608E-02  0.9153359E-01
         -2   -1    0    0    0  501 -0.00000000000E+00  0.00000000000E+00  0.18250106660E+03  0.18250106661E+03  0.25500000000E-02 0. -1.
          2   -1    0    0  501    0  0.00000000000E+00 -0.00000000000E+00 -0.18268133199E+04  0.18268133199E+04  0.25500000000E-02 0.  1.
   -5000001    1    1    2    0    0  0.45320298217E+03 -0.25433392960E+03 -0.77243209323E+03  0.96396578230E+03  0.25000000000E+03 0.  0.
    5000001    1    1    2    0    0 -0.45320298217E+03  0.25433392960E+03 -0.87188016003E+03  0.10453486042E+04  0.25000000000E+03 0.  0.
<mgrwt>
<rscale>  0 0.11548080E+04</rscale>
<asrwt>0</asrwt>
<pdfrwt beam="1">  1        2 0.28104819E+00 0.11548080E+04</pdfrwt>
<pdfrwt beam="2">  1       -2 0.28077088E-01 0.11548080E+04</pdfrwt>
<totfact> 0.95743640E+01</totfact>
</mgrwt>
</event>
<event>
 4    1  0.6476857E-006  0.8575011E+03  0.7818608E-02  0.9480324E-01
         -2   -1    0    0    0  501 -0.00000000000E+00  0.00000000000E+00  0.28008288909E+03  0.28008288910E+03  0.25500000000E-02 0. -1.
          2   -1    0    0  501    0  0.00000000000E+00 -0.00000000000E+00 -0.65633085724E+03  0.65633085725E+03  0.25500000000E-02 0.  1.
   -5000001    1    1    2    0    0  0.33743594736E+03 -0.85974590036E+02 -0.17883251531E+03  0.46447359154E+03  0.25000000000E+03 0.  0.
    5000001    1    1    2    0    0 -0.33743594736E+03  0.85974590036E+02 -0.19741545285E+03  0.47194015481E+03  0.25000000000E+03 0.  0.
<mgrwt>
<rscale>  0 0.85750112E+03</rscale>
<asrwt>0</asrwt>
<pdfrwt beam="1">  1        2 0.10097398E+00 0.85750112E+03</pdfrwt>
<pdfrwt beam="2">  1       -2 0.43089675E-01 0.85750112E+03</pdfrwt>
<totfact> 0.22785065E+02</totfact>
</mgrwt>
</event>
<event>
 4    1  0.6476857E-006  0.8883713E+03  0.7818608E-02  0.9440236E-01
         -2   -1    0    0    0  501 -0.00000000000E+00  0.00000000000E+00  0.13995499055E+03  0.13995499057E+03  0.25500000000E-02 0. -1.
          2   -1    0    0  501    0  0.00000000000E+00 -0.00000000000E+00 -0.14097454253E+04  0.14097454253E+04  0.25500000000E-02 0.  1.
   -5000001    1    1    2    0    0  0.27033826404E+03  0.19320902247E+03 -0.36247150589E+03  0.55163221077E+03  0.25000000000E+03 0.  0.
    5000001    1    1    2    0    0 -0.27033826404E+03 -0.19320902247E+03 -0.90731892885E+03  0.99806820510E+03  0.25000000000E+03 0.  0.
<mgrwt>
<rscale>  0 0.88837134E+03</rscale>
<asrwt>0</asrwt>
<pdfrwt beam="1">  1        2 0.21688390E+00 0.88837134E+03</pdfrwt>
<pdfrwt beam="2">  1       -2 0.21531538E-01 0.88837134E+03</pdfrwt>
<totfact> 0.26867132E+02</totfact>
</mgrwt>
</event>
<event>
 4    1  0.6476857E-006  0.8996357E+03  0.7818608E-02  0.9426037E-01
         -2   -1    0    0    0  501 -0.00000000000E+00  0.00000000000E+00  0.12174829487E+03  0.12174829490E+03  0.25500000000E-02 0. -1.
          2   -1    0    0  501    0  0.00000000000E+00 -0.00000000000E+00 -0.16619214037E+04  0.16619214037E+04  0.25500000000E-02 0.  1.
   -5000001    1    1    2    0    0  0.32503639895E+03 -0.18315838455E+03 -0.82026161257E+03  0.93516028975E+03  0.25000000000E+03 0.  0.
    5000001    1    1    2    0    0 -0.32503639895E+03  0.18315838455E+03 -0.71991149630E+03  0.84850940889E+03  0.25000000000E+03 0.  0.
<mgrwt>
<rscale>  0 0.89963570E+03</rscale>
<asrwt>0</asrwt>
<pdfrwt beam="1">  1        2 0.25568020E+00 0.89963570E+03</pdfrwt>
<pdfrwt beam="2">  1       -2 0.18730508E-01 0.89963570E+03</pdfrwt>
<totfact> 0.24797151E+02</totfact>
</mgrwt>
</event>
<event>
 4    1  0.6476857E-006  0.5636977E+03  0.7818608E-02  0.9983722E-01
          2   -1    0    0  501    0  0.00000000000E+00  0.00000000000E+00  0.11579162941E+03  0.11579162944E+03  0.25500000000E-02 0.  1.
         -2   -1    0    0    0  501 -0.00000000000E+00 -0.00000000000E+00 -0.68604947722E+03  0.68604947722E+03  0.25500000000E-02 0. -1.
   -5000001    1    1    2    0    0 -0.12960216216E+03  0.10818847650E+02 -0.29224394909E+03  0.40598065678E+03  0.25000000000E+03 0.  0.
    5000001    1    1    2    0    0  0.12960216216E+03 -0.10818847650E+02 -0.27801389872E+03  0.39586044988E+03  0.25000000000E+03 0.  0.
<mgrwt>
<rscale>  0 0.56369774E+03</rscale>
<asrwt>0</asrwt>
<pdfrwt beam="1">  1        2 0.17814097E-01 0.56369774E+03</pdfrwt>
<pdfrwt beam="2">  1       -2 0.10554607E+00 0.56369774E+03</pdfrwt>
<totfact> 0.23963498E+02</totfact>
</mgrwt>
</event>
<event>
 4    1  0.6476857E-006  0.6373905E+03  0.7818608E-02  0.9830732E-01
          2   -1    0    0  501    0  0.00000000000E+00  0.00000000000E+00  0.18745312472E+03  0.18745312473E+03  0.25500000000E-02 0.  1.
         -2   -1    0    0    0  501 -0.00000000000E+00 -0.00000000000E+00 -0.54182426540E+03  0.54182426540E+03  0.25500000000E-02 0. -1.
   -5000001    1    1    2    0    0  0.92765628971E+02  0.17295100776E+03 -0.20399750624E+03  0.37766717564E+03  0.25000000000E+03 0.  0.
    5000001    1    1    2    0    0 -0.92765628971E+02 -0.17295100776E+03 -0.15037363444E+03  0.35161021450E+03  0.25000000000E+03 0.  0.
<mgrwt>
<rscale>  0 0.63739047E+03</rscale>
<asrwt>0</asrwt>
<pdfrwt beam="1">  1        2 0.28838943E-01 0.63739047E+03</pdfrwt>
<pdfrwt beam="2">  1       -2 0.83357578E-01 0.63739047E+03</pdfrwt>
<totfact> 0.23699749E+02</totfact>
</mgrwt>
</event>
<event>
 4    1  0.6476857E-006  0.5337225E+03  0.7818608E-02  0.1005333E+00
         -2   -1    0    0    0  501 -0.00000000000E+00  0.00000000000E+00  0.34335381933E+02  0.34335382028E+02  0.25500000000E-02 0. -1.
          2   -1    0    0  501    0  0.00000000000E+00 -0.00000000000E+00 -0.20740975163E+04  0.20740975163E+04  0.25500000000E-02 0.  1.
   -5000001    1    1    2    0    0 -0.47394232114E+02  0.69250978214E+02 -0.11814637195E+04  0.12105364231E+04  0.25000000000E+03 0.  0.
    5000001    1    1    2    0    0  0.47394232114E+02 -0.69250978214E+02 -0.85829841489E+03  0.89789647523E+03  0.25000000000E+03 0.  0.
<mgrwt>
<rscale>  0 0.53372251E+03</rscale>
<asrwt>0</asrwt>
<pdfrwt beam="1">  1        2 0.31909183E+00 0.53372251E+03</pdfrwt>
<pdfrwt beam="2">  1       -2 0.52823681E-02 0.53372251E+03</pdfrwt>
<totfact> 0.11959160E+03</totfact>
</mgrwt>
</event>
<event>
 4    1  0.6476857E-006  0.6501374E+03  0.7818608E-02  0.9806521E-01
         -2   -1    0    0    0  501 -0.00000000000E+00  0.00000000000E+00  0.16132151895E+03  0.16132151897E+03  0.25500000000E-02 0. -1.
          2   -1    0    0  501    0  0.00000000000E+00 -0.00000000000E+00 -0.65502520920E+03  0.65502520921E+03  0.25500000000E-02 0.  1.
   -5000001    1    1    2    0    0  0.45652983135E+02  0.13112322024E+03 -0.44093921810E+03  0.52555198394E+03  0.25000000000E+03 0.  0.
    5000001    1    1    2    0    0 -0.45652983135E+02 -0.13112322024E+03 -0.52764472146E+02  0.29079474424E+03  0.25000000000E+03 0.  0.
<mgrwt>
<rscale>  0 0.65013741E+03</rscale>
<asrwt>0</asrwt>
<pdfrwt beam="1">  1        2 0.10077311E+00 0.65013741E+03</pdfrwt>
<pdfrwt beam="2">  1       -2 0.24818696E-01 0.65013741E+03</pdfrwt>
<totfact> 0.65049689E+02</totfact>
</mgrwt>
</event>
<event>
 4    1  0.6476857E-006  0.8183608E+03  0.7818608E-02  0.9533814E-01
          2   -1    0    0  501    0  0.00000000000E+00  0.00000000000E+00  0.61927723206E+03  0.61927723206E+03  0.25500000000E-02 0.  1.
         -2   -1    0    0    0  501 -0.00000000000E+00 -0.00000000000E+00 -0.27036129376E+03  0.27036129377E+03  0.25500000000E-02 0. -1.
   -5000001    1    1    2    0    0  0.10507128719E+03 -0.20344863620E+03  0.42353698098E+03  0.54250796973E+03  0.25000000000E+03 0.  0.
    5000001    1    1    2    0    0 -0.10507128719E+03  0.20344863620E+03 -0.74621042688E+02  0.34713055610E+03  0.25000000000E+03 0.  0.
<mgrwt>
<rscale>  0 0.81836079E+03</rscale>
<asrwt>0</asrwt>
<pdfrwt beam="1">  1        2 0.95273419E-01 0.81836079E+03</pdfrwt>
<pdfrwt beam="2">  1       -2 0.41594046E-01 0.81836079E+03</pdfrwt>
<totfact> 0.26282061E+02</totfact>
</mgrwt>
</event>
<event>
 4    1  0.6476857E-006  0.1268709E+04  0.7818608E-02  0.9054754E-01
          2   -1    0    0  501    0  0.00000000000E+00  0.00000000000E+00  0.14709593513E+04  0.14709593513E+04  0.25500000000E-02 0.  1.
         -2   -1    0    0    0  501 -0.00000000000E+00 -0.00000000000E+00 -0.27356660308E+03  0.27356660309E+03  0.25500000000E-02 0. -1.
   -5000001    1    1    2    0    0 -0.36914870478E+03 -0.32021016077E+03  0.10359075229E+04  0.11723522121E+04  0.25000000000E+03 0.  0.
    5000001    1    1    2    0    0  0.36914870478E+03  0.32021016077E+03  0.16148522530E+03  0.57217374223E+03  0.25000000000E+03 0.  0.
<mgrwt>
<rscale>  0 0.12687086E+04</rscale>
<asrwt>0</asrwt>
<pdfrwt beam="1">  1        2 0.22630144E+00 0.12687086E+04</pdfrwt>
<pdfrwt beam="2">  1       -2 0.42087170E-01 0.12687086E+04</pdfrwt>
<totfact> 0.69257384E+01</totfact>
</mgrwt>
</event>
<event>
 4    1  0.6476857E-006  0.7392163E+03  0.7818608E-02  0.9652422E-01
         -2   -1    0    0    0  501 -0.00000000000E+00  0.00000000000E+00  0.14336853186E+03  0.14336853189E+03  0.25500000000E-02 0. -1.
          2   -1    0    0  501    0  0.00000000000E+00 -0.00000000000E+00 -0.95286021518E+03  0.95286021518E+03  0.25500000000E-02 0.  1.
   -5000001    1    1    2    0    0  0.19594478257E+03  0.15399718317E+03 -0.56720066143E+03  0.66807640324E+03  0.25000000000E+03 0.  0.
    5000001    1    1    2    0    0 -0.19594478257E+03 -0.15399718317E+03 -0.24229102188E+03  0.42815234383E+03  0.25000000000E+03 0.  0.
<mgrwt>
<rscale>  0 0.73921626E+03</rscale>
<asrwt>0</asrwt>
<pdfrwt beam="1">  1        2 0.14659387E+00 0.73921626E+03</pdfrwt>
<pdfrwt beam="2">  1       -2 0.22056698E-01 0.73921626E+03</pdfrwt>
<totfact> 0.48809887E+02</totfact>
</mgrwt>
</event>
<event>
 4    1  0.6476857E-006  0.6650443E+03  0.7818608E-02  0.9778952E-01
          2   -1    0    0  501    0  0.00000000000E+00  0.00000000000E+00  0.16158979231E+04  0.16158979231E+04  0.25500000000E-02 0.  1.
         -2   -1    0    0    0  501 -0.00000000000E+00 -0.00000000000E+00 -0.68426954036E+02  0.68426954084E+02  0.25500000000E-02 0. -1.
   -5000001    1    1    2    0    0  0.21652199734E+03  0.33089744254E+02  0.74914574857E+03  0.81957065534E+03  0.25000000000E+03 0.  0.
    5000001    1    1    2    0    0 -0.21652199734E+03 -0.33089744254E+02  0.79832522047E+03  0.86475422182E+03  0.25000000000E+03 0.  0.
<mgrwt>
<rscale>  0 0.66504428E+03</rscale>
<asrwt>0</asrwt>
<pdfrwt beam="1">  1        2 0.24859969E+00 0.66504428E+03</pdfrwt>
<pdfrwt beam="2">  1       -2 0.10527224E-01 0.66504428E+03</pdfrwt>
<totfact> 0.70288482E+02</totfact>
</mgrwt>
</event>
<event>
 4    1  0.6476857E-006  0.1094821E+04  0.7818608E-02  0.9210254E-01
         -2   -1    0    0    0  501 -0.00000000000E+00  0.00000000000E+00  0.39610244717E+03  0.39610244718E+03  0.25500000000E-02 0. -1.
          2   -1    0    0  501    0  0.00000000000E+00 -0.00000000000E+00 -0.75651727406E+03  0.75651727406E+03  0.25500000000E-02 0.  1.
   -5000001    1    1    2    0    0  0.40855661456E+03 -0.26495862673E+03 -0.17382411982E+03  0.57431385654E+03  0.25000000000E+03 0.  0.
    5000001    1    1    2    0    0 -0.40855661456E+03  0.26495862673E+03 -0.18659070706E+03  0.57830586470E+03  0.25000000000E+03 0.  0.
<mgrwt>
<rscale>  0 0.10948212E+04</rscale>
<asrwt>0</asrwt>
<pdfrwt beam="1">  1        2 0.11638727E+00 0.10948212E+04</pdfrwt>
<pdfrwt beam="2">  1       -2 0.60938838E-01 0.10948212E+04</pdfrwt>
<totfact> 0.92328234E+01</totfact>
</mgrwt>
</event>
<event>
 4    1  0.6476857E-006  0.9104369E+03  0.7818608E-02  0.9412628E-01
         -2   -1    0    0    0  501 -0.00000000000E+00  0.00000000000E+00  0.29954632885E+03  0.29954632886E+03  0.25500000000E-02 0. -1.
          2   -1    0    0  501    0  0.00000000000E+00 -0.00000000000E+00 -0.69179223309E+03  0.69179223309E+03  0.25500000000E-02 0.  1.
   -5000001    1    1    2    0    0 -0.34463566592E+03 -0.14378870399E+03 -0.27520517578E+03  0.52695998177E+03  0.25000000000E+03 0.  0.
    5000001    1    1    2    0    0  0.34463566592E+03  0.14378870399E+03 -0.11704072846E+03  0.46437858018E+03  0.25000000000E+03 0.  0.
<mgrwt>
<rscale>  0 0.91043687E+03</rscale>
<asrwt>0</asrwt>
<pdfrwt beam="1">  1        2 0.10642957E+00 0.91043687E+03</pdfrwt>
<pdfrwt beam="2">  1       -2 0.46084051E-01 0.91043687E+03</pdfrwt>
<totfact> 0.18614782E+02</totfact>
</mgrwt>
</event>
<event>
 4    1  0.6476857E-006  0.9294212E+03  0.7818608E-02  0.9389533E-01
         -2   -1    0    0    0  501 -0.00000000000E+00  0.00000000000E+00  0.25472259834E+03  0.25472259835E+03  0.25500000000E-02 0. -1.
          2   -1    0    0  501    0  0.00000000000E+00 -0.00000000000E+00 -0.84780826895E+03  0.84780826895E+03  0.25500000000E-02 0.  1.
   -5000001    1    1    2    0    0 -0.38501753850E+03  0.69695337609E+02 -0.31904982787E+03  0.56337264550E+03  0.25000000000E+03 0.  0.
    5000001    1    1    2    0    0  0.38501753850E+03 -0.69695337609E+02 -0.27403584273E+03  0.53915822180E+03  0.25000000000E+03 0.  0.
<mgrwt>
<rscale>  0 0.92942116E+03</rscale>
<asrwt>0</asrwt>
<pdfrwt beam="1">  1        2 0.13043204E+00 0.92942116E+03</pdfrwt>
<pdfrwt beam="2">  1       -2 0.39188092E-01 0.92942116E+03</pdfrwt>
<totfact> 0.19625902E+02</totfact>
</mgrwt>
</event>
<event>
 4    1  0.6476857E-006  0.1414544E+04  0.7818608E-02  0.8943357E-01
          2   -1    0    0  501    0  0.00000000000E+00  0.00000000000E+00  0.79027559834E+03  0.79027559834E+03  0.25500000000E-02 0.  1.
         -2   -1    0    0    0  501 -0.00000000000E+00 -0.00000000000E+00 -0.63298659820E+03  0.63298659821E+03  0.25500000000E-02 0. -1.
   -5000001    1    1    2    0    0 -0.28799516865E+02  0.47973599726E+03 -0.37886419315E+03  0.66107043202E+03  0.25000000000E+03 0.  0.
    5000001    1    1    2    0    0  0.28799516865E+02 -0.47973599726E+03  0.53615319329E+03  0.76219176453E+03  0.25000000000E+03 0.  0.
<mgrwt>
<rscale>  0 0.14145443E+04</rscale>
<asrwt>0</asrwt>
<pdfrwt beam="1">  1        2 0.12158086E+00 0.14145443E+04</pdfrwt>
<pdfrwt beam="2">  1       -2 0.97382554E-01 0.14145443E+04</pdfrwt>
<totfact> 0.29942728E+01</totfact>
</mgrwt>
</event>
<event>
 4    1  0.6476857E-006  0.6190427E+03  0.7818608E-02  0.9866668E-01
         -2   -1    0    0    0  501 -0.00000000000E+00  0.00000000000E+00  0.12325139097E+04  0.12325139097E+04  0.25500000000E-02 0. -1.
          2   -1    0    0  501    0  0.00000000000E+00 -0.00000000000E+00 -0.77730132101E+02  0.77730132143E+02  0.25500000000E-02 0.  1.
   -5000001    1    1    2    0    0 -0.30737484792E+02 -0.15350672017E+03  0.77587966799E+03  0.83005925409E+03  0.25000000000E+03 0.  0.
    5000001    1    1    2    0    0  0.30737484792E+02  0.15350672017E+03  0.37890410960E+03  0.48018478774E+03  0.25000000000E+03 0.  0.
<mgrwt>
<rscale>  0 0.61904271E+03</rscale>
<asrwt>0</asrwt>
<pdfrwt beam="1">  1        2 0.11958482E-01 0.61904271E+03</pdfrwt>
<pdfrwt beam="2">  1       -2 0.18961751E+00 0.61904271E+03</pdfrwt>
<totfact> 0.84558319E+01</totfact>
</mgrwt>
</event>
<event>
 4    1  0.6476857E-006  0.6445072E+03  0.7818608E-02  0.9817141E-01
          2   -1    0    0  501    0  0.00000000000E+00  0.00000000000E+00  0.24019254061E+03  0.24019254062E+03  0.25500000000E-02 0. -1.
         -2   -1    0    0    0  501 -0.00000000000E+00 -0.00000000000E+00 -0.43235062602E+03  0.43235062602E+03  0.25500000000E-02 0.  1.
   -5000001    1    1    2    0    0  0.10139298022E+03  0.17613563328E+03 -0.10292948608E+03  0.33822888235E+03  0.25000000000E+03 0.  0.
    5000001    1    1    2    0    0 -0.10139298022E+03 -0.17613563328E+03 -0.89228599326E+02  0.33431428430E+03  0.25000000000E+03 0.  0.
<mgrwt>
<rscale>  0 0.64450724E+03</rscale>
<asrwt>0</asrwt>
<pdfrwt beam="1">  1        2 0.36952698E-01 0.64450724E+03</pdfrwt>
<pdfrwt beam="2">  1       -2 0.66515481E-01 0.64450724E+03</pdfrwt>
<totfact> 0.29534570E+02</totfact>
</mgrwt>
</event>
<event>
 4    1  0.6476857E-006  0.7332601E+03  0.7818608E-02  0.9661985E-01
         -2   -1    0    0    0  501 -0.00000000000E+00  0.00000000000E+00  0.55964350643E+02  0.55964350701E+02  0.25500000000E-02 0. -1.
          2   -1    0    0  501    0  0.00000000000E+00 -0.00000000000E+00 -0.24018433980E+04  0.24018433980E+04  0.25500000000E-02 0.  1.
   -5000001    1    1    2    0    0 -0.12259185761E+03 -0.18203215160E+03 -0.65634436150E+03  0.73583448454E+03  0.25000000000E+03 0.  0.
    5000001    1    1    2    0    0  0.12259185761E+03  0.18203215160E+03 -0.16895346858E+04  0.17219732641E+04  0.25000000000E+03 0.  0.
<mgrwt>
<rscale>  0 0.73326013E+03</rscale>
<asrwt>0</asrwt>
<pdfrwt beam="1">  1        2 0.36951429E+00 0.73326013E+03</pdfrwt>
<pdfrwt beam="2">  1       -2 0.86099020E-02 0.73326013E+03</pdfrwt>
<totfact> 0.35944010E+02</totfact>
</mgrwt>
</event>
<event>
 4    1  0.6476857E-006  0.8441691E+03  0.7818608E-02  0.9498197E-01
          2   -1    0    0  501    0  0.00000000000E+00  0.00000000000E+00  0.45323713911E+03  0.45323713911E+03  0.25500000000E-02 0.  1.
         -2   -1    0    0    0  501 -0.00000000000E+00 -0.00000000000E+00 -0.39307321648E+03  0.39307321649E+03  0.25500000000E-02 0. -1.
   -5000001    1    1    2    0    0  0.28231201330E+02 -0.25241000224E+03 -0.19664997221E+03  0.40703687981E+03  0.25000000000E+03 0.  0.
    5000001    1    1    2    0    0 -0.28231201330E+02  0.25241000224E+03  0.25681389483E+03  0.43927347579E+03  0.25000000000E+03 0.  0.
<mgrwt>
<rscale>  0 0.84416913E+03</rscale>
<asrwt>0</asrwt>
<pdfrwt beam="1">  1        2 0.69728791E-01 0.84416913E+03</pdfrwt>
<pdfrwt beam="2">  1       -2 0.60472803E-01 0.84416913E+03</pdfrwt>
<totfact> 0.17678850E+02</totfact>
</mgrwt>
</event>
<event>
 4    1  0.6476857E-006  0.6754771E+03  0.7818608E-02  0.9760114E-01
         -2   -1    0    0    0  501 -0.00000000000E+00  0.00000000000E+00  0.61440612236E+02  0.61440612289E+02  0.25500000000E-02 0. -1.
          2   -1    0    0  501    0  0.00000000000E+00 -0.00000000000E+00 -0.18565463419E+04  0.18565463419E+04  0.25500000000E-02 0.  1.
   -5000001    1    1    2    0    0 -0.59509986945E+02  0.16372317451E+03 -0.48392089342E+03  0.57186200040E+03  0.25000000000E+03 0.  0.
    5000001    1    1    2    0    0  0.59509986945E+02 -0.16372317451E+03 -0.13111848363E+04  0.13461249538E+04  0.25000000000E+03 0.  0.
<mgrwt>
<rscale>  0 0.67547715E+03</rscale>
<asrwt>0</asrwt>
<pdfrwt beam="1">  1        2 0.28562247E+00 0.67547715E+03</pdfrwt>
<pdfrwt beam="2">  1       -2 0.94524033E-02 0.67547715E+03</pdfrwt>
<totfact> 0.61875424E+02</totfact>
</mgrwt>
</event>
<event>
 4    1  0.6476857E-006  0.7167807E+03  0.7818608E-02  0.9688958E-01
          2   -1    0    0  501    0  0.00000000000E+00  0.00000000000E+00  0.18832427204E+03  0.18832427206E+03  0.25500000000E-02 0.  1.
         -2   -1    0    0    0  501 -0.00000000000E+00 -0.00000000000E+00 -0.68203440613E+03  0.68203440614E+03  0.25500000000E-02 0. -1.
   -5000001    1    1    2    0    0  0.20210638265E+02 -0.16979724280E+03 -0.47948683849E+03  0.56713949065E+03  0.25000000000E+03 0.  0.
    5000001    1    1    2    0    0 -0.20210638265E+02  0.16979724280E+03 -0.14223295598E+02  0.30321918755E+03  0.25000000000E+03 0.  0.
<mgrwt>
<rscale>  0 0.71678067E+03</rscale>
<asrwt>0</asrwt>
<pdfrwt beam="1">  1        2 0.28972965E-01 0.71678067E+03</pdfrwt>
<pdfrwt beam="2">  1       -2 0.10492837E+00 0.71678067E+03</pdfrwt>
<totfact> 0.13768376E+02</totfact>
</mgrwt>
</event>
<event>
 4    1  0.6476857E-006  0.6499581E+03  0.7818608E-02  0.9806858E-01
          2   -1    0    0  501    0  0.00000000000E+00  0.00000000000E+00  0.37582195463E+04  0.37582195463E+04  0.25500000000E-02 0.  1.
         -2   -1    0    0    0  501 -0.00000000000E+00 -0.00000000000E+00 -0.28101441722E+02  0.28101441838E+02  0.25500000000E-02 0. -1.
   -5000001    1    1    2    0    0  0.33631584827E+02  0.18655676241E+03  0.13715446163E+04  0.14069716214E+04  0.25000000000E+03 0.  0.
    5000001    1    1    2    0    0 -0.33631584827E+02 -0.18655676241E+03  0.23585734883E+04  0.23793493667E+04  0.25000000000E+03 0.  0.
<mgrwt>
<rscale>  0 0.64995811E+03</rscale>
<asrwt>0</asrwt>
<pdfrwt beam="1">  1        2 0.57818749E+00 0.64995811E+03</pdfrwt>
<pdfrwt beam="2">  1       -2 0.43232997E-02 0.64995811E+03</pdfrwt>
<totfact> 0.15099536E+02</totfact>
</mgrwt>
</event>
<event>
 4    1  0.6476857E-006  0.6519208E+03  0.7818608E-02  0.9803182E-01
          2   -1    0    0  501    0  0.00000000000E+00  0.00000000000E+00  0.13958663000E+04  0.13958663000E+04  0.25500000000E-02 0.  1.
         -2   -1    0    0    0  501 -0.00000000000E+00 -0.00000000000E+00 -0.76117726675E+02  0.76117726717E+02  0.25500000000E-02 0. -1.
   -5000001    1    1    2    0    0 -0.14060644260E+03 -0.11841805518E+03  0.88518200687E+03  0.93799797056E+03  0.25000000000E+03 0.  0.
    5000001    1    1    2    0    0  0.14060644260E+03  0.11841805518E+03  0.43456656648E+03  0.53398605618E+03  0.25000000000E+03 0.  0.
<mgrwt>
<rscale>  0 0.65192076E+03</rscale>
<asrwt>0</asrwt>
<pdfrwt beam="1">  1        2 0.21474866E+00 0.65192076E+03</pdfrwt>
<pdfrwt beam="2">  1       -2 0.11710419E-01 0.65192076E+03</pdfrwt>
<totfact> 0.78230185E+02</totfact>
</mgrwt>
</event>
<event>
 4    1  0.6476857E-006  0.1008653E+04  0.7818608E-02  0.9299105E-01
          2   -1    0    0  501    0  0.00000000000E+00  0.00000000000E+00  0.39611442822E+04  0.39611442822E+04  0.25500000000E-02 0.  1.
         -2   -1    0    0    0  501 -0.00000000000E+00 -0.00000000000E+00 -0.64209981371E+02  0.64209981422E+02  0.25500000000E-02 0. -1.
   -5000001    1    1    2    0    0  0.24595999581E+03  0.31999487192E+03  0.26275167811E+04  0.26700631964E+04  0.25000000000E+03 0.  0.
    5000001    1    1    2    0    0 -0.24595999581E+03 -0.31999487192E+03  0.12694175196E+04  0.13552910672E+04  0.25000000000E+03 0.  0.
<mgrwt>
<rscale>  0 0.10086526E+04</rscale>
<asrwt>0</asrwt>
<pdfrwt beam="1">  1        2 0.60940704E+00 0.10086526E+04</pdfrwt>
<pdfrwt beam="2">  1       -2 0.98784550E-02 0.10086526E+04</pdfrwt>
<totfact> 0.27206710E+01</totfact>
</mgrwt>
</event>
<event>
 4    1  0.6476857E-006  0.8280310E+03  0.7818608E-02  0.9520307E-01
          2   -1    0    0  501    0  0.00000000000E+00  0.00000000000E+00  0.18147697734E+04  0.18147697734E+04  0.25500000000E-02 0.  1.
         -2   -1    0    0    0  501 -0.00000000000E+00 -0.00000000000E+00 -0.94452121077E+02  0.94452121111E+02  0.25500000000E-02 0. -1.
   -5000001    1    1    2    0    0  0.17043723969E+03  0.23967529116E+03  0.12053713037E+04  0.12656670485E+04  0.25000000000E+03 0.  0.
    5000001    1    1    2    0    0 -0.17043723969E+03 -0.23967529116E+03  0.51494634861E+03  0.64355484601E+03  0.25000000000E+03 0.  0.
<mgrwt>
<rscale>  0 0.82803105E+03</rscale>
<asrwt>0</asrwt>
<pdfrwt beam="1">  1        2 0.27919532E+00 0.82803105E+03</pdfrwt>
<pdfrwt beam="2">  1       -2 0.14531097E-01 0.82803105E+03</pdfrwt>
<totfact> 0.31727817E+02</totfact>
</mgrwt>
</event>
<event>
 4    1  0.6476857E-006  0.1027576E+04  0.7818608E-02  0.9278806E-01
          2   -1    0    0  501    0  0.00000000000E+00  0.00000000000E+00  0.34504395314E+04  0.34504395314E+04  0.25500000000E-02 0.  1.
         -2   -1    0    0    0  501 -0.00000000000E+00 -0.00000000000E+00 -0.76505680245E+02  0.76505680287E+02  0.25500000000E-02 0. -1.
   -5000001    1    1    2    0    0  0.22085960790E+03  0.26943442948E+03  0.26583995944E+04  0.26927610889E+04  0.25000000000E+03 0.  0.
    5000001    1    1    2    0    0 -0.22085960790E+03 -0.26943442948E+03  0.71553425680E+03  0.83418412287E+03  0.25000000000E+03 0.  0.
<mgrwt>
<rscale>  0 0.10275762E+04</rscale>
<asrwt>0</asrwt>
<pdfrwt beam="1">  1        2 0.53083684E+00 0.10275762E+04</pdfrwt>
<pdfrwt beam="2">  1       -2 0.11770105E-01 0.10275762E+04</pdfrwt>
<totfact> 0.47888810E+01</totfact>
</mgrwt>
</event>
<event>
 4    1  0.6476857E-006  0.1305660E+04  0.7818608E-02  0.9025089E-01
         -2   -1    0    0    0  501 -0.00000000000E+00  0.00000000000E+00  0.68783319391E+03  0.68783319392E+03  0.25500000000E-02 0. -1.
          2   -1    0    0  501    0  0.00000000000E+00 -0.00000000000E+00 -0.61960775757E+03  0.61960775757E+03  0.25500000000E-02 0.  1.
   -5000001    1    1    2    0    0  0.11589761837E+03 -0.51082552028E+03  0.33337125744E+03  0.66933651133E+03  0.25000000000E+03 0.  0.
    5000001    1    1    2    0    0 -0.11589761837E+03  0.51082552028E+03 -0.26514582110E+03  0.63810444016E+03  0.25000000000E+03 0.  0.
<mgrwt>
<rscale>  0 0.13056597E+04</rscale>
<asrwt>0</asrwt>
<pdfrwt beam="1">  1        2 0.95324270E-01 0.13056597E+04</pdfrwt>
<pdfrwt beam="2">  1       -2 0.10582049E+00 0.13056597E+04</pdfrwt>
<totfact> 0.33716830E+01</totfact>
</mgrwt>
</event>
<event>
 4    1  0.6476857E-006  0.1282480E+04  0.7818608E-02  0.9043575E-01
          2   -1    0    0  501    0  0.00000000000E+00  0.00000000000E+00  0.22455611712E+04  0.22455611712E+04  0.25500000000E-02 0.  1.
         -2   -1    0    0    0  501 -0.00000000000E+00 -0.00000000000E+00 -0.18311174310E+03  0.18311174312E+03  0.25500000000E-02 0. -1.
   -5000001    1    1    2    0    0 -0.45088501389E+03 -0.36590344460E+03  0.12343577494E+04  0.13868387362E+04  0.25000000000E+03 0.  0.
    5000001    1    1    2    0    0  0.45088501389E+03  0.36590344460E+03  0.82809167867E+03  0.10418341782E+04  0.25000000000E+03 0.  0.
<mgrwt>
<rscale>  0 0.12824798E+04</rscale>
<asrwt>0</asrwt>
<pdfrwt beam="1">  1        2 0.34547094E+00 0.12824798E+04</pdfrwt>
<pdfrwt beam="2">  1       -2 0.28171038E-01 0.12824798E+04</pdfrwt>
<totfact> 0.55197594E+01</totfact>
</mgrwt>
</event>
<event>
 4    1  0.6476857E-006  0.1161104E+04  0.7818608E-02  0.9147600E-01
          2   -1    0    0  501    0  0.00000000000E+00  0.00000000000E+00  0.89465412673E+03  0.89465412673E+03  0.25500000000E-02 0.  1.
         -2   -1    0    0    0  501 -0.00000000000E+00 -0.00000000000E+00 -0.37672743222E+03  0.37672743223E+03  0.25500000000E-02 0. -1.
   -5000001    1    1    2    0    0  0.39601840471E+02 -0.23456868611E+03 -0.25222755857E+03  0.42744533636E+03  0.25000000000E+03 0.  0.
    5000001    1    1    2    0    0 -0.39601840471E+02  0.23456868611E+03  0.77015425308E+03  0.84393622260E+03  0.25000000000E+03 0.  0.
<mgrwt>
<rscale>  0 0.11611042E+04</rscale>
<asrwt>0</asrwt>
<pdfrwt beam="1">  1        2 0.13763910E+00 0.11611042E+04</pdfrwt>
<pdfrwt beam="2">  1       -2 0.57958066E-01 0.11611042E+04</pdfrwt>
<totfact> 0.81505217E+01</totfact>
</mgrwt>
</event>
<event>
 4    1  0.6476857E-006  0.9934967E+03  0.7818608E-02  0.9315706E-01
         -2   -1    0    0    0  501 -0.00000000000E+00  0.00000000000E+00  0.34866905570E+03  0.34866905571E+03  0.25500000000E-02 0. -1.
          2   -1    0    0  501    0  0.00000000000E+00 -0.00000000000E+00 -0.70771677082E+03  0.70771677082E+03  0.25500000000E-02 0.  1.
   -5000001    1    1    2    0    0 -0.94725306890E+02 -0.26220880632E+02  0.26477623370E+03  0.37718281016E+03  0.25000000000E+03 0.  0.
    5000001    1    1    2    0    0  0.94725306890E+02  0.26220880632E+02 -0.62382394881E+03  0.67920301638E+03  0.25000000000E+03 0.  0.
<mgrwt>
<rscale>  0 0.99349673E+03</rscale>
<asrwt>0</asrwt>
<pdfrwt beam="1">  1        2 0.10887950E+00 0.99349673E+03</pdfrwt>
<pdfrwt beam="2">  1       -2 0.53641393E-01 0.99349673E+03</pdfrwt>
<totfact> 0.13218684E+02</totfact>
</mgrwt>
</event>
<event>
 4    1  0.6476857E-006  0.6570407E+03  0.7818608E-02  0.9793657E-01
          2   -1    0    0  501    0  0.00000000000E+00  0.00000000000E+00  0.30115786030E+04  0.30115786030E+04  0.25500000000E-02 0.  1.
         -2   -1    0    0    0  501 -0.00000000000E+00 -0.00000000000E+00 -0.35836896814E+02  0.35836896904E+02  0.25500000000E-02 0. -1.
   -5000001    1    1    2    0    0 -0.21183836924E+03 -0.22904713511E+02  0.15112972120E+04  0.15465831319E+04  0.25000000000E+03 0.  0.
    5000001    1    1    2    0    0  0.21183836924E+03  0.22904713511E+02  0.14644444941E+04  0.15008323680E+04  0.25000000000E+03 0.  0.
<mgrwt>
<rscale>  0 0.65704073E+03</rscale>
<asrwt>0</asrwt>
<pdfrwt beam="1">  1        2 0.46331968E+00 0.65704073E+03</pdfrwt>
<pdfrwt beam="2">  1       -2 0.55133700E-02 0.65704073E+03</pdfrwt>
<totfact> 0.32379478E+02</totfact>
</mgrwt>
</event>
<event>
 4    1  0.6476857E-006  0.8038226E+03  0.7818608E-02  0.9554501E-01
         -2   -1    0    0    0  501 -0.00000000000E+00  0.00000000000E+00  0.18472444292E+03  0.18472444293E+03  0.25500000000E-02 0. -1.
          2   -1    0    0  501    0  0.00000000000E+00 -0.00000000000E+00 -0.87445215133E+03  0.87445215134E+03  0.25500000000E-02 0.  1.
   -5000001    1    1    2    0    0  0.13567996822E+03 -0.36162032283E+02  0.26233971410E+02  0.28793222746E+03  0.25000000000E+03 0.  0.
    5000001    1    1    2    0    0 -0.13567996822E+03  0.36162032283E+02 -0.71596167983E+03  0.77124436681E+03  0.25000000000E+03 0.  0.
<mgrwt>
<rscale>  0 0.80382258E+03</rscale>
<asrwt>0</asrwt>
<pdfrwt beam="1">  1        2 0.13453110E+00 0.80382258E+03</pdfrwt>
<pdfrwt beam="2">  1       -2 0.28419146E-01 0.80382258E+03</pdfrwt>
<totfact> 0.34753825E+02</totfact>
</mgrwt>
</event>
<event>
 4    1  0.6476857E-006  0.1071724E+04  0.7818608E-02  0.9233199E-01
          2   -1    0    0  501    0  0.00000000000E+00  0.00000000000E+00  0.10370762241E+04  0.10370762241E+04  0.25500000000E-02 0.  1.
         -2   -1    0    0    0  501 -0.00000000000E+00 -0.00000000000E+00 -0.27688220974E+03  0.27688220975E+03  0.25500000000E-02 0. -1.
   -5000001    1    1    2    0    0 -0.16728326189E+03 -0.40264700330E+03  0.15224241787E+03  0.52515336119E+03  0.25000000000E+03 0.  0.
    5000001    1    1    2    0    0  0.16728326189E+03  0.40264700330E+03  0.60795159644E+03  0.78880507262E+03  0.25000000000E+03 0.  0.
<mgrwt>
<rscale>  0 0.10717238E+04</rscale>
<asrwt>0</asrwt>
<pdfrwt beam="1">  1        2 0.15955018E+00 0.10717238E+04</pdfrwt>
<pdfrwt beam="2">  1       -2 0.42597264E-01 0.10717238E+04</pdfrwt>
<totfact> 0.12384798E+02</totfact>
</mgrwt>
</event>
<event>
 4    1  0.6476857E-006  0.7466928E+03  0.7818608E-02  0.9640553E-01
          2   -1    0    0  501    0  0.00000000000E+00  0.00000000000E+00  0.34785479148E+03  0.34785479149E+03  0.25500000000E-02 0.  1.
         -2   -1    0    0    0  501 -0.00000000000E+00 -0.00000000000E+00 -0.40070608621E+03  0.40070608622E+03  0.25500000000E-02 0. -1.
   -5000001    1    1    2    0    0  0.21652529483E+03 -0.64234385267E+02 -0.18769535798E+03  0.38566670450E+03  0.25000000000E+03 0.  0.
    5000001    1    1    2    0    0 -0.21652529483E+03  0.64234385267E+02  0.13484406325E+03  0.36289417320E+03  0.25000000000E+03 0.  0.
<mgrwt>
<rscale>  0 0.74669279E+03</rscale>
<asrwt>0</asrwt>
<pdfrwt beam="1">  1        2 0.53516122E-01 0.74669279E+03</pdfrwt>
<pdfrwt beam="2">  1       -2 0.61647090E-01 0.74669279E+03</pdfrwt>
<totfact> 0.22958136E+02</totfact>
</mgrwt>
</event>
<event>
 4    1  0.6476857E-006  0.7034307E+03  0.7818608E-02  0.9711383E-01
         -2   -1    0    0    0  501 -0.00000000000E+00  0.00000000000E+00  0.54133712161E+03  0.54133712161E+03  0.25500000000E-02 0. -1.
          2   -1    0    0  501    0  0.00000000000E+00 -0.00000000000E+00 -0.22851503765E+03  0.22851503767E+03  0.25500000000E-02 0.  1.
   -5000001    1    1    2    0    0 -0.23111512564E+02 -0.12691898700E+03  0.38743871201E+03  0.47880197038E+03  0.25000000000E+03 0.  0.
    5000001    1    1    2    0    0  0.23111512564E+02  0.12691898700E+03 -0.74616628057E+02  0.29105018890E+03  0.25000000000E+03 0.  0.
<mgrwt>
<rscale>  0 0.70343066E+03</rscale>
<asrwt>0</asrwt>
<pdfrwt beam="1">  1        2 0.35156160E-01 0.70343066E+03</pdfrwt>
<pdfrwt beam="2">  1       -2 0.83282634E-01 0.70343066E+03</pdfrwt>
<totfact> 0.18971772E+02</totfact>
</mgrwt>
</event>
<event>
 4    1  0.6476857E-006  0.1183543E+04  0.7818608E-02  0.9127384E-01
          2   -1    0    0  501    0  0.00000000000E+00  0.00000000000E+00  0.25712441145E+03  0.25712441146E+03  0.25500000000E-02 0.  1.
         -2   -1    0    0    0  501 -0.00000000000E+00 -0.00000000000E+00 -0.13619622989E+04  0.13619622989E+04  0.25500000000E-02 0. -1.
   -5000001    1    1    2    0    0 -0.52190451729E+03 -0.10632003878E+03 -0.46583983158E+03  0.75046320663E+03  0.25000000000E+03 0.  0.
    5000001    1    1    2    0    0  0.52190451729E+03  0.10632003878E+03 -0.63899805587E+03  0.86862350373E+03  0.25000000000E+03 0.  0.
<mgrwt>
<rscale>  0 0.11835434E+04</rscale>
<asrwt>0</asrwt>
<pdfrwt beam="1">  1        2 0.39557603E-01 0.11835434E+04</pdfrwt>
<pdfrwt beam="2">  1       -2 0.20953266E+00 0.11835434E+04</pdfrwt>
<totfact> 0.14854096E+01</totfact>
</mgrwt>
</event>
<event>
 4    1  0.6476857E-006  0.8306449E+03  0.7818608E-02  0.9516689E-01
          2   -1    0    0  501    0  0.00000000000E+00  0.00000000000E+00  0.11897209659E+04  0.11897209659E+04  0.25500000000E-02 0.  1.
         -2   -1    0    0    0  501 -0.00000000000E+00 -0.00000000000E+00 -0.14498587466E+03  0.14498587469E+03  0.25500000000E-02 0. -1.
   -5000001    1    1    2    0    0 -0.46241359032E+02  0.29236870148E+03  0.76272198293E+03  0.85548965168E+03  0.25000000000E+03 0.  0.
    5000001    1    1    2    0    0  0.46241359032E+02 -0.29236870148E+03  0.28201310831E+03  0.47921718891E+03  0.25000000000E+03 0.  0.
<mgrwt>
<rscale>  0 0.83064489E+03</rscale>
<asrwt>0</asrwt>
<pdfrwt beam="1">  1        2 0.18303399E+00 0.83064489E+03</pdfrwt>
<pdfrwt beam="2">  1       -2 0.22305520E-01 0.83064489E+03</pdfrwt>
<totfact> 0.33959634E+02</totfact>
</mgrwt>
</event>
<event>
 4    1  0.6476857E-006  0.2305562E+04  0.7818608E-02  0.8475731E-01
          2   -1    0    0  501    0  0.00000000000E+00  0.00000000000E+00  0.31134033403E+04  0.31134033403E+04  0.25500000000E-02 0.  1.
         -2   -1    0    0    0  501 -0.00000000000E+00 -0.00000000000E+00 -0.42683319369E+03  0.42683319370E+03  0.25500000000E-02 0. -1.
   -5000001    1    1    2    0    0  0.99376232513E+03  0.27334110502E+03  0.20370359851E+04  0.22965832280E+04  0.25000000000E+03 0.  0.
    5000001    1    1    2    0    0 -0.99376232513E+03 -0.27334110502E+03  0.64953416147E+03  0.12436533060E+04  0.25000000000E+03 0.  0.
<mgrwt>
<rscale>  0 0.23055619E+04</rscale>
<asrwt>0</asrwt>
<pdfrwt beam="1">  1        2 0.47898512E+00 0.23055619E+04</pdfrwt>
<pdfrwt beam="2">  1       -2 0.65666647E-01 0.23055619E+04</pdfrwt>
<totfact> 0.28585859E+00</totfact>
</mgrwt>
</event>
<event>
 4    1  0.6476857E-006  0.1061777E+04  0.7818608E-02  0.9243269E-01
         -2   -1    0    0    0  501 -0.00000000000E+00  0.00000000000E+00  0.14719468282E+04  0.14719468282E+04  0.25500000000E-02 0. -1.
          2   -1    0    0  501    0  0.00000000000E+00 -0.00000000000E+00 -0.19147617194E+03  0.19147617195E+03  0.25500000000E-02 0.  1.
   -5000001    1    1    2    0    0  0.44457674746E+03  0.20349395885E+02  0.41169821405E+03  0.65578807686E+03  0.25000000000E+03 0.  0.
    5000001    1    1    2    0    0 -0.44457674746E+03 -0.20349395885E+02  0.86877244221E+03  0.10076349233E+04  0.25000000000E+03 0.  0.
<mgrwt>
<rscale>  0 0.10617773E+04</rscale>
<asrwt>0</asrwt>
<pdfrwt beam="1">  1        2 0.29457873E-01 0.10617773E+04</pdfrwt>
<pdfrwt beam="2">  1       -2 0.22645336E+00 0.10617773E+04</pdfrwt>
<totfact> 0.16320971E+01</totfact>
</mgrwt>
</event>
<event>
 4    1  0.6476857E-006  0.9182023E+03  0.7818608E-02  0.9403109E-01
          2   -1    0    0  501    0  0.00000000000E+00  0.00000000000E+00  0.16269690302E+04  0.16269690303E+04  0.25500000000E-02 0. -1.
         -2   -1    0    0    0  501 -0.00000000000E+00 -0.00000000000E+00 -0.12955002778E+03  0.12955002780E+03  0.25500000000E-02 0.  1.
   -5000001    1    1    2    0    0 -0.10436136989E+03 -0.36566081042E+03  0.63274397045E+03  0.77939980494E+03  0.25000000000E+03 0.  0.
    5000001    1    1    2    0    0  0.10436136989E+03  0.36566081042E+03  0.86467503202E+03  0.97711925311E+03  0.25000000000E+03 0.  0.
<mgrwt>
<rscale>  0 0.91820234E+03</rscale>
<asrwt>0</asrwt>
<pdfrwt beam="1">  1        2 0.25030292E+00 0.91820234E+03</pdfrwt>
<pdfrwt beam="2">  1       -2 0.19930774E-01 0.91820234E+03</pdfrwt>
<totfact> 0.23230565E+02</totfact>
</mgrwt>
</event>
<event>
 4    1  0.6476857E-006  0.8160733E+03  0.7818608E-02  0.9537039E-01
         -2   -1    0    0    0  501 -0.00000000000E+00  0.00000000000E+00  0.80305962777E+02  0.80305962817E+02  0.25500000000E-02 0. -1.
          2   -1    0    0  501    0  0.00000000000E+00 -0.00000000000E+00 -0.20732447489E+04  0.20732447489E+04  0.25500000000E-02 0.  1.
   -5000001    1    1    2    0    0 -0.26204315394E+03  0.15098321270E+03 -0.70105938049E+03  0.80339703760E+03  0.25000000000E+03 0.  0.
    5000001    1    1    2    0    0  0.26204315394E+03 -0.15098321270E+03 -0.12918794056E+04  0.13501536741E+04  0.25000000000E+03 0.  0.
<mgrwt>
<rscale>  0 0.81607332E+03</rscale>
<asrwt>0</asrwt>
<pdfrwt beam="1">  1        2 0.31896069E+00 0.81607332E+03</pdfrwt>
<pdfrwt beam="2">  1       -2 0.12354765E-01 0.81607332E+03</pdfrwt>
<totfact> 0.30088652E+02</totfact>
</mgrwt>
</event>
<event>
 4    1  0.6476857E-006  0.8945809E+03  0.7818608E-02  0.9432381E-01
         -2   -1    0    0    0  501 -0.00000000000E+00  0.00000000000E+00  0.10065302156E+03  0.10065302159E+03  0.25500000000E-02 0. -1.
          2   -1    0    0  501    0  0.00000000000E+00 -0.00000000000E+00 -0.19877073985E+04  0.19877073985E+04  0.25500000000E-02 0.  1.
   -5000001    1    1    2    0    0  0.24847012676E+03  0.23658954267E+03 -0.61456968438E+03  0.74693233465E+03  0.25000000000E+03 0.  0.
    5000001    1    1    2    0    0 -0.24847012676E+03 -0.23658954267E+03 -0.12724846926E+04  0.13414280854E+04  0.25000000000E+03 0.  0.
<mgrwt>
<rscale>  0 0.89458092E+03</rscale>
<asrwt>0</asrwt>
<pdfrwt beam="1">  1        2 0.30580111E+00 0.89458092E+03</pdfrwt>
<pdfrwt beam="2">  1       -2 0.15485082E-01 0.89458092E+03</pdfrwt>
<totfact> 0.22798524E+02</totfact>
</mgrwt>
</event>
<event>
 4    1  0.6476857E-006  0.6581396E+03  0.7818608E-02  0.9791625E-01
         -2   -1    0    0    0  501 -0.00000000000E+00  0.00000000000E+00  0.50317174293E+02  0.50317174357E+02  0.25500000000E-02 0. -1.
          2   -1    0    0  501    0  0.00000000000E+00 -0.00000000000E+00 -0.21520866323E+04  0.21520866323E+04  0.25500000000E-02 0.  1.
   -5000001    1    1    2    0    0 -0.16387209604E+03 -0.11115125461E+03 -0.13222999766E+04  0.13602153849E+04  0.25000000000E+03 0.  0.
    5000001    1    1    2    0    0  0.16387209604E+03  0.11115125461E+03 -0.77946948140E+03  0.84218842173E+03  0.25000000000E+03 0.  0.
<mgrwt>
<rscale>  0 0.65813955E+03</rscale>
<asrwt>0</asrwt>
<pdfrwt beam="1">  1        2 0.33109018E+00 0.65813955E+03</pdfrwt>
<pdfrwt beam="2">  1       -2 0.77411054E-02 0.65813955E+03</pdfrwt>
<totfact> 0.58949674E+02</totfact>
</mgrwt>
</event>
<event>
 4    1  0.6476857E-006  0.6858080E+03  0.7818608E-02  0.9741815E-01
         -2   -1    0    0    0  501 -0.00000000000E+00  0.00000000000E+00  0.12190885066E+03  0.12190885068E+03  0.25500000000E-02 0. -1.
          2   -1    0    0  501    0  0.00000000000E+00 -0.00000000000E+00 -0.96451705858E+03  0.96451705858E+03  0.25500000000E-02 0.  1.
   -5000001    1    1    2    0    0 -0.11170026262E+03  0.19772779738E+03 -0.51515687805E+03  0.61600311649E+03  0.25000000000E+03 0.  0.
    5000001    1    1    2    0    0  0.11170026262E+03 -0.19772779738E+03 -0.32745132988E+03  0.47042279278E+03  0.25000000000E+03 0.  0.
<mgrwt>
<rscale>  0 0.68580804E+03</rscale>
<asrwt>0</asrwt>
<pdfrwt beam="1">  1        2 0.14838723E+00 0.68580804E+03</pdfrwt>
<pdfrwt beam="2">  1       -2 0.18755208E-01 0.68580804E+03</pdfrwt>
<totfact> 0.63856206E+02</totfact>
</mgrwt>
</event>
<event>
 4    1  0.6476857E-006  0.1130284E+04  0.7818608E-02  0.9176168E-01
         -2   -1    0    0    0  501 -0.00000000000E+00  0.00000000000E+00  0.20185180746E+03  0.20185180748E+03  0.25500000000E-02 0. -1.
          2   -1    0    0  501    0  0.00000000000E+00 -0.00000000000E+00 -0.15822759295E+04  0.15822759295E+04  0.25500000000E-02 0.  1.
   -5000001    1    1    2    0    0 -0.34293386053E+03 -0.27522581919E+03 -0.29234677111E+03  0.58422557187E+03  0.25000000000E+03 0.  0.
    5000001    1    1    2    0    0  0.34293386053E+03  0.27522581919E+03 -0.10880773510E+04  0.11999021651E+04  0.25000000000E+03 0.  0.
<mgrwt>
<rscale>  0 0.11302836E+04</rscale>
<asrwt>0</asrwt>
<pdfrwt beam="1">  1        2 0.24342706E+00 0.11302836E+04</pdfrwt>
<pdfrwt beam="2">  1       -2 0.31054125E-01 0.11302836E+04</pdfrwt>
<totfact> 0.10863671E+02</totfact>
</mgrwt>
</event>
<event>
 4    1  0.6476857E-006  0.6172040E+03  0.7818608E-02  0.9870342E-01
         -2   -1    0    0    0  501 -0.00000000000E+00  0.00000000000E+00  0.41299650902E+03  0.41299650903E+03  0.25500000000E-02 0. -1.
          2   -1    0    0  501    0  0.00000000000E+00 -0.00000000000E+00 -0.23059566967E+03  0.23059566969E+03  0.25500000000E-02 0.  1.
   -5000001    1    1    2    0    0  0.45178936506E+02  0.17479477457E+03  0.78824676008E+02  0.31828867254E+03  0.25000000000E+03 0.  0.
    5000001    1    1    2    0    0 -0.45178936506E+02 -0.17479477457E+03  0.10357616334E+03  0.32530350618E+03  0.25000000000E+03 0.  0.
<mgrwt>
<rscale>  0 0.61720404E+03</rscale>
<asrwt>0</asrwt>
<pdfrwt beam="1">  1        2 0.35476257E-01 0.61720404E+03</pdfrwt>
<pdfrwt beam="2">  1       -2 0.63537924E-01 0.61720404E+03</pdfrwt>
<totfact> 0.34114229E+02</totfact>
</mgrwt>
</event>
<event>
 4    1  0.6476857E-006  0.6406086E+03  0.7818608E-02  0.9824563E-01
          2   -1    0    0  501    0  0.00000000000E+00  0.00000000000E+00  0.33178679273E+03  0.33178679274E+03  0.25500000000E-02 0.  1.
         -2   -1    0    0    0  501 -0.00000000000E+00 -0.00000000000E+00 -0.30921918842E+03  0.30921918843E+03  0.25500000000E-02 0. -1.
   -5000001    1    1    2    0    0  0.36415482147E+01 -0.13627314277E+03  0.15804179588E+03  0.32566983213E+03  0.25000000000E+03 0.  0.
    5000001    1    1    2    0    0 -0.36415482147E+01  0.13627314277E+03 -0.13547419156E+03  0.31533614904E+03  0.25000000000E+03 0.  0.
<mgrwt>
<rscale>  0 0.64060859E+03</rscale>
<asrwt>0</asrwt>
<pdfrwt beam="1">  1        2 0.51044122E-01 0.64060859E+03</pdfrwt>
<pdfrwt beam="2">  1       -2 0.47572183E-01 0.64060859E+03</pdfrwt>
<totfact> 0.41454890E+02</totfact>
</mgrwt>
</event>
<event>
 4    1  0.6476857E-006  0.1022031E+04  0.7818608E-02  0.9284706E-01
          2   -1    0    0  501    0  0.00000000000E+00  0.00000000000E+00  0.15602913102E+04  0.15602913102E+04  0.25500000000E-02 0.  1.
         -2   -1    0    0    0  501 -0.00000000000E+00 -0.00000000000E+00 -0.16736430706E+03  0.16736430708E+03  0.25500000000E-02 0. -1.
   -5000001    1    1    2    0    0 -0.73669319200E+02  0.29865436265E+03  0.15128101425E+03  0.42427295718E+03  0.25000000000E+03 0.  0.
    5000001    1    1    2    0    0  0.73669319200E+02 -0.29865436265E+03  0.12416459889E+04  0.13033826601E+04  0.25000000000E+03 0.  0.
<mgrwt>
<rscale>  0 0.10220315E+04</rscale>
<asrwt>0</asrwt>
<pdfrwt beam="1">  1        2 0.24004482E+00 0.10220315E+04</pdfrwt>
<pdfrwt beam="2">  1       -2 0.25748354E-01 0.10220315E+04</pdfrwt>
<totfact> 0.15906946E+02</totfact>
</mgrwt>
</event>
<event>
 4    1  0.6476857E-006  0.8190261E+03  0.7818608E-02  0.9532879E-01
         -2   -1    0    0    0  501 -0.00000000000E+00  0.00000000000E+00  0.85557919232E+02  0.85557919270E+02  0.25500000000E-02 0. -1.
          2   -1    0    0  501    0  0.00000000000E+00 -0.00000000000E+00 -0.19600867924E+04  0.19600867924E+04  0.25500000000E-02 0.  1.
   -5000001    1    1    2    0    0  0.43193847950E+02  0.18272583598E+03 -0.27669956857E+03  0.41751298289E+03  0.25000000000E+03 0.  0.
    5000001    1    1    2    0    0 -0.43193847950E+02 -0.18272583598E+03 -0.15978293046E+04  0.16281317288E+04  0.25000000000E+03 0.  0.
<mgrwt>
<rscale>  0 0.81902612E+03</rscale>
<asrwt>0</asrwt>
<pdfrwt beam="1">  1        2 0.30155178E+00 0.81902612E+03</pdfrwt>
<pdfrwt beam="2">  1       -2 0.13162758E-01 0.81902612E+03</pdfrwt>
<totfact> 0.31220593E+02</totfact>
</mgrwt>
</event>
<event>
 4    1  0.6476857E-006  0.7566338E+03  0.7818608E-02  0.9625000E-01
         -2   -1    0    0    0  501 -0.00000000000E+00  0.00000000000E+00  0.16806081149E+03  0.16806081151E+03  0.25500000000E-02 0. -1.
          2   -1    0    0  501    0  0.00000000000E+00 -0.00000000000E+00 -0.85161841504E+03  0.85161841505E+03  0.25500000000E-02 0.  1.
   -5000001    1    1    2    0    0 -0.12264420092E+03 -0.21657307879E+03 -0.52595993650E+03  0.63330826086E+03  0.25000000000E+03 0.  0.
    5000001    1    1    2    0    0  0.12264420092E+03  0.21657307879E+03 -0.15759766705E+03  0.38637096570E+03  0.25000000000E+03 0.  0.
<mgrwt>
<rscale>  0 0.75663381E+03</rscale>
<asrwt>0</asrwt>
<pdfrwt beam="1">  1        2 0.13101822E+00 0.75663381E+03</pdfrwt>
<pdfrwt beam="2">  1       -2 0.25855510E-01 0.75663381E+03</pdfrwt>
<totfact> 0.42912565E+02</totfact>
</mgrwt>
</event>
<event>
 4    1  0.6476857E-006  0.6191158E+03  0.7818608E-02  0.9866522E-01
         -2   -1    0    0    0  501 -0.00000000000E+00  0.00000000000E+00  0.48648852612E+02  0.48648852679E+02  0.25500000000E-02 0. -1.
          2   -1    0    0  501    0  0.00000000000E+00 -0.00000000000E+00 -0.19697500417E+04  0.19697500417E+04  0.25500000000E-02 0.  1.
   -5000001    1    1    2    0    0  0.18010737984E+03 -0.75593399287E+01 -0.86661196966E+03  0.91978917033E+03  0.25000000000E+03 0.  0.
    5000001    1    1    2    0    0 -0.18010737984E+03  0.75593399287E+01 -0.10544892194E+04  0.10986097240E+04  0.25000000000E+03 0.  0.
<mgrwt>
<rscale>  0 0.61911576E+03</rscale>
<asrwt>0</asrwt>
<pdfrwt beam="1">  1        2 0.30303841E+00 0.61911576E+03</pdfrwt>
<pdfrwt beam="2">  1       -2 0.74844404E-02 0.61911576E+03</pdfrwt>
<totfact> 0.78384207E+02</totfact>
</mgrwt>
</event>
<event>
 4    1  0.6476857E-006  0.8278720E+03  0.7818608E-02  0.9520527E-01
          2   -1    0    0  501    0  0.00000000000E+00  0.00000000000E+00  0.98705928168E+03  0.98705928168E+03  0.25500000000E-02 0.  1.
         -2   -1    0    0    0  501 -0.00000000000E+00 -0.00000000000E+00 -0.17358936965E+03  0.17358936967E+03  0.25500000000E-02 0. -1.
   -5000001    1    1    2    0    0  0.15768906944E+03  0.27053174021E+03  0.26110760428E+03  0.47825771933E+03  0.25000000000E+03 0.  0.
    5000001    1    1    2    0    0 -0.15768906944E+03 -0.27053174021E+03  0.55236230775E+03  0.68239093202E+03  0.25000000000E+03 0.  0.
<mgrwt>
<rscale>  0 0.82787197E+03</rscale>
<asrwt>0</asrwt>
<pdfrwt beam="1">  1        2 0.15185527E+00 0.82787197E+03</pdfrwt>
<pdfrwt beam="2">  1       -2 0.26706057E-01 0.82787197E+03</pdfrwt>
<totfact> 0.32761286E+02</totfact>
</mgrwt>
</event>
<event>
 4    1  0.6476857E-006  0.9490339E+03  0.7818608E-02  0.9366280E-01
         -2   -1    0    0    0  501 -0.00000000000E+00  0.00000000000E+00  0.95153579874E+02  0.95153579908E+02  0.25500000000E-02 0. -1.
          2   -1    0    0  501    0  0.00000000000E+00 -0.00000000000E+00 -0.23663466335E+04  0.23663466335E+04  0.25500000000E-02 0.  1.
   -5000001    1    1    2    0    0  0.31280972740E+03  0.29906520570E+02 -0.17913542392E+04  0.18358089050E+04  0.25000000000E+03 0.  0.
    5000001    1    1    2    0    0 -0.31280972740E+03 -0.29906520570E+02 -0.47983881439E+03  0.62569130833E+03  0.25000000000E+03 0.  0.
<mgrwt>
<rscale>  0 0.94903394E+03</rscale>
<asrwt>0</asrwt>
<pdfrwt beam="1">  1        2 0.36405329E+00 0.94903394E+03</pdfrwt>
<pdfrwt beam="2">  1       -2 0.14639014E-01 0.94903394E+03</pdfrwt>
<totfact> 0.15400895E+02</totfact>
</mgrwt>
</event>
<event>
 4    1  0.6476857E-006  0.7938000E+03  0.7818608E-02  0.9569035E-01
         -2   -1    0    0    0  501 -0.00000000000E+00  0.00000000000E+00  0.22280036063E+03  0.22280036064E+03  0.25500000000E-02 0. -1.
          2   -1    0    0  501    0  0.00000000000E+00 -0.00000000000E+00 -0.70704377330E+03  0.70704377330E+03  0.25500000000E-02 0.  1.
   -5000001    1    1    2    0    0 -0.14775933354E+03  0.12020206670E+03 -0.52604206313E+03  0.61278186141E+03  0.25000000000E+03 0.  0.
    5000001    1    1    2    0    0  0.14775933354E+03 -0.12020206670E+03  0.41798650459E+02  0.31706227254E+03  0.25000000000E+03 0.  0.
<mgrwt>
<rscale>  0 0.79379999E+03</rscale>
<asrwt>0</asrwt>
<pdfrwt beam="1">  1        2 0.10877596E+00 0.79379999E+03</pdfrwt>
<pdfrwt beam="2">  1       -2 0.34276979E-01 0.79379999E+03</pdfrwt>
<totfact> 0.32420934E+02</totfact>
</mgrwt>
</event>
<event>
 4    1  0.6476857E-006  0.6607299E+03  0.7818608E-02  0.9786851E-01
         -2   -1    0    0    0  501 -0.00000000000E+00  0.00000000000E+00  0.56304237112E+02  0.56304237170E+02  0.25500000000E-02 0. -1.
          2   -1    0    0  501    0  0.00000000000E+00 -0.00000000000E+00 -0.19384155694E+04  0.19384155694E+04  0.25500000000E-02 0.  1.
   -5000001    1    1    2    0    0 -0.13256401614E+03  0.11749382365E+03 -0.56808234149E+03  0.64544214588E+03  0.25000000000E+03 0.  0.
    5000001    1    1    2    0    0  0.13256401614E+03 -0.11749382365E+03 -0.13140289908E+04  0.13492776607E+04  0.25000000000E+03 0.  0.
<mgrwt>
<rscale>  0 0.66072993E+03</rscale>
<asrwt>0</asrwt>
<pdfrwt beam="1">  1        2 0.29821773E+00 0.66072993E+03</pdfrwt>
<pdfrwt beam="2">  1       -2 0.86621918E-02 0.66072993E+03</pdfrwt>
<totfact> 0.64362855E+02</totfact>
</mgrwt>
</event>
<event>
 4    1  0.6476857E-006  0.5714213E+03  0.7818608E-02  0.9966538E-01
         -2   -1    0    0    0  501 -0.00000000000E+00  0.00000000000E+00  0.55161265699E+03  0.55161265699E+03  0.25500000000E-02 0.  1.
          2   -1    0    0  501    0  0.00000000000E+00 -0.00000000000E+00 -0.14798532844E+03  0.14798532846E+03  0.25500000000E-02 0. -1.
   -5000001    1    1    2    0    0 -0.12837997662E+03  0.30692662743E+02  0.15122835282E+03  0.32061421154E+03  0.25000000000E+03 0.  0.
    5000001    1    1    2    0    0  0.12837997662E+03 -0.30692662743E+02  0.25239897573E+03  0.37898377392E+03  0.25000000000E+03 0.  0.
<mgrwt>
<rscale>  0 0.57142132E+03</rscale>
<asrwt>0</asrwt>
<pdfrwt beam="1">  1        2 0.22766974E-01 0.57142132E+03</pdfrwt>
<pdfrwt beam="2">  1       -2 0.84863486E-01 0.57142132E+03</pdfrwt>
<totfact> 0.29862379E+02</totfact>
</mgrwt>
</event>
<event>
 4    1  0.6476857E-006  0.7152300E+03  0.7818608E-02  0.9691536E-01
          2   -1    0    0  501    0  0.00000000000E+00  0.00000000000E+00  0.89436203205E+03  0.89436203205E+03  0.25500000000E-02 0.  1.
         -2   -1    0    0    0  501 -0.00000000000E+00 -0.00000000000E+00 -0.14299408901E+03  0.14299408903E+03  0.25500000000E-02 0. -1.
   -5000001    1    1    2    0    0  0.14650104372E+03  0.10554411822E+03  0.63830458331E+03  0.70889693029E+03  0.25000000000E+03 0.  0.
    5000001    1    1    2    0    0 -0.14650104372E+03 -0.10554411822E+03  0.11306335973E+03  0.32845919079E+03  0.25000000000E+03 0.  0.
<mgrwt>
<rscale>  0 0.71522999E+03</rscale>
<asrwt>0</asrwt>
<pdfrwt beam="1">  1        2 0.13759416E+00 0.71522999E+03</pdfrwt>
<pdfrwt beam="2">  1       -2 0.21999091E-01 0.71522999E+03</pdfrwt>
<totfact> 0.53666790E+02</totfact>
</mgrwt>
</event>
<event>
 4    1  0.6476857E-006  0.6730147E+03  0.7818608E-02  0.9764527E-01
          2   -1    0    0  501    0  0.00000000000E+00  0.00000000000E+00  0.22718179964E+04  0.22718179964E+04  0.25500000000E-02 0.  1.
         -2   -1    0    0    0  501 -0.00000000000E+00 -0.00000000000E+00 -0.49844306257E+02  0.49844306322E+02  0.25500000000E-02 0. -1.
   -5000001    1    1    2    0    0  0.15162689109E+03  0.16654345391E+03  0.11002120669E+04  0.11505190256E+04  0.25000000000E+03 0.  0.
    5000001    1    1    2    0    0 -0.15162689109E+03 -0.16654345391E+03  0.11217616233E+04  0.11711432771E+04  0.25000000000E+03 0.  0.
<mgrwt>
<rscale>  0 0.67301469E+03</rscale>
<asrwt>0</asrwt>
<pdfrwt beam="1">  1        2 0.34951055E+00 0.67301469E+03</pdfrwt>
<pdfrwt beam="2">  1       -2 0.76683528E-02 0.67301469E+03</pdfrwt>
<totfact> 0.51368773E+02</totfact>
</mgrwt>
</event>
<event>
 4    1  0.6476857E-006  0.6926497E+03  0.7818608E-02  0.9729885E-01
          2   -1    0    0  501    0  0.00000000000E+00  0.00000000000E+00  0.18496528503E+04  0.18496528503E+04  0.25500000000E-02 0.  1.
         -2   -1    0    0    0  501 -0.00000000000E+00 -0.00000000000E+00 -0.64845093178E+02  0.64845093228E+02  0.25500000000E-02 0. -1.
   -5000001    1    1    2    0    0  0.22185787799E+03  0.74621879106E+02  0.75007511701E+03  0.82456171632E+03  0.25000000000E+03 0.  0.
    5000001    1    1    2    0    0 -0.22185787799E+03 -0.74621879106E+02  0.10347326402E+04  0.10899362272E+04  0.25000000000E+03 0.  0.
<mgrwt>
<rscale>  0 0.69264973E+03</rscale>
<asrwt>0</asrwt>
<pdfrwt beam="1">  1        2 0.28456198E+00 0.69264973E+03</pdfrwt>
<pdfrwt beam="2">  1       -2 0.99761682E-02 0.69264973E+03</pdfrwt>
<totfact> 0.57119307E+02</totfact>
</mgrwt>
</event>
<event>
 4    1  0.6476857E-006  0.6536407E+03  0.7818608E-02  0.9799971E-01
          2   -1    0    0  501    0  0.00000000000E+00  0.00000000000E+00  0.10524170387E+04  0.10524170387E+04  0.25500000000E-02 0.  1.
         -2   -1    0    0    0  501 -0.00000000000E+00 -0.00000000000E+00 -0.10149165833E+03  0.10149165836E+03  0.25500000000E-02 0. -1.
   -5000001    1    1    2    0    0 -0.11188103567E+02  0.11571289389E+03  0.16565951524E+03  0.32164844545E+03  0.25000000000E+03 0.  0.
    5000001    1    1    2    0    0  0.11188103567E+02 -0.11571289389E+03  0.78526586512E+03  0.83226025160E+03  0.25000000000E+03 0.  0.
<mgrwt>
<rscale>  0 0.65364073E+03</rscale>
<asrwt>0</asrwt>
<pdfrwt beam="1">  1        2 0.16191032E+00 0.65364073E+03</pdfrwt>
<pdfrwt beam="2">  1       -2 0.15614101E-01 0.65364073E+03</pdfrwt>
<totfact> 0.76982666E+02</totfact>
</mgrwt>
</event>
