<event>
 6    2  0.8544106E+000  0.1013332E+03  0.7546771E-02  0.1277517E+00
         21   -1    0    0  501  502  0.00000000000E+00  0.00000000000E+00  0.12539741847E+03  0.12539741847E+03  0.00000000000E+00 0.  1.
         -1   -1    0    0    0  501 -0.00000000000E+00 -0.00000000000E+00 -0.85734111629E+02  0.85734111629E+02  0.00000000000E+00 0.  1.
         24    2    1    2    0    0  0.60682351471E+02  0.74056127816E+00 -0.41742712799E+02  0.10959416631E+03  0.81151284690E+02 0.  0.
        -13    1    3    3    0    0  0.64151636019E+02  0.29268030576E+02 -0.39368870229E+02  0.80758640162E+02  0.00000000000E+00 0.  1.
         14    1    3    3    0    0 -0.34692845488E+01 -0.28527469298E+02 -0.23738425707E+01  0.28835526150E+02  0.00000000000E+00 0. -1.
         -2    1    1    2    0  502 -0.60682351471E+02 -0.74056127816E+00  0.81406019644E+02  0.10153736379E+03  0.00000000000E+00 0.  1.
<mgrwt>
<rscale>  1 0.10133325E+03</rscale>
<asrwt>0</asrwt>
<pdfrwt beam="1">  1       21 0.19291911E-01 0.10133325E+03</pdfrwt>
<pdfrwt beam="2">  1       -1 0.13189863E-01 0.10133325E+03</pdfrwt>
<totfact> 0.85074557E+04</totfact>
</mgrwt>
</event>
<event>
 6    2  0.8544106E+000  0.8982117E+02  0.7546771E-02  0.1303285E+00
         -1   -1    0    0    0  501 -0.00000000000E+00  0.00000000000E+00  0.73022432667E+03  0.73022432667E+03  0.00000000000E+00 0.  1.
         21   -1    0    0  501  502  0.00000000000E+00 -0.00000000000E+00 -0.75370585166E+01  0.75370585166E+01  0.00000000000E+00 0. -1.
         24    2    1    2    0    0  0.43635769858E+02 -0.38412475036E+02  0.46535635896E+03  0.47394554890E+03  0.68470751768E+02 0.  0.
        -11    1    3    3    0    0 -0.18387784786E+02 -0.41267562290E+01  0.88651765212E+02  0.90632644348E+02  0.00000000000E+00 0.  1.
         12    1    3    3    0    0  0.62023554645E+02 -0.34285718807E+02  0.37670459374E+03  0.38331290455E+03  0.00000000000E+00 0. -1.
         -2    1    1    2    0  502 -0.43635769858E+02  0.38412475036E+02  0.25733090920E+03  0.26381583629E+03  0.00000000000E+00 0.  1.
<mgrwt>
<rscale>  1 0.89821170E+02</rscale>
<asrwt>0</asrwt>
<pdfrwt beam="1">  1       21 0.11595480E-02 0.89821170E+02</pdfrwt>
<pdfrwt beam="2">  1       -1 0.11234215E+00 0.89821170E+02</pdfrwt>
<totfact> 0.20516547E+05</totfact>
</mgrwt>
</event>
<event>
 6    2  0.8544106E+000  0.8903977E+02  0.7546771E-02  0.1305194E+00
          2   -1    0    0  502    0 -0.00000000000E+00  0.00000000000E+00  0.38857141513E+02  0.38857141513E+02  0.00000000000E+00 0. -1.
         21   -1    0    0  501  502  0.00000000000E+00 -0.00000000000E+00 -0.10305642463E+03  0.10305642463E+03  0.00000000000E+00 0.  1.
         24    2    1    2    0    0  0.23421653934E+02  0.29138385010E+02 -0.42169298467E+02  0.98520714455E+02  0.80811274520E+02 0.  0.
        -13    1    3    3    0    0  0.96049184801E+01  0.45607184307E+02 -0.56076981027E+02  0.72917059188E+02  0.00000000000E+00 0.  1.
         14    1    3    3    0    0  0.13816735454E+02 -0.16468799297E+02  0.13907682560E+02  0.25603655268E+02  0.00000000000E+00 0. -1.
          1    1    1    2  501    0 -0.23421653934E+02 -0.29138385010E+02 -0.22029984650E+02  0.43392851689E+02  0.00000000000E+00 0. -1.
<mgrwt>
<rscale>  1 0.89039775E+02</rscale>
<asrwt>0</asrwt>
<pdfrwt beam="1">  1       21 0.15854834E-01 0.89039775E+02</pdfrwt>
<pdfrwt beam="2">  1        2 0.59780218E-02 0.89039775E+02</pdfrwt>
<totfact> 0.49613790E+05</totfact>
</mgrwt>
</event>
<event>
 6    2  0.8544106E+000  0.8233969E+02  0.7546771E-02  0.1322540E+00
         21   -1    0    0  501  502  0.00000000000E+00  0.00000000000E+00  0.18870031888E+01  0.18870031888E+01  0.00000000000E+00 0. -1.
          2   -1    0    0  502    0 -0.00000000000E+00 -0.00000000000E+00 -0.14298479169E+04  0.14298479169E+04  0.00000000000E+00 0. -1.
         24    2    1    2    0    0 -0.21064538216E+02 -0.65116407522E+00 -0.10780294384E+04  0.10811694110E+04  0.79597024630E+02 0.  0.
        -13    1    3    3    0    0  0.10765369497E+02  0.31908441963E+02 -0.31822847318E+03  0.32000531713E+03  0.00000000000E+00 0.  1.
         14    1    3    3    0    0 -0.31829907713E+02 -0.32559606038E+02 -0.75980096522E+03  0.76116409382E+03  0.00000000000E+00 0. -1.
          1    1    1    2  501    0  0.21064538216E+02  0.65116407522E+00 -0.34993147529E+03  0.35056550911E+03  0.00000000000E+00 0. -1.
<mgrwt>
<rscale>  1 0.82339693E+02</rscale>
<asrwt>0</asrwt>
<pdfrwt beam="1">  1       21 0.29030904E-03 0.82339693E+02</pdfrwt>
<pdfrwt beam="2">  1        2 0.21997595E+00 0.82339693E+02</pdfrwt>
<totfact> 0.46012363E+06</totfact>
</mgrwt>
</event>
<event>
 6    2  0.8544106E+000  0.8326727E+02  0.7546771E-02  0.1320027E+00
         21   -1    0    0  501  502  0.00000000000E+00  0.00000000000E+00  0.45564488741E+01  0.45564488741E+01  0.00000000000E+00 0. -1.
          2   -1    0    0  502    0 -0.00000000000E+00 -0.00000000000E+00 -0.80287687162E+03  0.80287687162E+03  0.00000000000E+00 0. -1.
         24    2    1    2    0    0 -0.11689204510E+02 -0.22643035517E+02 -0.72590756099E+03  0.73066765690E+03  0.79272272430E+02 0.  0.
        -13    1    3    3    0    0  0.29027292706E+02  0.26182563230E+01 -0.15239709706E+03  0.15515899646E+03  0.00000000000E+00 0.  1.
         14    1    3    3    0    0 -0.40716497217E+02 -0.25261291840E+02 -0.57351046393E+03  0.57550866044E+03  0.00000000000E+00 0. -1.
          1    1    1    2  501    0  0.11689204510E+02  0.22643035517E+02 -0.72412861754E+02  0.76765663593E+02  0.00000000000E+00 0. -1.
<mgrwt>
<rscale>  1 0.83267267E+02</rscale>
<asrwt>0</asrwt>
<pdfrwt beam="1">  1       21 0.70099245E-03 0.83267267E+02</pdfrwt>
<pdfrwt beam="2">  1        2 0.12351946E+00 0.83267267E+02</pdfrwt>
<totfact> 0.27157858E+06</totfact>
</mgrwt>
</event>
<event>
 6    2  0.8544106E+000  0.9732629E+02  0.7546771E-02  0.1286021E+00
         21   -1    0    0  501  502  0.00000000000E+00  0.00000000000E+00  0.32549046942E+02  0.32549046942E+02  0.00000000000E+00 0.  1.
          2   -1    0    0  502    0 -0.00000000000E+00 -0.00000000000E+00 -0.35096872142E+03  0.35096872142E+03  0.00000000000E+00 0. -1.
         24    2    1    2    0    0  0.12779410258E+02  0.50461631811E+02 -0.31682679971E+03  0.33143872400E+03  0.82235741273E+02 0.  0.
        -11    1    3    3    0    0  0.35182376162E+02 -0.84727947729E+00 -0.70082286642E+02  0.78422218636E+02  0.00000000000E+00 0.  1.
         12    1    3    3    0    0 -0.22402965903E+02  0.51308911289E+02 -0.24674451306E+03  0.25301650536E+03  0.00000000000E+00 0. -1.
          1    1    1    2  501    0 -0.12779410258E+02 -0.50461631811E+02 -0.15928747715E+01  0.52079044362E+02  0.00000000000E+00 0. -1.
<mgrwt>
<rscale>  1 0.97326290E+02</rscale>
<asrwt>0</asrwt>
<pdfrwt beam="1">  1       21 0.50075456E-02 0.97326290E+02</pdfrwt>
<pdfrwt beam="2">  1        2 0.53995188E-01 0.97326290E+02</pdfrwt>
<totfact> 0.29629829E+05</totfact>
</mgrwt>
</event>
<event>
 6    2  0.8544106E+000  0.8183881E+02  0.7546771E-02  0.1323913E+00
          2   -1    0    0  502    0 -0.00000000000E+00  0.00000000000E+00  0.16357577143E+04  0.16357577143E+04  0.00000000000E+00 0. -1.
         21   -1    0    0  501  502  0.00000000000E+00 -0.00000000000E+00 -0.18067094954E+01  0.18067094954E+01  0.00000000000E+00 0. -1.
         24    2    1    2    0    0  0.20707662161E+02  0.65274455310E+01  0.10393055672E+04  0.10425227351E+04  0.78906123829E+02 0.  0.
        -11    1    3    3    0    0 -0.27860554746E+02  0.12696480079E+02  0.52505387712E+03  0.52594580043E+03  0.00000000000E+00 0.  1.
         12    1    3    3    0    0  0.48568216907E+02 -0.61690345477E+01  0.51425169007E+03  0.51657693466E+03  0.00000000000E+00 0. -1.
          1    1    1    2  501    0 -0.20707662161E+02 -0.65274455310E+01  0.59464543765E+03  0.59504168874E+03  0.00000000000E+00 0. -1.
<mgrwt>
<rscale>  1 0.81838812E+02</rscale>
<asrwt>0</asrwt>
<pdfrwt beam="1">  1       21 0.27795662E-03 0.81838812E+02</pdfrwt>
<pdfrwt beam="2">  1        2 0.25165385E+00 0.81838812E+02</pdfrwt>
<totfact> 0.38610455E+06</totfact>
</mgrwt>
</event>
<event>
 6    2  0.8544106E+000  0.1060120E+03  0.7546771E-02  0.1268138E+00
         21   -1    0    0  501  502  0.00000000000E+00  0.00000000000E+00  0.36214389943E+01  0.36214389943E+01  0.00000000000E+00 0. -1.
          2   -1    0    0  502    0 -0.00000000000E+00 -0.00000000000E+00 -0.23763340305E+04  0.23763340305E+04  0.00000000000E+00 0. -1.
         24    2    1    2    0    0 -0.60298686637E+02  0.30481854388E+02 -0.18275100500E+04  0.18305822936E+04  0.81691345755E+02 0.  0.
        -11    1    3    3    0    0 -0.12103148225E+02 -0.25173832539E+02 -0.77344057330E+03  0.77394478386E+03  0.00000000000E+00 0.  1.
         12    1    3    3    0    0 -0.48195538413E+02  0.55655686927E+02 -0.10540694767E+04  0.10566375098E+04  0.00000000000E+00 0. -1.
          1    1    1    2  501    0  0.60298686637E+02 -0.30481854388E+02 -0.54520254158E+03  0.54937317590E+03  0.00000000000E+00 0. -1.
<mgrwt>
<rscale>  1 0.10601203E+03</rscale>
<asrwt>0</asrwt>
<pdfrwt beam="1">  1       21 0.55714443E-03 0.10601203E+03</pdfrwt>
<pdfrwt beam="2">  1        2 0.36558987E+00 0.10601203E+03</pdfrwt>
<totfact> 0.57280011E+05</totfact>
</mgrwt>
</event>
<event>
 6    2  0.8544106E+000  0.9126620E+02  0.7546771E-02  0.1299814E+00
         -1   -1    0    0    0  501 -0.00000000000E+00  0.00000000000E+00  0.14295319105E+02  0.14295319105E+02  0.00000000000E+00 0.  1.
         21   -1    0    0  501  502  0.00000000000E+00 -0.00000000000E+00 -0.27793938251E+03  0.27793938251E+03  0.00000000000E+00 0.  1.
         24    2    1    2    0    0 -0.28857789692E+02 -0.18068901013E+02 -0.17708467730E+03  0.19921973221E+03  0.84677396980E+02 0.  0.
        -13    1    3    3    0    0 -0.40717322462E+02 -0.42581102617E+02 -0.86708727743E+02  0.10483059723E+03  0.00000000000E+00 0.  1.
         14    1    3    3    0    0  0.11859532770E+02  0.24512201604E+02 -0.90375949554E+02  0.94389134983E+02  0.00000000000E+00 0. -1.
         -2    1    1    2    0  502  0.28857789692E+02  0.18068901013E+02 -0.86559386108E+02  0.93014969403E+02  0.00000000000E+00 0.  1.
<mgrwt>
<rscale>  1 0.91266197E+02</rscale>
<asrwt>0</asrwt>
<pdfrwt beam="1">  1       21 0.42759909E-01 0.91266197E+02</pdfrwt>
<pdfrwt beam="2">  1       -1 0.21992796E-02 0.91266197E+02</pdfrwt>
<totfact> 0.25982375E+05</totfact>
</mgrwt>
</event>
<event>
 6    2  0.8544106E+000  0.7809352E+02  0.7546771E-02  0.1334550E+00
         21   -1    0    0  501  502  0.00000000000E+00  0.00000000000E+00  0.96935087965E+01  0.96935087965E+01  0.00000000000E+00 0. -1.
         -1   -1    0    0    0  501 -0.00000000000E+00 -0.00000000000E+00 -0.30749660968E+03  0.30749660968E+03  0.00000000000E+00 0.  1.
         24    2    1    2    0    0 -0.21996558378E+02  0.13710788592E+02 -0.25907127576E+03  0.27058552019E+03  0.73666569804E+02 0.  0.
        -13    1    3    3    0    0 -0.93276020963E+01 -0.22101514814E+02 -0.19209021331E+03  0.19358236275E+03  0.00000000000E+00 0.  1.
         14    1    3    3    0    0 -0.12668956282E+02  0.35812303406E+02 -0.66981062450E+02  0.77003157438E+02  0.00000000000E+00 0. -1.
         -2    1    1    2    0  502  0.21996558378E+02 -0.13710788592E+02 -0.38731825123E+02  0.46604598289E+02  0.00000000000E+00 0.  1.
<mgrwt>
<rscale>  1 0.78093520E+02</rscale>
<asrwt>0</asrwt>
<pdfrwt beam="1">  1       21 0.14913091E-02 0.78093520E+02</pdfrwt>
<pdfrwt beam="2">  1       -1 0.47307168E-01 0.78093520E+02</pdfrwt>
<totfact> 0.75954601E+05</totfact>
</mgrwt>
</event>
<event>
 6    2  0.8544106E+000  0.8442791E+02  0.7546771E-02  0.1316935E+00
         21   -1    0    0  501  502  0.00000000000E+00  0.00000000000E+00  0.31609435740E+01  0.31609435740E+01  0.00000000000E+00 0.  1.
          2   -1    0    0  502    0 -0.00000000000E+00 -0.00000000000E+00 -0.92851266335E+03  0.92851266335E+03  0.00000000000E+00 0. -1.
         24    2    1    2    0    0 -0.10592382188E+02  0.20929931343E+02 -0.68626137651E+03  0.69143528186E+03  0.81103708455E+02 0.  0.
        -13    1    3    3    0    0  0.11370760575E+02  0.29338104982E+02 -0.10297120160E+03  0.10767119837E+03  0.00000000000E+00 0.  1.
         14    1    3    3    0    0 -0.21963142763E+02 -0.84081736387E+01 -0.58329017491E+03  0.58376408349E+03  0.00000000000E+00 0. -1.
          1    1    1    2  501    0  0.10592382188E+02 -0.20929931343E+02 -0.23909034326E+03  0.24023832506E+03  0.00000000000E+00 0. -1.
<mgrwt>
<rscale>  1 0.84427911E+02</rscale>
<asrwt>0</asrwt>
<pdfrwt beam="1">  1       21 0.48629868E-03 0.84427911E+02</pdfrwt>
<pdfrwt beam="2">  1        2 0.14284820E+00 0.84427911E+02</pdfrwt>
<totfact> 0.39742631E+06</totfact>
</mgrwt>
</event>
<event>
 6    2  0.8544106E+000  0.3354745E+03  0.7546771E-02  0.1068740E+00
          2   -1    0    0  502    0 -0.00000000000E+00  0.00000000000E+00  0.56289785716E+03  0.56289785716E+03  0.00000000000E+00 0. -1.
         21   -1    0    0  501  502  0.00000000000E+00 -0.00000000000E+00 -0.27588341036E+03  0.27588341036E+03  0.00000000000E+00 0. -1.
         24    2    1    2    0    0 -0.25820972288E+03 -0.19813665017E+03  0.37347586586E+03  0.50202323849E+03  0.81318610904E+02 0.  0.
        -13    1    3    3    0    0 -0.19641723075E+03 -0.16155247661E+03  0.23613931319E+03  0.34704568355E+03  0.00000000000E+00 0.  1.
         14    1    3    3    0    0 -0.61792492128E+02 -0.36584173561E+02  0.13733655267E+03  0.15497755495E+03  0.00000000000E+00 0. -1.
          1    1    1    2  501    0  0.25820972288E+03  0.19813665017E+03 -0.86461419049E+02  0.33675802903E+03  0.00000000000E+00 0. -1.
<mgrwt>
<rscale>  1 0.33547445E+03</rscale>
<asrwt>0</asrwt>
<pdfrwt beam="1">  1       21 0.42443602E-01 0.33547445E+03</pdfrwt>
<pdfrwt beam="2">  1        2 0.86599670E-01 0.33547445E+03</pdfrwt>
<totfact> 0.34925881E+03</totfact>
</mgrwt>
</event>
<event>
 6    2  0.8544106E+000  0.9105132E+02  0.7546771E-02  0.1300326E+00
          2   -1    0    0  502    0 -0.00000000000E+00  0.00000000000E+00  0.92012497163E+03  0.92012497163E+03  0.00000000000E+00 0. -1.
         21   -1    0    0  501  502  0.00000000000E+00 -0.00000000000E+00 -0.49811847458E+01  0.49811847458E+01  0.00000000000E+00 0. -1.
         24    2    1    2    0    0 -0.19008442903E+02  0.35400491151E+02  0.72973157471E+03  0.73539004188E+03  0.81705733550E+02 0.  0.
        -11    1    3    3    0    0 -0.19606653862E+02 -0.19469606265E+02  0.41435448544E+03  0.41527475970E+03  0.00000000000E+00 0.  1.
         12    1    3    3    0    0  0.59821095898E+00  0.54870097416E+02  0.31537708927E+03  0.32011528218E+03  0.00000000000E+00 0. -1.
          1    1    1    2  501    0  0.19008442903E+02 -0.35400491151E+02  0.18541221218E+03  0.18971611450E+03  0.00000000000E+00 0. -1.
<mgrwt>
<rscale>  1 0.91051318E+02</rscale>
<asrwt>0</asrwt>
<pdfrwt beam="1">  1       21 0.76633685E-03 0.91051318E+02</pdfrwt>
<pdfrwt beam="2">  1        2 0.14155755E+00 0.91051318E+02</pdfrwt>
<totfact> 0.20128063E+06</totfact>
</mgrwt>
</event>
<event>
 6    2  0.8544106E+000  0.1238000E+03  0.7546771E-02  0.1236957E+00
         21   -1    0    0  501  502  0.00000000000E+00  0.00000000000E+00  0.43294708525E+01  0.43294708525E+01  0.00000000000E+00 0.  1.
          2   -1    0    0  502    0 -0.00000000000E+00 -0.00000000000E+00 -0.28380563937E+04  0.28380563937E+04  0.00000000000E+00 0. -1.
         24    2    1    2    0    0 -0.95878846817E+02  0.19282295252E+02 -0.16248050667E+04  0.16295146371E+04  0.75907097709E+02 0.  0.
        -11    1    3    3    0    0 -0.10282131031E+03 -0.46811369906E+00 -0.13335505733E+04  0.13375087187E+04  0.00000000000E+00 0.  1.
         12    1    3    3    0    0  0.69424634950E+01  0.19750408951E+02 -0.29125449345E+03  0.29200591844E+03  0.00000000000E+00 0. -1.
          1    1    1    2  501    0  0.95878846817E+02 -0.19282295252E+02 -0.12089218561E+04  0.12128712274E+04  0.00000000000E+00 0. -1.
<mgrwt>
<rscale>  1 0.12380003E+03</rscale>
<asrwt>0</asrwt>
<pdfrwt beam="1">  1       21 0.66607248E-03 0.12380003E+03</pdfrwt>
<pdfrwt beam="2">  1        2 0.43662404E+00 0.12380003E+03</pdfrwt>
<totfact> 0.24511627E+05</totfact>
</mgrwt>
</event>
<event>
 6    2  0.8544106E+000  0.9185227E+02  0.7546771E-02  0.1298427E+00
         21   -1    0    0  501  502  0.00000000000E+00  0.00000000000E+00  0.26379099556E+01  0.26379099556E+01  0.00000000000E+00 0.  1.
          2   -1    0    0  502    0 -0.00000000000E+00 -0.00000000000E+00 -0.18591085666E+04  0.18591085666E+04  0.00000000000E+00 0. -1.
         24    2    1    2    0    0 -0.43797530946E+02  0.11721719609E+02 -0.14069705686E+04  0.14099656098E+04  0.79882522770E+02 0.  0.
        -11    1    3    3    0    0 -0.61578935643E+02  0.27572523076E+02 -0.96726463789E+03  0.96961491792E+03  0.00000000000E+00 0.  1.
         12    1    3    3    0    0  0.17781404697E+02 -0.15850803467E+02 -0.43970593069E+03  0.44035069185E+03  0.00000000000E+00 0. -1.
          1    1    1    2  501    0  0.43797530946E+02 -0.11721719609E+02 -0.44950008807E+03  0.45178086680E+03  0.00000000000E+00 0. -1.
<mgrwt>
<rscale>  1 0.91852272E+02</rscale>
<asrwt>0</asrwt>
<pdfrwt beam="1">  1       21 0.40583256E-03 0.91852272E+02</pdfrwt>
<pdfrwt beam="2">  1        2 0.28601652E+00 0.91852272E+02</pdfrwt>
<totfact> 0.16968054E+06</totfact>
</mgrwt>
</event>
<event>
 6    2  0.8544106E+000  0.8309453E+02  0.7546771E-02  0.1320492E+00
         -3   -1    0    0    0  501 -0.00000000000E+00  0.00000000000E+00  0.50230376292E+02  0.50230376292E+02  0.00000000000E+00 0.  1.
         21   -1    0    0  501  502  0.00000000000E+00 -0.00000000000E+00 -0.99749268505E+02  0.99749268505E+02  0.00000000000E+00 0.  1.
         24    2    1    2    0    0 -0.16220654540E+02 -0.14461721753E+02  0.12714068606E+02  0.84061571084E+02  0.80202550850E+02 0.  0.
        -13    1    3    3    0    0  0.62598038514E+01 -0.35305191261E+02  0.31819738982E+02  0.47938893011E+02  0.00000000000E+00 0.  1.
         14    1    3    3    0    0 -0.22480458391E+02  0.20843469508E+02 -0.19105670377E+02  0.36122678073E+02  0.00000000000E+00 0. -1.
         -4    1    1    2    0  502  0.16220654540E+02  0.14461721753E+02 -0.62232960819E+02  0.65918073713E+02  0.00000000000E+00 0.  1.
<mgrwt>
<rscale>  1 0.83094526E+02</rscale>
<asrwt>0</asrwt>
<pdfrwt beam="1">  1       21 0.15346041E-01 0.83094526E+02</pdfrwt>
<pdfrwt beam="2">  1       -3 0.77277502E-02 0.83094526E+02</pdfrwt>
<totfact> 0.18785077E+05</totfact>
</mgrwt>
</event>
<event>
 6    2  0.8544106E+000  0.8492374E+02  0.7546771E-02  0.1315632E+00
         -3   -1    0    0    0  501 -0.00000000000E+00  0.00000000000E+00  0.81809159570E+01  0.81809159570E+01  0.00000000000E+00 0.  1.
         21   -1    0    0  501  502  0.00000000000E+00 -0.00000000000E+00 -0.51595090287E+03  0.51595090287E+03  0.00000000000E+00 0. -1.
         24    2    1    2    0    0  0.28996083137E+02 -0.36171420619E+01 -0.46262550244E+03  0.47035560631E+03  0.79738223766E+02 0.  0.
        -13    1    3    3    0    0 -0.23699051327E+02  0.55307883030E+01 -0.70119029361E+02  0.74222051518E+02  0.00000000000E+00 0.  1.
         14    1    3    3    0    0  0.52695134465E+02 -0.91479303648E+01 -0.39250647308E+03  0.39613355479E+03  0.00000000000E+00 0. -1.
         -4    1    1    2    0  502 -0.28996083137E+02  0.36171420619E+01 -0.45144484480E+02  0.53776212519E+02  0.00000000000E+00 0.  1.
<mgrwt>
<rscale>  1 0.84923736E+02</rscale>
<asrwt>0</asrwt>
<pdfrwt beam="1">  1       21 0.79377067E-01 0.84923736E+02</pdfrwt>
<pdfrwt beam="2">  1       -3 0.12586024E-02 0.84923736E+02</pdfrwt>
<totfact> 0.12256672E+05</totfact>
</mgrwt>
</event>
<event>
 6    2  0.8544106E+000  0.8719986E+02  0.7546771E-02  0.1309778E+00
         21   -1    0    0  501  502  0.00000000000E+00  0.00000000000E+00  0.95877690116E+01  0.95877690116E+01  0.00000000000E+00 0.  1.
          2   -1    0    0  502    0 -0.00000000000E+00 -0.00000000000E+00 -0.39022876329E+03  0.39022876329E+03  0.00000000000E+00 0. -1.
         24    2    1    2    0    0 -0.32633020352E+02  0.98535213189E+01 -0.24873936037E+03  0.26358126915E+03  0.80260888029E+02 0.  0.
        -11    1    3    3    0    0  0.46111751171E+01  0.19501381089E+02 -0.11220579945E+02  0.22966676178E+02  0.00000000000E+00 0.  1.
         12    1    3    3    0    0 -0.37244195469E+02 -0.96478597704E+01 -0.23751878043E+03  0.24061459297E+03  0.00000000000E+00 0. -1.
          1    1    1    2  501    0  0.32633020352E+02 -0.98535213189E+01 -0.13190163391E+03  0.13623526316E+03  0.00000000000E+00 0. -1.
<mgrwt>
<rscale>  1 0.87199863E+02</rscale>
<asrwt>0</asrwt>
<pdfrwt beam="1">  1       21 0.14750415E-02 0.87199863E+02</pdfrwt>
<pdfrwt beam="2">  1        2 0.60035191E-01 0.87199863E+02</pdfrwt>
<totfact> 0.19039052E+06</totfact>
</mgrwt>
</event>
<event>
 6    2  0.8544106E+000  0.8617014E+02  0.7546771E-02  0.1312401E+00
         21   -1    0    0  501  502  0.00000000000E+00  0.00000000000E+00  0.25791673367E+01  0.25791673367E+01  0.00000000000E+00 0.  1.
          2   -1    0    0  502    0 -0.00000000000E+00 -0.00000000000E+00 -0.12578325314E+04  0.12578325314E+04  0.00000000000E+00 0. -1.
         24    2    1    2    0    0  0.12792531924E+02 -0.24619209504E+02 -0.95109759088E+03  0.95499315197E+03  0.81581484284E+02 0.  0.
        -11    1    3    3    0    0 -0.45782336861E+01 -0.52683654633E+02 -0.54729026926E+03  0.54983921879E+03  0.00000000000E+00 0.  1.
         12    1    3    3    0    0  0.17370765610E+02  0.28064445129E+02 -0.40380732162E+03  0.40515393318E+03  0.00000000000E+00 0. -1.
          1    1    1    2  501    0 -0.12792531924E+02  0.24619209504E+02 -0.30415577314E+03  0.30541854672E+03  0.00000000000E+00 0. -1.
<mgrwt>
<rscale>  1 0.86170139E+02</rscale>
<asrwt>0</asrwt>
<pdfrwt beam="1">  1       21 0.39679433E-03 0.86170139E+02</pdfrwt>
<pdfrwt beam="2">  1        2 0.19351301E+00 0.86170139E+02</pdfrwt>
<totfact> 0.35414980E+06</totfact>
</mgrwt>
</event>
<event>
 6    2  0.8544106E+000  0.8313593E+02  0.7546771E-02  0.1320381E+00
         21   -1    0    0  501  502  0.00000000000E+00  0.00000000000E+00  0.12530992759E+01  0.12530992759E+01  0.00000000000E+00 0.  1.
          2   -1    0    0  502    0 -0.00000000000E+00 -0.00000000000E+00 -0.26086068592E+04  0.26086068592E+04  0.00000000000E+00 0. -1.
         24    2    1    2    0    0  0.22100419962E+02  0.16296458249E+01 -0.23742819811E+04  0.23757370455E+04  0.80128017294E+02 0.  0.
        -11    1    3    3    0    0  0.24802700554E+02  0.36187424116E+02 -0.92404864407E+03  0.92508950930E+03  0.00000000000E+00 0.  1.
         12    1    3    3    0    0 -0.27022805923E+01 -0.34557778291E+02 -0.14502333370E+04  0.14506475362E+04  0.00000000000E+00 0. -1.
          1    1    1    2  501    0 -0.22100419962E+02 -0.16296458249E+01 -0.23307177881E+03  0.23412291298E+03  0.00000000000E+00 0. -1.
<mgrwt>
<rscale>  1 0.83135934E+02</rscale>
<asrwt>0</asrwt>
<pdfrwt beam="1">  1       21 0.19278545E-03 0.83135934E+02</pdfrwt>
<pdfrwt beam="2">  1        2 0.40132217E+00 0.83135934E+02</pdfrwt>
<totfact> 0.21462452E+06</totfact>
</mgrwt>
</event>
<event>
 6    2  0.8544106E+000  0.9203664E+02  0.7546771E-02  0.1297993E+00
         21   -1    0    0  501  502  0.00000000000E+00  0.00000000000E+00  0.24170245082E+01  0.24170245082E+01  0.00000000000E+00 0.  1.
          2   -1    0    0  502    0 -0.00000000000E+00 -0.00000000000E+00 -0.20343311272E+04  0.20343311272E+04  0.00000000000E+00 0. -1.
         24    2    1    2    0    0  0.28924616227E+02 -0.33773655430E+02 -0.15711322795E+04  0.15738257156E+04  0.80581947851E+02 0.  0.
        -13    1    3    3    0    0  0.48367533661E+02 -0.42489193769E+02 -0.87401312968E+03  0.87638102487E+03  0.00000000000E+00 0.  1.
         14    1    3    3    0    0 -0.19442917433E+02  0.87155383383E+01 -0.69711914980E+03  0.69744469076E+03  0.00000000000E+00 0. -1.
          1    1    1    2  501    0 -0.28924616227E+02  0.33773655430E+02 -0.46078182321E+03  0.46292243608E+03  0.00000000000E+00 0. -1.
<mgrwt>
<rscale>  1 0.92036642E+02</rscale>
<asrwt>0</asrwt>
<pdfrwt beam="1">  1       21 0.37184815E-03 0.92036642E+02</pdfrwt>
<pdfrwt beam="2">  1        2 0.31297551E+00 0.92036642E+02</pdfrwt>
<totfact> 0.15831205E+06</totfact>
</mgrwt>
</event>
<event>
 6    2  0.8544106E+000  0.8341516E+02  0.7546771E-02  0.1319630E+00
          2   -1    0    0  502    0 -0.00000000000E+00  0.00000000000E+00  0.15882983402E+03  0.15882983402E+03  0.00000000000E+00 0. -1.
         21   -1    0    0  501  502  0.00000000000E+00 -0.00000000000E+00 -0.21711827949E+02  0.21711827949E+02  0.00000000000E+00 0. -1.
         24    2    1    2    0    0 -0.21263473712E+02  0.65387984359E+01  0.13432898671E+03  0.15812136250E+03  0.80394013514E+02 0.  0.
        -11    1    3    3    0    0 -0.26012377116E+02 -0.36556760251E+01  0.31443277648E+01  0.26455519793E+02  0.00000000000E+00 0.  1.
         12    1    3    3    0    0  0.47489034042E+01  0.10194474461E+02  0.13118465894E+03  0.13166584270E+03  0.00000000000E+00 0. -1.
          1    1    1    2  501    0  0.21263473712E+02 -0.65387984359E+01  0.27890193600E+01  0.22420299469E+02  0.00000000000E+00 0. -1.
<mgrwt>
<rscale>  1 0.83415158E+02</rscale>
<asrwt>0</asrwt>
<pdfrwt beam="1">  1       21 0.33402813E-02 0.83415158E+02</pdfrwt>
<pdfrwt beam="2">  1        2 0.24435358E-01 0.83415158E+02</pdfrwt>
<totfact> 0.13180918E+06</totfact>
</mgrwt>
</event>
<event>
 6    2  0.8544106E+000  0.8453190E+02  0.7546771E-02  0.1316661E+00
          2   -1    0    0  502    0 -0.00000000000E+00  0.00000000000E+00  0.27484328286E+03  0.27484328286E+03  0.00000000000E+00 0. -1.
         21   -1    0    0  501  502  0.00000000000E+00 -0.00000000000E+00 -0.23124927793E+02  0.23124927793E+02  0.00000000000E+00 0. -1.
         24    2    1    2    0    0  0.26377851432E+02  0.13461992194E+00  0.25745163477E+03  0.27097414344E+03  0.80310852321E+02 0.  0.
        -11    1    3    3    0    0 -0.61382541971E+01 -0.26815370859E+02  0.34836135796E+02  0.44388046094E+02  0.00000000000E+00 0.  1.
         12    1    3    3    0    0  0.32516105629E+02  0.26949990781E+02  0.22261549897E+03  0.22658609735E+03  0.00000000000E+00 0. -1.
          1    1    1    2  501    0 -0.26377851432E+02 -0.13461992194E+00 -0.57332796975E+01  0.26994067215E+02  0.00000000000E+00 0. -1.
<mgrwt>
<rscale>  1 0.84531900E+02</rscale>
<asrwt>0</asrwt>
<pdfrwt beam="1">  1       21 0.35576814E-02 0.84531900E+02</pdfrwt>
<pdfrwt beam="2">  1        2 0.42283580E-01 0.84531900E+02</pdfrwt>
<totfact> 0.66504382E+05</totfact>
</mgrwt>
</event>
<event>
 6    2  0.8544106E+000  0.1900344E+03  0.7546771E-02  0.1158430E+00
         21   -1    0    0  501  502  0.00000000000E+00  0.00000000000E+00  0.11237591852E+02  0.11237591852E+02  0.00000000000E+00 0. -1.
          2   -1    0    0  502    0 -0.00000000000E+00 -0.00000000000E+00 -0.31337052871E+04  0.31337052871E+04  0.00000000000E+00 0. -1.
         24    2    1    2    0    0 -0.12098194127E+03 -0.12231848275E+03 -0.20469187386E+04  0.20557211387E+04  0.80713296597E+02 0.  0.
        -11    1    3    3    0    0 -0.43942855748E+02 -0.63971746164E+01 -0.30030997546E+03  0.30357532801E+03  0.00000000000E+00 0.  1.
         12    1    3    3    0    0 -0.77039085520E+02 -0.11592130813E+03 -0.17466087631E+04  0.17521458107E+04  0.00000000000E+00 0. -1.
          1    1    1    2  501    0  0.12098194127E+03  0.12231848275E+03 -0.10755489566E+04  0.10892217402E+04  0.00000000000E+00 0. -1.
<mgrwt>
<rscale>  1 0.19003441E+03</rscale>
<asrwt>0</asrwt>
<pdfrwt beam="1">  1       21 0.17288584E-02 0.19003441E+03</pdfrwt>
<pdfrwt beam="2">  1        2 0.48210902E+00 0.19003441E+03</pdfrwt>
<totfact> 0.35713853E+04</totfact>
</mgrwt>
</event>
<event>
 6    2  0.8544106E+000  0.8521083E+02  0.7546771E-02  0.1314882E+00
         -3   -1    0    0    0  501 -0.00000000000E+00  0.00000000000E+00  0.13055860669E+02  0.13055860669E+02  0.00000000000E+00 0.  1.
         21   -1    0    0  501  502  0.00000000000E+00 -0.00000000000E+00 -0.27743352166E+03  0.27743352166E+03  0.00000000000E+00 0. -1.
         24    2    1    2    0    0  0.28942212573E+02 -0.12294062415E+02 -0.15738865024E+03  0.17897506010E+03  0.79196523134E+02 0.  0.
        -13    1    3    3    0    0 -0.14177039957E+02 -0.31391535746E+02 -0.41975726052E+02  0.54298973803E+02  0.00000000000E+00 0.  1.
         14    1    3    3    0    0  0.43119252530E+02  0.19097473331E+02 -0.11541292419E+03  0.12467608630E+03  0.00000000000E+00 0. -1.
         -4    1    1    2    0  502 -0.28942212573E+02  0.12294062415E+02 -0.10698901075E+03  0.11151432222E+03  0.00000000000E+00 0.  1.
<mgrwt>
<rscale>  1 0.85210826E+02</rscale>
<asrwt>0</asrwt>
<pdfrwt beam="1">  1       21 0.42682080E-01 0.85210826E+02</pdfrwt>
<pdfrwt beam="2">  1       -3 0.20085940E-02 0.85210826E+02</pdfrwt>
<totfact> 0.22285994E+05</totfact>
</mgrwt>
</event>
<event>
 6    2  0.8544106E+000  0.8505381E+02  0.7546771E-02  0.1315292E+00
         21   -1    0    0  501  502  0.00000000000E+00  0.00000000000E+00  0.17253983952E+01  0.17253983952E+01  0.00000000000E+00 0. -1.
          2   -1    0    0  502    0 -0.00000000000E+00 -0.00000000000E+00 -0.37969393699E+04  0.37969393699E+04  0.00000000000E+00 0. -1.
         24    2    1    2    0    0 -0.28370447201E+02  0.13372514850E+02 -0.35952587070E+04  0.35962646343E+04  0.79059745813E+02 0.  0.
        -11    1    3    3    0    0 -0.18204952781E+02 -0.83389586105E+01 -0.32916509692E+04  0.32917118740E+04  0.00000000000E+00 0.  1.
         12    1    3    3    0    0 -0.10165494420E+02  0.21711473460E+02 -0.30360773784E+03  0.30455276035E+03  0.00000000000E+00 0. -1.
          1    1    1    2  501    0  0.28370447201E+02 -0.13372514850E+02 -0.19995526445E+03  0.20240013392E+03  0.00000000000E+00 0. -1.
<mgrwt>
<rscale>  1 0.85053806E+02</rscale>
<asrwt>0</asrwt>
<pdfrwt beam="1">  1       21 0.26544306E-03 0.85053806E+02</pdfrwt>
<pdfrwt beam="2">  1        2 0.58415079E+00 0.85053806E+02</pdfrwt>
<totfact> 0.25849203E+05</totfact>
</mgrwt>
</event>
<event>
 6    2  0.8544106E+000  0.9052737E+02  0.7546771E-02  0.1301580E+00
          2   -1    0    0  502    0 -0.00000000000E+00  0.00000000000E+00  0.22072094059E+04  0.22072094059E+04  0.00000000000E+00 0. -1.
         21   -1    0    0  501  502  0.00000000000E+00 -0.00000000000E+00 -0.20350825454E+01  0.20350825454E+01  0.00000000000E+00 0. -1.
         24    2    1    2    0    0  0.30144670406E+02  0.29014781409E+02  0.13358506981E+04  0.13389145946E+04  0.80278548358E+02 0.  0.
        -13    1    3    3    0    0 -0.63595289510E+01 -0.15146989480E+02  0.75700152161E+02  0.77462170999E+02  0.00000000000E+00 0.  1.
         14    1    3    3    0    0  0.36504199357E+02  0.44161770889E+02  0.12601505460E+04  0.12614524236E+04  0.00000000000E+00 0. -1.
          1    1    1    2  501    0 -0.30144670406E+02 -0.29014781409E+02  0.86932362527E+03  0.87032989386E+03  0.00000000000E+00 0. -1.
<mgrwt>
<rscale>  1 0.90527366E+02</rscale>
<asrwt>0</asrwt>
<pdfrwt beam="1">  1       21 0.31309139E-03 0.90527366E+02</pdfrwt>
<pdfrwt beam="2">  1        2 0.33956876E+00 0.90527366E+02</pdfrwt>
<totfact> 0.16788749E+06</totfact>
</mgrwt>
</event>
<event>
 6    2  0.8544106E+000  0.1080943E+03  0.7546771E-02  0.1264140E+00
         -1   -1    0    0    0  501 -0.00000000000E+00  0.00000000000E+00  0.35543560747E+03  0.35543560747E+03  0.00000000000E+00 0.  1.
         21   -1    0    0  501  502  0.00000000000E+00 -0.00000000000E+00 -0.82081670066E+02  0.82081670066E+02  0.00000000000E+00 0.  1.
         24    2    1    2    0    0  0.70032059826E+02  0.15276476369E+02  0.32930142960E+03  0.34658883305E+03  0.80910614397E+02 0.  0.
        -11    1    3    3    0    0  0.82746153093E+02  0.44429803841E+00  0.30123094113E+03  0.31238950550E+03  0.00000000000E+00 0.  1.
         12    1    3    3    0    0 -0.12714093267E+02  0.14832178331E+02  0.28070488466E+02  0.34199327543E+02  0.00000000000E+00 0. -1.
         -2    1    1    2    0  502 -0.70032059826E+02 -0.15276476369E+02 -0.55947492198E+02  0.90928444488E+02  0.00000000000E+00 0.  1.
<mgrwt>
<rscale>  1 0.10809435E+03</rscale>
<asrwt>0</asrwt>
<pdfrwt beam="1">  1       21 0.12627949E-01 0.10809435E+03</pdfrwt>
<pdfrwt beam="2">  1       -1 0.54682400E-01 0.10809435E+03</pdfrwt>
<totfact> 0.17208678E+04</totfact>
</mgrwt>
</event>
<event>
 6    2  0.8544106E+000  0.9367485E+02  0.7546771E-02  0.1294189E+00
         21   -1    0    0  501  502  0.00000000000E+00  0.00000000000E+00  0.61060047640E+01  0.61060047640E+01  0.00000000000E+00 0.  1.
         -1   -1    0    0    0  501 -0.00000000000E+00 -0.00000000000E+00 -0.88961249415E+03  0.88961249415E+03  0.00000000000E+00 0.  1.
         24    2    1    2    0    0  0.24032061386E+01  0.52138096050E+02 -0.62664515294E+03  0.63360802102E+03  0.77787017823E+02 0.  0.
        -11    1    3    3    0    0  0.88307952444E+00  0.42417395529E+02 -0.62062506847E+03  0.62207354138E+03  0.00000000000E+00 0.  1.
         12    1    3    3    0    0  0.15201266141E+01  0.97207005207E+01 -0.60200844660E+01  0.11534479638E+02  0.00000000000E+00 0. -1.
         -2    1    1    2    0  502 -0.24032061386E+01 -0.52138096050E+02 -0.25686133644E+03  0.26211047789E+03  0.00000000000E+00 0.  1.
<mgrwt>
<rscale>  1 0.93674845E+02</rscale>
<asrwt>0</asrwt>
<pdfrwt beam="1">  1       21 0.93938530E-03 0.93674845E+02</pdfrwt>
<pdfrwt beam="2">  1       -1 0.13686347E+00 0.93674845E+02</pdfrwt>
<totfact> 0.17962079E+05</totfact>
</mgrwt>
</event>
<event>
 6    2  0.8544106E+000  0.8610673E+02  0.7546771E-02  0.1312563E+00
          2   -1    0    0  502    0 -0.00000000000E+00  0.00000000000E+00  0.10213594662E+04  0.10213594662E+04  0.00000000000E+00 0. -1.
         21   -1    0    0  501  502  0.00000000000E+00 -0.00000000000E+00 -0.36102876413E+01  0.36102876413E+01  0.00000000000E+00 0.  1.
         24    2    1    2    0    0 -0.30299131857E+02 -0.43117331575E+01  0.85842816209E+03  0.86273592654E+03  0.80484414832E+02 0.  0.
        -11    1    3    3    0    0 -0.13033106718E+01 -0.20845728894E+01 -0.11160262240E+01  0.26999217343E+01  0.00000000000E+00 0.  1.
         12    1    3    3    0    0 -0.28995821185E+02 -0.22271602681E+01  0.85954418832E+03  0.86003600480E+03  0.00000000000E+00 0. -1.
          1    1    1    2  501    0  0.30299131857E+02  0.43117331575E+01  0.15932101651E+03  0.16223382735E+03  0.00000000000E+00 0. -1.
<mgrwt>
<rscale>  1 0.86106733E+02</rscale>
<asrwt>0</asrwt>
<pdfrwt beam="1">  1       21 0.55542968E-03 0.86106733E+02</pdfrwt>
<pdfrwt beam="2">  1        2 0.15713199E+00 0.86106733E+02</pdfrwt>
<totfact> 0.28628877E+06</totfact>
</mgrwt>
</event>
<event>
 6    2  0.8544106E+000  0.1025444E+03  0.7546771E-02  0.1275035E+00
         21   -1    0    0  501  502  0.00000000000E+00  0.00000000000E+00  0.17263075679E+02  0.17263075679E+02  0.00000000000E+00 0. -1.
          2   -1    0    0  502    0 -0.00000000000E+00 -0.00000000000E+00 -0.14612025488E+04  0.14612025488E+04  0.00000000000E+00 0. -1.
         24    2    1    2    0    0  0.10357731810E+02 -0.67022021137E+02 -0.13844825776E+04  0.13882749578E+04  0.76916298033E+02 0.  0.
        -11    1    3    3    0    0 -0.31883132326E+02 -0.20875191498E+02 -0.40188502548E+03  0.40368785150E+03  0.00000000000E+00 0.  1.
         12    1    3    3    0    0  0.42240864136E+02 -0.46146829640E+02 -0.98259755211E+03  0.98458710630E+03  0.00000000000E+00 0. -1.
          1    1    1    2  501    0 -0.10357731810E+02  0.67022021137E+02 -0.59456895489E+02  0.90190666628E+02  0.00000000000E+00 0. -1.
<mgrwt>
<rscale>  1 0.10254438E+03</rscale>
<asrwt>0</asrwt>
<pdfrwt beam="1">  1       21 0.26558579E-02 0.10254438E+03</pdfrwt>
<pdfrwt beam="2">  1        2 0.22480038E+00 0.10254438E+03</pdfrwt>
<totfact> 0.14210303E+05</totfact>
</mgrwt>
</event>
<event>
 6    2  0.8544106E+000  0.8307007E+02  0.7546771E-02  0.1320558E+00
         21   -1    0    0  501  502  0.00000000000E+00  0.00000000000E+00  0.11780675329E+02  0.11780675329E+02  0.00000000000E+00 0.  1.
          4   -1    0    0  502    0 -0.00000000000E+00 -0.00000000000E+00 -0.27414138271E+03  0.27414138271E+03  0.00000000000E+00 0. -1.
         24    2    1    2    0    0 -0.20250478029E+02  0.70389963144E+01 -0.24380394547E+03  0.25756746860E+03  0.80255889045E+02 0.  0.
        -11    1    3    3    0    0 -0.20604295450E+02  0.54902783125E+01 -0.96449809809E+01  0.23403115285E+02  0.00000000000E+00 0.  1.
         12    1    3    3    0    0  0.35381742076E+00  0.15487180020E+01 -0.23415896449E+03  0.23416435332E+03  0.00000000000E+00 0. -1.
          3    1    1    2  501    0  0.20250478029E+02 -0.70389963144E+01 -0.18556761914E+02  0.28354589439E+02  0.00000000000E+00 0. -1.
<mgrwt>
<rscale>  1 0.83070073E+02</rscale>
<asrwt>0</asrwt>
<pdfrwt beam="1">  1       21 0.18124117E-02 0.83070073E+02</pdfrwt>
<pdfrwt beam="2">  1        4 0.42175595E-01 0.83070073E+02</pdfrwt>
<totfact> 0.28723921E+05</totfact>
</mgrwt>
</event>
<event>
 6    2  0.8544106E+000  0.8195689E+02  0.7546771E-02  0.1323588E+00
          2   -1    0    0  502    0 -0.00000000000E+00  0.00000000000E+00  0.40773641821E+04  0.40773641821E+04  0.00000000000E+00 0. -1.
         21   -1    0    0  501  502  0.00000000000E+00 -0.00000000000E+00 -0.65354569175E+00  0.65354569175E+00  0.00000000000E+00 0.  1.
         24    2    1    2    0    0  0.49426730216E+01  0.19835805674E+02  0.30340969547E+04  0.30352036607E+04  0.79366506210E+02 0.  0.
        -11    1    3    3    0    0 -0.47869683528E+01  0.10277701068E+02  0.59226728513E+02  0.60302168913E+02  0.00000000000E+00 0.  1.
         12    1    3    3    0    0  0.97296413744E+01  0.95581046059E+01  0.29748702262E+04  0.29749014918E+04  0.00000000000E+00 0. -1.
          1    1    1    2  501    0 -0.49426730216E+01 -0.19835805674E+02  0.10426136817E+04  0.10428140671E+04  0.00000000000E+00 0. -1.
<mgrwt>
<rscale>  1 0.81956888E+02</rscale>
<asrwt>0</asrwt>
<pdfrwt beam="1">  1       21 0.10054876E-03 0.81956888E+02</pdfrwt>
<pdfrwt beam="2">  1        2 0.62726643E+00 0.81956888E+02</pdfrwt>
<totfact> 0.68864786E+05</totfact>
</mgrwt>
</event>
<event>
 6    2  0.8544106E+000  0.8980756E+02  0.7546771E-02  0.1303318E+00
         -3   -1    0    0    0  501 -0.00000000000E+00  0.00000000000E+00  0.14321487683E+02  0.14321487683E+02  0.00000000000E+00 0.  1.
         21   -1    0    0  501  502  0.00000000000E+00 -0.00000000000E+00 -0.24805158649E+03  0.24805158649E+03  0.00000000000E+00 0. -1.
         24    2    1    2    0    0 -0.61073758224E+01 -0.20620706909E+02 -0.14092349880E+03  0.16710724295E+03  0.87194521279E+02 0.  0.
        -11    1    3    3    0    0 -0.11701014806E+02  0.85968407534E+01  0.70728715943E+01  0.16150694444E+02  0.00000000000E+00 0.  1.
         12    1    3    3    0    0  0.55936389832E+01 -0.29217547663E+02 -0.14799637039E+03  0.15095654851E+03  0.00000000000E+00 0. -1.
         -4    1    1    2    0  502  0.61073758224E+01  0.20620706909E+02 -0.92806600003E+02  0.95265831214E+02  0.00000000000E+00 0.  1.
<mgrwt>
<rscale>  1 0.89807562E+02</rscale>
<asrwt>0</asrwt>
<pdfrwt beam="1">  1       21 0.38161777E-01 0.89807562E+02</pdfrwt>
<pdfrwt beam="2">  1       -3 0.22033061E-02 0.89807562E+02</pdfrwt>
<totfact> 0.24372951E+05</totfact>
</mgrwt>
</event>
<event>
 6    2  0.8544106E+000  0.8538692E+02  0.7546771E-02  0.1314424E+00
         21   -1    0    0  501  502  0.00000000000E+00  0.00000000000E+00  0.87356474647E+01  0.87356474647E+01  0.00000000000E+00 0.  1.
          2   -1    0    0  502    0 -0.00000000000E+00 -0.00000000000E+00 -0.38002495083E+03  0.38002495083E+03  0.00000000000E+00 0. -1.
         24    2    1    2    0    0  0.14483759480E+02 -0.23575793157E+02 -0.30942894088E+03  0.32099407442E+03  0.80779508818E+02 0.  0.
        -13    1    3    3    0    0  0.45179010885E+02 -0.15795377681E+02 -0.12467054851E+03  0.13354168879E+03  0.00000000000E+00 0.  1.
         14    1    3    3    0    0 -0.30695251405E+02 -0.77804154754E+01 -0.18475839237E+03  0.18745238563E+03  0.00000000000E+00 0. -1.
          1    1    1    2  501    0 -0.14483759480E+02  0.23575793157E+02 -0.61860362480E+02  0.67766523873E+02  0.00000000000E+00 0. -1.
<mgrwt>
<rscale>  1 0.85386921E+02</rscale>
<asrwt>0</asrwt>
<pdfrwt beam="1">  1       21 0.13439458E-02 0.85386921E+02</pdfrwt>
<pdfrwt beam="2">  1        2 0.58465377E-01 0.85386921E+02</pdfrwt>
<totfact> 0.22615141E+06</totfact>
</mgrwt>
</event>
<event>
 6    2  0.8544106E+000  0.9284697E+02  0.7546771E-02  0.1296100E+00
          4   -1    0    0  502    0 -0.00000000000E+00  0.00000000000E+00  0.60240346983E+01  0.60240346983E+01  0.00000000000E+00 0. -1.
         21   -1    0    0  501  502  0.00000000000E+00 -0.00000000000E+00 -0.11227085873E+04  0.11227085873E+04  0.00000000000E+00 0.  1.
         24    2    1    2    0    0  0.43720067093E+02  0.15789411434E+02 -0.40391331730E+03  0.41444725630E+03  0.80372946820E+02 0.  0.
        -13    1    3    3    0    0  0.30560343539E+02 -0.29839163496E+02 -0.24092325446E+03  0.24468004580E+03  0.00000000000E+00 0.  1.
         14    1    3    3    0    0  0.13159723554E+02  0.45628574930E+02 -0.16299006284E+03  0.16976721050E+03  0.00000000000E+00 0. -1.
          3    1    1    2  501    0 -0.43720067093E+02 -0.15789411434E+02 -0.71277123529E+03  0.71428536568E+03  0.00000000000E+00 0. -1.
<mgrwt>
<rscale>  1 0.92846973E+02</rscale>
<asrwt>0</asrwt>
<pdfrwt beam="1">  1       21 0.17272439E+00 0.92846973E+02</pdfrwt>
<pdfrwt beam="2">  1        4 0.92677463E-03 0.92846973E+02</pdfrwt>
<totfact> 0.27294282E+04</totfact>
</mgrwt>
</event>
<event>
 6    2  0.8544106E+000  0.1078894E+03  0.7546771E-02  0.1264529E+00
         21   -1    0    0  501  502  0.00000000000E+00  0.00000000000E+00  0.43010217058E+02  0.43010217058E+02  0.00000000000E+00 0. -1.
          2   -1    0    0  502    0 -0.00000000000E+00 -0.00000000000E+00 -0.22598108437E+03  0.22598108437E+03  0.00000000000E+00 0. -1.
         24    2    1    2    0    0  0.57308973661E+02 -0.38703567981E+02 -0.16567406526E+03  0.19770691326E+03  0.82812094596E+02 0.  0.
        -13    1    3    3    0    0  0.12118848917E+02  0.26033270111E+02 -0.49985450680E+02  0.57646707898E+02  0.00000000000E+00 0.  1.
         14    1    3    3    0    0  0.45190124744E+02 -0.64736838092E+02 -0.11568861458E+03  0.14006020536E+03  0.00000000000E+00 0. -1.
          1    1    1    2  501    0 -0.57308973661E+02  0.38703567981E+02 -0.17296802052E+02  0.71284388177E+02  0.00000000000E+00 0. -1.
<mgrwt>
<rscale>  1 0.10788942E+03</rscale>
<asrwt>0</asrwt>
<pdfrwt beam="1">  1       21 0.66169565E-02 0.10788942E+03</pdfrwt>
<pdfrwt beam="2">  1        2 0.34766320E-01 0.10788942E+03</pdfrwt>
<totfact> 0.29674046E+05</totfact>
</mgrwt>
</event>
<event>
 6    2  0.8544106E+000  0.8369388E+02  0.7546771E-02  0.1318884E+00
         21   -1    0    0  501  502  0.00000000000E+00  0.00000000000E+00  0.25475095250E+02  0.25475095250E+02  0.00000000000E+00 0.  1.
         -3   -1    0    0    0  501 -0.00000000000E+00 -0.00000000000E+00 -0.27585002257E+03  0.27585002257E+03  0.00000000000E+00 0.  1.
         24    2    1    2    0    0  0.20768076201E+02  0.60218648044E+00 -0.26368631897E+03  0.27664985155E+03  0.81073978140E+02 0.  0.
        -11    1    3    3    0    0  0.14234763599E+02  0.35804180982E+02 -0.19919083551E+03  0.20288311123E+03  0.00000000000E+00 0.  1.
         12    1    3    3    0    0  0.65333126024E+01 -0.35201994502E+02 -0.64495483458E+02  0.73766740317E+02  0.00000000000E+00 0. -1.
         -4    1    1    2    0  502 -0.20768076201E+02 -0.60218648044E+00  0.13311391654E+02  0.24675266268E+02  0.00000000000E+00 0.  1.
<mgrwt>
<rscale>  1 0.83693880E+02</rscale>
<asrwt>0</asrwt>
<pdfrwt beam="1">  1       21 0.39192454E-02 0.83693880E+02</pdfrwt>
<pdfrwt beam="2">  1       -3 0.42438466E-01 0.83693880E+02</pdfrwt>
<totfact> 0.10022559E+05</totfact>
</mgrwt>
</event>
<event>
 6    2  0.8544106E+000  0.9453422E+02  0.7546771E-02  0.1292229E+00
          2   -1    0    0  502    0 -0.00000000000E+00  0.00000000000E+00  0.16167193994E+03  0.16167193994E+03  0.00000000000E+00 0. -1.
         21   -1    0    0  501  502  0.00000000000E+00 -0.00000000000E+00 -0.34864590718E+02  0.34864590718E+02  0.00000000000E+00 0. -1.
         24    2    1    2    0    0  0.19023467763E+02  0.44316510239E+02  0.11096603703E+03  0.14577441311E+03  0.81307273587E+02 0.  0.
        -11    1    3    3    0    0  0.44562352012E+02  0.29958671559E+01  0.65231745192E+02  0.79056682309E+02  0.00000000000E+00 0.  1.
         12    1    3    3    0    0 -0.25538884249E+02  0.41320643083E+02  0.45734291840E+02  0.66717730804E+02  0.00000000000E+00 0. -1.
          1    1    1    2  501    0 -0.19023467763E+02 -0.44316510239E+02  0.15841312185E+02  0.50762117541E+02  0.00000000000E+00 0. -1.
<mgrwt>
<rscale>  1 0.94534217E+02</rscale>
<asrwt>0</asrwt>
<pdfrwt beam="1">  1       21 0.53637833E-02 0.94534217E+02</pdfrwt>
<pdfrwt beam="2">  1        2 0.24872606E-01 0.94534217E+02</pdfrwt>
<totfact> 0.59961422E+05</totfact>
</mgrwt>
</event>
<event>
 6    2  0.8544106E+000  0.8834510E+02  0.7546771E-02  0.1306909E+00
         -1   -1    0    0    0  501 -0.00000000000E+00  0.00000000000E+00  0.10551347728E+04  0.10551347728E+04  0.00000000000E+00 0.  1.
         21   -1    0    0  501  502  0.00000000000E+00 -0.00000000000E+00 -0.11443012627E+02  0.11443012627E+02  0.00000000000E+00 0.  1.
         24    2    1    2    0    0  0.22124961162E+02  0.21695164293E+02  0.10281007812E+04  0.10318895643E+04  0.82732475886E+02 0.  0.
        -11    1    3    3    0    0  0.26002850930E+02  0.51779647645E+02  0.65510828660E+03  0.65766568052E+03  0.00000000000E+00 0.  1.
         12    1    3    3    0    0 -0.38778897682E+01 -0.30084483352E+02  0.37299249460E+03  0.37422388378E+03  0.00000000000E+00 0. -1.
         -2    1    1    2    0  502 -0.22124961162E+02 -0.21695164293E+02  0.15590979001E+02  0.34688221147E+02  0.00000000000E+00 0.  1.
<mgrwt>
<rscale>  1 0.88345100E+02</rscale>
<asrwt>0</asrwt>
<pdfrwt beam="1">  1       21 0.17604643E-02 0.88345100E+02</pdfrwt>
<pdfrwt beam="2">  1       -1 0.16232835E+00 0.88345100E+02</pdfrwt>
<totfact> 0.42996098E+04</totfact>
</mgrwt>
</event>
<event>
 6    2  0.8544106E+000  0.9896785E+02  0.7546771E-02  0.1282481E+00
         21   -1    0    0  501  502  0.00000000000E+00  0.00000000000E+00  0.36928575950E+01  0.36928575950E+01  0.00000000000E+00 0.  1.
          2   -1    0    0  502    0 -0.00000000000E+00 -0.00000000000E+00 -0.17842829837E+04  0.17842829837E+04  0.00000000000E+00 0. -1.
         24    2    1    2    0    0 -0.14444139536E+02  0.56732577012E+02 -0.13151403059E+04  0.13188588478E+04  0.79796101051E+02 0.  0.
        -13    1    3    3    0    0  0.14774098724E+02  0.59387817538E+02 -0.11033775479E+04  0.11050733913E+04  0.00000000000E+00 0.  1.
         14    1    3    3    0    0 -0.29218238260E+02 -0.26552405260E+01 -0.21176275799E+03  0.21378545653E+03  0.00000000000E+00 0. -1.
          1    1    1    2  501    0  0.14444139536E+02 -0.56732577012E+02 -0.46544982015E+03  0.46911699345E+03  0.00000000000E+00 0. -1.
<mgrwt>
<rscale>  1 0.98967854E+02</rscale>
<asrwt>0</asrwt>
<pdfrwt beam="1">  1       21 0.56813261E-03 0.98967854E+02</pdfrwt>
<pdfrwt beam="2">  1        2 0.27450475E+00 0.98967854E+02</pdfrwt>
<totfact> 0.11096213E+06</totfact>
</mgrwt>
</event>
<event>
 6    2  0.8544106E+000  0.9002765E+02  0.7546771E-02  0.1302785E+00
         21   -1    0    0  501  502  0.00000000000E+00  0.00000000000E+00  0.32093909618E+01  0.32093909618E+01  0.00000000000E+00 0. -1.
          2   -1    0    0  502    0 -0.00000000000E+00 -0.00000000000E+00 -0.13549481612E+04  0.13549481612E+04  0.00000000000E+00 0. -1.
         24    2    1    2    0    0  0.41814844980E+02 -0.13547751823E+01 -0.91104273553E+03  0.91548011691E+03  0.79716132699E+02 0.  0.
        -13    1    3    3    0    0  0.18311574706E+02 -0.26101473159E+02 -0.13604758638E+03  0.13973384139E+03  0.00000000000E+00 0.  1.
         14    1    3    3    0    0  0.23503270275E+02  0.24746697977E+02 -0.77499514915E+03  0.77574627551E+03  0.00000000000E+00 0. -1.
          1    1    1    2  501    0 -0.41814844980E+02  0.13547751823E+01 -0.44069603466E+03  0.44267743521E+03  0.00000000000E+00 0. -1.
<mgrwt>
<rscale>  1 0.90027654E+02</rscale>
<asrwt>0</asrwt>
<pdfrwt beam="1">  1       21 0.49375332E-03 0.90027654E+02</pdfrwt>
<pdfrwt beam="2">  1        2 0.20845320E+00 0.90027654E+02</pdfrwt>
<totfact> 0.22637080E+06</totfact>
</mgrwt>
</event>
<event>
 6    2  0.8544106E+000  0.8227265E+02  0.7546771E-02  0.1322723E+00
         21   -1    0    0  501  502  0.00000000000E+00  0.00000000000E+00  0.63712070258E+03  0.63712070258E+03  0.00000000000E+00 0.  1.
         -1   -1    0    0    0  501 -0.00000000000E+00 -0.00000000000E+00 -0.43465337629E+01  0.43465337629E+01  0.00000000000E+00 0.  1.
         24    2    1    2    0    0  0.62327124854E+01  0.19972204165E+02  0.44599606943E+03  0.45352098324E+03  0.79567912185E+02 0.  0.
        -13    1    3    3    0    0  0.16646743835E+02  0.48827754415E+02  0.27662222209E+03  0.28139139545E+03  0.00000000000E+00 0.  1.
         14    1    3    3    0    0 -0.10414031350E+02 -0.28855550251E+02  0.16937384734E+03  0.17212958779E+03  0.00000000000E+00 0. -1.
         -2    1    1    2    0  502 -0.62327124854E+01 -0.19972204165E+02  0.18677809939E+03  0.18794625310E+03  0.00000000000E+00 0.  1.
<mgrwt>
<rscale>  1 0.82272646E+02</rscale>
<asrwt>0</asrwt>
<pdfrwt beam="1">  1       21 0.98018496E-01 0.82272646E+02</pdfrwt>
<pdfrwt beam="2">  1       -1 0.66869801E-03 0.82272646E+02</pdfrwt>
<totfact> 0.23628764E+05</totfact>
</mgrwt>
</event>
<event>
 6    2  0.8544106E+000  0.8381960E+02  0.7546771E-02  0.1318549E+00
         21   -1    0    0  501  502  0.00000000000E+00  0.00000000000E+00  0.10242874147E+02  0.10242874147E+02  0.00000000000E+00 0. -1.
         -1   -1    0    0    0  501 -0.00000000000E+00 -0.00000000000E+00 -0.31441592673E+03  0.31441592673E+03  0.00000000000E+00 0.  1.
         24    2    1    2    0    0 -0.26046530755E+02  0.60738477364E+01 -0.19488852385E+03  0.21214914969E+03  0.79438099128E+02 0.  0.
        -13    1    3    3    0    0 -0.20541081797E+02  0.14938258487E+02 -0.19923340079E+03  0.20084580055E+03  0.00000000000E+00 0.  1.
         14    1    3    3    0    0 -0.55054489589E+01 -0.88644107502E+01  0.43448769359E+01  0.11303349140E+02  0.00000000000E+00 0. -1.
         -2    1    1    2    0  502  0.26046530755E+02 -0.60738477364E+01 -0.10928452873E+03  0.11250965119E+03  0.00000000000E+00 0.  1.
<mgrwt>
<rscale>  1 0.83819598E+02</rscale>
<asrwt>0</asrwt>
<pdfrwt beam="1">  1       21 0.15758269E-02 0.83819598E+02</pdfrwt>
<pdfrwt beam="2">  1       -1 0.48371676E-01 0.83819598E+02</pdfrwt>
<totfact> 0.67469230E+05</totfact>
</mgrwt>
</event>
<event>
 6    2  0.8544106E+000  0.7712581E+02  0.7546771E-02  0.1337412E+00
         21   -1    0    0  501  502  0.00000000000E+00  0.00000000000E+00  0.33820553759E+02  0.33820553759E+02  0.00000000000E+00 0. -1.
          4   -1    0    0  502    0 -0.00000000000E+00 -0.00000000000E+00 -0.87647323935E+02  0.87647323935E+02  0.00000000000E+00 0. -1.
         24    2    1    2    0    0 -0.27853254357E+02 -0.13604837910E+02 -0.44749385642E+02  0.89167811088E+02  0.70622203491E+02 0.  0.
        -13    1    3    3    0    0 -0.20466186036E+02 -0.56397483942E+01  0.16547106145E+02  0.26916133723E+02  0.00000000000E+00 0.  1.
         14    1    3    3    0    0 -0.73870683209E+01 -0.79650895161E+01 -0.61296491787E+02  0.62251677365E+02  0.00000000000E+00 0. -1.
          3    1    1    2  501    0  0.27853254357E+02  0.13604837910E+02 -0.90773845342E+01  0.32300066607E+02  0.00000000000E+00 0. -1.
<mgrwt>
<rscale>  1 0.77125813E+02</rscale>
<asrwt>0</asrwt>
<pdfrwt beam="1">  1       21 0.52031621E-02 0.77125813E+02</pdfrwt>
<pdfrwt beam="2">  1        4 0.13484204E-01 0.77125813E+02</pdfrwt>
<totfact> 0.40722435E+05</totfact>
</mgrwt>
</event>
<event>
 6    2  0.8544106E+000  0.9071281E+02  0.7546771E-02  0.1301135E+00
         -3   -1    0    0    0  501 -0.00000000000E+00  0.00000000000E+00  0.34490341578E+02  0.34490341578E+02  0.00000000000E+00 0.  1.
         21   -1    0    0  501  502  0.00000000000E+00 -0.00000000000E+00 -0.42479140168E+03  0.42479140168E+03  0.00000000000E+00 0.  1.
         24    2    1    2    0    0  0.35003558416E+02 -0.86321244506E+01 -0.27635991405E+02  0.94829119824E+02  0.83240923057E+02 0.  0.
        -11    1    3    3    0    0  0.50365347166E+02  0.29414065788E+01  0.11030692569E+02  0.51642968993E+02  0.00000000000E+00 0.  1.
         12    1    3    3    0    0 -0.15361788750E+02 -0.11573531029E+02 -0.38666683974E+02  0.43186150831E+02  0.00000000000E+00 0. -1.
         -4    1    1    2    0  502 -0.35003558416E+02  0.86321244506E+01 -0.36266506870E+03  0.36445262344E+03  0.00000000000E+00 0.  1.
<mgrwt>
<rscale>  1 0.90712810E+02</rscale>
<asrwt>0</asrwt>
<pdfrwt beam="1">  1       21 0.65352522E-01 0.90712810E+02</pdfrwt>
<pdfrwt beam="2">  1       -3 0.53062065E-02 0.90712810E+02</pdfrwt>
<totfact> 0.20977542E+04</totfact>
</mgrwt>
</event>
<event>
 6    2  0.8544106E+000  0.8144442E+02  0.7546771E-02  0.1325002E+00
          2   -1    0    0  502    0 -0.00000000000E+00  0.00000000000E+00  0.11092481031E+04  0.11092481031E+04  0.00000000000E+00 0. -1.
         21   -1    0    0  501  502  0.00000000000E+00 -0.00000000000E+00 -0.87199779755E+01  0.87199779755E+01  0.00000000000E+00 0. -1.
         24    2    1    2    0    0 -0.22766402307E+02  0.80123251495E+01  0.10874916396E+04  0.10905371427E+04  0.77786161102E+02 0.  0.
        -11    1    3    3    0    0 -0.22921845943E+02 -0.21479365614E+02  0.19142666711E+03  0.19398696619E+03  0.00000000000E+00 0.  1.
         12    1    3    3    0    0  0.15544363611E+00  0.29491690764E+02  0.89606497250E+03  0.89655017647E+03  0.00000000000E+00 0. -1.
          1    1    1    2  501    0  0.22766402307E+02 -0.80123251495E+01  0.13036485522E+02  0.27430938429E+02  0.00000000000E+00 0. -1.
<mgrwt>
<rscale>  1 0.81444418E+02</rscale>
<asrwt>0</asrwt>
<pdfrwt beam="1">  1       21 0.13415360E-02 0.81444418E+02</pdfrwt>
<pdfrwt beam="2">  1        2 0.17065344E+00 0.81444418E+02</pdfrwt>
<totfact> 0.64549989E+05</totfact>
</mgrwt>
</event>
<event>
 6    2  0.8544106E+000  0.9947506E+02  0.7546771E-02  0.1281404E+00
         21   -1    0    0  501  502  0.00000000000E+00  0.00000000000E+00  0.27686691869E+03  0.27686691869E+03  0.00000000000E+00 0.  1.
         -1   -1    0    0    0  501 -0.00000000000E+00 -0.00000000000E+00 -0.25111547116E+02  0.25111547116E+02  0.00000000000E+00 0.  1.
         24    2    1    2    0    0  0.20927651798E+02  0.55217494620E+02  0.10941062367E+03  0.14787147188E+03  0.80052166126E+02 0.  0.
        -11    1    3    3    0    0  0.28148221323E+02  0.24423032185E+02  0.36065810788E+01  0.37440810513E+02  0.00000000000E+00 0.  1.
         12    1    3    3    0    0 -0.72205695247E+01  0.30794462434E+02  0.10580404259E+03  0.11043066136E+03  0.00000000000E+00 0. -1.
         -2    1    1    2    0  502 -0.20927651798E+02 -0.55217494620E+02  0.14234474791E+03  0.15410699393E+03  0.00000000000E+00 0.  1.
<mgrwt>
<rscale>  1 0.99475060E+02</rscale>
<asrwt>0</asrwt>
<pdfrwt beam="1">  1       21 0.42594909E-01 0.99475060E+02</pdfrwt>
<pdfrwt beam="2">  1       -1 0.38633151E-02 0.99475060E+02</pdfrwt>
<totfact> 0.11697972E+05</totfact>
</mgrwt>
</event>
<event>
 6    2  0.8544106E+000  0.8778286E+02  0.7546771E-02  0.1308311E+00
         -3   -1    0    0    0  501 -0.00000000000E+00  0.00000000000E+00  0.27268001297E+03  0.27268001297E+03  0.00000000000E+00 0.  1.
         21   -1    0    0  501  502  0.00000000000E+00 -0.00000000000E+00 -0.15233145076E+02  0.15233145076E+02  0.00000000000E+00 0. -1.
         24    2    1    2    0    0  0.22047750302E+02 -0.31492140752E+02  0.15002653326E+03  0.17382114906E+03  0.78917507278E+02 0.  0.
        -13    1    3    3    0    0 -0.24077936506E+01  0.25487105450E+02  0.38953045747E+02  0.46612549678E+02  0.00000000000E+00 0.  1.
         14    1    3    3    0    0  0.24455543953E+02 -0.56979246202E+02  0.11107348752E+03  0.12720859938E+03  0.00000000000E+00 0. -1.
         -4    1    1    2    0  502 -0.22047750302E+02  0.31492140752E+02  0.10742033463E+03  0.11409200899E+03  0.00000000000E+00 0.  1.
<mgrwt>
<rscale>  1 0.87782864E+02</rscale>
<asrwt>0</asrwt>
<pdfrwt beam="1">  1       21 0.23435610E-02 0.87782864E+02</pdfrwt>
<pdfrwt beam="2">  1       -3 0.41950768E-01 0.87782864E+02</pdfrwt>
<totfact> 0.23800796E+05</totfact>
</mgrwt>
</event>
<event>
 6    2  0.8544106E+000  0.1105029E+03  0.7546771E-02  0.1259641E+00
          2   -1    0    0  502    0 -0.00000000000E+00  0.00000000000E+00  0.19276156189E+04  0.19276156189E+04  0.00000000000E+00 0. -1.
         21   -1    0    0  501  502  0.00000000000E+00 -0.00000000000E+00 -0.10028472926E+02  0.10028472926E+02  0.00000000000E+00 0. -1.
         24    2    1    2    0    0 -0.73513903642E+02 -0.25913300010E+02  0.17423772995E+04  0.17458778710E+04  0.78326837825E+02 0.  0.
        -11    1    3    3    0    0  0.12737704970E+02 -0.83020286429E+01  0.56895223617E+03  0.56915535651E+03  0.00000000000E+00 0.  1.
         12    1    3    3    0    0 -0.86251608612E+02 -0.17611271367E+02  0.11734250633E+04  0.11767225145E+04  0.00000000000E+00 0. -1.
          1    1    1    2  501    0  0.73513903642E+02  0.25913300010E+02  0.17520984652E+03  0.19176622086E+03  0.00000000000E+00 0. -1.
<mgrwt>
<rscale>  1 0.11050288E+03</rscale>
<asrwt>0</asrwt>
<pdfrwt beam="1">  1       21 0.15428435E-02 0.11050288E+03</pdfrwt>
<pdfrwt beam="2">  1        2 0.29655595E+00 0.11050288E+03</pdfrwt>
<totfact> 0.19721730E+05</totfact>
</mgrwt>
</event>
<event>
 6    2  0.8544106E+000  0.8384323E+02  0.7546771E-02  0.1318486E+00
          2   -1    0    0  502    0 -0.00000000000E+00  0.00000000000E+00  0.20871599253E+04  0.20871599253E+04  0.00000000000E+00 0. -1.
         21   -1    0    0  501  502  0.00000000000E+00 -0.00000000000E+00 -0.19721448001E+01  0.19721448001E+01  0.00000000000E+00 0. -1.
         24    2    1    2    0    0 -0.19543993682E+02 -0.10083532784E+02  0.19745760593E+04  0.19763553075E+04  0.80907614469E+02 0.  0.
        -13    1    3    3    0    0  0.29898115036E+02 -0.15199792301E+02  0.91379811299E+03  0.91441343072E+03  0.00000000000E+00 0.  1.
         14    1    3    3    0    0 -0.49442108718E+02  0.51162595173E+01  0.10607779464E+04  0.10619418768E+04  0.00000000000E+00 0. -1.
          1    1    1    2  501    0  0.19543993682E+02  0.10083532784E+02  0.11061172115E+03  0.11277676258E+03  0.00000000000E+00 0. -1.
<mgrwt>
<rscale>  1 0.83843231E+02</rscale>
<asrwt>0</asrwt>
<pdfrwt beam="1">  1       21 0.30340856E-03 0.83843231E+02</pdfrwt>
<pdfrwt beam="2">  1        2 0.32109976E+00 0.83843231E+02</pdfrwt>
<totfact> 0.20156013E+06</totfact>
</mgrwt>
</event>
<event>
 6    2  0.8544106E+000  0.8594885E+02  0.7546771E-02  0.1312970E+00
          2   -1    0    0  502    0 -0.00000000000E+00  0.00000000000E+00  0.11139686237E+02  0.11139686237E+02  0.00000000000E+00 0. -1.
         21   -1    0    0  501  502  0.00000000000E+00 -0.00000000000E+00 -0.15195893970E+04  0.15195893970E+04  0.00000000000E+00 0. -1.
         24    2    1    2    0    0 -0.19459374336E+02  0.17910337515E+02 -0.15672306886E+03  0.17874374238E+03  0.81778711720E+02 0.  0.
        -11    1    3    3    0    0 -0.32205806431E+02 -0.25181330844E+02 -0.69764662075E+02  0.80860506215E+02  0.00000000000E+00 0.  1.
         12    1    3    3    0    0  0.12746432095E+02  0.43091668359E+02 -0.86958406780E+02  0.97883236169E+02  0.00000000000E+00 0. -1.
          1    1    1    2  501    0  0.19459374336E+02 -0.17910337515E+02 -0.13517266419E+04  0.13519853408E+04  0.00000000000E+00 0. -1.
<mgrwt>
<rscale>  1 0.85948852E+02</rscale>
<asrwt>0</asrwt>
<pdfrwt beam="1">  1       21 0.23378301E+00 0.85948852E+02</pdfrwt>
<pdfrwt beam="2">  1        2 0.17137977E-02 0.85948852E+02</pdfrwt>
<totfact> 0.70964259E+03</totfact>
</mgrwt>
</event>
<event>
 6    2  0.8544106E+000  0.8289221E+02  0.7546771E-02  0.1321039E+00
          4   -1    0    0  502    0 -0.00000000000E+00  0.00000000000E+00  0.61517996833E+03  0.61517996833E+03  0.00000000000E+00 0. -1.
         21   -1    0    0  501  502  0.00000000000E+00 -0.00000000000E+00 -0.63034658911E+01  0.63034658911E+01  0.00000000000E+00 0.  1.
         24    2    1    2    0    0 -0.12410820048E+02  0.16904357108E+02  0.57944956337E+03  0.58534854130E+03  0.80195589456E+02 0.  0.
        -13    1    3    3    0    0  0.16901028323E+02  0.36941724984E+02  0.42171350904E+03  0.42366569310E+03  0.00000000000E+00 0.  1.
         14    1    3    3    0    0 -0.29311848371E+02 -0.20037367876E+02  0.15773605434E+03  0.16168284821E+03  0.00000000000E+00 0. -1.
          3    1    1    2  501    0  0.12410820048E+02 -0.16904357108E+02  0.29426939069E+02  0.36134892922E+02  0.00000000000E+00 0. -1.
<mgrwt>
<rscale>  1 0.82892209E+02</rscale>
<asrwt>0</asrwt>
<pdfrwt beam="1">  1       21 0.96976447E-03 0.82892209E+02</pdfrwt>
<pdfrwt beam="2">  1        4 0.94643024E-01 0.82892209E+02</pdfrwt>
<totfact> 0.14078739E+05</totfact>
</mgrwt>
</event>
<event>
 6    2  0.8544106E+000  0.8334831E+02  0.7546771E-02  0.1319809E+00
         -3   -1    0    0    0  501 -0.00000000000E+00  0.00000000000E+00  0.24726906789E+03  0.24726906789E+03  0.00000000000E+00 0.  1.
         21   -1    0    0  501  502  0.00000000000E+00 -0.00000000000E+00 -0.62557234823E+02  0.62557234823E+02  0.00000000000E+00 0.  1.
         24    2    1    2    0    0 -0.62995680096E+01  0.20772957677E+02  0.23806099267E+03  0.25223000806E+03  0.80471985250E+02 0.  0.
        -11    1    3    3    0    0  0.31580264345E+02  0.14832498072E+02  0.17486515675E+03  0.17831191530E+03  0.00000000000E+00 0.  1.
         12    1    3    3    0    0 -0.37879832354E+02  0.59404596050E+01  0.63195835920E+02  0.73918092759E+02  0.00000000000E+00 0. -1.
         -4    1    1    2    0  502  0.62995680096E+01 -0.20772957677E+02 -0.53349159598E+02  0.57596294651E+02  0.00000000000E+00 0.  1.
<mgrwt>
<rscale>  1 0.83348310E+02</rscale>
<asrwt>0</asrwt>
<pdfrwt beam="1">  1       21 0.96241901E-02 0.83348310E+02</pdfrwt>
<pdfrwt beam="2">  1       -3 0.38041395E-01 0.83348310E+02</pdfrwt>
<totfact> 0.27276628E+04</totfact>
</mgrwt>
</event>
<event>
 6    2  0.8544106E+000  0.1012458E+03  0.7546771E-02  0.1277698E+00
          2   -1    0    0  502    0 -0.00000000000E+00  0.00000000000E+00  0.30352012162E+03  0.30352012162E+03  0.00000000000E+00 0. -1.
         21   -1    0    0  501  502  0.00000000000E+00 -0.00000000000E+00 -0.18263069123E+02  0.18263069123E+02  0.00000000000E+00 0.  1.
         24    2    1    2    0    0 -0.18959095542E+02 -0.43579224527E+02  0.20042708536E+03  0.22454780913E+03  0.89398578974E+02 0.  0.
        -11    1    3    3    0    0 -0.51630925349E+02 -0.93009343028E+01  0.86423055223E+02  0.10109997184E+03  0.00000000000E+00 0.  1.
         12    1    3    3    0    0  0.32671829807E+02 -0.34278290225E+02  0.11400403014E+03  0.12344783729E+03  0.00000000000E+00 0. -1.
          1    1    1    2  501    0  0.18959095542E+02  0.43579224527E+02  0.84829967139E+02  0.97235381621E+02  0.00000000000E+00 0. -1.
<mgrwt>
<rscale>  1 0.10124575E+03</rscale>
<asrwt>0</asrwt>
<pdfrwt beam="1">  1       21 0.28097032E-02 0.10124575E+03</pdfrwt>
<pdfrwt beam="2">  1        2 0.46695400E-01 0.10124575E+03</pdfrwt>
<totfact> 0.89609493E+05</totfact>
</mgrwt>
</event>
<event>
 6    2  0.8544106E+000  0.8700136E+02  0.7546771E-02  0.1310280E+00
          2   -1    0    0  502    0 -0.00000000000E+00  0.00000000000E+00  0.25226994513E+04  0.25226994513E+04  0.00000000000E+00 0. -1.
         21   -1    0    0  501  502  0.00000000000E+00 -0.00000000000E+00 -0.11904158611E+01  0.11904158611E+01  0.00000000000E+00 0.  1.
         24    2    1    2    0    0  0.40644816715E+01  0.21454035143E+02  0.21246944657E+04  0.21264749726E+04  0.84216631533E+02 0.  0.
        -11    1    3    3    0    0 -0.57073942273E+01  0.35595624463E+01  0.12607871404E+02  0.14289970434E+02  0.00000000000E+00 0.  1.
         12    1    3    3    0    0  0.97718758988E+01  0.17894472696E+02  0.21120865943E+04  0.21121850022E+04  0.00000000000E+00 0. -1.
          1    1    1    2  501    0 -0.40644816715E+01 -0.21454035143E+02  0.39681456981E+03  0.39741489460E+03  0.00000000000E+00 0. -1.
<mgrwt>
<rscale>  1 0.87001360E+02</rscale>
<asrwt>0</asrwt>
<pdfrwt beam="1">  1       21 0.18314292E-03 0.87001360E+02</pdfrwt>
<pdfrwt beam="2">  1        2 0.38810333E+00 0.87001360E+02</pdfrwt>
<totfact> 0.25787719E+06</totfact>
</mgrwt>
</event>
<event>
 6    2  0.8544106E+000  0.8705134E+02  0.7546771E-02  0.1310154E+00
          4   -1    0    0  502    0 -0.00000000000E+00  0.00000000000E+00  0.33595995437E+02  0.33595995437E+02  0.00000000000E+00 0. -1.
         21   -1    0    0  501  502  0.00000000000E+00 -0.00000000000E+00 -0.12538490691E+03  0.12538490691E+03  0.00000000000E+00 0.  1.
         24    2    1    2    0    0  0.29869240140E+02  0.63562736823E+01 -0.94303191309E+02  0.12833950348E+03  0.81519093098E+02 0.  0.
        -11    1    3    3    0    0  0.55570451320E+02 -0.78380260249E+01 -0.49838231356E+02  0.75055706089E+02  0.00000000000E+00 0.  1.
         12    1    3    3    0    0 -0.25701211179E+02  0.14194299707E+02 -0.44464959953E+02  0.53283797386E+02  0.00000000000E+00 0. -1.
          3    1    1    2  501    0 -0.29869240140E+02 -0.63562736823E+01  0.25142798370E+01  0.30641398871E+02  0.00000000000E+00 0. -1.
<mgrwt>
<rscale>  1 0.87051343E+02</rscale>
<asrwt>0</asrwt>
<pdfrwt beam="1">  1       21 0.19289986E-01 0.87051343E+02</pdfrwt>
<pdfrwt beam="2">  1        4 0.51686146E-02 0.87051343E+02</pdfrwt>
<totfact> 0.20876773E+05</totfact>
</mgrwt>
</event>
<event>
 6    2  0.8544106E+000  0.8624426E+02  0.7546771E-02  0.1312210E+00
         21   -1    0    0  501  502  0.00000000000E+00  0.00000000000E+00  0.14944961190E+02  0.14944961190E+02  0.00000000000E+00 0. -1.
          2   -1    0    0  502    0 -0.00000000000E+00 -0.00000000000E+00 -0.86009097590E+03  0.86009097590E+03  0.00000000000E+00 0. -1.
         24    2    1    2    0    0 -0.47722292288E+01 -0.28276068500E+02 -0.84175331788E+03  0.84615998493E+03  0.81337332809E+02 0.  0.
        -11    1    3    3    0    0 -0.16117653552E+02 -0.20531404009E+01 -0.31869490102E+02  0.35772315285E+02  0.00000000000E+00 0.  1.
         12    1    3    3    0    0  0.11345424323E+02 -0.26222928099E+02 -0.80988382778E+03  0.81038766964E+03  0.00000000000E+00 0. -1.
          1    1    1    2  501    0  0.47722292288E+01  0.28276068500E+02 -0.33926968309E+01  0.28875952165E+02  0.00000000000E+00 0. -1.
<mgrwt>
<rscale>  1 0.86244257E+02</rscale>
<asrwt>0</asrwt>
<pdfrwt beam="1">  1       21 0.22992243E-02 0.86244257E+02</pdfrwt>
<pdfrwt beam="2">  1        2 0.13232172E+00 0.86244257E+02</pdfrwt>
<totfact> 0.38614091E+05</totfact>
</mgrwt>
</event>
<event>
 6    2  0.8544106E+000  0.1006548E+03  0.7546771E-02  0.1278925E+00
          2   -1    0    0  502    0 -0.00000000000E+00  0.00000000000E+00  0.17358449850E+04  0.17358449850E+04  0.00000000000E+00 0. -1.
         21   -1    0    0  501  502  0.00000000000E+00 -0.00000000000E+00 -0.87949492631E+01  0.87949492631E+01  0.00000000000E+00 0. -1.
         24    2    1    2    0    0 -0.38770705836E+02 -0.38703722093E+02  0.16307083858E+04  0.16338118726E+04  0.84440806915E+02 0.  0.
        -13    1    3    3    0    0 -0.11660993971E+02  0.13659932180E+01  0.27850959125E+02  0.30224504000E+02  0.00000000000E+00 0.  1.
         14    1    3    3    0    0 -0.27109711866E+02 -0.40069715311E+02  0.16028574267E+04  0.16035873686E+04  0.00000000000E+00 0. -1.
          1    1    1    2  501    0  0.38770705836E+02  0.38703722093E+02  0.96341649963E+02  0.11082806167E+03  0.00000000000E+00 0. -1.
<mgrwt>
<rscale>  1 0.10065483E+03</rscale>
<asrwt>0</asrwt>
<pdfrwt beam="1">  1       21 0.13530705E-02 0.10065483E+03</pdfrwt>
<pdfrwt beam="2">  1        2 0.26705280E+00 0.10065483E+03</pdfrwt>
<totfact> 0.30316288E+05</totfact>
</mgrwt>
</event>
<event>
 6    2  0.8544106E+000  0.8153617E+02  0.7546771E-02  0.1324748E+00
          2   -1    0    0  502    0 -0.00000000000E+00  0.00000000000E+00  0.10044545213E+04  0.10044545213E+04  0.00000000000E+00 0. -1.
         21   -1    0    0  501  502  0.00000000000E+00 -0.00000000000E+00 -0.72879904542E+01  0.72879904542E+01  0.00000000000E+00 0. -1.
         24    2    1    2    0    0  0.31102790644E+02 -0.13410357279E+02  0.95097246816E+03  0.95446151407E+03  0.74168223426E+02 0.  0.
        -11    1    3    3    0    0 -0.18660033834E+01  0.10799507619E+02  0.21901133902E+02  0.24490222531E+02  0.00000000000E+00 0.  1.
         12    1    3    3    0    0  0.32968794027E+02 -0.24209864898E+02  0.92907133426E+03  0.92997129153E+03  0.00000000000E+00 0. -1.
          1    1    1    2  501    0 -0.31102790644E+02  0.13410357279E+02  0.46194062659E+02  0.57280997661E+02  0.00000000000E+00 0. -1.
<mgrwt>
<rscale>  1 0.81536168E+02</rscale>
<asrwt>0</asrwt>
<pdfrwt beam="1">  1       21 0.11212301E-02 0.81536168E+02</pdfrwt>
<pdfrwt beam="2">  1        2 0.15453136E+00 0.81536168E+02</pdfrwt>
<totfact> 0.98118998E+05</totfact>
</mgrwt>
</event>
<event>
 6    2  0.8544106E+000  0.9160993E+02  0.7546771E-02  0.1298999E+00
         -1   -1    0    0    0  501 -0.00000000000E+00  0.00000000000E+00  0.98216901183E+03  0.98216901183E+03  0.00000000000E+00 0.  1.
         21   -1    0    0  501  502  0.00000000000E+00 -0.00000000000E+00 -0.66261341529E+01  0.66261341529E+01  0.00000000000E+00 0. -1.
         24    2    1    2    0    0  0.43105625221E+02  0.12374869717E+02  0.35485996291E+03  0.36649416333E+03  0.79882076542E+02 0.  0.
        -11    1    3    3    0    0  0.60826921311E+02  0.12295791037E+02  0.33103247168E+03  0.33679904712E+03  0.00000000000E+00 0.  1.
         12    1    3    3    0    0 -0.17721296089E+02  0.79078680838E-01  0.23827491228E+02  0.29695116211E+02  0.00000000000E+00 0. -1.
         -2    1    1    2    0  502 -0.43105625221E+02 -0.12374869717E+02  0.62068291477E+03  0.62230098265E+03  0.00000000000E+00 0.  1.
<mgrwt>
<rscale>  1 0.91609926E+02</rscale>
<asrwt>0</asrwt>
<pdfrwt beam="1">  1       21 0.10194060E-02 0.91609926E+02</pdfrwt>
<pdfrwt beam="2">  1       -1 0.15110281E+00 0.91609926E+02</pdfrwt>
<totfact> 0.12304305E+05</totfact>
</mgrwt>
</event>
<event>
 6    2  0.8544106E+000  0.8845346E+02  0.7546771E-02  0.1306641E+00
          2   -1    0    0  502    0 -0.00000000000E+00  0.00000000000E+00  0.88358826906E+03  0.88358826906E+03  0.00000000000E+00 0. -1.
         21   -1    0    0  501  502  0.00000000000E+00 -0.00000000000E+00 -0.85989695147E+01  0.85989695147E+01  0.00000000000E+00 0.  1.
         24    2    1    2    0    0  0.19034803139E+02  0.25010538098E+02  0.22984465941E+03  0.24627744810E+03  0.82681093564E+02 0.  0.
        -13    1    3    3    0    0  0.51878870275E+02  0.17009664507E+02  0.14605104766E+03  0.15592194967E+03  0.00000000000E+00 0.  1.
         14    1    3    3    0    0 -0.32844067136E+02  0.80008735916E+01  0.83793611753E+02  0.90355498421E+02  0.00000000000E+00 0. -1.
          1    1    1    2  501    0 -0.19034803139E+02 -0.25010538098E+02  0.64514464014E+03  0.64590979048E+03  0.00000000000E+00 0. -1.
<mgrwt>
<rscale>  1 0.88453457E+02</rscale>
<asrwt>0</asrwt>
<pdfrwt beam="1">  1       21 0.13229191E-02 0.88453457E+02</pdfrwt>
<pdfrwt beam="2">  1        2 0.13593659E+00 0.88453457E+02</pdfrwt>
<totfact> 0.90076185E+05</totfact>
</mgrwt>
</event>
<event>
 6    2  0.8544106E+000  0.8711995E+02  0.7546771E-02  0.1309980E+00
          2   -1    0    0  502    0 -0.00000000000E+00  0.00000000000E+00  0.78013045417E+03  0.78013045417E+03  0.00000000000E+00 0. -1.
         21   -1    0    0  501  502  0.00000000000E+00 -0.00000000000E+00 -0.38993779092E+01  0.38993779092E+01  0.00000000000E+00 0.  1.
         24    2    1    2    0    0 -0.16248130310E+02  0.15722991886E+02  0.64643855841E+03  0.65228268068E+03  0.84134841178E+02 0.  0.
        -11    1    3    3    0    0 -0.93137502524E+00  0.13208706962E+02  0.12678362662E+02  0.18332437885E+02  0.00000000000E+00 0.  1.
         12    1    3    3    0    0 -0.15316755285E+02  0.25142849248E+01  0.63376019575E+03  0.63395024279E+03  0.00000000000E+00 0. -1.
          1    1    1    2  501    0  0.16248130310E+02 -0.15722991886E+02  0.12979251785E+03  0.13174715140E+03  0.00000000000E+00 0. -1.
<mgrwt>
<rscale>  1 0.87119950E+02</rscale>
<asrwt>0</asrwt>
<pdfrwt beam="1">  1       21 0.59990492E-03 0.87119950E+02</pdfrwt>
<pdfrwt beam="2">  1        2 0.12001995E+00 0.87119950E+02</pdfrwt>
<totfact> 0.35936857E+06</totfact>
</mgrwt>
</event>
<event>
 6    2  0.8544106E+000  0.8404611E+02  0.7546771E-02  0.1317946E+00
         -1   -1    0    0    0  501 -0.00000000000E+00  0.00000000000E+00  0.31779129329E+03  0.31779129329E+03  0.00000000000E+00 0.  1.
         21   -1    0    0  501  502  0.00000000000E+00 -0.00000000000E+00 -0.15221157493E+02  0.15221157493E+02  0.00000000000E+00 0.  1.
         24    2    1    2    0    0 -0.16546793528E+02  0.14652640441E+02  0.29904509495E+03  0.31063116037E+03  0.81087932088E+02 0.  0.
        -11    1    3    3    0    0 -0.15896931393E+02  0.41277515674E+02  0.94271530879E+02  0.10413293073E+03  0.00000000000E+00 0.  1.
         12    1    3    3    0    0 -0.64986213537E+00 -0.26624875234E+02  0.20477356407E+03  0.20649822964E+03  0.00000000000E+00 0. -1.
         -2    1    1    2    0  502  0.16546793528E+02 -0.14652640441E+02  0.35250408541E+01  0.22381290422E+02  0.00000000000E+00 0.  1.
<mgrwt>
<rscale>  1 0.84046112E+02</rscale>
<asrwt>0</asrwt>
<pdfrwt beam="1">  1       21 0.23417168E-02 0.84046112E+02</pdfrwt>
<pdfrwt beam="2">  1       -1 0.48890963E-01 0.84046112E+02</pdfrwt>
<totfact> 0.35205985E+05</totfact>
</mgrwt>
</event>
<event>
 6    2  0.8544106E+000  0.9048501E+02  0.7546771E-02  0.1301681E+00
         21   -1    0    0  501  502  0.00000000000E+00  0.00000000000E+00  0.49949864012E+03  0.49949864012E+03  0.00000000000E+00 0. -1.
          4   -1    0    0  502    0 -0.00000000000E+00 -0.00000000000E+00 -0.98647133477E+01  0.98647133477E+01  0.00000000000E+00 0. -1.
         24    2    1    2    0    0 -0.33691594114E+02  0.34005242686E+02  0.27686911998E+03  0.29128001377E+03  0.76785785009E+02 0.  0.
        -13    1    3    3    0    0  0.41031552893E+01  0.23455060753E+02  0.22491832784E+03  0.22617521959E+03  0.00000000000E+00 0.  1.
         14    1    3    3    0    0 -0.37794749404E+02  0.10550181933E+02  0.51950792140E+02  0.65104794181E+02  0.00000000000E+00 0. -1.
          3    1    1    2  501    0  0.33691594114E+02 -0.34005242686E+02  0.21276480679E+03  0.21808333970E+03  0.00000000000E+00 0. -1.
<mgrwt>
<rscale>  1 0.90485009E+02</rscale>
<asrwt>0</asrwt>
<pdfrwt beam="1">  1       21 0.76845925E-01 0.90485009E+02</pdfrwt>
<pdfrwt beam="2">  1        4 0.15176486E-02 0.90485009E+02</pdfrwt>
<totfact> 0.90727569E+04</totfact>
</mgrwt>
</event>
<event>
 6    2  0.8544106E+000  0.8970927E+02  0.7546771E-02  0.1303557E+00
         21   -1    0    0  501  502  0.00000000000E+00  0.00000000000E+00  0.97294221264E+01  0.97294221264E+01  0.00000000000E+00 0. -1.
          2   -1    0    0  502    0 -0.00000000000E+00 -0.00000000000E+00 -0.43341384272E+03  0.43341384272E+03  0.00000000000E+00 0. -1.
         24    2    1    2    0    0 -0.31694769714E+02 -0.19918167948E+02 -0.33669813570E+03  0.34844423844E+03  0.81525829533E+02 0.  0.
        -11    1    3    3    0    0 -0.42427352074E+02  0.20282425950E+02 -0.20522946191E+03  0.21054830573E+03  0.00000000000E+00 0.  1.
         12    1    3    3    0    0  0.10732582361E+02 -0.40200593898E+02 -0.13146867378E+03  0.13789593272E+03  0.00000000000E+00 0. -1.
          1    1    1    2  501    0  0.31694769714E+02  0.19918167948E+02 -0.86986284900E+02  0.94699026406E+02  0.00000000000E+00 0. -1.
<mgrwt>
<rscale>  1 0.89709268E+02</rscale>
<asrwt>0</asrwt>
<pdfrwt beam="1">  1       21 0.14968339E-02 0.89709268E+02</pdfrwt>
<pdfrwt beam="2">  1        2 0.66679063E-01 0.89709268E+02</pdfrwt>
<totfact> 0.16708486E+06</totfact>
</mgrwt>
</event>
<event>
 6    2  0.8544106E+000  0.8536399E+02  0.7546771E-02  0.1314483E+00
         21   -1    0    0  501  502  0.00000000000E+00  0.00000000000E+00  0.26474055687E+01  0.26474055687E+01  0.00000000000E+00 0.  1.
          2   -1    0    0  502    0 -0.00000000000E+00 -0.00000000000E+00 -0.12149772091E+04  0.12149772091E+04  0.00000000000E+00 0. -1.
         24    2    1    2    0    0  0.10766543811E+02 -0.23034672425E+02 -0.80818690054E+03  0.81268264273E+03  0.81489244631E+02 0.  0.
        -11    1    3    3    0    0 -0.13868022321E+02 -0.48113815895E+02 -0.45193118154E+03  0.45469666171E+03  0.00000000000E+00 0.  1.
         12    1    3    3    0    0  0.24634566132E+02  0.25079143470E+02 -0.35625571899E+03  0.35798598101E+03  0.00000000000E+00 0. -1.
          1    1    1    2  501    0 -0.10766543811E+02  0.23034672425E+02 -0.40414290297E+03  0.40494197192E+03  0.00000000000E+00 0. -1.
<mgrwt>
<rscale>  1 0.85363995E+02</rscale>
<asrwt>0</asrwt>
<pdfrwt beam="1">  1       21 0.40729411E-03 0.85363995E+02</pdfrwt>
<pdfrwt beam="2">  1        2 0.18691914E+00 0.85363995E+02</pdfrwt>
<totfact> 0.35848516E+06</totfact>
</mgrwt>
</event>
<event>
 6    2  0.8544106E+000  0.9556388E+02  0.7546771E-02  0.1289911E+00
         21   -1    0    0  501  502  0.00000000000E+00  0.00000000000E+00  0.71469621655E+02  0.71469621655E+02  0.00000000000E+00 0.  1.
          2   -1    0    0  502    0 -0.00000000000E+00 -0.00000000000E+00 -0.65832253840E+02  0.65832253840E+02  0.00000000000E+00 0. -1.
         24    2    1    2    0    0  0.28841677100E+02  0.81433518154E+01  0.28370296621E+02  0.99686153132E+02  0.90743037635E+02 0.  0.
        -11    1    3    3    0    0 -0.74889133661E+01 -0.94347340373E+01  0.51689210050E+02  0.53074216578E+02  0.00000000000E+00 0.  1.
         12    1    3    3    0    0  0.36330590466E+02  0.17578085853E+02 -0.23318913429E+02  0.46611936555E+02  0.00000000000E+00 0. -1.
          1    1    1    2  501    0 -0.28841677100E+02 -0.81433518154E+01 -0.22732928807E+02  0.37615722363E+02  0.00000000000E+00 0. -1.
<mgrwt>
<rscale>  1 0.95563881E+02</rscale>
<asrwt>0</asrwt>
<pdfrwt beam="1">  1       21 0.10995326E-01 0.95563881E+02</pdfrwt>
<pdfrwt beam="2">  1        2 0.10128039E-01 0.95563881E+02</pdfrwt>
<totfact> 0.49545923E+05</totfact>
</mgrwt>
</event>
<event>
 6    2  0.8544106E+000  0.1021814E+03  0.7546771E-02  0.1275774E+00
          2   -1    0    0  502    0 -0.00000000000E+00  0.00000000000E+00  0.82803080200E+02  0.82803080200E+02  0.00000000000E+00 0. -1.
         21   -1    0    0  501  502  0.00000000000E+00 -0.00000000000E+00 -0.92459143072E+02  0.92459143072E+02  0.00000000000E+00 0.  1.
         24    2    1    2    0    0  0.43355332826E+02  0.31310935125E+01 -0.51936407400E+02  0.11462299369E+03  0.92474599960E+02 0.  0.
        -11    1    3    3    0    0  0.38410726737E+02 -0.48924565417E+01 -0.77904914931E+02  0.86997102423E+02  0.00000000000E+00 0.  1.
         12    1    3    3    0    0  0.49446060883E+01  0.80235500542E+01  0.25968507532E+02  0.27625891266E+02  0.00000000000E+00 0. -1.
          1    1    1    2  501    0 -0.43355332826E+02 -0.31310935125E+01  0.42280344528E+02  0.60639229583E+02  0.00000000000E+00 0. -1.
<mgrwt>
<rscale>  1 0.10218141E+03</rscale>
<asrwt>0</asrwt>
<pdfrwt beam="1">  1       21 0.14224483E-01 0.10218141E+03</pdfrwt>
<pdfrwt beam="2">  1        2 0.12738936E-01 0.10218141E+03</pdfrwt>
<totfact> 0.24023437E+05</totfact>
</mgrwt>
</event>
<event>
 6    2  0.8544106E+000  0.8789520E+02  0.7546771E-02  0.1308030E+00
          4   -1    0    0  502    0 -0.00000000000E+00  0.00000000000E+00  0.23144698158E+03  0.23144698158E+03  0.00000000000E+00 0. -1.
         21   -1    0    0  501  502  0.00000000000E+00 -0.00000000000E+00 -0.18162275922E+02  0.18162275922E+02  0.00000000000E+00 0.  1.
         24    2    1    2    0    0  0.36361804037E+02  0.17911479599E+02  0.12918296860E+03  0.15624918001E+03  0.77990800619E+02 0.  0.
        -13    1    3    3    0    0  0.59830516749E+02  0.11915305837E+02  0.10814852181E+03  0.12416830521E+03  0.00000000000E+00 0.  1.
         14    1    3    3    0    0 -0.23468712712E+02  0.59961737622E+01  0.21034446790E+02  0.32080874799E+02  0.00000000000E+00 0. -1.
          3    1    1    2  501    0 -0.36361804037E+02 -0.17911479599E+02  0.84101737051E+02  0.93360077492E+02  0.00000000000E+00 0. -1.
<mgrwt>
<rscale>  1 0.87895204E+02</rscale>
<asrwt>0</asrwt>
<pdfrwt beam="1">  1       21 0.27941964E-02 0.87895204E+02</pdfrwt>
<pdfrwt beam="2">  1        4 0.35607226E-01 0.87895204E+02</pdfrwt>
<totfact> 0.20137636E+05</totfact>
</mgrwt>
</event>
<event>
 6    2  0.8544106E+000  0.8363555E+02  0.7546771E-02  0.1319040E+00
          2   -1    0    0  502    0 -0.00000000000E+00  0.00000000000E+00  0.10077793224E+04  0.10077793224E+04  0.00000000000E+00 0. -1.
         21   -1    0    0  501  502  0.00000000000E+00 -0.00000000000E+00 -0.35302200424E+01  0.35302200424E+01  0.00000000000E+00 0.  1.
         24    2    1    2    0    0 -0.18894064570E+02 -0.12416540701E+02  0.92847973419E+03  0.93223898337E+03  0.80521730990E+02 0.  0.
        -13    1    3    3    0    0 -0.54942910868E+01 -0.31105342942E+02  0.14406026395E+03  0.14748250487E+03  0.00000000000E+00 0.  1.
         14    1    3    3    0    0 -0.13399773484E+02  0.18688802241E+02  0.78441947024E+03  0.78475647850E+03  0.00000000000E+00 0. -1.
          1    1    1    2  501    0  0.18894064570E+02  0.12416540701E+02  0.75769368181E+02  0.79070559082E+02  0.00000000000E+00 0. -1.
<mgrwt>
<rscale>  1 0.83635551E+02</rscale>
<asrwt>0</asrwt>
<pdfrwt beam="1">  1       21 0.54311158E-03 0.83635551E+02</pdfrwt>
<pdfrwt beam="2">  1        2 0.15504274E+00 0.83635551E+02</pdfrwt>
<totfact> 0.30079821E+06</totfact>
</mgrwt>
</event>
<event>
 6    2  0.8544106E+000  0.8295451E+02  0.7546771E-02  0.1320870E+00
         21   -1    0    0  501  502  0.00000000000E+00  0.00000000000E+00  0.16605238008E+01  0.16605238008E+01  0.00000000000E+00 0.  1.
          2   -1    0    0  502    0 -0.00000000000E+00 -0.00000000000E+00 -0.20626008594E+04  0.20626008594E+04  0.00000000000E+00 0. -1.
         24    2    1    2    0    0 -0.25089114274E+02  0.20294156007E+02 -0.13061876494E+04  0.13088191724E+04  0.76420771830E+02 0.  0.
        -11    1    3    3    0    0 -0.52144577175E+02  0.79369521902E+01 -0.76665179156E+03  0.76846406659E+03  0.00000000000E+00 0.  1.
         12    1    3    3    0    0  0.27055462901E+02  0.12357203817E+02 -0.53953585780E+03  0.54035510584E+03  0.00000000000E+00 0. -1.
          1    1    1    2  501    0  0.25089114274E+02 -0.20294156007E+02 -0.75475268625E+03  0.75544221078E+03  0.00000000000E+00 0. -1.
<mgrwt>
<rscale>  1 0.82954510E+02</rscale>
<asrwt>0</asrwt>
<pdfrwt beam="1">  1       21 0.25546560E-03 0.82954510E+02</pdfrwt>
<pdfrwt beam="2">  1        2 0.31732271E+00 0.82954510E+02</pdfrwt>
<totfact> 0.26853660E+06</totfact>
</mgrwt>
</event>
<event>
 6    2  0.8544106E+000  0.9564686E+02  0.7546771E-02  0.1289726E+00
          2   -1    0    0  502    0 -0.00000000000E+00  0.00000000000E+00  0.91398799809E+02  0.91398799809E+02  0.00000000000E+00 0. -1.
         21   -1    0    0  501  502  0.00000000000E+00 -0.00000000000E+00 -0.65180599341E+02  0.65180599341E+02  0.00000000000E+00 0.  1.
         24    2    1    2    0    0  0.40608971487E+02 -0.33026762870E+02 -0.47432122240E+01  0.95764395188E+02  0.80052893093E+02 0.  0.
        -11    1    3    3    0    0  0.29406055339E+02 -0.50112626647E+02 -0.28260598583E+02  0.64611553706E+02  0.00000000000E+00 0.  1.
         12    1    3    3    0    0  0.11202916149E+02  0.17085863776E+02  0.23517386359E+02  0.31152841482E+02  0.00000000000E+00 0. -1.
          1    1    1    2  501    0 -0.40608971487E+02  0.33026762870E+02  0.30961412693E+02  0.60815003962E+02  0.00000000000E+00 0. -1.
<mgrwt>
<rscale>  1 0.95646857E+02</rscale>
<asrwt>0</asrwt>
<pdfrwt beam="1">  1       21 0.10027785E-01 0.95646857E+02</pdfrwt>
<pdfrwt beam="2">  1        2 0.14061354E-01 0.95646857E+02</pdfrwt>
<totfact> 0.39365943E+05</totfact>
</mgrwt>
</event>
<event>
 6    2  0.8544106E+000  0.8653770E+02  0.7546771E-02  0.1311460E+00
         -1   -1    0    0    0  501 -0.00000000000E+00  0.00000000000E+00  0.67259591080E+03  0.67259591080E+03  0.00000000000E+00 0.  1.
         21   -1    0    0  501  502  0.00000000000E+00 -0.00000000000E+00 -0.12726699429E+02  0.12726699429E+02  0.00000000000E+00 0.  1.
         24    2    1    2    0    0  0.20425010284E+02 -0.21192734838E+02  0.13976897535E+03  0.16439020717E+03  0.81378502601E+02 0.  0.
        -11    1    3    3    0    0 -0.58624128885E+01 -0.56724866478E+01 -0.92172503015E+01  0.12308643011E+02  0.00000000000E+00 0.  1.
         12    1    3    3    0    0  0.26287423172E+02 -0.15520248191E+02  0.14898622565E+03  0.15208156415E+03  0.00000000000E+00 0. -1.
         -2    1    1    2    0  502 -0.20425010284E+02  0.21192734838E+02  0.52010023602E+03  0.52093240306E+03  0.00000000000E+00 0.  1.
<mgrwt>
<rscale>  1 0.86537701E+02</rscale>
<asrwt>0</asrwt>
<pdfrwt beam="1">  1       21 0.19579543E-02 0.86537701E+02</pdfrwt>
<pdfrwt beam="2">  1       -1 0.10347627E+00 0.86537701E+02</pdfrwt>
<totfact> 0.10728275E+05</totfact>
</mgrwt>
</event>
<event>
 6    2  0.8544106E+000  0.1092081E+03  0.7546771E-02  0.1262043E+00
         21   -1    0    0  501  502  0.00000000000E+00  0.00000000000E+00  0.20352833368E+02  0.20352833368E+02  0.00000000000E+00 0. -1.
          4   -1    0    0  502    0 -0.00000000000E+00 -0.00000000000E+00 -0.41457804494E+03  0.41457804494E+03  0.00000000000E+00 0. -1.
         24    2    1    2    0    0  0.76834342657E+01  0.73904451056E+02 -0.24459329707E+03  0.26786618160E+03  0.80034412762E+02 0.  0.
        -11    1    3    3    0    0  0.29715664180E+02  0.42380312703E+02 -0.59694668471E+02  0.79009904735E+02  0.00000000000E+00 0.  1.
         12    1    3    3    0    0 -0.22032229914E+02  0.31524138353E+02 -0.18489862860E+03  0.18885627687E+03  0.00000000000E+00 0. -1.
          3    1    1    2  501    0 -0.76834342657E+01 -0.73904451056E+02 -0.14963191450E+03  0.16706469671E+03  0.00000000000E+00 0. -1.
<mgrwt>
<rscale>  1 0.10920811E+03</rscale>
<asrwt>0</asrwt>
<pdfrwt beam="1">  1       21 0.31312051E-02 0.10920811E+03</pdfrwt>
<pdfrwt beam="2">  1        4 0.63781239E-01 0.10920811E+03</pdfrwt>
<totfact> 0.53782500E+04</totfact>
</mgrwt>
</event>
<event>
 6    2  0.8544106E+000  0.9088039E+02  0.7546771E-02  0.1300734E+00
          4   -1    0    0  502    0 -0.00000000000E+00  0.00000000000E+00  0.19262233761E+03  0.19262233761E+03  0.00000000000E+00 0. -1.
         21   -1    0    0  501  502  0.00000000000E+00 -0.00000000000E+00 -0.33013743432E+02  0.33013743432E+02  0.00000000000E+00 0.  1.
         24    2    1    2    0    0  0.20174555559E+02  0.35404057167E+02  0.16098296430E+03  0.18486416854E+03  0.81232912410E+02 0.  0.
        -13    1    3    3    0    0  0.34865145974E+02  0.44793804246E+02  0.60813180321E+02  0.83188377814E+02  0.00000000000E+00 0.  1.
         14    1    3    3    0    0 -0.14690590415E+02 -0.93897470791E+01  0.10016978398E+03  0.10167579072E+03  0.00000000000E+00 0. -1.
          3    1    1    2  501    0 -0.20174555559E+02 -0.35404057167E+02 -0.13743701225E+01  0.40771912503E+02  0.00000000000E+00 0. -1.
<mgrwt>
<rscale>  1 0.90880394E+02</rscale>
<asrwt>0</asrwt>
<pdfrwt beam="1">  1       21 0.50790376E-02 0.90880394E+02</pdfrwt>
<pdfrwt beam="2">  1        4 0.29634205E-01 0.90880394E+02</pdfrwt>
<totfact> 0.10753350E+05</totfact>
</mgrwt>
</event>
<event>
 6    2  0.8544106E+000  0.9060026E+02  0.7546771E-02  0.1301405E+00
         21   -1    0    0  501  502  0.00000000000E+00  0.00000000000E+00  0.41332353751E+01  0.41332353751E+01  0.00000000000E+00 0. -1.
          2   -1    0    0  502    0 -0.00000000000E+00 -0.00000000000E+00 -0.33759687491E+04  0.33759687491E+04  0.00000000000E+00 0. -1.
         24    2    1    2    0    0 -0.36611068835E+02  0.17040962026E+02 -0.32589783611E+04  0.32602374708E+04  0.81102669024E+02 0.  0.
        -11    1    3    3    0    0 -0.23812798555E+02 -0.38696920952E+01 -0.25046162329E+03  0.25162084300E+03  0.00000000000E+00 0.  1.
         12    1    3    3    0    0 -0.12798270280E+02  0.20910654121E+02 -0.30085167378E+04  0.30086166278E+04  0.00000000000E+00 0. -1.
          1    1    1    2  501    0  0.36611068835E+02 -0.17040962026E+02 -0.11285715262E+03  0.11986451370E+03  0.00000000000E+00 0. -1.
<mgrwt>
<rscale>  1 0.90600263E+02</rscale>
<asrwt>0</asrwt>
<pdfrwt beam="1">  1       21 0.63588399E-03 0.90600263E+02</pdfrwt>
<pdfrwt beam="2">  1        2 0.51937848E+00 0.90600263E+02</pdfrwt>
<totfact> 0.12830811E+05</totfact>
</mgrwt>
</event>
<event>
 6    2  0.8544106E+000  0.8428790E+02  0.7546771E-02  0.1317305E+00
         21   -1    0    0  501  502  0.00000000000E+00  0.00000000000E+00  0.68366200271E+02  0.68366200271E+02  0.00000000000E+00 0. -1.
         -1   -1    0    0    0  501 -0.00000000000E+00 -0.00000000000E+00 -0.58655882446E+02  0.58655882446E+02  0.00000000000E+00 0.  1.
         24    2    1    2    0    0  0.27077407957E+02  0.32972311353E+01  0.33623433917E+02  0.90746817369E+02  0.79752064546E+02 0.  0.
        -11    1    3    3    0    0 -0.23016454115E+02 -0.17636905205E+02  0.51824159620E+01  0.29456323947E+02  0.00000000000E+00 0.  1.
         12    1    3    3    0    0  0.50093862072E+02  0.20934136340E+02  0.28441017955E+02  0.61290493422E+02  0.00000000000E+00 0. -1.
         -2    1    1    2    0  502 -0.27077407957E+02 -0.32972311353E+01 -0.23913116092E+02  0.36275265348E+02  0.00000000000E+00 0.  1.
<mgrwt>
<rscale>  1 0.84287897E+02</rscale>
<asrwt>0</asrwt>
<pdfrwt beam="1">  1       21 0.10517877E-01 0.84287897E+02</pdfrwt>
<pdfrwt beam="2">  1       -1 0.90239819E-02 0.84287897E+02</pdfrwt>
<totfact> 0.43916520E+05</totfact>
</mgrwt>
</event>
<event>
 6    2  0.8544106E+000  0.1135987E+03  0.7546771E-02  0.1254047E+00
         21   -1    0    0  501  502  0.00000000000E+00  0.00000000000E+00  0.14914821648E+02  0.14914821648E+02  0.00000000000E+00 0. -1.
          2   -1    0    0  502    0 -0.00000000000E+00 -0.00000000000E+00 -0.68895395401E+03  0.68895395401E+03  0.00000000000E+00 0. -1.
         24    2    1    2    0    0 -0.70146906068E+01 -0.81398534790E+02 -0.48138059673E+03  0.49460282357E+03  0.78928745253E+02 0.  0.
        -13    1    3    3    0    0 -0.33297430547E+02 -0.61517032158E+01 -0.13813725450E+03  0.14222680273E+03  0.00000000000E+00 0.  1.
         14    1    3    3    0    0  0.26282739940E+02 -0.75246831574E+02 -0.34324334223E+03  0.35237602084E+03  0.00000000000E+00 0. -1.
          1    1    1    2  501    0  0.70146906068E+01  0.81398534790E+02 -0.19265853563E+03  0.20926595208E+03  0.00000000000E+00 0. -1.
<mgrwt>
<rscale>  1 0.11359874E+03</rscale>
<asrwt>0</asrwt>
<pdfrwt beam="1">  1       21 0.22945884E-02 0.11359874E+03</pdfrwt>
<pdfrwt beam="2">  1        2 0.10599290E+00 0.11359874E+03</pdfrwt>
<totfact> 0.51554544E+05</totfact>
</mgrwt>
</event>
<event>
 6    2  0.8544106E+000  0.9665127E+02  0.7546771E-02  0.1287500E+00
          2   -1    0    0  502    0 -0.00000000000E+00  0.00000000000E+00  0.25376744503E+04  0.25376744503E+04  0.00000000000E+00 0. -1.
         21   -1    0    0  501  502  0.00000000000E+00 -0.00000000000E+00 -0.17162889674E+01  0.17162889674E+01  0.00000000000E+00 0.  1.
         24    2    1    2    0    0  0.10293036441E+02 -0.29170495423E+02  0.21603631432E+04  0.21625240758E+04  0.91567480179E+02 0.  0.
        -11    1    3    3    0    0 -0.13638173067E+02 -0.25894967163E+02  0.21193709982E+03  0.21394831938E+03  0.00000000000E+00 0.  1.
         12    1    3    3    0    0  0.23931209508E+02 -0.32755282604E+01  0.19484260434E+04  0.19485757564E+04  0.00000000000E+00 0. -1.
          1    1    1    2  501    0 -0.10293036441E+02  0.29170495423E+02  0.37559501811E+03  0.37686666347E+03  0.00000000000E+00 0. -1.
<mgrwt>
<rscale>  1 0.96651269E+02</rscale>
<asrwt>0</asrwt>
<pdfrwt beam="1">  1       21 0.26404649E-03 0.96651269E+02</pdfrwt>
<pdfrwt beam="2">  1        2 0.39040845E+00 0.96651269E+02</pdfrwt>
<totfact> 0.14690628E+06</totfact>
</mgrwt>
</event>
<event>
 6    2  0.8544106E+000  0.1402816E+03  0.7546771E-02  0.1212951E+00
          2   -1    0    0  502    0 -0.00000000000E+00  0.00000000000E+00  0.18340044497E+03  0.18340044497E+03  0.00000000000E+00 0. -1.
         21   -1    0    0  501  502  0.00000000000E+00 -0.00000000000E+00 -0.15449658600E+03  0.15449658600E+03  0.00000000000E+00 0. -1.
         24    2    1    2    0    0 -0.81933645327E+02  0.79145831110E+02  0.12573737773E+03  0.18838477338E+03  0.81864216016E+02 0.  0.
        -13    1    3    3    0    0 -0.23926023402E+01  0.48353353941E+02  0.74612916092E+02  0.88943007769E+02  0.00000000000E+00 0.  1.
         14    1    3    3    0    0 -0.79541042987E+02  0.30792477169E+02  0.51124461633E+02  0.99441765607E+02  0.00000000000E+00 0. -1.
          1    1    1    2  501    0  0.81933645327E+02 -0.79145831110E+02 -0.96833518750E+02  0.14951225760E+03  0.00000000000E+00 0. -1.
<mgrwt>
<rscale>  1 0.14028163E+03</rscale>
<asrwt>0</asrwt>
<pdfrwt beam="1">  1       21 0.23768706E-01 0.14028163E+03</pdfrwt>
<pdfrwt beam="2">  1        2 0.28215453E-01 0.14028163E+03</pdfrwt>
<totfact> 0.38497314E+04</totfact>
</mgrwt>
</event>
<event>
 6    2  0.8544106E+000  0.8943372E+02  0.7546771E-02  0.1304229E+00
         21   -1    0    0  501  502  0.00000000000E+00  0.00000000000E+00  0.87486080144E+02  0.87486080144E+02  0.00000000000E+00 0.  1.
         -3   -1    0    0    0  501 -0.00000000000E+00 -0.00000000000E+00 -0.49287224205E+02  0.49287224205E+02  0.00000000000E+00 0.  1.
         24    2    1    2    0    0 -0.34676921709E+02 -0.17287670380E+02  0.12559802829E+02  0.90311346892E+02  0.80604207607E+02 0.  0.
        -11    1    3    3    0    0 -0.19998188893E+02  0.18365714378E+00 -0.33439187223E+02  0.38963322896E+02  0.00000000000E+00 0.  1.
         12    1    3    3    0    0 -0.14678732815E+02 -0.17471327523E+02  0.45998990052E+02  0.51348023996E+02  0.00000000000E+00 0. -1.
         -4    1    1    2    0  502  0.34676921709E+02  0.17287670380E+02  0.25639053110E+02  0.46461957457E+02  0.00000000000E+00 0.  1.
<mgrwt>
<rscale>  1 0.89433723E+02</rscale>
<asrwt>0</asrwt>
<pdfrwt beam="1">  1       21 0.13459397E-01 0.89433723E+02</pdfrwt>
<pdfrwt beam="2">  1       -3 0.75826499E-02 0.89433723E+02</pdfrwt>
<totfact> 0.24730280E+05</totfact>
</mgrwt>
</event>
<event>
 6    2  0.8544106E+000  0.9130544E+02  0.7546771E-02  0.1299721E+00
          4   -1    0    0  502    0 -0.00000000000E+00  0.00000000000E+00  0.67734975614E+03  0.67734975614E+03  0.00000000000E+00 0. -1.
         21   -1    0    0  501  502  0.00000000000E+00 -0.00000000000E+00 -0.62760969923E+01  0.62760969923E+01  0.00000000000E+00 0.  1.
         24    2    1    2    0    0  0.29298953777E+02  0.23803636494E+01  0.59684534300E+03  0.60378890842E+03  0.86444130175E+02 0.  0.
        -11    1    3    3    0    0 -0.48353721457E+01  0.37877678136E+01  0.17858720059E+00  0.61449086393E+01  0.00000000000E+00 0.  1.
         12    1    3    3    0    0  0.34134325922E+02 -0.14074041642E+01  0.59666675580E+03  0.59764399978E+03  0.00000000000E+00 0. -1.
          3    1    1    2  501    0 -0.29298953777E+02 -0.23803636494E+01  0.74228316145E+02  0.79836944714E+02  0.00000000000E+00 0. -1.
<mgrwt>
<rscale>  1 0.91305435E+02</rscale>
<asrwt>0</asrwt>
<pdfrwt beam="1">  1       21 0.96555392E-03 0.91305435E+02</pdfrwt>
<pdfrwt beam="2">  1        4 0.10420760E+00 0.91305435E+02</pdfrwt>
<totfact> 0.11583321E+05</totfact>
</mgrwt>
</event>
<event>
 6    2  0.8544106E+000  0.8257016E+02  0.7546771E-02  0.1321912E+00
          2   -1    0    0  502    0 -0.00000000000E+00  0.00000000000E+00  0.68511328822E+03  0.68511328822E+03  0.00000000000E+00 0. -1.
         21   -1    0    0  501  502  0.00000000000E+00 -0.00000000000E+00 -0.48266775537E+01  0.48266775537E+01  0.00000000000E+00 0. -1.
         24    2    1    2    0    0 -0.24811808283E+02  0.30824090833E+01  0.60504051898E+03  0.61064872168E+03  0.78693739296E+02 0.  0.
        -11    1    3    3    0    0 -0.28249252231E+01 -0.25602629109E+02  0.73534991860E+02  0.77915786897E+02  0.00000000000E+00 0.  1.
         12    1    3    3    0    0 -0.21986883060E+02  0.28685038193E+02  0.53150552712E+03  0.53273293478E+03  0.00000000000E+00 0. -1.
          1    1    1    2  501    0  0.24811808283E+02 -0.30824090833E+01  0.75246091683E+02  0.79291244091E+02  0.00000000000E+00 0. -1.
<mgrwt>
<rscale>  1 0.82570162E+02</rscale>
<asrwt>0</asrwt>
<pdfrwt beam="1">  1       21 0.74256632E-03 0.82570162E+02</pdfrwt>
<pdfrwt beam="2">  1        2 0.10540197E+00 0.82570162E+02</pdfrwt>
<totfact> 0.29950757E+06</totfact>
</mgrwt>
</event>
<event>
 6    2  0.8544106E+000  0.8357846E+02  0.7546771E-02  0.1319192E+00
         21   -1    0    0  501  502  0.00000000000E+00  0.00000000000E+00  0.13020066655E+03  0.13020066655E+03  0.00000000000E+00 0. -1.
         -1   -1    0    0    0  501 -0.00000000000E+00 -0.00000000000E+00 -0.21527893922E+02  0.21527893922E+02  0.00000000000E+00 0.  1.
         24    2    1    2    0    0 -0.19619572234E+02  0.91447011608E+01  0.79053432428E+02  0.11504261646E+03  0.80726731942E+02 0.  0.
        -13    1    3    3    0    0 -0.19147333335E+02  0.23072229280E+02 -0.45147571054E+01  0.30320474428E+02  0.00000000000E+00 0.  1.
         14    1    3    3    0    0 -0.47223889910E+00 -0.13927528120E+02  0.83568189534E+02  0.84722142035E+02  0.00000000000E+00 0. -1.
         -2    1    1    2    0  502  0.19619572234E+02 -0.91447011608E+01  0.29619340201E+02  0.36685944010E+02  0.00000000000E+00 0.  1.
<mgrwt>
<rscale>  1 0.83578457E+02</rscale>
<asrwt>0</asrwt>
<pdfrwt beam="1">  1       21 0.20030871E-01 0.83578457E+02</pdfrwt>
<pdfrwt beam="2">  1       -1 0.33119838E-02 0.83578457E+02</pdfrwt>
<totfact> 0.60681458E+05</totfact>
</mgrwt>
</event>
<event>
 6    2  0.8544106E+000  0.9474570E+02  0.7546771E-02  0.1291750E+00
         -1   -1    0    0    0  501 -0.00000000000E+00  0.00000000000E+00  0.11854842623E+02  0.11854842623E+02  0.00000000000E+00 0.  1.
         21   -1    0    0  501  502  0.00000000000E+00 -0.00000000000E+00 -0.46565972782E+03  0.46565972782E+03  0.00000000000E+00 0.  1.
         24    2    1    2    0    0  0.33841319814E+02 -0.35572085522E+02 -0.35138772400E+03  0.36393691814E+03  0.81031719784E+02 0.  0.
        -13    1    3    3    0    0  0.60351770061E+02 -0.30983300576E+02 -0.25093899057E+03  0.25994745249E+03  0.00000000000E+00 0.  1.
         14    1    3    3    0    0 -0.26510450248E+02 -0.45887849452E+01 -0.10044873343E+03  0.10398946565E+03  0.00000000000E+00 0. -1.
         -2    1    1    2    0  502 -0.33841319814E+02  0.35572085522E+02 -0.10241716119E+03  0.11357765230E+03  0.00000000000E+00 0.  1.
<mgrwt>
<rscale>  1 0.94745701E+02</rscale>
<asrwt>0</asrwt>
<pdfrwt beam="1">  1       21 0.71639942E-01 0.94745701E+02</pdfrwt>
<pdfrwt beam="2">  1       -1 0.18238223E-02 0.94745701E+02</pdfrwt>
<totfact> 0.11645097E+05</totfact>
</mgrwt>
</event>
<event>
 6    2  0.8544106E+000  0.8291959E+02  0.7546771E-02  0.1320964E+00
         21   -1    0    0  501  502  0.00000000000E+00  0.00000000000E+00  0.93548216676E+02  0.93548216676E+02  0.00000000000E+00 0. -1.
          2   -1    0    0  502    0 -0.00000000000E+00 -0.00000000000E+00 -0.56114372540E+03  0.56114372540E+03  0.00000000000E+00 0. -1.
         24    2    1    2    0    0  0.13542795300E+02 -0.19346557126E+02 -0.55653105864E+03  0.56267439693E+03  0.79485603420E+02 0.  0.
        -13    1    3    3    0    0  0.44515794424E+02  0.18154251308E+01 -0.26150475424E+03  0.26527285615E+03  0.00000000000E+00 0.  1.
         14    1    3    3    0    0 -0.30972999124E+02 -0.21161982257E+02 -0.29502630440E+03  0.29740154077E+03  0.00000000000E+00 0. -1.
          1    1    1    2  501    0 -0.13542795300E+02  0.19346557126E+02  0.88935549913E+02  0.92017545151E+02  0.00000000000E+00 0. -1.
<mgrwt>
<rscale>  1 0.82919586E+02</rscale>
<asrwt>0</asrwt>
<pdfrwt beam="1">  1       21 0.14392034E-01 0.82919586E+02</pdfrwt>
<pdfrwt beam="2">  1        2 0.86329803E-01 0.82919586E+02</pdfrwt>
<totfact> 0.29169275E+04</totfact>
</mgrwt>
</event>
<event>
 6    2  0.8544106E+000  0.8894619E+02  0.7546771E-02  0.1305424E+00
         21   -1    0    0  501  502  0.00000000000E+00  0.00000000000E+00  0.15366944302E+02  0.15366944302E+02  0.00000000000E+00 0.  1.
          2   -1    0    0  502    0 -0.00000000000E+00 -0.00000000000E+00 -0.26854866686E+03  0.26854866686E+03  0.00000000000E+00 0. -1.
         24    2    1    2    0    0 -0.30462218052E+02  0.22811099872E+02 -0.15644613531E+03  0.17996337768E+03  0.80393600778E+02 0.  0.
        -11    1    3    3    0    0 -0.82569866052E+00  0.48127846997E+02 -0.10418993123E+03  0.11477156967E+03  0.00000000000E+00 0.  1.
         12    1    3    3    0    0 -0.29636519391E+02 -0.25316747125E+02 -0.52256204082E+02  0.65191808010E+02  0.00000000000E+00 0. -1.
          1    1    1    2  501    0  0.30462218052E+02 -0.22811099872E+02 -0.96735587246E+02  0.10395223348E+03  0.00000000000E+00 0. -1.
<mgrwt>
<rscale>  1 0.88946186E+02</rscale>
<asrwt>0</asrwt>
<pdfrwt beam="1">  1       21 0.23641455E-02 0.88946186E+02</pdfrwt>
<pdfrwt beam="2">  1        2 0.41315176E-01 0.88946186E+02</pdfrwt>
<totfact> 0.13290227E+06</totfact>
</mgrwt>
</event>
<event>
 6    2  0.8544106E+000  0.9038005E+02  0.7546771E-02  0.1301934E+00
         21   -1    0    0  501  502  0.00000000000E+00  0.00000000000E+00  0.10248785809E+02  0.10248785809E+02  0.00000000000E+00 0. -1.
          2   -1    0    0  502    0 -0.00000000000E+00 -0.00000000000E+00 -0.58465117390E+03  0.58465117390E+03  0.00000000000E+00 0. -1.
         24    2    1    2    0    0  0.41839981276E+02 -0.41173095375E+01 -0.51029162060E+03  0.51823362564E+03  0.80006352380E+02 0.  0.
        -11    1    3    3    0    0 -0.11008270663E+02  0.24949160931E+02 -0.10522084466E+03  0.10869714258E+03  0.00000000000E+00 0.  1.
         12    1    3    3    0    0  0.52848251939E+02 -0.29066470468E+02 -0.40507077594E+03  0.40953648306E+03  0.00000000000E+00 0. -1.
          1    1    1    2  501    0 -0.41839981276E+02  0.41173095375E+01 -0.64110767493E+02  0.76666334068E+02  0.00000000000E+00 0. -1.
<mgrwt>
<rscale>  1 0.90380046E+02</rscale>
<asrwt>0</asrwt>
<pdfrwt beam="1">  1       21 0.15767360E-02 0.90380046E+02</pdfrwt>
<pdfrwt beam="2">  1        2 0.89946351E-01 0.90380046E+02</pdfrwt>
<totfact> 0.11135637E+06</totfact>
</mgrwt>
</event>
<event>
 6    2  0.8544106E+000  0.8941211E+02  0.7546771E-02  0.1304282E+00
         21   -1    0    0  501  502  0.00000000000E+00  0.00000000000E+00  0.84811294938E+02  0.84811294938E+02  0.00000000000E+00 0. -1.
         -1   -1    0    0    0  501 -0.00000000000E+00 -0.00000000000E+00 -0.58562393584E+02  0.58562393584E+02  0.00000000000E+00 0.  1.
         24    2    1    2    0    0  0.27610997151E+02  0.22147904509E+02 -0.13190338705E+02  0.90379816289E+02  0.82107425483E+02 0.  0.
        -11    1    3    3    0    0 -0.14857087818E+02 -0.23010460306E+02 -0.51520010725E+01  0.27870368798E+02  0.00000000000E+00 0.  1.
         12    1    3    3    0    0  0.42468084969E+02  0.45158364814E+02 -0.80383376327E+01  0.62509447490E+02  0.00000000000E+00 0. -1.
         -2    1    1    2    0  502 -0.27610997151E+02 -0.22147904509E+02  0.39439240060E+02  0.52993872234E+02  0.00000000000E+00 0.  1.
<mgrwt>
<rscale>  1 0.89412114E+02</rscale>
<asrwt>0</asrwt>
<pdfrwt beam="1">  1       21 0.13047892E-01 0.89412114E+02</pdfrwt>
<pdfrwt beam="2">  1       -1 0.90095990E-02 0.89412114E+02</pdfrwt>
<totfact> 0.30373859E+05</totfact>
</mgrwt>
</event>
<event>
 6    2  0.8544106E+000  0.8301948E+02  0.7546771E-02  0.1320695E+00
         21   -1    0    0  501  502  0.00000000000E+00  0.00000000000E+00  0.40645806315E+03  0.40645806315E+03  0.00000000000E+00 0. -1.
          4   -1    0    0  502    0 -0.00000000000E+00 -0.00000000000E+00 -0.11561747394E+02  0.11561747394E+02  0.00000000000E+00 0. -1.
         24    2    1    2    0    0  0.10193178286E+02  0.18212093814E+02  0.14369712100E+03  0.16595510319E+03  0.80353297679E+02 0.  0.
        -13    1    3    3    0    0 -0.92431442966E+01  0.39303417991E+02  0.12586482147E+03  0.13218225171E+03  0.00000000000E+00 0.  1.
         14    1    3    3    0    0  0.19436322582E+02 -0.21091324177E+02  0.17832299526E+02  0.33772851485E+02  0.00000000000E+00 0. -1.
          3    1    1    2  501    0 -0.10193178286E+02 -0.18212093814E+02  0.25119919476E+03  0.25206470736E+03  0.00000000000E+00 0. -1.
<mgrwt>
<rscale>  1 0.83019478E+02</rscale>
<asrwt>0</asrwt>
<pdfrwt beam="1">  1       21 0.62531999E-01 0.83019478E+02</pdfrwt>
<pdfrwt beam="2">  1        4 0.17787307E-02 0.83019478E+02</pdfrwt>
<totfact> 0.10975481E+05</totfact>
</mgrwt>
</event>
<event>
 6    2  0.8544106E+000  0.8588028E+02  0.7546771E-02  0.1313146E+00
          2   -1    0    0  502    0 -0.00000000000E+00  0.00000000000E+00  0.98097433200E+03  0.98097433200E+03  0.00000000000E+00 0. -1.
         21   -1    0    0  501  502  0.00000000000E+00 -0.00000000000E+00 -0.43487896890E+01  0.43487896890E+01  0.00000000000E+00 0. -1.
         24    2    1    2    0    0 -0.25666080377E+02 -0.23772541593E+02  0.83648188500E+03  0.84087892451E+03  0.78431755860E+02 0.  0.
        -13    1    3    3    0    0  0.11289679168E+02  0.18954502350E+02  0.10920001135E+03  0.11140633956E+03  0.00000000000E+00 0.  1.
         14    1    3    3    0    0 -0.36955759546E+02 -0.42727043943E+02  0.72728187365E+03  0.72947258495E+03  0.00000000000E+00 0. -1.
          1    1    1    2  501    0  0.25666080377E+02  0.23772541593E+02  0.14014365731E+03  0.14444419718E+03  0.00000000000E+00 0. -1.
<mgrwt>
<rscale>  1 0.85880276E+02</rscale>
<asrwt>0</asrwt>
<pdfrwt beam="1">  1       21 0.66904535E-03 0.85880276E+02</pdfrwt>
<pdfrwt beam="2">  1        2 0.15091895E+00 0.85880276E+02</pdfrwt>
<totfact> 0.22694171E+06</totfact>
</mgrwt>
</event>
<event>
 6    2  0.8544106E+000  0.8312658E+02  0.7546771E-02  0.1320406E+00
         21   -1    0    0  501  502  0.00000000000E+00  0.00000000000E+00  0.70917927872E+01  0.70917927872E+01  0.00000000000E+00 0.  1.
          2   -1    0    0  502    0 -0.00000000000E+00 -0.00000000000E+00 -0.49253602149E+03  0.49253602149E+03  0.00000000000E+00 0. -1.
         24    2    1    2    0    0  0.13642490048E+02  0.20793950287E+02 -0.44037712637E+03  0.44815403827E+03  0.79319119321E+02 0.  0.
        -11    1    3    3    0    0  0.36906955568E+02  0.13148817816E+02 -0.10819153926E+03  0.11506704110E+03  0.00000000000E+00 0.  1.
         12    1    3    3    0    0 -0.23264465521E+02  0.76451324708E+01 -0.33218558710E+03  0.33308699717E+03  0.00000000000E+00 0. -1.
          1    1    1    2  501    0 -0.13642490048E+02 -0.20793950287E+02 -0.45067102340E+02  0.51473776009E+02  0.00000000000E+00 0. -1.
<mgrwt>
<rscale>  1 0.83126582E+02</rscale>
<asrwt>0</asrwt>
<pdfrwt beam="1">  1       21 0.10910446E-02 0.83126582E+02</pdfrwt>
<pdfrwt beam="2">  1        2 0.75774803E-01 0.83126582E+02</pdfrwt>
<totfact> 0.23762456E+06</totfact>
</mgrwt>
</event>
<event>
 6    2  0.8544106E+000  0.9313957E+02  0.7546771E-02  0.1295422E+00
          2   -1    0    0  502    0 -0.00000000000E+00  0.00000000000E+00  0.83782434933E+03  0.83782434933E+03  0.00000000000E+00 0. -1.
         21   -1    0    0  501  502  0.00000000000E+00 -0.00000000000E+00 -0.80576024277E+01  0.80576024277E+01  0.00000000000E+00 0. -1.
         24    2    1    2    0    0  0.30705875391E+02 -0.36853038110E+02  0.72121020757E+03  0.72719952074E+03  0.79837223483E+02 0.  0.
        -11    1    3    3    0    0 -0.19042995981E+02  0.11943534551E+02  0.13450183468E+03  0.13636725136E+03  0.00000000000E+00 0.  1.
         12    1    3    3    0    0  0.49748871372E+02 -0.48796572661E+02  0.58670837290E+03  0.59083226937E+03  0.00000000000E+00 0. -1.
          1    1    1    2  501    0 -0.30705875391E+02  0.36853038110E+02  0.10855653933E+03  0.11868243102E+03  0.00000000000E+00 0. -1.
<mgrwt>
<rscale>  1 0.93139570E+02</rscale>
<asrwt>0</asrwt>
<pdfrwt beam="1">  1       21 0.12396318E-02 0.93139570E+02</pdfrwt>
<pdfrwt beam="2">  1        2 0.12889599E+00 0.93139570E+02</pdfrwt>
<totfact> 0.10715092E+06</totfact>
</mgrwt>
</event>
<event>
 6    2  0.8544106E+000  0.8657558E+02  0.7546771E-02  0.1311363E+00
         21   -1    0    0  501  502  0.00000000000E+00  0.00000000000E+00  0.10609276256E+03  0.10609276256E+03  0.00000000000E+00 0. -1.
          2   -1    0    0  502    0 -0.00000000000E+00 -0.00000000000E+00 -0.58471768090E+02  0.58471768090E+02  0.00000000000E+00 0. -1.
         24    2    1    2    0    0 -0.24865793560E+02  0.15265349466E+02 -0.21785423824E+02  0.89274494894E+02  0.81510687420E+02 0.  0.
        -13    1    3    3    0    0  0.14966623083E+02 -0.22156464084E+02  0.68110680772E+01  0.27591653730E+02  0.00000000000E+00 0.  1.
         14    1    3    3    0    0 -0.39832416644E+02  0.37421813550E+02 -0.28596491901E+02  0.61682841164E+02  0.00000000000E+00 0. -1.
          1    1    1    2  501    0  0.24865793560E+02 -0.15265349466E+02  0.69406418289E+02  0.75290035751E+02  0.00000000000E+00 0. -1.
<mgrwt>
<rscale>  1 0.86575578E+02</rscale>
<asrwt>0</asrwt>
<pdfrwt beam="1">  1       21 0.16321963E-01 0.86575578E+02</pdfrwt>
<pdfrwt beam="2">  1        2 0.89956566E-02 0.86575578E+02</pdfrwt>
<totfact> 0.28204468E+05</totfact>
</mgrwt>
</event>
<event>
 6    2  0.8544106E+000  0.9840109E+02  0.7546771E-02  0.1283695E+00
         21   -1    0    0  501  502  0.00000000000E+00  0.00000000000E+00  0.74556034199E+02  0.74556034199E+02  0.00000000000E+00 0. -1.
          2   -1    0    0  502    0 -0.00000000000E+00 -0.00000000000E+00 -0.41347861456E+03  0.41347861456E+03  0.00000000000E+00 0. -1.
         24    2    1    2    0    0 -0.36043106274E+01  0.57246622456E+02 -0.39544586194E+03  0.40750485180E+03  0.79953784658E+02 0.  0.
        -13    1    3    3    0    0  0.27184943723E+02  0.51572427926E+01 -0.53346311893E+02  0.60095318545E+02  0.00000000000E+00 0.  1.
         14    1    3    3    0    0 -0.30789254351E+02  0.52089379663E+02 -0.34209955004E+03  0.34740953326E+03  0.00000000000E+00 0. -1.
          1    1    1    2  501    0  0.36043106274E+01 -0.57246622456E+02  0.56523281577E+02  0.80529796957E+02  0.00000000000E+00 0. -1.
<mgrwt>
<rscale>  1 0.98401090E+02</rscale>
<asrwt>0</asrwt>
<pdfrwt beam="1">  1       21 0.11470159E-01 0.98401090E+02</pdfrwt>
<pdfrwt beam="2">  1        2 0.63612095E-01 0.98401090E+02</pdfrwt>
<totfact> 0.60572406E+04</totfact>
</mgrwt>
</event>
<event>
 6    2  0.8544106E+000  0.1182143E+03  0.7546771E-02  0.1246072E+00
          2   -1    0    0  502    0 -0.00000000000E+00  0.00000000000E+00  0.20716471387E+04  0.20716471387E+04  0.00000000000E+00 0. -1.
         21   -1    0    0  501  502  0.00000000000E+00 -0.00000000000E+00 -0.65552084789E+01  0.65552084789E+01  0.00000000000E+00 0. -1.
         24    2    1    2    0    0  0.46525004045E+02 -0.72533339078E+02  0.16516764579E+04  0.16559014900E+04  0.80925654087E+02 0.  0.
        -11    1    3    3    0    0 -0.41289123215E+01  0.14321724728E+01  0.44490981234E+01  0.62364660717E+01  0.00000000000E+00 0.  1.
         12    1    3    3    0    0  0.50653916367E+02 -0.73965511551E+02  0.16472273598E+04  0.16496650239E+04  0.00000000000E+00 0. -1.
          1    1    1    2  501    0 -0.46525004045E+02  0.72533339078E+02  0.41341547231E+03  0.42230085723E+03  0.00000000000E+00 0. -1.
<mgrwt>
<rscale>  1 0.11821431E+03</rscale>
<asrwt>0</asrwt>
<pdfrwt beam="1">  1       21 0.10084953E-02 0.11821431E+03</pdfrwt>
<pdfrwt beam="2">  1        2 0.31871442E+00 0.11821431E+03</pdfrwt>
<totfact> 0.32678862E+05</totfact>
</mgrwt>
</event>
<event>
 6    2  0.8544106E+000  0.8280959E+02  0.7546771E-02  0.1321262E+00
         21   -1    0    0  501  502  0.00000000000E+00  0.00000000000E+00  0.38014340246E+01  0.38014340246E+01  0.00000000000E+00 0. -1.
          2   -1    0    0  502    0 -0.00000000000E+00 -0.00000000000E+00 -0.74490715163E+03  0.74490715163E+03  0.00000000000E+00 0. -1.
         24    2    1    2    0    0  0.20552969039E+02  0.55486893104E+01 -0.64362435686E+03  0.64892968918E+03  0.80026347307E+02 0.  0.
        -11    1    3    3    0    0 -0.24789234058E+02 -0.18972343671E+02 -0.23243881229E+03  0.23452560075E+03  0.00000000000E+00 0.  1.
         12    1    3    3    0    0  0.45342203097E+02  0.24521032981E+02 -0.41118554458E+03  0.41440408843E+03  0.00000000000E+00 0. -1.
          1    1    1    2  501    0 -0.20552969039E+02 -0.55486893104E+01 -0.97481360738E+02  0.99778896470E+02  0.00000000000E+00 0. -1.
<mgrwt>
<rscale>  1 0.82809593E+02</rscale>
<asrwt>0</asrwt>
<pdfrwt beam="1">  1       21 0.58483600E-03 0.82809593E+02</pdfrwt>
<pdfrwt beam="2">  1        2 0.11460110E+00 0.82809593E+02</pdfrwt>
<totfact> 0.39250589E+06</totfact>
</mgrwt>
</event>
<event>
 6    2  0.8544106E+000  0.8354067E+02  0.7546771E-02  0.1319294E+00
         21   -1    0    0  501  502  0.00000000000E+00  0.00000000000E+00  0.23744332027E+02  0.23744332027E+02  0.00000000000E+00 0. -1.
         -1   -1    0    0    0  501 -0.00000000000E+00 -0.00000000000E+00 -0.19598938958E+03  0.19598938958E+03  0.00000000000E+00 0.  1.
         24    2    1    2    0    0  0.25574062592E+02  0.31071481042E+01 -0.17490773441E+03  0.19383436071E+03  0.79469219138E+02 0.  0.
        -13    1    3    3    0    0  0.42336053149E+02  0.89536662383E+01 -0.16999311063E+03  0.17541427307E+03  0.00000000000E+00 0.  1.
         14    1    3    3    0    0 -0.16761990557E+02 -0.58465181341E+01 -0.49146237736E+01  0.18420087638E+02  0.00000000000E+00 0. -1.
         -2    1    1    2    0  502 -0.25574062592E+02 -0.31071481042E+01  0.26626768543E+01  0.25899360896E+02  0.00000000000E+00 0.  1.
<mgrwt>
<rscale>  1 0.83540672E+02</rscale>
<asrwt>0</asrwt>
<pdfrwt beam="1">  1       21 0.36529743E-02 0.83540672E+02</pdfrwt>
<pdfrwt beam="2">  1       -1 0.30152213E-01 0.83540672E+02</pdfrwt>
<totfact> 0.39326232E+05</totfact>
</mgrwt>
</event>
<event>
 6    2  0.8544106E+000  0.8583052E+02  0.7546771E-02  0.1313275E+00
         21   -1    0    0  501  502  0.00000000000E+00  0.00000000000E+00  0.55676540062E+02  0.55676540062E+02  0.00000000000E+00 0.  1.
          2   -1    0    0  502    0 -0.00000000000E+00 -0.00000000000E+00 -0.58284987612E+02  0.58284987612E+02  0.00000000000E+00 0. -1.
         24    2    1    2    0    0 -0.26806685317E+02 -0.79743242422E+01 -0.43415657811E+01  0.85940251408E+02  0.81146099067E+02 0.  0.
        -13    1    3    3    0    0 -0.37527275096E+02  0.19387648540E+02  0.20967005690E+02  0.47157105717E+02  0.00000000000E+00 0.  1.
         14    1    3    3    0    0  0.10720589779E+02 -0.27361972782E+02 -0.25308571471E+02  0.38783145690E+02  0.00000000000E+00 0. -1.
          1    1    1    2  501    0  0.26806685317E+02  0.79743242422E+01  0.17331182307E+01  0.28021276267E+02  0.00000000000E+00 0. -1.
<mgrwt>
<rscale>  1 0.85830517E+02</rscale>
<asrwt>0</asrwt>
<pdfrwt beam="1">  1       21 0.85656215E-02 0.85830517E+02</pdfrwt>
<pdfrwt beam="2">  1        2 0.89669212E-02 0.85830517E+02</pdfrwt>
<totfact> 0.87539274E+05</totfact>
</mgrwt>
</event>
<event>
 6    2  0.8544106E+000  0.8620186E+02  0.7546771E-02  0.1312319E+00
         21   -1    0    0  501  502  0.00000000000E+00  0.00000000000E+00  0.26033211959E+04  0.26033211959E+04  0.00000000000E+00 0.  1.
         -1   -1    0    0    0  501 -0.00000000000E+00 -0.00000000000E+00 -0.16659531947E+01  0.16659531947E+01  0.00000000000E+00 0.  1.
         24    2    1    2    0    0  0.29473277226E+02  0.12319006031E+01  0.12309922852E+04  0.12340067938E+04  0.80997340466E+02 0.  0.
        -13    1    3    3    0    0  0.67053038826E+01 -0.23701569007E+02  0.12001978663E+03  0.12252132328E+03  0.00000000000E+00 0.  1.
         14    1    3    3    0    0  0.22767973343E+02  0.24933469610E+02  0.11109724986E+04  0.11114854705E+04  0.00000000000E+00 0. -1.
         -2    1    1    2    0  502 -0.29473277226E+02 -0.12319006031E+01  0.13706629575E+04  0.13709803554E+04  0.00000000000E+00 0.  1.
<mgrwt>
<rscale>  1 0.86201861E+02</rscale>
<asrwt>0</asrwt>
<pdfrwt beam="1">  1       21 0.40050770E+00 0.86201861E+02</pdfrwt>
<pdfrwt beam="2">  1       -1 0.25630257E-03 0.86201861E+02</pdfrwt>
<totfact> 0.10991282E+04</totfact>
</mgrwt>
</event>
<event>
 6    2  0.8544106E+000  0.8061049E+02  0.7546771E-02  0.1327328E+00
         21   -1    0    0  501  502  0.00000000000E+00  0.00000000000E+00  0.16247075750E+02  0.16247075750E+02  0.00000000000E+00 0.  1.
          2   -1    0    0  502    0 -0.00000000000E+00 -0.00000000000E+00 -0.19597029856E+03  0.19597029856E+03  0.00000000000E+00 0. -1.
         24    2    1    2    0    0 -0.27579067978E+02  0.15489169549E+01 -0.15685818707E+03  0.17635912569E+03  0.75730088019E+02 0.  0.
        -13    1    3    3    0    0 -0.47244956792E+02 -0.92795771728E+00 -0.14662653931E+03  0.15405287754E+03  0.00000000000E+00 0.  1.
         14    1    3    3    0    0  0.19665888814E+02  0.24768746721E+01 -0.10231647759E+02  0.22306248158E+02  0.00000000000E+00 0. -1.
          1    1    1    2  501    0  0.27579067978E+02 -0.15489169549E+01 -0.22865035740E+02  0.35858248614E+02  0.00000000000E+00 0. -1.
<mgrwt>
<rscale>  1 0.80610485E+02</rscale>
<asrwt>0</asrwt>
<pdfrwt beam="1">  1       21 0.24995501E-02 0.80610485E+02</pdfrwt>
<pdfrwt beam="2">  1        2 0.30149276E-01 0.80610485E+02</pdfrwt>
<totfact> 0.16741286E+06</totfact>
</mgrwt>
</event>
<event>
 6    2  0.8544106E+000  0.9082465E+02  0.7546771E-02  0.1300867E+00
          2   -1    0    0  502    0 -0.00000000000E+00  0.00000000000E+00  0.14905792516E+04  0.14905792516E+04  0.00000000000E+00 0. -1.
         21   -1    0    0  501  502  0.00000000000E+00 -0.00000000000E+00 -0.50687295152E+01  0.50687295152E+01  0.00000000000E+00 0. -1.
         24    2    1    2    0    0  0.34536524217E+02 -0.26459695682E+02  0.13557306771E+04  0.13587695856E+04  0.79725973568E+02 0.  0.
        -11    1    3    3    0    0  0.14135415236E+02  0.81916685539E+01  0.53984061697E+02  0.56402059492E+02  0.00000000000E+00 0.  1.
         12    1    3    3    0    0  0.20401108981E+02 -0.34651364236E+02  0.13017466154E+04  0.13023675261E+04  0.00000000000E+00 0. -1.
          1    1    1    2  501    0 -0.34536524217E+02  0.26459695682E+02  0.12977984498E+03  0.13687839554E+03  0.00000000000E+00 0. -1.
<mgrwt>
<rscale>  1 0.90824654E+02</rscale>
<asrwt>0</asrwt>
<pdfrwt beam="1">  1       21 0.77980573E-03 0.90824654E+02</pdfrwt>
<pdfrwt beam="2">  1        2 0.22931954E+00 0.90824654E+02</pdfrwt>
<totfact> 0.95298222E+05</totfact>
</mgrwt>
</event>
<event>
 6    2  0.8544106E+000  0.9695156E+02  0.7546771E-02  0.1286840E+00
         21   -1    0    0  501  502  0.00000000000E+00  0.00000000000E+00  0.12011705503E+03  0.12011705503E+03  0.00000000000E+00 0. -1.
          2   -1    0    0  502    0 -0.00000000000E+00 -0.00000000000E+00 -0.67269574527E+02  0.67269574527E+02  0.00000000000E+00 0. -1.
         24    2    1    2    0    0 -0.51868453101E+02  0.19601241995E+02 -0.16764333969E+02  0.98390282278E+02  0.79530243547E+02 0.  0.
        -11    1    3    3    0    0 -0.10455575810E+02  0.16627497703E+02  0.29997576689E+02  0.35855924930E+02  0.00000000000E+00 0.  1.
         12    1    3    3    0    0 -0.41412877290E+02  0.29737442928E+01 -0.46761910658E+02  0.62534357348E+02  0.00000000000E+00 0. -1.
          1    1    1    2  501    0  0.51868453101E+02 -0.19601241995E+02  0.69611814474E+02  0.88996347280E+02  0.00000000000E+00 0. -1.
<mgrwt>
<rscale>  1 0.96951559E+02</rscale>
<asrwt>0</asrwt>
<pdfrwt beam="1">  1       21 0.18479547E-01 0.96951559E+02</pdfrwt>
<pdfrwt beam="2">  1        2 0.10349165E-01 0.96951559E+02</pdfrwt>
<totfact> 0.19157355E+05</totfact>
</mgrwt>
</event>
<event>
 6    2  0.8544106E+000  0.8654599E+02  0.7546771E-02  0.1311438E+00
          2   -1    0    0  502    0 -0.00000000000E+00  0.00000000000E+00  0.28170750053E+04  0.28170750053E+04  0.00000000000E+00 0. -1.
         21   -1    0    0  501  502  0.00000000000E+00 -0.00000000000E+00 -0.11534887728E+01  0.11534887728E+01  0.00000000000E+00 0.  1.
         24    2    1    2    0    0  0.27412463941E+02 -0.13662632416E+01  0.21177447144E+04  0.21195124166E+04  0.82078614793E+02 0.  0.
        -11    1    3    3    0    0  0.32503492525E+01 -0.40458565053E+02  0.99642015100E+03  0.99724649790E+03  0.00000000000E+00 0.  1.
         12    1    3    3    0    0  0.24162114688E+02  0.39092301812E+02  0.11213245634E+04  0.11222659187E+04  0.00000000000E+00 0. -1.
          1    1    1    2  501    0 -0.27412463941E+02  0.13662632416E+01  0.69817680217E+03  0.69871607749E+03  0.00000000000E+00 0. -1.
<mgrwt>
<rscale>  1 0.86545993E+02</rscale>
<asrwt>0</asrwt>
<pdfrwt beam="1">  1       21 0.17746207E-03 0.86545993E+02</pdfrwt>
<pdfrwt beam="2">  1        2 0.43339065E+00 0.86545993E+02</pdfrwt>
<totfact> 0.18780577E+06</totfact>
</mgrwt>
</event>
<event>
 6    2  0.8544106E+000  0.8242752E+02  0.7546771E-02  0.1322300E+00
          2   -1    0    0  502    0 -0.00000000000E+00  0.00000000000E+00  0.30761311492E+03  0.30761311492E+03  0.00000000000E+00 0. -1.
         21   -1    0    0  501  502  0.00000000000E+00 -0.00000000000E+00 -0.11783400567E+02  0.11783400567E+02  0.00000000000E+00 0.  1.
         24    2    1    2    0    0 -0.21505990154E+02  0.54601592578E+01  0.28067122449E+03  0.29252458280E+03  0.79384975471E+02 0.  0.
        -13    1    3    3    0    0 -0.28761657339E+02 -0.16896731776E+02  0.46779635406E+02  0.57454910723E+02  0.00000000000E+00 0.  1.
         14    1    3    3    0    0  0.72556671842E+01  0.22356891033E+02  0.23389158909E+03  0.23506967207E+03  0.00000000000E+00 0. -1.
          1    1    1    2  501    0  0.21505990154E+02 -0.54601592578E+01  0.15158489858E+02  0.26871932689E+02  0.00000000000E+00 0. -1.
<mgrwt>
<rscale>  1 0.82427515E+02</rscale>
<asrwt>0</asrwt>
<pdfrwt beam="1">  1       21 0.18128311E-02 0.82427515E+02</pdfrwt>
<pdfrwt beam="2">  1        2 0.47325089E-01 0.82427515E+02</pdfrwt>
<totfact> 0.17482605E+06</totfact>
</mgrwt>
</event>
<event>
 6    2  0.8544106E+000  0.8904942E+02  0.7546771E-02  0.1305170E+00
         21   -1    0    0  501  502  0.00000000000E+00  0.00000000000E+00  0.42691136295E+03  0.42691136295E+03  0.00000000000E+00 0.  1.
          4   -1    0    0  502    0 -0.00000000000E+00 -0.00000000000E+00 -0.10221633074E+02  0.10221633074E+02  0.00000000000E+00 0. -1.
         24    2    1    2    0    0 -0.22543964569E+02 -0.30536528530E+02  0.34132019686E+03  0.35274534041E+03  0.80554878701E+02 0.  0.
        -13    1    3    3    0    0 -0.23899701622E+02 -0.55782655422E+02  0.19397004466E+03  0.20324192138E+03  0.00000000000E+00 0.  1.
         14    1    3    3    0    0  0.13557370534E+01  0.25246126892E+02  0.14735015220E+03  0.14950341903E+03  0.00000000000E+00 0. -1.
          3    1    1    2  501    0  0.22543964569E+02  0.30536528530E+02  0.75369533012E+02  0.84387655612E+02  0.00000000000E+00 0. -1.
<mgrwt>
<rscale>  1 0.89049415E+02</rscale>
<asrwt>0</asrwt>
<pdfrwt beam="1">  1       21 0.65678658E-01 0.89049415E+02</pdfrwt>
<pdfrwt beam="2">  1        4 0.15725593E-02 0.89049415E+02</pdfrwt>
<totfact> 0.12046460E+05</totfact>
</mgrwt>
</event>
<event>
 6    2  0.8544106E+000  0.8660559E+02  0.7546771E-02  0.1311286E+00
         -1   -1    0    0    0  501 -0.00000000000E+00  0.00000000000E+00  0.27458960881E+02  0.27458960881E+02  0.00000000000E+00 0.  1.
         21   -1    0    0  501  502  0.00000000000E+00 -0.00000000000E+00 -0.13356460656E+03  0.13356460656E+03  0.00000000000E+00 0. -1.
         24    2    1    2    0    0  0.23755682411E+02 -0.15508923790E+02 -0.99467059817E+02  0.13188716433E+03  0.81827067424E+02 0.  0.
        -13    1    3    3    0    0  0.18165248440E+02  0.11993495022E+02  0.61382435125E+01  0.22616326120E+02  0.00000000000E+00 0.  1.
         14    1    3    3    0    0  0.55904339701E+01 -0.27502418812E+02 -0.10560530333E+03  0.10927083821E+03  0.00000000000E+00 0. -1.
         -2    1    1    2    0  502 -0.23755682411E+02  0.15508923790E+02 -0.66385858625E+01  0.29136403110E+02  0.00000000000E+00 0.  1.
<mgrwt>
<rscale>  1 0.86605589E+02</rscale>
<asrwt>0</asrwt>
<pdfrwt beam="1">  1       21 0.20548401E-01 0.86605589E+02</pdfrwt>
<pdfrwt beam="2">  1       -1 0.42244555E-02 0.86605589E+02</pdfrwt>
<totfact> 0.40890850E+05</totfact>
</mgrwt>
</event>
<event>
 6    2  0.8544106E+000  0.8756218E+02  0.7546771E-02  0.1308865E+00
          2   -1    0    0  502    0 -0.00000000000E+00  0.00000000000E+00  0.97390512094E+02  0.97390512094E+02  0.00000000000E+00 0. -1.
         21   -1    0    0  501  502  0.00000000000E+00 -0.00000000000E+00 -0.34747123112E+02  0.34747123112E+02  0.00000000000E+00 0.  1.
         24    2    1    2    0    0  0.27026722587E+02  0.90881349464E+01  0.43312655265E+02  0.97688902331E+02  0.82789477605E+02 0.  0.
        -13    1    3    3    0    0 -0.66506291825E+00 -0.26462623311E+01 -0.23899440002E+02  0.24054692794E+02  0.00000000000E+00 0.  1.
         14    1    3    3    0    0  0.27691785505E+02  0.11734397278E+02  0.67212095267E+02  0.73634209537E+02  0.00000000000E+00 0. -1.
          1    1    1    2  501    0 -0.27026722587E+02 -0.90881349464E+01  0.19330733717E+02  0.34448732874E+02  0.00000000000E+00 0. -1.
<mgrwt>
<rscale>  1 0.87562181E+02</rscale>
<asrwt>0</asrwt>
<pdfrwt beam="1">  1       21 0.53457113E-02 0.87562181E+02</pdfrwt>
<pdfrwt beam="2">  1        2 0.14983156E-01 0.87562181E+02</pdfrwt>
<totfact> 0.10565511E+06</totfact>
</mgrwt>
</event>
<event>
 6    2  0.8544106E+000  0.8337373E+02  0.7546771E-02  0.1319741E+00
          2   -1    0    0  502    0 -0.00000000000E+00  0.00000000000E+00  0.41435522668E+03  0.41435522668E+03  0.00000000000E+00 0. -1.
         21   -1    0    0  501  502  0.00000000000E+00 -0.00000000000E+00 -0.12287868727E+02  0.12287868727E+02  0.00000000000E+00 0. -1.
         24    2    1    2    0    0  0.19069533872E+02  0.66196562745E+01  0.39723065833E+03  0.40588591268E+03  0.80893208788E+02 0.  0.
        -13    1    3    3    0    0  0.32139938902E+01  0.31846251279E+02  0.66356702297E+02  0.73673098327E+02  0.00000000000E+00 0.  1.
         14    1    3    3    0    0  0.15855539982E+02 -0.25226595005E+02  0.33087395603E+03  0.33221281436E+03  0.00000000000E+00 0. -1.
          1    1    1    2  501    0 -0.19069533872E+02 -0.66196562745E+01  0.48366996229E+01  0.20757182722E+02  0.00000000000E+00 0. -1.
<mgrwt>
<rscale>  1 0.83373726E+02</rscale>
<asrwt>0</asrwt>
<pdfrwt beam="1">  1       21 0.18904417E-02 0.83373726E+02</pdfrwt>
<pdfrwt beam="2">  1        2 0.63746947E-01 0.83373726E+02</pdfrwt>
<totfact> 0.11996265E+06</totfact>
</mgrwt>
</event>
<event>
 6    2  0.8544106E+000  0.8343424E+02  0.7546771E-02  0.1319579E+00
         -3   -1    0    0    0  501 -0.00000000000E+00  0.00000000000E+00  0.78663424593E+02  0.78663424593E+02  0.00000000000E+00 0.  1.
         21   -1    0    0  501  502  0.00000000000E+00 -0.00000000000E+00 -0.44026071400E+02  0.44026071400E+02  0.00000000000E+00 0.  1.
         24    2    1    2    0    0 -0.11524377255E+02 -0.21398097441E+02  0.46637631248E+02  0.95584210187E+02  0.79815930387E+02 0.  0.
        -11    1    3    3    0    0 -0.21633526168E+02  0.26246964462E+01  0.61732047959E+02  0.65465595782E+02  0.00000000000E+00 0.  1.
         12    1    3    3    0    0  0.10109148914E+02 -0.24022793887E+02 -0.15094416710E+02  0.30118614406E+02  0.00000000000E+00 0. -1.
         -4    1    1    2    0  502  0.11524377255E+02  0.21398097441E+02 -0.12000278056E+02  0.27105285806E+02  0.00000000000E+00 0.  1.
<mgrwt>
<rscale>  1 0.83434241E+02</rscale>
<asrwt>0</asrwt>
<pdfrwt beam="1">  1       21 0.67732418E-02 0.83434241E+02</pdfrwt>
<pdfrwt beam="2">  1       -3 0.12102065E-01 0.83434241E+02</pdfrwt>
<totfact> 0.37325333E+05</totfact>
</mgrwt>
</event>
<event>
 6    2  0.8544106E+000  0.7917906E+02  0.7546771E-02  0.1331397E+00
          2   -1    0    0  502    0 -0.00000000000E+00  0.00000000000E+00  0.38754113826E+03  0.38754113826E+03  0.00000000000E+00 0. -1.
         21   -1    0    0  501  502  0.00000000000E+00 -0.00000000000E+00 -0.10786843422E+02  0.10786843422E+02  0.00000000000E+00 0. -1.
         24    2    1    2    0    0  0.16393942879E+02  0.40675406748E+02  0.17837050004E+03  0.19515470560E+03  0.65924758280E+02 0.  0.
        -13    1    3    3    0    0  0.23594419331E+02 -0.96629785010E+01  0.37147278792E+02  0.45055411426E+02  0.00000000000E+00 0.  1.
         14    1    3    3    0    0 -0.72004764517E+01  0.50338385249E+02  0.14122322125E+03  0.15009929417E+03  0.00000000000E+00 0. -1.
          1    1    1    2  501    0 -0.16393942879E+02 -0.40675406748E+02  0.19838379479E+03  0.20317327608E+03  0.00000000000E+00 0. -1.
<mgrwt>
<rscale>  1 0.79179062E+02</rscale>
<asrwt>0</asrwt>
<pdfrwt beam="1">  1       21 0.16595147E-02 0.79179062E+02</pdfrwt>
<pdfrwt beam="2">  1        2 0.59621703E-01 0.79179062E+02</pdfrwt>
<totfact> 0.15735747E+06</totfact>
</mgrwt>
</event>
<event>
 6    2  0.8544106E+000  0.8358583E+02  0.7546771E-02  0.1319173E+00
         21   -1    0    0  501  502  0.00000000000E+00  0.00000000000E+00  0.54254579192E+01  0.54254579192E+01  0.00000000000E+00 0. -1.
          2   -1    0    0  502    0 -0.00000000000E+00 -0.00000000000E+00 -0.16153665706E+04  0.16153665706E+04  0.00000000000E+00 0. -1.
         24    2    1    2    0    0  0.15169891506E+02 -0.17615509751E+02 -0.15830096305E+04  0.15852148375E+04  0.80287974253E+02 0.  0.
        -13    1    3    3    0    0  0.20557957224E+02 -0.26227801822E+02 -0.25523043795E+03  0.25739678252E+03  0.00000000000E+00 0.  1.
         14    1    3    3    0    0 -0.53880657185E+01  0.86122920708E+01 -0.13277791926E+04  0.13278180550E+04  0.00000000000E+00 0. -1.
          1    1    1    2  501    0 -0.15169891506E+02  0.17615509751E+02 -0.26931482172E+02  0.35577191065E+02  0.00000000000E+00 0. -1.
<mgrwt>
<rscale>  1 0.83585828E+02</rscale>
<asrwt>0</asrwt>
<pdfrwt beam="1">  1       21 0.83468465E-03 0.83585828E+02</pdfrwt>
<pdfrwt beam="2">  1        2 0.24851829E+00 0.83585828E+02</pdfrwt>
<totfact> 0.73767609E+05</totfact>
</mgrwt>
</event>
<event>
 6    2  0.8544106E+000  0.8144187E+02  0.7546771E-02  0.1325009E+00
          2   -1    0    0  502    0 -0.00000000000E+00  0.00000000000E+00  0.71633376077E+03  0.71633376077E+03  0.00000000000E+00 0. -1.
         21   -1    0    0  501  502  0.00000000000E+00 -0.00000000000E+00 -0.45568629597E+01  0.45568629597E+01  0.00000000000E+00 0. -1.
         24    2    1    2    0    0  0.27188653364E+02 -0.68264649821E+01  0.60657305552E+03  0.61201605402E+03  0.76465385665E+02 0.  0.
        -11    1    3    3    0    0 -0.10478068897E+02  0.21917000283E+02  0.88270560824E+02  0.91552371555E+02  0.00000000000E+00 0.  1.
         12    1    3    3    0    0  0.37666722261E+02 -0.28743465265E+02  0.51830249469E+03  0.52046368246E+03  0.00000000000E+00 0. -1.
          1    1    1    2  501    0 -0.27188653364E+02  0.68264649821E+01  0.10520384230E+03  0.10887456971E+03  0.00000000000E+00 0. -1.
<mgrwt>
<rscale>  1 0.81441873E+02</rscale>
<asrwt>0</asrwt>
<pdfrwt beam="1">  1       21 0.70105641E-03 0.81441873E+02</pdfrwt>
<pdfrwt beam="2">  1        2 0.11020510E+00 0.81441873E+02</pdfrwt>
<totfact> 0.31031011E+06</totfact>
</mgrwt>
</event>
<event>
 6    2  0.8544106E+000  0.8694363E+02  0.7546771E-02  0.1310427E+00
         21   -1    0    0  501  502  0.00000000000E+00  0.00000000000E+00  0.14792105210E+02  0.14792105210E+02  0.00000000000E+00 0. -1.
          2   -1    0    0  502    0 -0.00000000000E+00 -0.00000000000E+00 -0.62572810825E+03  0.62572810825E+03  0.00000000000E+00 0. -1.
         24    2    1    2    0    0  0.29794408985E+02 -0.37360873063E+01 -0.60330550650E+03  0.60953812779E+03  0.81593687888E+02 0.  0.
        -13    1    3    3    0    0  0.53481543556E+02 -0.43553163551E+01 -0.26352813919E+03  0.26893553953E+03  0.00000000000E+00 0.  1.
         14    1    3    3    0    0 -0.23687134571E+02  0.61922904888E+00 -0.33977736731E+03  0.34060258826E+03  0.00000000000E+00 0. -1.
          1    1    1    2  501    0 -0.29794408985E+02  0.37360873063E+01 -0.76304965448E+01  0.30982085673E+02  0.00000000000E+00 0. -1.
<mgrwt>
<rscale>  1 0.86943631E+02</rscale>
<asrwt>0</asrwt>
<pdfrwt beam="1">  1       21 0.22757082E-02 0.86943631E+02</pdfrwt>
<pdfrwt beam="2">  1        2 0.96265874E-01 0.86943631E+02</pdfrwt>
<totfact> 0.57263182E+05</totfact>
</mgrwt>
</event>
<event>
 6    2  0.8544106E+000  0.8394448E+02  0.7546771E-02  0.1318216E+00
         21   -1    0    0  501  502  0.00000000000E+00  0.00000000000E+00  0.81681652159E+00  0.81681652159E+00  0.00000000000E+00 0. -1.
          2   -1    0    0  502    0 -0.00000000000E+00 -0.00000000000E+00 -0.46581361379E+04  0.46581361379E+04  0.00000000000E+00 0. -1.
         24    2    1    2    0    0  0.37693834356E+02 -0.92298529301E+01 -0.29602271762E+04  0.29614171625E+04  0.74435615251E+02 0.  0.
        -11    1    3    3    0    0  0.12422406673E+02  0.31381160181E+02 -0.89497326639E+03  0.89560942433E+03  0.00000000000E+00 0.  1.
         12    1    3    3    0    0  0.25271427682E+02 -0.40611013111E+02 -0.20652539098E+04  0.20658077382E+04  0.00000000000E+00 0. -1.
          1    1    1    2  501    0 -0.37693834356E+02  0.92298529301E+01 -0.16970921453E+04  0.16975357919E+04  0.00000000000E+00 0. -1.
<mgrwt>
<rscale>  1 0.83944483E+02</rscale>
<asrwt>0</asrwt>
<pdfrwt beam="1">  1       21 0.12566327E-03 0.83944483E+02</pdfrwt>
<pdfrwt beam="2">  1        2 0.71664096E+00 0.83944483E+02</pdfrwt>
<totfact> 0.15883164E+05</totfact>
</mgrwt>
</event>
<event>
 6    2  0.8544106E+000  0.6797622E+02  0.7546771E-02  0.1367113E+00
         -1   -1    0    0    0  501 -0.00000000000E+00  0.00000000000E+00  0.11717389259E+03  0.11717389259E+03  0.00000000000E+00 0.  1.
         21   -1    0    0  501  502  0.00000000000E+00 -0.00000000000E+00 -0.22989809107E+02  0.22989809107E+02  0.00000000000E+00 0. -1.
         24    2    1    2    0    0  0.40613603857E-01 -0.28220742215E+02  0.88131673640E+02  0.11130120690E+03  0.61841368187E+02 0.  0.
        -11    1    3    3    0    0 -0.23683695089E+02  0.62118021620E+01  0.44988384493E+02  0.51219709473E+02  0.00000000000E+00 0.  1.
         12    1    3    3    0    0  0.23724308693E+02 -0.34432544377E+02  0.43143289147E+02  0.60081497432E+02  0.00000000000E+00 0. -1.
         -2    1    1    2    0  502 -0.40613603857E-01  0.28220742215E+02  0.60524098411E+01  0.28862494790E+02  0.00000000000E+00 0.  1.
<mgrwt>
<rscale>  1 0.67976222E+02</rscale>
<asrwt>0</asrwt>
<pdfrwt beam="1">  1       21 0.35368938E-02 0.67976222E+02</pdfrwt>
<pdfrwt beam="2">  1       -1 0.18026752E-01 0.67976222E+02</pdfrwt>
<totfact> 0.92365751E+05</totfact>
</mgrwt>
</event>
<event>
 6    2  0.8544106E+000  0.8080517E+02  0.7546771E-02  0.1326782E+00
         21   -1    0    0  501  502  0.00000000000E+00  0.00000000000E+00  0.18403251981E+02  0.18403251981E+02  0.00000000000E+00 0.  1.
          2   -1    0    0  502    0 -0.00000000000E+00 -0.00000000000E+00 -0.28425183299E+03  0.28425183299E+03  0.00000000000E+00 0. -1.
         24    2    1    2    0    0  0.13634799182E+01  0.36688154057E+02 -0.24987770162E+03  0.26261824301E+03  0.71983304123E+02 0.  0.
        -13    1    3    3    0    0 -0.12907691278E+02 -0.13676203313E+02 -0.22652312187E+02  0.29441030529E+02  0.00000000000E+00 0.  1.
         14    1    3    3    0    0  0.14271171196E+02  0.50364357370E+02 -0.22722538943E+03  0.23317721248E+03  0.00000000000E+00 0. -1.
          1    1    1    2  501    0 -0.13634799182E+01 -0.36688154057E+02 -0.15970879396E+02  0.40036841962E+02  0.00000000000E+00 0. -1.
<mgrwt>
<rscale>  1 0.80805172E+02</rscale>
<asrwt>0</asrwt>
<pdfrwt beam="1">  1       21 0.28312697E-02 0.80805172E+02</pdfrwt>
<pdfrwt beam="2">  1        2 0.43731048E-01 0.80805172E+02</pdfrwt>
<totfact> 0.92661204E+05</totfact>
</mgrwt>
</event>
<event>
 6    2  0.8544106E+000  0.8615195E+02  0.7546771E-02  0.1312447E+00
         21   -1    0    0  501  502  0.00000000000E+00  0.00000000000E+00  0.20937756413E+02  0.20937756413E+02  0.00000000000E+00 0. -1.
          2   -1    0    0  502    0 -0.00000000000E+00 -0.00000000000E+00 -0.29258581487E+03  0.29258581487E+03  0.00000000000E+00 0. -1.
         24    2    1    2    0    0  0.44224597429E+02  0.13926763401E+02 -0.24575400966E+03  0.26041734265E+03  0.72611220425E+02 0.  0.
        -11    1    3    3    0    0 -0.88434744592E+01  0.24083112221E+02 -0.38714568411E+02  0.46443741688E+02  0.00000000000E+00 0.  1.
         12    1    3    3    0    0  0.53068071888E+02 -0.10156348820E+02 -0.20703944125E+03  0.21397360096E+03  0.00000000000E+00 0. -1.
          1    1    1    2  501    0 -0.44224597429E+02 -0.13926763401E+02 -0.25894048794E+02  0.53106228632E+02  0.00000000000E+00 0. -1.
<mgrwt>
<rscale>  1 0.86151953E+02</rscale>
<asrwt>0</asrwt>
<pdfrwt beam="1">  1       21 0.32211935E-02 0.86151953E+02</pdfrwt>
<pdfrwt beam="2">  1        2 0.45013199E-01 0.86151953E+02</pdfrwt>
<totfact> 0.73404728E+05</totfact>
</mgrwt>
</event>
<event>
 6    2  0.8544106E+000  0.9869215E+02  0.7546771E-02  0.1283070E+00
         21   -1    0    0  501  502  0.00000000000E+00  0.00000000000E+00  0.62197999911E+01  0.62197999911E+01  0.00000000000E+00 0. -1.
          4   -1    0    0  502    0 -0.00000000000E+00 -0.00000000000E+00 -0.10711454668E+04  0.10711454668E+04  0.00000000000E+00 0. -1.
         24    2    1    2    0    0 -0.51066714612E+02  0.24998770541E+02 -0.50448803438E+03  0.51405088946E+03  0.80668409234E+02 0.  0.
        -13    1    3    3    0    0  0.12279573169E+02 -0.12526448063E+01 -0.13478152702E+02  0.18276149389E+02  0.00000000000E+00 0.  1.
         14    1    3    3    0    0 -0.63346287781E+02  0.26251415347E+02 -0.49100988168E+03  0.49577474007E+03  0.00000000000E+00 0. -1.
          3    1    1    2  501    0  0.51066714612E+02 -0.24998770541E+02 -0.56043763246E+03  0.56331437737E+03  0.00000000000E+00 0. -1.
<mgrwt>
<rscale>  1 0.98692148E+02</rscale>
<asrwt>0</asrwt>
<pdfrwt beam="1">  1       21 0.95689308E-03 0.98692148E+02</pdfrwt>
<pdfrwt beam="2">  1        4 0.16479148E+00 0.98692148E+02</pdfrwt>
<totfact> 0.38919968E+04</totfact>
</mgrwt>
</event>
<event>
 6    2  0.8544106E+000  0.8545746E+02  0.7546771E-02  0.1314241E+00
         21   -1    0    0  501  502  0.00000000000E+00  0.00000000000E+00  0.75060671271E+02  0.75060671271E+02  0.00000000000E+00 0.  1.
         -1   -1    0    0    0  501 -0.00000000000E+00 -0.00000000000E+00 -0.12496984776E+03  0.12496984776E+03  0.00000000000E+00 0.  1.
         24    2    1    2    0    0  0.93866088818E+01 -0.24793675783E+02 -0.10708686142E+03  0.13700574265E+03  0.81241263186E+02 0.  0.
        -11    1    3    3    0    0  0.65206448837E+01  0.74963783992E+01 -0.10396511732E+03  0.10443878647E+03  0.00000000000E+00 0.  1.
         12    1    3    3    0    0  0.28659639981E+01 -0.32290054182E+02 -0.31217441001E+01  0.32566956182E+02  0.00000000000E+00 0. -1.
         -2    1    1    2    0  502 -0.93866088818E+01  0.24793675783E+02  0.57177684928E+02  0.63024776389E+02  0.00000000000E+00 0.  1.
<mgrwt>
<rscale>  1 0.85457461E+02</rscale>
<asrwt>0</asrwt>
<pdfrwt beam="1">  1       21 0.11547796E-01 0.85457461E+02</pdfrwt>
<pdfrwt beam="2">  1       -1 0.19226130E-01 0.85457461E+02</pdfrwt>
<totfact> 0.11703581E+05</totfact>
</mgrwt>
</event>
<event>
 6    2  0.8544106E+000  0.8332067E+02  0.7546771E-02  0.1319883E+00
          2   -1    0    0  502    0 -0.00000000000E+00  0.00000000000E+00  0.29688582341E+04  0.29688582341E+04  0.00000000000E+00 0. -1.
         21   -1    0    0  501  502  0.00000000000E+00 -0.00000000000E+00 -0.92639470120E+00  0.92639470120E+00  0.00000000000E+00 0.  1.
         24    2    1    2    0    0  0.10145909247E+02 -0.17356617666E+02  0.21687428691E+04  0.21703428224E+04  0.80858781912E+02 0.  0.
        -11    1    3    3    0    0 -0.22032270373E+02 -0.37385477392E+02  0.91691884127E+03  0.91794512709E+03  0.00000000000E+00 0.  1.
         12    1    3    3    0    0  0.32178179620E+02  0.20028859726E+02  0.12518240278E+04  0.12523976953E+04  0.00000000000E+00 0. -1.
          1    1    1    2  501    0 -0.10145909247E+02  0.17356617666E+02  0.79918897025E+03  0.79944180640E+03  0.00000000000E+00 0. -1.
<mgrwt>
<rscale>  1 0.83320671E+02</rscale>
<asrwt>0</asrwt>
<pdfrwt beam="1">  1       21 0.14252464E-03 0.83320671E+02</pdfrwt>
<pdfrwt beam="2">  1        2 0.45673980E+00 0.83320671E+02</pdfrwt>
<totfact> 0.21394395E+06</totfact>
</mgrwt>
</event>
<event>
 6    2  0.8544106E+000  0.8475677E+02  0.7546771E-02  0.1316070E+00
          2   -1    0    0  502    0 -0.00000000000E+00  0.00000000000E+00  0.12914023831E+04  0.12914023831E+04  0.00000000000E+00 0. -1.
         21   -1    0    0  501  502  0.00000000000E+00 -0.00000000000E+00 -0.31007571638E+01  0.31007571638E+01  0.00000000000E+00 0.  1.
         24    2    1    2    0    0 -0.25665440429E+01  0.21822997623E+02  0.61161089171E+03  0.61745574151E+03  0.81858899883E+02 0.  0.
        -13    1    3    3    0    0 -0.31826193871E+02 -0.35200416436E+01  0.11608428104E+03  0.12041950679E+03  0.00000000000E+00 0.  1.
         14    1    3    3    0    0  0.29259649828E+02  0.25343039267E+02  0.49552661067E+03  0.49703623472E+03  0.00000000000E+00 0. -1.
          1    1    1    2  501    0  0.25665440429E+01 -0.21822997623E+02  0.67669073422E+03  0.67704739875E+03  0.00000000000E+00 0. -1.
<mgrwt>
<rscale>  1 0.84756769E+02</rscale>
<asrwt>0</asrwt>
<pdfrwt beam="1">  1       21 0.47704059E-03 0.84756769E+02</pdfrwt>
<pdfrwt beam="2">  1        2 0.19867686E+00 0.84756769E+02</pdfrwt>
<totfact> 0.25627332E+06</totfact>
</mgrwt>
</event>
<event>
 6    2  0.8544106E+000  0.8236715E+02  0.7546771E-02  0.1322465E+00
          2   -1    0    0  502    0 -0.00000000000E+00  0.00000000000E+00  0.17267267953E+04  0.17267267953E+04  0.00000000000E+00 0. -1.
         21   -1    0    0  501  502  0.00000000000E+00 -0.00000000000E+00 -0.26516902156E+01  0.26516902156E+01  0.00000000000E+00 0.  1.
         24    2    1    2    0    0  0.22760202668E+02  0.37749002206E+01  0.16435736268E+04  0.16456362339E+04  0.79070038340E+02 0.  0.
        -11    1    3    3    0    0 -0.17761737910E+02  0.13807166129E+02  0.17130890724E+03  0.17277979879E+03  0.00000000000E+00 0.  1.
         12    1    3    3    0    0  0.40521940577E+02 -0.10032265909E+02  0.14722647196E+04  0.14728564351E+04  0.00000000000E+00 0. -1.
          1    1    1    2  501    0 -0.22760202668E+02 -0.37749002206E+01  0.80501478274E+02  0.83742251591E+02  0.00000000000E+00 0. -1.
<mgrwt>
<rscale>  1 0.82367152E+02</rscale>
<asrwt>0</asrwt>
<pdfrwt beam="1">  1       21 0.40795372E-03 0.82367152E+02</pdfrwt>
<pdfrwt beam="2">  1        2 0.26564938E+00 0.82367152E+02</pdfrwt>
<totfact> 0.19460482E+06</totfact>
</mgrwt>
</event>
<event>
 6    2  0.8544106E+000  0.1043103E+03  0.7546771E-02  0.1271484E+00
         -1   -1    0    0    0  501 -0.00000000000E+00  0.00000000000E+00  0.32976669040E+03  0.32976669040E+03  0.00000000000E+00 0.  1.
         21   -1    0    0  501  502  0.00000000000E+00 -0.00000000000E+00 -0.26428438874E+02  0.26428438874E+02  0.00000000000E+00 0.  1.
         24    2    1    2    0    0 -0.20064829146E+02  0.53709818606E+02  0.27097037051E+03  0.29035424756E+03  0.87139574236E+02 0.  0.
        -11    1    3    3    0    0 -0.51153843247E+01  0.75630205286E+02  0.22304902434E+03  0.23557793268E+03  0.00000000000E+00 0.  1.
         12    1    3    3    0    0 -0.14949444821E+02 -0.21920386680E+02  0.47921346176E+02  0.54776314882E+02  0.00000000000E+00 0. -1.
         -2    1    1    2    0  502  0.20064829146E+02 -0.53709818606E+02  0.32367881015E+02  0.65840881713E+02  0.00000000000E+00 0.  1.
<mgrwt>
<rscale>  1 0.10431034E+03</rscale>
<asrwt>0</asrwt>
<pdfrwt beam="1">  1       21 0.40659139E-02 0.10431034E+03</pdfrwt>
<pdfrwt beam="2">  1       -1 0.50733334E-01 0.10431034E+03</pdfrwt>
<totfact> 0.13642326E+05</totfact>
</mgrwt>
</event>
<event>
 6    2  0.8544106E+000  0.8778040E+02  0.7546771E-02  0.1308318E+00
         21   -1    0    0  501  502  0.00000000000E+00  0.00000000000E+00  0.82978633120E+01  0.82978633120E+01  0.00000000000E+00 0. -1.
          2   -1    0    0  502    0 -0.00000000000E+00 -0.00000000000E+00 -0.46073111106E+03  0.46073111106E+03  0.00000000000E+00 0. -1.
         24    2    1    2    0    0 -0.16697605556E+02 -0.30300654286E+02 -0.29205330073E+03  0.30495988195E+03  0.80675023721E+02 0.  0.
        -11    1    3    3    0    0  0.13562090151E+02 -0.75125747216E+01 -0.63460518090E+01  0.16752356305E+02  0.00000000000E+00 0.  1.
         12    1    3    3    0    0 -0.30259695707E+02 -0.22788079564E+02 -0.28570724892E+03  0.28820752564E+03  0.00000000000E+00 0. -1.
          1    1    1    2  501    0  0.16697605556E+02  0.30300654286E+02 -0.16037994702E+03  0.16406909242E+03  0.00000000000E+00 0. -1.
<mgrwt>
<rscale>  1 0.87780403E+02</rscale>
<asrwt>0</asrwt>
<pdfrwt beam="1">  1       21 0.12765945E-02 0.87780403E+02</pdfrwt>
<pdfrwt beam="2">  1        2 0.70881704E-01 0.87780403E+02</pdfrwt>
<totfact> 0.20078379E+06</totfact>
</mgrwt>
</event>
<event>
 6    2  0.8544106E+000  0.8825623E+02  0.7546771E-02  0.1307130E+00
          2   -1    0    0  502    0 -0.00000000000E+00  0.00000000000E+00  0.11091380474E+04  0.11091380474E+04  0.00000000000E+00 0. -1.
         21   -1    0    0  501  502  0.00000000000E+00 -0.00000000000E+00 -0.72413928176E+01  0.72413928176E+01  0.00000000000E+00 0. -1.
         24    2    1    2    0    0  0.53930077810E+01  0.34189575434E+02  0.10517561380E+04  0.10554525742E+04  0.81185903464E+02 0.  0.
        -11    1    3    3    0    0  0.18849113555E+02 -0.22851329227E+02  0.34078711126E+03  0.34207210867E+03  0.00000000000E+00 0.  1.
         12    1    3    3    0    0 -0.13456105774E+02  0.57040904661E+02  0.71096902672E+03  0.71338046549E+03  0.00000000000E+00 0. -1.
          1    1    1    2  501    0 -0.53930077810E+01 -0.34189575434E+02  0.50140516549E+02  0.60926866005E+02  0.00000000000E+00 0. -1.
<mgrwt>
<rscale>  1 0.88256232E+02</rscale>
<asrwt>0</asrwt>
<pdfrwt beam="1">  1       21 0.11140613E-02 0.88256232E+02</pdfrwt>
<pdfrwt beam="2">  1        2 0.17063649E+00 0.88256232E+02</pdfrwt>
<totfact> 0.86922783E+05</totfact>
</mgrwt>
</event>
<event>
 6    2  0.8544106E+000  0.9539782E+02  0.7546771E-02  0.1290283E+00
         21   -1    0    0  501  502  0.00000000000E+00  0.00000000000E+00  0.37879569513E+02  0.37879569513E+02  0.00000000000E+00 0. -1.
         -1   -1    0    0    0  501 -0.00000000000E+00 -0.00000000000E+00 -0.13756691704E+03  0.13756691704E+03  0.00000000000E+00 0.  1.
         24    2    1    2    0    0 -0.23793048554E+02  0.37846033569E+02 -0.86661669977E+02  0.12888362912E+03  0.84275224097E+02 0.  0.
        -11    1    3    3    0    0  0.81384755537E+00 -0.73689112332E+01 -0.75941023918E+02  0.76302046593E+02  0.00000000000E+00 0.  1.
         12    1    3    3    0    0 -0.24606896109E+02  0.45214944802E+02 -0.10720646060E+02  0.52581582531E+02  0.00000000000E+00 0. -1.
         -2    1    1    2    0  502  0.23793048554E+02 -0.37846033569E+02 -0.13025677550E+02  0.46562857430E+02  0.00000000000E+00 0.  1.
<mgrwt>
<rscale>  1 0.95397824E+02</rscale>
<asrwt>0</asrwt>
<pdfrwt beam="1">  1       21 0.58276261E-02 0.95397824E+02</pdfrwt>
<pdfrwt beam="2">  1       -1 0.21164141E-01 0.95397824E+02</pdfrwt>
<totfact> 0.32684429E+05</totfact>
</mgrwt>
</event>
<event>
 6    2  0.8544106E+000  0.8642085E+02  0.7546771E-02  0.1311758E+00
          2   -1    0    0  502    0 -0.00000000000E+00  0.00000000000E+00  0.58976415910E+03  0.58976415910E+03  0.00000000000E+00 0. -1.
         21   -1    0    0  501  502  0.00000000000E+00 -0.00000000000E+00 -0.14774187064E+02  0.14774187064E+02  0.00000000000E+00 0. -1.
         24    2    1    2    0    0  0.22568462591E+02 -0.13077642813E+02  0.57176125200E+03  0.57825555944E+03  0.82390548536E+02 0.  0.
        -13    1    3    3    0    0  0.21684468424E+02 -0.36783256260E+02  0.15367344117E+03  0.15949529972E+03  0.00000000000E+00 0.  1.
         14    1    3    3    0    0  0.88399416666E+00  0.23705613447E+02  0.41808781083E+03  0.41876025972E+03  0.00000000000E+00 0. -1.
          1    1    1    2  501    0 -0.22568462591E+02  0.13077642813E+02  0.32287200436E+01  0.26282786732E+02  0.00000000000E+00 0. -1.
<mgrwt>
<rscale>  1 0.86420847E+02</rscale>
<asrwt>0</asrwt>
<pdfrwt beam="1">  1       21 0.22729523E-02 0.86420847E+02</pdfrwt>
<pdfrwt beam="2">  1        2 0.90732929E-01 0.86420847E+02</pdfrwt>
<totfact> 0.61277322E+05</totfact>
</mgrwt>
</event>
<event>
 6    2  0.8544106E+000  0.1218086E+03  0.7546771E-02  0.1240143E+00
         21   -1    0    0  501  502  0.00000000000E+00  0.00000000000E+00  0.48314815977E+01  0.48314815977E+01  0.00000000000E+00 0. -1.
          2   -1    0    0  502    0 -0.00000000000E+00 -0.00000000000E+00 -0.24547008274E+04  0.24547008274E+04  0.00000000000E+00 0. -1.
         24    2    1    2    0    0  0.41867654173E+02  0.82822684702E+02 -0.15936197009E+04  0.15982681498E+04  0.78897591348E+02 0.  0.
        -13    1    3    3    0    0  0.11619626905E+01 -0.14695408466E+02 -0.12856361460E+03  0.12940598203E+03  0.00000000000E+00 0.  1.
         14    1    3    3    0    0  0.40705691482E+02  0.97518093167E+02 -0.14650560863E+04  0.14688621678E+04  0.00000000000E+00 0. -1.
          1    1    1    2  501    0 -0.41867654173E+02 -0.82822684702E+02 -0.85624964493E+03  0.86126415925E+03  0.00000000000E+00 0. -1.
<mgrwt>
<rscale>  1 0.12180857E+03</rscale>
<asrwt>0</asrwt>
<pdfrwt beam="1">  1       21 0.74330388E-03 0.12180857E+03</pdfrwt>
<pdfrwt beam="2">  1        2 0.37764678E+00 0.12180857E+03</pdfrwt>
<totfact> 0.33370256E+05</totfact>
</mgrwt>
</event>
<event>
 6    2  0.8544106E+000  0.8776810E+02  0.7546771E-02  0.1308348E+00
         21   -1    0    0  501  502  0.00000000000E+00  0.00000000000E+00  0.14529273629E+02  0.14529273629E+02  0.00000000000E+00 0. -1.
          2   -1    0    0  502    0 -0.00000000000E+00 -0.00000000000E+00 -0.42716101614E+03  0.42716101614E+03  0.00000000000E+00 0. -1.
         24    2    1    2    0    0  0.10563959349E+02  0.30310334279E+02 -0.39586228441E+03  0.40547526076E+03  0.81687975035E+02 0.  0.
        -11    1    3    3    0    0  0.39972079811E+02  0.32410274412E+02 -0.16775735171E+03  0.17547285290E+03  0.00000000000E+00 0.  1.
         12    1    3    3    0    0 -0.29408120462E+02 -0.20999401322E+01 -0.22810493270E+03  0.23000240786E+03  0.00000000000E+00 0. -1.
          1    1    1    2  501    0 -0.10563959349E+02 -0.30310334279E+02 -0.16769458097E+02  0.36215029009E+02  0.00000000000E+00 0. -1.
<mgrwt>
<rscale>  1 0.87768097E+02</rscale>
<asrwt>0</asrwt>
<pdfrwt beam="1">  1       21 0.22352730E-02 0.87768097E+02</pdfrwt>
<pdfrwt beam="2">  1        2 0.65717075E-01 0.87768097E+02</pdfrwt>
<totfact> 0.89333728E+05</totfact>
</mgrwt>
</event>
<event>
 6    2  0.8544106E+000  0.8157248E+02  0.7546771E-02  0.1324647E+00
         21   -1    0    0  501  502  0.00000000000E+00  0.00000000000E+00  0.22140256115E+01  0.22140256115E+01  0.00000000000E+00 0. -1.
          2   -1    0    0  502    0 -0.00000000000E+00 -0.00000000000E+00 -0.14805716109E+04  0.14805716109E+04  0.00000000000E+00 0. -1.
         24    2    1    2    0    0  0.29602457542E+01 -0.20030558507E+02 -0.13776384897E+04  0.13800514039E+04  0.79019509236E+02 0.  0.
        -13    1    3    3    0    0 -0.93184833614E+01  0.19743045571E+02 -0.13816950920E+03  0.13988364898E+03  0.00000000000E+00 0.  1.
         14    1    3    3    0    0  0.12278729116E+02 -0.39773604078E+02 -0.12394689805E+04  0.12401677550E+04  0.00000000000E+00 0. -1.
          1    1    1    2  501    0 -0.29602457542E+01  0.20030558507E+02 -0.10071909554E+03  0.10273423254E+03  0.00000000000E+00 0. -1.
<mgrwt>
<rscale>  1 0.81572478E+02</rscale>
<asrwt>0</asrwt>
<pdfrwt beam="1">  1       21 0.34061929E-03 0.81572478E+02</pdfrwt>
<pdfrwt beam="2">  1        2 0.22778027E+00 0.81572478E+02</pdfrwt>
<totfact> 0.34012793E+06</totfact>
</mgrwt>
</event>
<event>
 6    2  0.8544106E+000  0.8457198E+02  0.7546771E-02  0.1316556E+00
         21   -1    0    0  501  502  0.00000000000E+00  0.00000000000E+00  0.27330271266E+01  0.27330271266E+01  0.00000000000E+00 0.  1.
          2   -1    0    0  502    0 -0.00000000000E+00 -0.00000000000E+00 -0.12352508369E+04  0.12352508369E+04  0.00000000000E+00 0. -1.
         24    2    1    2    0    0  0.12262255659E+02 -0.20793694084E+02 -0.11028640830E+04  0.11061019870E+04  0.81053558836E+02 0.  0.
        -13    1    3    3    0    0 -0.11965862940E+02 -0.16943145548E+02 -0.71545820014E+02  0.74491988954E+02  0.00000000000E+00 0.  1.
         14    1    3    3    0    0  0.24228118600E+02 -0.38505485357E+01 -0.10313182630E+04  0.10316099980E+04  0.00000000000E+00 0. -1.
          1    1    1    2  501    0 -0.12262255659E+02  0.20793694084E+02 -0.12965372679E+03  0.13188187707E+03  0.00000000000E+00 0. -1.
<mgrwt>
<rscale>  1 0.84571981E+02</rscale>
<asrwt>0</asrwt>
<pdfrwt beam="1">  1       21 0.42046478E-03 0.84571981E+02</pdfrwt>
<pdfrwt beam="2">  1        2 0.19003901E+00 0.84571981E+02</pdfrwt>
<totfact> 0.33274555E+06</totfact>
</mgrwt>
</event>
<event>
 6    2  0.8544106E+000  0.9007155E+02  0.7546771E-02  0.1302679E+00
         21   -1    0    0  501  502  0.00000000000E+00  0.00000000000E+00  0.13798988131E+02  0.13798988131E+02  0.00000000000E+00 0. -1.
          2   -1    0    0  502    0 -0.00000000000E+00 -0.00000000000E+00 -0.12383112625E+04  0.12383112625E+04  0.00000000000E+00 0. -1.
         24    2    1    2    0    0 -0.34564857059E+02  0.40211169298E+02 -0.11784057575E+04  0.11818430579E+04  0.72809454438E+02 0.  0.
        -11    1    3    3    0    0  0.20478484074E+02  0.26142077968E+02 -0.41577684468E+03  0.41710090041E+03  0.00000000000E+00 0.  1.
         12    1    3    3    0    0 -0.55043341133E+02  0.14069091330E+02 -0.76262891284E+03  0.76474215748E+03  0.00000000000E+00 0. -1.
          1    1    1    2  501    0  0.34564857059E+02 -0.40211169298E+02 -0.46106516864E+02  0.70267192752E+02  0.00000000000E+00 0. -1.
<mgrwt>
<rscale>  1 0.90071550E+02</rscale>
<asrwt>0</asrwt>
<pdfrwt beam="1">  1       21 0.21229209E-02 0.90071550E+02</pdfrwt>
<pdfrwt beam="2">  1        2 0.19050945E+00 0.90071550E+02</pdfrwt>
<totfact> 0.26620453E+05</totfact>
</mgrwt>
</event>
<event>
 6    2  0.8544106E+000  0.8465663E+02  0.7546771E-02  0.1316333E+00
         21   -1    0    0  501  502  0.00000000000E+00  0.00000000000E+00  0.17609903413E+03  0.17609903413E+03  0.00000000000E+00 0.  1.
          2   -1    0    0  502    0 -0.00000000000E+00 -0.00000000000E+00 -0.26289792110E+02  0.26289792110E+02  0.00000000000E+00 0. -1.
         24    2    1    2    0    0 -0.10849359866E+02 -0.24957212278E+02  0.48664758381E+02  0.97647346278E+02  0.80163423534E+02 0.  0.
        -11    1    3    3    0    0  0.28321945789E+02 -0.82077897998E-02  0.42105618856E+02  0.50744613703E+02  0.00000000000E+00 0.  1.
         12    1    3    3    0    0 -0.39171305655E+02 -0.24949004488E+02  0.65591395254E+01  0.46902732575E+02  0.00000000000E+00 0. -1.
          1    1    1    2  501    0  0.10849359866E+02  0.24957212278E+02  0.10114448363E+03  0.10474147996E+03  0.00000000000E+00 0. -1.
<mgrwt>
<rscale>  1 0.84656633E+02</rscale>
<asrwt>0</asrwt>
<pdfrwt beam="1">  1       21 0.27092158E-01 0.84656633E+02</pdfrwt>
<pdfrwt beam="2">  1        2 0.40445835E-02 0.84656633E+02</pdfrwt>
<totfact> 0.30555699E+05</totfact>
</mgrwt>
</event>
<event>
 6    2  0.8544106E+000  0.9707376E+02  0.7546771E-02  0.1286573E+00
         -3   -1    0    0    0  501 -0.00000000000E+00  0.00000000000E+00  0.12774599788E+03  0.12774599788E+03  0.00000000000E+00 0.  1.
         21   -1    0    0  501  502  0.00000000000E+00 -0.00000000000E+00 -0.56059290064E+02  0.56059290064E+02  0.00000000000E+00 0.  1.
         24    2    1    2    0    0 -0.53087305811E+02 -0.22641712227E+02  0.79618876070E+02  0.12554871351E+03  0.78053858760E+02 0.  0.
        -11    1    3    3    0    0 -0.67754043855E+02 -0.10416783106E+02  0.81345051687E+02  0.10637733435E+03  0.00000000000E+00 0.  1.
         12    1    3    3    0    0  0.14666738044E+02 -0.12224929122E+02 -0.17261756163E+01  0.19171379166E+02  0.00000000000E+00 0. -1.
         -4    1    1    2    0  502  0.53087305811E+02  0.22641712227E+02 -0.79321682554E+01  0.58256574428E+02  0.00000000000E+00 0.  1.
<mgrwt>
<rscale>  1 0.97073756E+02</rscale>
<asrwt>0</asrwt>
<pdfrwt beam="1">  1       21 0.86245062E-02 0.97073756E+02</pdfrwt>
<pdfrwt beam="2">  1       -3 0.19653230E-01 0.97073756E+02</pdfrwt>
<totfact> 0.11106195E+05</totfact>
</mgrwt>
</event>
<event>
 6    2  0.1047508E+001  0.8599592E+02  0.7546771E-02  0.1312848E+00
         21   -1    0    0  501  502  0.00000000000E+00  0.00000000000E+00  0.80224633669E+02  0.80224633669E+02  0.00000000000E+00 0. -1.
         -1   -1    0    0    0  501 -0.00000000000E+00 -0.00000000000E+00 -0.10117232922E+03  0.10117232922E+03  0.00000000000E+00 0.  1.
         24    2    1    2    0    0  0.26189165528E+02  0.17013214503E+02  0.53075162732E+02  0.10105578162E+03  0.80124754240E+02 0.  0.
        -11    1    3    3    0    0 -0.17678381252E+02 -0.51500637299E+00 -0.11463080715E+02  0.21075877556E+02  0.00000000000E+00 0.  1.
         12    1    3    3    0    0  0.43867546780E+02  0.17528220876E+02  0.64538243447E+02  0.79979904068E+02  0.00000000000E+00 0. -1.
         -2    1    1    2    0  502 -0.26189165528E+02 -0.17013214503E+02 -0.74022858281E+02  0.80341181264E+02  0.00000000000E+00 0.  1.
<mgrwt>
<rscale>  1 0.85995919E+02</rscale>
<asrwt>0</asrwt>
<pdfrwt beam="1">  1       21 0.12342251E-01 0.85995919E+02</pdfrwt>
<pdfrwt beam="2">  1       -1 0.15564974E-01 0.85995919E+02</pdfrwt>
<totfact> 0.14505853E+05</totfact>
</mgrwt>
</event>
<event>
 6    2  0.8544106E+000  0.8732548E+02  0.7546771E-02  0.1309461E+00
          4   -1    0    0  502    0 -0.00000000000E+00  0.00000000000E+00  0.49856135074E+02  0.49856135074E+02  0.00000000000E+00 0. -1.
         21   -1    0    0  501  502  0.00000000000E+00 -0.00000000000E+00 -0.50207061195E+03  0.50207061195E+03  0.00000000000E+00 0. -1.
         24    2    1    2    0    0  0.32003813616E+02  0.38844299264E+01  0.10621747904E+02  0.87969093945E+02  0.81156682282E+02 0.  0.
        -13    1    3    3    0    0  0.55740627394E+02  0.43338471391E+01  0.23859136654E+02  0.60786990180E+02  0.00000000000E+00 0.  1.
         14    1    3    3    0    0 -0.23736813777E+02 -0.44941721275E+00 -0.13237388751E+02  0.27182103765E+02  0.00000000000E+00 0. -1.
          3    1    1    2  501    0 -0.32003813616E+02 -0.38844299264E+01 -0.46283622478E+03  0.46395765308E+03  0.00000000000E+00 0. -1.
<mgrwt>
<rscale>  1 0.87325483E+02</rscale>
<asrwt>0</asrwt>
<pdfrwt beam="1">  1       21 0.77241632E-01 0.87325483E+02</pdfrwt>
<pdfrwt beam="2">  1        4 0.76701747E-02 0.87325483E+02</pdfrwt>
<totfact> 0.70727283E+03</totfact>
</mgrwt>
</event>
<event>
 6    2  0.8544106E+000  0.1593241E+03  0.7546771E-02  0.1189462E+00
         21   -1    0    0  501  502  0.00000000000E+00  0.00000000000E+00  0.80219057328E+02  0.80219057328E+02  0.00000000000E+00 0. -1.
          2   -1    0    0  502    0 -0.00000000000E+00 -0.00000000000E+00 -0.47004011293E+03  0.47004011293E+03  0.00000000000E+00 0. -1.
         24    2    1    2    0    0  0.10154119228E+03 -0.63069275193E+02 -0.39973345189E+03  0.43031500490E+03  0.10533671574E+03 0.  0.
        -11    1    3    3    0    0  0.28679628423E+02  0.32480940844E+01 -0.13777833176E+02  0.31982806141E+02  0.00000000000E+00 0.  1.
         12    1    3    3    0    0  0.72861563861E+02 -0.66317369277E+02 -0.38595561871E+03  0.39833219876E+03  0.00000000000E+00 0. -1.
          1    1    1    2  501    0 -0.10154119228E+03  0.63069275193E+02  0.99123962803E+01  0.11994416536E+03  0.00000000000E+00 0. -1.
<mgrwt>
<rscale>  1 0.15932411E+03</rscale>
<asrwt>0</asrwt>
<pdfrwt beam="1">  1       21 0.12341393E-01 0.15932411E+03</pdfrwt>
<pdfrwt beam="2">  1        2 0.72313866E-01 0.15932411E+03</pdfrwt>
<totfact> 0.46627172E+04</totfact>
</mgrwt>
</event>
<event>
 6    2  0.8544106E+000  0.8843412E+02  0.7546771E-02  0.1306689E+00
         -3   -1    0    0    0  501 -0.00000000000E+00  0.00000000000E+00  0.32409357776E+02  0.32409357776E+02  0.00000000000E+00 0.  1.
         21   -1    0    0  501  502  0.00000000000E+00 -0.00000000000E+00 -0.24988045476E+03  0.24988045476E+03  0.00000000000E+00 0.  1.
         24    2    1    2    0    0  0.17332540029E+02 -0.42658270763E+02 -0.36700480909E+02  0.95747161530E+02  0.75501315444E+02 0.  0.
        -13    1    3    3    0    0  0.26525357979E+02 -0.30203370114E+02  0.14132436834E+02  0.42609435023E+02  0.00000000000E+00 0.  1.
         14    1    3    3    0    0 -0.91928179498E+01 -0.12454900650E+02 -0.50832917743E+02  0.53137726507E+02  0.00000000000E+00 0. -1.
         -4    1    1    2    0  502 -0.17332540029E+02  0.42658270763E+02 -0.18077061608E+03  0.18654265101E+03  0.00000000000E+00 0.  1.
<mgrwt>
<rscale>  1 0.88434120E+02</rscale>
<asrwt>0</asrwt>
<pdfrwt beam="1">  1       21 0.38443148E-01 0.88434120E+02</pdfrwt>
<pdfrwt beam="2">  1       -3 0.49860549E-02 0.88434120E+02</pdfrwt>
<totfact> 0.68276195E+04</totfact>
</mgrwt>
</event>
<event>
 6    2  0.8544106E+000  0.8691713E+02  0.7546771E-02  0.1310494E+00
         -1   -1    0    0    0  501 -0.00000000000E+00  0.00000000000E+00  0.31004728977E+02  0.31004728977E+02  0.00000000000E+00 0.  1.
         21   -1    0    0  501  502  0.00000000000E+00 -0.00000000000E+00 -0.12733920170E+03  0.12733920170E+03  0.00000000000E+00 0. -1.
         24    2    1    2    0    0 -0.35010852036E+02  0.58347628062E+01 -0.51025627300E+02  0.10078790848E+03  0.79339672533E+02 0.  0.
        -11    1    3    3    0    0 -0.15299122023E+02  0.77216415362E+01  0.20414592447E+02  0.26654126650E+02  0.00000000000E+00 0.  1.
         12    1    3    3    0    0 -0.19711730013E+02 -0.18868787301E+01 -0.71440219747E+02  0.74133781833E+02  0.00000000000E+00 0. -1.
         -2    1    1    2    0  502  0.35010852036E+02 -0.58347628062E+01 -0.45308845421E+02  0.57556022193E+02  0.00000000000E+00 0.  1.
<mgrwt>
<rscale>  1 0.86917132E+02</rscale>
<asrwt>0</asrwt>
<pdfrwt beam="1">  1       21 0.19590647E-01 0.86917132E+02</pdfrwt>
<pdfrwt beam="2">  1       -1 0.47699583E-02 0.86917132E+02</pdfrwt>
<totfact> 0.37403778E+05</totfact>
</mgrwt>
</event>
<event>
 6    2  0.8544106E+000  0.9147111E+02  0.7546771E-02  0.1299328E+00
          2   -1    0    0  502    0 -0.00000000000E+00  0.00000000000E+00  0.92676766601E+03  0.92676766601E+03  0.00000000000E+00 0. -1.
         21   -1    0    0  501  502  0.00000000000E+00 -0.00000000000E+00 -0.48437625510E+01  0.48437625510E+01  0.00000000000E+00 0.  1.
         24    2    1    2    0    0  0.23897752739E+02 -0.31285663632E+02  0.72862731263E+03  0.73434646117E+03  0.82565543559E+02 0.  0.
        -13    1    3    3    0    0 -0.18682223328E+02 -0.40483337071E+02  0.27018360721E+03  0.27383773964E+03  0.00000000000E+00 0.  1.
         14    1    3    3    0    0  0.42579976067E+02  0.91976734386E+01  0.45844370543E+03  0.46050872153E+03  0.00000000000E+00 0. -1.
          1    1    1    2  501    0 -0.23897752739E+02  0.31285663632E+02  0.19329659083E+03  0.19726496739E+03  0.00000000000E+00 0. -1.
<mgrwt>
<rscale>  1 0.91471112E+02</rscale>
<asrwt>0</asrwt>
<pdfrwt beam="1">  1       21 0.74519497E-03 0.91471112E+02</pdfrwt>
<pdfrwt beam="2">  1        2 0.14257950E+00 0.91471112E+02</pdfrwt>
<totfact> 0.20834027E+06</totfact>
</mgrwt>
</event>
<event>
 6    2  0.8544106E+000  0.8392955E+02  0.7546771E-02  0.1318256E+00
          2   -1    0    0  502    0 -0.00000000000E+00  0.00000000000E+00  0.48318513688E+02  0.48318513688E+02  0.00000000000E+00 0. -1.
         21   -1    0    0  501  502  0.00000000000E+00 -0.00000000000E+00 -0.11574945934E+03  0.11574945934E+03  0.00000000000E+00 0. -1.
         24    2    1    2    0    0  0.24770023364E+02  0.94418275575E+01  0.78117033036E+01  0.84292297619E+02  0.79633325715E+02 0.  0.
        -11    1    3    3    0    0  0.13317451056E+02  0.34886443178E+02 -0.22095758573E+02  0.43389410772E+02  0.00000000000E+00 0.  1.
         12    1    3    3    0    0  0.11452572308E+02 -0.25444615620E+02  0.29907461877E+02  0.40902886847E+02  0.00000000000E+00 0. -1.
          1    1    1    2  501    0 -0.24770023364E+02 -0.94418275575E+01 -0.75242648951E+02  0.79775675404E+02  0.00000000000E+00 0. -1.
<mgrwt>
<rscale>  1 0.83929546E+02</rscale>
<asrwt>0</asrwt>
<pdfrwt beam="1">  1       21 0.17807609E-01 0.83929546E+02</pdfrwt>
<pdfrwt beam="2">  1        2 0.74336174E-02 0.83929546E+02</pdfrwt>
<totfact> 0.30431469E+05</totfact>
</mgrwt>
</event>
<event>
 6    2  0.8544106E+000  0.8641957E+02  0.7546771E-02  0.1311761E+00
         21   -1    0    0  501  502  0.00000000000E+00  0.00000000000E+00  0.51932786869E+01  0.51932786869E+01  0.00000000000E+00 0. -1.
          2   -1    0    0  502    0 -0.00000000000E+00 -0.00000000000E+00 -0.73153371770E+03  0.73153371770E+03  0.00000000000E+00 0. -1.
         24    2    1    2    0    0  0.22803604375E+02 -0.22058325199E+02 -0.61181317275E+03  0.61788647804E+03  0.80385118723E+02 0.  0.
        -13    1    3    3    0    0  0.77136540226E+01  0.62498998845E+01 -0.68228760967E+01  0.12046300062E+02  0.00000000000E+00 0.  1.
         14    1    3    3    0    0  0.15089950353E+02 -0.28308225084E+02 -0.60499029665E+03  0.60584017798E+03  0.00000000000E+00 0. -1.
          1    1    1    2  501    0 -0.22803604375E+02  0.22058325199E+02 -0.11452726627E+03  0.11884051835E+03  0.00000000000E+00 0. -1.
<mgrwt>
<rscale>  1 0.86419566E+02</rscale>
<asrwt>0</asrwt>
<pdfrwt beam="1">  1       21 0.79896653E-03 0.86419566E+02</pdfrwt>
<pdfrwt beam="2">  1        2 0.11254357E+00 0.86419566E+02</pdfrwt>
<totfact> 0.24903119E+06</totfact>
</mgrwt>
</event>
<event>
 6    2  0.8544106E+000  0.8537286E+02  0.7546771E-02  0.1314460E+00
          2   -1    0    0  502    0 -0.00000000000E+00  0.00000000000E+00  0.33778219679E+02  0.33778219679E+02  0.00000000000E+00 0. -1.
         21   -1    0    0  501  502  0.00000000000E+00 -0.00000000000E+00 -0.15933501038E+03  0.15933501038E+03  0.00000000000E+00 0. -1.
         24    2    1    2    0    0 -0.24214293955E+02  0.39071827892E+01 -0.24065072225E+02  0.88699787302E+02  0.81773629350E+02 0.  0.
        -13    1    3    3    0    0 -0.20289223495E+02  0.55247091859E+01 -0.54268199340E+02  0.58199763412E+02  0.00000000000E+00 0.  1.
         14    1    3    3    0    0 -0.39250704598E+01 -0.16175263966E+01  0.30203127115E+02  0.30500023890E+02  0.00000000000E+00 0. -1.
          1    1    1    2  501    0  0.24214293955E+02 -0.39071827892E+01 -0.10149171847E+03  0.10441344275E+03  0.00000000000E+00 0. -1.
<mgrwt>
<rscale>  1 0.85372856E+02</rscale>
<asrwt>0</asrwt>
<pdfrwt beam="1">  1       21 0.24513079E-01 0.85372856E+02</pdfrwt>
<pdfrwt beam="2">  1        2 0.51966491E-02 0.85372856E+02</pdfrwt>
<totfact> 0.26664301E+05</totfact>
</mgrwt>
</event>
<event>
 6    2  0.8544106E+000  0.8460170E+02  0.7546771E-02  0.1316477E+00
         21   -1    0    0  501  502  0.00000000000E+00  0.00000000000E+00  0.24687859584E+03  0.24687859584E+03  0.00000000000E+00 0. -1.
          2   -1    0    0  502    0 -0.00000000000E+00 -0.00000000000E+00 -0.41830283409E+02  0.41830283409E+02  0.00000000000E+00 0. -1.
         24    2    1    2    0    0  0.71743730405E+01 -0.26205868924E+02  0.28045185350E+01  0.84648174153E+02  0.80120090294E+02 0.  0.
        -13    1    3    3    0    0 -0.77717663903E+00 -0.74655838666E+01  0.40831106621E+02  0.41515276873E+02  0.00000000000E+00 0.  1.
         14    1    3    3    0    0  0.79515496795E+01 -0.18740285057E+02 -0.38026588085E+02  0.43132897280E+02  0.00000000000E+00 0. -1.
          1    1    1    2  501    0 -0.71743730405E+01  0.26205868924E+02  0.20224379390E+03  0.20406070510E+03  0.00000000000E+00 0. -1.
<mgrwt>
<rscale>  1 0.84601702E+02</rscale>
<asrwt>0</asrwt>
<pdfrwt beam="1">  1       21 0.37981322E-01 0.84601702E+02</pdfrwt>
<pdfrwt beam="2">  1        2 0.64354283E-02 0.84601702E+02</pdfrwt>
<totfact> 0.87928055E+04</totfact>
</mgrwt>
</event>
<event>
 6    2  0.8544106E+000  0.9776182E+02  0.7546771E-02  0.1285074E+00
          4   -1    0    0  502    0 -0.00000000000E+00  0.00000000000E+00  0.73136835057E+02  0.73136835057E+02  0.00000000000E+00 0. -1.
         21   -1    0    0  501  502  0.00000000000E+00 -0.00000000000E+00 -0.80606923794E+02  0.80606923794E+02  0.00000000000E+00 0.  1.
         24    2    1    2    0    0 -0.26343007914E+02  0.49186183505E+02 -0.42229932635E+01  0.97852987316E+02  0.80275393122E+02 0.  0.
        -11    1    3    3    0    0 -0.50622294445E+02  0.27840756096E+02 -0.20949366446E+02  0.61454050716E+02  0.00000000000E+00 0.  1.
         12    1    3    3    0    0  0.24279286532E+02  0.21345427409E+02  0.16726373183E+02  0.36398936600E+02  0.00000000000E+00 0. -1.
          3    1    1    2  501    0  0.26343007914E+02 -0.49186183505E+02 -0.32470954738E+01  0.55890771535E+02  0.00000000000E+00 0. -1.
<mgrwt>
<rscale>  1 0.97761820E+02</rscale>
<asrwt>0</asrwt>
<pdfrwt beam="1">  1       21 0.12401065E-01 0.97761820E+02</pdfrwt>
<pdfrwt beam="2">  1        4 0.11251821E-01 0.97761820E+02</pdfrwt>
<totfact> 0.13132195E+05</totfact>
</mgrwt>
</event>
<event>
 6    2  0.8544106E+000  0.8528635E+02  0.7546771E-02  0.1314685E+00
          2   -1    0    0  502    0 -0.00000000000E+00  0.00000000000E+00  0.19723758755E+03  0.19723758755E+03  0.00000000000E+00 0. -1.
         21   -1    0    0  501  502  0.00000000000E+00 -0.00000000000E+00 -0.23115752563E+02  0.23115752563E+02  0.00000000000E+00 0. -1.
         24    2    1    2    0    0 -0.11960256853E+02  0.31425311161E+02  0.16463829534E+03  0.18541717762E+03  0.78378335898E+02 0.  0.
        -11    1    3    3    0    0 -0.19983733967E+02 -0.86138463114E+01  0.74341709629E+01  0.22995975070E+02  0.00000000000E+00 0.  1.
         12    1    3    3    0    0  0.80234771132E+01  0.40039157472E+02  0.15720412438E+03  0.16242120255E+03  0.00000000000E+00 0. -1.
          1    1    1    2  501    0  0.11960256853E+02 -0.31425311161E+02  0.94835396447E+01  0.34936162493E+02  0.00000000000E+00 0. -1.
<mgrwt>
<rscale>  1 0.85286350E+02</rscale>
<asrwt>0</asrwt>
<pdfrwt beam="1">  1       21 0.35562698E-02 0.85286350E+02</pdfrwt>
<pdfrwt beam="2">  1        2 0.30344243E-01 0.85286350E+02</pdfrwt>
<totfact> 0.94479112E+05</totfact>
</mgrwt>
</event>
<event>
 6    2  0.8544106E+000  0.8637426E+02  0.7546771E-02  0.1311877E+00
         21   -1    0    0  501  502  0.00000000000E+00  0.00000000000E+00  0.15053206423E+01  0.15053206423E+01  0.00000000000E+00 0. -1.
          2   -1    0    0  502    0 -0.00000000000E+00 -0.00000000000E+00 -0.21260313013E+04  0.21260313013E+04  0.00000000000E+00 0. -1.
         24    2    1    2    0    0 -0.13435480225E+02 -0.22169219413E+02 -0.15157881678E+04  0.15182471085E+04  0.82392513815E+02 0.  0.
        -11    1    3    3    0    0  0.27064666470E+02 -0.19472790625E+01 -0.21979695505E+03  0.22146554928E+03  0.00000000000E+00 0.  1.
         12    1    3    3    0    0 -0.40500146695E+02 -0.20221940351E+02 -0.12959912128E+04  0.12967815592E+04  0.00000000000E+00 0. -1.
          1    1    1    2  501    0  0.13435480225E+02  0.22169219413E+02 -0.60873781288E+03  0.60928951349E+03  0.00000000000E+00 0. -1.
<mgrwt>
<rscale>  1 0.86374260E+02</rscale>
<asrwt>0</asrwt>
<pdfrwt beam="1">  1       21 0.23158622E-03 0.86374260E+02</pdfrwt>
<pdfrwt beam="2">  1        2 0.32708396E+00 0.86374260E+02</pdfrwt>
<totfact> 0.28998710E+06</totfact>
</mgrwt>
</event>
<event>
 6    2  0.8544106E+000  0.8591807E+02  0.7546771E-02  0.1313049E+00
          2   -1    0    0  502    0 -0.00000000000E+00  0.00000000000E+00  0.15821379930E+04  0.15821379930E+04  0.00000000000E+00 0. -1.
         21   -1    0    0  501  502  0.00000000000E+00 -0.00000000000E+00 -0.17842319725E+02  0.17842319725E+02  0.00000000000E+00 0. -1.
         24    2    1    2    0    0 -0.25794316030E+02 -0.11714470191E+02  0.15689241603E+04  0.15712749396E+04  0.81113128520E+02 0.  0.
        -13    1    3    3    0    0 -0.71021205972E+00  0.33474523438E+02  0.72107444560E+03  0.72185137266E+03  0.00000000000E+00 0.  1.
         14    1    3    3    0    0 -0.25084103970E+02 -0.45188993629E+02  0.84784971469E+03  0.84942356696E+03  0.00000000000E+00 0. -1.
          1    1    1    2  501    0  0.25794316030E+02  0.11714470191E+02 -0.46284870322E+01  0.28705373077E+02  0.00000000000E+00 0. -1.
<mgrwt>
<rscale>  1 0.85918072E+02</rscale>
<asrwt>0</asrwt>
<pdfrwt beam="1">  1       21 0.27449735E-02 0.85918072E+02</pdfrwt>
<pdfrwt beam="2">  1        2 0.24340573E+00 0.85918072E+02</pdfrwt>
<totfact> 0.11663927E+05</totfact>
</mgrwt>
</event>
<event>
 6    2  0.8544106E+000  0.8421349E+02  0.7546771E-02  0.1317502E+00
         21   -1    0    0  501  502  0.00000000000E+00  0.00000000000E+00  0.42305283827E+01  0.42305283827E+01  0.00000000000E+00 0. -1.
          2   -1    0    0  502    0 -0.00000000000E+00 -0.00000000000E+00 -0.22167208251E+04  0.22167208251E+04  0.00000000000E+00 0. -1.
         24    2    1    2    0    0  0.92057803304E+01  0.29388000943E+02 -0.21462573378E+04  0.21479088601E+04  0.78380547828E+02 0.  0.
        -13    1    3    3    0    0  0.67010987104E+01 -0.47096434696E+01 -0.23685619148E+02  0.25061804004E+02  0.00000000000E+00 0.  1.
         14    1    3    3    0    0  0.25046816200E+01  0.34097644413E+02 -0.21225717186E+04  0.21228470561E+04  0.00000000000E+00 0. -1.
          1    1    1    2  501    0 -0.92057803304E+01 -0.29388000943E+02 -0.66232958875E+02  0.73042493333E+02  0.00000000000E+00 0. -1.
<mgrwt>
<rscale>  1 0.84213486E+02</rscale>
<asrwt>0</asrwt>
<pdfrwt beam="1">  1       21 0.65084940E-03 0.84213486E+02</pdfrwt>
<pdfrwt beam="2">  1        2 0.34103456E+00 0.84213486E+02</pdfrwt>
<totfact> 0.54136185E+05</totfact>
</mgrwt>
</event>
<event>
 6    2  0.8544106E+000  0.9911181E+02  0.7546771E-02  0.1282175E+00
          2   -1    0    0  502    0 -0.00000000000E+00  0.00000000000E+00  0.15447414222E+04  0.15447414222E+04  0.00000000000E+00 0. -1.
         21   -1    0    0  501  502  0.00000000000E+00 -0.00000000000E+00 -0.57130692173E+01  0.57130692173E+01  0.00000000000E+00 0. -1.
         24    2    1    2    0    0 -0.28032493971E+02 -0.44550166525E+02  0.13661562518E+04  0.13697467124E+04  0.83979840082E+02 0.  0.
        -11    1    3    3    0    0 -0.34634086101E+02 -0.29680043169E+02  0.29834051019E+03  0.30180703256E+03  0.00000000000E+00 0.  1.
         12    1    3    3    0    0  0.66015921300E+01 -0.14870123355E+02  0.10678157416E+04  0.10679396798E+04  0.00000000000E+00 0. -1.
          1    1    1    2  501    0  0.28032493971E+02  0.44550166525E+02  0.17287210111E+03  0.18070777902E+03  0.00000000000E+00 0. -1.
<mgrwt>
<rscale>  1 0.99111814E+02</rscale>
<asrwt>0</asrwt>
<pdfrwt beam="1">  1       21 0.87893496E-03 0.99111814E+02</pdfrwt>
<pdfrwt beam="2">  1        2 0.23765219E+00 0.99111814E+02</pdfrwt>
<totfact> 0.74585382E+05</totfact>
</mgrwt>
</event>
<event>
 6    2  0.8544106E+000  0.8464515E+02  0.7546771E-02  0.1316363E+00
          2   -1    0    0  502    0 -0.00000000000E+00  0.00000000000E+00  0.10465440926E+04  0.10465440926E+04  0.00000000000E+00 0. -1.
         21   -1    0    0  501  502  0.00000000000E+00 -0.00000000000E+00 -0.54037651181E+01  0.54037651181E+01  0.00000000000E+00 0. -1.
         24    2    1    2    0    0  0.18632474018E+02  0.21225428112E+02  0.98928743992E+03  0.99290202945E+03  0.79794194171E+02 0.  0.
        -13    1    3    3    0    0 -0.64366336649E+01  0.29007776745E+02  0.13587221814E+03  0.13908321619E+03  0.00000000000E+00 0.  1.
         14    1    3    3    0    0  0.25069107683E+02 -0.77823486330E+01  0.85341522178E+03  0.85381881326E+03  0.00000000000E+00 0. -1.
          1    1    1    2  501    0 -0.18632474018E+02 -0.21225428112E+02  0.51852887537E+02  0.59045828239E+02  0.00000000000E+00 0. -1.
<mgrwt>
<rscale>  1 0.84645149E+02</rscale>
<asrwt>0</asrwt>
<pdfrwt beam="1">  1       21 0.83134931E-03 0.84645149E+02</pdfrwt>
<pdfrwt beam="2">  1        2 0.16100662E+00 0.84645149E+02</pdfrwt>
<totfact> 0.14834744E+06</totfact>
</mgrwt>
</event>
<event>
 6    2  0.8544106E+000  0.8526575E+02  0.7546771E-02  0.1314739E+00
         21   -1    0    0  501  502  0.00000000000E+00  0.00000000000E+00  0.10966735641E+02  0.10966735641E+02  0.00000000000E+00 0. -1.
          2   -1    0    0  502    0 -0.00000000000E+00 -0.00000000000E+00 -0.84093032413E+03  0.84093032413E+03  0.00000000000E+00 0. -1.
         24    2    1    2    0    0 -0.23506392253E+02 -0.14389703223E+02 -0.81700369009E+03  0.82144097660E+03  0.80688502161E+02 0.  0.
        -11    1    3    3    0    0 -0.33504267635E+02  0.12340482978E+02 -0.16527300311E+03  0.16908574460E+03  0.00000000000E+00 0.  1.
         12    1    3    3    0    0  0.99978753821E+01 -0.26730186201E+02 -0.65173068697E+03  0.65235523199E+03  0.00000000000E+00 0. -1.
          1    1    1    2  501    0  0.23506392253E+02  0.14389703223E+02 -0.12959898399E+02  0.30456083171E+02  0.00000000000E+00 0. -1.
<mgrwt>
<rscale>  1 0.85265752E+02</rscale>
<asrwt>0</asrwt>
<pdfrwt beam="1">  1       21 0.16871895E-02 0.85265752E+02</pdfrwt>
<pdfrwt beam="2">  1        2 0.12937394E+00 0.85265752E+02</pdfrwt>
<totfact> 0.65051651E+05</totfact>
</mgrwt>
</event>
<event>
 6    2  0.8544106E+000  0.8318972E+02  0.7546771E-02  0.1320236E+00
         21   -1    0    0  501  502  0.00000000000E+00  0.00000000000E+00  0.12669265352E+03  0.12669265352E+03  0.00000000000E+00 0.  1.
         -1   -1    0    0    0  501 -0.00000000000E+00 -0.00000000000E+00 -0.49742021581E+02  0.49742021581E+02  0.00000000000E+00 0.  1.
         24    2    1    2    0    0  0.15050676199E+02  0.23356951154E+02 -0.11262704020E+02  0.83948661769E+02  0.78412111881E+02 0.  0.
        -11    1    3    3    0    0 -0.79784100504E+01 -0.85305192341E+01 -0.35753829429E+02  0.37613310199E+02  0.00000000000E+00 0.  1.
         12    1    3    3    0    0  0.23029086249E+02  0.31887470388E+02  0.24491125409E+02  0.46335351569E+02  0.00000000000E+00 0. -1.
         -2    1    1    2    0  502 -0.15050676199E+02 -0.23356951154E+02  0.88213335963E+02  0.92486013337E+02  0.00000000000E+00 0.  1.
<mgrwt>
<rscale>  1 0.83189719E+02</rscale>
<asrwt>0</asrwt>
<pdfrwt beam="1">  1       21 0.19491177E-01 0.83189719E+02</pdfrwt>
<pdfrwt beam="2">  1       -1 0.76526188E-02 0.83189719E+02</pdfrwt>
<totfact> 0.18753318E+05</totfact>
</mgrwt>
</event>
<event>
 6    2  0.8544106E+000  0.8809487E+02  0.7546771E-02  0.1307532E+00
          2   -1    0    0  502    0 -0.00000000000E+00  0.00000000000E+00  0.18518047188E+02  0.18518047188E+02  0.00000000000E+00 0. -1.
         21   -1    0    0  501  502  0.00000000000E+00 -0.00000000000E+00 -0.19685844340E+03  0.19685844340E+03  0.00000000000E+00 0.  1.
         24    2    1    2    0    0  0.24737114516E+02 -0.19406385516E+02 -0.11710439610E+03  0.14654059630E+03  0.82293220519E+02 0.  0.
        -11    1    3    3    0    0  0.45911085364E+02  0.92708989667E+01 -0.91036654429E+02  0.10237895182E+03  0.00000000000E+00 0.  1.
         12    1    3    3    0    0 -0.21173970848E+02 -0.28677284482E+02 -0.26067741676E+02  0.44161644476E+02  0.00000000000E+00 0. -1.
          1    1    1    2  501    0 -0.24737114516E+02  0.19406385516E+02 -0.61236000105E+02  0.68835894287E+02  0.00000000000E+00 0. -1.
<mgrwt>
<rscale>  1 0.88094874E+02</rscale>
<asrwt>0</asrwt>
<pdfrwt beam="1">  1       21 0.30285913E-01 0.88094874E+02</pdfrwt>
<pdfrwt beam="2">  1        2 0.28489304E-02 0.88094874E+02</pdfrwt>
<totfact> 0.39388679E+05</totfact>
</mgrwt>
</event>
<event>
 6    2  0.8544106E+000  0.9256998E+02  0.7546771E-02  0.1296745E+00
         -1   -1    0    0    0  501 -0.00000000000E+00  0.00000000000E+00  0.21796579876E+04  0.21796579876E+04  0.00000000000E+00 0.  1.
         21   -1    0    0  501  502  0.00000000000E+00 -0.00000000000E+00 -0.25164593181E+01  0.25164593181E+01  0.00000000000E+00 0.  1.
         24    2    1    2    0    0 -0.14960810456E+02 -0.34599249554E+02  0.19256363457E+04  0.19278600927E+04  0.84547424841E+02 0.  0.
        -11    1    3    3    0    0 -0.45219540149E+02 -0.29273494277E+01  0.12387253556E+04  0.12395539048E+04  0.00000000000E+00 0.  1.
         12    1    3    3    0    0  0.30258729693E+02 -0.31671900127E+02  0.68691099007E+03  0.68830618787E+03  0.00000000000E+00 0. -1.
         -2    1    1    2    0  502  0.14960810456E+02  0.34599249554E+02  0.25150518257E+03  0.25431435425E+03  0.00000000000E+00 0.  1.
<mgrwt>
<rscale>  1 0.92569979E+02</rscale>
<asrwt>0</asrwt>
<pdfrwt beam="1">  1       21 0.38714933E-03 0.92569979E+02</pdfrwt>
<pdfrwt beam="2">  1       -1 0.33533049E+00 0.92569979E+02</pdfrwt>
<totfact> 0.36904032E+04</totfact>
</mgrwt>
</event>
<event>
 6    2  0.8544106E+000  0.8648513E+02  0.7546771E-02  0.1311594E+00
         21   -1    0    0  501  502  0.00000000000E+00  0.00000000000E+00  0.34398589327E+02  0.34398589327E+02  0.00000000000E+00 0.  1.
          2   -1    0    0  502    0 -0.00000000000E+00 -0.00000000000E+00 -0.85051900030E+02  0.85051900030E+02  0.00000000000E+00 0. -1.
         24    2    1    2    0    0 -0.11398744448E+02  0.18274365048E+02 -0.43072183996E+02  0.96617240025E+02  0.83760338126E+02 0.  0.
        -11    1    3    3    0    0 -0.30914313349E+02  0.15418219532E+02  0.13205206113E+02  0.36983695487E+02  0.00000000000E+00 0.  1.
         12    1    3    3    0    0  0.19515568900E+02  0.28561455158E+01 -0.56277390109E+02  0.59633544538E+02  0.00000000000E+00 0. -1.
          1    1    1    2  501    0  0.11398744448E+02 -0.18274365048E+02 -0.75811267072E+01  0.22833249332E+02  0.00000000000E+00 0. -1.
<mgrwt>
<rscale>  1 0.86485132E+02</rscale>
<asrwt>0</asrwt>
<pdfrwt beam="1">  1       21 0.52920907E-02 0.86485132E+02</pdfrwt>
<pdfrwt beam="2">  1        2 0.13084908E-01 0.86485132E+02</pdfrwt>
<totfact> 0.12561695E+06</totfact>
</mgrwt>
</event>
<event>
 6    2  0.8544106E+000  0.8304378E+02  0.7546771E-02  0.1320629E+00
         -1   -1    0    0    0  501 -0.00000000000E+00  0.00000000000E+00  0.54104371715E+03  0.54104371715E+03  0.00000000000E+00 0.  1.
         21   -1    0    0  501  502  0.00000000000E+00 -0.00000000000E+00 -0.86967162710E+01  0.86967162710E+01  0.00000000000E+00 0.  1.
         24    2    1    2    0    0 -0.17133618956E+01 -0.20523510964E+02  0.51806360364E+03  0.52467720242E+03  0.80449482383E+02 0.  0.
        -11    1    3    3    0    0 -0.82619682206E+01 -0.30031196477E+02  0.50912421617E+03  0.51007607312E+03  0.00000000000E+00 0.  1.
         12    1    3    3    0    0  0.65486063250E+01  0.95076855127E+01  0.89393874743E+01  0.14601129306E+02  0.00000000000E+00 0. -1.
         -2    1    1    2    0  502  0.17133618956E+01  0.20523510964E+02  0.14283397237E+02  0.25063230995E+02  0.00000000000E+00 0.  1.
<mgrwt>
<rscale>  1 0.83043780E+02</rscale>
<asrwt>0</asrwt>
<pdfrwt beam="1">  1       21 0.13379568E-02 0.83043780E+02</pdfrwt>
<pdfrwt beam="2">  1       -1 0.83237469E-01 0.83043780E+02</pdfrwt>
<totfact> 0.31014452E+05</totfact>
</mgrwt>
</event>
<event>
 6    2  0.8544106E+000  0.1051633E+03  0.7546771E-02  0.1269798E+00
          2   -1    0    0  502    0 -0.00000000000E+00  0.00000000000E+00  0.10721392196E+04  0.10721392196E+04  0.00000000000E+00 0. -1.
         21   -1    0    0  501  502  0.00000000000E+00 -0.00000000000E+00 -0.14983272648E+02  0.14983272648E+02  0.00000000000E+00 0. -1.
         24    2    1    2    0    0  0.45919074633E+02  0.46425116547E+02  0.98177881389E+03  0.98739503840E+03  0.82434638249E+02 0.  0.
        -11    1    3    3    0    0  0.90538104880E+01  0.38088262081E+02  0.15901065272E+03  0.16375919782E+03  0.00000000000E+00 0.  1.
         12    1    3    3    0    0  0.36865264145E+02  0.83368544660E+01  0.82276816117E+03  0.82363584057E+03  0.00000000000E+00 0. -1.
          1    1    1    2  501    0 -0.45919074633E+02 -0.46425116547E+02  0.75377133023E+02  0.99727453814E+02  0.00000000000E+00 0. -1.
<mgrwt>
<rscale>  1 0.10516331E+03</rscale>
<asrwt>0</asrwt>
<pdfrwt beam="1">  1       21 0.23051197E-02 0.10516331E+03</pdfrwt>
<pdfrwt beam="2">  1        2 0.16494443E+00 0.10516331E+03</pdfrwt>
<totfact> 0.28987617E+05</totfact>
</mgrwt>
</event>
<event>
 6    2  0.8544106E+000  0.9365748E+02  0.7546771E-02  0.1294229E+00
          2   -1    0    0  502    0 -0.00000000000E+00  0.00000000000E+00  0.23509982075E+03  0.23509982075E+03  0.00000000000E+00 0. -1.
         21   -1    0    0  501  502  0.00000000000E+00 -0.00000000000E+00 -0.16912290809E+02  0.16912290809E+02  0.00000000000E+00 0.  1.
         24    2    1    2    0    0  0.74211778062E+01  0.31469118480E+02  0.16694305312E+03  0.19142023337E+03  0.87899621502E+02 0.  0.
        -13    1    3    3    0    0 -0.57565381072E+01 -0.12784475606E+02 -0.38141719149E+01  0.14530259974E+02  0.00000000000E+00 0.  1.
         14    1    3    3    0    0  0.13177715913E+02  0.44253594087E+02  0.17075722503E+03  0.17688997339E+03  0.00000000000E+00 0. -1.
          1    1    1    2  501    0 -0.74211778062E+01 -0.31469118480E+02  0.51244476822E+02  0.60591878191E+02  0.00000000000E+00 0. -1.
<mgrwt>
<rscale>  1 0.93657476E+02</rscale>
<asrwt>0</asrwt>
<pdfrwt beam="1">  1       21 0.26018911E-02 0.93657476E+02</pdfrwt>
<pdfrwt beam="2">  1        2 0.36169201E-01 0.93657476E+02</pdfrwt>
<totfact> 0.13170334E+06</totfact>
</mgrwt>
</event>
<event>
 6    2  0.8544106E+000  0.1276238E+03  0.7546771E-02  0.1231025E+00
         21   -1    0    0  501  502  0.00000000000E+00  0.00000000000E+00  0.78136453707E+02  0.78136453707E+02  0.00000000000E+00 0. -1.
          2   -1    0    0  502    0 -0.00000000000E+00 -0.00000000000E+00 -0.78855587259E+03  0.78855587259E+03  0.00000000000E+00 0. -1.
         24    2    1    2    0    0  0.82293556489E+02  0.45974914505E+02 -0.75265442007E+03  0.76339800153E+03  0.86034356419E+02 0.  0.
        -13    1    3    3    0    0 -0.15121494770E+02 -0.60567559364E+01 -0.70194017321E+02  0.72059308658E+02  0.00000000000E+00 0.  1.
         14    1    3    3    0    0  0.97415051260E+02  0.52031670441E+02 -0.68246040275E+03  0.69133869287E+03  0.00000000000E+00 0. -1.
          1    1    1    2  501    0 -0.82293556489E+02 -0.45974914505E+02  0.42235001190E+02  0.10329432477E+03  0.00000000000E+00 0. -1.
<mgrwt>
<rscale>  1 0.12762379E+03</rscale>
<asrwt>0</asrwt>
<pdfrwt beam="1">  1       21 0.12020993E-01 0.12762379E+03</pdfrwt>
<pdfrwt beam="2">  1        2 0.12131628E+00 0.12762379E+03</pdfrwt>
<totfact> 0.26971570E+04</totfact>
</mgrwt>
</event>
<event>
 6    2  0.8544106E+000  0.8415400E+02  0.7546771E-02  0.1317660E+00
          2   -1    0    0  502    0 -0.00000000000E+00  0.00000000000E+00  0.30736839097E+02  0.30736839097E+02  0.00000000000E+00 0. -1.
         21   -1    0    0  501  502  0.00000000000E+00 -0.00000000000E+00 -0.22587585005E+03  0.22587585005E+03  0.00000000000E+00 0. -1.
         24    2    1    2    0    0 -0.18611207260E+02  0.15574463649E+02 -0.29453658547E+02  0.89159480889E+02  0.80578868675E+02 0.  0.
        -11    1    3    3    0    0 -0.13588186059E+02 -0.31512177491E+02 -0.23132578771E+02  0.41385653688E+02  0.00000000000E+00 0.  1.
         12    1    3    3    0    0 -0.50230212020E+01  0.47086641140E+02 -0.63210797753E+01  0.47773827201E+02  0.00000000000E+00 0. -1.
          1    1    1    2  501    0  0.18611207260E+02 -0.15574463649E+02 -0.16568535241E+03  0.16745320826E+03  0.00000000000E+00 0. -1.
<mgrwt>
<rscale>  1 0.84153996E+02</rscale>
<asrwt>0</asrwt>
<pdfrwt beam="1">  1       21 0.34750129E-01 0.84153996E+02</pdfrwt>
<pdfrwt beam="2">  1        2 0.47287447E-02 0.84153996E+02</pdfrwt>
<totfact> 0.15494829E+05</totfact>
</mgrwt>
</event>
<event>
 6    2  0.8544106E+000  0.8187570E+02  0.7546771E-02  0.1323811E+00
         21   -1    0    0  501  502  0.00000000000E+00  0.00000000000E+00  0.89741951426E+02  0.89741951426E+02  0.00000000000E+00 0. -1.
         -3   -1    0    0    0  501 -0.00000000000E+00 -0.00000000000E+00 -0.32753077938E+02  0.32753077938E+02  0.00000000000E+00 0.  1.
         24    2    1    2    0    0  0.20137014981E+02  0.59825443880E+01  0.27665234126E+02  0.86423350236E+02  0.79134948519E+02 0.  0.
        -11    1    3    3    0    0  0.45286530381E+01 -0.36118747791E+02  0.73321550474E+01  0.37132642486E+02  0.00000000000E+00 0.  1.
         12    1    3    3    0    0  0.15608361943E+02  0.42101292179E+02  0.20333079079E+02  0.49290707750E+02  0.00000000000E+00 0. -1.
         -4    1    1    2    0  502 -0.20137014981E+02 -0.59825443880E+01  0.29323639361E+02  0.36071679128E+02  0.00000000000E+00 0.  1.
<mgrwt>
<rscale>  1 0.81875700E+02</rscale>
<asrwt>0</asrwt>
<pdfrwt beam="1">  1       21 0.13806454E-01 0.81875700E+02</pdfrwt>
<pdfrwt beam="2">  1       -3 0.50389351E-02 0.81875700E+02</pdfrwt>
<totfact> 0.44495959E+05</totfact>
</mgrwt>
</event>
<event>
 6    2  0.8544106E+000  0.8474867E+02  0.7546771E-02  0.1316091E+00
          2   -1    0    0  502    0 -0.00000000000E+00  0.00000000000E+00  0.10618010714E+04  0.10618010714E+04  0.00000000000E+00 0. -1.
         21   -1    0    0  501  502  0.00000000000E+00 -0.00000000000E+00 -0.27709339355E+01  0.27709339355E+01  0.00000000000E+00 0.  1.
         24    2    1    2    0    0  0.84926408647E+01 -0.22159671804E+02  0.82367952841E+03  0.82802796042E+03  0.81358230746E+02 0.  0.
        -11    1    3    3    0    0  0.27839812942E+02 -0.30257366472E+02  0.20984282727E+03  0.21383305537E+03  0.00000000000E+00 0.  1.
         12    1    3    3    0    0 -0.19347172078E+02  0.80976946680E+01  0.61383670113E+03  0.61419490505E+03  0.00000000000E+00 0. -1.
          1    1    1    2  501    0 -0.84926408647E+01  0.22159671804E+02  0.23535060910E+03  0.23654404496E+03  0.00000000000E+00 0. -1.
<mgrwt>
<rscale>  1 0.84748674E+02</rscale>
<asrwt>0</asrwt>
<pdfrwt beam="1">  1       21 0.42629838E-03 0.84748674E+02</pdfrwt>
<pdfrwt beam="2">  1        2 0.16335369E+00 0.84748674E+02</pdfrwt>
<totfact> 0.40607339E+06</totfact>
</mgrwt>
</event>
<event>
 6    2  0.8544106E+000  0.8825374E+02  0.7546771E-02  0.1307136E+00
          2   -1    0    0  502    0 -0.00000000000E+00  0.00000000000E+00  0.15944786508E+04  0.15944786508E+04  0.00000000000E+00 0. -1.
         21   -1    0    0  501  502  0.00000000000E+00 -0.00000000000E+00 -0.63757946423E+01  0.63757946423E+01  0.00000000000E+00 0. -1.
         24    2    1    2    0    0  0.65183466242E+01  0.34441392103E+02  0.15330584854E+04  0.15355966407E+04  0.80993979937E+02 0.  0.
        -11    1    3    3    0    0  0.47420580514E+01 -0.63354716889E+01  0.14742943870E+02  0.16732594241E+02  0.00000000000E+00 0.  1.
         12    1    3    3    0    0  0.17762885728E+01  0.40776863792E+02  0.15183155416E+04  0.15188640465E+04  0.00000000000E+00 0. -1.
          1    1    1    2  501    0 -0.65183466242E+01 -0.34441392103E+02  0.55044370686E+02  0.65257804721E+02  0.00000000000E+00 0. -1.
<mgrwt>
<rscale>  1 0.88253743E+02</rscale>
<asrwt>0</asrwt>
<pdfrwt beam="1">  1       21 0.98089275E-03 0.88253743E+02</pdfrwt>
<pdfrwt beam="2">  1        2 0.24530409E+00 0.88253743E+02</pdfrwt>
<totfact> 0.58956293E+05</totfact>
</mgrwt>
</event>
<event>
 6    2  0.8544106E+000  0.8753535E+02  0.7546771E-02  0.1308932E+00
         21   -1    0    0  501  502  0.00000000000E+00  0.00000000000E+00  0.63317745887E+02  0.63317745887E+02  0.00000000000E+00 0. -1.
          2   -1    0    0  502    0 -0.00000000000E+00 -0.00000000000E+00 -0.73035326504E+02  0.73035326504E+02  0.00000000000E+00 0. -1.
         24    2    1    2    0    0 -0.11705328899E+02  0.33168385555E+02 -0.33682074655E+02  0.93791898777E+02  0.80157854252E+02 0.  0.
        -13    1    3    3    0    0  0.15193679381E+02 -0.14697361177E+01  0.19561140862E+02  0.24812219756E+02  0.00000000000E+00 0.  1.
         14    1    3    3    0    0 -0.26899008279E+02  0.34638121672E+02 -0.53243215517E+02  0.68979679022E+02  0.00000000000E+00 0. -1.
          1    1    1    2  501    0  0.11705328899E+02 -0.33168385555E+02  0.23964494037E+02  0.42561173614E+02  0.00000000000E+00 0. -1.
<mgrwt>
<rscale>  1 0.87535354E+02</rscale>
<asrwt>0</asrwt>
<pdfrwt beam="1">  1       21 0.97411917E-02 0.87535354E+02</pdfrwt>
<pdfrwt beam="2">  1        2 0.11236204E-01 0.87535354E+02</pdfrwt>
<totfact> 0.53520427E+05</totfact>
</mgrwt>
</event>
<event>
 6    2  0.8544106E+000  0.8084941E+02  0.7546771E-02  0.1326658E+00
         -1   -1    0    0    0  501 -0.00000000000E+00  0.00000000000E+00  0.27311666729E+02  0.27311666729E+02  0.00000000000E+00 0.  1.
         21   -1    0    0  501  502  0.00000000000E+00 -0.00000000000E+00 -0.17509207243E+03  0.17509207243E+03  0.00000000000E+00 0.  1.
         24    2    1    2    0    0 -0.13809036581E+02 -0.15331692482E+02 -0.35597720038E+02  0.88339260691E+02  0.78172098743E+02 0.  0.
        -13    1    3    3    0    0  0.11380589021E+02 -0.40252626941E+02 -0.61786158252E+01  0.42284359704E+02  0.00000000000E+00 0.  1.
         14    1    3    3    0    0 -0.25189625602E+02  0.24920934458E+02 -0.29419104213E+02  0.46054900987E+02  0.00000000000E+00 0. -1.
         -2    1    1    2    0  502  0.13809036581E+02  0.15331692482E+02 -0.11218268566E+03  0.11406447847E+03  0.00000000000E+00 0.  1.
<mgrwt>
<rscale>  1 0.80849411E+02</rscale>
<asrwt>0</asrwt>
<pdfrwt beam="1">  1       21 0.26937242E-01 0.80849411E+02</pdfrwt>
<pdfrwt beam="2">  1       -1 0.42017949E-02 0.80849411E+02</pdfrwt>
<totfact> 0.24766877E+05</totfact>
</mgrwt>
</event>
<event>
 6    2  0.8544106E+000  0.9464959E+02  0.7546771E-02  0.1291967E+00
          2   -1    0    0  502    0 -0.00000000000E+00  0.00000000000E+00  0.21261733888E+04  0.21261733888E+04  0.00000000000E+00 0. -1.
         21   -1    0    0  501  502  0.00000000000E+00 -0.00000000000E+00 -0.24721865555E+01  0.24721865555E+01  0.00000000000E+00 0.  1.
         24    2    1    2    0    0  0.29718931365E+02 -0.40642417337E+02  0.13916808349E+04  0.13948957275E+04  0.80146887028E+02 0.  0.
        -11    1    3    3    0    0  0.85640856089E+01 -0.31000764769E+02  0.17127759878E+03  0.17427107283E+03  0.00000000000E+00 0.  1.
         12    1    3    3    0    0  0.21154845756E+02 -0.96416525680E+01  0.12204032361E+04  0.12206246547E+04  0.00000000000E+00 0. -1.
          1    1    1    2  501    0 -0.29718931365E+02  0.40642417337E+02  0.73202036734E+03  0.73374984781E+03  0.00000000000E+00 0. -1.
<mgrwt>
<rscale>  1 0.94649588E+02</rscale>
<asrwt>0</asrwt>
<pdfrwt beam="1">  1       21 0.38033809E-03 0.94649588E+02</pdfrwt>
<pdfrwt beam="2">  1        2 0.32710214E+00 0.94649588E+02</pdfrwt>
<totfact> 0.13767203E+06</totfact>
</mgrwt>
</event>
<event>
 6    2  0.8544106E+000  0.8630180E+02  0.7546771E-02  0.1312063E+00
         21   -1    0    0  501  502  0.00000000000E+00  0.00000000000E+00  0.60906365241E+02  0.60906365241E+02  0.00000000000E+00 0.  1.
          2   -1    0    0  502    0 -0.00000000000E+00 -0.00000000000E+00 -0.66990767911E+02  0.66990767911E+02  0.00000000000E+00 0. -1.
         24    2    1    2    0    0 -0.18516303322E+02  0.23204665562E+02 -0.28294348843E+02  0.90821646621E+02  0.81035124026E+02 0.  0.
        -11    1    3    3    0    0  0.21805000125E+02  0.37578783574E+02 -0.15769674123E+02  0.46220186362E+02  0.00000000000E+00 0.  1.
         12    1    3    3    0    0 -0.40321303448E+02 -0.14374118013E+02 -0.12524674720E+02  0.44601460259E+02  0.00000000000E+00 0. -1.
          1    1    1    2  501    0  0.18516303322E+02 -0.23204665562E+02  0.22209946173E+02  0.37075486532E+02  0.00000000000E+00 0. -1.
<mgrwt>
<rscale>  1 0.86301804E+02</rscale>
<asrwt>0</asrwt>
<pdfrwt beam="1">  1       21 0.93702100E-02 0.86301804E+02</pdfrwt>
<pdfrwt beam="2">  1        2 0.10306272E-01 0.86301804E+02</pdfrwt>
<totfact> 0.63391925E+05</totfact>
</mgrwt>
</event>
<event>
 6    2  0.8544106E+000  0.1020013E+03  0.7546771E-02  0.1276143E+00
         21   -1    0    0  501  502  0.00000000000E+00  0.00000000000E+00  0.16023587731E+02  0.16023587731E+02  0.00000000000E+00 0.  1.
          2   -1    0    0  502    0 -0.00000000000E+00 -0.00000000000E+00 -0.58537418761E+03  0.58537418761E+03  0.00000000000E+00 0. -1.
         24    2    1    2    0    0  0.41257289950E+02 -0.45129184711E+02 -0.17680338312E+03  0.20411686128E+03  0.81642204108E+02 0.  0.
        -11    1    3    3    0    0  0.32350799079E+02  0.80816937813E+01 -0.21416138423E+02  0.39630025995E+02  0.00000000000E+00 0.  1.
         12    1    3    3    0    0  0.89064908717E+01 -0.53210878492E+02 -0.15538724469E+03  0.16448683529E+03  0.00000000000E+00 0. -1.
          1    1    1    2  501    0 -0.41257289950E+02  0.45129184711E+02 -0.39254721676E+03  0.39728091406E+03  0.00000000000E+00 0. -1.
<mgrwt>
<rscale>  1 0.10200126E+03</rscale>
<asrwt>0</asrwt>
<pdfrwt beam="1">  1       21 0.24651672E-02 0.10200126E+03</pdfrwt>
<pdfrwt beam="2">  1        2 0.90057572E-01 0.10200126E+03</pdfrwt>
<totfact> 0.54907842E+05</totfact>
</mgrwt>
</event>
<event>
 6    2  0.8544106E+000  0.2201507E+03  0.7546771E-02  0.1133771E+00
         21   -1    0    0  501  502  0.00000000000E+00  0.00000000000E+00  0.51081536766E+02  0.51081536766E+02  0.00000000000E+00 0.  1.
          2   -1    0    0  502    0 -0.00000000000E+00 -0.00000000000E+00 -0.86118079222E+03  0.86118079222E+03  0.00000000000E+00 0. -1.
         24    2    1    2    0    0  0.11091747646E+03  0.16557695898E+03 -0.43085365570E+03  0.48384005965E+03  0.93530287942E+02 0.  0.
        -13    1    3    3    0    0  0.75701052397E+02  0.16825734900E+03 -0.35145563458E+03  0.39694111391E+03  0.00000000000E+00 0.  1.
         14    1    3    3    0    0  0.35216424064E+02 -0.26803900212E+01 -0.79398021112E+02  0.86898945742E+02  0.00000000000E+00 0. -1.
          1    1    1    2  501    0 -0.11091747646E+03 -0.16557695898E+03 -0.37924559976E+03  0.42842226934E+03  0.00000000000E+00 0. -1.
<mgrwt>
<rscale>  1 0.22015070E+03</rscale>
<asrwt>0</asrwt>
<pdfrwt beam="1">  1       21 0.78586983E-02 0.22015070E+03</pdfrwt>
<pdfrwt beam="2">  1        2 0.13248935E+00 0.22015070E+03</pdfrwt>
<totfact> 0.50397259E+04</totfact>
</mgrwt>
</event>
<event>
 6    2  0.8544106E+000  0.8491305E+02  0.7546771E-02  0.1315660E+00
          2   -1    0    0  502    0 -0.00000000000E+00  0.00000000000E+00  0.13360160774E+04  0.13360160774E+04  0.00000000000E+00 0. -1.
         21   -1    0    0  501  502  0.00000000000E+00 -0.00000000000E+00 -0.51828253789E+01  0.51828253789E+01  0.00000000000E+00 0. -1.
         24    2    1    2    0    0 -0.36296458874E+01 -0.25397645943E+02  0.12911839890E+04  0.12939730750E+04  0.80944491408E+02 0.  0.
        -11    1    3    3    0    0  0.14619936263E+02  0.10067609189E+02  0.72674272714E+02  0.74810755949E+02  0.00000000000E+00 0.  1.
         12    1    3    3    0    0 -0.18249582151E+02 -0.35465255132E+02  0.12185097163E+04  0.12191623191E+04  0.00000000000E+00 0. -1.
          1    1    1    2  501    0  0.36296458874E+01  0.25397645943E+02  0.39649263004E+02  0.47225827738E+02  0.00000000000E+00 0. -1.
<mgrwt>
<rscale>  1 0.84913046E+02</rscale>
<asrwt>0</asrwt>
<pdfrwt beam="1">  1       21 0.79735882E-03 0.84913046E+02</pdfrwt>
<pdfrwt beam="2">  1        2 0.20554066E+00 0.84913046E+02</pdfrwt>
<totfact> 0.11015143E+06</totfact>
</mgrwt>
</event>
<event>
 6    2  0.8544106E+000  0.9007310E+02  0.7546771E-02  0.1302675E+00
         -3   -1    0    0    0  501 -0.00000000000E+00  0.00000000000E+00  0.21844410711E+03  0.21844410711E+03  0.00000000000E+00 0.  1.
         21   -1    0    0  501  502  0.00000000000E+00 -0.00000000000E+00 -0.26722451413E+02  0.26722451413E+02  0.00000000000E+00 0.  1.
         24    2    1    2    0    0  0.24126581363E+02  0.35345112201E+02  0.17922292025E+03  0.20058419348E+03  0.79257773414E+02 0.  0.
        -11    1    3    3    0    0  0.73585580300E+01  0.58445156023E+02  0.14155605705E+03  0.15332352046E+03  0.00000000000E+00 0.  1.
         12    1    3    3    0    0  0.16768023333E+02 -0.23100043822E+02  0.37666863208E+02  0.47260673027E+02  0.00000000000E+00 0. -1.
         -4    1    1    2    0  502 -0.24126581363E+02 -0.35345112201E+02  0.12498735442E+02  0.44582365038E+02  0.00000000000E+00 0.  1.
<mgrwt>
<rscale>  1 0.90073101E+02</rscale>
<asrwt>0</asrwt>
<pdfrwt beam="1">  1       21 0.41111465E-02 0.90073101E+02</pdfrwt>
<pdfrwt beam="2">  1       -3 0.33606785E-01 0.90073101E+02</pdfrwt>
<totfact> 0.14559567E+05</totfact>
</mgrwt>
</event>
<event>
 6    2  0.8674387E+000  0.9666058E+02  0.7546771E-02  0.1287479E+00
         -1   -1    0    0    0  501 -0.00000000000E+00  0.00000000000E+00  0.32268306448E+03  0.32268306448E+03  0.00000000000E+00 0.  1.
         21   -1    0    0  501  502  0.00000000000E+00 -0.00000000000E+00 -0.14003827792E+02  0.14003827792E+02  0.00000000000E+00 0.  1.
         24    2    1    2    0    0  0.25474729201E+01  0.36688588061E+02  0.20416210144E+03  0.22588809411E+03  0.89390856843E+02 0.  0.
        -11    1    3    3    0    0  0.15132938160E+02  0.51967519468E+02  0.19783643088E+03  0.20510700203E+03  0.00000000000E+00 0.  1.
         12    1    3    3    0    0 -0.12585465239E+02 -0.15278931407E+02  0.63256705523E+01  0.20781092083E+02  0.00000000000E+00 0. -1.
         -2    1    1    2    0  502 -0.25474729201E+01 -0.36688588061E+02  0.10451713525E+03  0.11079879816E+03  0.00000000000E+00 0.  1.
<mgrwt>
<rscale>  1 0.96660578E+02</rscale>
<asrwt>0</asrwt>
<pdfrwt beam="1">  1       21 0.21544353E-02 0.96660578E+02</pdfrwt>
<pdfrwt beam="2">  1       -1 0.49643543E-01 0.96660578E+02</pdfrwt>
<totfact> 0.39696794E+05</totfact>
</mgrwt>
</event>
<event>
 6    2  0.8544106E+000  0.8829938E+02  0.7546771E-02  0.1307023E+00
          2   -1    0    0  502    0 -0.00000000000E+00  0.00000000000E+00  0.11175948588E+03  0.11175948588E+03  0.00000000000E+00 0. -1.
         21   -1    0    0  501  502  0.00000000000E+00 -0.00000000000E+00 -0.31624360762E+02  0.31624360762E+02  0.00000000000E+00 0.  1.
         24    2    1    2    0    0  0.14148581657E+02 -0.26062662340E+02  0.67521881929E+02  0.11115748112E+03  0.83170525659E+02 0.  0.
        -13    1    3    3    0    0  0.15795534139E+01 -0.17078271149E+02 -0.17641177610E+02  0.24604338680E+02  0.00000000000E+00 0.  1.
         14    1    3    3    0    0  0.12569028243E+02 -0.89843911908E+01  0.85163059539E+02  0.86553142439E+02  0.00000000000E+00 0. -1.
          1    1    1    2  501    0 -0.14148581657E+02  0.26062662340E+02  0.12613243191E+02  0.32226365525E+02  0.00000000000E+00 0. -1.
<mgrwt>
<rscale>  1 0.88299383E+02</rscale>
<asrwt>0</asrwt>
<pdfrwt beam="1">  1       21 0.48652863E-02 0.88299383E+02</pdfrwt>
<pdfrwt beam="2">  1        2 0.17193767E-01 0.88299383E+02</pdfrwt>
<totfact> 0.10566024E+06</totfact>
</mgrwt>
</event>
<event>
 6    2  0.8544106E+000  0.8407664E+02  0.7546771E-02  0.1317865E+00
         21   -1    0    0  501  502  0.00000000000E+00  0.00000000000E+00  0.12431851042E+01  0.12431851042E+01  0.00000000000E+00 0. -1.
          2   -1    0    0  502    0 -0.00000000000E+00 -0.00000000000E+00 -0.25341463827E+04  0.25341463827E+04  0.00000000000E+00 0. -1.
         24    2    1    2    0    0 -0.68963544195E+01  0.22866106554E+02 -0.22127613133E+04  0.22143580357E+04  0.80613038898E+02 0.  0.
        -13    1    3    3    0    0  0.40108185605E+01 -0.56565985744E+01 -0.16673815786E+02  0.18058236509E+02  0.00000000000E+00 0.  1.
         14    1    3    3    0    0 -0.10907172980E+02  0.28522705128E+02 -0.21960874975E+04  0.21962997992E+04  0.00000000000E+00 0. -1.
          1    1    1    2  501    0  0.68963544195E+01 -0.22866106554E+02 -0.32014188428E+03  0.32103153210E+03  0.00000000000E+00 0. -1.
<mgrwt>
<rscale>  1 0.84076635E+02</rscale>
<asrwt>0</asrwt>
<pdfrwt beam="1">  1       21 0.19126112E-03 0.84076635E+02</pdfrwt>
<pdfrwt beam="2">  1        2 0.38986486E+00 0.84076635E+02</pdfrwt>
<totfact> 0.23791354E+06</totfact>
</mgrwt>
</event>
<event>
 6    2  0.8544106E+000  0.8523220E+02  0.7546771E-02  0.1314826E+00
         21   -1    0    0  501  502  0.00000000000E+00  0.00000000000E+00  0.17093112446E+04  0.17093112446E+04  0.00000000000E+00 0. -1.
          2   -1    0    0  502    0 -0.00000000000E+00 -0.00000000000E+00 -0.23849960697E+01  0.23849960697E+01  0.00000000000E+00 0. -1.
         24    2    1    2    0    0 -0.61944042791E+01  0.20966033769E+02  0.80395313733E+03  0.80845851738E+03  0.82380714315E+02 0.  0.
        -13    1    3    3    0    0 -0.21956335317E+00  0.22212577195E+01  0.76321714851E+03  0.76322041244E+03  0.00000000000E+00 0.  1.
         14    1    3    3    0    0 -0.59748409260E+01  0.18744776049E+02  0.40735988819E+02  0.45238104937E+02  0.00000000000E+00 0. -1.
          1    1    1    2  501    0  0.61944042791E+01 -0.20966033769E+02  0.90297311121E+03  0.90323772329E+03  0.00000000000E+00 0. -1.
<mgrwt>
<rscale>  1 0.85232196E+02</rscale>
<asrwt>0</asrwt>
<pdfrwt beam="1">  1       21 0.26296998E+00 0.85232196E+02</pdfrwt>
<pdfrwt beam="2">  1        2 0.36692384E-03 0.85232196E+02</pdfrwt>
<totfact> 0.40151280E+04</totfact>
</mgrwt>
</event>
<event>
 6    2  0.8544106E+000  0.8445164E+02  0.7546771E-02  0.1316873E+00
         21   -1    0    0  501  502  0.00000000000E+00  0.00000000000E+00  0.17599776561E+03  0.17599776561E+03  0.00000000000E+00 0. -1.
          2   -1    0    0  502    0 -0.00000000000E+00 -0.00000000000E+00 -0.20027210982E+02  0.20027210982E+02  0.00000000000E+00 0. -1.
         24    2    1    2    0    0  0.21069778913E+02  0.14908663898E+02  0.82126556729E+02  0.11780004535E+03  0.80410667954E+02 0.  0.
        -11    1    3    3    0    0 -0.78202446126E+01  0.16265397307E+02  0.86665014313E+02  0.88524257022E+02  0.00000000000E+00 0.  1.
         12    1    3    3    0    0  0.28890023525E+02 -0.13567334087E+01 -0.45384575837E+01  0.29275788325E+02  0.00000000000E+00 0. -1.
          1    1    1    2  501    0 -0.21069778913E+02 -0.14908663898E+02  0.73843997896E+02  0.78224931242E+02  0.00000000000E+00 0. -1.
<mgrwt>
<rscale>  1 0.84451639E+02</rscale>
<asrwt>0</asrwt>
<pdfrwt beam="1">  1       21 0.27076578E-01 0.84451639E+02</pdfrwt>
<pdfrwt beam="2">  1        2 0.30811095E-02 0.84451639E+02</pdfrwt>
<totfact> 0.43726684E+05</totfact>
</mgrwt>
</event>
<event>
 6    2  0.8544106E+000  0.8701990E+02  0.7546771E-02  0.1310233E+00
          2   -1    0    0  502    0 -0.00000000000E+00  0.00000000000E+00  0.43188628136E+03  0.43188628136E+03  0.00000000000E+00 0. -1.
         21   -1    0    0  501  502  0.00000000000E+00 -0.00000000000E+00 -0.36662625939E+02  0.36662625939E+02  0.00000000000E+00 0. -1.
         24    2    1    2    0    0  0.31762012699E+02  0.69780058929E+01  0.41920595555E+03  0.42814261155E+03  0.80715206987E+02 0.  0.
        -13    1    3    3    0    0 -0.14245099272E+02  0.27728950031E+02  0.93765951758E+02  0.98812303041E+02  0.00000000000E+00 0.  1.
         14    1    3    3    0    0  0.46007111971E+02 -0.20750944138E+02  0.32544000379E+03  0.32933030851E+03  0.00000000000E+00 0. -1.
          1    1    1    2  501    0 -0.31762012699E+02 -0.69780058929E+01 -0.23982300127E+02  0.40406295751E+02  0.00000000000E+00 0. -1.
<mgrwt>
<rscale>  1 0.87019898E+02</rscale>
<asrwt>0</asrwt>
<pdfrwt beam="1">  1       21 0.56404043E-02 0.87019898E+02</pdfrwt>
<pdfrwt beam="2">  1        2 0.66444040E-01 0.87019898E+02</pdfrwt>
<totfact> 0.19390910E+05</totfact>
</mgrwt>
</event>
<event>
 6    2  0.8544106E+000  0.8568782E+02  0.7546771E-02  0.1313644E+00
          4   -1    0    0  502    0 -0.00000000000E+00  0.00000000000E+00  0.18078526387E+02  0.18078526387E+02  0.00000000000E+00 0. -1.
         21   -1    0    0  501  502  0.00000000000E+00 -0.00000000000E+00 -0.19914848010E+03  0.19914848010E+03  0.00000000000E+00 0.  1.
         24    2    1    2    0    0 -0.28920515114E+02 -0.11539276506E+02 -0.15272123843E+03  0.17511761614E+03  0.79830142925E+02 0.  0.
        -13    1    3    3    0    0 -0.52948869243E+02 -0.20951015522E+01 -0.66030139649E+02  0.84663755803E+02  0.00000000000E+00 0.  1.
         14    1    3    3    0    0  0.24028354128E+02 -0.94441749533E+01 -0.86691098783E+02  0.90453860342E+02  0.00000000000E+00 0. -1.
          3    1    1    2  501    0  0.28920515114E+02  0.11539276506E+02 -0.28348715278E+02  0.42109390338E+02  0.00000000000E+00 0. -1.
<mgrwt>
<rscale>  1 0.85687822E+02</rscale>
<asrwt>0</asrwt>
<pdfrwt beam="1">  1       21 0.30638228E-01 0.85687822E+02</pdfrwt>
<pdfrwt beam="2">  1        4 0.27813118E-02 0.85687822E+02</pdfrwt>
<totfact> 0.23228253E+05</totfact>
</mgrwt>
</event>
<event>
 6    2  0.8544106E+000  0.9944332E+02  0.7546771E-02  0.1281471E+00
         21   -1    0    0  501  502  0.00000000000E+00  0.00000000000E+00  0.76032247223E+01  0.76032247223E+01  0.00000000000E+00 0.  1.
          2   -1    0    0  502    0 -0.00000000000E+00 -0.00000000000E+00 -0.11534351225E+04  0.11534351225E+04  0.00000000000E+00 0. -1.
         24    2    1    2    0    0  0.55197381032E+02 -0.15334708776E+02 -0.99049277640E+03  0.99547220698E+03  0.81283888897E+02 0.  0.
        -13    1    3    3    0    0  0.35495883819E+02 -0.28815075143E+02 -0.22452795963E+03  0.22913548608E+03  0.00000000000E+00 0.  1.
         14    1    3    3    0    0  0.19701497213E+02  0.13480366367E+02 -0.76596481677E+03  0.76633672090E+03  0.00000000000E+00 0. -1.
          1    1    1    2  501    0 -0.55197381032E+02  0.15334708776E+02 -0.15533912139E+03  0.16556614026E+03  0.00000000000E+00 0. -1.
<mgrwt>
<rscale>  1 0.99443324E+02</rscale>
<asrwt>0</asrwt>
<pdfrwt beam="1">  1       21 0.11697269E-02 0.99443324E+02</pdfrwt>
<pdfrwt beam="2">  1        2 0.17745155E+00 0.99443324E+02</pdfrwt>
<totfact> 0.76688261E+05</totfact>
</mgrwt>
</event>
<event>
 6    2  0.8544106E+000  0.8557635E+02  0.7546771E-02  0.1313932E+00
          2   -1    0    0  502    0 -0.00000000000E+00  0.00000000000E+00  0.11738679932E+03  0.11738679932E+03  0.00000000000E+00 0. -1.
         21   -1    0    0  501  502  0.00000000000E+00 -0.00000000000E+00 -0.28388776889E+02  0.28388776889E+02  0.00000000000E+00 0. -1.
         24    2    1    2    0    0  0.21696478457E+01  0.28977355027E+02  0.73690190039E+02  0.11293163904E+03  0.80491717040E+02 0.  0.
        -11    1    3    3    0    0  0.32434029008E+02 -0.35557953043E+01  0.79488476893E+01  0.33582645779E+02  0.00000000000E+00 0.  1.
         12    1    3    3    0    0 -0.30264381162E+02  0.32533150331E+02  0.65741342349E+02  0.79348993261E+02  0.00000000000E+00 0. -1.
          1    1    1    2  501    0 -0.21696478457E+01 -0.28977355027E+02  0.15307832389E+02  0.32843937166E+02  0.00000000000E+00 0. -1.
<mgrwt>
<rscale>  1 0.85576346E+02</rscale>
<asrwt>0</asrwt>
<pdfrwt beam="1">  1       21 0.43675042E-02 0.85576346E+02</pdfrwt>
<pdfrwt beam="2">  1        2 0.18059507E-01 0.85576346E+02</pdfrwt>
<totfact> 0.11906444E+06</totfact>
</mgrwt>
</event>
<event>
 6    2  0.8736220E+000  0.8472652E+02  0.7546771E-02  0.1316149E+00
         -3   -1    0    0    0  501 -0.00000000000E+00  0.00000000000E+00  0.31642194171E+03  0.31642194171E+03  0.00000000000E+00 0.  1.
         21   -1    0    0  501  502  0.00000000000E+00 -0.00000000000E+00 -0.14182347504E+02  0.14182347504E+02  0.00000000000E+00 0. -1.
         24    2    1    2    0    0 -0.28262609036E+02 -0.28490968945E+01  0.12441170222E+03  0.15052194252E+03  0.79822873341E+02 0.  0.
        -11    1    3    3    0    0 -0.15643841958E+02 -0.32975144092E+02  0.10793586129E+03  0.11393963345E+03  0.00000000000E+00 0.  1.
         12    1    3    3    0    0 -0.12618767078E+02  0.30126047198E+02  0.16475840929E+02  0.36582309067E+02  0.00000000000E+00 0. -1.
         -4    1    1    2    0  502  0.28262609036E+02  0.28490968945E+01  0.17782789198E+03  0.18008234669E+03  0.00000000000E+00 0.  1.
<mgrwt>
<rscale>  1 0.84726522E+02</rscale>
<asrwt>0</asrwt>
<pdfrwt beam="1">  1       21 0.21818999E-02 0.84726522E+02</pdfrwt>
<pdfrwt beam="2">  1       -3 0.48680293E-01 0.84726522E+02</pdfrwt>
<totfact> 0.19876479E+05</totfact>
</mgrwt>
</event>
<event>
 6    2  0.8544106E+000  0.9158885E+02  0.7546771E-02  0.1299049E+00
          2   -1    0    0  502    0 -0.00000000000E+00  0.00000000000E+00  0.44108854211E+04  0.44108854211E+04  0.00000000000E+00 0. -1.
         21   -1    0    0  501  502  0.00000000000E+00 -0.00000000000E+00 -0.11639102011E+01  0.11639102011E+01  0.00000000000E+00 0.  1.
         24    2    1    2    0    0 -0.39951739909E+01  0.42267578339E+02  0.36447384412E+04  0.36458890305E+04  0.81154225910E+02 0.  0.
        -13    1    3    3    0    0 -0.19887591235E+02  0.19503623023E+02  0.37514484064E+03  0.37617756320E+03  0.00000000000E+00 0.  1.
         14    1    3    3    0    0  0.15892417244E+02  0.22763955316E+02  0.32695936005E+04  0.32697114673E+04  0.00000000000E+00 0. -1.
          1    1    1    2  501    0  0.39951739909E+01 -0.42267578339E+02  0.76498306971E+03  0.76616030081E+03  0.00000000000E+00 0. -1.
<mgrwt>
<rscale>  1 0.91588853E+02</rscale>
<asrwt>0</asrwt>
<pdfrwt beam="1">  1       21 0.17906664E-03 0.91588853E+02</pdfrwt>
<pdfrwt beam="2">  1        2 0.67858437E+00 0.91588853E+02</pdfrwt>
<totfact> 0.15673488E+05</totfact>
</mgrwt>
</event>
<event>
 6    2  0.8544106E+000  0.8871865E+02  0.7546771E-02  0.1305985E+00
         -1   -1    0    0    0  501 -0.00000000000E+00  0.00000000000E+00  0.11955816175E+03  0.11955816175E+03  0.00000000000E+00 0.  1.
         21   -1    0    0  501  502  0.00000000000E+00 -0.00000000000E+00 -0.35995332700E+02  0.35995332700E+02  0.00000000000E+00 0. -1.
         24    2    1    2    0    0  0.14862187881E+02  0.39713638301E+02  0.59070439287E+02  0.10658478146E+03  0.77929077661E+02 0.  0.
        -13    1    3    3    0    0  0.74706719300E+01 -0.15467364599E+02  0.46413924194E+02  0.49490430043E+02  0.00000000000E+00 0.  1.
         14    1    3    3    0    0  0.73915159505E+01  0.55181002900E+02  0.12656515092E+02  0.57094351414E+02  0.00000000000E+00 0. -1.
         -2    1    1    2    0  502 -0.14862187881E+02 -0.39713638301E+02  0.24492389761E+02  0.48968712990E+02  0.00000000000E+00 0.  1.
<mgrwt>
<rscale>  1 0.88718650E+02</rscale>
<asrwt>0</asrwt>
<pdfrwt beam="1">  1       21 0.55377436E-02 0.88718650E+02</pdfrwt>
<pdfrwt beam="2">  1       -1 0.18393563E-01 0.88718650E+02</pdfrwt>
<totfact> 0.44165235E+05</totfact>
</mgrwt>
</event>
<event>
 6    2  0.8544106E+000  0.8686518E+02  0.7546771E-02  0.1310626E+00
          2   -1    0    0  502    0 -0.00000000000E+00  0.00000000000E+00  0.85688905125E+03  0.85688905125E+03  0.00000000000E+00 0. -1.
         21   -1    0    0  501  502  0.00000000000E+00 -0.00000000000E+00 -0.44720651010E+01  0.44720651010E+01  0.00000000000E+00 0. -1.
         24    2    1    2    0    0  0.77515181666E+01  0.28709702146E+02  0.73986561267E+03  0.74494743716E+03  0.81616335901E+02 0.  0.
        -13    1    3    3    0    0 -0.28653068156E+02  0.70760743291E+01  0.11776000489E+03  0.12140217417E+03  0.00000000000E+00 0.  1.
         14    1    3    3    0    0  0.36404586323E+02  0.21633627816E+02  0.62210560778E+03  0.62354526299E+03  0.00000000000E+00 0. -1.
          1    1    1    2  501    0 -0.77515181666E+01 -0.28709702146E+02  0.11255137348E+03  0.11641367919E+03  0.00000000000E+00 0. -1.
<mgrwt>
<rscale>  1 0.86865179E+02</rscale>
<asrwt>0</asrwt>
<pdfrwt beam="1">  1       21 0.68801069E-03 0.86865179E+02</pdfrwt>
<pdfrwt beam="2">  1        2 0.13182895E+00 0.86865179E+02</pdfrwt>
<totfact> 0.25914386E+06</totfact>
</mgrwt>
</event>
<event>
 6    2  0.8544106E+000  0.1099288E+03  0.7546771E-02  0.1260702E+00
         -1   -1    0    0    0  501 -0.00000000000E+00  0.00000000000E+00  0.20212680134E+03  0.20212680134E+03  0.00000000000E+00 0.  1.
         21   -1    0    0  501  502  0.00000000000E+00 -0.00000000000E+00 -0.84808838460E+02  0.84808838460E+02  0.00000000000E+00 0.  1.
         24    2    1    2    0    0 -0.40571703173E+02 -0.20345413795E+02  0.17917739998E+03  0.21021153068E+03  0.10012166601E+03 0.  0.
        -11    1    3    3    0    0  0.20919623396E+02 -0.22745868329E+02  0.12321948126E+03  0.12703560813E+03  0.00000000000E+00 0.  1.
         12    1    3    3    0    0 -0.61491326569E+02  0.24004545338E+01  0.55957918722E+02  0.83175922555E+02  0.00000000000E+00 0. -1.
         -2    1    1    2    0  502  0.40571703173E+02  0.20345413795E+02 -0.61859437107E+02  0.76724109118E+02  0.00000000000E+00 0.  1.
<mgrwt>
<rscale>  1 0.10992883E+03</rscale>
<asrwt>0</asrwt>
<pdfrwt beam="1">  1       21 0.13047514E-01 0.10992883E+03</pdfrwt>
<pdfrwt beam="2">  1       -1 0.31096431E-01 0.10992883E+03</pdfrwt>
<totfact> 0.43765512E+04</totfact>
</mgrwt>
</event>
<event>
 6    2  0.8544106E+000  0.9509612E+02  0.7546771E-02  0.1290960E+00
         21   -1    0    0  501  502  0.00000000000E+00  0.00000000000E+00  0.14541060942E+02  0.14541060942E+02  0.00000000000E+00 0. -1.
          2   -1    0    0  502    0 -0.00000000000E+00 -0.00000000000E+00 -0.75754047853E+03  0.75754047853E+03  0.00000000000E+00 0. -1.
         24    2    1    2    0    0  0.19467510259E+02  0.46099235562E+02 -0.69902603512E+03  0.70546486107E+03  0.80865004567E+02 0.  0.
        -13    1    3    3    0    0  0.16239314314E+02  0.37478081120E+02 -0.12787940600E+03  0.13424404781E+03  0.00000000000E+00 0.  1.
         14    1    3    3    0    0  0.32281959450E+01  0.86211544422E+01 -0.57114662912E+03  0.57122081326E+03  0.00000000000E+00 0. -1.
          1    1    1    2  501    0 -0.19467510259E+02 -0.46099235562E+02 -0.43973382474E+02  0.66616678401E+02  0.00000000000E+00 0. -1.
<mgrwt>
<rscale>  1 0.95096122E+02</rscale>
<asrwt>0</asrwt>
<pdfrwt beam="1">  1       21 0.22370852E-02 0.95096122E+02</pdfrwt>
<pdfrwt beam="2">  1        2 0.11654475E+00 0.95096122E+02</pdfrwt>
<totfact> 0.47443227E+05</totfact>
</mgrwt>
</event>
<event>
 6    2  0.8544106E+000  0.1044781E+03  0.7546771E-02  0.1271151E+00
         21   -1    0    0  501  502  0.00000000000E+00  0.00000000000E+00  0.75835410196E+01  0.75835410196E+01  0.00000000000E+00 0. -1.
          2   -1    0    0  502    0 -0.00000000000E+00 -0.00000000000E+00 -0.94597814018E+03  0.94597814018E+03  0.00000000000E+00 0. -1.
         24    2    1    2    0    0  0.31580763496E+02  0.28118421348E+02 -0.83991162874E+03  0.84638479141E+03  0.95538896770E+02 0.  0.
        -13    1    3    3    0    0 -0.84682063700E+01  0.46010586670E+02 -0.21979680202E+03  0.22472053485E+03  0.00000000000E+00 0.  1.
         14    1    3    3    0    0  0.40048969866E+02 -0.17892165323E+02 -0.62011482672E+03  0.62166425656E+03  0.00000000000E+00 0. -1.
          1    1    1    2  501    0 -0.31580763496E+02 -0.28118421348E+02 -0.98482970419E+02  0.10717688979E+03  0.00000000000E+00 0. -1.
<mgrwt>
<rscale>  1 0.10447809E+03</rscale>
<asrwt>0</asrwt>
<pdfrwt beam="1">  1       21 0.11666986E-02 0.10447809E+03</pdfrwt>
<pdfrwt beam="2">  1        2 0.14553510E+00 0.10447809E+03</pdfrwt>
<totfact> 0.10181443E+06</totfact>
</mgrwt>
</event>
<event>
 6    2  0.8544106E+000  0.7964729E+02  0.7546771E-02  0.1330055E+00
          2   -1    0    0  502    0 -0.00000000000E+00  0.00000000000E+00  0.15815417611E+04  0.15815417611E+04  0.00000000000E+00 0. -1.
         21   -1    0    0  501  502  0.00000000000E+00 -0.00000000000E+00 -0.16761301956E+01  0.16761301956E+01  0.00000000000E+00 0. -1.
         24    2    1    2    0    0  0.20982077938E+02 -0.21631788548E+01  0.13642374616E+04  0.13665604789E+04  0.76803411319E+02 0.  0.
        -11    1    3    3    0    0 -0.22393021818E+02 -0.22041021475E+02  0.61932841440E+03  0.62012493817E+03  0.00000000000E+00 0.  1.
         12    1    3    3    0    0  0.43375099757E+02  0.19877842620E+02  0.74490904719E+03  0.74643554075E+03  0.00000000000E+00 0. -1.
          1    1    1    2  501    0 -0.20982077938E+02  0.21631788548E+01  0.21562816929E+03  0.21665741235E+03  0.00000000000E+00 0. -1.
<mgrwt>
<rscale>  1 0.79647291E+02</rscale>
<asrwt>0</asrwt>
<pdfrwt beam="1">  1       21 0.25786745E-03 0.79647291E+02</pdfrwt>
<pdfrwt beam="2">  1        2 0.24331292E+00 0.79647291E+02</pdfrwt>
<totfact> 0.45901504E+06</totfact>
</mgrwt>
</event>
<event>
 6    2  0.8544106E+000  0.1075547E+03  0.7546771E-02  0.1265166E+00
         21   -1    0    0  501  502  0.00000000000E+00  0.00000000000E+00  0.78170338937E+03  0.78170338937E+03  0.00000000000E+00 0.  1.
          2   -1    0    0  502    0 -0.00000000000E+00 -0.00000000000E+00 -0.12878829547E+02  0.12878829547E+02  0.00000000000E+00 0. -1.
         24    2    1    2    0    0  0.38269971460E+02 -0.45687455069E+02  0.24746895855E+03  0.26983123298E+03  0.89532533631E+02 0.  0.
        -11    1    3    3    0    0  0.24521364244E+02 -0.49401932158E+02  0.24943042422E+03  0.25545524996E+03  0.00000000000E+00 0.  1.
         12    1    3    3    0    0  0.13748607216E+02  0.37144770892E+01 -0.19614656619E+01  0.14375983026E+02  0.00000000000E+00 0. -1.
          1    1    1    2  501    0 -0.38269971460E+02  0.45687455069E+02  0.52135560127E+03  0.52475098594E+03  0.00000000000E+00 0. -1.
<mgrwt>
<rscale>  1 0.10755468E+03</rscale>
<asrwt>0</asrwt>
<pdfrwt beam="1">  1       21 0.12026202E+00 0.10755468E+03</pdfrwt>
<pdfrwt beam="2">  1        2 0.19813590E-02 0.10755468E+03</pdfrwt>
<totfact> 0.34526596E+04</totfact>
</mgrwt>
</event>
<event>
 6    2  0.8544106E+000  0.9021368E+02  0.7546771E-02  0.1302335E+00
         21   -1    0    0  501  502  0.00000000000E+00  0.00000000000E+00  0.63091295520E+01  0.63091295520E+01  0.00000000000E+00 0.  1.
          2   -1    0    0  502    0 -0.00000000000E+00 -0.00000000000E+00 -0.97158393964E+03  0.97158393964E+03  0.00000000000E+00 0. -1.
         24    2    1    2    0    0 -0.32028635011E+02 -0.32095896438E+02 -0.36787784627E+03  0.37877779446E+03  0.77990562101E+02 0.  0.
        -11    1    3    3    0    0 -0.56820822705E+02 -0.30272456776E+02 -0.28858609266E+03  0.29568050394E+03  0.00000000000E+00 0.  1.
         12    1    3    3    0    0  0.24792187694E+02 -0.18234396614E+01 -0.79291753604E+02  0.83097290524E+02  0.00000000000E+00 0. -1.
          1    1    1    2  501    0  0.32028635011E+02  0.32095896438E+02 -0.59739696382E+03  0.59911527472E+03  0.00000000000E+00 0. -1.
<mgrwt>
<rscale>  1 0.90213679E+02</rscale>
<asrwt>0</asrwt>
<pdfrwt beam="1">  1       21 0.97063497E-03 0.90213679E+02</pdfrwt>
<pdfrwt beam="2">  1        2 0.14947450E+00 0.90213679E+02</pdfrwt>
<totfact> 0.12962867E+06</totfact>
</mgrwt>
</event>
<event>
 6    2  0.8544106E+000  0.8317036E+02  0.7546771E-02  0.1320288E+00
         21   -1    0    0  501  502  0.00000000000E+00  0.00000000000E+00  0.81310738644E+03  0.81310738644E+03  0.00000000000E+00 0.  1.
         -1   -1    0    0    0  501 -0.00000000000E+00 -0.00000000000E+00 -0.53653471101E+01  0.53653471101E+01  0.00000000000E+00 0.  1.
         24    2    1    2    0    0  0.14542053904E+02  0.13845889878E+02  0.33035722802E+03  0.34066582897E+03  0.80710153774E+02 0.  0.
        -11    1    3    3    0    0  0.11544857217E+02  0.47422382397E+02  0.17397974006E+03  0.18069619817E+03  0.00000000000E+00 0.  1.
         12    1    3    3    0    0  0.29971966870E+01 -0.33576492518E+02  0.15637748796E+03  0.15996963080E+03  0.00000000000E+00 0. -1.
         -2    1    1    2    0  502 -0.14542053904E+02 -0.13845889878E+02  0.47738481131E+03  0.47780690458E+03  0.00000000000E+00 0.  1.
<mgrwt>
<rscale>  1 0.83170361E+02</rscale>
<asrwt>0</asrwt>
<pdfrwt beam="1">  1       21 0.12509335E+00 0.83170361E+02</pdfrwt>
<pdfrwt beam="2">  1       -1 0.82543866E-03 0.83170361E+02</pdfrwt>
<totfact> 0.99057354E+04</totfact>
</mgrwt>
</event>
<event>
 6    2  0.8544106E+000  0.8196739E+02  0.7546771E-02  0.1323559E+00
         21   -1    0    0  501  502  0.00000000000E+00  0.00000000000E+00  0.51499819744E+01  0.51499819744E+01  0.00000000000E+00 0. -1.
          2   -1    0    0  502    0 -0.00000000000E+00 -0.00000000000E+00 -0.93634623323E+03  0.93634623323E+03  0.00000000000E+00 0. -1.
         24    2    1    2    0    0 -0.16775010727E+02 -0.10917438846E+02 -0.90410727471E+03  0.90781529915E+03  0.79486236130E+02 0.  0.
        -13    1    3    3    0    0 -0.11881959175E+02  0.33402231588E+01 -0.19488815667E+02  0.23068419554E+02  0.00000000000E+00 0.  1.
         14    1    3    3    0    0 -0.48930515523E+01 -0.14257662004E+02 -0.88461845905E+03  0.88474687960E+03  0.00000000000E+00 0. -1.
          1    1    1    2  501    0  0.16775010727E+02  0.10917438846E+02 -0.27088976544E+02  0.33680916051E+02  0.00000000000E+00 0. -1.
<mgrwt>
<rscale>  1 0.81967391E+02</rscale>
<asrwt>0</asrwt>
<pdfrwt beam="1">  1       21 0.79230493E-03 0.81967391E+02</pdfrwt>
<pdfrwt beam="2">  1        2 0.14405326E+00 0.81967391E+02</pdfrwt>
<totfact> 0.18492197E+06</totfact>
</mgrwt>
</event>
<event>
 6    2  0.8544106E+000  0.1004663E+03  0.7546771E-02  0.1279319E+00
          2   -1    0    0  502    0 -0.00000000000E+00  0.00000000000E+00  0.10164540925E+04  0.10164540925E+04  0.00000000000E+00 0. -1.
         21   -1    0    0  501  502  0.00000000000E+00 -0.00000000000E+00 -0.98367904480E+01  0.98367904480E+01  0.00000000000E+00 0. -1.
         24    2    1    2    0    0  0.39662769829E+02 -0.48721073434E+02  0.87162146589E+03  0.87739241389E+03  0.78400190319E+02 0.  0.
        -11    1    3    3    0    0  0.25498313031E+01 -0.28629834340E+02  0.86762986922E+02  0.91400136508E+02  0.00000000000E+00 0.  1.
         12    1    3    3    0    0  0.37112938526E+02 -0.20091239094E+02  0.78485847897E+03  0.78599227738E+03  0.00000000000E+00 0. -1.
          1    1    1    2  501    0 -0.39662769829E+02  0.48721073434E+02  0.13499583616E+03  0.14889846906E+03  0.00000000000E+00 0. -1.
<mgrwt>
<rscale>  1 0.10046625E+03</rscale>
<asrwt>0</asrwt>
<pdfrwt beam="1">  1       21 0.15133532E-02 0.10046625E+03</pdfrwt>
<pdfrwt beam="2">  1        2 0.15637747E+00 0.10046625E+03</pdfrwt>
<totfact> 0.61089246E+05</totfact>
</mgrwt>
</event>
<event>
 6    2  0.8544106E+000  0.9234037E+02  0.7546771E-02  0.1297281E+00
          2   -1    0    0  502    0 -0.00000000000E+00  0.00000000000E+00  0.13714310227E+04  0.13714310227E+04  0.00000000000E+00 0. -1.
         21   -1    0    0  501  502  0.00000000000E+00 -0.00000000000E+00 -0.11298691639E+02  0.11298691639E+02  0.00000000000E+00 0.  1.
         24    2    1    2    0    0  0.36130190086E+01 -0.44541762709E+02  0.13182592640E+04  0.13214893986E+04  0.80806688104E+02 0.  0.
        -13    1    3    3    0    0  0.24603492580E+02 -0.31771897987E+02  0.12015590573E+04  0.12022308237E+04  0.00000000000E+00 0.  1.
         14    1    3    3    0    0 -0.20990473571E+02 -0.12769864722E+02  0.11670020675E+03  0.11925857488E+03  0.00000000000E+00 0. -1.
          1    1    1    2  501    0 -0.36130190086E+01  0.44541762709E+02  0.41873067050E+02  0.61240315771E+02  0.00000000000E+00 0. -1.
<mgrwt>
<rscale>  1 0.92340367E+02</rscale>
<asrwt>0</asrwt>
<pdfrwt beam="1">  1       21 0.17382613E-02 0.92340367E+02</pdfrwt>
<pdfrwt beam="2">  1        2 0.21098926E+00 0.92340367E+02</pdfrwt>
<totfact> 0.31185499E+05</totfact>
</mgrwt>
</event>
<event>
 6    2  0.8544106E+000  0.9075548E+02  0.7546771E-02  0.1301032E+00
         21   -1    0    0  501  502  0.00000000000E+00  0.00000000000E+00  0.15172776140E+02  0.15172776140E+02  0.00000000000E+00 0. -1.
          2   -1    0    0  502    0 -0.00000000000E+00 -0.00000000000E+00 -0.69452346443E+03  0.69452346443E+03  0.00000000000E+00 0. -1.
         24    2    1    2    0    0  0.10707440560E+01  0.20684732432E+02 -0.68270767765E+03  0.68871353278E+03  0.88360355662E+02 0.  0.
        -11    1    3    3    0    0  0.19201108609E+02  0.13870466797E+02 -0.46264727264E+02  0.51975931062E+02  0.00000000000E+00 0.  1.
         12    1    3    3    0    0 -0.18130364553E+02  0.68142656344E+01 -0.63644295039E+03  0.63673760171E+03  0.00000000000E+00 0. -1.
          1    1    1    2  501    0 -0.10707440560E+01 -0.20684732432E+02  0.33569893679E+01  0.20982707791E+02  0.00000000000E+00 0. -1.
<mgrwt>
<rscale>  1 0.90755480E+02</rscale>
<asrwt>0</asrwt>
<pdfrwt beam="1">  1       21 0.23342727E-02 0.90755480E+02</pdfrwt>
<pdfrwt beam="2">  1        2 0.10684979E+00 0.90755480E+02</pdfrwt>
<totfact> 0.48939985E+05</totfact>
</mgrwt>
</event>
<event>
 6    2  0.8544106E+000  0.7521332E+02  0.7546771E-02  0.1343212E+00
         -3   -1    0    0    0  501 -0.00000000000E+00  0.00000000000E+00  0.19308323896E+03  0.19308323896E+03  0.00000000000E+00 0.  1.
         21   -1    0    0  501  502  0.00000000000E+00 -0.00000000000E+00 -0.14088388566E+02  0.14088388566E+02  0.00000000000E+00 0. -1.
         24    2    1    2    0    0 -0.32091684039E+01  0.21480450444E+02  0.16500080092E+03  0.18133479464E+03  0.72009269733E+02 0.  0.
        -11    1    3    3    0    0 -0.16254931430E+02  0.25319943557E+02  0.16501503451E+03  0.16773575633E+03  0.00000000000E+00 0.  1.
         12    1    3    3    0    0  0.13045763026E+02 -0.38394931128E+01 -0.14233584648E-01  0.13599038308E+02  0.00000000000E+00 0. -1.
         -4    1    1    2    0  502  0.32091684039E+01 -0.21480450444E+02  0.13994049470E+02  0.25836832889E+02  0.00000000000E+00 0.  1.
<mgrwt>
<rscale>  1 0.75213320E+02</rscale>
<asrwt>0</asrwt>
<pdfrwt beam="1">  1       21 0.21674445E-02 0.75213320E+02</pdfrwt>
<pdfrwt beam="2">  1       -3 0.29705112E-01 0.75213320E+02</pdfrwt>
<totfact> 0.50044864E+05</totfact>
</mgrwt>
</event>
<event>
 6    2  0.8544106E+000  0.8394458E+02  0.7546771E-02  0.1318216E+00
          2   -1    0    0  502    0 -0.00000000000E+00  0.00000000000E+00  0.15992865842E+04  0.15992865842E+04  0.00000000000E+00 0. -1.
         21   -1    0    0  501  502  0.00000000000E+00 -0.00000000000E+00 -0.17915663273E+01  0.17915663273E+01  0.00000000000E+00 0.  1.
         24    2    1    2    0    0  0.26505660859E+01 -0.22822010362E+02  0.12861814281E+04  0.12889179018E+04  0.80739223077E+02 0.  0.
        -11    1    3    3    0    0 -0.30384515569E+02 -0.24989017675E+02  0.35965620896E+03  0.36180140746E+03  0.00000000000E+00 0.  1.
         12    1    3    3    0    0  0.33035081655E+02  0.21670073133E+01  0.92652521910E+03  0.92711649439E+03  0.00000000000E+00 0. -1.
          1    1    1    2  501    0 -0.26505660859E+01  0.22822010362E+02  0.31131358977E+03  0.31216024864E+03  0.00000000000E+00 0. -1.
<mgrwt>
<rscale>  1 0.83944576E+02</rscale>
<asrwt>0</asrwt>
<pdfrwt beam="1">  1       21 0.27562687E-03 0.83944576E+02</pdfrwt>
<pdfrwt beam="2">  1        2 0.24604295E+00 0.83944576E+02</pdfrwt>
<totfact> 0.40888332E+06</totfact>
</mgrwt>
</event>
<event>
 6    2  0.8544106E+000  0.8382193E+02  0.7546771E-02  0.1318542E+00
         21   -1    0    0  501  502  0.00000000000E+00  0.00000000000E+00  0.29250996185E+03  0.29250996185E+03  0.00000000000E+00 0. -1.
          4   -1    0    0  502    0 -0.00000000000E+00 -0.00000000000E+00 -0.13175486579E+02  0.13175486579E+02  0.00000000000E+00 0. -1.
         24    2    1    2    0    0 -0.18791813323E+01 -0.25732694529E+02  0.13384539600E+03  0.15792626909E+03  0.79752200909E+02 0.  0.
        -11    1    3    3    0    0  0.81583315706E+01  0.27613582234E+02  0.36740050935E+02  0.46678685077E+02  0.00000000000E+00 0.  1.
         12    1    3    3    0    0 -0.10037512903E+02 -0.53346276763E+02  0.97105345061E+02  0.11124758401E+03  0.00000000000E+00 0. -1.
          3    1    1    2  501    0  0.18791813323E+01  0.25732694529E+02  0.14548907927E+03  0.14775917934E+03  0.00000000000E+00 0. -1.
<mgrwt>
<rscale>  1 0.83821933E+02</rscale>
<asrwt>0</asrwt>
<pdfrwt beam="1">  1       21 0.45001528E-01 0.83821933E+02</pdfrwt>
<pdfrwt beam="2">  1        4 0.20269982E-02 0.83821933E+02</pdfrwt>
<totfact> 0.17724368E+05</totfact>
</mgrwt>
</event>
<event>
 6    2  0.8544106E+000  0.8717606E+02  0.7546771E-02  0.1309838E+00
          2   -1    0    0  502    0 -0.00000000000E+00  0.00000000000E+00  0.15453323387E+03  0.15453323387E+03  0.00000000000E+00 0. -1.
         21   -1    0    0  501  502  0.00000000000E+00 -0.00000000000E+00 -0.50403528522E+02  0.50403528522E+02  0.00000000000E+00 0. -1.
         24    2    1    2    0    0 -0.56354278724E+00  0.30032576065E+02  0.13574514191E+03  0.16132702684E+03  0.81837600350E+02 0.  0.
        -11    1    3    3    0    0 -0.34314187043E+02  0.55551108091E+01  0.24504238703E+02  0.42529759028E+02  0.00000000000E+00 0.  1.
         12    1    3    3    0    0  0.33750644256E+02  0.24477465256E+02  0.11124090321E+03  0.11879726781E+03  0.00000000000E+00 0. -1.
          1    1    1    2  501    0  0.56354278724E+00 -0.30032576065E+02 -0.31615436565E+02  0.43609735550E+02  0.00000000000E+00 0. -1.
<mgrwt>
<rscale>  1 0.87176063E+02</rscale>
<asrwt>0</asrwt>
<pdfrwt beam="1">  1       21 0.77543891E-02 0.87176063E+02</pdfrwt>
<pdfrwt beam="2">  1        2 0.23774343E-01 0.87176063E+02</pdfrwt>
<totfact> 0.33585031E+05</totfact>
</mgrwt>
</event>
<event>
 6    2  0.8544106E+000  0.8397105E+02  0.7546771E-02  0.1318145E+00
         -1   -1    0    0    0  501 -0.00000000000E+00  0.00000000000E+00  0.22462178479E+02  0.22462178479E+02  0.00000000000E+00 0.  1.
         21   -1    0    0  501  502  0.00000000000E+00 -0.00000000000E+00 -0.14530967791E+03  0.14530967791E+03  0.00000000000E+00 0. -1.
         24    2    1    2    0    0  0.24161608101E+02  0.14505235790E+02 -0.76856902504E+02  0.11383374206E+03  0.79100898845E+02 0.  0.
        -11    1    3    3    0    0  0.28723654349E+02 -0.22559118228E+02 -0.11031464252E+02  0.38153051489E+02  0.00000000000E+00 0.  1.
         12    1    3    3    0    0 -0.45620462478E+01  0.37064354017E+02 -0.65825438252E+02  0.75680690574E+02  0.00000000000E+00 0. -1.
         -2    1    1    2    0  502 -0.24161608101E+02 -0.14505235790E+02 -0.45990596924E+02  0.53938114323E+02  0.00000000000E+00 0.  1.
<mgrwt>
<rscale>  1 0.83971051E+02</rscale>
<asrwt>0</asrwt>
<pdfrwt beam="1">  1       21 0.22355336E-01 0.83971051E+02</pdfrwt>
<pdfrwt beam="2">  1       -1 0.34557196E-02 0.83971051E+02</pdfrwt>
<totfact> 0.46678553E+05</totfact>
</mgrwt>
</event>
<event>
 6    2  0.8544106E+000  0.8406189E+02  0.7546771E-02  0.1317904E+00
         -1   -1    0    0    0  501 -0.00000000000E+00  0.00000000000E+00  0.41307727299E+02  0.41307727299E+02  0.00000000000E+00 0.  1.
         21   -1    0    0  501  502  0.00000000000E+00 -0.00000000000E+00 -0.33043140048E+03  0.33043140048E+03  0.00000000000E+00 0.  1.
         24    2    1    2    0    0 -0.22264465195E+02  0.20652168263E+01 -0.23496625558E+01  0.84094721088E+02  0.81033509548E+02 0.  0.
        -11    1    3    3    0    0 -0.49584701645E+02 -0.10844087076E+02  0.94993376784E+01  0.51637915122E+02  0.00000000000E+00 0.  1.
         12    1    3    3    0    0  0.27320236450E+02  0.12909303903E+02 -0.11849000234E+02  0.32456805966E+02  0.00000000000E+00 0. -1.
         -2    1    1    2    0  502  0.22264465195E+02 -0.20652168263E+01 -0.28677401063E+03  0.28764440670E+03  0.00000000000E+00 0.  1.
<mgrwt>
<rscale>  1 0.84061889E+02</rscale>
<asrwt>0</asrwt>
<pdfrwt beam="1">  1       21 0.50835602E-01 0.84061889E+02</pdfrwt>
<pdfrwt beam="2">  1       -1 0.63550347E-02 0.84061889E+02</pdfrwt>
<totfact> 0.39163238E+04</totfact>
</mgrwt>
</event>
<event>
 6    2  0.8544106E+000  0.1006700E+03  0.7546771E-02  0.1278893E+00
         21   -1    0    0  501  502  0.00000000000E+00  0.00000000000E+00  0.89065022497E+01  0.89065022497E+01  0.00000000000E+00 0. -1.
          2   -1    0    0  502    0 -0.00000000000E+00 -0.00000000000E+00 -0.80932861165E+03  0.80932861165E+03  0.00000000000E+00 0. -1.
         24    2    1    2    0    0 -0.57359258702E+02  0.14958347584E+02 -0.62531620727E+03  0.63336782722E+03  0.81367123390E+02 0.  0.
        -11    1    3    3    0    0  0.18992017501E+02  0.64468068898E+01 -0.71906720281E+02  0.74651419741E+02  0.00000000000E+00 0.  1.
         12    1    3    3    0    0 -0.76351276203E+02  0.85115406940E+01 -0.55340948699E+03  0.55871640748E+03  0.00000000000E+00 0. -1.
          1    1    1    2  501    0  0.57359258702E+02 -0.14958347584E+02 -0.17510590213E+03  0.18486728667E+03  0.00000000000E+00 0. -1.
<mgrwt>
<rscale>  1 0.10066998E+03</rscale>
<asrwt>0</asrwt>
<pdfrwt beam="1">  1       21 0.13702308E-02 0.10066998E+03</pdfrwt>
<pdfrwt beam="2">  1        2 0.12451212E+00 0.10066998E+03</pdfrwt>
<totfact> 0.96089204E+05</totfact>
</mgrwt>
</event>
<event>
 6    2  0.8544106E+000  0.8863508E+02  0.7546771E-02  0.1306191E+00
         21   -1    0    0  501  502  0.00000000000E+00  0.00000000000E+00  0.20914259093E+02  0.20914259093E+02  0.00000000000E+00 0. -1.
          4   -1    0    0  502    0 -0.00000000000E+00 -0.00000000000E+00 -0.37424544930E+03  0.37424544930E+03  0.00000000000E+00 0. -1.
         24    2    1    2    0    0  0.93663576231E+01  0.33031088590E+02 -0.34955724276E+03  0.36061952675E+03  0.81715332936E+02 0.  0.
        -13    1    3    3    0    0 -0.15568711578E+02 -0.16640245189E+02 -0.39344459948E+02  0.45467230714E+02  0.00000000000E+00 0.  1.
         14    1    3    3    0    0  0.24935069201E+02  0.49671333779E+02 -0.31021278282E+03  0.31515229604E+03  0.00000000000E+00 0. -1.
          3    1    1    2  501    0 -0.93663576231E+01 -0.33031088590E+02 -0.37739474428E+01  0.34540181642E+02  0.00000000000E+00 0. -1.
<mgrwt>
<rscale>  1 0.88635078E+02</rscale>
<asrwt>0</asrwt>
<pdfrwt beam="1">  1       21 0.32175783E-02 0.88635078E+02</pdfrwt>
<pdfrwt beam="2">  1        4 0.57576223E-01 0.88635078E+02</pdfrwt>
<totfact> 0.61696855E+04</totfact>
</mgrwt>
</event>
<event>
 6    2  0.8544106E+000  0.1044185E+03  0.7546771E-02  0.1271270E+00
          2   -1    0    0  502    0 -0.00000000000E+00  0.00000000000E+00  0.81454505231E+03  0.81454505231E+03  0.00000000000E+00 0. -1.
         21   -1    0    0  501  502  0.00000000000E+00 -0.00000000000E+00 -0.20128635427E+02  0.20128635427E+02  0.00000000000E+00 0. -1.
         24    2    1    2    0    0 -0.49729372963E+02 -0.40697330860E+02  0.74837005256E+03  0.75561958638E+03  0.82303951752E+02 0.  0.
        -13    1    3    3    0    0 -0.34791093690E+02  0.67691567841E+01  0.11598428928E+03  0.12127900496E+03  0.00000000000E+00 0.  1.
         14    1    3    3    0    0 -0.14938279273E+02 -0.47466487644E+02  0.63238576328E+03  0.63434058142E+03  0.00000000000E+00 0. -1.
          1    1    1    2  501    0  0.49729372963E+02  0.40697330860E+02  0.46046364322E+02  0.79054101359E+02  0.00000000000E+00 0. -1.
<mgrwt>
<rscale>  1 0.10441850E+03</rscale>
<asrwt>0</asrwt>
<pdfrwt beam="1">  1       21 0.30967138E-02 0.10441850E+03</pdfrwt>
<pdfrwt beam="2">  1        2 0.12531460E+00 0.10441850E+03</pdfrwt>
<totfact> 0.25770875E+05</totfact>
</mgrwt>
</event>
<event>
 6    2  0.8544106E+000  0.7715252E+02  0.7546771E-02  0.1337332E+00
          4   -1    0    0  502    0 -0.00000000000E+00  0.00000000000E+00  0.47932157752E+02  0.47932157752E+02  0.00000000000E+00 0. -1.
         21   -1    0    0  501  502  0.00000000000E+00 -0.00000000000E+00 -0.12003434926E+03  0.12003434926E+03  0.00000000000E+00 0. -1.
         24    2    1    2    0    0  0.31925205160E+02  0.19510380637E+02  0.99451972709E+01  0.77790857957E+02  0.67473231402E+02 0.  0.
        -13    1    3    3    0    0  0.19988217070E+02 -0.18028894159E+02 -0.15340386385E+02  0.30982209422E+02  0.00000000000E+00 0.  1.
         14    1    3    3    0    0  0.11936988090E+02  0.37539274796E+02  0.25285583656E+02  0.46808648535E+02  0.00000000000E+00 0. -1.
          3    1    1    2  501    0 -0.31925205160E+02 -0.19510380637E+02 -0.82047388778E+02  0.90175649054E+02  0.00000000000E+00 0. -1.
<mgrwt>
<rscale>  1 0.77152515E+02</rscale>
<asrwt>0</asrwt>
<pdfrwt beam="1">  1       21 0.18466823E-01 0.77152515E+02</pdfrwt>
<pdfrwt beam="2">  1        4 0.73741782E-02 0.77152515E+02</pdfrwt>
<totfact> 0.12480904E+05</totfact>
</mgrwt>
</event>
<event>
 6    2  0.8544106E+000  0.9146423E+02  0.7546771E-02  0.1299344E+00
          2   -1    0    0  502    0 -0.00000000000E+00  0.00000000000E+00  0.11883939658E+04  0.11883939658E+04  0.00000000000E+00 0. -1.
         21   -1    0    0  501  502  0.00000000000E+00 -0.00000000000E+00 -0.34298898434E+01  0.34298898434E+01  0.00000000000E+00 0.  1.
         24    2    1    2    0    0  0.26227950832E+02  0.16939640976E+02  0.71544994693E+03  0.72127271688E+03  0.85970045388E+02 0.  0.
        -13    1    3    3    0    0  0.29640892117E+02 -0.82440200927E+01  0.86481481819E+02  0.91791029248E+02  0.00000000000E+00 0.  1.
         14    1    3    3    0    0 -0.34129412848E+01  0.25183661068E+02  0.62896846511E+03  0.62948168763E+03  0.00000000000E+00 0. -1.
          1    1    1    2  501    0 -0.26227950832E+02 -0.16939640976E+02  0.46951412899E+03  0.47055113873E+03  0.00000000000E+00 0. -1.
<mgrwt>
<rscale>  1 0.91464231E+02</rscale>
<asrwt>0</asrwt>
<pdfrwt beam="1">  1       21 0.52767631E-03 0.91464231E+02</pdfrwt>
<pdfrwt beam="2">  1        2 0.18282951E+00 0.91464231E+02</pdfrwt>
<totfact> 0.25116066E+06</totfact>
</mgrwt>
</event>
<event>
 6    2  0.8544106E+000  0.8309721E+02  0.7546771E-02  0.1320485E+00
         21   -1    0    0  501  502  0.00000000000E+00  0.00000000000E+00  0.71106942626E+02  0.71106942626E+02  0.00000000000E+00 0.  1.
          2   -1    0    0  502    0 -0.00000000000E+00 -0.00000000000E+00 -0.38403812557E+02  0.38403812557E+02  0.00000000000E+00 0. -1.
         24    2    1    2    0    0 -0.12811399974E+02 -0.16925694953E+02  0.23361922485E+02  0.86318746256E+02  0.80340123314E+02 0.  0.
        -11    1    3    3    0    0  0.14157563956E+02 -0.41230681961E+02  0.24479446530E+02  0.49996490422E+02  0.00000000000E+00 0.  1.
         12    1    3    3    0    0 -0.26968963929E+02  0.24304987008E+02 -0.11175240451E+01  0.36322255834E+02  0.00000000000E+00 0. -1.
          1    1    1    2  501    0  0.12811399974E+02  0.16925694953E+02  0.93412075843E+01  0.23192008926E+02  0.00000000000E+00 0. -1.
<mgrwt>
<rscale>  1 0.83097211E+02</rscale>
<asrwt>0</asrwt>
<pdfrwt beam="1">  1       21 0.10939530E-01 0.83097211E+02</pdfrwt>
<pdfrwt beam="2">  1        2 0.59082789E-02 0.83097211E+02</pdfrwt>
<totfact> 0.96216890E+05</totfact>
</mgrwt>
</event>
<event>
 6    2  0.8544106E+000  0.8485886E+02  0.7546771E-02  0.1315802E+00
         21   -1    0    0  501  502  0.00000000000E+00  0.00000000000E+00  0.35740289096E+02  0.35740289096E+02  0.00000000000E+00 0. -1.
         -3   -1    0    0    0  501 -0.00000000000E+00 -0.00000000000E+00 -0.87782897337E+02  0.87782897337E+02  0.00000000000E+00 0.  1.
         24    2    1    2    0    0  0.39354246476E+01 -0.25865181034E+02 -0.32509502477E+02  0.90872958595E+02  0.80725037600E+02 0.  0.
        -13    1    3    3    0    0  0.39350000489E+02 -0.26736595148E+02 -0.27893682108E+02  0.55148214478E+02  0.00000000000E+00 0.  1.
         14    1    3    3    0    0 -0.35414575841E+02  0.87141411454E+00 -0.46158203692E+01  0.35724744117E+02  0.00000000000E+00 0. -1.
         -4    1    1    2    0  502 -0.39354246476E+01  0.25865181034E+02 -0.19533105765E+02  0.32650227838E+02  0.00000000000E+00 0.  1.
<mgrwt>
<rscale>  1 0.84858864E+02</rscale>
<asrwt>0</asrwt>
<pdfrwt beam="1">  1       21 0.54985060E-02 0.84858864E+02</pdfrwt>
<pdfrwt beam="2">  1       -3 0.13505061E-01 0.84858864E+02</pdfrwt>
<totfact> 0.44249153E+05</totfact>
</mgrwt>
</event>
<event>
 6    2  0.8544106E+000  0.9178806E+02  0.7546771E-02  0.1298579E+00
         21   -1    0    0  501  502  0.00000000000E+00  0.00000000000E+00  0.24605331980E+01  0.24605331980E+01  0.00000000000E+00 0.  1.
          2   -1    0    0  502    0 -0.00000000000E+00 -0.00000000000E+00 -0.20954756149E+04  0.20954756149E+04  0.00000000000E+00 0. -1.
         24    2    1    2    0    0 -0.42972263040E+02 -0.12340190579E+02 -0.10645596752E+04  0.10685094052E+04  0.80163279534E+02 0.  0.
        -13    1    3    3    0    0 -0.36859552634E+02  0.21299972549E+01 -0.17695260960E+03  0.18076335235E+03  0.00000000000E+00 0.  1.
         14    1    3    3    0    0 -0.61127104064E+01 -0.14470187834E+02 -0.88760706556E+03  0.88774605287E+03  0.00000000000E+00 0. -1.
          1    1    1    2  501    0  0.42972263040E+02  0.12340190579E+02 -0.10284554066E+04  0.10294267429E+04  0.00000000000E+00 0. -1.
<mgrwt>
<rscale>  1 0.91788055E+02</rscale>
<asrwt>0</asrwt>
<pdfrwt beam="1">  1       21 0.37854309E-03 0.91788055E+02</pdfrwt>
<pdfrwt beam="2">  1        2 0.32238127E+00 0.91788055E+02</pdfrwt>
<totfact> 0.14348759E+06</totfact>
</mgrwt>
</event>
<event>
 6    2  0.8544106E+000  0.1107590E+03  0.7546771E-02  0.1259171E+00
         21   -1    0    0  501  502  0.00000000000E+00  0.00000000000E+00  0.19308294966E+02  0.19308294966E+02  0.00000000000E+00 0. -1.
          4   -1    0    0  502    0 -0.00000000000E+00 -0.00000000000E+00 -0.11802739131E+04  0.11802739131E+04  0.00000000000E+00 0. -1.
         24    2    1    2    0    0  0.74100343372E+02  0.17146532094E+02 -0.10898250657E+04  0.10954388326E+04  0.80515202048E+02 0.  0.
        -13    1    3    3    0    0  0.60736806911E+02 -0.22158413017E+02 -0.50139762870E+03  0.50554874844E+03  0.00000000000E+00 0.  1.
         14    1    3    3    0    0  0.13363536461E+02  0.39304945111E+02 -0.58842743697E+03  0.58989008417E+03  0.00000000000E+00 0. -1.
          3    1    1    2  501    0 -0.74100343372E+02 -0.17146532094E+02 -0.71140552502E+02  0.10414337550E+03  0.00000000000E+00 0. -1.
<mgrwt>
<rscale>  1 0.11075903E+03</rscale>
<asrwt>0</asrwt>
<pdfrwt beam="1">  1       21 0.29705069E-02 0.11075903E+03</pdfrwt>
<pdfrwt beam="2">  1        4 0.18158060E+00 0.11075903E+03</pdfrwt>
<totfact> 0.49916374E+03</totfact>
</mgrwt>
</event>
<event>
 6    2  0.8544106E+000  0.7988916E+02  0.7546771E-02  0.1329366E+00
          2   -1    0    0  502    0 -0.00000000000E+00  0.00000000000E+00  0.15294363055E+04  0.15294363055E+04  0.00000000000E+00 0. -1.
         21   -1    0    0  501  502  0.00000000000E+00 -0.00000000000E+00 -0.29046280765E+01  0.29046280765E+01  0.00000000000E+00 0.  1.
         24    2    1    2    0    0  0.21301074650E+02 -0.12360177638E+02  0.14441229311E+04  0.14463309850E+04  0.75998476662E+02 0.  0.
        -11    1    3    3    0    0  0.34155818794E+02  0.10910700258E+01  0.28255040518E+03  0.28460945497E+03  0.00000000000E+00 0.  1.
         12    1    3    3    0    0 -0.12854744144E+02 -0.13451247664E+02  0.11615725259E+04  0.11617215301E+04  0.00000000000E+00 0. -1.
          1    1    1    2  501    0 -0.21301074650E+02  0.12360177638E+02  0.82408746321E+02  0.86009948510E+02  0.00000000000E+00 0. -1.
<mgrwt>
<rscale>  1 0.79889162E+02</rscale>
<asrwt>0</asrwt>
<pdfrwt beam="1">  1       21 0.44686708E-03 0.79889162E+02</pdfrwt>
<pdfrwt beam="2">  1        2 0.23529725E+00 0.79889162E+02</pdfrwt>
<totfact> 0.21230587E+06</totfact>
</mgrwt>
</event>
<event>
 6    2  0.8544106E+000  0.8657840E+02  0.7546771E-02  0.1311356E+00
          2   -1    0    0  502    0 -0.00000000000E+00  0.00000000000E+00  0.48062797781E+03  0.48062797781E+03  0.00000000000E+00 0. -1.
         21   -1    0    0  501  502  0.00000000000E+00 -0.00000000000E+00 -0.78369553582E+01  0.78369553582E+01  0.00000000000E+00 0.  1.
         24    2    1    2    0    0  0.20184285790E+02  0.29243228442E+02  0.35676145468E+03  0.36711654051E+03  0.78950914944E+02 0.  0.
        -11    1    3    3    0    0 -0.18392916650E+02 -0.11692280623E+02  0.41484417877E+02  0.46861132462E+02  0.00000000000E+00 0.  1.
         12    1    3    3    0    0  0.38577202440E+02  0.40935509065E+02  0.31527703680E+03  0.32025540805E+03  0.00000000000E+00 0. -1.
          1    1    1    2  501    0 -0.20184285790E+02 -0.29243228442E+02  0.11602956777E+03  0.12134839266E+03  0.00000000000E+00 0. -1.
<mgrwt>
<rscale>  1 0.86578397E+02</rscale>
<asrwt>0</asrwt>
<pdfrwt beam="1">  1       21 0.12056858E-02 0.86578397E+02</pdfrwt>
<pdfrwt beam="2">  1        2 0.73942743E-01 0.86578397E+02</pdfrwt>
<totfact> 0.20960732E+06</totfact>
</mgrwt>
</event>
<event>
 6    2  0.8544106E+000  0.8423652E+02  0.7546771E-02  0.1317441E+00
          2   -1    0    0  502    0 -0.00000000000E+00  0.00000000000E+00  0.58949566243E+02  0.58949566243E+02  0.00000000000E+00 0. -1.
         21   -1    0    0  501  502  0.00000000000E+00 -0.00000000000E+00 -0.52651920232E+02  0.52651920232E+02  0.00000000000E+00 0.  1.
         24    2    1    2    0    0 -0.22576852448E+02 -0.15146547188E+02  0.48395372506E+01  0.84375428382E+02  0.79728662573E+02 0.  0.
        -13    1    3    3    0    0 -0.45883629597E+02 -0.69681276884E+01 -0.18905732697E+02  0.50112762819E+02  0.00000000000E+00 0.  1.
         14    1    3    3    0    0  0.23306777150E+02 -0.81784194992E+01  0.23745269948E+02  0.34262665563E+02  0.00000000000E+00 0. -1.
          1    1    1    2  501    0  0.22576852448E+02  0.15146547188E+02  0.14581087605E+01  0.27226058094E+02  0.00000000000E+00 0. -1.
<mgrwt>
<rscale>  1 0.84236523E+02</rscale>
<asrwt>0</asrwt>
<pdfrwt beam="1">  1       21 0.81002954E-02 0.84236523E+02</pdfrwt>
<pdfrwt beam="2">  1        2 0.90691640E-02 0.84236523E+02</pdfrwt>
<totfact> 0.94777971E+05</totfact>
</mgrwt>
</event>
<event>
 6    2  0.8544106E+000  0.8268345E+02  0.7546771E-02  0.1321604E+00
         -3   -1    0    0    0  501 -0.00000000000E+00  0.00000000000E+00  0.33767012722E+02  0.33767012722E+02  0.00000000000E+00 0.  1.
         21   -1    0    0  501  502  0.00000000000E+00 -0.00000000000E+00 -0.24528333834E+03  0.24528333834E+03  0.00000000000E+00 0.  1.
         24    2    1    2    0    0  0.21454349181E+02 -0.27199393785E+01 -0.18373135180E+02  0.84700205239E+02  0.79805172152E+02 0.  0.
        -11    1    3    3    0    0 -0.54644049875E+01  0.29595205833E+02  0.12437298141E+02  0.32564126201E+02  0.00000000000E+00 0.  1.
         12    1    3    3    0    0  0.26918754169E+02 -0.32315145212E+02 -0.30810433321E+02  0.52136079038E+02  0.00000000000E+00 0. -1.
         -4    1    1    2    0  502 -0.21454349181E+02  0.27199393785E+01 -0.19314319044E+03  0.19435014582E+03  0.00000000000E+00 0.  1.
<mgrwt>
<rscale>  1 0.82683449E+02</rscale>
<asrwt>0</asrwt>
<pdfrwt beam="1">  1       21 0.37735897E-01 0.82683449E+02</pdfrwt>
<pdfrwt beam="2">  1       -3 0.51949251E-02 0.82683449E+02</pdfrwt>
<totfact> 0.65875756E+04</totfact>
</mgrwt>
</event>
<event>
 6    2  0.8544106E+000  0.8688236E+02  0.7546771E-02  0.1310582E+00
          2   -1    0    0  502    0 -0.00000000000E+00  0.00000000000E+00  0.49405490418E+02  0.49405490418E+02  0.00000000000E+00 0. -1.
         21   -1    0    0  501  502  0.00000000000E+00 -0.00000000000E+00 -0.93524485391E+02  0.93524485391E+02  0.00000000000E+00 0. -1.
         24    2    1    2    0    0 -0.16268701063E+02 -0.25796343071E+02  0.28488837866E+01  0.86929050949E+02  0.81353683444E+02 0.  0.
        -13    1    3    3    0    0 -0.14978976898E+02  0.23694394799E+02 -0.17888838390E+02  0.33253640895E+02  0.00000000000E+00 0.  1.
         14    1    3    3    0    0 -0.12897241654E+01 -0.49490737870E+02  0.20737722176E+02  0.53675410054E+02  0.00000000000E+00 0. -1.
          1    1    1    2  501    0  0.16268701063E+02  0.25796343071E+02 -0.46967878759E+02  0.56000924860E+02  0.00000000000E+00 0. -1.
<mgrwt>
<rscale>  1 0.86882356E+02</rscale>
<asrwt>0</asrwt>
<pdfrwt beam="1">  1       21 0.14388382E-01 0.86882356E+02</pdfrwt>
<pdfrwt beam="2">  1        2 0.76008447E-02 0.86882356E+02</pdfrwt>
<totfact> 0.43508383E+05</totfact>
</mgrwt>
</event>
<event>
 6    2  0.8544106E+000  0.1254266E+03  0.7546771E-02  0.1234404E+00
         21   -1    0    0  501  502  0.00000000000E+00  0.00000000000E+00  0.61145757340E+02  0.61145757340E+02  0.00000000000E+00 0. -1.
          2   -1    0    0  502    0 -0.00000000000E+00 -0.00000000000E+00 -0.43787095539E+03  0.43787095539E+03  0.00000000000E+00 0. -1.
         24    2    1    2    0    0 -0.57281250923E+02 -0.77374215362E+02 -0.38253379788E+03  0.40257164680E+03  0.80398466239E+02 0.  0.
        -11    1    3    3    0    0  0.11613402231E+02 -0.27527034726E+02 -0.41752639460E+02  0.51340935462E+02  0.00000000000E+00 0.  1.
         12    1    3    3    0    0 -0.68894653154E+02 -0.49847180636E+02 -0.34078115842E+03  0.35123071134E+03  0.00000000000E+00 0. -1.
          1    1    1    2  501    0  0.57281250923E+02  0.77374215362E+02  0.58085998344E+01  0.96445065930E+02  0.00000000000E+00 0. -1.
<mgrwt>
<rscale>  1 0.12542657E+03</rscale>
<asrwt>0</asrwt>
<pdfrwt beam="1">  1       21 0.94070395E-02 0.12542657E+03</pdfrwt>
<pdfrwt beam="2">  1        2 0.67364763E-01 0.12542657E+03</pdfrwt>
<totfact> 0.81001726E+04</totfact>
</mgrwt>
</event>
<event>
 6    2  0.8544106E+000  0.8077716E+02  0.7546771E-02  0.1326860E+00
         21   -1    0    0  501  502  0.00000000000E+00  0.00000000000E+00  0.11605190812E+02  0.11605190812E+02  0.00000000000E+00 0.  1.
         -1   -1    0    0    0  501 -0.00000000000E+00 -0.00000000000E+00 -0.73373648933E+03  0.73373648933E+03  0.00000000000E+00 0.  1.
         24    2    1    2    0    0 -0.27613075398E+02  0.24095775516E+02 -0.69516276841E+03  0.69984014229E+03  0.71985150206E+02 0.  0.
        -11    1    3    3    0    0 -0.31094854222E+02  0.43421908701E+02 -0.34326617188E+03  0.34739605189E+03  0.00000000000E+00 0.  1.
         12    1    3    3    0    0  0.34817788240E+01 -0.19326133185E+02 -0.35189659653E+03  0.35244409040E+03  0.00000000000E+00 0. -1.
         -2    1    1    2    0  502  0.27613075398E+02 -0.24095775516E+02 -0.26968530114E+02  0.45501537855E+02  0.00000000000E+00 0.  1.
<mgrwt>
<rscale>  1 0.80777164E+02</rscale>
<asrwt>0</asrwt>
<pdfrwt beam="1">  1       21 0.17854132E-02 0.80777164E+02</pdfrwt>
<pdfrwt beam="2">  1       -1 0.11288259E+00 0.80777164E+02</pdfrwt>
<totfact> 0.10185307E+05</totfact>
</mgrwt>
</event>
<event>
 6    2  0.8544106E+000  0.8295447E+02  0.7546771E-02  0.1320870E+00
          4   -1    0    0  502    0 -0.00000000000E+00  0.00000000000E+00  0.57220033547E+02  0.57220033547E+02  0.00000000000E+00 0. -1.
         21   -1    0    0  501  502  0.00000000000E+00 -0.00000000000E+00 -0.81802370935E+02  0.81802370935E+02  0.00000000000E+00 0. -1.
         24    2    1    2    0    0 -0.17562478222E+02 -0.10860185856E+02  0.23897619959E+02  0.86328092242E+02  0.80343381758E+02 0.  0.
        -13    1    3    3    0    0  0.94239785575E+01 -0.37588952620E+02 -0.43460204325E+01  0.38995238485E+02  0.00000000000E+00 0.  1.
         14    1    3    3    0    0 -0.26986456780E+02  0.26728766764E+02  0.28243640391E+02  0.47332853757E+02  0.00000000000E+00 0. -1.
          3    1    1    2  501    0  0.17562478222E+02  0.10860185856E+02 -0.48479957346E+02  0.52694312240E+02  0.00000000000E+00 0. -1.
<mgrwt>
<rscale>  1 0.82954465E+02</rscale>
<asrwt>0</asrwt>
<pdfrwt beam="1">  1       21 0.12584980E-01 0.82954465E+02</pdfrwt>
<pdfrwt beam="2">  1        4 0.88030822E-02 0.82954465E+02</pdfrwt>
<totfact> 0.18733369E+05</totfact>
</mgrwt>
</event>
<event>
 6    2  0.8544106E+000  0.8473055E+02  0.7546771E-02  0.1316139E+00
          2   -1    0    0  502    0 -0.00000000000E+00  0.00000000000E+00  0.24046373785E+04  0.24046373785E+04  0.00000000000E+00 0. -1.
         21   -1    0    0  501  502  0.00000000000E+00 -0.00000000000E+00 -0.14326228545E+01  0.14326228545E+01  0.00000000000E+00 0. -1.
         24    2    1    2    0    0 -0.19607114434E+02  0.17068622158E+02  0.21145935910E+04  0.21162904625E+04  0.80644216401E+02 0.  0.
        -11    1    3    3    0    0 -0.41871455012E+02 -0.14234906973E+02  0.89489936303E+03  0.89599147388E+03  0.00000000000E+00 0.  1.
         12    1    3    3    0    0  0.22264340578E+02  0.31303529131E+02  0.12196942280E+04  0.12202989886E+04  0.00000000000E+00 0. -1.
          1    1    1    2  501    0  0.19607114434E+02 -0.17068622158E+02  0.28861116464E+03  0.28977953888E+03  0.00000000000E+00 0. -1.
<mgrwt>
<rscale>  1 0.84730552E+02</rscale>
<asrwt>0</asrwt>
<pdfrwt beam="1">  1       21 0.22040544E-03 0.84730552E+02</pdfrwt>
<pdfrwt beam="2">  1        2 0.36994098E+00 0.84730552E+02</pdfrwt>
<totfact> 0.22485966E+06</totfact>
</mgrwt>
</event>
<event>
 6    2  0.8544106E+000  0.8133688E+02  0.7546771E-02  0.1325300E+00
          2   -1    0    0  502    0 -0.00000000000E+00  0.00000000000E+00  0.79089136699E+03  0.79089136699E+03  0.00000000000E+00 0. -1.
         21   -1    0    0  501  502  0.00000000000E+00 -0.00000000000E+00 -0.83340138692E+01  0.83340138692E+01  0.00000000000E+00 0. -1.
         24    2    1    2    0    0 -0.71224620075E-01 -0.23514515297E+02  0.76637836452E+03  0.77068248026E+03  0.77863664635E+02 0.  0.
        -13    1    3    3    0    0  0.87232083272E+01 -0.37166506584E+02  0.17654146786E+03  0.18062207353E+03  0.00000000000E+00 0.  1.
         14    1    3    3    0    0 -0.87944329472E+01  0.13651991287E+02  0.58983689667E+03  0.59006040673E+03  0.00000000000E+00 0. -1.
          1    1    1    2  501    0  0.71224620075E-01  0.23514515297E+02  0.16178988601E+02  0.28542900601E+02  0.00000000000E+00 0. -1.
<mgrwt>
<rscale>  1 0.81336878E+02</rscale>
<asrwt>0</asrwt>
<pdfrwt beam="1">  1       21 0.12821566E-02 0.81336878E+02</pdfrwt>
<pdfrwt beam="2">  1        2 0.12167554E+00 0.81336878E+02</pdfrwt>
<totfact> 0.10776898E+06</totfact>
</mgrwt>
</event>
<event>
 6    2  0.8544106E+000  0.8579394E+02  0.7546771E-02  0.1313369E+00
          2   -1    0    0  502    0 -0.00000000000E+00  0.00000000000E+00  0.64953809618E+03  0.64953809618E+03  0.00000000000E+00 0. -1.
         21   -1    0    0  501  502  0.00000000000E+00 -0.00000000000E+00 -0.51317825630E+01  0.51317825630E+01  0.00000000000E+00 0.  1.
         24    2    1    2    0    0 -0.21098906815E+02 -0.13779515047E+02  0.56155376125E+03  0.56806973823E+03  0.82009522687E+02 0.  0.
        -13    1    3    3    0    0 -0.22976751140E+02 -0.38902856496E+02  0.17644743492E+03  0.18214022243E+03  0.00000000000E+00 0.  1.
         14    1    3    3    0    0  0.18778443252E+01  0.25123341449E+02  0.38510632633E+03  0.38592951580E+03  0.00000000000E+00 0. -1.
          1    1    1    2  501    0  0.21098906815E+02  0.13779515047E+02  0.82852552368E+02  0.86600140517E+02  0.00000000000E+00 0. -1.
<mgrwt>
<rscale>  1 0.85793943E+02</rscale>
<asrwt>0</asrwt>
<pdfrwt beam="1">  1       21 0.78950552E-03 0.85793943E+02</pdfrwt>
<pdfrwt beam="2">  1        2 0.99928873E-01 0.85793943E+02</pdfrwt>
<totfact> 0.29089457E+06</totfact>
</mgrwt>
</event>
<event>
 6    2  0.8544106E+000  0.1305346E+03  0.7546771E-02  0.1226665E+00
          2   -1    0    0  502    0 -0.00000000000E+00  0.00000000000E+00  0.27836740717E+03  0.27836740717E+03  0.00000000000E+00 0. -1.
         21   -1    0    0  501  502  0.00000000000E+00 -0.00000000000E+00 -0.49433515486E+02  0.49433515486E+02  0.00000000000E+00 0. -1.
         24    2    1    2    0    0  0.93869012734E+02  0.42466784044E+02  0.14320231405E+03  0.19376837921E+03  0.80152746266E+02 0.  0.
        -13    1    3    3    0    0  0.10116081528E+02 -0.22006164561E+02  0.34492978143E+02  0.42147027480E+02  0.00000000000E+00 0.  1.
         14    1    3    3    0    0  0.83752931206E+02  0.64472948605E+02  0.10870933590E+03  0.15162135173E+03  0.00000000000E+00 0. -1.
          1    1    1    2  501    0 -0.93869012734E+02 -0.42466784044E+02  0.85731577635E+02  0.13403254345E+03  0.00000000000E+00 0. -1.
<mgrwt>
<rscale>  1 0.13053460E+03</rscale>
<asrwt>0</asrwt>
<pdfrwt beam="1">  1       21 0.76051564E-02 0.13053460E+03</pdfrwt>
<pdfrwt beam="2">  1        2 0.42825754E-01 0.13053460E+03</pdfrwt>
<totfact> 0.18958150E+05</totfact>
</mgrwt>
</event>
<event>
 6    2  0.8544106E+000  0.8472069E+02  0.7546771E-02  0.1316165E+00
         21   -1    0    0  501  502  0.00000000000E+00  0.00000000000E+00  0.40529866511E+03  0.40529866511E+03  0.00000000000E+00 0.  1.
         -1   -1    0    0    0  501 -0.00000000000E+00 -0.00000000000E+00 -0.11019743795E+02  0.11019743795E+02  0.00000000000E+00 0.  1.
         24    2    1    2    0    0 -0.19105513422E+02 -0.19723185613E+02  0.16576177889E+03  0.18615735861E+03  0.80147177917E+02 0.  0.
        -13    1    3    3    0    0 -0.26242397648E+02 -0.14573655349E+02  0.12294236009E+02  0.32437680305E+02  0.00000000000E+00 0.  1.
         14    1    3    3    0    0  0.71368842255E+01 -0.51495302638E+01  0.15346754289E+03  0.15371967830E+03  0.00000000000E+00 0. -1.
         -2    1    1    2    0  502  0.19105513422E+02  0.19723185613E+02  0.22851714242E+03  0.23016105030E+03  0.00000000000E+00 0.  1.
<mgrwt>
<rscale>  1 0.84720687E+02</rscale>
<asrwt>0</asrwt>
<pdfrwt beam="1">  1       21 0.62353629E-01 0.84720687E+02</pdfrwt>
<pdfrwt beam="2">  1       -1 0.16953455E-02 0.84720687E+02</pdfrwt>
<totfact> 0.17253342E+05</totfact>
</mgrwt>
</event>
<event>
 6    2  0.8544106E+000  0.9746782E+02  0.7546771E-02  0.1285713E+00
         -1   -1    0    0    0  501 -0.00000000000E+00  0.00000000000E+00  0.24902940348E+03  0.24902940348E+03  0.00000000000E+00 0.  1.
         21   -1    0    0  501  502  0.00000000000E+00 -0.00000000000E+00 -0.24880437574E+02  0.24880437574E+02  0.00000000000E+00 0.  1.
         24    2    1    2    0    0  0.12743558433E+02 -0.51868474050E+02  0.17966543712E+03  0.20440069622E+03  0.81530598181E+02 0.  0.
        -13    1    3    3    0    0 -0.11391442623E+02 -0.29832624693E+02  0.16588839125E+03  0.16893403687E+03  0.00000000000E+00 0.  1.
         14    1    3    3    0    0  0.24135001055E+02 -0.22035849357E+02  0.13777045866E+02  0.35466659353E+02  0.00000000000E+00 0. -1.
         -2    1    1    2    0  502 -0.12743558433E+02  0.51868474050E+02  0.44483528787E+02  0.69509144831E+02  0.00000000000E+00 0.  1.
<mgrwt>
<rscale>  1 0.97467817E+02</rscale>
<asrwt>0</asrwt>
<pdfrwt beam="1">  1       21 0.38277598E-02 0.97467817E+02</pdfrwt>
<pdfrwt beam="2">  1       -1 0.38312214E-01 0.97467817E+02</pdfrwt>
<totfact> 0.24647641E+05</totfact>
</mgrwt>
</event>
<event>
 6    2  0.8544106E+000  0.9081850E+02  0.7546771E-02  0.1300882E+00
          4   -1    0    0  502    0 -0.00000000000E+00  0.00000000000E+00  0.85608694475E+02  0.85608694475E+02  0.00000000000E+00 0. -1.
         21   -1    0    0  501  502  0.00000000000E+00 -0.00000000000E+00 -0.81772395224E+02  0.81772395224E+02  0.00000000000E+00 0. -1.
         24    2    1    2    0    0  0.14514651443E+02  0.44794922900E+02  0.48087226387E+02  0.10276371760E+03  0.77657839848E+02 0.  0.
        -13    1    3    3    0    0 -0.31180806102E+02  0.28330078908E+02  0.24957062613E+02  0.48966223199E+02  0.00000000000E+00 0.  1.
         14    1    3    3    0    0  0.45695457545E+02  0.16464843992E+02  0.23130163773E+02  0.53797494404E+02  0.00000000000E+00 0. -1.
          3    1    1    2  501    0 -0.14514651443E+02 -0.44794922900E+02 -0.44250927136E+02  0.64617372096E+02  0.00000000000E+00 0. -1.
<mgrwt>
<rscale>  1 0.90818502E+02</rscale>
<asrwt>0</asrwt>
<pdfrwt beam="1">  1       21 0.12580368E-01 0.90818502E+02</pdfrwt>
<pdfrwt beam="2">  1        4 0.13170568E-01 0.90818502E+02</pdfrwt>
<totfact> 0.96842658E+04</totfact>
</mgrwt>
</event>
<event>
 6    2  0.8544106E+000  0.1024079E+03  0.7546771E-02  0.1275313E+00
         21   -1    0    0  501  502  0.00000000000E+00  0.00000000000E+00  0.65505465604E+01  0.65505465604E+01  0.00000000000E+00 0. -1.
          2   -1    0    0  502    0 -0.00000000000E+00 -0.00000000000E+00 -0.10795582749E+04  0.10795582749E+04  0.00000000000E+00 0. -1.
         24    2    1    2    0    0  0.14171715828E+02  0.62014261074E+02 -0.74319348138E+03  0.75021591650E+03  0.80254373688E+02 0.  0.
        -11    1    3    3    0    0  0.69755711183E+01 -0.12800164170E+02 -0.33251551177E+02  0.36306589635E+02  0.00000000000E+00 0.  1.
         12    1    3    3    0    0  0.71961447100E+01  0.74814425244E+02 -0.70994193021E+03  0.71390932687E+03  0.00000000000E+00 0. -1.
          1    1    1    2  501    0 -0.14171715828E+02 -0.62014261074E+02 -0.32981424695E+03  0.33589290496E+03  0.00000000000E+00 0. -1.
<mgrwt>
<rscale>  1 0.10240786E+03</rscale>
<asrwt>0</asrwt>
<pdfrwt beam="1">  1       21 0.10077749E-02 0.10240786E+03</pdfrwt>
<pdfrwt beam="2">  1        2 0.16608613E+00 0.10240786E+03</pdfrwt>
<totfact> 0.10683955E+06</totfact>
</mgrwt>
</event>
<event>
 6    2  0.8544106E+000  0.8379940E+02  0.7546771E-02  0.1318602E+00
         -1   -1    0    0    0  501 -0.00000000000E+00  0.00000000000E+00  0.12894020408E+03  0.12894020408E+03  0.00000000000E+00 0.  1.
         21   -1    0    0  501  502  0.00000000000E+00 -0.00000000000E+00 -0.59467707294E+02  0.59467707294E+02  0.00000000000E+00 0.  1.
         24    2    1    2    0    0 -0.20010964023E+02 -0.16659164865E+02  0.11118970224E+03  0.13923178215E+03  0.79651571353E+02 0.  0.
        -11    1    3    3    0    0 -0.12268953100E+02 -0.48803610179E+02  0.73748130953E+02  0.89281052837E+02  0.00000000000E+00 0.  1.
         12    1    3    3    0    0 -0.77420109224E+01  0.32144445314E+02  0.37441571292E+02  0.49950729309E+02  0.00000000000E+00 0. -1.
         -2    1    1    2    0  502  0.20010964023E+02  0.16659164865E+02 -0.41717205455E+02  0.49176129231E+02  0.00000000000E+00 0.  1.
<mgrwt>
<rscale>  1 0.83799399E+02</rscale>
<asrwt>0</asrwt>
<pdfrwt beam="1">  1       21 0.91488781E-02 0.83799399E+02</pdfrwt>
<pdfrwt beam="2">  1       -1 0.19836954E-01 0.83799399E+02</pdfrwt>
<totfact> 0.16650984E+05</totfact>
</mgrwt>
</event>
<event>
 6    2  0.8544106E+000  0.1025712E+03  0.7546771E-02  0.1274980E+00
          2   -1    0    0  502    0 -0.00000000000E+00  0.00000000000E+00  0.18989650037E+03  0.18989650037E+03  0.00000000000E+00 0. -1.
         21   -1    0    0  501  502  0.00000000000E+00 -0.00000000000E+00 -0.64492471802E+02  0.64492471802E+02  0.00000000000E+00 0. -1.
         24    2    1    2    0    0 -0.53768043574E+02  0.35703411290E+02  0.15299496000E+03  0.18419641142E+03  0.79719032273E+02 0.  0.
        -11    1    3    3    0    0  0.24385563872E+01  0.12528692894E+02 -0.59044362382E+01  0.14063323582E+02  0.00000000000E+00 0.  1.
         12    1    3    3    0    0 -0.56206599962E+02  0.23174718396E+02  0.15889939623E+03  0.17013308783E+03  0.00000000000E+00 0. -1.
          1    1    1    2  501    0  0.53768043574E+02 -0.35703411290E+02 -0.27590931434E+02  0.70192560752E+02  0.00000000000E+00 0. -1.
<mgrwt>
<rscale>  1 0.10257124E+03</rscale>
<asrwt>0</asrwt>
<pdfrwt beam="1">  1       21 0.99219188E-02 0.10257124E+03</pdfrwt>
<pdfrwt beam="2">  1        2 0.29214846E-01 0.10257124E+03</pdfrwt>
<totfact> 0.17771700E+05</totfact>
</mgrwt>
</event>
<event>
 6    2  0.8544106E+000  0.7879338E+02  0.7546771E-02  0.1332511E+00
         21   -1    0    0  501  502  0.00000000000E+00  0.00000000000E+00  0.38331068466E+02  0.38331068466E+02  0.00000000000E+00 0.  1.
         -1   -1    0    0    0  501 -0.00000000000E+00 -0.00000000000E+00 -0.78691258473E+02  0.78691258473E+02  0.00000000000E+00 0.  1.
         24    2    1    2    0    0 -0.29302351902E+02  0.56858494859E+01 -0.36794865245E+02  0.86961251575E+02  0.72920782057E+02 0.  0.
        -11    1    3    3    0    0 -0.28295620048E+02  0.13744768123E+02 -0.57044757185E+02  0.65143419368E+02  0.00000000000E+00 0.  1.
         12    1    3    3    0    0 -0.10067318536E+01 -0.80589186372E+01  0.20249891940E+02  0.21817832207E+02  0.00000000000E+00 0. -1.
         -2    1    1    2    0  502  0.29302351902E+02 -0.56858494859E+01 -0.35653247622E+01  0.30061075364E+02  0.00000000000E+00 0.  1.
<mgrwt>
<rscale>  1 0.78793383E+02</rscale>
<asrwt>0</asrwt>
<pdfrwt beam="1">  1       21 0.58970875E-02 0.78793383E+02</pdfrwt>
<pdfrwt beam="2">  1       -1 0.12106347E-01 0.78793383E+02</pdfrwt>
<totfact> 0.74890061E+05</totfact>
</mgrwt>
</event>
<event>
 6    2  0.8544106E+000  0.9658165E+02  0.7546771E-02  0.1287653E+00
          4   -1    0    0  502    0 -0.00000000000E+00  0.00000000000E+00  0.20346527422E+02  0.20346527422E+02  0.00000000000E+00 0. -1.
         21   -1    0    0  501  502  0.00000000000E+00 -0.00000000000E+00 -0.41278149949E+03  0.41278149949E+03  0.00000000000E+00 0. -1.
         24    2    1    2    0    0  0.27372981060E+02 -0.49637589147E+02 -0.11601256226E+03  0.15095340192E+03  0.78197471823E+02 0.  0.
        -13    1    3    3    0    0  0.39392080376E+02 -0.60065955405E+01 -0.90775051323E+02  0.99135892234E+02  0.00000000000E+00 0.  1.
         14    1    3    3    0    0 -0.12019099316E+02 -0.43630993606E+02 -0.25237510940E+02  0.51817509684E+02  0.00000000000E+00 0. -1.
          3    1    1    2  501    0 -0.27372981060E+02  0.49637589147E+02 -0.27642240980E+03  0.28217462499E+03  0.00000000000E+00 0. -1.
<mgrwt>
<rscale>  1 0.96581649E+02</rscale>
<asrwt>0</asrwt>
<pdfrwt beam="1">  1       21 0.63504848E-01 0.96581649E+02</pdfrwt>
<pdfrwt beam="2">  1        4 0.31302349E-02 0.96581649E+02</pdfrwt>
<totfact> 0.45489217E+04</totfact>
</mgrwt>
</event>
<event>
 6    2  0.8544106E+000  0.8643389E+02  0.7546771E-02  0.1311725E+00
         21   -1    0    0  501  502  0.00000000000E+00  0.00000000000E+00  0.70251977826E+02  0.70251977826E+02  0.00000000000E+00 0.  1.
         -1   -1    0    0    0  501 -0.00000000000E+00 -0.00000000000E+00 -0.83418867461E+02  0.83418867461E+02  0.00000000000E+00 0.  1.
         24    2    1    2    0    0 -0.20106351970E+01 -0.31521475580E+02 -0.54099560878E+02  0.10196852762E+03  0.80456025642E+02 0.  0.
        -11    1    3    3    0    0 -0.36647710070E+01 -0.22484795531E+02 -0.75402632488E+02  0.78768988586E+02  0.00000000000E+00 0.  1.
         12    1    3    3    0    0  0.16541358100E+01 -0.90366800486E+01  0.21303071611E+02  0.23199539039E+02  0.00000000000E+00 0. -1.
         -2    1    1    2    0  502  0.20106351970E+01  0.31521475580E+02  0.40932671242E+02  0.51702317662E+02  0.00000000000E+00 0.  1.
<mgrwt>
<rscale>  1 0.86433895E+02</rscale>
<asrwt>0</asrwt>
<pdfrwt beam="1">  1       21 0.10807997E-01 0.86433895E+02</pdfrwt>
<pdfrwt beam="2">  1       -1 0.12833672E-01 0.86433895E+02</pdfrwt>
<totfact> 0.24640016E+05</totfact>
</mgrwt>
</event>
<event>
 6    2  0.8544106E+000  0.7025599E+02  0.7546771E-02  0.1359225E+00
          2   -1    0    0  502    0 -0.00000000000E+00  0.00000000000E+00  0.23843820344E+03  0.23843820344E+03  0.00000000000E+00 0. -1.
         21   -1    0    0  501  502  0.00000000000E+00 -0.00000000000E+00 -0.18874210627E+02  0.18874210627E+02  0.00000000000E+00 0. -1.
         24    2    1    2    0    0  0.17470826279E+02  0.10722873686E+02  0.22532123951E+03  0.23602026340E+03  0.67198913456E+02 0.  0.
        -11    1    3    3    0    0 -0.48029984890E+01  0.25685288760E+01 -0.31694528980E+01  0.63017114140E+01  0.00000000000E+00 0.  1.
         12    1    3    3    0    0  0.22273824768E+02  0.81543448096E+01  0.22849069240E+03  0.22971855198E+03  0.00000000000E+00 0. -1.
          1    1    1    2  501    0 -0.17470826279E+02 -0.10722873686E+02 -0.57572466890E+01  0.21292150675E+02  0.00000000000E+00 0. -1.
<mgrwt>
<rscale>  1 0.70255987E+02</rscale>
<asrwt>0</asrwt>
<pdfrwt beam="1">  1       21 0.29037249E-02 0.70255987E+02</pdfrwt>
<pdfrwt beam="2">  1        2 0.36682798E-01 0.70255987E+02</pdfrwt>
<totfact> 0.10516743E+06</totfact>
</mgrwt>
</event>
<event>
 6    2  0.8544106E+000  0.8299704E+02  0.7546771E-02  0.1320755E+00
         21   -1    0    0  501  502  0.00000000000E+00  0.00000000000E+00  0.17604575209E+03  0.17604575209E+03  0.00000000000E+00 0.  1.
          4   -1    0    0  502    0 -0.00000000000E+00 -0.00000000000E+00 -0.17306710436E+02  0.17306710436E+02  0.00000000000E+00 0. -1.
         24    2    1    2    0    0 -0.16654081346E+02  0.14980210407E+02  0.96923962050E+02  0.12760393254E+03  0.79917107367E+02 0.  0.
        -13    1    3    3    0    0 -0.35357668880E+01  0.47245423887E+02  0.47040818580E+02  0.66764289395E+02  0.00000000000E+00 0.  1.
         14    1    3    3    0    0 -0.13118314458E+02 -0.32265213480E+02  0.49883143470E+02  0.60839643141E+02  0.00000000000E+00 0. -1.
          3    1    1    2  501    0  0.16654081346E+02 -0.14980210407E+02  0.61815079604E+02  0.65748529990E+02  0.00000000000E+00 0. -1.
<mgrwt>
<rscale>  1 0.82997043E+02</rscale>
<asrwt>0</asrwt>
<pdfrwt beam="1">  1       21 0.27083961E-01 0.82997043E+02</pdfrwt>
<pdfrwt beam="2">  1        4 0.26625710E-02 0.82997043E+02</pdfrwt>
<totfact> 0.31211805E+05</totfact>
</mgrwt>
</event>
<event>
 6    2  0.8544106E+000  0.8675743E+02  0.7546771E-02  0.1310900E+00
         21   -1    0    0  501  502  0.00000000000E+00  0.00000000000E+00  0.25258522878E+01  0.25258522878E+01  0.00000000000E+00 0. -1.
         -1   -1    0    0    0  501 -0.00000000000E+00 -0.00000000000E+00 -0.15373909026E+04  0.15373909026E+04  0.00000000000E+00 0.  1.
         24    2    1    2    0    0 -0.30763456952E+02  0.53925523901E+01 -0.13131303555E+04  0.13159932305E+04  0.80940609079E+02 0.  0.
        -13    1    3    3    0    0  0.16600589854E+02  0.28351905803E+02 -0.39993385616E+03  0.40128107288E+03  0.00000000000E+00 0.  1.
         14    1    3    3    0    0 -0.47364046806E+02 -0.22959353413E+02 -0.91319649937E+03  0.91471215762E+03  0.00000000000E+00 0. -1.
         -2    1    1    2    0  502  0.30763456952E+02 -0.53925523901E+01 -0.22173469479E+03  0.22392352439E+03  0.00000000000E+00 0.  1.
<mgrwt>
<rscale>  1 0.86757433E+02</rscale>
<asrwt>0</asrwt>
<pdfrwt beam="1">  1       21 0.38859353E-03 0.86757433E+02</pdfrwt>
<pdfrwt beam="2">  1       -1 0.23652115E+00 0.86757433E+02</pdfrwt>
<totfact> 0.14656301E+05</totfact>
</mgrwt>
</event>
<event>
 6    2  0.8544106E+000  0.8115398E+02  0.7546771E-02  0.1325808E+00
         21   -1    0    0  501  502  0.00000000000E+00  0.00000000000E+00  0.22690962800E+02  0.22690962800E+02  0.00000000000E+00 0.  1.
          2   -1    0    0  502    0 -0.00000000000E+00 -0.00000000000E+00 -0.11705122489E+03  0.11705122489E+03  0.00000000000E+00 0. -1.
         24    2    1    2    0    0  0.11052725250E+01 -0.21162408713E+02 -0.81174395360E+02  0.11478349679E+03  0.78338365464E+02 0.  0.
        -11    1    3    3    0    0  0.14813007779E+01  0.23962439885E+02 -0.25683304907E+01  0.24145167192E+02  0.00000000000E+00 0.  1.
         12    1    3    3    0    0 -0.37602825289E+00 -0.45124848598E+02 -0.78606064869E+02  0.90638329599E+02  0.00000000000E+00 0. -1.
          1    1    1    2  501    0 -0.11052725250E+01  0.21162408713E+02 -0.13185866726E+02  0.24958690895E+02  0.00000000000E+00 0. -1.
<mgrwt>
<rscale>  1 0.81153981E+02</rscale>
<asrwt>0</asrwt>
<pdfrwt beam="1">  1       21 0.34909173E-02 0.81153981E+02</pdfrwt>
<pdfrwt beam="2">  1        2 0.18007881E-01 0.81153981E+02</pdfrwt>
<totfact> 0.17139248E+06</totfact>
</mgrwt>
</event>
<event>
 6    2  0.8544106E+000  0.9823437E+02  0.7546771E-02  0.1284053E+00
          2   -1    0    0  502    0 -0.00000000000E+00  0.00000000000E+00  0.13739804750E+04  0.13739804750E+04  0.00000000000E+00 0. -1.
         21   -1    0    0  501  502  0.00000000000E+00 -0.00000000000E+00 -0.38669178013E+01  0.38669178013E+01  0.00000000000E+00 0. -1.
         24    2    1    2    0    0 -0.43103588133E+02 -0.18231302657E+02  0.86036018520E+03  0.86595013752E+03  0.86369512427E+02 0.  0.
        -13    1    3    3    0    0  0.70994611454E+01 -0.38243645765E+02  0.22889664861E+03  0.23217806644E+03  0.00000000000E+00 0.  1.
         14    1    3    3    0    0 -0.50203049278E+02  0.20012343108E+02  0.63146353659E+03  0.63377207107E+03  0.00000000000E+00 0. -1.
          1    1    1    2  501    0  0.43103588133E+02  0.18231302657E+02  0.50975337197E+03  0.51189725526E+03  0.00000000000E+00 0. -1.
<mgrwt>
<rscale>  1 0.98234375E+02</rscale>
<asrwt>0</asrwt>
<pdfrwt beam="1">  1       21 0.59491153E-03 0.98234375E+02</pdfrwt>
<pdfrwt beam="2">  1        2 0.21138122E+00 0.98234375E+02</pdfrwt>
<totfact> 0.16729589E+06</totfact>
</mgrwt>
</event>
<event>
 6    2  0.8544106E+000  0.9728348E+02  0.7546771E-02  0.1286114E+00
         21   -1    0    0  501  502  0.00000000000E+00  0.00000000000E+00  0.30910425539E+01  0.30910425539E+01  0.00000000000E+00 0. -1.
          2   -1    0    0  502    0 -0.00000000000E+00 -0.00000000000E+00 -0.23981842736E+04  0.23981842736E+04  0.00000000000E+00 0. -1.
         24    2    1    2    0    0 -0.17266860236E+02  0.10722520381E+02 -0.23476099732E+04  0.23496247916E+04  0.95136524850E+02 0.  0.
        -13    1    3    3    0    0 -0.41025443559E+02 -0.13085024138E+00 -0.45786712196E+03  0.45970143084E+03  0.00000000000E+00 0.  1.
         14    1    3    3    0    0  0.23758583323E+02  0.10853370623E+02 -0.18897428512E+04  0.18899233608E+04  0.00000000000E+00 0. -1.
          1    1    1    2  501    0  0.17266860236E+02 -0.10722520381E+02 -0.47483257829E+02  0.51650524487E+02  0.00000000000E+00 0. -1.
<mgrwt>
<rscale>  1 0.97283479E+02</rscale>
<asrwt>0</asrwt>
<pdfrwt beam="1">  1       21 0.47554529E-03 0.97283479E+02</pdfrwt>
<pdfrwt beam="2">  1        2 0.36895121E+00 0.97283479E+02</pdfrwt>
<totfact> 0.71043931E+05</totfact>
</mgrwt>
</event>
<event>
 6    2  0.8544106E+000  0.8278717E+02  0.7546771E-02  0.1321323E+00
          2   -1    0    0  502    0 -0.00000000000E+00  0.00000000000E+00  0.14656256465E+03  0.14656256465E+03  0.00000000000E+00 0. -1.
         21   -1    0    0  501  502  0.00000000000E+00 -0.00000000000E+00 -0.21043441630E+02  0.21043441630E+02  0.00000000000E+00 0.  1.
         24    2    1    2    0    0 -0.32743866473E+01 -0.21688126611E+02  0.71814262967E+02  0.10959472775E+03  0.79828688706E+02 0.  0.
        -11    1    3    3    0    0 -0.35887487390E+02 -0.15111946590E+02  0.11313337459E+02  0.40549652100E+02  0.00000000000E+00 0.  1.
         12    1    3    3    0    0  0.32613100743E+02 -0.65761800207E+01  0.60500925508E+02  0.69045075647E+02  0.00000000000E+00 0. -1.
          1    1    1    2  501    0  0.32743866473E+01  0.21688126611E+02  0.53704860048E+02  0.58011278529E+02  0.00000000000E+00 0. -1.
<mgrwt>
<rscale>  1 0.82787173E+02</rscale>
<asrwt>0</asrwt>
<pdfrwt beam="1">  1       21 0.32374527E-02 0.82787173E+02</pdfrwt>
<pdfrwt beam="2">  1        2 0.22548086E-01 0.82787173E+02</pdfrwt>
<totfact> 0.15129742E+06</totfact>
</mgrwt>
</event>
<event>
 6    2  0.8544106E+000  0.8295174E+02  0.7546771E-02  0.1320878E+00
          2   -1    0    0  502    0 -0.00000000000E+00  0.00000000000E+00  0.10294686347E+04  0.10294686347E+04  0.00000000000E+00 0. -1.
         21   -1    0    0  501  502  0.00000000000E+00 -0.00000000000E+00 -0.53305854005E+01  0.53305854005E+01  0.00000000000E+00 0. -1.
         24    2    1    2    0    0  0.21044086386E+02  0.44576236660E-01  0.99706270995E+03  0.10005073908E+04  0.80237994885E+02 0.  0.
        -13    1    3    3    0    0 -0.14151036136E+01  0.17730336494E+02  0.50995947342E+02  0.54008832572E+02  0.00000000000E+00 0.  1.
         14    1    3    3    0    0  0.22459190000E+02 -0.17685760257E+02  0.94606676261E+03  0.94649855819E+03  0.00000000000E+00 0. -1.
          1    1    1    2  501    0 -0.21044086386E+02 -0.44576236660E-01  0.27075339342E+02  0.34291829338E+02  0.00000000000E+00 0. -1.
<mgrwt>
<rscale>  1 0.82951741E+02</rscale>
<asrwt>0</asrwt>
<pdfrwt beam="1">  1       21 0.82009088E-03 0.82951741E+02</pdfrwt>
<pdfrwt beam="2">  1        2 0.15837963E+00 0.82951741E+02</pdfrwt>
<totfact> 0.15469201E+06</totfact>
</mgrwt>
</event>
<event>
 6    2  0.8544106E+000  0.8437744E+02  0.7546771E-02  0.1317069E+00
         21   -1    0    0  501  502  0.00000000000E+00  0.00000000000E+00  0.27385224918E+02  0.27385224918E+02  0.00000000000E+00 0.  1.
          2   -1    0    0  502    0 -0.00000000000E+00 -0.00000000000E+00 -0.14491479256E+03  0.14491479256E+03  0.00000000000E+00 0. -1.
         24    2    1    2    0    0 -0.54840170456E+00 -0.23446535999E+02 -0.12208784882E+03  0.14840820461E+03  0.81052523528E+02 0.  0.
        -11    1    3    3    0    0 -0.30552440102E+02 -0.17947505805E+02 -0.17610446518E+02  0.39568831009E+02  0.00000000000E+00 0.  1.
         12    1    3    3    0    0  0.30004038398E+02 -0.54990301933E+01 -0.10447740231E+03  0.10883937360E+03  0.00000000000E+00 0. -1.
          1    1    1    2  501    0  0.54840170456E+00  0.23446535999E+02  0.45582811824E+01  0.23891812868E+02  0.00000000000E+00 0. -1.
<mgrwt>
<rscale>  1 0.84377440E+02</rscale>
<asrwt>0</asrwt>
<pdfrwt beam="1">  1       21 0.42131116E-02 0.84377440E+02</pdfrwt>
<pdfrwt beam="2">  1        2 0.22294583E-01 0.84377440E+02</pdfrwt>
<totfact> 0.99754324E+05</totfact>
</mgrwt>
</event>
<event>
 6    2  0.8544106E+000  0.7967134E+02  0.7546771E-02  0.1329987E+00
         21   -1    0    0  501  502  0.00000000000E+00  0.00000000000E+00  0.97837342711E+01  0.97837342711E+01  0.00000000000E+00 0. -1.
          2   -1    0    0  502    0 -0.00000000000E+00 -0.00000000000E+00 -0.13732794894E+04  0.13732794894E+04  0.00000000000E+00 0. -1.
         24    2    1    2    0    0 -0.22236303067E+02 -0.11301487167E+02 -0.13540488838E+04  0.13563907629E+04  0.75666011024E+02 0.  0.
        -13    1    3    3    0    0 -0.37365145368E+02  0.19328854208E+02 -0.54514411547E+03  0.54676490864E+03  0.00000000000E+00 0.  1.
         14    1    3    3    0    0  0.15128842301E+02 -0.30630341375E+02 -0.80890476829E+03  0.80962585424E+03  0.00000000000E+00 0. -1.
          1    1    1    2  501    0  0.22236303067E+02  0.11301487167E+02 -0.94468713750E+01  0.26672460799E+02  0.00000000000E+00 0. -1.
<mgrwt>
<rscale>  1 0.79671337E+02</rscale>
<asrwt>0</asrwt>
<pdfrwt beam="1">  1       21 0.15051908E-02 0.79671337E+02</pdfrwt>
<pdfrwt beam="2">  1        2 0.21127364E+00 0.79671337E+02</pdfrwt>
<totfact> 0.38850042E+05</totfact>
</mgrwt>
</event>
<event>
 6    2  0.8544106E+000  0.9436070E+02  0.7546771E-02  0.1292622E+00
         -3   -1    0    0    0  501 -0.00000000000E+00  0.00000000000E+00  0.15561412482E+03  0.15561412482E+03  0.00000000000E+00 0.  1.
         21   -1    0    0  501  502  0.00000000000E+00 -0.00000000000E+00 -0.72527685004E+02  0.72527685004E+02  0.00000000000E+00 0.  1.
         24    2    1    2    0    0 -0.29889746415E+02  0.20493915331E+02  0.13507385333E+03  0.16476919215E+03  0.87123724217E+02 0.  0.
        -11    1    3    3    0    0 -0.83176760412E+01  0.34064917082E+02  0.90781419379E+01  0.36221747219E+02  0.00000000000E+00 0.  1.
         12    1    3    3    0    0 -0.21572070374E+02 -0.13571001751E+02  0.12599571139E+03  0.12854744493E+03  0.00000000000E+00 0. -1.
         -4    1    1    2    0  502  0.29889746415E+02 -0.20493915331E+02 -0.51987413518E+02  0.63372617672E+02  0.00000000000E+00 0.  1.
<mgrwt>
<rscale>  1 0.94360695E+02</rscale>
<asrwt>0</asrwt>
<pdfrwt beam="1">  1       21 0.11158105E-01 0.94360695E+02</pdfrwt>
<pdfrwt beam="2">  1       -3 0.23940635E-01 0.94360695E+02</pdfrwt>
<totfact> 0.50015796E+04</totfact>
</mgrwt>
</event>
<event>
 6    2  0.8544106E+000  0.1190356E+03  0.7546771E-02  0.1244696E+00
         21   -1    0    0  501  502  0.00000000000E+00  0.00000000000E+00  0.43504963946E+03  0.43504963946E+03  0.00000000000E+00 0.  1.
         -3   -1    0    0    0  501 -0.00000000000E+00 -0.00000000000E+00 -0.24565535544E+02  0.24565535544E+02  0.00000000000E+00 0.  1.
         24    2    1    2    0    0  0.68459111877E+02 -0.51052139752E+02  0.27215523652E+03  0.29704873773E+03  0.82924717968E+02 0.  0.
        -11    1    3    3    0    0 -0.13124032971E+02 -0.31059837870E+02  0.59246361410E+02  0.68169532125E+02  0.00000000000E+00 0.  1.
         12    1    3    3    0    0  0.81583144848E+02 -0.19992301883E+02  0.21290887511E+03  0.22887920560E+03  0.00000000000E+00 0. -1.
         -4    1    1    2    0  502 -0.68459111877E+02  0.51052139752E+02  0.13832886739E+03  0.16256643727E+03  0.00000000000E+00 0.  1.
<mgrwt>
<rscale>  1 0.11903562E+03</rscale>
<asrwt>0</asrwt>
<pdfrwt beam="1">  1       21 0.66930708E-01 0.11903562E+03</pdfrwt>
<pdfrwt beam="2">  1       -3 0.37793135E-02 0.11903562E+03</pdfrwt>
<totfact> 0.34610148E+04</totfact>
</mgrwt>
</event>
<event>
 6    2  0.8544106E+000  0.9134913E+02  0.7546771E-02  0.1299617E+00
          2   -1    0    0  502    0 -0.00000000000E+00  0.00000000000E+00  0.44459663476E+03  0.44459663476E+03  0.00000000000E+00 0. -1.
         21   -1    0    0  501  502  0.00000000000E+00 -0.00000000000E+00 -0.14407532855E+02  0.14407532855E+02  0.00000000000E+00 0.  1.
         24    2    1    2    0    0 -0.24846665627E+02 -0.33918072029E+02  0.39099400111E+03  0.40152331577E+03  0.81097914881E+02 0.  0.
        -11    1    3    3    0    0  0.21318990416E+02  0.24163893215E+01  0.37698314773E+02  0.43376274926E+02  0.00000000000E+00 0.  1.
         12    1    3    3    0    0 -0.46165656043E+02 -0.36334461351E+02  0.35329568634E+03  0.35814704084E+03  0.00000000000E+00 0. -1.
          1    1    1    2  501    0  0.24846665627E+02  0.33918072029E+02  0.39195100801E+02  0.57480851853E+02  0.00000000000E+00 0. -1.
<mgrwt>
<rscale>  1 0.91349134E+02</rscale>
<asrwt>0</asrwt>
<pdfrwt beam="1">  1       21 0.22165439E-02 0.91349134E+02</pdfrwt>
<pdfrwt beam="2">  1        2 0.68399472E-01 0.91349134E+02</pdfrwt>
<totfact> 0.87123400E+05</totfact>
</mgrwt>
</event>
<event>
 6    2  0.8544106E+000  0.8491049E+02  0.7546771E-02  0.1315667E+00
          2   -1    0    0  502    0 -0.00000000000E+00  0.00000000000E+00  0.13338232068E+04  0.13338232068E+04  0.00000000000E+00 0. -1.
         21   -1    0    0  501  502  0.00000000000E+00 -0.00000000000E+00 -0.58758201480E+01  0.58758201480E+01  0.00000000000E+00 0. -1.
         24    2    1    2    0    0 -0.62899680849E+01  0.31183675253E+02  0.12757437158E+04  0.12785663144E+04  0.78726148317E+02 0.  0.
        -13    1    3    3    0    0 -0.38142842706E+01 -0.26133120658E+02  0.50518801735E+03  0.50587787226E+03  0.00000000000E+00 0.  1.
         14    1    3    3    0    0 -0.24756838143E+01  0.57316795910E+02  0.77055569848E+03  0.77268844210E+03  0.00000000000E+00 0. -1.
          1    1    1    2  501    0  0.62899680849E+01 -0.31183675253E+02  0.52203670787E+02  0.61132712556E+02  0.00000000000E+00 0. -1.
<mgrwt>
<rscale>  1 0.84910492E+02</rscale>
<asrwt>0</asrwt>
<pdfrwt beam="1">  1       21 0.90397339E-03 0.84910492E+02</pdfrwt>
<pdfrwt beam="2">  1        2 0.20520333E+00 0.84910492E+02</pdfrwt>
<totfact> 0.90887418E+05</totfact>
</mgrwt>
</event>
<event>
 6    2  0.8544106E+000  0.1002544E+03  0.7546771E-02  0.1279762E+00
         -1   -1    0    0    0  501 -0.00000000000E+00  0.00000000000E+00  0.18885142646E+02  0.18885142646E+02  0.00000000000E+00 0.  1.
         21   -1    0    0  501  502  0.00000000000E+00 -0.00000000000E+00 -0.29181032019E+03  0.29181032019E+03  0.00000000000E+00 0.  1.
         24    2    1    2    0    0  0.12642627295E+02 -0.46438421540E+02 -0.17934983896E+03  0.20546853182E+03  0.87946516776E+02 0.  0.
        -11    1    3    3    0    0  0.50582736581E+02 -0.23168795013E+02 -0.10440967909E+03  0.11830801913E+03  0.00000000000E+00 0.  1.
         12    1    3    3    0    0 -0.37940109286E+02 -0.23269626526E+02 -0.74940159872E+02  0.87160512694E+02  0.00000000000E+00 0. -1.
         -2    1    1    2    0  502 -0.12642627295E+02  0.46438421540E+02 -0.93575338588E+02  0.10522693102E+03  0.00000000000E+00 0.  1.
<mgrwt>
<rscale>  1 0.10025444E+03</rscale>
<asrwt>0</asrwt>
<pdfrwt beam="1">  1       21 0.44893895E-01 0.10025444E+03</pdfrwt>
<pdfrwt beam="2">  1       -1 0.29054066E-02 0.10025444E+03</pdfrwt>
<totfact> 0.15912478E+05</totfact>
</mgrwt>
</event>
<event>
 6    2  0.8544106E+000  0.8349201E+02  0.7546771E-02  0.1319424E+00
         21   -1    0    0  501  502  0.00000000000E+00  0.00000000000E+00  0.12143421147E+01  0.12143421147E+01  0.00000000000E+00 0.  1.
          2   -1    0    0  502    0 -0.00000000000E+00 -0.00000000000E+00 -0.31583899243E+04  0.31583899243E+04  0.00000000000E+00 0. -1.
         24    2    1    2    0    0  0.27840528581E+02  0.21741257914E+02 -0.17563334273E+04  0.17583168155E+04  0.75651426394E+02 0.  0.
        -13    1    3    3    0    0  0.52686469381E+02  0.12213051990E+02 -0.13705760907E+04  0.13716427535E+04  0.00000000000E+00 0.  1.
         14    1    3    3    0    0 -0.24845940801E+02  0.95282059242E+01 -0.38575733657E+03  0.38667406197E+03  0.00000000000E+00 0. -1.
          1    1    1    2  501    0 -0.27840528581E+02 -0.21741257914E+02 -0.14008421549E+04  0.14012874510E+04  0.00000000000E+00 0. -1.
<mgrwt>
<rscale>  1 0.83492009E+02</rscale>
<asrwt>0</asrwt>
<pdfrwt beam="1">  1       21 0.18682388E-03 0.83492009E+02</pdfrwt>
<pdfrwt beam="2">  1        2 0.48590090E+00 0.83492009E+02</pdfrwt>
<totfact> 0.11127075E+06</totfact>
</mgrwt>
</event>
<event>
 6    2  0.8544106E+000  0.8514023E+02  0.7546771E-02  0.1315066E+00
         21   -1    0    0  501  502  0.00000000000E+00  0.00000000000E+00  0.24687833685E+02  0.24687833685E+02  0.00000000000E+00 0. -1.
         -3   -1    0    0    0  501 -0.00000000000E+00 -0.00000000000E+00 -0.12529882557E+03  0.12529882557E+03  0.00000000000E+00 0.  1.
         24    2    1    2    0    0  0.15565789202E+02  0.18643823890E+02 -0.66105521263E+02  0.10779052832E+03  0.81602525035E+02 0.  0.
        -11    1    3    3    0    0  0.44039545515E+02 -0.25201653787E+01 -0.55229182327E+02  0.70683062916E+02  0.00000000000E+00 0.  1.
         12    1    3    3    0    0 -0.28473756313E+02  0.21163989269E+02 -0.10876338936E+02  0.37107465408E+02  0.00000000000E+00 0. -1.
         -4    1    1    2    0  502 -0.15565789202E+02 -0.18643823890E+02 -0.34505470623E+02  0.42196130932E+02  0.00000000000E+00 0.  1.
<mgrwt>
<rscale>  1 0.85140226E+02</rscale>
<asrwt>0</asrwt>
<pdfrwt beam="1">  1       21 0.37981282E-02 0.85140226E+02</pdfrwt>
<pdfrwt beam="2">  1       -3 0.19276743E-01 0.85140226E+02</pdfrwt>
<totfact> 0.44534028E+05</totfact>
</mgrwt>
</event>
<event>
 6    2  0.8544106E+000  0.1077960E+03  0.7546771E-02  0.1264707E+00
         21   -1    0    0  501  502  0.00000000000E+00  0.00000000000E+00  0.28670978799E+02  0.28670978799E+02  0.00000000000E+00 0. -1.
          2   -1    0    0  502    0 -0.00000000000E+00 -0.00000000000E+00 -0.37065942230E+03  0.37065942230E+03  0.00000000000E+00 0. -1.
         24    2    1    2    0    0 -0.68911128535E+02  0.17415719201E+02 -0.99707313881E+02  0.14683842760E+03  0.81042732355E+02 0.  0.
        -13    1    3    3    0    0 -0.10833088568E+01 -0.10154114670E+02  0.10422498044E+02  0.14591369650E+02  0.00000000000E+00 0.  1.
         14    1    3    3    0    0 -0.67827819678E+02  0.27569833871E+02 -0.11012981192E+03  0.13224705795E+03  0.00000000000E+00 0. -1.
          1    1    1    2  501    0  0.68911128535E+02 -0.17415719201E+02 -0.24228112962E+03  0.25249197350E+03  0.00000000000E+00 0. -1.
<mgrwt>
<rscale>  1 0.10779599E+03</rscale>
<asrwt>0</asrwt>
<pdfrwt beam="1">  1       21 0.44109201E-02 0.10779599E+03</pdfrwt>
<pdfrwt beam="2">  1        2 0.57024523E-01 0.10779599E+03</pdfrwt>
<totfact> 0.34789638E+05</totfact>
</mgrwt>
</event>
<event>
 6    2  0.8544106E+000  0.9058721E+02  0.7546771E-02  0.1301436E+00
         -3   -1    0    0    0  501 -0.00000000000E+00  0.00000000000E+00  0.69737040482E+02  0.69737040482E+02  0.00000000000E+00 0.  1.
         21   -1    0    0  501  502  0.00000000000E+00 -0.00000000000E+00 -0.18197949024E+03  0.18197949024E+03  0.00000000000E+00 0.  1.
         24    2    1    2    0    0 -0.34906130013E+01 -0.44667564938E+02  0.35526552725E+02  0.97304569297E+02  0.78731617035E+02 0.  0.
        -11    1    3    3    0    0 -0.24707327248E+02 -0.47510613516E+02  0.48520547102E+02  0.72263088140E+02  0.00000000000E+00 0.  1.
         12    1    3    3    0    0  0.21216714247E+02  0.28430485785E+01 -0.12993994377E+02  0.25041481157E+02  0.00000000000E+00 0. -1.
         -4    1    1    2    0  502  0.34906130013E+01  0.44667564938E+02 -0.14776900248E+03  0.15441196143E+03  0.00000000000E+00 0.  1.
<mgrwt>
<rscale>  1 0.90587214E+02</rscale>
<asrwt>0</asrwt>
<pdfrwt beam="1">  1       21 0.27996844E-01 0.90587214E+02</pdfrwt>
<pdfrwt beam="2">  1       -3 0.10728776E-01 0.90587214E+02</pdfrwt>
<totfact> 0.36964040E+04</totfact>
</mgrwt>
</event>
<event>
 6    2  0.8544106E+000  0.8389027E+02  0.7546771E-02  0.1318360E+00
          2   -1    0    0  502    0 -0.00000000000E+00  0.00000000000E+00  0.94983315375E+03  0.94983315375E+03  0.00000000000E+00 0. -1.
         21   -1    0    0  501  502  0.00000000000E+00 -0.00000000000E+00 -0.31733781785E+01  0.31733781785E+01  0.00000000000E+00 0.  1.
         24    2    1    2    0    0  0.27230534258E+01  0.23696715384E+02  0.80420070053E+03  0.80856437257E+03  0.80427784428E+02 0.  0.
        -13    1    3    3    0    0  0.10192323464E+01  0.50344902419E+02  0.35291124578E+03  0.35648561742E+03  0.00000000000E+00 0.  1.
         14    1    3    3    0    0  0.17038210794E+01 -0.26648187034E+02  0.45128945476E+03  0.45207875514E+03  0.00000000000E+00 0. -1.
          1    1    1    2  501    0 -0.27230534258E+01 -0.23696715384E+02  0.14245907504E+03  0.14444215936E+03  0.00000000000E+00 0. -1.
<mgrwt>
<rscale>  1 0.83890273E+02</rscale>
<asrwt>0</asrwt>
<pdfrwt beam="1">  1       21 0.48821278E-03 0.83890273E+02</pdfrwt>
<pdfrwt beam="2">  1        2 0.14612795E+00 0.83890273E+02</pdfrwt>
<totfact> 0.38324319E+06</totfact>
</mgrwt>
</event>
<event>
 6    2  0.8544106E+000  0.9118030E+02  0.7546771E-02  0.1300018E+00
         21   -1    0    0  501  502  0.00000000000E+00  0.00000000000E+00  0.30184630598E+02  0.30184630598E+02  0.00000000000E+00 0. -1.
          2   -1    0    0  502    0 -0.00000000000E+00 -0.00000000000E+00 -0.18843654978E+03  0.18843654978E+03  0.00000000000E+00 0. -1.
         24    2    1    2    0    0  0.33555860214E+02 -0.31149048280E+02 -0.14441526571E+03  0.17079114857E+03  0.78851686707E+02 0.  0.
        -13    1    3    3    0    0 -0.14000179586E+02  0.17575248939E+02 -0.44973517775E+02  0.50274364290E+02  0.00000000000E+00 0.  1.
         14    1    3    3    0    0  0.47556039801E+02 -0.48724297218E+02 -0.99441747938E+02  0.12051678428E+03  0.00000000000E+00 0. -1.
          1    1    1    2  501    0 -0.33555860214E+02  0.31149048280E+02 -0.13836653473E+02  0.47830031808E+02  0.00000000000E+00 0. -1.
<mgrwt>
<rscale>  1 0.91180302E+02</rscale>
<asrwt>0</asrwt>
<pdfrwt beam="1">  1       21 0.46437892E-02 0.91180302E+02</pdfrwt>
<pdfrwt beam="2">  1        2 0.28990239E-01 0.91180302E+02</pdfrwt>
<totfact> 0.64375573E+05</totfact>
</mgrwt>
</event>
<event>
 6    2  0.8544106E+000  0.8387332E+02  0.7546771E-02  0.1318405E+00
         -1   -1    0    0    0  501 -0.00000000000E+00  0.00000000000E+00  0.98315195236E+01  0.98315195236E+01  0.00000000000E+00 0.  1.
         21   -1    0    0  501  502  0.00000000000E+00 -0.00000000000E+00 -0.32573009479E+03  0.32573009479E+03  0.00000000000E+00 0. -1.
         24    2    1    2    0    0  0.53239938059E+01 -0.20371573538E+02 -0.18691292719E+03  0.20486867905E+03  0.81187359767E+02 0.  0.
        -11    1    3    3    0    0  0.92815751524E+01 -0.12339275127E+02  0.21539348988E+01  0.15589893634E+02  0.00000000000E+00 0.  1.
         12    1    3    3    0    0 -0.39575813465E+01 -0.80322984103E+01 -0.18906686209E+03  0.18927878541E+03  0.00000000000E+00 0. -1.
         -2    1    1    2    0  502 -0.53239938059E+01  0.20371573538E+02 -0.12898564808E+03  0.13069293527E+03  0.00000000000E+00 0.  1.
<mgrwt>
<rscale>  1 0.83873317E+02</rscale>
<asrwt>0</asrwt>
<pdfrwt beam="1">  1       21 0.50112310E-01 0.83873317E+02</pdfrwt>
<pdfrwt beam="2">  1       -1 0.15125418E-02 0.83873317E+02</pdfrwt>
<totfact> 0.31881390E+05</totfact>
</mgrwt>
</event>
<event>
 6    2  0.8544106E+000  0.8457804E+02  0.7546771E-02  0.1316540E+00
         21   -1    0    0  501  502  0.00000000000E+00  0.00000000000E+00  0.61606086317E+01  0.61606086317E+01  0.00000000000E+00 0.  1.
          2   -1    0    0  502    0 -0.00000000000E+00 -0.00000000000E+00 -0.50522996355E+03  0.50522996355E+03  0.00000000000E+00 0. -1.
         24    2    1    2    0    0  0.15033626053E+02  0.17805643997E+02 -0.32746347886E+03  0.33820966224E+03  0.81304334294E+02 0.  0.
        -13    1    3    3    0    0 -0.31790850368E+02  0.19997775928E+02 -0.15555247493E+03  0.16002231615E+03  0.00000000000E+00 0.  1.
         14    1    3    3    0    0  0.46824476420E+02 -0.21921319306E+01 -0.17191100393E+03  0.17818734609E+03  0.00000000000E+00 0. -1.
          1    1    1    2  501    0 -0.15033626053E+02 -0.17805643997E+02 -0.17160587606E+03  0.17318090994E+03  0.00000000000E+00 0. -1.
<mgrwt>
<rscale>  1 0.84578045E+02</rscale>
<asrwt>0</asrwt>
<pdfrwt beam="1">  1       21 0.94778574E-03 0.84578045E+02</pdfrwt>
<pdfrwt beam="2">  1        2 0.77727704E-01 0.84578045E+02</pdfrwt>
<totfact> 0.28863099E+06</totfact>
</mgrwt>
</event>
<event>
 6    2  0.8544106E+000  0.8416973E+02  0.7546771E-02  0.1317618E+00
          2   -1    0    0  502    0 -0.00000000000E+00  0.00000000000E+00  0.31108776376E+04  0.31108776376E+04  0.00000000000E+00 0. -1.
         21   -1    0    0  501  502  0.00000000000E+00 -0.00000000000E+00 -0.89009827739E+00  0.89009827739E+00  0.00000000000E+00 0.  1.
         24    2    1    2    0    0  0.20594207091E+02  0.14324978402E+01  0.23779449995E+04  0.23794341688E+04  0.81598832121E+02 0.  0.
        -13    1    3    3    0    0  0.15738366208E+01 -0.85055837888E+01  0.26194412873E+02  0.27585669886E+02  0.00000000000E+00 0.  1.
         14    1    3    3    0    0  0.19020370470E+02  0.99380816290E+01  0.23517505866E+04  0.23518484989E+04  0.00000000000E+00 0. -1.
          1    1    1    2  501    0 -0.20594207091E+02 -0.14324978402E+01  0.73204253978E+03  0.73233356707E+03  0.00000000000E+00 0. -1.
<mgrwt>
<rscale>  1 0.84169726E+02</rscale>
<asrwt>0</asrwt>
<pdfrwt beam="1">  1       21 0.13694069E-03 0.84169726E+02</pdfrwt>
<pdfrwt beam="2">  1        2 0.47858785E+00 0.84169726E+02</pdfrwt>
<totfact> 0.18836360E+06</totfact>
</mgrwt>
</event>
<event>
 6    2  0.8544106E+000  0.8680097E+02  0.7546771E-02  0.1310789E+00
         21   -1    0    0  501  502  0.00000000000E+00  0.00000000000E+00  0.83642181901E+01  0.83642181901E+01  0.00000000000E+00 0.  1.
         -1   -1    0    0    0  501 -0.00000000000E+00 -0.00000000000E+00 -0.80615392855E+03  0.80615392855E+03  0.00000000000E+00 0.  1.
         24    2    1    2    0    0  0.17815744411E+02 -0.10001957172E+02 -0.78630234504E+03  0.79107887504E+03  0.84362129000E+02 0.  0.
        -13    1    3    3    0    0  0.12188357654E+02  0.18411663284E+02 -0.69371722235E+03  0.69406853407E+03  0.00000000000E+00 0.  1.
         14    1    3    3    0    0  0.56273867565E+01 -0.28413620456E+02 -0.92585122696E+02  0.97010340963E+02  0.00000000000E+00 0. -1.
         -2    1    1    2    0  502 -0.17815744411E+02  0.10001957172E+02 -0.11487365318E+02  0.23439271707E+02  0.00000000000E+00 0.  1.
<mgrwt>
<rscale>  1 0.86800972E+02</rscale>
<asrwt>0</asrwt>
<pdfrwt beam="1">  1       21 0.12868023E-02 0.86800972E+02</pdfrwt>
<pdfrwt beam="2">  1       -1 0.12402373E+00 0.86800972E+02</pdfrwt>
<totfact> 0.13823564E+05</totfact>
</mgrwt>
</event>
<event>
 6    2  0.8544106E+000  0.8196446E+02  0.7546771E-02  0.1323567E+00
         21   -1    0    0  501  502  0.00000000000E+00  0.00000000000E+00  0.11847522751E+03  0.11847522751E+03  0.00000000000E+00 0.  1.
         -1   -1    0    0    0  501 -0.00000000000E+00 -0.00000000000E+00 -0.26227752222E+02  0.26227752222E+02  0.00000000000E+00 0.  1.
         24    2    1    2    0    0 -0.14637821262E+02  0.24866411073E+02  0.61012631946E+02  0.10217981370E+03  0.76717461243E+02 0.  0.
        -13    1    3    3    0    0  0.35851346583E+01  0.34423921943E+02 -0.31932788391E+01  0.34757108945E+02  0.00000000000E+00 0.  1.
         14    1    3    3    0    0 -0.18222955920E+02 -0.95575108708E+01  0.64205910785E+02  0.67422704753E+02  0.00000000000E+00 0. -1.
         -2    1    1    2    0  502  0.14637821262E+02 -0.24866411073E+02  0.31234843342E+02  0.42523166033E+02  0.00000000000E+00 0.  1.
<mgrwt>
<rscale>  1 0.81964462E+02</rscale>
<asrwt>0</asrwt>
<pdfrwt beam="1">  1       21 0.18226958E-01 0.81964462E+02</pdfrwt>
<pdfrwt beam="2">  1       -1 0.40350389E-02 0.81964462E+02</pdfrwt>
<totfact> 0.54040836E+05</totfact>
</mgrwt>
</event>
<event>
 6    2  0.8544106E+000  0.8674911E+02  0.7546771E-02  0.1310921E+00
         21   -1    0    0  501  502  0.00000000000E+00  0.00000000000E+00  0.12593987217E+02  0.12593987217E+02  0.00000000000E+00 0. -1.
          2   -1    0    0  502    0 -0.00000000000E+00 -0.00000000000E+00 -0.42825645151E+03  0.42825645151E+03  0.00000000000E+00 0. -1.
         24    2    1    2    0    0 -0.16502545424E+02 -0.27260902224E+02 -0.39112934764E+03  0.40063396688E+03  0.80684063051E+02 0.  0.
        -13    1    3    3    0    0  0.21507913827E+02  0.17147486163E+02 -0.10126523308E+03  0.10493461807E+03  0.00000000000E+00 0.  1.
         14    1    3    3    0    0 -0.38010459251E+02 -0.44408388386E+02 -0.28986411456E+03  0.29569934880E+03  0.00000000000E+00 0. -1.
          1    1    1    2  501    0  0.16502545424E+02  0.27260902224E+02 -0.24533116645E+02  0.40216471847E+02  0.00000000000E+00 0. -1.
<mgrwt>
<rscale>  1 0.86749114E+02</rscale>
<asrwt>0</asrwt>
<pdfrwt beam="1">  1       21 0.19375363E-02 0.86749114E+02</pdfrwt>
<pdfrwt beam="2">  1        2 0.65885614E-01 0.86749114E+02</pdfrwt>
<totfact> 0.11186796E+06</totfact>
</mgrwt>
</event>
<event>
 6    2  0.8544106E+000  0.9878218E+02  0.7546771E-02  0.1282878E+00
         21   -1    0    0  501  502  0.00000000000E+00  0.00000000000E+00  0.92924560712E+02  0.92924560712E+02  0.00000000000E+00 0.  1.
          2   -1    0    0  502    0 -0.00000000000E+00 -0.00000000000E+00 -0.67439585809E+02  0.67439585809E+02  0.00000000000E+00 0. -1.
         24    2    1    2    0    0  0.27797991506E+02 -0.51771551109E+02  0.23646313536E+02  0.10157296936E+03  0.79403388627E+02 0.  0.
        -13    1    3    3    0    0  0.11608559811E+01 -0.34029806122E+02  0.49740695335E+02  0.60278620287E+02  0.00000000000E+00 0.  1.
         14    1    3    3    0    0  0.26637135525E+02 -0.17741744987E+02 -0.26094381799E+02  0.41294349076E+02  0.00000000000E+00 0. -1.
          1    1    1    2  501    0 -0.27797991506E+02  0.51771551109E+02  0.18386613680E+01  0.58791177158E+02  0.00000000000E+00 0. -1.
<mgrwt>
<rscale>  1 0.98782184E+02</rscale>
<asrwt>0</asrwt>
<pdfrwt beam="1">  1       21 0.14296086E-01 0.98782184E+02</pdfrwt>
<pdfrwt beam="2">  1        2 0.10375321E-01 0.98782184E+02</pdfrwt>
<totfact> 0.30365064E+05</totfact>
</mgrwt>
</event>
<event>
 6    2  0.8544106E+000  0.8034981E+02  0.7546771E-02  0.1328062E+00
          2   -1    0    0  502    0 -0.00000000000E+00  0.00000000000E+00  0.26668519317E+03  0.26668519317E+03  0.00000000000E+00 0. -1.
         21   -1    0    0  501  502  0.00000000000E+00 -0.00000000000E+00 -0.12433938291E+02  0.12433938291E+02  0.00000000000E+00 0. -1.
         24    2    1    2    0    0 -0.19390122310E+02  0.14632269747E+02  0.23426790357E+03  0.24766417174E+03  0.76589889427E+02 0.  0.
        -11    1    3    3    0    0 -0.33896749022E+02  0.19945933058E+02  0.54368561168E+02  0.67102684620E+02  0.00000000000E+00 0.  1.
         12    1    3    3    0    0  0.14506626712E+02 -0.53136633106E+01  0.17989934240E+03  0.18056148712E+03  0.00000000000E+00 0. -1.
          1    1    1    2  501    0  0.19390122310E+02 -0.14632269747E+02  0.19983351309E+02  0.31454959715E+02  0.00000000000E+00 0. -1.
<mgrwt>
<rscale>  1 0.80349806E+02</rscale>
<asrwt>0</asrwt>
<pdfrwt beam="1">  1       21 0.19129138E-02 0.80349806E+02</pdfrwt>
<pdfrwt beam="2">  1        2 0.41028487E-01 0.80349806E+02</pdfrwt>
<totfact> 0.18563878E+06</totfact>
</mgrwt>
</event>
<event>
 6    2  0.8544106E+000  0.9032003E+02  0.7546771E-02  0.1302079E+00
          2   -1    0    0  502    0 -0.00000000000E+00  0.00000000000E+00  0.18630731812E+04  0.18630731812E+04  0.00000000000E+00 0. -1.
         21   -1    0    0  501  502  0.00000000000E+00 -0.00000000000E+00 -0.23387592535E+01  0.23387592535E+01  0.00000000000E+00 0.  1.
         24    2    1    2    0    0 -0.39743447193E+02 -0.12588205876E+02  0.12837133896E+04  0.12868868534E+04  0.80123045516E+02 0.  0.
        -11    1    3    3    0    0 -0.29360514727E+02  0.17007794087E+02  0.21065457599E+03  0.21336976185E+03  0.00000000000E+00 0.  1.
         12    1    3    3    0    0 -0.10382932467E+02 -0.29595999963E+02  0.10730588136E+04  0.10735170916E+04  0.00000000000E+00 0. -1.
          1    1    1    2  501    0  0.39743447193E+02  0.12588205876E+02  0.57702103240E+03  0.57852508706E+03  0.00000000000E+00 0. -1.
<mgrwt>
<rscale>  1 0.90320025E+02</rscale>
<asrwt>0</asrwt>
<pdfrwt beam="1">  1       21 0.35981061E-03 0.90320025E+02</pdfrwt>
<pdfrwt beam="2">  1        2 0.28662546E+00 0.90320025E+02</pdfrwt>
<totfact> 0.20264253E+06</totfact>
</mgrwt>
</event>
<event>
 6    2  0.8544106E+000  0.9041308E+02  0.7546771E-02  0.1301854E+00
          2   -1    0    0  502    0 -0.00000000000E+00  0.00000000000E+00  0.33855858569E+03  0.33855858569E+03  0.00000000000E+00 0. -1.
         21   -1    0    0  501  502  0.00000000000E+00 -0.00000000000E+00 -0.13424373937E+02  0.13424373937E+02  0.00000000000E+00 0. -1.
         24    2    1    2    0    0 -0.30095421325E+02 -0.32280581431E+02  0.22900252015E+03  0.24620454759E+03  0.78909788354E+02 0.  0.
        -11    1    3    3    0    0 -0.70733364240E+01  0.24849051829E+02  0.41907453609E+02  0.49231515648E+02  0.00000000000E+00 0.  1.
         12    1    3    3    0    0 -0.23022084901E+02 -0.57129633260E+02  0.18709506654E+03  0.19697303194E+03  0.00000000000E+00 0. -1.
          1    1    1    2  501    0  0.30095421325E+02  0.32280581431E+02  0.96131691606E+02  0.10577841204E+03  0.00000000000E+00 0. -1.
<mgrwt>
<rscale>  1 0.90413080E+02</rscale>
<asrwt>0</asrwt>
<pdfrwt beam="1">  1       21 0.20652885E-02 0.90413080E+02</pdfrwt>
<pdfrwt beam="2">  1        2 0.52085930E-01 0.90413080E+02</pdfrwt>
<totfact> 0.12985428E+06</totfact>
</mgrwt>
</event>
<event>
 6    2  0.8544106E+000  0.1145396E+03  0.7546771E-02  0.1252387E+00
          2   -1    0    0  502    0 -0.00000000000E+00  0.00000000000E+00  0.59965280172E+03  0.59965280172E+03  0.00000000000E+00 0. -1.
         21   -1    0    0  501  502  0.00000000000E+00 -0.00000000000E+00 -0.19118019214E+02  0.19118019214E+02  0.00000000000E+00 0. -1.
         24    2    1    2    0    0 -0.57499346490E+02  0.57931964098E+02  0.20852386827E+03  0.23791073163E+03  0.80355617581E+02 0.  0.
        -11    1    3    3    0    0 -0.10422103838E+02  0.61269135357E+01 -0.50918381332E+01  0.13118160445E+02  0.00000000000E+00 0.  1.
         12    1    3    3    0    0 -0.47077242652E+02  0.51805050562E+02  0.21361570640E+03  0.22479257118E+03  0.00000000000E+00 0. -1.
          1    1    1    2  501    0  0.57499346490E+02 -0.57931964098E+02  0.37201091424E+03  0.38086008930E+03  0.00000000000E+00 0. -1.
<mgrwt>
<rscale>  1 0.11453957E+03</rscale>
<asrwt>0</asrwt>
<pdfrwt beam="1">  1       21 0.29412342E-02 0.11453957E+03</pdfrwt>
<pdfrwt beam="2">  1        2 0.92254263E-01 0.11453957E+03</pdfrwt>
<totfact> 0.40418360E+05</totfact>
</mgrwt>
</event>
<event>
 6    2  0.8544106E+000  0.8734480E+02  0.7546771E-02  0.1309412E+00
         21   -1    0    0  501  502  0.00000000000E+00  0.00000000000E+00  0.16614455338E+02  0.16614455338E+02  0.00000000000E+00 0. -1.
          2   -1    0    0  502    0 -0.00000000000E+00 -0.00000000000E+00 -0.26920095584E+03  0.26920095584E+03  0.00000000000E+00 0. -1.
         24    2    1    2    0    0  0.17998824188E+02 -0.37917490959E+02 -0.20205539549E+03  0.22012609419E+03  0.76599090753E+02 0.  0.
        -11    1    3    3    0    0 -0.26451791567E+02 -0.19792642906E+02 -0.44518228047E+02  0.55437519955E+02  0.00000000000E+00 0.  1.
         12    1    3    3    0    0  0.44450615755E+02 -0.18124848053E+02 -0.15753716744E+03  0.16468857423E+03  0.00000000000E+00 0. -1.
          1    1    1    2  501    0 -0.17998824188E+02  0.37917490959E+02 -0.50531105017E+02  0.65689316993E+02  0.00000000000E+00 0. -1.
<mgrwt>
<rscale>  1 0.87344802E+02</rscale>
<asrwt>0</asrwt>
<pdfrwt beam="1">  1       21 0.25560700E-02 0.87344802E+02</pdfrwt>
<pdfrwt beam="2">  1        2 0.41415532E-01 0.87344802E+02</pdfrwt>
<totfact> 0.11665908E+06</totfact>
</mgrwt>
</event>
<event>
 6    2  0.8544106E+000  0.8512917E+02  0.7546771E-02  0.1315095E+00
         -1   -1    0    0    0  501 -0.00000000000E+00  0.00000000000E+00  0.44299230427E+02  0.44299230427E+02  0.00000000000E+00 0.  1.
         21   -1    0    0  501  502  0.00000000000E+00 -0.00000000000E+00 -0.94601679330E+02  0.94601679330E+02  0.00000000000E+00 0.  1.
         24    2    1    2    0    0  0.16287641959E+02 -0.24936168700E+02 -0.57676249754E+01  0.85324325952E+02  0.79748826395E+02 0.  0.
        -11    1    3    3    0    0  0.37586597020E+02 -0.31310976452E+02  0.18601998696E+02  0.52337022054E+02  0.00000000000E+00 0.  1.
         12    1    3    3    0    0 -0.21298955061E+02  0.63748077523E+01 -0.24369623672E+02  0.32987303898E+02  0.00000000000E+00 0. -1.
         -2    1    1    2    0  502 -0.16287641959E+02  0.24936168700E+02 -0.44534823927E+02  0.53576583805E+02  0.00000000000E+00 0.  1.
<mgrwt>
<rscale>  1 0.85129167E+02</rscale>
<asrwt>0</asrwt>
<pdfrwt beam="1">  1       21 0.14554104E-01 0.85129167E+02</pdfrwt>
<pdfrwt beam="2">  1       -1 0.68152663E-02 0.85129167E+02</pdfrwt>
<totfact> 0.37741681E+05</totfact>
</mgrwt>
</event>
<event>
 6    2  0.8544106E+000  0.1074870E+03  0.7546771E-02  0.1265296E+00
          2   -1    0    0  502    0 -0.00000000000E+00  0.00000000000E+00  0.10969997401E+03  0.10969997401E+03  0.00000000000E+00 0. -1.
         21   -1    0    0  501  502  0.00000000000E+00 -0.00000000000E+00 -0.97671016971E+02  0.97671016971E+02  0.00000000000E+00 0. -1.
         24    2    1    2    0    0  0.64900901440E+02  0.27149295403E+02  0.59159818311E+02  0.12269201288E+03  0.81266442474E+02 0.  0.
        -11    1    3    3    0    0  0.22339139974E+00 -0.17284521230E+02 -0.83325994118E+01  0.19189496889E+02  0.00000000000E+00 0.  1.
         12    1    3    3    0    0  0.64677510040E+02  0.44433816634E+02  0.67492417723E+02  0.10350251599E+03  0.00000000000E+00 0. -1.
          1    1    1    2  501    0 -0.64900901440E+02 -0.27149295403E+02 -0.47130861272E+02  0.84678978105E+02  0.00000000000E+00 0. -1.
<mgrwt>
<rscale>  1 0.10748696E+03</rscale>
<asrwt>0</asrwt>
<pdfrwt beam="1">  1       21 0.15026310E-01 0.10748696E+03</pdfrwt>
<pdfrwt beam="2">  1        2 0.16876919E-01 0.10748696E+03</pdfrwt>
<totfact> 0.15743910E+05</totfact>
</mgrwt>
</event>
<event>
 6    2  0.8544106E+000  0.1120196E+03  0.7546771E-02  0.1256875E+00
         21   -1    0    0  501  502  0.00000000000E+00  0.00000000000E+00  0.11367228047E+02  0.11367228047E+02  0.00000000000E+00 0.  1.
          2   -1    0    0  502    0 -0.00000000000E+00 -0.00000000000E+00 -0.80789129943E+03  0.80789129943E+03  0.00000000000E+00 0. -1.
         24    2    1    2    0    0 -0.78413321658E+02 -0.10964330818E+02 -0.49444671327E+03  0.50697725067E+03  0.79243390028E+02 0.  0.
        -13    1    3    3    0    0 -0.41617252254E+02  0.34085110415E+02 -0.22938767903E+03  0.23561090324E+03  0.00000000000E+00 0.  1.
         14    1    3    3    0    0 -0.36796069404E+02 -0.45049441233E+02 -0.26505903425E+03  0.27136634743E+03  0.00000000000E+00 0. -1.
          1    1    1    2  501    0  0.78413321658E+02  0.10964330818E+02 -0.30207735811E+03  0.31228127681E+03  0.00000000000E+00 0. -1.
<mgrwt>
<rscale>  1 0.11201955E+03</rscale>
<asrwt>0</asrwt>
<pdfrwt beam="1">  1       21 0.17488040E-02 0.11201955E+03</pdfrwt>
<pdfrwt beam="2">  1        2 0.12429099E+00 0.11201955E+03</pdfrwt>
<totfact> 0.65826861E+05</totfact>
</mgrwt>
</event>
<event>
 6    2  0.8544106E+000  0.8574230E+02  0.7546771E-02  0.1313503E+00
         21   -1    0    0  501  502  0.00000000000E+00  0.00000000000E+00  0.79577937568E+01  0.79577937568E+01  0.00000000000E+00 0. -1.
          4   -1    0    0  502    0 -0.00000000000E+00 -0.00000000000E+00 -0.15529204714E+04  0.15529204714E+04  0.00000000000E+00 0. -1.
         24    2    1    2    0    0 -0.21648020021E+02  0.24212787792E+02 -0.15125995533E+04  0.15150277724E+04  0.79352673810E+02 0.  0.
        -13    1    3    3    0    0  0.27491898421E+02  0.23837479118E+02 -0.59122276327E+03  0.59234144351E+03  0.00000000000E+00 0.  1.
         14    1    3    3    0    0 -0.49139918443E+02  0.37530867357E+00 -0.92137678999E+03  0.92268632892E+03  0.00000000000E+00 0. -1.
          3    1    1    2  501    0  0.21648020021E+02 -0.24212787792E+02 -0.32363124376E+02  0.45850492722E+02  0.00000000000E+00 0. -1.
<mgrwt>
<rscale>  1 0.85742304E+02</rscale>
<asrwt>0</asrwt>
<pdfrwt beam="1">  1       21 0.12242775E-02 0.85742304E+02</pdfrwt>
<pdfrwt beam="2">  1        4 0.23891055E+00 0.85742304E+02</pdfrwt>
<totfact> 0.91130848E+03</totfact>
</mgrwt>
</event>
<event>
 6    2  0.8544106E+000  0.9424821E+02  0.7546771E-02  0.1292878E+00
         -1   -1    0    0    0  501 -0.00000000000E+00  0.00000000000E+00  0.22332934750E+03  0.22332934750E+03  0.00000000000E+00 0.  1.
         21   -1    0    0  501  502  0.00000000000E+00 -0.00000000000E+00 -0.25244587484E+02  0.25244587484E+02  0.00000000000E+00 0. -1.
         24    2    1    2    0    0 -0.11255414517E+02 -0.47844354957E+02  0.16264492980E+03  0.18797898286E+03  0.80417399549E+02 0.  0.
        -11    1    3    3    0    0  0.26878065602E+01  0.21419024796E+02  0.23409933301E+02  0.31843741998E+02  0.00000000000E+00 0.  1.
         12    1    3    3    0    0 -0.13943221077E+02 -0.69263379753E+02  0.13923499650E+03  0.15613524086E+03  0.00000000000E+00 0. -1.
         -2    1    1    2    0  502  0.11255414517E+02  0.47844354957E+02  0.35439830214E+02  0.60594952123E+02  0.00000000000E+00 0.  1.
<mgrwt>
<rscale>  1 0.94248209E+02</rscale>
<asrwt>0</asrwt>
<pdfrwt beam="1">  1       21 0.38837828E-02 0.94248209E+02</pdfrwt>
<pdfrwt beam="2">  1       -1 0.34358360E-01 0.94248209E+02</pdfrwt>
<totfact> 0.28907831E+05</totfact>
</mgrwt>
</event>
<event>
 6    2  0.8544106E+000  0.9057829E+02  0.7546771E-02  0.1301457E+00
          2   -1    0    0  502    0 -0.00000000000E+00  0.00000000000E+00  0.58153780321E+03  0.58153780321E+03  0.00000000000E+00 0. -1.
         21   -1    0    0  501  502  0.00000000000E+00 -0.00000000000E+00 -0.12017096015E+02  0.12017096015E+02  0.00000000000E+00 0. -1.
         24    2    1    2    0    0  0.12784512434E+02 -0.39436026904E+02  0.17679995428E+03  0.19865208365E+03  0.80534356213E+02 0.  0.
        -11    1    3    3    0    0 -0.29728932488E+02 -0.27328295314E+02  0.12041362429E+03  0.12700427578E+03  0.00000000000E+00 0.  1.
         12    1    3    3    0    0  0.42513444923E+02 -0.12107731590E+02  0.56386329988E+02  0.71647807872E+02  0.00000000000E+00 0. -1.
          1    1    1    2  501    0 -0.12784512434E+02  0.39436026904E+02  0.39272075292E+03  0.39490281557E+03  0.00000000000E+00 0. -1.
<mgrwt>
<rscale>  1 0.90578289E+02</rscale>
<asrwt>0</asrwt>
<pdfrwt beam="1">  1       21 0.18487845E-02 0.90578289E+02</pdfrwt>
<pdfrwt beam="2">  1        2 0.89467332E-01 0.90578289E+02</pdfrwt>
<totfact> 0.86980647E+05</totfact>
</mgrwt>
</event>
<event>
 6    2  0.8544106E+000  0.8728027E+02  0.7546771E-02  0.1309575E+00
          2   -1    0    0  502    0 -0.00000000000E+00  0.00000000000E+00  0.80250735019E+03  0.80250735019E+03  0.00000000000E+00 0. -1.
         21   -1    0    0  501  502  0.00000000000E+00 -0.00000000000E+00 -0.47623893871E+01  0.47623893871E+01  0.00000000000E+00 0. -1.
         24    2    1    2    0    0 -0.34344899750E+02 -0.60410464593E+01  0.62248648854E+03  0.62857559171E+03  0.80011122355E+02 0.  0.
        -13    1    3    3    0    0 -0.10841782391E+02 -0.16565810099E+02  0.32694941092E+02  0.38222107251E+02  0.00000000000E+00 0.  1.
         14    1    3    3    0    0 -0.23503117359E+02  0.10524763640E+02  0.58979154745E+03  0.59035348446E+03  0.00000000000E+00 0. -1.
          1    1    1    2  501    0  0.34344899750E+02  0.60410464593E+01  0.17525847226E+03  0.17869414786E+03  0.00000000000E+00 0. -1.
<mgrwt>
<rscale>  1 0.87280273E+02</rscale>
<asrwt>0</asrwt>
<pdfrwt beam="1">  1       21 0.73267593E-03 0.87280273E+02</pdfrwt>
<pdfrwt beam="2">  1        2 0.12346256E+00 0.87280273E+02</pdfrwt>
<totfact> 0.25512213E+06</totfact>
</mgrwt>
</event>
<event>
 6    2  0.8544106E+000  0.8567905E+02  0.7546771E-02  0.1313666E+00
         -1   -1    0    0    0  501 -0.00000000000E+00  0.00000000000E+00  0.31161555023E+03  0.31161555023E+03  0.00000000000E+00 0.  1.
         21   -1    0    0  501  502  0.00000000000E+00 -0.00000000000E+00 -0.14271756147E+02  0.14271756147E+02  0.00000000000E+00 0.  1.
         24    2    1    2    0    0 -0.29125840900E+02 -0.87716149319E-01  0.12781812351E+03  0.15387778546E+03  0.80576534168E+02 0.  0.
        -13    1    3    3    0    0 -0.48810083538E+02 -0.15739653224E+02  0.11440879679E+03  0.12537756466E+03  0.00000000000E+00 0.  1.
         14    1    3    3    0    0  0.19684242638E+02  0.15651937074E+02  0.13409326724E+02  0.28500220799E+02  0.00000000000E+00 0. -1.
         -2    1    1    2    0  502  0.29125840900E+02  0.87716149319E-01  0.16952567058E+03  0.17200952092E+03  0.00000000000E+00 0.  1.
<mgrwt>
<rscale>  1 0.85679053E+02</rscale>
<asrwt>0</asrwt>
<pdfrwt beam="1">  1       21 0.21956550E-02 0.85679053E+02</pdfrwt>
<pdfrwt beam="2">  1       -1 0.47940849E-01 0.85679053E+02</pdfrwt>
<totfact> 0.40515452E+05</totfact>
</mgrwt>
</event>
<event>
 6    2  0.8544106E+000  0.8218575E+02  0.7546771E-02  0.1322961E+00
         21   -1    0    0  501  502  0.00000000000E+00  0.00000000000E+00  0.19288813361E+02  0.19288813361E+02  0.00000000000E+00 0.  1.
         -3   -1    0    0    0  501 -0.00000000000E+00 -0.00000000000E+00 -0.41834806125E+03  0.41834806125E+03  0.00000000000E+00 0.  1.
         24    2    1    2    0    0 -0.27496796964E+01  0.19820552601E+02 -0.40765597229E+03  0.41585801527E+03  0.79712496406E+02 0.  0.
        -11    1    3    3    0    0  0.15356676816E+02  0.44727590151E+02 -0.30625374861E+03  0.30988343515E+03  0.00000000000E+00 0.  1.
         12    1    3    3    0    0 -0.18106356512E+02 -0.24907037550E+02 -0.10140222367E+03  0.10597458012E+03  0.00000000000E+00 0. -1.
         -4    1    1    2    0  502  0.27496796964E+01 -0.19820552601E+02  0.85967243941E+01  0.21778859340E+02  0.00000000000E+00 0.  1.
<mgrwt>
<rscale>  1 0.82185748E+02</rscale>
<asrwt>0</asrwt>
<pdfrwt beam="1">  1       21 0.29675102E-02 0.82185748E+02</pdfrwt>
<pdfrwt beam="2">  1       -3 0.64361231E-01 0.82185748E+02</pdfrwt>
<totfact> 0.68724652E+04</totfact>
</mgrwt>
</event>
<event>
 6    2  0.8544106E+000  0.9107054E+02  0.7546771E-02  0.1300280E+00
         21   -1    0    0  501  502  0.00000000000E+00  0.00000000000E+00  0.11968017597E+03  0.11968017597E+03  0.00000000000E+00 0. -1.
          2   -1    0    0  502    0 -0.00000000000E+00 -0.00000000000E+00 -0.38737493238E+02  0.38737493238E+02  0.00000000000E+00 0. -1.
         24    2    1    2    0    0  0.22242834019E+02 -0.39239665367E+02  0.53721786365E+02  0.10573491869E+03  0.79116039438E+02 0.  0.
        -11    1    3    3    0    0 -0.19951092971E+02  0.49354857278E+01 -0.48356794693E+01  0.21113714170E+02  0.00000000000E+00 0.  1.
         12    1    3    3    0    0  0.42193926991E+02 -0.44175151095E+02  0.58557465835E+02  0.84621204518E+02  0.00000000000E+00 0. -1.
          1    1    1    2  501    0 -0.22242834019E+02  0.39239665367E+02  0.27220896367E+02  0.52682750520E+02  0.00000000000E+00 0. -1.
<mgrwt>
<rscale>  1 0.91070537E+02</rscale>
<asrwt>0</asrwt>
<pdfrwt beam="1">  1       21 0.18412335E-01 0.91070537E+02</pdfrwt>
<pdfrwt beam="2">  1        2 0.59596144E-02 0.91070537E+02</pdfrwt>
<totfact> 0.38110845E+05</totfact>
</mgrwt>
</event>
<event>
 6    2  0.8544106E+000  0.8263342E+02  0.7546771E-02  0.1321740E+00
         -1   -1    0    0    0  501 -0.00000000000E+00  0.00000000000E+00  0.17996899422E+03  0.17996899422E+03  0.00000000000E+00 0.  1.
         21   -1    0    0  501  502  0.00000000000E+00 -0.00000000000E+00 -0.12158651018E+03  0.12158651018E+03  0.00000000000E+00 0.  1.
         24    2    1    2    0    0 -0.64722989478E+01  0.22114933653E+02  0.16923600256E+03  0.18833243471E+03  0.79355658004E+02 0.  0.
        -11    1    3    3    0    0 -0.27223979964E+02  0.12660168838E+02  0.16147709413E+03  0.16424456426E+03  0.00000000000E+00 0.  1.
         12    1    3    3    0    0  0.20751681016E+02  0.94547648149E+01  0.77589084260E+01  0.24087870447E+02  0.00000000000E+00 0. -1.
         -2    1    1    2    0  502  0.64722989478E+01 -0.22114933653E+02 -0.11085351851E+03  0.11322306970E+03  0.00000000000E+00 0.  1.
<mgrwt>
<rscale>  1 0.82633416E+02</rscale>
<asrwt>0</asrwt>
<pdfrwt beam="1">  1       21 0.18705617E-01 0.82633416E+02</pdfrwt>
<pdfrwt beam="2">  1       -1 0.27687538E-01 0.82633416E+02</pdfrwt>
<totfact> 0.27548777E+04</totfact>
</mgrwt>
</event>
<event>
 6    2  0.8544106E+000  0.8213842E+02  0.7546771E-02  0.1323090E+00
         -1   -1    0    0    0  501 -0.00000000000E+00  0.00000000000E+00  0.78776614694E+01  0.78776614694E+01  0.00000000000E+00 0.  1.
         21   -1    0    0  501  502  0.00000000000E+00 -0.00000000000E+00 -0.33464979114E+03  0.33464979114E+03  0.00000000000E+00 0. -1.
         24    2    1    2    0    0 -0.16002991232E+02  0.12818271633E+02 -0.25727029175E+03  0.27006429445E+03  0.79538143704E+02 0.  0.
        -13    1    3    3    0    0 -0.17445623688E+02 -0.24973683866E+02 -0.44309612380E+02  0.53771520538E+02  0.00000000000E+00 0.  1.
         14    1    3    3    0    0  0.14426324554E+01  0.37791955500E+02 -0.21296067937E+03  0.21629277392E+03  0.00000000000E+00 0. -1.
         -2    1    1    2    0  502  0.16002991232E+02 -0.12818271633E+02 -0.69501837920E+02  0.72463158159E+02  0.00000000000E+00 0.  1.
<mgrwt>
<rscale>  1 0.82138420E+02</rscale>
<asrwt>0</asrwt>
<pdfrwt beam="1">  1       21 0.51484576E-01 0.82138420E+02</pdfrwt>
<pdfrwt beam="2">  1       -1 0.12119481E-02 0.82138420E+02</pdfrwt>
<totfact> 0.41176656E+05</totfact>
</mgrwt>
</event>
<event>
 6    2  0.8544106E+000  0.9075063E+02  0.7546771E-02  0.1301044E+00
         -3   -1    0    0    0  501 -0.00000000000E+00  0.00000000000E+00  0.32022752840E+02  0.32022752840E+02  0.00000000000E+00 0.  1.
         21   -1    0    0  501  502  0.00000000000E+00 -0.00000000000E+00 -0.10968649531E+03  0.10968649531E+03  0.00000000000E+00 0.  1.
         24    2    1    2    0    0  0.58205065333E+01 -0.21555090267E+02 -0.42867514486E+02  0.10036583641E+03  0.87961225018E+02 0.  0.
        -11    1    3    3    0    0  0.29160725110E+02 -0.10431586000E+02  0.16874329612E+02  0.35269092351E+02  0.00000000000E+00 0.  1.
         12    1    3    3    0    0 -0.23340218576E+02 -0.11123504268E+02 -0.59741844098E+02  0.65096744056E+02  0.00000000000E+00 0. -1.
         -4    1    1    2    0  502 -0.58205065333E+01  0.21555090267E+02 -0.34796227980E+02  0.41343411741E+02  0.00000000000E+00 0.  1.
<mgrwt>
<rscale>  1 0.90750633E+02</rscale>
<asrwt>0</asrwt>
<pdfrwt beam="1">  1       21 0.16874845E-01 0.90750633E+02</pdfrwt>
<pdfrwt beam="2">  1       -3 0.49265774E-02 0.90750633E+02</pdfrwt>
<totfact> 0.32778787E+05</totfact>
</mgrwt>
</event>
<event>
 6    2  0.8544106E+000  0.9151856E+02  0.7546771E-02  0.1299215E+00
         21   -1    0    0  501  502  0.00000000000E+00  0.00000000000E+00  0.99525995315E+03  0.99525995315E+03  0.00000000000E+00 0. -1.
         -1   -1    0    0    0  501 -0.00000000000E+00 -0.00000000000E+00 -0.50417022489E+01  0.50417022489E+01  0.00000000000E+00 0.  1.
         24    2    1    2    0    0  0.29422254126E+01 -0.44369402978E+02  0.78526931857E+03  0.79058430877E+03  0.79989661733E+02 0.  0.
        -11    1    3    3    0    0  0.34718749214E+00  0.12914668172E+02  0.24865916264E+02  0.28021830504E+02  0.00000000000E+00 0.  1.
         12    1    3    3    0    0  0.25950379205E+01 -0.57284071150E+02  0.76040340230E+03  0.76256247827E+03  0.00000000000E+00 0. -1.
         -2    1    1    2    0  502 -0.29422254126E+01  0.44369402978E+02  0.20494893234E+03  0.20971734663E+03  0.00000000000E+00 0.  1.
<mgrwt>
<rscale>  1 0.91518559E+02</rscale>
<asrwt>0</asrwt>
<pdfrwt beam="1">  1       21 0.15311676E+00 0.91518559E+02</pdfrwt>
<pdfrwt beam="2">  1       -1 0.77564729E-03 0.91518559E+02</pdfrwt>
<totfact> 0.65593623E+04</totfact>
</mgrwt>
</event>
<event>
 6    2  0.8544106E+000  0.8599946E+02  0.7546771E-02  0.1312839E+00
         21   -1    0    0  501  502  0.00000000000E+00  0.00000000000E+00  0.94563590106E+02  0.94563590106E+02  0.00000000000E+00 0. -1.
          2   -1    0    0  502    0 -0.00000000000E+00 -0.00000000000E+00 -0.83572577294E+02  0.83572577294E+02  0.00000000000E+00 0. -1.
         24    2    1    2    0    0 -0.15393419744E+02 -0.27122626662E+02 -0.57109300855E+02  0.10323458551E+03  0.80145574753E+02 0.  0.
        -11    1    3    3    0    0  0.10411751229E+02  0.20111051967E+01  0.16706207695E+02  0.19787533533E+02  0.00000000000E+00 0.  1.
         12    1    3    3    0    0 -0.25805170972E+02 -0.29133731859E+02 -0.73815508550E+02  0.83447051976E+02  0.00000000000E+00 0. -1.
          1    1    1    2  501    0  0.15393419744E+02  0.27122626662E+02  0.68100313666E+02  0.74901581892E+02  0.00000000000E+00 0. -1.
<mgrwt>
<rscale>  1 0.85999462E+02</rscale>
<asrwt>0</asrwt>
<pdfrwt beam="1">  1       21 0.14548245E-01 0.85999462E+02</pdfrwt>
<pdfrwt beam="2">  1        2 0.12857320E-01 0.85999462E+02</pdfrwt>
<totfact> 0.22553328E+05</totfact>
</mgrwt>
</event>
<event>
 6    2  0.8544106E+000  0.8485825E+02  0.7546771E-02  0.1315804E+00
         21   -1    0    0  501  502  0.00000000000E+00  0.00000000000E+00  0.28451617703E+03  0.28451617703E+03  0.00000000000E+00 0.  1.
          2   -1    0    0  502    0 -0.00000000000E+00 -0.00000000000E+00 -0.11608001000E+02  0.11608001000E+02  0.00000000000E+00 0. -1.
         24    2    1    2    0    0  0.46968665130E+01 -0.27513333948E+02  0.17792425685E+03  0.19712423357E+03  0.80136622003E+02 0.  0.
        -13    1    3    3    0    0  0.38962034892E+02 -0.29834110951E+02  0.12195938473E+03  0.13146180382E+03  0.00000000000E+00 0.  1.
         14    1    3    3    0    0 -0.34265168379E+02  0.23207770030E+01  0.55964872118E+02  0.65662429754E+02  0.00000000000E+00 0. -1.
          1    1    1    2  501    0 -0.46968665130E+01  0.27513333948E+02  0.94983919183E+02  0.98999944461E+02  0.00000000000E+00 0. -1.
<mgrwt>
<rscale>  1 0.84858248E+02</rscale>
<asrwt>0</asrwt>
<pdfrwt beam="1">  1       21 0.43771714E-01 0.84858248E+02</pdfrwt>
<pdfrwt beam="2">  1        2 0.17858465E-02 0.84858248E+02</pdfrwt>
<totfact> 0.35757067E+05</totfact>
</mgrwt>
</event>
<event>
 6    2  0.8544106E+000  0.8552764E+02  0.7546771E-02  0.1314058E+00
          2   -1    0    0  502    0 -0.00000000000E+00  0.00000000000E+00  0.16476423072E+04  0.16476423072E+04  0.00000000000E+00 0. -1.
         21   -1    0    0  501  502  0.00000000000E+00 -0.00000000000E+00 -0.27055084013E+01  0.27055084013E+01  0.00000000000E+00 0.  1.
         24    2    1    2    0    0 -0.32525081919E+02 -0.25253091956E+01  0.75776294444E+03  0.76257436140E+03  0.79061485860E+02 0.  0.
        -13    1    3    3    0    0 -0.26576509063E+02 -0.26020685208E+02  0.15787887532E+03  0.16220088213E+03  0.00000000000E+00 0.  1.
         14    1    3    3    0    0 -0.59485728559E+01  0.23495376013E+02  0.59988406913E+03  0.60037347927E+03  0.00000000000E+00 0. -1.
          1    1    1    2  501    0  0.32525081919E+02  0.25253091956E+01  0.88717385436E+03  0.88777345421E+03  0.00000000000E+00 0. -1.
<mgrwt>
<rscale>  1 0.85527637E+02</rscale>
<asrwt>0</asrwt>
<pdfrwt beam="1">  1       21 0.41623338E-03 0.85527637E+02</pdfrwt>
<pdfrwt beam="2">  1        2 0.25348263E+00 0.85527637E+02</pdfrwt>
<totfact> 0.20737277E+06</totfact>
</mgrwt>
</event>
<event>
 6    2  0.8544106E+000  0.8687801E+02  0.7546771E-02  0.1310593E+00
          2   -1    0    0  502    0 -0.00000000000E+00  0.00000000000E+00  0.21162780053E+04  0.21162780053E+04  0.00000000000E+00 0. -1.
         21   -1    0    0  501  502  0.00000000000E+00 -0.00000000000E+00 -0.42454746385E+01  0.42454746385E+01  0.00000000000E+00 0. -1.
         24    2    1    2    0    0  0.27267943130E+02 -0.11089050095E+02  0.20502173391E+04  0.20520572426E+04  0.81739105628E+02 0.  0.
        -11    1    3    3    0    0 -0.25186512645E+02  0.13603181896E+02  0.60283151781E+03  0.60351076696E+03  0.00000000000E+00 0.  1.
         12    1    3    3    0    0  0.52454455774E+02 -0.24692231991E+02  0.14473858213E+04  0.14485464756E+04  0.00000000000E+00 0. -1.
          1    1    1    2  501    0 -0.27267943130E+02  0.11089050095E+02  0.61815191543E+02  0.68466237373E+02  0.00000000000E+00 0. -1.
<mgrwt>
<rscale>  1 0.86878013E+02</rscale>
<asrwt>0</asrwt>
<pdfrwt beam="1">  1       21 0.65315163E-03 0.86878013E+02</pdfrwt>
<pdfrwt beam="2">  1        2 0.32558039E+00 0.86878013E+02</pdfrwt>
<totfact> 0.60588211E+05</totfact>
</mgrwt>
</event>
<event>
 6    2  0.8544106E+000  0.8964000E+02  0.7546771E-02  0.1303726E+00
          2   -1    0    0  502    0 -0.00000000000E+00  0.00000000000E+00  0.28714181818E+03  0.28714181818E+03  0.00000000000E+00 0. -1.
         21   -1    0    0  501  502  0.00000000000E+00 -0.00000000000E+00 -0.17662287609E+02  0.17662287609E+02  0.00000000000E+00 0.  1.
         24    2    1    2    0    0 -0.35673052558E+02 -0.12923397701E+02  0.24167884074E+03  0.25776731974E+03  0.81214211675E+02 0.  0.
        -13    1    3    3    0    0 -0.31445027040E+02  0.16164381048E+01  0.24071583300E+02  0.39633870872E+02  0.00000000000E+00 0.  1.
         14    1    3    3    0    0 -0.42280255174E+01 -0.14539835806E+02  0.21760725744E+03  0.21813344887E+03  0.00000000000E+00 0. -1.
          1    1    1    2  501    0  0.35673052558E+02  0.12923397701E+02  0.27800689837E+02  0.47036786054E+02  0.00000000000E+00 0. -1.
<mgrwt>
<rscale>  1 0.89639997E+02</rscale>
<asrwt>0</asrwt>
<pdfrwt beam="1">  1       21 0.27172752E-02 0.89639997E+02</pdfrwt>
<pdfrwt beam="2">  1        2 0.44175661E-01 0.89639997E+02</pdfrwt>
<totfact> 0.99070596E+05</totfact>
</mgrwt>
</event>
<event>
 6    2  0.8544106E+000  0.9058193E+02  0.7546771E-02  0.1301449E+00
          4   -1    0    0  502    0 -0.00000000000E+00  0.00000000000E+00  0.10834745980E+03  0.10834745980E+03  0.00000000000E+00 0. -1.
         21   -1    0    0  501  502  0.00000000000E+00 -0.00000000000E+00 -0.39380818451E+02  0.39380818451E+02  0.00000000000E+00 0.  1.
         24    2    1    2    0    0  0.19026006333E+02  0.98345544225E+01  0.82394330243E+02  0.12244962705E+03  0.88013511070E+02 0.  0.
        -13    1    3    3    0    0 -0.21418201127E+02  0.33598535923E+02  0.20562906241E+02  0.44837864231E+02  0.00000000000E+00 0.  1.
         14    1    3    3    0    0  0.40444207460E+02 -0.23763981501E+02  0.61831424002E+02  0.77611762819E+02  0.00000000000E+00 0. -1.
          3    1    1    2  501    0 -0.19026006333E+02 -0.98345544225E+01 -0.13427688892E+02  0.25278651203E+02  0.00000000000E+00 0. -1.
<mgrwt>
<rscale>  1 0.90581927E+02</rscale>
<asrwt>0</asrwt>
<pdfrwt beam="1">  1       21 0.60585875E-02 0.90581927E+02</pdfrwt>
<pdfrwt beam="2">  1        4 0.16668840E-01 0.90581927E+02</pdfrwt>
<totfact> 0.22617225E+05</totfact>
</mgrwt>
</event>
<event>
 6    2  0.8544106E+000  0.8350342E+02  0.7546771E-02  0.1319393E+00
          2   -1    0    0  502    0 -0.00000000000E+00  0.00000000000E+00  0.13491294271E+04  0.13491294271E+04  0.00000000000E+00 0. -1.
         21   -1    0    0  501  502  0.00000000000E+00 -0.00000000000E+00 -0.22903354496E+01  0.22903354496E+01  0.00000000000E+00 0.  1.
         24    2    1    2    0    0 -0.16888895076E+02  0.15570372170E+02  0.86152329819E+03  0.86556063621E+03  0.80281693828E+02 0.  0.
        -13    1    3    3    0    0 -0.37078437862E+02  0.37740454455E+02  0.49789270413E+03  0.50069581313E+03  0.00000000000E+00 0.  1.
         14    1    3    3    0    0  0.20189542787E+02 -0.22170082284E+02  0.36363059406E+03  0.36486482309E+03  0.00000000000E+00 0. -1.
          1    1    1    2  501    0  0.16888895076E+02 -0.15570372170E+02  0.48531579348E+03  0.48585912636E+03  0.00000000000E+00 0. -1.
<mgrwt>
<rscale>  1 0.83503423E+02</rscale>
<asrwt>0</asrwt>
<pdfrwt beam="1">  1       21 0.35236038E-03 0.83503423E+02</pdfrwt>
<pdfrwt beam="2">  1        2 0.20755774E+00 0.83503423E+02</pdfrwt>
<totfact> 0.37847382E+06</totfact>
</mgrwt>
</event>
<event>
 6    2  0.8544106E+000  0.1019537E+03  0.7546771E-02  0.1276240E+00
         -1   -1    0    0    0  501 -0.00000000000E+00  0.00000000000E+00  0.48217564125E+03  0.48217564125E+03  0.00000000000E+00 0.  1.
         21   -1    0    0  501  502  0.00000000000E+00 -0.00000000000E+00 -0.10737799280E+02  0.10737799280E+02  0.00000000000E+00 0. -1.
         24    2    1    2    0    0 -0.21148471980E+02  0.35907854545E+02  0.34829426433E+03  0.36290969982E+03  0.93047964899E+02 0.  0.
        -13    1    3    3    0    0 -0.49678596163E+02  0.64244363056E+01  0.26906301904E+03  0.27368621543E+03  0.00000000000E+00 0.  1.
         14    1    3    3    0    0  0.28530124183E+02  0.29483418239E+02  0.79231245283E+02  0.89223484387E+02  0.00000000000E+00 0. -1.
         -2    1    1    2    0  502  0.21148471980E+02 -0.35907854545E+02  0.12314357764E+03  0.13000374071E+03  0.00000000000E+00 0.  1.
<mgrwt>
<rscale>  1 0.10195369E+03</rscale>
<asrwt>0</asrwt>
<pdfrwt beam="1">  1       21 0.16519695E-02 0.10195369E+03</pdfrwt>
<pdfrwt beam="2">  1       -1 0.74180851E-01 0.10195369E+03</pdfrwt>
<totfact> 0.28533533E+05</totfact>
</mgrwt>
</event>
<event>
 6    2  0.8544106E+000  0.8628791E+02  0.7546771E-02  0.1312098E+00
         21   -1    0    0  501  502  0.00000000000E+00  0.00000000000E+00  0.14659994234E+02  0.14659994234E+02  0.00000000000E+00 0.  1.
          4   -1    0    0  502    0 -0.00000000000E+00 -0.00000000000E+00 -0.26850848088E+03  0.26850848088E+03  0.00000000000E+00 0. -1.
         24    2    1    2    0    0 -0.31232741351E+02  0.10851824792E+02 -0.21771062923E+03  0.23418693806E+03  0.79701679058E+02 0.  0.
        -11    1    3    3    0    0 -0.56979716784E+02  0.16713385937E+02 -0.13855936395E+03  0.15074721467E+03  0.00000000000E+00 0.  1.
         12    1    3    3    0    0  0.25746975433E+02 -0.58615611451E+01 -0.79151265281E+02  0.83439723385E+02  0.00000000000E+00 0. -1.
          3    1    1    2  501    0  0.31232741351E+02 -0.10851824792E+02 -0.36137857419E+02  0.48981537056E+02  0.00000000000E+00 0. -1.
<mgrwt>
<rscale>  1 0.86287913E+02</rscale>
<asrwt>0</asrwt>
<pdfrwt beam="1">  1       21 0.22553838E-02 0.86287913E+02</pdfrwt>
<pdfrwt beam="2">  1        4 0.41308996E-01 0.86287913E+02</pdfrwt>
<totfact> 0.21257386E+05</totfact>
</mgrwt>
</event>
<event>
 6    2  0.8544106E+000  0.1354141E+03  0.7546771E-02  0.1219636E+00
         21   -1    0    0  501  502  0.00000000000E+00  0.00000000000E+00  0.11214369872E+04  0.11214369872E+04  0.00000000000E+00 0. -1.
          4   -1    0    0  502    0 -0.00000000000E+00 -0.00000000000E+00 -0.38274233405E+02  0.38274233405E+02  0.00000000000E+00 0. -1.
         24    2    1    2    0    0  0.21273998499E+02  0.10679544780E+03  0.94638315507E+02  0.16520711515E+03  0.80493039762E+02 0.  0.
        -13    1    3    3    0    0  0.43836977220E+01  0.25235477119E+02  0.75527254449E+02  0.79752192922E+02  0.00000000000E+00 0.  1.
         14    1    3    3    0    0  0.16890300777E+02  0.81559970680E+02  0.19111061058E+02  0.85454922224E+02  0.00000000000E+00 0. -1.
          3    1    1    2  501    0 -0.21273998499E+02 -0.10679544780E+03  0.98852443826E+03  0.99450410543E+03  0.00000000000E+00 0. -1.
<mgrwt>
<rscale>  1 0.13541411E+03</rscale>
<asrwt>0</asrwt>
<pdfrwt beam="1">  1       21 0.17252874E+00 0.13541411E+03</pdfrwt>
<pdfrwt beam="2">  1        4 0.58883445E-02 0.13541411E+03</pdfrwt>
<totfact> 0.15856723E+03</totfact>
</mgrwt>
</event>
<event>
 6    2  0.8544106E+000  0.9982891E+02  0.7546771E-02  0.1280656E+00
         21   -1    0    0  501  502  0.00000000000E+00  0.00000000000E+00  0.56665607808E+03  0.56665607808E+03  0.00000000000E+00 0. -1.
          2   -1    0    0  502    0 -0.00000000000E+00 -0.00000000000E+00 -0.37947726684E+02  0.37947726684E+02  0.00000000000E+00 0. -1.
         24    2    1    2    0    0  0.17849236567E+02 -0.11078550168E+02  0.28311066570E+02  0.10376573494E+03  0.97593451307E+02 0.  0.
        -11    1    3    3    0    0 -0.28801806971E+02  0.26125907650E+02  0.19324905413E+02  0.43423025051E+02  0.00000000000E+00 0.  1.
         12    1    3    3    0    0  0.46651043538E+02 -0.37204457819E+02  0.89861611571E+01  0.60342709892E+02  0.00000000000E+00 0. -1.
          1    1    1    2  501    0 -0.17849236567E+02  0.11078550168E+02  0.50039728483E+03  0.50083806982E+03  0.00000000000E+00 0. -1.
<mgrwt>
<rscale>  1 0.99828910E+02</rscale>
<asrwt>0</asrwt>
<pdfrwt beam="1">  1       21 0.87177852E-01 0.99828910E+02</pdfrwt>
<pdfrwt beam="2">  1        2 0.58381122E-02 0.99828910E+02</pdfrwt>
<totfact> 0.17525415E+04</totfact>
</mgrwt>
</event>
<event>
 6    2  0.8544106E+000  0.9854612E+02  0.7546771E-02  0.1283383E+00
         21   -1    0    0  501  502  0.00000000000E+00  0.00000000000E+00  0.68595398679E+02  0.68595398679E+02  0.00000000000E+00 0. -1.
          2   -1    0    0  502    0 -0.00000000000E+00 -0.00000000000E+00 -0.15398209088E+03  0.15398209088E+03  0.00000000000E+00 0. -1.
         24    2    1    2    0    0 -0.32241516922E+02 -0.45910934674E+02 -0.12105708384E+03  0.15609661881E+03  0.81018562823E+02 0.  0.
        -13    1    3    3    0    0  0.16591415321E+02  0.12250337074E+02 -0.14353756954E+02  0.25127199594E+02  0.00000000000E+00 0.  1.
         14    1    3    3    0    0 -0.48832932243E+02 -0.58161271747E+02 -0.10670332688E+03  0.13096941922E+03  0.00000000000E+00 0. -1.
          1    1    1    2  501    0  0.32241516922E+02  0.45910934674E+02  0.35670391634E+02  0.66480870748E+02  0.00000000000E+00 0. -1.
<mgrwt>
<rscale>  1 0.98546115E+02</rscale>
<asrwt>0</asrwt>
<pdfrwt beam="1">  1       21 0.10553138E-01 0.98546115E+02</pdfrwt>
<pdfrwt beam="2">  1        2 0.23689553E-01 0.98546115E+02</pdfrwt>
<totfact> 0.20000795E+05</totfact>
</mgrwt>
</event>
<event>
 6    2  0.8544106E+000  0.1678040E+03  0.7546771E-02  0.1180158E+00
          2   -1    0    0  502    0 -0.00000000000E+00  0.00000000000E+00  0.42829723902E+03  0.42829723902E+03  0.00000000000E+00 0. -1.
         21   -1    0    0  501  502  0.00000000000E+00 -0.00000000000E+00 -0.60423437699E+02  0.60423437699E+02  0.00000000000E+00 0. -1.
         24    2    1    2    0    0  0.11736981996E+03  0.92680510892E+02  0.15408516509E+03  0.22781660869E+03  0.76110560076E+02 0.  0.
        -13    1    3    3    0    0  0.10828209838E+03  0.57246953217E+02  0.83260852076E+02  0.14810332869E+03  0.00000000000E+00 0.  1.
         14    1    3    3    0    0  0.90877215836E+01  0.35433557675E+02  0.70824313016E+02  0.79713279993E+02  0.00000000000E+00 0. -1.
          1    1    1    2  501    0 -0.11736981996E+03 -0.92680510892E+02  0.21378863623E+03  0.26090406804E+03  0.00000000000E+00 0. -1.
<mgrwt>
<rscale>  1 0.16780396E+03</rscale>
<asrwt>0</asrwt>
<pdfrwt beam="1">  1       21 0.92959138E-02 0.16780396E+03</pdfrwt>
<pdfrwt beam="2">  1        2 0.65891881E-01 0.16780396E+03</pdfrwt>
<totfact> 0.85172322E+04</totfact>
</mgrwt>
</event>
<event>
 6    2  0.8544106E+000  0.8634239E+02  0.7546771E-02  0.1311959E+00
         21   -1    0    0  501  502  0.00000000000E+00  0.00000000000E+00  0.47108657170E+03  0.47108657170E+03  0.00000000000E+00 0.  1.
         -3   -1    0    0    0  501 -0.00000000000E+00 -0.00000000000E+00 -0.11094592833E+02  0.11094592833E+02  0.00000000000E+00 0.  1.
         24    2    1    2    0    0 -0.16932436118E+02  0.22558054332E+02  0.16855707904E+03  0.18938452171E+03  0.81605361115E+02 0.  0.
        -11    1    3    3    0    0 -0.35437548411E+02  0.20637637762E+02  0.33223534393E+02  0.52778169420E+02  0.00000000000E+00 0.  1.
         12    1    3    3    0    0  0.18505112293E+02  0.19204165699E+01  0.13533354465E+03  0.13660635229E+03  0.00000000000E+00 0. -1.
         -4    1    1    2    0  502  0.16932436118E+02 -0.22558054332E+02  0.29143489983E+03  0.29279664282E+03  0.00000000000E+00 0.  1.
<mgrwt>
<rscale>  1 0.86342389E+02</rscale>
<asrwt>0</asrwt>
<pdfrwt beam="1">  1       21 0.72474842E-01 0.86342389E+02</pdfrwt>
<pdfrwt beam="2">  1       -3 0.17068608E-02 0.86342389E+02</pdfrwt>
<totfact> 0.95049649E+04</totfact>
</mgrwt>
</event>
<event>
 6    2  0.8544106E+000  0.9022621E+02  0.7546771E-02  0.1302305E+00
         21   -1    0    0  501  502  0.00000000000E+00  0.00000000000E+00  0.41164199340E+02  0.41164199340E+02  0.00000000000E+00 0. -1.
          2   -1    0    0  502    0 -0.00000000000E+00 -0.00000000000E+00 -0.71361511940E+03  0.71361511940E+03  0.00000000000E+00 0. -1.
         24    2    1    2    0    0 -0.22680971096E+02 -0.32462301205E+02 -0.70047733092E+03  0.70626429885E+03  0.81071210952E+02 0.  0.
        -11    1    3    3    0    0  0.21748357152E+02 -0.35986950757E+02 -0.24200631011E+03  0.24563205369E+03  0.00000000000E+00 0.  1.
         12    1    3    3    0    0 -0.44429328248E+02  0.35246495519E+01 -0.45847102081E+03  0.46063224516E+03  0.00000000000E+00 0. -1.
          1    1    1    2  501    0  0.22680971096E+02  0.32462301205E+02  0.28026410861E+02  0.48515019892E+02  0.00000000000E+00 0. -1.
<mgrwt>
<rscale>  1 0.90226208E+02</rscale>
<asrwt>0</asrwt>
<pdfrwt beam="1">  1       21 0.63329542E-02 0.90226208E+02</pdfrwt>
<pdfrwt beam="2">  1        2 0.10978693E+00 0.90226208E+02</pdfrwt>
<totfact> 0.91806006E+04</totfact>
</mgrwt>
</event>
<event>
 6    2  0.8544106E+000  0.1014778E+03  0.7546771E-02  0.1277219E+00
         21   -1    0    0  501  502  0.00000000000E+00  0.00000000000E+00  0.10559316898E+03  0.10559316898E+03  0.00000000000E+00 0. -1.
          2   -1    0    0  502    0 -0.00000000000E+00 -0.00000000000E+00 -0.11306295731E+04  0.11306295731E+04  0.00000000000E+00 0. -1.
         24    2    1    2    0    0  0.59135339786E+02  0.17388659960E+02 -0.11191387346E+04  0.11237300645E+04  0.80612632702E+02 0.  0.
        -11    1    3    3    0    0  0.15529710924E+01 -0.18711402520E+01  0.46956328346E+00  0.24765651079E+01  0.00000000000E+00 0.  1.
         12    1    3    3    0    0  0.57582368694E+02  0.19259800212E+02 -0.11196082979E+04  0.11212534994E+04  0.00000000000E+00 0. -1.
          1    1    1    2  501    0 -0.59135339786E+02 -0.17388659960E+02  0.94102330511E+02  0.11249267760E+03  0.00000000000E+00 0. -1.
<mgrwt>
<rscale>  1 0.10147783E+03</rscale>
<asrwt>0</asrwt>
<pdfrwt beam="1">  1       21 0.16245103E-01 0.10147783E+03</pdfrwt>
<pdfrwt beam="2">  1        2 0.17394301E+00 0.10147783E+03</pdfrwt>
<totfact> 0.98174889E+03</totfact>
</mgrwt>
</event>
<event>
 6    2  0.8544106E+000  0.8537962E+02  0.7546771E-02  0.1314443E+00
         -3   -1    0    0    0  501 -0.00000000000E+00  0.00000000000E+00  0.19172732349E+03  0.19172732349E+03  0.00000000000E+00 0.  1.
         21   -1    0    0  501  502  0.00000000000E+00 -0.00000000000E+00 -0.19546766814E+02  0.19546766814E+02  0.00000000000E+00 0. -1.
         24    2    1    2    0    0 -0.12955170167E+02  0.18241423056E+02  0.16808785996E+03  0.18852906633E+03  0.82395960066E+02 0.  0.
        -11    1    3    3    0    0 -0.20368952662E+02  0.10759003898E+02  0.17462121074E+03  0.17613408994E+03  0.00000000000E+00 0.  1.
         12    1    3    3    0    0  0.74137824945E+01  0.74824191578E+01 -0.65333507795E+01  0.12394976391E+02  0.00000000000E+00 0. -1.
         -4    1    1    2    0  502  0.12955170167E+02 -0.18241423056E+02  0.40926967113E+01  0.22745023973E+02  0.00000000000E+00 0.  1.
<mgrwt>
<rscale>  1 0.85379624E+02</rscale>
<asrwt>0</asrwt>
<pdfrwt beam="1">  1       21 0.30071950E-02 0.85379624E+02</pdfrwt>
<pdfrwt beam="2">  1       -3 0.29496510E-01 0.85379624E+02</pdfrwt>
<totfact> 0.30612875E+05</totfact>
</mgrwt>
</event>
<event>
 6    2  0.8544106E+000  0.8197197E+02  0.7546771E-02  0.1323547E+00
         21   -1    0    0  501  502  0.00000000000E+00  0.00000000000E+00  0.14145471125E+03  0.14145471125E+03  0.00000000000E+00 0.  1.
          2   -1    0    0  502    0 -0.00000000000E+00 -0.00000000000E+00 -0.42570195519E+02  0.42570195519E+02  0.00000000000E+00 0. -1.
         24    2    1    2    0    0 -0.27587023959E+01 -0.26125451111E+02  0.27132736341E+00  0.81972417555E+02  0.77648270983E+02 0.  0.
        -11    1    3    3    0    0 -0.28182247454E+02  0.30018581165E+00  0.25056988455E+02  0.37711826441E+02  0.00000000000E+00 0.  1.
         12    1    3    3    0    0  0.25423545058E+02 -0.26425636922E+02 -0.24785661091E+02  0.44260591114E+02  0.00000000000E+00 0. -1.
          1    1    1    2  501    0  0.27587023959E+01  0.26125451111E+02  0.98613188373E+02  0.10205248922E+03  0.00000000000E+00 0. -1.
<mgrwt>
<rscale>  1 0.81971969E+02</rscale>
<asrwt>0</asrwt>
<pdfrwt beam="1">  1       21 0.21762263E-01 0.81971969E+02</pdfrwt>
<pdfrwt beam="2">  1        2 0.65492609E-02 0.81971969E+02</pdfrwt>
<totfact> 0.24690062E+05</totfact>
</mgrwt>
</event>
<event>
 6    2  0.8544106E+000  0.8015170E+02  0.7546771E-02  0.1328621E+00
          2   -1    0    0  502    0 -0.00000000000E+00  0.00000000000E+00  0.36087006400E+03  0.36087006400E+03  0.00000000000E+00 0. -1.
         21   -1    0    0  501  502  0.00000000000E+00 -0.00000000000E+00 -0.83529611831E+01  0.83529611831E+01  0.00000000000E+00 0. -1.
         24    2    1    2    0    0 -0.18849742070E+02  0.22296063642E+02  0.27262787967E+03  0.28416589611E+03  0.74644949676E+02 0.  0.
        -13    1    3    3    0    0  0.15330884280E+02  0.29269595328E+02  0.58253962053E+02  0.66972153305E+02  0.00000000000E+00 0.  1.
         14    1    3    3    0    0 -0.34180626350E+02 -0.69735316855E+01  0.21437391762E+03  0.21719374281E+03  0.00000000000E+00 0. -1.
          1    1    1    2  501    0  0.18849742070E+02 -0.22296063642E+02  0.79889223144E+02  0.85057129064E+02  0.00000000000E+00 0. -1.
<mgrwt>
<rscale>  1 0.80151705E+02</rscale>
<asrwt>0</asrwt>
<pdfrwt beam="1">  1       21 0.12850712E-02 0.80151705E+02</pdfrwt>
<pdfrwt beam="2">  1        2 0.55518459E-01 0.80151705E+02</pdfrwt>
<totfact> 0.25410211E+06</totfact>
</mgrwt>
</event>
<event>
 6    2  0.8544106E+000  0.7566446E+02  0.7546771E-02  0.1341826E+00
          2   -1    0    0  502    0 -0.00000000000E+00  0.00000000000E+00  0.65409494716E+02  0.65409494716E+02  0.00000000000E+00 0. -1.
         21   -1    0    0  501  502  0.00000000000E+00 -0.00000000000E+00 -0.48785136993E+02  0.48785136993E+02  0.00000000000E+00 0. -1.
         24    2    1    2    0    0 -0.23386192168E+02 -0.11109684025E+02  0.34063234015E+02  0.82978394435E+02  0.71096912508E+02 0.  0.
        -11    1    3    3    0    0  0.30842060975E+01  0.27554778817E+02  0.60285147606E+01  0.28374656881E+02  0.00000000000E+00 0.  1.
         12    1    3    3    0    0 -0.26470398266E+02 -0.38664462842E+02  0.28034719255E+02  0.54603737554E+02  0.00000000000E+00 0. -1.
          1    1    1    2  501    0  0.23386192168E+02  0.11109684025E+02 -0.17438876292E+02  0.31216237275E+02  0.00000000000E+00 0. -1.
<mgrwt>
<rscale>  1 0.75664457E+02</rscale>
<asrwt>0</asrwt>
<pdfrwt beam="1">  1       21 0.75054057E-02 0.75664457E+02</pdfrwt>
<pdfrwt beam="2">  1        2 0.10062999E-01 0.75664457E+02</pdfrwt>
<totfact> 0.93929834E+05</totfact>
</mgrwt>
</event>
<event>
 6    2  0.8544106E+000  0.1067616E+03  0.7546771E-02  0.1266687E+00
          2   -1    0    0  502    0 -0.00000000000E+00  0.00000000000E+00  0.95602408239E+03  0.95602408239E+03  0.00000000000E+00 0. -1.
         21   -1    0    0  501  502  0.00000000000E+00 -0.00000000000E+00 -0.86937789147E+01  0.86937789147E+01  0.00000000000E+00 0.  1.
         24    2    1    2    0    0 -0.57776372349E+01  0.67737858973E+02  0.70477211620E+03  0.71281257585E+03  0.82317883073E+02 0.  0.
        -11    1    3    3    0    0 -0.11665037864E+02  0.81760427284E+01  0.15910356099E+02  0.21355566353E+02  0.00000000000E+00 0.  1.
         12    1    3    3    0    0  0.58874006288E+01  0.59561816245E+02  0.68886176011E+03  0.69145700949E+03  0.00000000000E+00 0. -1.
          1    1    1    2  501    0  0.57776372349E+01 -0.67737858973E+02  0.24255818727E+03  0.25190528546E+03  0.00000000000E+00 0. -1.
<mgrwt>
<rscale>  1 0.10676157E+03</rscale>
<asrwt>0</asrwt>
<pdfrwt beam="1">  1       21 0.13375052E-02 0.10676157E+03</pdfrwt>
<pdfrwt beam="2">  1        2 0.14708055E+00 0.10676157E+03</pdfrwt>
<totfact> 0.81034944E+05</totfact>
</mgrwt>
</event>
<event>
 6    2  0.8544106E+000  0.9326776E+02  0.7546771E-02  0.1295126E+00
         21   -1    0    0  501  502  0.00000000000E+00  0.00000000000E+00  0.16931877932E+02  0.16931877932E+02  0.00000000000E+00 0. -1.
          2   -1    0    0  502    0 -0.00000000000E+00 -0.00000000000E+00 -0.46190039692E+03  0.46190039692E+03  0.00000000000E+00 0. -1.
         24    2    1    2    0    0 -0.32877492025E+02 -0.28956074900E+02 -0.41596013370E+03  0.42628829163E+03  0.82337664537E+02 0.  0.
        -13    1    3    3    0    0  0.26969212888E+02 -0.17323183725E+02 -0.15842616444E+03  0.16163626053E+03  0.00000000000E+00 0.  1.
         14    1    3    3    0    0 -0.59846704914E+02 -0.11632891175E+02 -0.25753396926E+03  0.26465203111E+03  0.00000000000E+00 0. -1.
          1    1    1    2  501    0  0.32877492025E+02  0.28956074900E+02 -0.29008385290E+02  0.52543983220E+02  0.00000000000E+00 0. -1.
<mgrwt>
<rscale>  1 0.93267758E+02</rscale>
<asrwt>0</asrwt>
<pdfrwt beam="1">  1       21 0.26049048E-02 0.93267758E+02</pdfrwt>
<pdfrwt beam="2">  1        2 0.71061586E-01 0.93267758E+02</pdfrwt>
<totfact> 0.64596152E+05</totfact>
</mgrwt>
</event>
<event>
 6    2  0.8544106E+000  0.9281081E+02  0.7546771E-02  0.1296184E+00
          2   -1    0    0  502    0 -0.00000000000E+00  0.00000000000E+00  0.24656814439E+04  0.24656814439E+04  0.00000000000E+00 0. -1.
         21   -1    0    0  501  502  0.00000000000E+00 -0.00000000000E+00 -0.24021216161E+01  0.24021216161E+01  0.00000000000E+00 0.  1.
         24    2    1    2    0    0 -0.84761428760E+01  0.42810494784E+02  0.10393532788E+04  0.10434889001E+04  0.81910090878E+02 0.  0.
        -11    1    3    3    0    0  0.26193147177E+02 -0.24466874276E+01  0.14841708275E+03  0.15073054664E+03  0.00000000000E+00 0.  1.
         12    1    3    3    0    0 -0.34669290053E+02  0.45257182211E+02  0.89093619606E+03  0.89275835345E+03  0.00000000000E+00 0. -1.
          1    1    1    2  501    0  0.84761428760E+01 -0.42810494784E+02  0.14239260435E+04  0.14245946654E+04  0.00000000000E+00 0. -1.
<mgrwt>
<rscale>  1 0.92810810E+02</rscale>
<asrwt>0</asrwt>
<pdfrwt beam="1">  1       21 0.36955914E-03 0.92810810E+02</pdfrwt>
<pdfrwt beam="2">  1        2 0.37933358E+00 0.92810810E+02</pdfrwt>
<totfact> 0.96145796E+05</totfact>
</mgrwt>
</event>
<event>
 6    2  0.8544106E+000  0.8747385E+02  0.7546771E-02  0.1309087E+00
         21   -1    0    0  501  502  0.00000000000E+00  0.00000000000E+00  0.46683396729E+03  0.46683396729E+03  0.00000000000E+00 0.  1.
         -1   -1    0    0    0  501 -0.00000000000E+00 -0.00000000000E+00 -0.15687950625E+02  0.15687950625E+02  0.00000000000E+00 0.  1.
         24    2    1    2    0    0 -0.28716003974E+02 -0.21965636360E+02  0.11525439448E+03  0.14469018477E+03  0.79652847139E+02 0.  0.
        -13    1    3    3    0    0 -0.49495430800E+02 -0.35752587993E+02  0.93085587421E+02  0.11132372525E+03  0.00000000000E+00 0.  1.
         14    1    3    3    0    0  0.20779426826E+02  0.13786951633E+02  0.22168807063E+02  0.33366459523E+02  0.00000000000E+00 0. -1.
         -2    1    1    2    0  502  0.28716003974E+02  0.21965636360E+02  0.33589162218E+03  0.33783173314E+03  0.00000000000E+00 0.  1.
<mgrwt>
<rscale>  1 0.87473848E+02</rscale>
<asrwt>0</asrwt>
<pdfrwt beam="1">  1       21 0.71820600E-01 0.87473848E+02</pdfrwt>
<pdfrwt beam="2">  1       -1 0.24135312E-02 0.87473848E+02</pdfrwt>
<totfact> 0.77266082E+04</totfact>
</mgrwt>
</event>
<event>
 6    2  0.8544106E+000  0.8249091E+02  0.7546771E-02  0.1322128E+00
          2   -1    0    0  502    0 -0.00000000000E+00  0.00000000000E+00  0.11471113807E+04  0.11471113807E+04  0.00000000000E+00 0. -1.
         21   -1    0    0  501  502  0.00000000000E+00 -0.00000000000E+00 -0.51035663779E+01  0.51035663779E+01  0.00000000000E+00 0. -1.
         24    2    1    2    0    0 -0.23273908330E+02 -0.15219420349E+02  0.10910433859E+04  0.10941574021E+04  0.77662378912E+02 0.  0.
        -11    1    3    3    0    0  0.14033322674E+02 -0.34507489820E+02  0.36378127446E+03  0.36568362917E+03  0.00000000000E+00 0.  1.
         12    1    3    3    0    0 -0.37307231004E+02  0.19288069471E+02  0.72726211142E+03  0.72847377291E+03  0.00000000000E+00 0. -1.
          1    1    1    2  501    0  0.23273908330E+02  0.15219420349E+02  0.50964428474E+02  0.58057545026E+02  0.00000000000E+00 0. -1.
<mgrwt>
<rscale>  1 0.82490913E+02</rscale>
<asrwt>0</asrwt>
<pdfrwt beam="1">  1       21 0.78516497E-03 0.82490913E+02</pdfrwt>
<pdfrwt beam="2">  1        2 0.17647847E+00 0.82490913E+02</pdfrwt>
<totfact> 0.14204807E+06</totfact>
</mgrwt>
</event>
<event>
 6    2  0.1112342E+001  0.1157055E+03  0.7546771E-02  0.1250355E+00
         -1   -1    0    0    0  501 -0.00000000000E+00  0.00000000000E+00  0.75825034649E+03  0.75825034649E+03  0.00000000000E+00 0.  1.
         21   -1    0    0  501  502  0.00000000000E+00 -0.00000000000E+00 -0.14043612025E+02  0.14043612025E+02  0.00000000000E+00 0.  1.
         24    2    1    2    0    0 -0.46147381802E+02 -0.69881215970E+02  0.52585508226E+03  0.53843415176E+03  0.79842363795E+02 0.  0.
        -13    1    3    3    0    0 -0.53205834133E+02 -0.76420886139E+02  0.51712414446E+03  0.52544114172E+03  0.00000000000E+00 0.  1.
         14    1    3    3    0    0  0.70584523317E+01  0.65396701685E+01  0.87309377926E+01  0.12993010043E+02  0.00000000000E+00 0. -1.
         -2    1    1    2    0  502  0.46147381802E+02  0.69881215970E+02  0.21835165221E+03  0.23385980676E+03  0.00000000000E+00 0.  1.
<mgrwt>
<rscale>  1 0.11570552E+03</rscale>
<asrwt>0</asrwt>
<pdfrwt beam="1">  1       21 0.21605563E-02 0.11570552E+03</pdfrwt>
<pdfrwt beam="2">  1       -1 0.11665387E+00 0.11570552E+03</pdfrwt>
<totfact> 0.71013507E+04</totfact>
</mgrwt>
</event>
<event>
 6    2  0.8544106E+000  0.8922767E+02  0.7546771E-02  0.1304733E+00
         21   -1    0    0  501  502  0.00000000000E+00  0.00000000000E+00  0.27929619427E+01  0.27929619427E+01  0.00000000000E+00 0. -1.
          2   -1    0    0  502    0 -0.00000000000E+00 -0.00000000000E+00 -0.17709172796E+04  0.17709172796E+04  0.00000000000E+00 0. -1.
         24    2    1    2    0    0 -0.44183662075E+02 -0.38411942928E+01 -0.14152175759E+04  0.14180276314E+04  0.77424967276E+02 0.  0.
        -13    1    3    3    0    0 -0.45073350914E+02 -0.11671973968E+02 -0.38853683753E+03  0.39131664424E+03  0.00000000000E+00 0.  1.
         14    1    3    3    0    0  0.88968883909E+00  0.78307796750E+01 -0.10266807383E+04  0.10267109871E+04  0.00000000000E+00 0. -1.
          1    1    1    2  501    0  0.44183662075E+02  0.38411942928E+01 -0.35290674174E+03  0.35568261011E+03  0.00000000000E+00 0. -1.
<mgrwt>
<rscale>  1 0.89227666E+02</rscale>
<asrwt>0</asrwt>
<pdfrwt beam="1">  1       21 0.42968772E-03 0.89227666E+02</pdfrwt>
<pdfrwt beam="2">  1        2 0.27244801E+00 0.89227666E+02</pdfrwt>
<totfact> 0.17186155E+06</totfact>
</mgrwt>
</event>
<event>
 6    2  0.8544106E+000  0.1712987E+03  0.7546771E-02  0.1176500E+00
         21   -1    0    0  501  502  0.00000000000E+00  0.00000000000E+00  0.73162701799E+02  0.73162701799E+02  0.00000000000E+00 0.  1.
          2   -1    0    0  502    0 -0.00000000000E+00 -0.00000000000E+00 -0.35879469349E+03  0.35879469349E+03  0.00000000000E+00 0. -1.
         24    2    1    2    0    0  0.43492188791E+02  0.14535540552E+03 -0.13434065913E+03  0.21769393199E+03  0.79520254831E+02 0.  0.
        -11    1    3    3    0    0  0.45723149298E+02  0.82364347428E+02 -0.35920329210E+02  0.10082044515E+03  0.00000000000E+00 0.  1.
         12    1    3    3    0    0 -0.22309605068E+01  0.62991058091E+02 -0.98420329923E+02  0.11687348684E+03  0.00000000000E+00 0. -1.
          1    1    1    2  501    0 -0.43492188791E+02 -0.14535540552E+03 -0.15129133256E+03  0.21426346330E+03  0.00000000000E+00 0. -1.
<mgrwt>
<rscale>  1 0.17129867E+03</rscale>
<asrwt>0</asrwt>
<pdfrwt beam="1">  1       21 0.11255800E-01 0.17129867E+03</pdfrwt>
<pdfrwt beam="2">  1        2 0.55199184E-01 0.17129867E+03</pdfrwt>
<totfact> 0.73552047E+04</totfact>
</mgrwt>
</event>
<event>
 6    2  0.8544106E+000  0.8401526E+02  0.7546771E-02  0.1318028E+00
          2   -1    0    0  502    0 -0.00000000000E+00  0.00000000000E+00  0.10497571446E+04  0.10497571446E+04  0.00000000000E+00 0. -1.
         21   -1    0    0  501  502  0.00000000000E+00 -0.00000000000E+00 -0.27016678354E+01  0.27016678354E+01  0.00000000000E+00 0.  1.
         24    2    1    2    0    0  0.12736756576E+02  0.17969996869E+02  0.86698355682E+03  0.87104480496E+03  0.81076622385E+02 0.  0.
        -11    1    3    3    0    0  0.23759156063E+02  0.17079614531E+01  0.72390312691E+02  0.76208739660E+02  0.00000000000E+00 0.  1.
         12    1    3    3    0    0 -0.11022399487E+02  0.16262035416E+02  0.79459324413E+03  0.79483606530E+03  0.00000000000E+00 0. -1.
          1    1    1    2  501    0 -0.12736756576E+02 -0.17969996869E+02  0.18007191997E+03  0.18141400750E+03  0.00000000000E+00 0. -1.
<mgrwt>
<rscale>  1 0.84015263E+02</rscale>
<asrwt>0</asrwt>
<pdfrwt beam="1">  1       21 0.41564204E-03 0.84015263E+02</pdfrwt>
<pdfrwt beam="2">  1        2 0.16150077E+00 0.84015263E+02</pdfrwt>
<totfact> 0.42833133E+06</totfact>
</mgrwt>
</event>
<event>
 6    2  0.8544106E+000  0.8657652E+02  0.7546771E-02  0.1311360E+00
         21   -1    0    0  501  502  0.00000000000E+00  0.00000000000E+00  0.61696333469E+01  0.61696333469E+01  0.00000000000E+00 0. -1.
          2   -1    0    0  502    0 -0.00000000000E+00 -0.00000000000E+00 -0.56243197230E+03  0.56243197230E+03  0.00000000000E+00 0. -1.
         24    2    1    2    0    0 -0.29067704479E+02 -0.93501376529E+01 -0.38237921547E+03  0.39205785144E+03  0.81013196043E+02 0.  0.
        -11    1    3    3    0    0  0.17929352426E+02 -0.26331849682E+02 -0.90765146527E+02  0.96193242019E+02  0.00000000000E+00 0.  1.
         12    1    3    3    0    0 -0.46997056906E+02  0.16981712029E+02 -0.29161406894E+03  0.29586460942E+03  0.00000000000E+00 0. -1.
          1    1    1    2  501    0  0.29067704479E+02  0.93501376529E+01 -0.17388312348E+03  0.17654375421E+03  0.00000000000E+00 0. -1.
<mgrwt>
<rscale>  1 0.86576524E+02</rscale>
<asrwt>0</asrwt>
<pdfrwt beam="1">  1       21 0.94917456E-03 0.86576524E+02</pdfrwt>
<pdfrwt beam="2">  1        2 0.86527978E-01 0.86576524E+02</pdfrwt>
<totfact> 0.25694436E+06</totfact>
</mgrwt>
</event>
<event>
 6    2  0.8544106E+000  0.1128937E+03  0.7546771E-02  0.1255303E+00
         21   -1    0    0  501  502  0.00000000000E+00  0.00000000000E+00  0.18719153718E+03  0.18719153718E+03  0.00000000000E+00 0.  1.
         -3   -1    0    0    0  501 -0.00000000000E+00 -0.00000000000E+00 -0.47910444895E+02  0.47910444895E+02  0.00000000000E+00 0.  1.
         24    2    1    2    0    0 -0.67742917084E+02 -0.30873549755E+02  0.66678992368E+02  0.13111475304E+03  0.84868790216E+02 0.  0.
        -13    1    3    3    0    0 -0.84547083522E+02 -0.24520963802E+02  0.35074696086E+02  0.94761391418E+02  0.00000000000E+00 0.  1.
         14    1    3    3    0    0  0.16804166438E+02 -0.63525859537E+01  0.31604296282E+02  0.36353361625E+02  0.00000000000E+00 0. -1.
         -4    1    1    2    0  502  0.67742917084E+02  0.30873549755E+02  0.72602099918E+02  0.10398722903E+03  0.00000000000E+00 0.  1.
<mgrwt>
<rscale>  1 0.11289371E+03</rscale>
<asrwt>0</asrwt>
<pdfrwt beam="1">  1       21 0.28798698E-01 0.11289371E+03</pdfrwt>
<pdfrwt beam="2">  1       -3 0.73708377E-02 0.11289371E+03</pdfrwt>
<totfact> 0.66011836E+04</totfact>
</mgrwt>
</event>
<event>
 6    2  0.8544106E+000  0.8563176E+02  0.7546771E-02  0.1313789E+00
         21   -1    0    0  501  502  0.00000000000E+00  0.00000000000E+00  0.20337616071E+03  0.20337616071E+03  0.00000000000E+00 0. -1.
         -3   -1    0    0    0  501 -0.00000000000E+00 -0.00000000000E+00 -0.20956157863E+02  0.20956157863E+02  0.00000000000E+00 0.  1.
         24    2    1    2    0    0  0.18196488128E+02  0.23119529759E+02  0.17367555362E+03  0.19363883019E+03  0.80418740342E+02 0.  0.
        -11    1    3    3    0    0  0.10566668626E+02 -0.11464329714E+01 -0.59772605105E+01  0.12194114876E+02  0.00000000000E+00 0.  1.
         12    1    3    3    0    0  0.76298195021E+01  0.24265962731E+02  0.17965281413E+03  0.18144471532E+03  0.00000000000E+00 0. -1.
         -4    1    1    2    0  502 -0.18196488128E+02 -0.23119529759E+02  0.87444492278E+01  0.30693488378E+02  0.00000000000E+00 0.  1.
<mgrwt>
<rscale>  1 0.85631762E+02</rscale>
<asrwt>0</asrwt>
<pdfrwt beam="1">  1       21 0.31288639E-01 0.85631762E+02</pdfrwt>
<pdfrwt beam="2">  1       -3 0.32240244E-02 0.85631762E+02</pdfrwt>
<totfact> 0.19922021E+05</totfact>
</mgrwt>
</event>
<event>
 6    2  0.8544106E+000  0.9052169E+02  0.7546771E-02  0.1301593E+00
         -3   -1    0    0    0  501 -0.00000000000E+00  0.00000000000E+00  0.19925023195E+02  0.19925023195E+02  0.00000000000E+00 0.  1.
         21   -1    0    0  501  502  0.00000000000E+00 -0.00000000000E+00 -0.25171021968E+03  0.25171021968E+03  0.00000000000E+00 0. -1.
         24    2    1    2    0    0 -0.28555468118E+02 -0.30061260289E+02 -0.10706466850E+03  0.14020349545E+03  0.80467898982E+02 0.  0.
        -13    1    3    3    0    0  0.21789558460E+02  0.95101546310E+01 -0.15183115368E+02  0.28209127800E+02  0.00000000000E+00 0.  1.
         14    1    3    3    0    0 -0.50345026578E+02 -0.39571414920E+02 -0.91881553130E+02  0.11199436765E+03  0.00000000000E+00 0. -1.
         -4    1    1    2    0  502  0.28555468118E+02  0.30061260289E+02 -0.12472052798E+03  0.13143174742E+03  0.00000000000E+00 0.  1.
<mgrwt>
<rscale>  1 0.90521693E+02</rscale>
<asrwt>0</asrwt>
<pdfrwt beam="1">  1       21 0.38724650E-01 0.90521693E+02</pdfrwt>
<pdfrwt beam="2">  1       -3 0.30653881E-02 0.90521693E+02</pdfrwt>
<totfact> 0.14337480E+05</totfact>
</mgrwt>
</event>
<event>
 6    2  0.8544106E+000  0.9775727E+02  0.7546771E-02  0.1285084E+00
          2   -1    0    0  502    0 -0.00000000000E+00  0.00000000000E+00  0.92702106986E+03  0.92702106986E+03  0.00000000000E+00 0. -1.
         21   -1    0    0  501  502  0.00000000000E+00 -0.00000000000E+00 -0.67687091656E+01  0.67687091656E+01  0.00000000000E+00 0. -1.
         24    2    1    2    0    0 -0.71565719430E+01  0.59336465178E+02  0.61815464404E+03  0.62583675821E+03  0.77359235754E+02 0.  0.
        -11    1    3    3    0    0  0.23465216905E+02 -0.43652124785E+01  0.96115437797E+02  0.99034584198E+02  0.00000000000E+00 0.  1.
         12    1    3    3    0    0 -0.30621788848E+02  0.63701677656E+02  0.52203920625E+03  0.52680217402E+03  0.00000000000E+00 0. -1.
          1    1    1    2  501    0  0.71565719430E+01 -0.59336465178E+02  0.30209771665E+03  0.30795302081E+03  0.00000000000E+00 0. -1.
<mgrwt>
<rscale>  1 0.97757271E+02</rscale>
<asrwt>0</asrwt>
<pdfrwt beam="1">  1       21 0.10413406E-02 0.97757271E+02</pdfrwt>
<pdfrwt beam="2">  1        2 0.14261853E+00 0.97757271E+02</pdfrwt>
<totfact> 0.12435935E+06</totfact>
</mgrwt>
</event>
<event>
 6    2  0.8544106E+000  0.9100833E+02  0.7546771E-02  0.1300428E+00
         21   -1    0    0  501  502  0.00000000000E+00  0.00000000000E+00  0.62452407546E+01  0.62452407546E+01  0.00000000000E+00 0. -1.
          2   -1    0    0  502    0 -0.00000000000E+00 -0.00000000000E+00 -0.86992239018E+03  0.86992239018E+03  0.00000000000E+00 0. -1.
         24    2    1    2    0    0 -0.21819981194E+02  0.37599642260E+02 -0.72873664650E+03  0.73439745069E+03  0.79954180299E+02 0.  0.
        -13    1    3    3    0    0 -0.84819116565E+01  0.49995167275E+02 -0.23890442443E+03  0.24422691004E+03  0.00000000000E+00 0.  1.
         14    1    3    3    0    0 -0.13338069538E+02 -0.12395525015E+02 -0.48983222207E+03  0.49017054065E+03  0.00000000000E+00 0. -1.
          1    1    1    2  501    0  0.21819981194E+02 -0.37599642260E+02 -0.13494050293E+03  0.14177018025E+03  0.00000000000E+00 0. -1.
<mgrwt>
<rscale>  1 0.91008327E+02</rscale>
<asrwt>0</asrwt>
<pdfrwt beam="1">  1       21 0.96080586E-03 0.91008327E+02</pdfrwt>
<pdfrwt beam="2">  1        2 0.13383427E+00 0.91008327E+02</pdfrwt>
<totfact> 0.15210580E+06</totfact>
</mgrwt>
</event>
<event>
 6    2  0.8544106E+000  0.8000996E+02  0.7546771E-02  0.1329023E+00
          2   -1    0    0  502    0 -0.00000000000E+00  0.00000000000E+00  0.87565695913E+02  0.87565695913E+02  0.00000000000E+00 0. -1.
         21   -1    0    0  501  502  0.00000000000E+00 -0.00000000000E+00 -0.55553672820E+02  0.55553672820E+02  0.00000000000E+00 0.  1.
         24    2    1    2    0    0  0.25649373944E+02 -0.38685503074E+02 -0.98503419166E+01  0.80614039872E+02  0.65170051840E+02 0.  0.
        -11    1    3    3    0    0 -0.16032725163E+02  0.99979600932E+00 -0.16075034241E+02  0.22725637374E+02  0.00000000000E+00 0.  1.
         12    1    3    3    0    0  0.41682099107E+02 -0.39685299083E+02  0.62246923241E+01  0.57888402498E+02  0.00000000000E+00 0. -1.
          1    1    1    2  501    0 -0.25649373944E+02  0.38685503074E+02  0.41862365010E+02  0.62505328861E+02  0.00000000000E+00 0. -1.
<mgrwt>
<rscale>  1 0.80009963E+02</rscale>
<asrwt>0</asrwt>
<pdfrwt beam="1">  1       21 0.85467189E-02 0.80009963E+02</pdfrwt>
<pdfrwt beam="2">  1        2 0.13471646E-01 0.80009963E+02</pdfrwt>
<totfact> 0.53610142E+05</totfact>
</mgrwt>
</event>
<event>
 6    2  0.8544106E+000  0.8602257E+02  0.7546771E-02  0.1312780E+00
         -1   -1    0    0    0  501 -0.00000000000E+00  0.00000000000E+00  0.15593237420E+03  0.15593237420E+03  0.00000000000E+00 0.  1.
         21   -1    0    0  501  502  0.00000000000E+00 -0.00000000000E+00 -0.21993909212E+02  0.21993909212E+02  0.00000000000E+00 0. -1.
         24    2    1    2    0    0  0.18564558069E+02 -0.16223035976E+02  0.12492157124E+03  0.15167491991E+03  0.82413910586E+02 0.  0.
        -13    1    3    3    0    0 -0.33527271561E+01 -0.27610942300E+02  0.12386900023E+03  0.12695327539E+03  0.00000000000E+00 0.  1.
         14    1    3    3    0    0  0.21917285225E+02  0.11387906324E+02  0.10525710019E+01  0.24721644520E+02  0.00000000000E+00 0. -1.
         -2    1    1    2    0  502 -0.18564558069E+02  0.16223035976E+02  0.90168937499E+01  0.26251363497E+02  0.00000000000E+00 0.  1.
<mgrwt>
<rscale>  1 0.86022569E+02</rscale>
<asrwt>0</asrwt>
<pdfrwt beam="1">  1       21 0.33836784E-02 0.86022569E+02</pdfrwt>
<pdfrwt beam="2">  1       -1 0.23989595E-01 0.86022569E+02</pdfrwt>
<totfact> 0.65002261E+05</totfact>
</mgrwt>
</event>
<event>
 6    2  0.8544106E+000  0.9307707E+02  0.7546771E-02  0.1295567E+00
          2   -1    0    0  502    0 -0.00000000000E+00  0.00000000000E+00  0.43689506618E+03  0.43689506618E+03  0.00000000000E+00 0. -1.
         21   -1    0    0  501  502  0.00000000000E+00 -0.00000000000E+00 -0.25158245035E+02  0.25158245035E+02  0.00000000000E+00 0. -1.
         24    2    1    2    0    0  0.14633738907E+02  0.43245164343E+02  0.40541658189E+03  0.41596387666E+03  0.81111351021E+02 0.  0.
        -11    1    3    3    0    0  0.40897747997E+02  0.20362899035E+02  0.11954186763E+03  0.12797473018E+03  0.00000000000E+00 0.  1.
         12    1    3    3    0    0 -0.26264009089E+02  0.22882265307E+02  0.28587471425E+03  0.28798914648E+03  0.00000000000E+00 0. -1.
          1    1    1    2  501    0 -0.14633738907E+02 -0.43245164343E+02  0.63202392604E+01  0.46089434556E+02  0.00000000000E+00 0. -1.
<mgrwt>
<rscale>  1 0.93077075E+02</rscale>
<asrwt>0</asrwt>
<pdfrwt beam="1">  1       21 0.38704996E-02 0.93077075E+02</pdfrwt>
<pdfrwt beam="2">  1        2 0.67214620E-01 0.93077075E+02</pdfrwt>
<totfact> 0.35927102E+05</totfact>
</mgrwt>
</event>
<event>
 6    2  0.8544106E+000  0.9096166E+02  0.7546771E-02  0.1300539E+00
         -3   -1    0    0    0  501 -0.00000000000E+00  0.00000000000E+00  0.94644552899E+02  0.94644552899E+02  0.00000000000E+00 0.  1.
         21   -1    0    0  501  502  0.00000000000E+00 -0.00000000000E+00 -0.54274862934E+02  0.54274862934E+02  0.00000000000E+00 0.  1.
         24    2    1    2    0    0 -0.27283819069E+02 -0.34470590679E+02  0.50168024892E+02  0.10387903648E+03  0.79632876968E+02 0.  0.
        -13    1    3    3    0    0 -0.15617757425E+02 -0.42698172214E+02  0.67525767867E+02  0.81405021856E+02  0.00000000000E+00 0.  1.
         14    1    3    3    0    0 -0.11666061644E+02  0.82275815350E+01 -0.17357742976E+02  0.22474014626E+02  0.00000000000E+00 0. -1.
         -4    1    1    2    0  502  0.27283819069E+02  0.34470590679E+02 -0.97983349266E+01  0.45040379351E+02  0.00000000000E+00 0.  1.
<mgrwt>
<rscale>  1 0.90961659E+02</rscale>
<asrwt>0</asrwt>
<pdfrwt beam="1">  1       21 0.83499789E-02 0.90961659E+02</pdfrwt>
<pdfrwt beam="2">  1       -3 0.14560700E-01 0.90961659E+02</pdfrwt>
<totfact> 0.19463683E+05</totfact>
</mgrwt>
</event>
<event>
 6    2  0.8544106E+000  0.8459811E+02  0.7546771E-02  0.1316487E+00
          2   -1    0    0  502    0 -0.00000000000E+00  0.00000000000E+00  0.60842915152E+03  0.60842915152E+03  0.00000000000E+00 0. -1.
         21   -1    0    0  501  502  0.00000000000E+00 -0.00000000000E+00 -0.68026134077E+01  0.68026134077E+01  0.00000000000E+00 0. -1.
         24    2    1    2    0    0  0.88027582069E+01 -0.23498295647E+02  0.56197791608E+03  0.56830979055E+03  0.80790973664E+02 0.  0.
        -13    1    3    3    0    0  0.43305430928E+02 -0.24892618140E+02  0.31742598440E+03  0.32133200644E+03  0.00000000000E+00 0.  1.
         14    1    3    3    0    0 -0.34502672722E+02  0.13943224936E+01  0.24455193167E+03  0.24697778411E+03  0.00000000000E+00 0. -1.
          1    1    1    2  501    0 -0.88027582069E+01  0.23498295647E+02  0.39648622040E+02  0.46921974383E+02  0.00000000000E+00 0. -1.
<mgrwt>
<rscale>  1 0.84598108E+02</rscale>
<asrwt>0</asrwt>
<pdfrwt beam="1">  1       21 0.10465564E-02 0.84598108E+02</pdfrwt>
<pdfrwt beam="2">  1        2 0.93604442E-01 0.84598108E+02</pdfrwt>
<totfact> 0.20164590E+06</totfact>
</mgrwt>
</event>
<event>
 6    2  0.8544106E+000  0.1079611E+03  0.7546771E-02  0.1264393E+00
         21   -1    0    0  501  502  0.00000000000E+00  0.00000000000E+00  0.97598187287E+01  0.97598187287E+01  0.00000000000E+00 0. -1.
          2   -1    0    0  502    0 -0.00000000000E+00 -0.00000000000E+00 -0.94773608045E+03  0.94773608045E+03  0.00000000000E+00 0. -1.
         24    2    1    2    0    0  0.59812930865E+02  0.39640224900E+02 -0.71905918103E+03  0.72711876849E+03  0.80663892349E+02 0.  0.
        -11    1    3    3    0    0  0.48705524080E+02  0.21381664336E+01 -0.17524867882E+03  0.18190354384E+03  0.00000000000E+00 0.  1.
         12    1    3    3    0    0  0.11107406784E+02  0.37502058467E+02 -0.54381050221E+03  0.54521522465E+03  0.00000000000E+00 0. -1.
          1    1    1    2  501    0 -0.59812930865E+02 -0.39640224900E+02 -0.21891708069E+03  0.23037713069E+03  0.00000000000E+00 0. -1.
<mgrwt>
<rscale>  1 0.10796109E+03</rscale>
<asrwt>0</asrwt>
<pdfrwt beam="1">  1       21 0.15015113E-02 0.10796109E+03</pdfrwt>
<pdfrwt beam="2">  1        2 0.14580548E+00 0.10796109E+03</pdfrwt>
<totfact> 0.68279960E+05</totfact>
</mgrwt>
</event>
<event>
 6    2  0.8544106E+000  0.7908942E+02  0.7546771E-02  0.1331656E+00
         -1   -1    0    0    0  501 -0.00000000000E+00  0.00000000000E+00  0.65140015866E+02  0.65140015866E+02  0.00000000000E+00 0.  1.
         21   -1    0    0  501  502  0.00000000000E+00 -0.00000000000E+00 -0.51030965972E+02  0.51030965972E+02  0.00000000000E+00 0. -1.
         24    2    1    2    0    0  0.57525468263E+01 -0.23140190288E+02  0.33051838903E+02  0.85717912091E+02  0.75409390641E+02 0.  0.
        -13    1    3    3    0    0  0.90926600550E+01  0.26941976612E+02  0.16448607689E+02  0.32849707237E+02  0.00000000000E+00 0.  1.
         14    1    3    3    0    0 -0.33401132287E+01 -0.50082166900E+02  0.16603231214E+02  0.52868204854E+02  0.00000000000E+00 0. -1.
         -2    1    1    2    0  502 -0.57525468263E+01  0.23140190288E+02 -0.18942789009E+02  0.30453069747E+02  0.00000000000E+00 0.  1.
<mgrwt>
<rscale>  1 0.79089420E+02</rscale>
<asrwt>0</asrwt>
<pdfrwt beam="1">  1       21 0.78509178E-02 0.79089420E+02</pdfrwt>
<pdfrwt beam="2">  1       -1 0.10021541E-01 0.79089420E+02</pdfrwt>
<totfact> 0.61549545E+05</totfact>
</mgrwt>
</event>
<event>
 6    2  0.8544106E+000  0.9132173E+02  0.7546771E-02  0.1299682E+00
         21   -1    0    0  501  502  0.00000000000E+00  0.00000000000E+00  0.96599991261E+02  0.96599991261E+02  0.00000000000E+00 0.  1.
         -1   -1    0    0    0  501 -0.00000000000E+00 -0.00000000000E+00 -0.14967665717E+03  0.14967665717E+03  0.00000000000E+00 0.  1.
         24    2    1    2    0    0  0.35308111529E+02  0.21334912196E+02 -0.13007035963E+03  0.15892752084E+03  0.81472800418E+02 0.  0.
        -11    1    3    3    0    0  0.30010897530E+02  0.18857230815E+02 -0.14161667311E+03  0.14598469518E+03  0.00000000000E+00 0.  1.
         12    1    3    3    0    0  0.52972139986E+01  0.24776813811E+01  0.11546313477E+02  0.12942825661E+02  0.00000000000E+00 0. -1.
         -2    1    1    2    0  502 -0.35308111529E+02 -0.21334912196E+02  0.76993693721E+02  0.87349127591E+02  0.00000000000E+00 0.  1.
<mgrwt>
<rscale>  1 0.91321730E+02</rscale>
<asrwt>0</asrwt>
<pdfrwt beam="1">  1       21 0.14861537E-01 0.91321730E+02</pdfrwt>
<pdfrwt beam="2">  1       -1 0.23027178E-01 0.91321730E+02</pdfrwt>
<totfact> 0.56446200E+04</totfact>
</mgrwt>
</event>
<event>
 6    2  0.8544106E+000  0.8923810E+02  0.7546771E-02  0.1304707E+00
         21   -1    0    0  501  502  0.00000000000E+00  0.00000000000E+00  0.90507102396E+01  0.90507102396E+01  0.00000000000E+00 0. -1.
          2   -1    0    0  502    0 -0.00000000000E+00 -0.00000000000E+00 -0.50566582556E+03  0.50566582556E+03  0.00000000000E+00 0. -1.
         24    2    1    2    0    0  0.37574867039E+02  0.13674236162E+02 -0.40567164285E+03  0.41537082350E+03  0.79778341885E+02 0.  0.
        -11    1    3    3    0    0 -0.80067185553E+01  0.34968418297E+02 -0.11798163588E+03  0.12331489863E+03  0.00000000000E+00 0.  1.
         12    1    3    3    0    0  0.45581585594E+02 -0.21294182136E+02 -0.28769000697E+03  0.29205592487E+03  0.00000000000E+00 0. -1.
          1    1    1    2  501    0 -0.37574867039E+02 -0.13674236162E+02 -0.90943472469E+02  0.99345712299E+02  0.00000000000E+00 0. -1.
<mgrwt>
<rscale>  1 0.89238104E+02</rscale>
<asrwt>0</asrwt>
<pdfrwt beam="1">  1       21 0.13924173E-02 0.89238104E+02</pdfrwt>
<pdfrwt beam="2">  1        2 0.77794722E-01 0.89238104E+02</pdfrwt>
<totfact> 0.15873660E+06</totfact>
</mgrwt>
</event>
<event>
 6    2  0.8544106E+000  0.8657754E+02  0.7546771E-02  0.1311358E+00
         -1   -1    0    0    0  501 -0.00000000000E+00  0.00000000000E+00  0.51690807511E+03  0.51690807511E+03  0.00000000000E+00 0.  1.
         21   -1    0    0  501  502  0.00000000000E+00 -0.00000000000E+00 -0.65983474082E+01  0.65983474082E+01  0.00000000000E+00 0. -1.
         24    2    1    2    0    0  0.29688594542E+02 -0.31193042222E+01  0.39695897603E+03  0.40629065733E+03  0.81268240265E+02 0.  0.
        -11    1    3    3    0    0  0.32774207808E+02 -0.36482339690E+02  0.29270337033E+03  0.29678337691E+03  0.00000000000E+00 0.  1.
         12    1    3    3    0    0 -0.30856132659E+01  0.33363035468E+02  0.10425560571E+03  0.10950728043E+03  0.00000000000E+00 0. -1.
         -2    1    1    2    0  502 -0.29688594542E+02  0.31193042222E+01  0.11335075167E+03  0.11721576519E+03  0.00000000000E+00 0.  1.
<mgrwt>
<rscale>  1 0.86577535E+02</rscale>
<asrwt>0</asrwt>
<pdfrwt beam="1">  1       21 0.10151308E-02 0.86577535E+02</pdfrwt>
<pdfrwt beam="2">  1       -1 0.79524287E-01 0.86577535E+02</pdfrwt>
<totfact> 0.52686025E+05</totfact>
</mgrwt>
</event>
<event>
 6    2  0.8544106E+000  0.8570549E+02  0.7546771E-02  0.1313598E+00
         21   -1    0    0  501  502  0.00000000000E+00  0.00000000000E+00  0.18277941763E+02  0.18277941763E+02  0.00000000000E+00 0. -1.
          2   -1    0    0  502    0 -0.00000000000E+00 -0.00000000000E+00 -0.61974462783E+03  0.61974462783E+03  0.00000000000E+00 0. -1.
         24    2    1    2    0    0 -0.12522207814E+02 -0.25919425353E+02 -0.60312977356E+03  0.60918876722E+03  0.80726749318E+02 0.  0.
        -13    1    3    3    0    0 -0.13225318291E+02 -0.51488561614E+02 -0.27683083296E+03  0.28188879208E+03  0.00000000000E+00 0.  1.
         14    1    3    3    0    0  0.70311047655E+00  0.25569136261E+02 -0.32629894060E+03  0.32729997515E+03  0.00000000000E+00 0. -1.
          1    1    1    2  501    0  0.12522207814E+02  0.25919425353E+02  0.16630874930E+01  0.28833802371E+02  0.00000000000E+00 0. -1.
<mgrwt>
<rscale>  1 0.85705486E+02</rscale>
<asrwt>0</asrwt>
<pdfrwt beam="1">  1       21 0.28119910E-02 0.85705486E+02</pdfrwt>
<pdfrwt beam="2">  1        2 0.95345330E-01 0.85705486E+02</pdfrwt>
<totfact> 0.41108783E+05</totfact>
</mgrwt>
</event>
<event>
 6    2  0.8544106E+000  0.9196128E+02  0.7546771E-02  0.1298170E+00
          2   -1    0    0  502    0 -0.00000000000E+00  0.00000000000E+00  0.32752345476E+03  0.32752345476E+03  0.00000000000E+00 0. -1.
         21   -1    0    0  501  502  0.00000000000E+00 -0.00000000000E+00 -0.14131978790E+02  0.14131978790E+02  0.00000000000E+00 0. -1.
         24    2    1    2    0    0  0.85889187874E+01 -0.39941945948E+02  0.24854380445E+03  0.26501113126E+03  0.82387792719E+02 0.  0.
        -11    1    3    3    0    0  0.43536921179E+02 -0.24012631284E+02  0.10134687263E+03  0.11288604236E+03  0.00000000000E+00 0.  1.
         12    1    3    3    0    0 -0.34948002392E+02 -0.15929314664E+02  0.14719693182E+03  0.15212508890E+03  0.00000000000E+00 0. -1.
          1    1    1    2  501    0 -0.85889187874E+01  0.39941945948E+02  0.64847671519E+02  0.76644302290E+02  0.00000000000E+00 0. -1.
<mgrwt>
<rscale>  1 0.91961280E+02</rscale>
<asrwt>0</asrwt>
<pdfrwt beam="1">  1       21 0.21741508E-02 0.91961280E+02</pdfrwt>
<pdfrwt beam="2">  1        2 0.50388218E-01 0.91961280E+02</pdfrwt>
<totfact> 0.12402644E+06</totfact>
</mgrwt>
</event>
<event>
 6    2  0.8544106E+000  0.1061292E+03  0.7546771E-02  0.1267911E+00
          2   -1    0    0  502    0 -0.00000000000E+00  0.00000000000E+00  0.41626502049E+03  0.41626502049E+03  0.00000000000E+00 0. -1.
         21   -1    0    0  501  502  0.00000000000E+00 -0.00000000000E+00 -0.13269343271E+03  0.13269343271E+03  0.00000000000E+00 0. -1.
         24    2    1    2    0    0 -0.79093715913E+02 -0.39006284539E+02  0.39376736136E+03  0.40781875415E+03  0.59043164130E+02 0.  0.
        -11    1    3    3    0    0  0.66468746245E+01 -0.45473239858E+01  0.88539257749E+01  0.11968755129E+02  0.00000000000E+00 0.  1.
         12    1    3    3    0    0 -0.85740590538E+02 -0.34458960554E+02  0.38491343559E+03  0.39584999902E+03  0.00000000000E+00 0. -1.
          1    1    1    2  501    0  0.79093715913E+02  0.39006284539E+02 -0.11019577359E+03  0.14113969905E+03  0.00000000000E+00 0. -1.
<mgrwt>
<rscale>  1 0.10612917E+03</rscale>
<asrwt>0</asrwt>
<pdfrwt beam="1">  1       21 0.20414374E-01 0.10612917E+03</pdfrwt>
<pdfrwt beam="2">  1        2 0.64040772E-01 0.10612917E+03</pdfrwt>
<totfact> 0.21373435E+04</totfact>
</mgrwt>
</event>
<event>
 6    2  0.8544106E+000  0.8016156E+02  0.7546771E-02  0.1328594E+00
         21   -1    0    0  501  502  0.00000000000E+00  0.00000000000E+00  0.45025158660E+01  0.45025158660E+01  0.00000000000E+00 0. -1.
          2   -1    0    0  502    0 -0.00000000000E+00 -0.00000000000E+00 -0.77914968779E+03  0.77914968779E+03  0.00000000000E+00 0. -1.
         24    2    1    2    0    0  0.58359884206E+01 -0.24013218488E+02 -0.70883502931E+03  0.71335333071E+03  0.76257342107E+02 0.  0.
        -11    1    3    3    0    0  0.59838378715E+01  0.26576343466E+02 -0.33586003331E+03  0.33696301032E+03  0.00000000000E+00 0.  1.
         12    1    3    3    0    0 -0.14784945099E+00 -0.50589561954E+02 -0.37297499600E+03  0.37639032039E+03  0.00000000000E+00 0. -1.
          1    1    1    2  501    0 -0.58359884206E+01  0.24013218488E+02 -0.65812142611E+02  0.70298872950E+02  0.00000000000E+00 0. -1.
<mgrwt>
<rscale>  1 0.80161560E+02</rscale>
<asrwt>0</asrwt>
<pdfrwt beam="1">  1       21 0.69269532E-03 0.80161560E+02</pdfrwt>
<pdfrwt beam="2">  1        2 0.11986908E+00 0.80161560E+02</pdfrwt>
<totfact> 0.28559494E+06</totfact>
</mgrwt>
</event>
<event>
 6    2  0.8544106E+000  0.8663380E+02  0.7546771E-02  0.1311214E+00
          2   -1    0    0  502    0 -0.00000000000E+00  0.00000000000E+00  0.32897264382E+03  0.32897264382E+03  0.00000000000E+00 0. -1.
         21   -1    0    0  501  502  0.00000000000E+00 -0.00000000000E+00 -0.93930416058E+01  0.93930416058E+01  0.00000000000E+00 0.  1.
         24    2    1    2    0    0  0.17797787776E+02  0.16895819818E+02  0.24812458239E+03  0.26281404855E+03  0.83085412380E+02 0.  0.
        -13    1    3    3    0    0  0.25845634219E+02 -0.17780847760E+02  0.36119882064E+02  0.47841417575E+02  0.00000000000E+00 0.  1.
         14    1    3    3    0    0 -0.80478464433E+01  0.34676667578E+02  0.21200470033E+03  0.21497263097E+03  0.00000000000E+00 0. -1.
          1    1    1    2  501    0 -0.17797787776E+02 -0.16895819818E+02  0.71455019821E+02  0.75551636876E+02  0.00000000000E+00 0. -1.
<mgrwt>
<rscale>  1 0.86633802E+02</rscale>
<asrwt>0</asrwt>
<pdfrwt beam="1">  1       21 0.14450836E-02 0.86633802E+02</pdfrwt>
<pdfrwt beam="2">  1        2 0.50611167E-01 0.86633802E+02</pdfrwt>
<totfact> 0.23494613E+06</totfact>
</mgrwt>
</event>
<event>
 6    2  0.8544106E+000  0.8071139E+02  0.7546771E-02  0.1327045E+00
         21   -1    0    0  501  502  0.00000000000E+00  0.00000000000E+00  0.87426747347E+01  0.87426747347E+01  0.00000000000E+00 0. -1.
          2   -1    0    0  502    0 -0.00000000000E+00 -0.00000000000E+00 -0.41944586568E+03  0.41944586568E+03  0.00000000000E+00 0. -1.
         24    2    1    2    0    0 -0.27645477926E+02 -0.27166448550E+02 -0.24255840150E+03  0.25563432112E+03  0.70795759922E+02 0.  0.
        -11    1    3    3    0    0 -0.27615005667E+02 -0.12760638798E+02 -0.23882218626E+03  0.24075186207E+03  0.00000000000E+00 0.  1.
         12    1    3    3    0    0 -0.30472258724E-01 -0.14405809752E+02 -0.37362152371E+01  0.14882459053E+02  0.00000000000E+00 0. -1.
          1    1    1    2  501    0  0.27645477926E+02  0.27166448550E+02 -0.16814478945E+03  0.17255421929E+03  0.00000000000E+00 0. -1.
<mgrwt>
<rscale>  1 0.80711387E+02</rscale>
<asrwt>0</asrwt>
<pdfrwt beam="1">  1       21 0.13450270E-02 0.80711387E+02</pdfrwt>
<pdfrwt beam="2">  1        2 0.64530127E-01 0.80711387E+02</pdfrwt>
<totfact> 0.20225337E+06</totfact>
</mgrwt>
</event>
<event>
 6    2  0.8544106E+000  0.7652409E+02  0.7546771E-02  0.1339215E+00
          2   -1    0    0  502    0 -0.00000000000E+00  0.00000000000E+00  0.26400129915E+04  0.26400129915E+04  0.00000000000E+00 0. -1.
         21   -1    0    0  501  502  0.00000000000E+00 -0.00000000000E+00 -0.22178236632E+01  0.22178236632E+01  0.00000000000E+00 0. -1.
         24    2    1    2    0    0  0.36204273332E+02 -0.20845981521E+02  0.23665848727E+04  0.23678217618E+04  0.64114209353E+02 0.  0.
        -13    1    3    3    0    0  0.14646945736E+02  0.17166993692E+01  0.10593848042E+03  0.10696000051E+03  0.00000000000E+00 0.  1.
         14    1    3    3    0    0  0.21557327596E+02 -0.22562680890E+02  0.22606463922E+04  0.22608617613E+04  0.00000000000E+00 0. -1.
          1    1    1    2  501    0 -0.36204273332E+02  0.20845981521E+02  0.27121029523E+03  0.27440905340E+03  0.00000000000E+00 0. -1.
<mgrwt>
<rscale>  1 0.76524089E+02</rscale>
<asrwt>0</asrwt>
<pdfrwt beam="1">  1       21 0.34120575E-03 0.76524089E+02</pdfrwt>
<pdfrwt beam="2">  1        2 0.40615333E+00 0.76524089E+02</pdfrwt>
<totfact> 0.87259692E+05</totfact>
</mgrwt>
</event>
<event>
 6    2  0.8544106E+000  0.9429045E+02  0.7546771E-02  0.1292782E+00
          4   -1    0    0  502    0 -0.00000000000E+00  0.00000000000E+00  0.74884285020E+02  0.74884285020E+02  0.00000000000E+00 0. -1.
         21   -1    0    0  501  502  0.00000000000E+00 -0.00000000000E+00 -0.83639557368E+02  0.83639557368E+02  0.00000000000E+00 0. -1.
         24    2    1    2    0    0  0.53008894806E+02  0.32128215971E+01  0.22452559703E+02  0.96926813787E+02  0.77912929880E+02 0.  0.
        -11    1    3    3    0    0  0.29067722574E+02 -0.33445582045E+02 -0.59912647201E+01  0.44715038935E+02  0.00000000000E+00 0.  1.
         12    1    3    3    0    0  0.23941172231E+02  0.36658403642E+02  0.28443824423E+02  0.52211774852E+02  0.00000000000E+00 0. -1.
          3    1    1    2  501    0 -0.53008894806E+02 -0.32128215971E+01 -0.31207832050E+02  0.61597028601E+02  0.00000000000E+00 0. -1.
<mgrwt>
<rscale>  1 0.94290454E+02</rscale>
<asrwt>0</asrwt>
<pdfrwt beam="1">  1       21 0.12867624E-01 0.94290454E+02</pdfrwt>
<pdfrwt beam="2">  1        4 0.11520659E-01 0.94290454E+02</pdfrwt>
<totfact> 0.11753942E+05</totfact>
</mgrwt>
</event>
<event>
 6    2  0.8544106E+000  0.8541481E+02  0.7546771E-02  0.1314351E+00
          2   -1    0    0  502    0 -0.00000000000E+00  0.00000000000E+00  0.89700078565E+03  0.89700078565E+03  0.00000000000E+00 0. -1.
         21   -1    0    0  501  502  0.00000000000E+00 -0.00000000000E+00 -0.33446831199E+01  0.33446831199E+01  0.00000000000E+00 0.  1.
         24    2    1    2    0    0  0.12861163359E+02  0.19380704076E+02  0.65161630290E+03  0.65719060902E+03  0.82186794376E+02 0.  0.
        -13    1    3    3    0    0  0.25939839261E+02  0.16628231629E+02  0.84925206626E+02  0.90341928629E+02  0.00000000000E+00 0.  1.
         14    1    3    3    0    0 -0.13078675902E+02  0.27524724464E+01  0.56669109627E+03  0.56684868039E+03  0.00000000000E+00 0. -1.
          1    1    1    2  501    0 -0.12861163359E+02 -0.19380704076E+02  0.24203979964E+03  0.24315485975E+03  0.00000000000E+00 0. -1.
<mgrwt>
<rscale>  1 0.85414814E+02</rscale>
<asrwt>0</asrwt>
<pdfrwt beam="1">  1       21 0.51456735E-03 0.85414814E+02</pdfrwt>
<pdfrwt beam="2">  1        2 0.13799993E+00 0.85414814E+02</pdfrwt>
<totfact> 0.38158572E+06</totfact>
</mgrwt>
</event>
<event>
 6    2  0.8544106E+000  0.8593835E+02  0.7546771E-02  0.1312997E+00
         21   -1    0    0  501  502  0.00000000000E+00  0.00000000000E+00  0.15919143772E+02  0.15919143772E+02  0.00000000000E+00 0. -1.
         -3   -1    0    0    0  501 -0.00000000000E+00 -0.00000000000E+00 -0.22129339736E+03  0.22129339736E+03  0.00000000000E+00 0.  1.
         24    2    1    2    0    0 -0.23669336126E+02 -0.22272436282E+02 -0.15591240404E+03  0.17802830800E+03  0.79555652379E+02 0.  0.
        -13    1    3    3    0    0 -0.12927527618E+02  0.15729634590E+02 -0.12814478491E+03  0.12975218023E+03  0.00000000000E+00 0.  1.
         14    1    3    3    0    0 -0.10741808508E+02 -0.38002070872E+02 -0.27767619133E+02  0.48276127774E+02  0.00000000000E+00 0. -1.
         -4    1    1    2    0  502  0.23669336126E+02  0.22272436282E+02 -0.49461849546E+02  0.59184233130E+02  0.00000000000E+00 0.  1.
<mgrwt>
<rscale>  1 0.85938354E+02</rscale>
<asrwt>0</asrwt>
<pdfrwt beam="1">  1       21 0.24490991E-02 0.85938354E+02</pdfrwt>
<pdfrwt beam="2">  1       -3 0.34045137E-01 0.85938354E+02</pdfrwt>
<totfact> 0.32787517E+05</totfact>
</mgrwt>
</event>
<event>
 6    2  0.8544106E+000  0.8532001E+02  0.7546771E-02  0.1314598E+00
         -1   -1    0    0    0  501 -0.00000000000E+00  0.00000000000E+00  0.11085374795E+04  0.11085374795E+04  0.00000000000E+00 0.  1.
         21   -1    0    0  501  502  0.00000000000E+00 -0.00000000000E+00 -0.72933605585E+01  0.72933605585E+01  0.00000000000E+00 0.  1.
         24    2    1    2    0    0 -0.11151169758E+02  0.28862240670E+02  0.10639799792E+04  0.10673953816E+04  0.79511804448E+02 0.  0.
        -13    1    3    3    0    0 -0.32916735078E+02  0.46244630304E+02  0.64648236668E+03  0.64896958920E+03  0.00000000000E+00 0.  1.
         14    1    3    3    0    0  0.21765565320E+02 -0.17382389634E+02  0.41749761248E+03  0.41842579238E+03  0.00000000000E+00 0. -1.
         -2    1    1    2    0  502  0.11151169758E+02 -0.28862240670E+02  0.37264139751E+02  0.48435458446E+02  0.00000000000E+00 0.  1.
<mgrwt>
<rscale>  1 0.85320013E+02</rscale>
<asrwt>0</asrwt>
<pdfrwt beam="1">  1       21 0.11220564E-02 0.85320013E+02</pdfrwt>
<pdfrwt beam="2">  1       -1 0.17054409E+00 0.85320013E+02</pdfrwt>
<totfact> 0.76502408E+04</totfact>
</mgrwt>
</event>
<event>
 6    2  0.8544106E+000  0.9262013E+02  0.7546771E-02  0.1296628E+00
          2   -1    0    0  502    0 -0.00000000000E+00  0.00000000000E+00  0.81619618338E+02  0.81619618338E+02  0.00000000000E+00 0. -1.
         21   -1    0    0  501  502  0.00000000000E+00 -0.00000000000E+00 -0.64388092947E+02  0.64388092947E+02  0.00000000000E+00 0. -1.
         24    2    1    2    0    0 -0.31527542030E+02 -0.80059795772E+00  0.45915650040E+02  0.10337666778E+03  0.87085369947E+02 0.  0.
        -11    1    3    3    0    0 -0.43114800310E+00 -0.40905616390E+02  0.13148599611E+02  0.42969070418E+02  0.00000000000E+00 0.  1.
         12    1    3    3    0    0 -0.31096394027E+02  0.40105018433E+02  0.32767050429E+02  0.60407597360E+02  0.00000000000E+00 0. -1.
          1    1    1    2  501    0  0.31527542030E+02  0.80059795772E+00 -0.28684124649E+02  0.42631043506E+02  0.00000000000E+00 0. -1.
<mgrwt>
<rscale>  1 0.92620130E+02</rscale>
<asrwt>0</asrwt>
<pdfrwt beam="1">  1       21 0.99058604E-02 0.92620130E+02</pdfrwt>
<pdfrwt beam="2">  1        2 0.12556864E-01 0.92620130E+02</pdfrwt>
<totfact> 0.45800835E+05</totfact>
</mgrwt>
</event>
<event>
 6    2  0.8544106E+000  0.8338461E+02  0.7546771E-02  0.1319712E+00
         -3   -1    0    0    0  501 -0.00000000000E+00  0.00000000000E+00  0.79684310844E+02  0.79684310844E+02  0.00000000000E+00 0.  1.
         21   -1    0    0  501  502  0.00000000000E+00 -0.00000000000E+00 -0.62112142730E+02  0.62112142730E+02  0.00000000000E+00 0.  1.
         24    2    1    2    0    0  0.14056437994E+01  0.25152984942E+02  0.52645631752E+02  0.98613165864E+02  0.79488020815E+02 0.  0.
        -13    1    3    3    0    0  0.36153171399E+02  0.80653919408E+01  0.46430006455E+02  0.59395688807E+02  0.00000000000E+00 0.  1.
         14    1    3    3    0    0 -0.34747527600E+02  0.17087593001E+02  0.62156252962E+01  0.39217477057E+02  0.00000000000E+00 0. -1.
         -4    1    1    2    0  502 -0.14056437994E+01 -0.25152984942E+02 -0.35073463637E+02  0.43183287710E+02  0.00000000000E+00 0.  1.
<mgrwt>
<rscale>  1 0.83384615E+02</rscale>
<asrwt>0</asrwt>
<pdfrwt beam="1">  1       21 0.95557142E-02 0.83384615E+02</pdfrwt>
<pdfrwt beam="2">  1       -3 0.12259125E-01 0.83384615E+02</pdfrwt>
<totfact> 0.20314265E+05</totfact>
</mgrwt>
</event>
<event>
 6    2  0.8544106E+000  0.8566645E+02  0.7546771E-02  0.1313699E+00
         -1   -1    0    0    0  501 -0.00000000000E+00  0.00000000000E+00  0.17771950772E+02  0.17771950772E+02  0.00000000000E+00 0.  1.
         21   -1    0    0  501  502  0.00000000000E+00 -0.00000000000E+00 -0.17995917797E+03  0.17995917797E+03  0.00000000000E+00 0. -1.
         24    2    1    2    0    0 -0.11651101587E+02  0.23289343464E+02 -0.13648346991E+03  0.16114117348E+03  0.81612490129E+02 0.  0.
        -13    1    3    3    0    0  0.21753705266E+02  0.30626815518E+00 -0.34026594778E+01  0.22020344786E+02  0.00000000000E+00 0.  1.
         14    1    3    3    0    0 -0.33404806853E+02  0.22983075308E+02 -0.13308081043E+03  0.13912082869E+03  0.00000000000E+00 0. -1.
         -2    1    1    2    0  502  0.11651101587E+02 -0.23289343464E+02 -0.25703757287E+02  0.36589955259E+02  0.00000000000E+00 0.  1.
<mgrwt>
<rscale>  1 0.85666448E+02</rscale>
<asrwt>0</asrwt>
<pdfrwt beam="1">  1       21 0.27686027E-01 0.85666448E+02</pdfrwt>
<pdfrwt beam="2">  1       -1 0.27341463E-02 0.85666448E+02</pdfrwt>
<totfact> 0.43951156E+05</totfact>
</mgrwt>
</event>
<event>
 6    2  0.8544106E+000  0.8813642E+02  0.7546771E-02  0.1307428E+00
          2   -1    0    0  502    0 -0.00000000000E+00  0.00000000000E+00  0.19359577744E+04  0.19359577744E+04  0.00000000000E+00 0. -1.
         21   -1    0    0  501  502  0.00000000000E+00 -0.00000000000E+00 -0.19915013221E+01  0.19915013221E+01  0.00000000000E+00 0. -1.
         24    2    1    2    0    0 -0.28455504455E+02  0.21677789799E+02  0.14323894418E+04  0.14350984430E+04  0.80550516996E+02 0.  0.
        -13    1    3    3    0    0 -0.13182960309E+02 -0.30627610322E+02  0.60263651065E+03  0.60355828627E+03  0.00000000000E+00 0.  1.
         14    1    3    3    0    0 -0.15272544147E+02  0.52305400121E+02  0.82975293117E+03  0.83154015674E+03  0.00000000000E+00 0. -1.
          1    1    1    2  501    0  0.28455504455E+02 -0.21677789799E+02  0.50157683124E+03  0.50285083269E+03  0.00000000000E+00 0. -1.
<mgrwt>
<rscale>  1 0.88136418E+02</rscale>
<asrwt>0</asrwt>
<pdfrwt beam="1">  1       21 0.30638637E-03 0.88136418E+02</pdfrwt>
<pdfrwt beam="2">  1        2 0.29783815E+00 0.88136418E+02</pdfrwt>
<totfact> 0.23730865E+06</totfact>
</mgrwt>
</event>
<event>
 6    2  0.8544106E+000  0.1239816E+03  0.7546771E-02  0.1236669E+00
         -3   -1    0    0    0  501 -0.00000000000E+00  0.00000000000E+00  0.90138933505E+02  0.90138933505E+02  0.00000000000E+00 0.  1.
         21   -1    0    0  501  502  0.00000000000E+00 -0.00000000000E+00 -0.28935300895E+03  0.28935300895E+03  0.00000000000E+00 0.  1.
         24    2    1    2    0    0 -0.93949127973E+02  0.10286927410E+02  0.33407924471E+02  0.12840380182E+03  0.80244547365E+02 0.  0.
        -13    1    3    3    0    0 -0.10801935836E+03  0.68410028834E+01  0.35180491523E+02  0.11380970119E+03  0.00000000000E+00 0.  1.
         14    1    3    3    0    0  0.14070230392E+02  0.34459245263E+01 -0.17725670516E+01  0.14594100626E+02  0.00000000000E+00 0. -1.
         -4    1    1    2    0  502  0.93949127973E+02 -0.10286927410E+02 -0.23262199992E+03  0.25108814064E+03  0.00000000000E+00 0.  1.
<mgrwt>
<rscale>  1 0.12398164E+03</rscale>
<asrwt>0</asrwt>
<pdfrwt beam="1">  1       21 0.44515848E-01 0.12398164E+03</pdfrwt>
<pdfrwt beam="2">  1       -3 0.13867528E-01 0.12398164E+03</pdfrwt>
<totfact> 0.99507148E+03</totfact>
</mgrwt>
</event>
<event>
 6    2  0.8544106E+000  0.8043641E+02  0.7546771E-02  0.1327818E+00
         21   -1    0    0  501  502  0.00000000000E+00  0.00000000000E+00  0.35281533057E+01  0.35281533057E+01  0.00000000000E+00 0.  1.
         -1   -1    0    0    0  501 -0.00000000000E+00 -0.00000000000E+00 -0.10846291792E+04  0.10846291792E+04  0.00000000000E+00 0.  1.
         24    2    1    2    0    0  0.22513285271E+02  0.16524062468E+02 -0.97922154109E+03  0.98251964000E+03  0.75432909231E+02 0.  0.
        -13    1    3    3    0    0  0.26449916077E+02  0.25781289711E+02 -0.96096923169E+03  0.96167881188E+03  0.00000000000E+00 0.  1.
         14    1    3    3    0    0 -0.39366308067E+01 -0.92572272434E+01 -0.18252309399E+02  0.20840828121E+02  0.00000000000E+00 0. -1.
         -2    1    1    2    0  502 -0.22513285271E+02 -0.16524062468E+02 -0.10187948480E+03  0.10563769250E+03  0.00000000000E+00 0.  1.
<mgrwt>
<rscale>  1 0.80436412E+02</rscale>
<asrwt>0</asrwt>
<pdfrwt beam="1">  1       21 0.54279309E-03 0.80436412E+02</pdfrwt>
<pdfrwt beam="2">  1       -1 0.16686594E+00 0.80436412E+02</pdfrwt>
<totfact> 0.24879217E+05</totfact>
</mgrwt>
</event>
<event>
 6    2  0.8544106E+000  0.8480274E+02  0.7546771E-02  0.1315949E+00
         21   -1    0    0  501  502  0.00000000000E+00  0.00000000000E+00  0.53059237899E+02  0.53059237899E+02  0.00000000000E+00 0.  1.
          2   -1    0    0  502    0 -0.00000000000E+00 -0.00000000000E+00 -0.68347207222E+02  0.68347207222E+02  0.00000000000E+00 0. -1.
         24    2    1    2    0    0  0.12777435137E+02  0.23898507890E+02 -0.30750214072E+02  0.90205763385E+02  0.80356098427E+02 0.  0.
        -11    1    3    3    0    0  0.55308913243E+01  0.23039310720E+02  0.24729416475E+02  0.34248279322E+02  0.00000000000E+00 0.  1.
         12    1    3    3    0    0  0.72465438125E+01  0.85919717035E+00 -0.55479630548E+02  0.55957484063E+02  0.00000000000E+00 0. -1.
          1    1    1    2  501    0 -0.12777435137E+02 -0.23898507890E+02  0.15462244750E+02  0.31200681736E+02  0.00000000000E+00 0. -1.
<mgrwt>
<rscale>  1 0.84802736E+02</rscale>
<asrwt>0</asrwt>
<pdfrwt beam="1">  1       21 0.81629597E-02 0.84802736E+02</pdfrwt>
<pdfrwt beam="2">  1        2 0.10514955E-01 0.84802736E+02</pdfrwt>
<totfact> 0.78246221E+05</totfact>
</mgrwt>
</event>
<event>
 6    2  0.8544106E+000  0.8303694E+02  0.7546771E-02  0.1320647E+00
         21   -1    0    0  501  502  0.00000000000E+00  0.00000000000E+00  0.90598715904E+01  0.90598715904E+01  0.00000000000E+00 0.  1.
          4   -1    0    0  502    0 -0.00000000000E+00 -0.00000000000E+00 -0.39562368868E+03  0.39562368868E+03  0.00000000000E+00 0. -1.
         24    2    1    2    0    0 -0.20858104148E+02  0.34041500766E+01 -0.36561587645E+03  0.37492679695E+03  0.80302460790E+02 0.  0.
        -11    1    3    3    0    0 -0.25036815625E+02  0.54422043692E+01 -0.30735423111E+02  0.40014072010E+02  0.00000000000E+00 0.  1.
         12    1    3    3    0    0  0.41787114763E+01 -0.20380542926E+01 -0.33488045334E+03  0.33491272494E+03  0.00000000000E+00 0. -1.
          3    1    1    2  501    0  0.20858104148E+02 -0.34041500766E+01 -0.20947940631E+02  0.29756763317E+02  0.00000000000E+00 0. -1.
<mgrwt>
<rscale>  1 0.83036943E+02</rscale>
<asrwt>0</asrwt>
<pdfrwt beam="1">  1       21 0.13938264E-02 0.83036943E+02</pdfrwt>
<pdfrwt beam="2">  1        4 0.60865182E-01 0.83036943E+02</pdfrwt>
<totfact> 0.20748480E+05</totfact>
</mgrwt>
</event>
<event>
 6    2  0.8544106E+000  0.8216143E+02  0.7546771E-02  0.1323027E+00
         21   -1    0    0  501  502  0.00000000000E+00  0.00000000000E+00  0.60437166344E+01  0.60437166344E+01  0.00000000000E+00 0. -1.
         -3   -1    0    0    0  501 -0.00000000000E+00 -0.00000000000E+00 -0.68000543598E+03  0.68000543598E+03  0.00000000000E+00 0.  1.
         24    2    1    2    0    0  0.27179514405E+02  0.41819073001E+01 -0.62063284980E+03  0.62604763031E+03  0.77422779671E+02 0.  0.
        -11    1    3    3    0    0  0.23771519454E+02  0.16557985095E+02 -0.60554641431E+03  0.60623898909E+03  0.00000000000E+00 0.  1.
         12    1    3    3    0    0  0.34079949504E+01 -0.12376077795E+02 -0.15086435489E+02  0.19808641219E+02  0.00000000000E+00 0. -1.
         -4    1    1    2    0  502 -0.27179514405E+02 -0.41819073001E+01 -0.53328869539E+02  0.60001522299E+02  0.00000000000E+00 0.  1.
<mgrwt>
<rscale>  1 0.82161434E+02</rscale>
<asrwt>0</asrwt>
<pdfrwt beam="1">  1       21 0.92980287E-03 0.82161434E+02</pdfrwt>
<pdfrwt beam="2">  1       -3 0.10461619E+00 0.82161434E+02</pdfrwt>
<totfact> 0.15179991E+05</totfact>
</mgrwt>
</event>
<event>
 6    2  0.8544106E+000  0.8335925E+02  0.7546771E-02  0.1319780E+00
         -3   -1    0    0    0  501 -0.00000000000E+00  0.00000000000E+00  0.73810055720E+02  0.73810055720E+02  0.00000000000E+00 0.  1.
         21   -1    0    0  501  502  0.00000000000E+00 -0.00000000000E+00 -0.58354692656E+02  0.58354692656E+02  0.00000000000E+00 0. -1.
         24    2    1    2    0    0 -0.21339532343E+02 -0.12449484925E+02  0.44126134607E+02  0.94317972339E+02  0.79614061793E+02 0.  0.
        -13    1    3    3    0    0 -0.17325167205E+02  0.19546778799E+02  0.54506197853E+02  0.60441406209E+02  0.00000000000E+00 0.  1.
         14    1    3    3    0    0 -0.40143651377E+01 -0.31996263724E+02 -0.10380063246E+02  0.33876566130E+02  0.00000000000E+00 0. -1.
         -4    1    1    2    0  502  0.21339532343E+02  0.12449484925E+02 -0.28670771543E+02  0.37846776037E+02  0.00000000000E+00 0.  1.
<mgrwt>
<rscale>  1 0.83359248E+02</rscale>
<asrwt>0</asrwt>
<pdfrwt beam="1">  1       21 0.89776451E-02 0.83359248E+02</pdfrwt>
<pdfrwt beam="2">  1       -3 0.11355393E-01 0.83359248E+02</pdfrwt>
<totfact> 0.25670868E+05</totfact>
</mgrwt>
</event>
<event>
 6    2  0.8544106E+000  0.8726996E+02  0.7546771E-02  0.1309601E+00
         21   -1    0    0  501  502  0.00000000000E+00  0.00000000000E+00  0.16430760231E+02  0.16430760231E+02  0.00000000000E+00 0. -1.
          4   -1    0    0  502    0 -0.00000000000E+00 -0.00000000000E+00 -0.28393672464E+03  0.28393672464E+03  0.00000000000E+00 0. -1.
         24    2    1    2    0    0 -0.61173703607E+01 -0.30611916462E+02 -0.24951643278E+03  0.26433784571E+03  0.81495612148E+02 0.  0.
        -13    1    3    3    0    0  0.37298800390E+02 -0.12662863030E+02 -0.13288137799E+03  0.13859657004E+03  0.00000000000E+00 0.  1.
         14    1    3    3    0    0 -0.43416170750E+02 -0.17949053431E+02 -0.11663505479E+03  0.12574127567E+03  0.00000000000E+00 0. -1.
          3    1    1    2  501    0  0.61173703607E+01  0.30611916462E+02 -0.17989531630E+02  0.36029639158E+02  0.00000000000E+00 0. -1.
<mgrwt>
<rscale>  1 0.87269963E+02</rscale>
<asrwt>0</asrwt>
<pdfrwt beam="1">  1       21 0.25278092E-02 0.87269963E+02</pdfrwt>
<pdfrwt beam="2">  1        4 0.43682575E-01 0.87269963E+02</pdfrwt>
<totfact> 0.15888177E+05</totfact>
</mgrwt>
</event>
<event>
 6    2  0.8544106E+000  0.9873870E+02  0.7546771E-02  0.1282971E+00
         21   -1    0    0  501  502  0.00000000000E+00  0.00000000000E+00  0.23853647921E+02  0.23853647921E+02  0.00000000000E+00 0.  1.
         -1   -1    0    0    0  501 -0.00000000000E+00 -0.00000000000E+00 -0.34588840190E+03  0.34588840190E+03  0.00000000000E+00 0.  1.
         24    2    1    2    0    0 -0.56849587224E+00  0.41229487627E+02 -0.31207520526E+03  0.32732287434E+03  0.89716979944E+02 0.  0.
        -11    1    3    3    0    0  0.60860607770E+01  0.24087635427E+02 -0.30732957275E+03  0.30833215953E+03  0.00000000000E+00 0.  1.
         12    1    3    3    0    0 -0.66545566493E+01  0.17141852200E+02 -0.47456325153E+01  0.18990714811E+02  0.00000000000E+00 0. -1.
         -2    1    1    2    0  502  0.56849587224E+00 -0.41229487627E+02 -0.99595487145E+01  0.42419175477E+02  0.00000000000E+00 0.  1.
<mgrwt>
<rscale>  1 0.98738697E+02</rscale>
<asrwt>0</asrwt>
<pdfrwt beam="1">  1       21 0.36697921E-02 0.98738697E+02</pdfrwt>
<pdfrwt beam="2">  1       -1 0.53213599E-01 0.98738697E+02</pdfrwt>
<totfact> 0.14750629E+05</totfact>
</mgrwt>
</event>
<event>
 6    2  0.8544106E+000  0.8507994E+02  0.7546771E-02  0.1315224E+00
         21   -1    0    0  501  502  0.00000000000E+00  0.00000000000E+00  0.21285535118E+01  0.21285535118E+01  0.00000000000E+00 0.  1.
          2   -1    0    0  502    0 -0.00000000000E+00 -0.00000000000E+00 -0.16471135747E+04  0.16471135747E+04  0.00000000000E+00 0. -1.
         24    2    1    2    0    0  0.18444134089E+02 -0.11279676171E+02 -0.15216393174E+04  0.15240160134E+04  0.82287178828E+02 0.  0.
        -13    1    3    3    0    0  0.14943245070E+01 -0.24776805966E+02 -0.13848050343E+03  0.14068750104E+03  0.00000000000E+00 0.  1.
         14    1    3    3    0    0  0.16949809582E+02  0.13497129795E+02 -0.13831588140E+04  0.13833285124E+04  0.00000000000E+00 0. -1.
          1    1    1    2  501    0 -0.18444134089E+02  0.11279676171E+02 -0.12334570379E+03  0.12522611477E+03  0.00000000000E+00 0. -1.
<mgrwt>
<rscale>  1 0.85079945E+02</rscale>
<asrwt>0</asrwt>
<pdfrwt beam="1">  1       21 0.32746944E-03 0.85079945E+02</pdfrwt>
<pdfrwt beam="2">  1        2 0.25340234E+00 0.85079945E+02</pdfrwt>
<totfact> 0.29854065E+06</totfact>
</mgrwt>
</event>
<event>
 6    2  0.8544106E+000  0.8502379E+02  0.7546771E-02  0.1315370E+00
          2   -1    0    0  502    0 -0.00000000000E+00  0.00000000000E+00  0.14612667870E+04  0.14612667870E+04  0.00000000000E+00 0. -1.
         21   -1    0    0  501  502  0.00000000000E+00 -0.00000000000E+00 -0.22479613909E+01  0.22479613909E+01  0.00000000000E+00 0.  1.
         24    2    1    2    0    0  0.24982850380E+02  0.15872847997E+02  0.10882006940E+04  0.10915171988E+04  0.79705425781E+02 0.  0.
        -11    1    3    3    0    0 -0.99454761712E+01  0.23678538077E+02  0.12297334863E+03  0.12562655028E+03  0.00000000000E+00 0.  1.
         12    1    3    3    0    0  0.34928326551E+02 -0.78056900806E+01  0.96522734533E+03  0.96589064855E+03  0.00000000000E+00 0. -1.
          1    1    1    2  501    0 -0.24982850380E+02 -0.15872847997E+02  0.37081813167E+03  0.37199754957E+03  0.00000000000E+00 0. -1.
<mgrwt>
<rscale>  1 0.85023791E+02</rscale>
<asrwt>0</asrwt>
<pdfrwt beam="1">  1       21 0.34584138E-03 0.85023791E+02</pdfrwt>
<pdfrwt beam="2">  1        2 0.22480952E+00 0.85023791E+02</pdfrwt>
<totfact> 0.34136177E+06</totfact>
</mgrwt>
</event>
<event>
 6    2  0.8544106E+000  0.8790667E+02  0.7546771E-02  0.1308002E+00
         21   -1    0    0  501  502  0.00000000000E+00  0.00000000000E+00  0.14108521724E+03  0.14108521724E+03  0.00000000000E+00 0. -1.
          2   -1    0    0  502    0 -0.00000000000E+00 -0.00000000000E+00 -0.10889810724E+03  0.10889810724E+03  0.00000000000E+00 0. -1.
         24    2    1    2    0    0  0.20688061900E+02  0.28136329186E+02 -0.88263876634E+02  0.12457164597E+03  0.80671767903E+02 0.  0.
        -13    1    3    3    0    0 -0.16460677085E+02  0.44381996731E+02 -0.49015505052E+02  0.68141288948E+02  0.00000000000E+00 0.  1.
         14    1    3    3    0    0  0.37148738985E+02 -0.16245667545E+02 -0.39248371582E+02  0.56430357025E+02  0.00000000000E+00 0. -1.
          1    1    1    2  501    0 -0.20688061900E+02 -0.28136329186E+02  0.12045098663E+03  0.12541167851E+03  0.00000000000E+00 0. -1.
<mgrwt>
<rscale>  1 0.87906672E+02</rscale>
<asrwt>0</asrwt>
<pdfrwt beam="1">  1       21 0.21705418E-01 0.87906672E+02</pdfrwt>
<pdfrwt beam="2">  1        2 0.16753555E-01 0.87906672E+02</pdfrwt>
<totfact> 0.80582365E+04</totfact>
</mgrwt>
</event>
<event>
 6    2  0.8544106E+000  0.8375396E+02  0.7546771E-02  0.1318724E+00
          2   -1    0    0  502    0 -0.00000000000E+00  0.00000000000E+00  0.15712304760E+04  0.15712304760E+04  0.00000000000E+00 0. -1.
         21   -1    0    0  501  502  0.00000000000E+00 -0.00000000000E+00 -0.90757417540E+01  0.90757417540E+01  0.00000000000E+00 0. -1.
         24    2    1    2    0    0  0.14208400933E+02  0.19585440960E+02  0.15516817872E+04  0.15539405057E+04  0.80182656079E+02 0.  0.
        -13    1    3    3    0    0  0.10404723493E+02 -0.26054760732E+02  0.27278331303E+03  0.27422225419E+03  0.00000000000E+00 0.  1.
         14    1    3    3    0    0  0.38036774395E+01  0.45640201692E+02  0.12788984741E+04  0.12797182515E+04  0.00000000000E+00 0. -1.
          1    1    1    2  501    0 -0.14208400933E+02 -0.19585440960E+02  0.10472947102E+02  0.26365712122E+02  0.00000000000E+00 0. -1.
<mgrwt>
<rscale>  1 0.83753964E+02</rscale>
<asrwt>0</asrwt>
<pdfrwt beam="1">  1       21 0.13962692E-02 0.83753964E+02</pdfrwt>
<pdfrwt beam="2">  1        2 0.24172755E+00 0.83753964E+02</pdfrwt>
<totfact> 0.34732338E+05</totfact>
</mgrwt>
</event>
<event>
 6    2  0.8544106E+000  0.9201234E+02  0.7546771E-02  0.1298050E+00
         21   -1    0    0  501  502  0.00000000000E+00  0.00000000000E+00  0.86849247253E+01  0.86849247253E+01  0.00000000000E+00 0.  1.
          2   -1    0    0  502    0 -0.00000000000E+00 -0.00000000000E+00 -0.54109291496E+03  0.54109291496E+03  0.00000000000E+00 0. -1.
         24    2    1    2    0    0 -0.10624947928E+02 -0.43821518229E+02 -0.35699686472E+03  0.36866384814E+03  0.80206337209E+02 0.  0.
        -13    1    3    3    0    0  0.39408249480E+00  0.56717819542E+01  0.20579613359E+01  0.60464548628E+01  0.00000000000E+00 0.  1.
         14    1    3    3    0    0 -0.11019030423E+02 -0.49493300184E+02 -0.35905482606E+03  0.36261739328E+03  0.00000000000E+00 0. -1.
          1    1    1    2  501    0  0.10624947928E+02  0.43821518229E+02 -0.17541112551E+03  0.18111399154E+03  0.00000000000E+00 0. -1.
<mgrwt>
<rscale>  1 0.92012344E+02</rscale>
<asrwt>0</asrwt>
<pdfrwt beam="1">  1       21 0.13361421E-02 0.92012344E+02</pdfrwt>
<pdfrwt beam="2">  1        2 0.83245072E-01 0.92012344E+02</pdfrwt>
<totfact> 0.15788928E+06</totfact>
</mgrwt>
</event>
<event>
 6    2  0.8544106E+000  0.8342240E+02  0.7546771E-02  0.1319610E+00
         21   -1    0    0  501  502  0.00000000000E+00  0.00000000000E+00  0.54483719904E+02  0.54483719904E+02  0.00000000000E+00 0. -1.
         -3   -1    0    0    0  501 -0.00000000000E+00 -0.00000000000E+00 -0.17051775753E+03  0.17051775753E+03  0.00000000000E+00 0.  1.
         24    2    1    2    0    0  0.25448413169E+01  0.19859537153E+02  0.21394480141E+02  0.86122123573E+02  0.80984066056E+02 0.  0.
        -13    1    3    3    0    0 -0.18719587287E+02 -0.24370218543E+02 -0.37875950878E+01  0.30962499521E+02  0.00000000000E+00 0.  1.
         14    1    3    3    0    0  0.21264428604E+02  0.44229755696E+02  0.25182075229E+02  0.55159624053E+02  0.00000000000E+00 0. -1.
         -4    1    1    2    0  502 -0.25448413169E+01 -0.19859537153E+02 -0.13742851777E+03  0.13887935386E+03  0.00000000000E+00 0.  1.
<mgrwt>
<rscale>  1 0.83422397E+02</rscale>
<asrwt>0</asrwt>
<pdfrwt beam="1">  1       21 0.83821108E-02 0.83422397E+02</pdfrwt>
<pdfrwt beam="2">  1       -3 0.26233501E-01 0.83422397E+02</pdfrwt>
<totfact> 0.68573826E+04</totfact>
</mgrwt>
</event>
<event>
 6    2  0.8544106E+000  0.8320823E+02  0.7546771E-02  0.1320186E+00
         21   -1    0    0  501  502  0.00000000000E+00  0.00000000000E+00  0.15940846693E+01  0.15940846693E+01  0.00000000000E+00 0.  1.
          2   -1    0    0  502    0 -0.00000000000E+00 -0.00000000000E+00 -0.19662477629E+04  0.19662477629E+04  0.00000000000E+00 0. -1.
         24    2    1    2    0    0 -0.15783940562E+02 -0.13508218143E+02 -0.17939419122E+04  0.17958705948E+04  0.80572973006E+02 0.  0.
        -11    1    3    3    0    0 -0.43391652515E+02 -0.28189373034E+02 -0.10575771503E+04  0.10588422475E+04  0.00000000000E+00 0.  1.
         12    1    3    3    0    0  0.27607711953E+02  0.14681154891E+02 -0.73636476190E+03  0.73702834724E+03  0.00000000000E+00 0. -1.
          1    1    1    2  501    0  0.15783940562E+02  0.13508218143E+02 -0.17071176596E+03  0.17197125275E+03  0.00000000000E+00 0. -1.
<mgrwt>
<rscale>  1 0.83208225E+02</rscale>
<asrwt>0</asrwt>
<pdfrwt beam="1">  1       21 0.24524302E-03 0.83208225E+02</pdfrwt>
<pdfrwt beam="2">  1        2 0.30250061E+00 0.83208225E+02</pdfrwt>
<totfact> 0.31916944E+06</totfact>
</mgrwt>
</event>
<event>
 6    2  0.8544106E+000  0.8487235E+02  0.7546771E-02  0.1315767E+00
          2   -1    0    0  502    0 -0.00000000000E+00  0.00000000000E+00  0.22006981592E+03  0.22006981592E+03  0.00000000000E+00 0. -1.
         21   -1    0    0  501  502  0.00000000000E+00 -0.00000000000E+00 -0.21520699129E+02  0.21520699129E+02  0.00000000000E+00 0. -1.
         24    2    1    2    0    0  0.25827099100E+02  0.13842858043E+01  0.19832834927E+03  0.21572540276E+03  0.80835388153E+02 0.  0.
        -11    1    3    3    0    0 -0.19622526045E+02  0.26474195073E+02  0.78018674120E+02  0.84692620957E+02  0.00000000000E+00 0.  1.
         12    1    3    3    0    0  0.45449625145E+02 -0.25089909269E+02  0.12030967515E+03  0.13103278180E+03  0.00000000000E+00 0. -1.
          1    1    1    2  501    0 -0.25827099100E+02 -0.13842858043E+01  0.22076751657E+00  0.25865112283E+02  0.00000000000E+00 0. -1.
<mgrwt>
<rscale>  1 0.84872347E+02</rscale>
<asrwt>0</asrwt>
<pdfrwt beam="1">  1       21 0.33108769E-02 0.84872347E+02</pdfrwt>
<pdfrwt beam="2">  1        2 0.33856893E-01 0.84872347E+02</pdfrwt>
<totfact> 0.94474745E+05</totfact>
</mgrwt>
</event>
<event>
 6    2  0.8544106E+000  0.1305921E+03  0.7546771E-02  0.1226580E+00
          2   -1    0    0  502    0 -0.00000000000E+00  0.00000000000E+00  0.75275032183E+03  0.75275032183E+03  0.00000000000E+00 0. -1.
         21   -1    0    0  501  502  0.00000000000E+00 -0.00000000000E+00 -0.24447158594E+02  0.24447158594E+02  0.00000000000E+00 0. -1.
         24    2    1    2    0    0  0.10331366743E+03  0.71953443574E+01  0.59077268144E+03  0.60503441736E+03  0.79553744105E+02 0.  0.
        -11    1    3    3    0    0  0.15745989444E+02 -0.13975362870E+02  0.27661571146E+02  0.34762184471E+02  0.00000000000E+00 0.  1.
         12    1    3    3    0    0  0.87567677989E+02  0.21170707228E+02  0.56311111029E+03  0.57027223289E+03  0.00000000000E+00 0. -1.
          1    1    1    2  501    0 -0.10331366743E+03 -0.71953443574E+01  0.13753048180E+03  0.17216306306E+03  0.00000000000E+00 0. -1.
<mgrwt>
<rscale>  1 0.13059206E+03</rscale>
<asrwt>0</asrwt>
<pdfrwt beam="1">  1       21 0.37611019E-02 0.13059206E+03</pdfrwt>
<pdfrwt beam="2">  1        2 0.11580772E+00 0.13059206E+03</pdfrwt>
<totfact> 0.20806065E+05</totfact>
</mgrwt>
</event>
<event>
 6    2  0.8544106E+000  0.8706777E+02  0.7546771E-02  0.1310112E+00
         21   -1    0    0  501  502  0.00000000000E+00  0.00000000000E+00  0.16472887528E+02  0.16472887528E+02  0.00000000000E+00 0.  1.
          2   -1    0    0  502    0 -0.00000000000E+00 -0.00000000000E+00 -0.23639275012E+03  0.23639275012E+03  0.00000000000E+00 0. -1.
         24    2    1    2    0    0 -0.35146233893E+01 -0.32801244964E+02 -0.18692484425E+03  0.20620788926E+03  0.80576187231E+02 0.  0.
        -13    1    3    3    0    0 -0.24082549549E+02 -0.40068811921E+02 -0.53653412561E+02  0.71162964813E+02  0.00000000000E+00 0.  1.
         14    1    3    3    0    0  0.20567926160E+02  0.72675669571E+01 -0.13327143169E+03  0.13504492445E+03  0.00000000000E+00 0. -1.
          1    1    1    2  501    0  0.35146233893E+01  0.32801244964E+02 -0.32995018341E+02  0.46657748382E+02  0.00000000000E+00 0. -1.
<mgrwt>
<rscale>  1 0.87067768E+02</rscale>
<asrwt>0</asrwt>
<pdfrwt beam="1">  1       21 0.25342905E-02 0.87067768E+02</pdfrwt>
<pdfrwt beam="2">  1        2 0.36368114E-01 0.87067768E+02</pdfrwt>
<totfact> 0.13551024E+06</totfact>
</mgrwt>
</event>
<event>
 6    2  0.8544106E+000  0.8470513E+02  0.7546771E-02  0.1316205E+00
         21   -1    0    0  501  502  0.00000000000E+00  0.00000000000E+00  0.55956052284E+01  0.55956052284E+01  0.00000000000E+00 0. -1.
          2   -1    0    0  502    0 -0.00000000000E+00 -0.00000000000E+00 -0.53340856326E+03  0.53340856326E+03  0.00000000000E+00 0. -1.
         24    2    1    2    0    0 -0.13472464434E+02  0.19526681869E+02 -0.43769379897E+03  0.44581478372E+03  0.81315196166E+02 0.  0.
        -11    1    3    3    0    0  0.21478735668E+02  0.36974227885E+02 -0.28565650907E+03  0.28883917807E+03  0.00000000000E+00 0.  1.
         12    1    3    3    0    0 -0.34951200103E+02 -0.17447546016E+02 -0.15203728990E+03  0.15697560565E+03  0.00000000000E+00 0. -1.
          1    1    1    2  501    0  0.13472464434E+02 -0.19526681869E+02 -0.90119159065E+02  0.93189384767E+02  0.00000000000E+00 0. -1.
<mgrwt>
<rscale>  1 0.84705134E+02</rscale>
<asrwt>0</asrwt>
<pdfrwt beam="1">  1       21 0.86086249E-03 0.84705134E+02</pdfrwt>
<pdfrwt beam="2">  1        2 0.82062842E-01 0.84705134E+02</pdfrwt>
<totfact> 0.31612008E+06</totfact>
</mgrwt>
</event>
<event>
 6    2  0.8544106E+000  0.9497158E+02  0.7546771E-02  0.1291240E+00
          2   -1    0    0  502    0 -0.00000000000E+00  0.00000000000E+00  0.61591493520E+03  0.61591493520E+03  0.00000000000E+00 0. -1.
         21   -1    0    0  501  502  0.00000000000E+00 -0.00000000000E+00 -0.87771677528E+01  0.87771677528E+01  0.00000000000E+00 0. -1.
         24    2    1    2    0    0 -0.30137058901E+02  0.40693232885E+02  0.35259583515E+03  0.36516218788E+03  0.80345621959E+02 0.  0.
        -11    1    3    3    0    0 -0.99598038818E+01  0.61319096268E+02  0.28453564619E+03  0.29123832717E+03  0.00000000000E+00 0.  1.
         12    1    3    3    0    0 -0.20177255019E+02 -0.20625863384E+02  0.68060188966E+02  0.73923860712E+02  0.00000000000E+00 0. -1.
          1    1    1    2  501    0  0.30137058901E+02 -0.40693232885E+02  0.25454193229E+03  0.25952991507E+03  0.00000000000E+00 0. -1.
<mgrwt>
<rscale>  1 0.94971577E+02</rscale>
<asrwt>0</asrwt>
<pdfrwt beam="1">  1       21 0.13503340E-02 0.94971577E+02</pdfrwt>
<pdfrwt beam="2">  1        2 0.94756110E-01 0.94971577E+02</pdfrwt>
<totfact> 0.13488928E+06</totfact>
</mgrwt>
</event>
<event>
 6    2  0.8544106E+000  0.9448076E+02  0.7546771E-02  0.1292350E+00
          2   -1    0    0  502    0 -0.00000000000E+00  0.00000000000E+00  0.14563987740E+04  0.14563987740E+04  0.00000000000E+00 0. -1.
         21   -1    0    0  501  502  0.00000000000E+00 -0.00000000000E+00 -0.28591811609E+01  0.28591811609E+01  0.00000000000E+00 0.  1.
         24    2    1    2    0    0 -0.18680636205E+02 -0.76830312883E+01  0.13721662670E+04  0.13754151659E+04  0.92296367160E+02 0.  0.
        -13    1    3    3    0    0 -0.22299830287E+02  0.35364935615E+02  0.37689748327E+03  0.37920927467E+03  0.00000000000E+00 0.  1.
         14    1    3    3    0    0  0.36191940818E+01 -0.43047966904E+02  0.99526878369E+03  0.99620589127E+03  0.00000000000E+00 0. -1.
          1    1    1    2  501    0  0.18680636205E+02  0.76830312883E+01  0.81373325878E+02  0.83842789214E+02  0.00000000000E+00 0. -1.
<mgrwt>
<rscale>  1 0.94480763E+02</rscale>
<asrwt>0</asrwt>
<pdfrwt beam="1">  1       21 0.43987519E-03 0.94480763E+02</pdfrwt>
<pdfrwt beam="2">  1        2 0.22406076E+00 0.94480763E+02</pdfrwt>
<totfact> 0.24030756E+06</totfact>
</mgrwt>
</event>
<event>
 6    2  0.8544106E+000  0.8223399E+02  0.7546771E-02  0.1322829E+00
          4   -1    0    0  502    0 -0.00000000000E+00  0.00000000000E+00  0.57217614197E+01  0.57217614197E+01  0.00000000000E+00 0. -1.
         21   -1    0    0  501  502  0.00000000000E+00 -0.00000000000E+00 -0.61705171372E+03  0.61705171372E+03  0.00000000000E+00 0.  1.
         24    2    1    2    0    0 -0.14013542033E+02 -0.14542595404E+02 -0.57786418698E+03  0.58368608728E+03  0.79715515713E+02 0.  0.
        -13    1    3    3    0    0 -0.25889233384E+02  0.21333809393E+02 -0.42097871693E+03  0.42231322965E+03  0.00000000000E+00 0.  1.
         14    1    3    3    0    0  0.11875691352E+02 -0.35876404797E+02 -0.15688547005E+03  0.16137285763E+03  0.00000000000E+00 0. -1.
          3    1    1    2  501    0  0.14013542033E+02  0.14542595404E+02 -0.33465765314E+02  0.39087387857E+02  0.00000000000E+00 0. -1.
<mgrwt>
<rscale>  1 0.82233995E+02</rscale>
<asrwt>0</asrwt>
<pdfrwt beam="1">  1       21 0.94930985E-01 0.82233995E+02</pdfrwt>
<pdfrwt beam="2">  1        4 0.88027143E-03 0.82233995E+02</pdfrwt>
<totfact> 0.12621164E+05</totfact>
</mgrwt>
</event>
<event>
 6    2  0.8544106E+000  0.8706464E+02  0.7546771E-02  0.1310120E+00
          2   -1    0    0  502    0 -0.00000000000E+00  0.00000000000E+00  0.89207693694E+03  0.89207693694E+03  0.00000000000E+00 0. -1.
         21   -1    0    0  501  502  0.00000000000E+00 -0.00000000000E+00 -0.35436020309E+01  0.35436020309E+01  0.00000000000E+00 0. -1.
         24    2    1    2    0    0 -0.15166518451E+02 -0.20336164596E+02  0.69408283615E+03  0.69952214699E+03  0.83286660456E+02 0.  0.
        -13    1    3    3    0    0 -0.11554564450E+02  0.31863224629E+02  0.22672896214E+03  0.22924832674E+03  0.00000000000E+00 0.  1.
         14    1    3    3    0    0 -0.36119540010E+01 -0.52199389226E+02  0.46735387402E+03  0.47027382024E+03  0.00000000000E+00 0. -1.
          1    1    1    2  501    0  0.15166518451E+02  0.20336164596E+02  0.19445049875E+03  0.19609839198E+03  0.00000000000E+00 0. -1.
<mgrwt>
<rscale>  1 0.87064635E+02</rscale>
<asrwt>0</asrwt>
<pdfrwt beam="1">  1       21 0.54517026E-03 0.87064635E+02</pdfrwt>
<pdfrwt beam="2">  1        2 0.13724243E+00 0.87064635E+02</pdfrwt>
<totfact> 0.35248370E+06</totfact>
</mgrwt>
</event>
<event>
 6    2  0.8544106E+000  0.1269696E+03  0.7546771E-02  0.1232023E+00
         -1   -1    0    0    0  501 -0.00000000000E+00  0.00000000000E+00  0.53179435407E+03  0.53179435407E+03  0.00000000000E+00 0.  1.
         21   -1    0    0  501  502  0.00000000000E+00 -0.00000000000E+00 -0.42902176203E+02  0.42902176203E+02  0.00000000000E+00 0.  1.
         24    2    1    2    0    0 -0.77965929310E+02  0.55626084493E+02  0.45613054674E+03  0.47347266015E+03  0.83356684387E+02 0.  0.
        -13    1    3    3    0    0 -0.51838707435E+02  0.75911957138E+02  0.36892145531E+03  0.38020115335E+03  0.00000000000E+00 0.  1.
         14    1    3    3    0    0 -0.26127221875E+02 -0.20285872644E+02  0.87209091431E+02  0.93271506796E+02  0.00000000000E+00 0. -1.
         -2    1    1    2    0  502  0.77965929310E+02 -0.55626084493E+02  0.32761631132E+02  0.10122387013E+03  0.00000000000E+00 0.  1.
<mgrwt>
<rscale>  1 0.12696962E+03</rscale>
<asrwt>0</asrwt>
<pdfrwt beam="1">  1       21 0.66003352E-02 0.12696962E+03</pdfrwt>
<pdfrwt beam="2">  1       -1 0.81814511E-01 0.12696962E+03</pdfrwt>
<totfact> 0.24269415E+04</totfact>
</mgrwt>
</event>
<event>
 6    2  0.8544106E+000  0.8545610E+02  0.7546771E-02  0.1314244E+00
         -1   -1    0    0    0  501 -0.00000000000E+00  0.00000000000E+00  0.36391067927E+03  0.36391067927E+03  0.00000000000E+00 0.  1.
         21   -1    0    0  501  502  0.00000000000E+00 -0.00000000000E+00 -0.95165803232E+01  0.95165803232E+01  0.00000000000E+00 0. -1.
         24    2    1    2    0    0  0.16862347513E+02 -0.23891440973E+02  0.29646521171E+03  0.30853584497E+03  0.80296987251E+02 0.  0.
        -13    1    3    3    0    0  0.27026212557E+02 -0.19251924087E+02  0.29546062755E+03  0.29731807073E+03  0.00000000000E+00 0.  1.
         14    1    3    3    0    0 -0.10163865044E+02 -0.46395168861E+01  0.10045841531E+01  0.11217774240E+02  0.00000000000E+00 0. -1.
         -2    1    1    2    0  502 -0.16862347513E+02  0.23891440973E+02  0.57928887241E+02  0.64891414628E+02  0.00000000000E+00 0.  1.
<mgrwt>
<rscale>  1 0.85456105E+02</rscale>
<asrwt>0</asrwt>
<pdfrwt beam="1">  1       21 0.14640896E-02 0.85456105E+02</pdfrwt>
<pdfrwt beam="2">  1       -1 0.55986247E-01 0.85456105E+02</pdfrwt>
<totfact> 0.58234408E+05</totfact>
</mgrwt>
</event>
<event>
 6    2  0.8544106E+000  0.8962913E+02  0.7546771E-02  0.1303752E+00
         21   -1    0    0  501  502  0.00000000000E+00  0.00000000000E+00  0.99287284451E+02  0.99287284451E+02  0.00000000000E+00 0. -1.
          4   -1    0    0  502    0 -0.00000000000E+00 -0.00000000000E+00 -0.93838935599E+02  0.93838935599E+02  0.00000000000E+00 0. -1.
         24    2    1    2    0    0  0.27876966136E+02 -0.27481066096E+02 -0.66237669114E+02  0.11144868699E+03  0.80629069123E+02 0.  0.
        -11    1    3    3    0    0 -0.17653236910E+02 -0.96496600592E+01  0.87404827491E+01  0.21935103176E+02  0.00000000000E+00 0.  1.
         12    1    3    3    0    0  0.45530203045E+02 -0.17831406037E+02 -0.74978151864E+02  0.89513583815E+02  0.00000000000E+00 0. -1.
          3    1    1    2  501    0 -0.27876966136E+02  0.27481066096E+02  0.71686017966E+02  0.81677533059E+02  0.00000000000E+00 0. -1.
<mgrwt>
<rscale>  1 0.89629130E+02</rscale>
<asrwt>0</asrwt>
<pdfrwt beam="1">  1       21 0.15274967E-01 0.89629130E+02</pdfrwt>
<pdfrwt beam="2">  1        4 0.14436759E-01 0.89629130E+02</pdfrwt>
<totfact> 0.58501258E+04</totfact>
</mgrwt>
</event>
<event>
 6    2  0.8544106E+000  0.9041927E+02  0.7546771E-02  0.1301840E+00
         -1   -1    0    0    0  501 -0.00000000000E+00  0.00000000000E+00  0.43989077384E+02  0.43989077384E+02  0.00000000000E+00 0.  1.
         21   -1    0    0  501  502  0.00000000000E+00 -0.00000000000E+00 -0.10210976082E+03  0.10210976082E+03  0.00000000000E+00 0.  1.
         24    2    1    2    0    0  0.24477646277E+02 -0.34235522815E+02 -0.29136188165E+02  0.94997691878E+02  0.80027606560E+02 0.  0.
        -13    1    3    3    0    0  0.53409805653E+02 -0.14910194441E+02 -0.15018636710E+02  0.57449810154E+02  0.00000000000E+00 0.  1.
         14    1    3    3    0    0 -0.28932159375E+02 -0.19325328375E+02 -0.14117551455E+02  0.37547881724E+02  0.00000000000E+00 0. -1.
         -2    1    1    2    0  502 -0.24477646277E+02  0.34235522815E+02 -0.28984495273E+02  0.51101146327E+02  0.00000000000E+00 0.  1.
<mgrwt>
<rscale>  1 0.90419268E+02</rscale>
<asrwt>0</asrwt>
<pdfrwt beam="1">  1       21 0.15709194E-01 0.90419268E+02</pdfrwt>
<pdfrwt beam="2">  1       -1 0.67675505E-02 0.90419268E+02</pdfrwt>
<totfact> 0.33481025E+05</totfact>
</mgrwt>
</event>
<event>
 6    2  0.8544106E+000  0.8713509E+02  0.7546771E-02  0.1309942E+00
          2   -1    0    0  502    0 -0.00000000000E+00  0.00000000000E+00  0.22666790416E+03  0.22666790416E+03  0.00000000000E+00 0. -1.
         21   -1    0    0  501  502  0.00000000000E+00 -0.00000000000E+00 -0.18378582126E+02  0.18378582126E+02  0.00000000000E+00 0. -1.
         24    2    1    2    0    0  0.31906452471E+02 -0.10641922088E+02  0.18390397776E+03  0.20350232628E+03  0.80381910597E+02 0.  0.
        -13    1    3    3    0    0 -0.15262113066E+02 -0.29553292095E+01  0.22994175530E+01  0.15714750621E+02  0.00000000000E+00 0.  1.
         14    1    3    3    0    0  0.47168565538E+02 -0.76865928782E+01  0.18160456021E+03  0.18778757566E+03  0.00000000000E+00 0. -1.
          1    1    1    2  501    0 -0.31906452471E+02  0.10641922088E+02  0.24385344275E+02  0.41544160004E+02  0.00000000000E+00 0. -1.
<mgrwt>
<rscale>  1 0.87135089E+02</rscale>
<asrwt>0</asrwt>
<pdfrwt beam="1">  1       21 0.28274743E-02 0.87135089E+02</pdfrwt>
<pdfrwt beam="2">  1        2 0.34871983E-01 0.87135089E+02</pdfrwt>
<totfact> 0.11868810E+06</totfact>
</mgrwt>
</event>
<event>
 6    2  0.8544106E+000  0.8393703E+02  0.7546771E-02  0.1318236E+00
         -1   -1    0    0    0  501 -0.00000000000E+00  0.00000000000E+00  0.24449815246E+03  0.24449815246E+03  0.00000000000E+00 0.  1.
         21   -1    0    0  501  502  0.00000000000E+00 -0.00000000000E+00 -0.14963702906E+02  0.14963702906E+02  0.00000000000E+00 0. -1.
         24    2    1    2    0    0 -0.23536608340E+02  0.41674470059E+01  0.21657565209E+03  0.23227233572E+03  0.80461700934E+02 0.  0.
        -13    1    3    3    0    0 -0.93530462144E+01 -0.36233452584E+02  0.13565123316E+03  0.14071815667E+03  0.00000000000E+00 0.  1.
         14    1    3    3    0    0 -0.14183562125E+02  0.40400899590E+02  0.80924418927E+02  0.91554179046E+02  0.00000000000E+00 0. -1.
         -2    1    1    2    0  502  0.23536608340E+02 -0.41674470059E+01  0.12958797465E+02  0.27189519643E+02  0.00000000000E+00 0.  1.
<mgrwt>
<rscale>  1 0.83937029E+02</rscale>
<asrwt>0</asrwt>
<pdfrwt beam="1">  1       21 0.23021083E-02 0.83937029E+02</pdfrwt>
<pdfrwt beam="2">  1       -1 0.37615098E-01 0.83937029E+02</pdfrwt>
<totfact> 0.57276040E+05</totfact>
</mgrwt>
</event>
<event>
 6    2  0.8544106E+000  0.8635722E+02  0.7546771E-02  0.1311921E+00
          2   -1    0    0  502    0 -0.00000000000E+00  0.00000000000E+00  0.10722895028E+02  0.10722895028E+02  0.00000000000E+00 0. -1.
         21   -1    0    0  501  502  0.00000000000E+00 -0.00000000000E+00 -0.42931932403E+03  0.42931932403E+03  0.00000000000E+00 0. -1.
         24    2    1    2    0    0  0.23025120355E+02  0.71764949806E+01 -0.40098547697E+03  0.41017913350E+03  0.82921110507E+02 0.  0.
        -13    1    3    3    0    0 -0.15680495787E+02 -0.27980015411E+02 -0.11204216955E+03  0.11654272593E+03  0.00000000000E+00 0.  1.
         14    1    3    3    0    0  0.38705616141E+02  0.35156510392E+02 -0.28894330742E+03  0.29363640757E+03  0.00000000000E+00 0. -1.
          1    1    1    2  501    0 -0.23025120355E+02 -0.71764949806E+01 -0.17610952024E+02  0.29863085553E+02  0.00000000000E+00 0. -1.
<mgrwt>
<rscale>  1 0.86357216E+02</rscale>
<asrwt>0</asrwt>
<pdfrwt beam="1">  1       21 0.66049125E-01 0.86357216E+02</pdfrwt>
<pdfrwt beam="2">  1        2 0.16496762E-02 0.86357216E+02</pdfrwt>
<totfact> 0.17059421E+05</totfact>
</mgrwt>
</event>
<event>
 6    2  0.8544106E+000  0.1338530E+03  0.7546771E-02  0.1221848E+00
         21   -1    0    0  501  502  0.00000000000E+00  0.00000000000E+00  0.20292143098E+02  0.20292143098E+02  0.00000000000E+00 0.  1.
          2   -1    0    0  502    0 -0.00000000000E+00 -0.00000000000E+00 -0.76095199471E+03  0.76095199471E+03  0.00000000000E+00 0. -1.
         24    2    1    2    0    0 -0.66383860891E+02 -0.91770785179E+02 -0.35943302846E+03  0.38354753901E+03  0.71329648391E+02 0.  0.
        -11    1    3    3    0    0 -0.15405380897E+02 -0.46954387624E+02 -0.66487139537E+02  0.82840690494E+02  0.00000000000E+00 0.  1.
         12    1    3    3    0    0 -0.50978479993E+02 -0.44816397555E+02 -0.29294588892E+03  0.30070684852E+03  0.00000000000E+00 0. -1.
          1    1    1    2  501    0  0.66383860891E+02  0.91770785179E+02 -0.38122682316E+03  0.39769659880E+03  0.00000000000E+00 0. -1.
<mgrwt>
<rscale>  1 0.13385295E+03</rscale>
<asrwt>0</asrwt>
<pdfrwt beam="1">  1       21 0.31218680E-02 0.13385295E+03</pdfrwt>
<pdfrwt beam="2">  1        2 0.11706954E+00 0.13385295E+03</pdfrwt>
<totfact> 0.27951954E+05</totfact>
</mgrwt>
</event>
<event>
 6    2  0.8544106E+000  0.1115845E+03  0.7546771E-02  0.1257663E+00
         21   -1    0    0  501  502  0.00000000000E+00  0.00000000000E+00  0.12922479588E+03  0.12922479588E+03  0.00000000000E+00 0. -1.
          4   -1    0    0  502    0 -0.00000000000E+00 -0.00000000000E+00 -0.69250060494E+02  0.69250060494E+02  0.00000000000E+00 0. -1.
         24    2    1    2    0    0  0.71220270176E+02  0.25034523760E+02  0.50185599353E+02  0.12235073767E+03  0.82170885130E+02 0.  0.
        -13    1    3    3    0    0 -0.28966296762E+01 -0.18016268201E+02  0.28660456758E+02  0.33976435437E+02  0.00000000000E+00 0.  1.
         14    1    3    3    0    0  0.74116899852E+02  0.43050791961E+02  0.21525142595E+02  0.88374302237E+02  0.00000000000E+00 0. -1.
          3    1    1    2  501    0 -0.71220270176E+02 -0.25034523760E+02  0.97891360352E+01  0.76124118702E+02  0.00000000000E+00 0. -1.
<mgrwt>
<rscale>  1 0.11158454E+03</rscale>
<asrwt>0</asrwt>
<pdfrwt beam="1">  1       21 0.19880738E-01 0.11158454E+03</pdfrwt>
<pdfrwt beam="2">  1        4 0.10653855E-01 0.11158454E+03</pdfrwt>
<totfact> 0.62801549E+04</totfact>
</mgrwt>
</event>
<event>
 6    2  0.8544106E+000  0.8537616E+02  0.7546771E-02  0.1314452E+00
         -1   -1    0    0    0  501 -0.00000000000E+00  0.00000000000E+00  0.40520113717E+03  0.40520113717E+03  0.00000000000E+00 0.  1.
         21   -1    0    0  501  502  0.00000000000E+00 -0.00000000000E+00 -0.26121599740E+02  0.26121599740E+02  0.00000000000E+00 0.  1.
         24    2    1    2    0    0 -0.28170334586E+02 -0.18650142263E+02  0.38726202589E+03  0.39656142689E+03  0.78407225726E+02 0.  0.
        -13    1    3    3    0    0 -0.22135670901E+02  0.19396746652E+02  0.29657284526E+03  0.29802965331E+03  0.00000000000E+00 0.  1.
         14    1    3    3    0    0 -0.60346636844E+01 -0.38046888915E+02  0.90689180629E+02  0.98531773582E+02  0.00000000000E+00 0. -1.
         -2    1    1    2    0  502  0.28170334586E+02  0.18650142263E+02 -0.81824884549E+01  0.34761310022E+02  0.00000000000E+00 0.  1.
<mgrwt>
<rscale>  1 0.85376159E+02</rscale>
<asrwt>0</asrwt>
<pdfrwt beam="1">  1       21 0.40187079E-02 0.85376159E+02</pdfrwt>
<pdfrwt beam="2">  1       -1 0.62338632E-01 0.85376159E+02</pdfrwt>
<totfact> 0.93701252E+04</totfact>
</mgrwt>
</event>
<event>
 6    2  0.8544106E+000  0.8634729E+02  0.7546771E-02  0.1311946E+00
         21   -1    0    0  501  502  0.00000000000E+00  0.00000000000E+00  0.61510866620E+03  0.61510866620E+03  0.00000000000E+00 0.  1.
         -1   -1    0    0    0  501 -0.00000000000E+00 -0.00000000000E+00 -0.19688252832E+02  0.19688252832E+02  0.00000000000E+00 0.  1.
         24    2    1    2    0    0  0.21602640276E+01  0.29309035340E+02  0.77448383936E+02  0.11599184045E+03  0.81192170697E+02 0.  0.
        -11    1    3    3    0    0  0.42953910559E+01  0.34289675130E+01 -0.17089884721E+02  0.17951945919E+02  0.00000000000E+00 0.  1.
         12    1    3    3    0    0 -0.21351270283E+01  0.25880067827E+02  0.94538268657E+02  0.98039894527E+02  0.00000000000E+00 0. -1.
         -2    1    1    2    0  502 -0.21602640276E+01 -0.29309035340E+02  0.51797202943E+03  0.51880507858E+03  0.00000000000E+00 0.  1.
<mgrwt>
<rscale>  1 0.86347292E+02</rscale>
<asrwt>0</asrwt>
<pdfrwt beam="1">  1       21 0.94632088E-01 0.86347292E+02</pdfrwt>
<pdfrwt beam="2">  1       -1 0.30289625E-02 0.86347292E+02</pdfrwt>
<totfact> 0.30220269E+04</totfact>
</mgrwt>
</event>
<event>
 6    2  0.8544106E+000  0.8632944E+02  0.7546771E-02  0.1311992E+00
         21   -1    0    0  501  502  0.00000000000E+00  0.00000000000E+00  0.29945048492E+03  0.29945048492E+03  0.00000000000E+00 0. -1.
          2   -1    0    0  502    0 -0.00000000000E+00 -0.00000000000E+00 -0.88503624956E+02  0.88503624956E+02  0.00000000000E+00 0. -1.
         24    2    1    2    0    0 -0.45417442609E+01 -0.29611482258E+02 -0.66451377757E+02  0.10894291008E+03  0.80964836366E+02 0.  0.
        -13    1    3    3    0    0 -0.81204142991E+01 -0.40915799149E+02 -0.27713237077E+00  0.41714752196E+02  0.00000000000E+00 0.  1.
         14    1    3    3    0    0  0.35786700382E+01  0.11304316891E+02 -0.66174245386E+02  0.67228157881E+02  0.00000000000E+00 0. -1.
          1    1    1    2  501    0  0.45417442609E+01  0.29611482258E+02  0.27739823773E+03  0.27901119980E+03  0.00000000000E+00 0. -1.
<mgrwt>
<rscale>  1 0.86329439E+02</rscale>
<asrwt>0</asrwt>
<pdfrwt beam="1">  1       21 0.46069305E-01 0.86329439E+02</pdfrwt>
<pdfrwt beam="2">  1        2 0.13615942E-01 0.86329439E+02</pdfrwt>
<totfact> 0.24077739E+04</totfact>
</mgrwt>
</event>
<event>
 6    2  0.8544106E+000  0.7919268E+02  0.7546771E-02  0.1331358E+00
          2   -1    0    0  502    0 -0.00000000000E+00  0.00000000000E+00  0.27262249368E+04  0.27262249368E+04  0.00000000000E+00 0. -1.
         21   -1    0    0  501  502  0.00000000000E+00 -0.00000000000E+00 -0.10888737290E+01  0.10888737290E+01  0.00000000000E+00 0.  1.
         24    2    1    2    0    0 -0.15440039576E+02  0.23633097156E+02  0.17884844242E+04  0.17902368602E+04  0.73990284273E+02 0.  0.
        -11    1    3    3    0    0 -0.17103553457E+01  0.18346362093E+01  0.12243019005E+01  0.27910787472E+01  0.00000000000E+00 0.  1.
         12    1    3    3    0    0 -0.13729684231E+02  0.21798460947E+02  0.17872601223E+04  0.17874457815E+04  0.00000000000E+00 0. -1.
          1    1    1    2  501    0  0.15440039576E+02 -0.23633097156E+02  0.93665163894E+03  0.93707695033E+03  0.00000000000E+00 0. -1.
<mgrwt>
<rscale>  1 0.79192678E+02</rscale>
<asrwt>0</asrwt>
<pdfrwt beam="1">  1       21 0.16752122E-03 0.79192678E+02</pdfrwt>
<pdfrwt beam="2">  1        2 0.41941376E+00 0.79192678E+02</pdfrwt>
<totfact> 0.22836775E+06</totfact>
</mgrwt>
</event>
<event>
 6    2  0.8544106E+000  0.9370314E+02  0.7546771E-02  0.1294124E+00
         21   -1    0    0  501  502  0.00000000000E+00  0.00000000000E+00  0.75340836769E+02  0.75340836769E+02  0.00000000000E+00 0.  1.
         -1   -1    0    0    0  501 -0.00000000000E+00 -0.00000000000E+00 -0.84778128456E+02  0.84778128456E+02  0.00000000000E+00 0.  1.
         24    2    1    2    0    0  0.79907021039E+01  0.46445547714E+02 -0.42153605931E+02  0.10274826329E+03  0.80989128246E+02 0.  0.
        -11    1    3    3    0    0  0.20800363507E+01  0.67716518168E+02 -0.43695930602E+02  0.80617539873E+02  0.00000000000E+00 0.  1.
         12    1    3    3    0    0  0.59106657531E+01 -0.21270970454E+02  0.15423246706E+01  0.22130723419E+02  0.00000000000E+00 0. -1.
         -2    1    1    2    0  502 -0.79907021039E+01 -0.46445547714E+02  0.32716314244E+02  0.57370701933E+02  0.00000000000E+00 0.  1.
<mgrwt>
<rscale>  1 0.93703144E+02</rscale>
<asrwt>0</asrwt>
<pdfrwt beam="1">  1       21 0.11590898E-01 0.93703144E+02</pdfrwt>
<pdfrwt beam="2">  1       -1 0.13042789E-01 0.93703144E+02</pdfrwt>
<totfact> 0.21424371E+05</totfact>
</mgrwt>
</event>
<event>
 6    2  0.8544106E+000  0.1043753E+03  0.7546771E-02  0.1271355E+00
         21   -1    0    0  501  502  0.00000000000E+00  0.00000000000E+00  0.16219145191E+03  0.16219145191E+03  0.00000000000E+00 0.  1.
         -1   -1    0    0    0  501 -0.00000000000E+00 -0.00000000000E+00 -0.63009588106E+02  0.63009588106E+02  0.00000000000E+00 0.  1.
         24    2    1    2    0    0  0.66162036863E+02 -0.96551143192E+01 -0.14452015519E+01  0.10438530165E+03  0.80147153654E+02 0.  0.
        -11    1    3    3    0    0  0.83230154269E+02 -0.52247152803E+01 -0.11345844414E+02  0.84162250534E+02  0.00000000000E+00 0.  1.
         12    1    3    3    0    0 -0.17068117406E+02 -0.44303990389E+01  0.99006428621E+01  0.20223051118E+02  0.00000000000E+00 0. -1.
         -2    1    1    2    0  502 -0.66162036863E+02  0.96551143192E+01  0.10062706536E+03  0.12081573836E+03  0.00000000000E+00 0.  1.
<mgrwt>
<rscale>  1 0.10437530E+03</rscale>
<asrwt>0</asrwt>
<pdfrwt beam="1">  1       21 0.24952531E-01 0.10437530E+03</pdfrwt>
<pdfrwt beam="2">  1       -1 0.96937828E-02 0.10437530E+03</pdfrwt>
<totfact> 0.84615961E+04</totfact>
</mgrwt>
</event>
<event>
 6    2  0.8544106E+000  0.8440534E+02  0.7546771E-02  0.1316995E+00
         -1   -1    0    0    0  501 -0.00000000000E+00  0.00000000000E+00  0.22129193578E+03  0.22129193578E+03  0.00000000000E+00 0.  1.
         21   -1    0    0  501  502  0.00000000000E+00 -0.00000000000E+00 -0.10216062781E+03  0.10216062781E+03  0.00000000000E+00 0.  1.
         24    2    1    2    0    0  0.35577243314E+00  0.23199702741E+02  0.21176018774E+03  0.22796192453E+03  0.81153614477E+02 0.  0.
        -13    1    3    3    0    0 -0.24210644915E+02 -0.12194013353E+02  0.15137120178E+03  0.15377935498E+03  0.00000000000E+00 0.  1.
         14    1    3    3    0    0  0.24566417348E+02  0.35393716094E+02  0.60388985960E+02  0.74182569553E+02  0.00000000000E+00 0. -1.
         -2    1    1    2    0  502 -0.35577243314E+00 -0.23199702741E+02 -0.92628879773E+02  0.95490639066E+02  0.00000000000E+00 0.  1.
<mgrwt>
<rscale>  1 0.84405343E+02</rscale>
<asrwt>0</asrwt>
<pdfrwt beam="1">  1       21 0.15717020E-01 0.84405343E+02</pdfrwt>
<pdfrwt beam="2">  1       -1 0.34044913E-01 0.84405343E+02</pdfrwt>
<totfact> 0.26742729E+04</totfact>
</mgrwt>
</event>
<event>
 6    2  0.8544106E+000  0.8398463E+02  0.7546771E-02  0.1318109E+00
         21   -1    0    0  501  502  0.00000000000E+00  0.00000000000E+00  0.25961731313E+02  0.25961731313E+02  0.00000000000E+00 0. -1.
          4   -1    0    0  502    0 -0.00000000000E+00 -0.00000000000E+00 -0.14562755991E+03  0.14562755991E+03  0.00000000000E+00 0. -1.
         24    2    1    2    0    0 -0.27829659523E+02 -0.65418272589E+01 -0.11533792242E+03  0.14267534606E+03  0.78969187487E+02 0.  0.
        -11    1    3    3    0    0 -0.24314856385E+02  0.21353507303E+02 -0.10330688558E+02  0.33969216083E+02  0.00000000000E+00 0.  1.
         12    1    3    3    0    0 -0.35148031375E+01 -0.27895334562E+02 -0.10500723386E+03  0.10870612998E+03  0.00000000000E+00 0. -1.
          3    1    1    2  501    0  0.27829659523E+02  0.65418272589E+01 -0.43279061789E+01  0.28913945164E+02  0.00000000000E+00 0. -1.
<mgrwt>
<rscale>  1 0.83984630E+02</rscale>
<asrwt>0</asrwt>
<pdfrwt beam="1">  1       21 0.39941125E-02 0.83984630E+02</pdfrwt>
<pdfrwt beam="2">  1        4 0.22404240E-01 0.83984630E+02</pdfrwt>
<totfact> 0.26345481E+05</totfact>
</mgrwt>
</event>
<event>
 6    2  0.8544106E+000  0.8840803E+02  0.7546771E-02  0.1306753E+00
         21   -1    0    0  501  502  0.00000000000E+00  0.00000000000E+00  0.27403918897E+02  0.27403918897E+02  0.00000000000E+00 0. -1.
          2   -1    0    0  502    0 -0.00000000000E+00 -0.00000000000E+00 -0.15631964041E+03  0.15631964041E+03  0.00000000000E+00 0. -1.
         24    2    1    2    0    0  0.20994796161E+02  0.27349033219E+02 -0.60548849023E+02  0.10715476450E+03  0.81407796638E+02 0.  0.
        -11    1    3    3    0    0 -0.30641294769E+02  0.54413685601E+01 -0.13413595417E+02  0.33888375278E+02  0.00000000000E+00 0.  1.
         12    1    3    3    0    0  0.51636090930E+02  0.21907664659E+02 -0.47135253605E+02  0.73266389223E+02  0.00000000000E+00 0. -1.
          1    1    1    2  501    0 -0.20994796161E+02 -0.27349033219E+02 -0.68366872495E+02  0.76568794810E+02  0.00000000000E+00 0. -1.
<mgrwt>
<rscale>  1 0.88408034E+02</rscale>
<asrwt>0</asrwt>
<pdfrwt beam="1">  1       21 0.42159875E-02 0.88408034E+02</pdfrwt>
<pdfrwt beam="2">  1        2 0.24049175E-01 0.88408034E+02</pdfrwt>
<totfact> 0.92176122E+05</totfact>
</mgrwt>
</event>
<event>
 6    2  0.8544106E+000  0.8295618E+02  0.7546771E-02  0.1320866E+00
          2   -1    0    0  502    0 -0.00000000000E+00  0.00000000000E+00  0.78709421563E+02  0.78709421563E+02  0.00000000000E+00 0. -1.
         21   -1    0    0  501  502  0.00000000000E+00 -0.00000000000E+00 -0.35208769279E+02  0.35208769279E+02  0.00000000000E+00 0.  1.
         24    2    1    2    0    0  0.15263617811E+02 -0.15885320271E+02  0.37801474601E+02  0.91162926505E+02  0.79977535960E+02 0.  0.
        -11    1    3    3    0    0  0.40031542838E+02  0.97896201453E+00 -0.34336844085E+01  0.40190458783E+02  0.00000000000E+00 0.  1.
         12    1    3    3    0    0 -0.24767925027E+02 -0.16864282285E+02  0.41235159009E+02  0.50972467722E+02  0.00000000000E+00 0. -1.
          1    1    1    2  501    0 -0.15263617811E+02  0.15885320271E+02  0.56991776828E+01  0.22755264337E+02  0.00000000000E+00 0. -1.
<mgrwt>
<rscale>  1 0.82956179E+02</rscale>
<asrwt>0</asrwt>
<pdfrwt beam="1">  1       21 0.54167338E-02 0.82956179E+02</pdfrwt>
<pdfrwt beam="2">  1        2 0.12109142E-01 0.82956179E+02</pdfrwt>
<totfact> 0.13171125E+06</totfact>
</mgrwt>
</event>
<event>
 6    2  0.8544106E+000  0.9449522E+02  0.7546771E-02  0.1292317E+00
         21   -1    0    0  501  502  0.00000000000E+00  0.00000000000E+00  0.18371375077E+04  0.18371375077E+04  0.00000000000E+00 0.  1.
          4   -1    0    0  502    0 -0.00000000000E+00 -0.00000000000E+00 -0.25197091096E+01  0.25197091096E+01  0.00000000000E+00 0. -1.
         24    2    1    2    0    0 -0.23642620402E+02 -0.33540804053E+02  0.12007612245E+04  0.12044736878E+04  0.85119840517E+02 0.  0.
        -13    1    3    3    0    0 -0.54752071822E+01 -0.19985634649E+02  0.11295897339E+04  0.11297797884E+04  0.00000000000E+00 0.  1.
         14    1    3    3    0    0 -0.18167413220E+02 -0.13555169404E+02  0.71171490601E+02  0.74693899316E+02  0.00000000000E+00 0. -1.
          3    1    1    2  501    0  0.23642620402E+02  0.33540804053E+02  0.63385657407E+03  0.63518352902E+03  0.00000000000E+00 0. -1.
<mgrwt>
<rscale>  1 0.94495218E+02</rscale>
<asrwt>0</asrwt>
<pdfrwt beam="1">  1       21 0.28263547E+00 0.94495218E+02</pdfrwt>
<pdfrwt beam="2">  1        4 0.38764902E-03 0.94495218E+02</pdfrwt>
<totfact> 0.22149109E+04</totfact>
</mgrwt>
</event>
<event>
 6    2  0.8544106E+000  0.8465538E+02  0.7546771E-02  0.1316336E+00
         -3   -1    0    0    0  501 -0.00000000000E+00  0.00000000000E+00  0.19147090584E+01  0.19147090584E+01  0.00000000000E+00 0.  1.
         21   -1    0    0  501  502  0.00000000000E+00 -0.00000000000E+00 -0.15856870401E+04  0.15856870401E+04  0.00000000000E+00 0.  1.
         24    2    1    2    0    0 -0.22016954183E+02 -0.11961629435E+02 -0.11553290341E+04  0.11584263939E+04  0.80862267127E+02 0.  0.
        -13    1    3    3    0    0 -0.26034422021E+02 -0.28864274589E+02 -0.25641988595E+03  0.25934936936E+03  0.00000000000E+00 0.  1.
         14    1    3    3    0    0  0.40174678382E+01  0.16902645154E+02 -0.89890914812E+03  0.89907702453E+03  0.00000000000E+00 0. -1.
         -4    1    1    2    0  502  0.22016954183E+02  0.11961629435E+02 -0.42844329699E+03  0.42917535529E+03  0.00000000000E+00 0.  1.
<mgrwt>
<rscale>  1 0.84655378E+02</rscale>
<asrwt>0</asrwt>
<pdfrwt beam="1">  1       21 0.24395282E+00 0.84655378E+02</pdfrwt>
<pdfrwt beam="2">  1       -3 0.29456946E-03 0.84655378E+02</pdfrwt>
<totfact> 0.58688311E+04</totfact>
</mgrwt>
</event>
<event>
 6    2  0.8544106E+000  0.8249492E+02  0.7546771E-02  0.1322117E+00
         21   -1    0    0  501  502  0.00000000000E+00  0.00000000000E+00  0.34834825593E+01  0.34834825593E+01  0.00000000000E+00 0. -1.
          2   -1    0    0  502    0 -0.00000000000E+00 -0.00000000000E+00 -0.11884662704E+04  0.11884662704E+04  0.00000000000E+00 0. -1.
         24    2    1    2    0    0  0.13792763312E+02  0.19376138510E+02 -0.11147665113E+04  0.11178147373E+04  0.78992006122E+02 0.  0.
        -11    1    3    3    0    0  0.20251529442E+02 -0.70221087617E+01 -0.84051695404E+02  0.86741696758E+02  0.00000000000E+00 0.  1.
         12    1    3    3    0    0 -0.64587661300E+01  0.26398247272E+02 -0.10307148159E+04  0.10310730405E+04  0.00000000000E+00 0. -1.
          1    1    1    2  501    0 -0.13792763312E+02 -0.19376138510E+02 -0.70216276563E+02  0.74135015732E+02  0.00000000000E+00 0. -1.
<mgrwt>
<rscale>  1 0.82494922E+02</rscale>
<asrwt>0</asrwt>
<pdfrwt beam="1">  1       21 0.53592014E-03 0.82494922E+02</pdfrwt>
<pdfrwt beam="2">  1        2 0.18284105E+00 0.82494922E+02</pdfrwt>
<totfact> 0.24282261E+06</totfact>
</mgrwt>
</event>
<event>
 6    2  0.8544106E+000  0.8379220E+02  0.7546771E-02  0.1318622E+00
         -1   -1    0    0    0  501 -0.00000000000E+00  0.00000000000E+00  0.56028113667E+03  0.56028113667E+03  0.00000000000E+00 0.  1.
         21   -1    0    0  501  502  0.00000000000E+00 -0.00000000000E+00 -0.72913039524E+01  0.72913039524E+01  0.00000000000E+00 0. -1.
         24    2    1    2    0    0  0.24083004397E+02  0.64383078662E+01  0.51727654792E+03  0.52401923614E+03  0.79998061947E+02 0.  0.
        -11    1    3    3    0    0  0.17399123301E+02 -0.30725092520E+02  0.38023046394E+03  0.38186642496E+03  0.00000000000E+00 0.  1.
         12    1    3    3    0    0  0.66838810965E+01  0.37163400386E+02  0.13704608398E+03  0.14215281118E+03  0.00000000000E+00 0. -1.
         -2    1    1    2    0  502 -0.24083004397E+02 -0.64383078662E+01  0.35713284796E+02  0.43553204473E+02  0.00000000000E+00 0.  1.
<mgrwt>
<rscale>  1 0.83792200E+02</rscale>
<asrwt>0</asrwt>
<pdfrwt beam="1">  1       21 0.11217395E-02 0.83792200E+02</pdfrwt>
<pdfrwt beam="2">  1       -1 0.86197064E-01 0.83792200E+02</pdfrwt>
<totfact> 0.38098279E+05</totfact>
</mgrwt>
</event>
<event>
 6    2  0.8544106E+000  0.1072822E+03  0.7546771E-02  0.1265687E+00
         21   -1    0    0  501  502  0.00000000000E+00  0.00000000000E+00  0.69238969846E+01  0.69238969846E+01  0.00000000000E+00 0. -1.
          2   -1    0    0  502    0 -0.00000000000E+00 -0.00000000000E+00 -0.12122626287E+04  0.12122626287E+04  0.00000000000E+00 0. -1.
         24    2    1    2    0    0  0.25561447264E+02 -0.65083820545E+02 -0.56969585141E+03  0.57970926842E+03  0.81364497717E+02 0.  0.
        -13    1    3    3    0    0 -0.21551198449E+02 -0.50113126846E+02 -0.22678551131E+03  0.23325404129E+03  0.00000000000E+00 0.  1.
         14    1    3    3    0    0  0.47112645713E+02 -0.14970693699E+02 -0.34291034010E+03  0.34645522713E+03  0.00000000000E+00 0. -1.
          1    1    1    2  501    0 -0.25561447264E+02  0.65083820545E+02 -0.63564288027E+03  0.63947725723E+03  0.00000000000E+00 0. -1.
<mgrwt>
<rscale>  1 0.10728221E+03</rscale>
<asrwt>0</asrwt>
<pdfrwt beam="1">  1       21 0.10652136E-02 0.10728221E+03</pdfrwt>
<pdfrwt beam="2">  1        2 0.18650217E+00 0.10728221E+03</pdfrwt>
<totfact> 0.82873424E+05</totfact>
</mgrwt>
</event>
<event>
 6    2  0.8544106E+000  0.1009510E+03  0.7546771E-02  0.1278309E+00
         21   -1    0    0  501  502  0.00000000000E+00  0.00000000000E+00  0.42244475365E+03  0.42244475365E+03  0.00000000000E+00 0.  1.
         -1   -1    0    0    0  501 -0.00000000000E+00 -0.00000000000E+00 -0.11394463462E+03  0.11394463462E+03  0.00000000000E+00 0.  1.
         24    2    1    2    0    0 -0.36805764843E+02  0.92347150338E+01 -0.90506645457E+02  0.13558227456E+03  0.93547613630E+02 0.  0.
        -13    1    3    3    0    0 -0.13108011210E+02  0.20865140622E+02 -0.10333506598E+03  0.10623233930E+03  0.00000000000E+00 0.  1.
         14    1    3    3    0    0 -0.23697753633E+02 -0.11630425588E+02  0.12828420528E+02  0.29349935261E+02  0.00000000000E+00 0. -1.
         -2    1    1    2    0  502  0.36805764843E+02 -0.92347150338E+01  0.39900676449E+03  0.40080711371E+03  0.00000000000E+00 0.  1.
<mgrwt>
<rscale>  1 0.10095098E+03</rscale>
<asrwt>0</asrwt>
<pdfrwt beam="1">  1       21 0.64991500E-01 0.10095098E+03</pdfrwt>
<pdfrwt beam="2">  1       -1 0.17529944E-01 0.10095098E+03</pdfrwt>
<totfact> 0.50295336E+03</totfact>
</mgrwt>
</event>
<event>
 6    2  0.8544106E+000  0.8618335E+02  0.7546771E-02  0.1312367E+00
         -3   -1    0    0    0  501 -0.00000000000E+00  0.00000000000E+00  0.12819998549E+03  0.12819998549E+03  0.00000000000E+00 0.  1.
         21   -1    0    0  501  502  0.00000000000E+00 -0.00000000000E+00 -0.24773549525E+02  0.24773549525E+02  0.00000000000E+00 0. -1.
         24    2    1    2    0    0 -0.19325622108E+02 -0.15769685213E+02  0.68685266942E+02  0.11020542228E+03  0.82494888108E+02 0.  0.
        -13    1    3    3    0    0  0.22053308634E+02 -0.12871585600E+02  0.63450839576E+02  0.68396163492E+02  0.00000000000E+00 0.  1.
         14    1    3    3    0    0 -0.41378930742E+02 -0.28980996131E+01  0.52344273660E+01  0.41809258790E+02  0.00000000000E+00 0. -1.
         -4    1    1    2    0  502  0.19325622108E+02  0.15769685213E+02  0.34741169020E+02  0.42768112730E+02  0.00000000000E+00 0.  1.
<mgrwt>
<rscale>  1 0.86183346E+02</rscale>
<asrwt>0</asrwt>
<pdfrwt beam="1">  1       21 0.38113154E-02 0.86183346E+02</pdfrwt>
<pdfrwt beam="2">  1       -3 0.19723074E-01 0.86183346E+02</pdfrwt>
<totfact> 0.42648688E+05</totfact>
</mgrwt>
</event>
<event>
 6    2  0.8544106E+000  0.9785929E+02  0.7546771E-02  0.1284863E+00
         21   -1    0    0  501  502  0.00000000000E+00  0.00000000000E+00  0.10893825079E+03  0.10893825079E+03  0.00000000000E+00 0.  1.
         -1   -1    0    0    0  501 -0.00000000000E+00 -0.00000000000E+00 -0.22298208766E+03  0.22298208766E+03  0.00000000000E+00 0.  1.
         24    2    1    2    0    0  0.50740308264E+02 -0.29439839651E+02 -0.20300384622E+03  0.22535971577E+03  0.78327242197E+02 0.  0.
        -11    1    3    3    0    0  0.46452926287E+02 -0.47495919666E+02 -0.19334033729E+03  0.20443635384E+03  0.00000000000E+00 0.  1.
         12    1    3    3    0    0  0.42873819775E+01  0.18056080016E+02 -0.96635089259E+01  0.20923361932E+02  0.00000000000E+00 0. -1.
         -2    1    1    2    0  502 -0.50740308264E+02  0.29439839651E+02  0.88960009356E+02  0.10656062268E+03  0.00000000000E+00 0.  1.
<mgrwt>
<rscale>  1 0.97859286E+02</rscale>
<asrwt>0</asrwt>
<pdfrwt beam="1">  1       21 0.16759731E-01 0.97859286E+02</pdfrwt>
<pdfrwt beam="2">  1       -1 0.34304936E-01 0.97859286E+02</pdfrwt>
<totfact> 0.23607627E+04</totfact>
</mgrwt>
</event>
<event>
 6    2  0.8544106E+000  0.9081055E+02  0.7546771E-02  0.1300901E+00
         21   -1    0    0  501  502  0.00000000000E+00  0.00000000000E+00  0.90048298378E+03  0.90048298378E+03  0.00000000000E+00 0. -1.
         -1   -1    0    0    0  501 -0.00000000000E+00 -0.00000000000E+00 -0.49598041177E+01  0.49598041177E+01  0.00000000000E+00 0.  1.
         24    2    1    2    0    0 -0.95787561912E-02 -0.32896575277E+02  0.47283164242E+03  0.48147307152E+03  0.84642611964E+02 0.  0.
        -13    1    3    3    0    0  0.25298611019E+02 -0.28809109236E+02  0.90546496442E+02  0.98329306478E+02  0.00000000000E+00 0.  1.
         14    1    3    3    0    0 -0.25308189776E+02 -0.40874660401E+01  0.38228514598E+03  0.38314376504E+03  0.00000000000E+00 0. -1.
         -2    1    1    2    0  502  0.95787561912E-02  0.32896575277E+02  0.42269153724E+03  0.42396971639E+03  0.00000000000E+00 0.  1.
<mgrwt>
<rscale>  1 0.90810553E+02</rscale>
<asrwt>0</asrwt>
<pdfrwt beam="1">  1       21 0.13853571E+00 0.90810553E+02</pdfrwt>
<pdfrwt beam="2">  1       -1 0.76304750E-03 0.90810553E+02</pdfrwt>
<totfact> 0.86450284E+04</totfact>
</mgrwt>
</event>
<event>
 6    2  0.8544106E+000  0.8309531E+02  0.7546771E-02  0.1320490E+00
          2   -1    0    0  502    0 -0.00000000000E+00  0.00000000000E+00  0.35215106273E+04  0.35215106273E+04  0.00000000000E+00 0. -1.
         21   -1    0    0  501  502  0.00000000000E+00 -0.00000000000E+00 -0.13209150960E+01  0.13209150960E+01  0.00000000000E+00 0. -1.
         24    2    1    2    0    0  0.17738467464E+02  0.10067733792E+02  0.33929554014E+04  0.33939727735E+04  0.80553202614E+02 0.  0.
        -11    1    3    3    0    0 -0.27505359769E+01  0.19700878949E+01  0.55789212432E+01  0.65246499302E+01  0.00000000000E+00 0.  1.
         12    1    3    3    0    0  0.20489003441E+02  0.80976458968E+01  0.33873764802E+04  0.33874481235E+04  0.00000000000E+00 0. -1.
          1    1    1    2  501    0 -0.17738467464E+02 -0.10067733792E+02  0.12723431076E+03  0.12885876892E+03  0.00000000000E+00 0. -1.
<mgrwt>
<rscale>  1 0.83095312E+02</rscale>
<asrwt>0</asrwt>
<pdfrwt beam="1">  1       21 0.20322053E-03 0.83095312E+02</pdfrwt>
<pdfrwt beam="2">  1        2 0.54176335E+00 0.83095312E+02</pdfrwt>
<totfact> 0.58851884E+05</totfact>
</mgrwt>
</event>
<event>
 6    2  0.8544106E+000  0.8997103E+02  0.7546771E-02  0.1302922E+00
          2   -1    0    0  502    0 -0.00000000000E+00  0.00000000000E+00  0.13804452558E+04  0.13804452558E+04  0.00000000000E+00 0. -1.
         21   -1    0    0  501  502  0.00000000000E+00 -0.00000000000E+00 -0.73542863765E+01  0.73542863765E+01  0.00000000000E+00 0. -1.
         24    2    1    2    0    0 -0.25988024194E+02  0.31957989997E+01  0.13496816078E+04  0.13526770602E+04  0.86076687070E+02 0.  0.
        -13    1    3    3    0    0 -0.10294295993E+02 -0.43249085576E+01  0.20192889569E+02  0.23074448057E+02  0.00000000000E+00 0.  1.
         14    1    3    3    0    0 -0.15693728202E+02  0.75207075573E+01  0.13294887183E+04  0.13296026121E+04  0.00000000000E+00 0. -1.
          1    1    1    2  501    0  0.25988024194E+02 -0.31957989997E+01  0.23409361617E+02  0.35122482032E+02  0.00000000000E+00 0. -1.
<mgrwt>
<rscale>  1 0.89971032E+02</rscale>
<asrwt>0</asrwt>
<pdfrwt beam="1">  1       21 0.11314298E-02 0.89971032E+02</pdfrwt>
<pdfrwt beam="2">  1        2 0.21237599E+00 0.89971032E+02</pdfrwt>
<totfact> 0.60738302E+05</totfact>
</mgrwt>
</event>
<event>
 6    2  0.8544106E+000  0.8231884E+02  0.7546771E-02  0.1322597E+00
          2   -1    0    0  502    0 -0.00000000000E+00  0.00000000000E+00  0.27350645352E+03  0.27350645352E+03  0.00000000000E+00 0. -1.
         21   -1    0    0  501  502  0.00000000000E+00 -0.00000000000E+00 -0.35848440174E+02  0.35848440174E+02  0.00000000000E+00 0. -1.
         24    2    1    2    0    0 -0.18434282875E+02  0.10381950945E+02  0.26344092474E+03  0.27600273919E+03  0.79553651816E+02 0.  0.
        -11    1    3    3    0    0 -0.27208110289E+02 -0.25978509960E+02  0.75233179343E+02  0.84114181439E+02  0.00000000000E+00 0.  1.
         12    1    3    3    0    0  0.87738274143E+01  0.36360460905E+02  0.18820774540E+03  0.19188855775E+03  0.00000000000E+00 0. -1.
          1    1    1    2  501    0  0.18434282875E+02 -0.10381950945E+02 -0.25782911395E+02  0.33352154511E+02  0.00000000000E+00 0. -1.
<mgrwt>
<rscale>  1 0.82318839E+02</rscale>
<asrwt>0</asrwt>
<pdfrwt beam="1">  1       21 0.55151448E-02 0.82318839E+02</pdfrwt>
<pdfrwt beam="2">  1        2 0.42077915E-01 0.82318839E+02</pdfrwt>
<totfact> 0.32337581E+05</totfact>
</mgrwt>
</event>
<event>
 6    2  0.8544106E+000  0.1047566E+03  0.7546771E-02  0.1270600E+00
         21   -1    0    0  501  502  0.00000000000E+00  0.00000000000E+00  0.41838162042E+01  0.41838162042E+01  0.00000000000E+00 0.  1.
          2   -1    0    0  502    0 -0.00000000000E+00 -0.00000000000E+00 -0.11184800693E+04  0.11184800693E+04  0.00000000000E+00 0. -1.
         24    2    1    2    0    0 -0.20803252775E+02 -0.68463635669E+01 -0.10384066763E+04  0.10436773304E+04  0.10244167410E+03 0.  0.
        -13    1    3    3    0    0  0.18993247713E+02  0.16785943487E+02 -0.75158190091E+02  0.79317494257E+02  0.00000000000E+00 0.  1.
         14    1    3    3    0    0 -0.39796500488E+02 -0.23632307054E+02 -0.96324848623E+03  0.96435983617E+03  0.00000000000E+00 0. -1.
          1    1    1    2  501    0  0.20803252775E+02  0.68463635669E+01 -0.75889576726E+02  0.78986555032E+02  0.00000000000E+00 0. -1.
<mgrwt>
<rscale>  1 0.10475660E+03</rscale>
<asrwt>0</asrwt>
<pdfrwt beam="1">  1       21 0.64366467E-03 0.10475660E+03</pdfrwt>
<pdfrwt beam="2">  1        2 0.17207369E+00 0.10475660E+03</pdfrwt>
<totfact> 0.20456365E+06</totfact>
</mgrwt>
</event>
<event>
 6    2  0.8544106E+000  0.8234034E+02  0.7546771E-02  0.1322538E+00
         21   -1    0    0  501  502  0.00000000000E+00  0.00000000000E+00  0.16512790601E+01  0.16512790601E+01  0.00000000000E+00 0. -1.
          2   -1    0    0  502    0 -0.00000000000E+00 -0.00000000000E+00 -0.16931162772E+04  0.16931162772E+04  0.00000000000E+00 0. -1.
         24    2    1    2    0    0 -0.19530185386E+02  0.93836851108E+01 -0.14484485462E+04  0.14507870701E+04  0.79438342428E+02 0.  0.
        -13    1    3    3    0    0  0.87026125500E+01 -0.14967291496E+02 -0.80968979739E+02  0.82799341543E+02  0.00000000000E+00 0.  1.
         14    1    3    3    0    0 -0.28232797936E+02  0.24350976607E+02 -0.13674795664E+04  0.13679877286E+04  0.00000000000E+00 0. -1.
          1    1    1    2  501    0  0.19530185386E+02 -0.93836851108E+01 -0.24301645198E+03  0.24398048614E+03  0.00000000000E+00 0. -1.
<mgrwt>
<rscale>  1 0.82340342E+02</rscale>
<asrwt>0</asrwt>
<pdfrwt beam="1">  1       21 0.25404237E-03 0.82340342E+02</pdfrwt>
<pdfrwt beam="2">  1        2 0.26048001E+00 0.82340342E+02</pdfrwt>
<totfact> 0.41400465E+06</totfact>
</mgrwt>
</event>
<event>
 6    2  0.8544106E+000  0.8107019E+02  0.7546771E-02  0.1326042E+00
          2   -1    0    0  502    0 -0.00000000000E+00  0.00000000000E+00  0.47943025829E+03  0.47943025829E+03  0.00000000000E+00 0. -1.
         21   -1    0    0  501  502  0.00000000000E+00 -0.00000000000E+00 -0.55312147782E+01  0.55312147782E+01  0.00000000000E+00 0.  1.
         24    2    1    2    0    0 -0.19355585673E+02 -0.52885743288E+01  0.41169953168E+03  0.41960562415E+03  0.78547868980E+02 0.  0.
        -13    1    3    3    0    0 -0.22252571150E+02 -0.38517127500E+02  0.17488212216E+03  0.18045083176E+03  0.00000000000E+00 0.  1.
         14    1    3    3    0    0  0.28969854776E+01  0.33228553172E+02  0.23681740952E+03  0.23915479239E+03  0.00000000000E+00 0. -1.
          1    1    1    2  501    0  0.19355585673E+02  0.52885743288E+01  0.62199511836E+02  0.65355848918E+02  0.00000000000E+00 0. -1.
<mgrwt>
<rscale>  1 0.81070188E+02</rscale>
<asrwt>0</asrwt>
<pdfrwt beam="1">  1       21 0.85095650E-03 0.81070188E+02</pdfrwt>
<pdfrwt beam="2">  1        2 0.73758469E-01 0.81070188E+02</pdfrwt>
<totfact> 0.35906690E+06</totfact>
</mgrwt>
</event>
<event>
 6    2  0.8544106E+000  0.8346349E+02  0.7546771E-02  0.1319500E+00
         21   -1    0    0  501  502  0.00000000000E+00  0.00000000000E+00  0.81838160814E+01  0.81838160814E+01  0.00000000000E+00 0.  1.
          2   -1    0    0  502    0 -0.00000000000E+00 -0.00000000000E+00 -0.41338154832E+03  0.41338154832E+03  0.00000000000E+00 0. -1.
         24    2    1    2    0    0 -0.18177235344E+02  0.13636645364E+02 -0.22575575417E+03  0.24069028742E+03  0.80310546839E+02 0.  0.
        -13    1    3    3    0    0  0.19883409497E+02 -0.29321158354E+01 -0.13030886408E+02  0.23953105792E+02  0.00000000000E+00 0.  1.
         14    1    3    3    0    0 -0.38060644842E+02  0.16568761199E+02 -0.21272486776E+03  0.21673718162E+03  0.00000000000E+00 0. -1.
          1    1    1    2  501    0  0.18177235344E+02 -0.13636645364E+02 -0.17944197806E+03  0.18087507698E+03  0.00000000000E+00 0. -1.
<mgrwt>
<rscale>  1 0.83463489E+02</rscale>
<asrwt>0</asrwt>
<pdfrwt beam="1">  1       21 0.12590487E-02 0.83463489E+02</pdfrwt>
<pdfrwt beam="2">  1        2 0.63597155E-01 0.83463489E+02</pdfrwt>
<totfact> 0.22878430E+06</totfact>
</mgrwt>
</event>
<event>
 6    2  0.8544106E+000  0.8547318E+02  0.7546771E-02  0.1314200E+00
         -1   -1    0    0    0  501 -0.00000000000E+00  0.00000000000E+00  0.92470098310E+01  0.92470098310E+01  0.00000000000E+00 0.  1.
         21   -1    0    0  501  502  0.00000000000E+00 -0.00000000000E+00 -0.43749888898E+03  0.43749888898E+03  0.00000000000E+00 0.  1.
         24    2    1    2    0    0 -0.18808539155E+02  0.18676005582E+02 -0.20759037331E+03  0.22449816657E+03  0.81259518644E+02 0.  0.
        -11    1    3    3    0    0 -0.17512926091E+02  0.30722146294E+02 -0.29657320550E+02  0.46153109488E+02  0.00000000000E+00 0.  1.
         12    1    3    3    0    0 -0.12956130638E+01 -0.12046140712E+02 -0.17793305276E+03  0.17834505708E+03  0.00000000000E+00 0. -1.
         -2    1    1    2    0  502  0.18808539155E+02 -0.18676005582E+02 -0.22066150584E+03  0.22224773224E+03  0.00000000000E+00 0.  1.
<mgrwt>
<rscale>  1 0.85473175E+02</rscale>
<asrwt>0</asrwt>
<pdfrwt beam="1">  1       21 0.67307498E-01 0.85473175E+02</pdfrwt>
<pdfrwt beam="2">  1       -1 0.14226174E-02 0.85473175E+02</pdfrwt>
<totfact> 0.18819320E+05</totfact>
</mgrwt>
</event>
<event>
 6    2  0.8544106E+000  0.8467516E+02  0.7546771E-02  0.1316284E+00
          2   -1    0    0  502    0 -0.00000000000E+00  0.00000000000E+00  0.20477864267E+04  0.20477864267E+04  0.00000000000E+00 0. -1.
         21   -1    0    0  501  502  0.00000000000E+00 -0.00000000000E+00 -0.49457301812E+01  0.49457301812E+01  0.00000000000E+00 0. -1.
         24    2    1    2    0    0  0.22301296877E+02  0.16574101232E+02  0.19992276288E+04  0.20010199886E+04  0.79986463386E+02 0.  0.
        -13    1    3    3    0    0 -0.19631169731E+02 -0.20560132231E+02  0.74554366785E+03  0.74608542576E+03  0.00000000000E+00 0.  1.
         14    1    3    3    0    0  0.41932466608E+02  0.37134233463E+02  0.12536839609E+04  0.12549345628E+04  0.00000000000E+00 0. -1.
          1    1    1    2  501    0 -0.22301296877E+02 -0.16574101232E+02  0.43613067783E+02  0.51712168351E+02  0.00000000000E+00 0. -1.
<mgrwt>
<rscale>  1 0.84675162E+02</rscale>
<asrwt>0</asrwt>
<pdfrwt beam="1">  1       21 0.76088320E-03 0.84675162E+02</pdfrwt>
<pdfrwt beam="2">  1        2 0.31504339E+00 0.84675162E+02</pdfrwt>
<totfact> 0.51765156E+05</totfact>
</mgrwt>
</event>
<event>
 6    2  0.8544106E+000  0.1026391E+03  0.7546771E-02  0.1274842E+00
          4   -1    0    0  502    0 -0.00000000000E+00  0.00000000000E+00  0.26388143326E+02  0.26388143326E+02  0.00000000000E+00 0. -1.
         21   -1    0    0  501  502  0.00000000000E+00 -0.00000000000E+00 -0.86622865426E+03  0.86622865426E+03  0.00000000000E+00 0. -1.
         24    2    1    2    0    0  0.11995262841E+02  0.62723845003E+02 -0.80095118357E+02  0.13019222518E+03  0.80353098577E+02 0.  0.
        -11    1    3    3    0    0  0.69805872258E+01 -0.77294349225E+01 -0.53841044861E+02  0.54839136335E+02  0.00000000000E+00 0.  1.
         12    1    3    3    0    0  0.50146756148E+01  0.70453279926E+02 -0.26254073496E+02  0.75353088848E+02  0.00000000000E+00 0. -1.
          3    1    1    2  501    0 -0.11995262841E+02 -0.62723845003E+02 -0.75974539257E+03  0.76242457240E+03  0.00000000000E+00 0. -1.
<mgrwt>
<rscale>  1 0.10263911E+03</rscale>
<asrwt>0</asrwt>
<pdfrwt beam="1">  1       21 0.13326594E+00 0.10263911E+03</pdfrwt>
<pdfrwt beam="2">  1        4 0.40597144E-02 0.10263911E+03</pdfrwt>
<totfact> 0.55833719E+03</totfact>
</mgrwt>
</event>
<event>
 6    2  0.8544106E+000  0.8324091E+02  0.7546771E-02  0.1320098E+00
         -1   -1    0    0    0  501 -0.00000000000E+00  0.00000000000E+00  0.22327471228E+03  0.22327471228E+03  0.00000000000E+00 0.  1.
         21   -1    0    0  501  502  0.00000000000E+00 -0.00000000000E+00 -0.12313106798E+02  0.12313106798E+02  0.00000000000E+00 0. -1.
         24    2    1    2    0    0 -0.13149790258E+02  0.16238557723E+02  0.17890962370E+03  0.19732638579E+03  0.80575687011E+02 0.  0.
        -11    1    3    3    0    0  0.17147873593E+01  0.33178608913E+02  0.16979698117E+03  0.17301669110E+03  0.00000000000E+00 0.  1.
         12    1    3    3    0    0 -0.14864577618E+02 -0.16940051190E+02  0.91126425260E+01  0.24309694689E+02  0.00000000000E+00 0. -1.
         -2    1    1    2    0  502  0.13149790258E+02 -0.16238557723E+02  0.32051981783E+02  0.38261433285E+02  0.00000000000E+00 0.  1.
<mgrwt>
<rscale>  1 0.83240910E+02</rscale>
<asrwt>0</asrwt>
<pdfrwt beam="1">  1       21 0.18943243E-02 0.83240910E+02</pdfrwt>
<pdfrwt beam="2">  1       -1 0.34349953E-01 0.83240910E+02</pdfrwt>
<totfact> 0.91205358E+05</totfact>
</mgrwt>
</event>
<event>
 6    2  0.8544106E+000  0.8521030E+02  0.7546771E-02  0.1314884E+00
         21   -1    0    0  501  502  0.00000000000E+00  0.00000000000E+00  0.28720971993E+01  0.28720971993E+01  0.00000000000E+00 0. -1.
          2   -1    0    0  502    0 -0.00000000000E+00 -0.00000000000E+00 -0.12083564313E+04  0.12083564313E+04  0.00000000000E+00 0. -1.
         24    2    1    2    0    0 -0.31229788061E+02  0.10691075305E+01 -0.95727672544E+03  0.96106166489E+03  0.79273904853E+02 0.  0.
        -13    1    3    3    0    0  0.85390907462E+01 -0.15559445729E+02 -0.55794329367E+02  0.58549292153E+02  0.00000000000E+00 0.  1.
         14    1    3    3    0    0 -0.39768878807E+02  0.16628553260E+02 -0.90148239608E+03  0.90251237273E+03  0.00000000000E+00 0. -1.
          1    1    1    2  501    0  0.31229788061E+02 -0.10691075305E+01 -0.24820760869E+03  0.25016686364E+03  0.00000000000E+00 0. -1.
<mgrwt>
<rscale>  1 0.85210297E+02</rscale>
<asrwt>0</asrwt>
<pdfrwt beam="1">  1       21 0.44186136E-03 0.85210297E+02</pdfrwt>
<pdfrwt beam="2">  1        2 0.18590088E+00 0.85210297E+02</pdfrwt>
<totfact> 0.31919398E+06</totfact>
</mgrwt>
</event>
<event>
 6    2  0.8544106E+000  0.8237689E+02  0.7546771E-02  0.1322438E+00
         21   -1    0    0  501  502  0.00000000000E+00  0.00000000000E+00  0.93437998123E+01  0.93437998123E+01  0.00000000000E+00 0. -1.
         -1   -1    0    0    0  501 -0.00000000000E+00 -0.00000000000E+00 -0.29580067342E+03  0.29580067342E+03  0.00000000000E+00 0.  1.
         24    2    1    2    0    0  0.21777767974E+02 -0.11882865805E+01 -0.20817724272E+03  0.22388326591E+03  0.79437202663E+02 0.  0.
        -13    1    3    3    0    0 -0.16020422364E+02  0.20040412758E+02 -0.14506363727E+03  0.14731507369E+03  0.00000000000E+00 0.  1.
         14    1    3    3    0    0  0.37798190338E+02 -0.21228699339E+02 -0.63113605444E+02  0.76568192225E+02  0.00000000000E+00 0. -1.
         -2    1    1    2    0  502 -0.21777767974E+02  0.11882865805E+01 -0.78279630893E+02  0.81261207323E+02  0.00000000000E+00 0.  1.
<mgrwt>
<rscale>  1 0.82376892E+02</rscale>
<asrwt>0</asrwt>
<pdfrwt beam="1">  1       21 0.14375076E-02 0.82376892E+02</pdfrwt>
<pdfrwt beam="2">  1       -1 0.45507797E-01 0.82376892E+02</pdfrwt>
<totfact> 0.86783878E+05</totfact>
</mgrwt>
</event>
<event>
 6    2  0.8544106E+000  0.8390700E+02  0.7546771E-02  0.1318316E+00
          2   -1    0    0  502    0 -0.00000000000E+00  0.00000000000E+00  0.15498518661E+03  0.15498518661E+03  0.00000000000E+00 0. -1.
         21   -1    0    0  501  502  0.00000000000E+00 -0.00000000000E+00 -0.19564036192E+02  0.19564036192E+02  0.00000000000E+00 0.  1.
         24    2    1    2    0    0  0.71949054211E+01  0.21390427774E+02  0.85653847388E+02  0.11990398957E+03  0.80815023834E+02 0.  0.
        -11    1    3    3    0    0  0.21707712314E+02  0.47678761540E+02  0.43192353911E+02  0.67897485316E+02  0.00000000000E+00 0.  1.
         12    1    3    3    0    0 -0.14512806893E+02 -0.26288333766E+02  0.42461493477E+02  0.52006504251E+02  0.00000000000E+00 0. -1.
          1    1    1    2  501    0 -0.71949054211E+01 -0.21390427774E+02  0.49767303026E+02  0.54645233231E+02  0.00000000000E+00 0. -1.
<mgrwt>
<rscale>  1 0.83907003E+02</rscale>
<asrwt>0</asrwt>
<pdfrwt beam="1">  1       21 0.30098518E-02 0.83907003E+02</pdfrwt>
<pdfrwt beam="2">  1        2 0.23843874E-01 0.83907003E+02</pdfrwt>
<totfact> 0.16048366E+06</totfact>
</mgrwt>
</event>
<event>
 6    2  0.8544106E+000  0.1214536E+03  0.7546771E-02  0.1240718E+00
         -1   -1    0    0    0  501 -0.00000000000E+00  0.00000000000E+00  0.25224241947E+02  0.25224241947E+02  0.00000000000E+00 0.  1.
         21   -1    0    0  501  502  0.00000000000E+00 -0.00000000000E+00 -0.48886504180E+03  0.48886504180E+03  0.00000000000E+00 0.  1.
         24    2    1    2    0    0 -0.73359316657E+02 -0.52865781278E+02 -0.18641552146E+03  0.22248984076E+03  0.81083922137E+02 0.  0.
        -13    1    3    3    0    0 -0.72900736642E+02 -0.71189705605E+02 -0.14523180630E+03  0.17741129938E+03  0.00000000000E+00 0.  1.
         14    1    3    3    0    0 -0.45858001516E+00  0.18323924327E+02 -0.41183715158E+02  0.45078541376E+02  0.00000000000E+00 0. -1.
         -2    1    1    2    0  502  0.73359316657E+02  0.52865781278E+02 -0.27722527839E+03  0.29159944299E+03  0.00000000000E+00 0.  1.
<mgrwt>
<rscale>  1 0.12145362E+03</rscale>
<asrwt>0</asrwt>
<pdfrwt beam="1">  1       21 0.75210008E-01 0.12145362E+03</pdfrwt>
<pdfrwt beam="2">  1       -1 0.38806525E-02 0.12145362E+03</pdfrwt>
<totfact> 0.35580054E+04</totfact>
</mgrwt>
</event>
<event>
 6    2  0.8544106E+000  0.9425959E+02  0.7546771E-02  0.1292852E+00
          2   -1    0    0  502    0 -0.00000000000E+00  0.00000000000E+00  0.31928287883E+04  0.31928287883E+04  0.00000000000E+00 0. -1.
         21   -1    0    0  501  502  0.00000000000E+00 -0.00000000000E+00 -0.15655271785E+01  0.15655271785E+01  0.00000000000E+00 0.  1.
         24    2    1    2    0    0 -0.41514565625E+01 -0.46148966210E+02  0.19732761302E+04  0.19755261467E+04  0.82084765713E+02 0.  0.
        -13    1    3    3    0    0 -0.14516855900E+02 -0.18394755121E+02  0.13550460701E+03  0.13751583415E+03  0.00000000000E+00 0.  1.
         14    1    3    3    0    0  0.10365399338E+02 -0.27754211089E+02  0.18377715232E+04  0.18380103126E+04  0.00000000000E+00 0. -1.
          1    1    1    2  501    0  0.41514565625E+01  0.46148966210E+02  0.12179871309E+04  0.12188681687E+04  0.00000000000E+00 0. -1.
<mgrwt>
<rscale>  1 0.94259591E+02</rscale>
<asrwt>0</asrwt>
<pdfrwt beam="1">  1       21 0.24085289E-03 0.94259591E+02</pdfrwt>
<pdfrwt beam="2">  1        2 0.49119922E+00 0.94259591E+02</pdfrwt>
<totfact> 0.72684176E+05</totfact>
</mgrwt>
</event>
<event>
 6    2  0.8544106E+000  0.7983118E+02  0.7546771E-02  0.1329531E+00
          2   -1    0    0  502    0 -0.00000000000E+00  0.00000000000E+00  0.28864105227E+03  0.28864105227E+03  0.00000000000E+00 0. -1.
         21   -1    0    0  501  502  0.00000000000E+00 -0.00000000000E+00 -0.12902089618E+02  0.12902089618E+02  0.00000000000E+00 0.  1.
         24    2    1    2    0    0 -0.56863424023E+01 -0.19830362581E+02  0.26778849430E+03  0.27943459791E+03  0.77119641204E+02 0.  0.
        -13    1    3    3    0    0 -0.15535108306E+02 -0.40752538944E+02  0.88519756317E+02  0.98680577010E+02  0.00000000000E+00 0.  1.
         14    1    3    3    0    0  0.98487659040E+01  0.20922176363E+02  0.17926873798E+03  0.18075402090E+03  0.00000000000E+00 0. -1.
          1    1    1    2  501    0  0.56863424023E+01  0.19830362581E+02  0.79504683575E+01  0.22108543985E+02  0.00000000000E+00 0. -1.
<mgrwt>
<rscale>  1 0.79831177E+02</rscale>
<asrwt>0</asrwt>
<pdfrwt beam="1">  1       21 0.19849371E-02 0.79831177E+02</pdfrwt>
<pdfrwt beam="2">  1        2 0.44406311E-01 0.79831177E+02</pdfrwt>
<totfact> 0.16105849E+06</totfact>
</mgrwt>
</event>
<event>
 6    2  0.8544106E+000  0.8353966E+02  0.7546771E-02  0.1319296E+00
          2   -1    0    0  502    0 -0.00000000000E+00  0.00000000000E+00  0.83144235781E+03  0.83144235781E+03  0.00000000000E+00 0. -1.
         21   -1    0    0  501  502  0.00000000000E+00 -0.00000000000E+00 -0.37192360459E+01  0.37192360459E+01  0.00000000000E+00 0.  1.
         24    2    1    2    0    0 -0.20552350317E+02 -0.81908413546E+01  0.73962333968E+03  0.74432624507E+03  0.80556722354E+02 0.  0.
        -11    1    3    3    0    0  0.16377643532E+02 -0.34203838788E+02  0.37611269475E+03  0.37801969387E+03  0.00000000000E+00 0.  1.
         12    1    3    3    0    0 -0.36929993848E+02  0.26012997433E+02  0.36351064492E+03  0.36630655120E+03  0.00000000000E+00 0. -1.
          1    1    1    2  501    0  0.20552350317E+02  0.81908413546E+01  0.88099782086E+02  0.90835348787E+02  0.00000000000E+00 0. -1.
<mgrwt>
<rscale>  1 0.83539658E+02</rscale>
<asrwt>0</asrwt>
<pdfrwt beam="1">  1       21 0.57219083E-03 0.83539658E+02</pdfrwt>
<pdfrwt beam="2">  1        2 0.12791406E+00 0.83539658E+02</pdfrwt>
<totfact> 0.35576266E+06</totfact>
</mgrwt>
</event>
<event>
 6    2  0.8544106E+000  0.8664157E+02  0.7546771E-02  0.1311195E+00
         21   -1    0    0  501  502  0.00000000000E+00  0.00000000000E+00  0.60848560353E+02  0.60848560353E+02  0.00000000000E+00 0. -1.
         -3   -1    0    0    0  501 -0.00000000000E+00 -0.00000000000E+00 -0.67566354296E+02  0.67566354296E+02  0.00000000000E+00 0.  1.
         24    2    1    2    0    0  0.88348294929E+01  0.24929151277E+02 -0.31480667117E+02  0.92183482392E+02  0.82506031466E+02 0.  0.
        -11    1    3    3    0    0  0.13105411505E+01  0.28569867030E+01 -0.57303477466E+02  0.57389619452E+02  0.00000000000E+00 0.  1.
         12    1    3    3    0    0  0.75242883425E+01  0.22072164574E+02  0.25822810348E+02  0.34793862941E+02  0.00000000000E+00 0. -1.
         -4    1    1    2    0  502 -0.88348294929E+01 -0.24929151277E+02  0.24762873174E+02  0.36231432257E+02  0.00000000000E+00 0.  1.
<mgrwt>
<rscale>  1 0.86641572E+02</rscale>
<asrwt>0</asrwt>
<pdfrwt beam="1">  1       21 0.93613170E-02 0.86641572E+02</pdfrwt>
<pdfrwt beam="2">  1       -3 0.10394824E-01 0.86641572E+02</pdfrwt>
<totfact> 0.27801639E+05</totfact>
</mgrwt>
</event>
<event>
 6    2  0.8544106E+000  0.8566581E+02  0.7546771E-02  0.1313701E+00
         21   -1    0    0  501  502  0.00000000000E+00  0.00000000000E+00  0.88945497616E+03  0.88945497616E+03  0.00000000000E+00 0. -1.
          4   -1    0    0  502    0 -0.00000000000E+00 -0.00000000000E+00 -0.59914526593E+01  0.59914526593E+01  0.00000000000E+00 0. -1.
         24    2    1    2    0    0  0.15757818676E+02  0.24215598801E+02  0.32078209300E+03  0.33202376660E+03  0.80646923820E+02 0.  0.
        -11    1    3    3    0    0  0.13487589322E+02 -0.52881566791E+01  0.28596067830E+03  0.28632741608E+03  0.00000000000E+00 0.  1.
         12    1    3    3    0    0  0.22702293540E+01  0.29503755480E+02  0.34821414704E+02  0.45696350519E+02  0.00000000000E+00 0. -1.
          3    1    1    2  501    0 -0.15757818676E+02 -0.24215598801E+02  0.56268143049E+03  0.56342266221E+03  0.00000000000E+00 0. -1.
<mgrwt>
<rscale>  1 0.85665806E+02</rscale>
<asrwt>0</asrwt>
<pdfrwt beam="1">  1       21 0.13683912E+00 0.85665806E+02</pdfrwt>
<pdfrwt beam="2">  1        4 0.92176265E-03 0.85665806E+02</pdfrwt>
<totfact> 0.49727981E+04</totfact>
</mgrwt>
</event>
<event>
 6    2  0.8544106E+000  0.8664594E+02  0.7546771E-02  0.1311183E+00
         21   -1    0    0  501  502  0.00000000000E+00  0.00000000000E+00  0.73929550332E+01  0.73929550332E+01  0.00000000000E+00 0.  1.
          2   -1    0    0  502    0 -0.00000000000E+00 -0.00000000000E+00 -0.53494890765E+03  0.53494890765E+03  0.00000000000E+00 0. -1.
         24    2    1    2    0    0  0.15715646566E+02  0.29436432537E+02 -0.29690653403E+03  0.30929113988E+03  0.79962704728E+02 0.  0.
        -11    1    3    3    0    0  0.17207316912E+02  0.31156097027E+02 -0.44999254751E+02  0.57373574626E+02  0.00000000000E+00 0.  1.
         12    1    3    3    0    0 -0.14916703458E+01 -0.17196644908E+01 -0.25190727928E+03  0.25191756525E+03  0.00000000000E+00 0. -1.
          1    1    1    2  501    0 -0.15715646566E+02 -0.29436432537E+02 -0.23064941858E+03  0.23305072281E+03  0.00000000000E+00 0. -1.
<mgrwt>
<rscale>  1 0.86645942E+02</rscale>
<asrwt>0</asrwt>
<pdfrwt beam="1">  1       21 0.11373781E-02 0.86645942E+02</pdfrwt>
<pdfrwt beam="2">  1        2 0.82299806E-01 0.86645942E+02</pdfrwt>
<totfact> 0.20460045E+06</totfact>
</mgrwt>
</event>
<event>
 6    2  0.8544106E+000  0.8165098E+02  0.7546771E-02  0.1324430E+00
         21   -1    0    0  501  502  0.00000000000E+00  0.00000000000E+00  0.41918935657E+02  0.41918935657E+02  0.00000000000E+00 0. -1.
         -1   -1    0    0    0  501 -0.00000000000E+00 -0.00000000000E+00 -0.62957192679E+02  0.62957192679E+02  0.00000000000E+00 0.  1.
         24    2    1    2    0    0 -0.25029143234E+01 -0.20734505328E+02 -0.19419040466E+02  0.83928427900E+02  0.78934767915E+02 0.  0.
        -11    1    3    3    0    0 -0.25474336156E+02 -0.35344314260E+02 -0.31882255726E+02  0.53987411340E+02  0.00000000000E+00 0.  1.
         12    1    3    3    0    0  0.22971421832E+02  0.14609808932E+02  0.12463215259E+02  0.29941016560E+02  0.00000000000E+00 0. -1.
         -2    1    1    2    0  502  0.25029143234E+01  0.20734505328E+02 -0.16192165566E+01  0.20947700436E+02  0.00000000000E+00 0.  1.
<mgrwt>
<rscale>  1 0.81650976E+02</rscale>
<asrwt>0</asrwt>
<pdfrwt beam="1">  1       21 0.64490670E-02 0.81650976E+02</pdfrwt>
<pdfrwt beam="2">  1       -1 0.96857220E-02 0.81650976E+02</pdfrwt>
<totfact> 0.90707097E+05</totfact>
</mgrwt>
</event>
<event>
 6    2  0.8544106E+000  0.8773938E+02  0.7546771E-02  0.1308420E+00
         21   -1    0    0  501  502  0.00000000000E+00  0.00000000000E+00  0.43385181326E+02  0.43385181326E+02  0.00000000000E+00 0. -1.
         -3   -1    0    0    0  501 -0.00000000000E+00 -0.00000000000E+00 -0.74787616427E+02  0.74787616427E+02  0.00000000000E+00 0.  1.
         24    2    1    2    0    0 -0.11899780659E+01  0.26090253504E+02 -0.25897363216E+02  0.91481540904E+02  0.83762053037E+02 0.  0.
        -11    1    3    3    0    0  0.23303479391E+02 -0.46940043523E+01 -0.42567865292E+02  0.48755604643E+02  0.00000000000E+00 0.  1.
         12    1    3    3    0    0 -0.24493457457E+02  0.30784257856E+02  0.16670502075E+02  0.42725936261E+02  0.00000000000E+00 0. -1.
         -4    1    1    2    0  502  0.11899780659E+01 -0.26090253504E+02 -0.55050718842E+01  0.26691256848E+02  0.00000000000E+00 0.  1.
<mgrwt>
<rscale>  1 0.87739381E+02</rscale>
<asrwt>0</asrwt>
<pdfrwt beam="1">  1       21 0.66746434E-02 0.87739381E+02</pdfrwt>
<pdfrwt beam="2">  1       -3 0.11505787E-01 0.87739381E+02</pdfrwt>
<totfact> 0.41969089E+05</totfact>
</mgrwt>
</event>
<event>
 6    2  0.8544106E+000  0.6243096E+02  0.7546771E-02  0.1387904E+00
         21   -1    0    0  501  502  0.00000000000E+00  0.00000000000E+00  0.52306834323E+01  0.52306834323E+01  0.00000000000E+00 0.  1.
          2   -1    0    0  502    0 -0.00000000000E+00 -0.00000000000E+00 -0.37147117890E+03  0.37147117890E+03  0.00000000000E+00 0. -1.
         24    2    1    2    0    0 -0.17636797715E+01  0.22720165933E+02 -0.30580451582E+03  0.31211220262E+03  0.58123219278E+02 0.  0.
        -13    1    3    3    0    0  0.29134954714E+01  0.41083904504E+02 -0.24452752874E+03  0.24797194998E+03  0.00000000000E+00 0.  1.
         14    1    3    3    0    0 -0.46771752429E+01 -0.18363738571E+02 -0.61276987082E+02  0.64140252637E+02  0.00000000000E+00 0. -1.
          1    1    1    2  501    0  0.17636797715E+01 -0.22720165933E+02 -0.60435979650E+02  0.64589659719E+02  0.00000000000E+00 0. -1.
<mgrwt>
<rscale>  1 0.62430963E+02</rscale>
<asrwt>0</asrwt>
<pdfrwt beam="1">  1       21 0.80472027E-03 0.62430963E+02</pdfrwt>
<pdfrwt beam="2">  1        2 0.57149431E-01 0.62430963E+02</pdfrwt>
<totfact> 0.49228482E+06</totfact>
</mgrwt>
</event>
<event>
 6    2  0.8544106E+000  0.8049976E+02  0.7546771E-02  0.1327639E+00
          2   -1    0    0  502    0 -0.00000000000E+00  0.00000000000E+00  0.24760163494E+04  0.24760163494E+04  0.00000000000E+00 0. -1.
         21   -1    0    0  501  502  0.00000000000E+00 -0.00000000000E+00 -0.11549085182E+01  0.11549085182E+01  0.00000000000E+00 0.  1.
         24    2    1    2    0    0 -0.11435044626E+02 -0.20482364674E+02  0.21250353121E+04  0.21265594955E+04  0.77005993795E+02 0.  0.
        -13    1    3    3    0    0 -0.38182591677E+02  0.83051724812E+01  0.13025850651E+04  0.13031710318E+04  0.00000000000E+00 0.  1.
         14    1    3    3    0    0  0.26747547051E+02 -0.28787537155E+02  0.82245024694E+03  0.82338846377E+03  0.00000000000E+00 0. -1.
          1    1    1    2  501    0  0.11435044626E+02  0.20482364674E+02  0.34982612879E+03  0.35061176234E+03  0.00000000000E+00 0. -1.
<mgrwt>
<rscale>  1 0.80499755E+02</rscale>
<asrwt>0</asrwt>
<pdfrwt beam="1">  1       21 0.17768022E-03 0.80499755E+02</pdfrwt>
<pdfrwt beam="2">  1        2 0.38092134E+00 0.80499755E+02</pdfrwt>
<totfact> 0.28407117E+06</totfact>
</mgrwt>
</event>
<event>
 6    2  0.8544106E+000  0.9498516E+02  0.7546771E-02  0.1291210E+00
          2   -1    0    0  502    0 -0.00000000000E+00  0.00000000000E+00  0.33583374597E+03  0.33583374597E+03  0.00000000000E+00 0. -1.
         21   -1    0    0  501  502  0.00000000000E+00 -0.00000000000E+00 -0.34022718040E+02  0.34022718040E+02  0.00000000000E+00 0. -1.
         24    2    1    2    0    0  0.78378779396E+01  0.48828731342E+02  0.30582887767E+03  0.32023972841E+03  0.81095646624E+02 0.  0.
        -11    1    3    3    0    0  0.96559543293E+01  0.26817706521E+02  0.23206038403E+02  0.36755231674E+02  0.00000000000E+00 0.  1.
         12    1    3    3    0    0 -0.18180763897E+01  0.22011024821E+02  0.28262283926E+03  0.28348449673E+03  0.00000000000E+00 0. -1.
          1    1    1    2  501    0 -0.78378779396E+01 -0.48828731342E+02 -0.40178497392E+01  0.49616735599E+02  0.00000000000E+00 0. -1.
<mgrwt>
<rscale>  1 0.94985163E+02</rscale>
<asrwt>0</asrwt>
<pdfrwt beam="1">  1       21 0.52342645E-02 0.94985163E+02</pdfrwt>
<pdfrwt beam="2">  1        2 0.51666728E-01 0.94985163E+02</pdfrwt>
<totfact> 0.28775270E+05</totfact>
</mgrwt>
</event>
<event>
 6    2  0.8544106E+000  0.8484945E+02  0.7546771E-02  0.1315827E+00
          2   -1    0    0  502    0 -0.00000000000E+00  0.00000000000E+00  0.54473145558E+03  0.54473145558E+03  0.00000000000E+00 0. -1.
         21   -1    0    0  501  502  0.00000000000E+00 -0.00000000000E+00 -0.62259837308E+01  0.62259837308E+01  0.00000000000E+00 0. -1.
         24    2    1    2    0    0  0.14077842919E+02  0.27793931254E+02  0.37099408098E+03  0.38057330170E+03  0.78922376895E+02 0.  0.
        -13    1    3    3    0    0 -0.19435968077E+02 -0.89963333222E+01  0.35894412434E+02  0.41798321884E+02  0.00000000000E+00 0.  1.
         14    1    3    3    0    0  0.33513810996E+02  0.36790264576E+02  0.33509966854E+03  0.33877497982E+03  0.00000000000E+00 0. -1.
          1    1    1    2  501    0 -0.14077842919E+02 -0.27793931254E+02  0.16751139088E+03  0.17038413761E+03  0.00000000000E+00 0. -1.
<mgrwt>
<rscale>  1 0.84849454E+02</rscale>
<asrwt>0</asrwt>
<pdfrwt beam="1">  1       21 0.95784408E-03 0.84849454E+02</pdfrwt>
<pdfrwt beam="2">  1        2 0.83804802E-01 0.84849454E+02</pdfrwt>
<totfact> 0.26173447E+06</totfact>
</mgrwt>
</event>
<event>
 6    2  0.8544106E+000  0.7329774E+02  0.7546771E-02  0.1349225E+00
         -3   -1    0    0    0  501 -0.00000000000E+00  0.00000000000E+00  0.19007881504E+03  0.19007881504E+03  0.00000000000E+00 0.  1.
         21   -1    0    0  501  502  0.00000000000E+00 -0.00000000000E+00 -0.14749726456E+02  0.14749726456E+02  0.00000000000E+00 0. -1.
         24    2    1    2    0    0 -0.14156272383E+02  0.24803529296E+02  0.14868647774E+03  0.16577161092E+03  0.67505134705E+02 0.  0.
        -11    1    3    3    0    0 -0.22414534214E+02 -0.11691999563E+02  0.10615214616E+03  0.10912099858E+03  0.00000000000E+00 0.  1.
         12    1    3    3    0    0  0.82582618311E+01  0.36495528859E+02  0.42534331579E+02  0.56650612336E+02  0.00000000000E+00 0. -1.
         -4    1    1    2    0  502  0.14156272383E+02 -0.24803529296E+02  0.26642610846E+02  0.39056930576E+02  0.00000000000E+00 0.  1.
<mgrwt>
<rscale>  1 0.73297738E+02</rscale>
<asrwt>0</asrwt>
<pdfrwt beam="1">  1       21 0.22691888E-02 0.73297738E+02</pdfrwt>
<pdfrwt beam="2">  1       -3 0.29242893E-01 0.73297738E+02</pdfrwt>
<totfact> 0.47609329E+05</totfact>
</mgrwt>
</event>
<event>
 6    2  0.8544106E+000  0.8348235E+02  0.7546771E-02  0.1319450E+00
          2   -1    0    0  502    0 -0.00000000000E+00  0.00000000000E+00  0.23343454568E+04  0.23343454568E+04  0.00000000000E+00 0. -1.
         21   -1    0    0  501  502  0.00000000000E+00 -0.00000000000E+00 -0.12138687939E+01  0.12138687939E+01  0.00000000000E+00 0. -1.
         24    2    1    2    0    0  0.15708507548E+02  0.15431783316E+02  0.17061848399E+04  0.17082259835E+04  0.80525807317E+02 0.  0.
        -13    1    3    3    0    0  0.12074369559E+01 -0.32056186686E+02  0.50717130308E+03  0.50818479678E+03  0.00000000000E+00 0.  1.
         14    1    3    3    0    0  0.14501070592E+02  0.47487970003E+02  0.11990135368E+04  0.12000411867E+04  0.00000000000E+00 0. -1.
          1    1    1    2  501    0 -0.15708507548E+02 -0.15431783316E+02  0.62694674810E+03  0.62733334209E+03  0.00000000000E+00 0. -1.
<mgrwt>
<rscale>  1 0.83482350E+02</rscale>
<asrwt>0</asrwt>
<pdfrwt beam="1">  1       21 0.18675091E-03 0.83482350E+02</pdfrwt>
<pdfrwt beam="2">  1        2 0.35912648E+00 0.83482350E+02</pdfrwt>
<totfact> 0.31289078E+06</totfact>
</mgrwt>
</event>
<event>
 6    2  0.8544106E+000  0.8223286E+02  0.7546771E-02  0.1322832E+00
         21   -1    0    0  501  502  0.00000000000E+00  0.00000000000E+00  0.57384265330E+01  0.57384265330E+01  0.00000000000E+00 0.  1.
          2   -1    0    0  502    0 -0.00000000000E+00 -0.00000000000E+00 -0.48245386510E+03  0.48245386510E+03  0.00000000000E+00 0. -1.
         24    2    1    2    0    0 -0.22495629233E+02  0.31017387153E+01 -0.35781673655E+03  0.36714446860E+03  0.79035243764E+02 0.  0.
        -11    1    3    3    0    0 -0.44378877295E+02 -0.40031230499E+01 -0.11645678326E+03  0.12469038500E+03  0.00000000000E+00 0.  1.
         12    1    3    3    0    0  0.21883248062E+02  0.71048617652E+01 -0.24135995329E+03  0.24245408361E+03  0.00000000000E+00 0. -1.
          1    1    1    2  501    0  0.22495629233E+02 -0.31017387153E+01 -0.11889870202E+03  0.12104782303E+03  0.00000000000E+00 0. -1.
<mgrwt>
<rscale>  1 0.82232864E+02</rscale>
<asrwt>0</asrwt>
<pdfrwt beam="1">  1       21 0.88283496E-03 0.82232864E+02</pdfrwt>
<pdfrwt beam="2">  1        2 0.74223663E-01 0.82232864E+02</pdfrwt>
<totfact> 0.33750000E+06</totfact>
</mgrwt>
</event>
<event>
 6    2  0.8544106E+000  0.8216345E+02  0.7546771E-02  0.1323022E+00
         21   -1    0    0  501  502  0.00000000000E+00  0.00000000000E+00  0.36534256077E+01  0.36534256077E+01  0.00000000000E+00 0.  1.
          2   -1    0    0  502    0 -0.00000000000E+00 -0.00000000000E+00 -0.74681277899E+03  0.74681277899E+03  0.00000000000E+00 0. -1.
         24    2    1    2    0    0  0.15442035297E+02  0.14048423562E+02 -0.53649763387E+03  0.54275274578E+03  0.79467082834E+02 0.  0.
        -13    1    3    3    0    0 -0.22264920299E+02  0.20534495719E+02 -0.97628104867E+02  0.10221858466E+03  0.00000000000E+00 0.  1.
         14    1    3    3    0    0  0.37706955596E+02 -0.64860721568E+01 -0.43886952900E+03  0.44053416112E+03  0.00000000000E+00 0. -1.
          1    1    1    2  501    0 -0.15442035297E+02 -0.14048423562E+02 -0.20666171952E+03  0.20771345882E+03  0.00000000000E+00 0. -1.
<mgrwt>
<rscale>  1 0.82163446E+02</rscale>
<asrwt>0</asrwt>
<pdfrwt beam="1">  1       21 0.56206435E-03 0.82163446E+02</pdfrwt>
<pdfrwt beam="2">  1        2 0.11489450E+00 0.82163446E+02</pdfrwt>
<totfact> 0.41550441E+06</totfact>
</mgrwt>
</event>
<event>
 6    2  0.8544106E+000  0.9158716E+02  0.7546771E-02  0.1299053E+00
         21   -1    0    0  501  502  0.00000000000E+00  0.00000000000E+00  0.56716599452E+01  0.56716599452E+01  0.00000000000E+00 0. -1.
          4   -1    0    0  502    0 -0.00000000000E+00 -0.00000000000E+00 -0.12223449036E+04  0.12223449036E+04  0.00000000000E+00 0. -1.
         24    2    1    2    0    0 -0.35434833663E+02  0.23235605372E+02 -0.11014083704E+04  0.11052097567E+04  0.81195364298E+02 0.  0.
        -11    1    3    3    0    0  0.26016491527E+02  0.10568363052E+02 -0.27814373778E+03  0.27955766310E+03  0.00000000000E+00 0.  1.
         12    1    3    3    0    0 -0.61451325190E+02  0.12667242320E+02 -0.82326463263E+03  0.82565209364E+03  0.00000000000E+00 0. -1.
          3    1    1    2  501    0  0.35434833663E+02 -0.23235605372E+02 -0.11526487321E+03  0.12280680677E+03  0.00000000000E+00 0. -1.
<mgrwt>
<rscale>  1 0.91587161E+02</rscale>
<asrwt>0</asrwt>
<pdfrwt beam="1">  1       21 0.87256303E-03 0.91587161E+02</pdfrwt>
<pdfrwt beam="2">  1        4 0.18805307E+00 0.91587161E+02</pdfrwt>
<totfact> 0.31307474E+04</totfact>
</mgrwt>
</event>
<event>
 6    2  0.8544106E+000  0.8700703E+02  0.7546771E-02  0.1310266E+00
         21   -1    0    0  501  502  0.00000000000E+00  0.00000000000E+00  0.32172213451E+01  0.32172213451E+01  0.00000000000E+00 0. -1.
          2   -1    0    0  502    0 -0.00000000000E+00 -0.00000000000E+00 -0.15875265040E+04  0.15875265040E+04  0.00000000000E+00 0. -1.
         24    2    1    2    0    0 -0.94092074701E+01 -0.33435226664E+02 -0.14267875388E+04  0.14294379680E+04  0.79773278160E+02 0.  0.
        -13    1    3    3    0    0  0.19148368808E+02 -0.13621752140E+01 -0.93066476344E+02  0.95025704777E+02  0.00000000000E+00 0.  1.
         14    1    3    3    0    0 -0.28557576278E+02 -0.32073051450E+02 -0.13337210624E+04  0.13344122632E+04  0.00000000000E+00 0. -1.
          1    1    1    2  501    0  0.94092074701E+01  0.33435226664E+02 -0.15752174394E+03  0.16130575743E+03  0.00000000000E+00 0. -1.
<mgrwt>
<rscale>  1 0.87007031E+02</rscale>
<asrwt>0</asrwt>
<pdfrwt beam="1">  1       21 0.49495726E-03 0.87007031E+02</pdfrwt>
<pdfrwt beam="2">  1        2 0.24423478E+00 0.87007031E+02</pdfrwt>
<totfact> 0.17089912E+06</totfact>
</mgrwt>
</event>
<event>
 6    2  0.8544106E+000  0.8074697E+02  0.7546771E-02  0.1326945E+00
         21   -1    0    0  501  502  0.00000000000E+00  0.00000000000E+00  0.18642520406E+01  0.18642520406E+01  0.00000000000E+00 0. -1.
          2   -1    0    0  502    0 -0.00000000000E+00 -0.00000000000E+00 -0.25312725230E+04  0.25312725230E+04  0.00000000000E+00 0. -1.
         24    2    1    2    0    0 -0.21010771340E+02  0.27618573865E+02 -0.22677823153E+04  0.22692194038E+04  0.72909774006E+02 0.  0.
        -11    1    3    3    0    0 -0.15561273581E+02 -0.62303322152E+01 -0.12016776358E+03  0.12133120653E+03  0.00000000000E+00 0.  1.
         12    1    3    3    0    0 -0.54494977591E+01  0.33848906080E+02 -0.21476145517E+04  0.21478881973E+04  0.00000000000E+00 0. -1.
          1    1    1    2  501    0  0.21010771340E+02 -0.27618573865E+02 -0.26162595565E+03  0.26391737117E+03  0.00000000000E+00 0. -1.
<mgrwt>
<rscale>  1 0.80746971E+02</rscale>
<asrwt>0</asrwt>
<pdfrwt beam="1">  1       21 0.28680635E-03 0.80746971E+02</pdfrwt>
<pdfrwt beam="2">  1        2 0.38942879E+00 0.80746971E+02</pdfrwt>
<totfact> 0.12970475E+06</totfact>
</mgrwt>
</event>
<event>
 6    2  0.8544106E+000  0.8615320E+02  0.7546771E-02  0.1312444E+00
          4   -1    0    0  502    0 -0.00000000000E+00  0.00000000000E+00  0.18297289347E+01  0.18297289347E+01  0.00000000000E+00 0. -1.
         21   -1    0    0  501  502  0.00000000000E+00 -0.00000000000E+00 -0.19025448046E+04  0.19025448046E+04  0.00000000000E+00 0.  1.
         24    2    1    2    0    0  0.30169975952E+01 -0.28926908037E+02 -0.15785784545E+04  0.15809276739E+04  0.81095653085E+02 0.  0.
        -11    1    3    3    0    0  0.23843356607E+02 -0.49877767747E+02 -0.11534483095E+04  0.11547724019E+04  0.00000000000E+00 0.  1.
         12    1    3    3    0    0 -0.20826359012E+02  0.20950859710E+02 -0.42513014495E+03  0.42615527205E+03  0.00000000000E+00 0. -1.
          3    1    1    2  501    0 -0.30169975952E+01  0.28926908037E+02 -0.32213662124E+03  0.32344685967E+03  0.00000000000E+00 0. -1.
<mgrwt>
<rscale>  1 0.86153196E+02</rscale>
<asrwt>0</asrwt>
<pdfrwt beam="1">  1       21 0.29270022E+00 0.86153196E+02</pdfrwt>
<pdfrwt beam="2">  1        4 0.28149578E-03 0.86153196E+02</pdfrwt>
<totfact> 0.31027373E+04</totfact>
</mgrwt>
</event>
<event>
 6    2  0.8544106E+000  0.8405305E+02  0.7546771E-02  0.1317928E+00
         -1   -1    0    0    0  501 -0.00000000000E+00  0.00000000000E+00  0.21500072227E+03  0.21500072227E+03  0.00000000000E+00 0.  1.
         21   -1    0    0  501  502  0.00000000000E+00 -0.00000000000E+00 -0.17803669501E+02  0.17803669501E+02  0.00000000000E+00 0.  1.
         24    2    1    2    0    0  0.32869921549E+02  0.56918157053E+01  0.17044584289E+03  0.19004394581E+03  0.77149772986E+02 0.  0.
        -11    1    3    3    0    0  0.13290506419E+01  0.54091308875E+01  0.15468153039E+03  0.15478178483E+03  0.00000000000E+00 0.  1.
         12    1    3    3    0    0  0.31540870907E+02  0.28268481781E+00  0.15764312505E+02  0.35262160981E+02  0.00000000000E+00 0. -1.
         -2    1    1    2    0  502 -0.32869921549E+02 -0.56918157053E+01  0.26751209873E+02  0.42760445956E+02  0.00000000000E+00 0.  1.
<mgrwt>
<rscale>  1 0.84053055E+02</rscale>
<asrwt>0</asrwt>
<pdfrwt beam="1">  1       21 0.27390262E-02 0.84053055E+02</pdfrwt>
<pdfrwt beam="2">  1       -1 0.33077032E-01 0.84053055E+02</pdfrwt>
<totfact> 0.53850225E+05</totfact>
</mgrwt>
</event>
<event>
 6    2  0.8544106E+000  0.9315226E+02  0.7546771E-02  0.1295393E+00
         21   -1    0    0  501  502  0.00000000000E+00  0.00000000000E+00  0.30964851894E+02  0.30964851894E+02  0.00000000000E+00 0. -1.
          2   -1    0    0  502    0 -0.00000000000E+00 -0.00000000000E+00 -0.53703085249E+03  0.53703085249E+03  0.00000000000E+00 0. -1.
         24    2    1    2    0    0 -0.16122704988E+02  0.47955733208E+02 -0.50886885296E+03  0.51732470730E+03  0.78215403254E+02 0.  0.
        -11    1    3    3    0    0 -0.37681273525E+02  0.56973782196E+02 -0.41541035216E+03  0.42098889643E+03  0.00000000000E+00 0.  1.
         12    1    3    3    0    0  0.21558568537E+02 -0.90180489882E+01 -0.93458500799E+02  0.96335810873E+02  0.00000000000E+00 0. -1.
          1    1    1    2  501    0  0.16122704988E+02 -0.47955733208E+02  0.28028523680E+01  0.50670997080E+02  0.00000000000E+00 0. -1.
<mgrwt>
<rscale>  1 0.93152259E+02</rscale>
<asrwt>0</asrwt>
<pdfrwt beam="1">  1       21 0.47638230E-02 0.93152259E+02</pdfrwt>
<pdfrwt beam="2">  1        2 0.82620137E-01 0.93152259E+02</pdfrwt>
<totfact> 0.20406840E+05</totfact>
</mgrwt>
</event>
<event>
 6    2  0.8544106E+000  0.8828296E+02  0.7546771E-02  0.1307064E+00
          2   -1    0    0  502    0 -0.00000000000E+00  0.00000000000E+00  0.45381540675E+03  0.45381540675E+03  0.00000000000E+00 0. -1.
         21   -1    0    0  501  502  0.00000000000E+00 -0.00000000000E+00 -0.12917989610E+02  0.12917989610E+02  0.00000000000E+00 0. -1.
         24    2    1    2    0    0  0.11159400682E+02  0.32301864797E+02  0.41381786646E+03  0.42313013091E+03  0.81399867246E+02 0.  0.
        -11    1    3    3    0    0  0.36470142927E+02 -0.57037822021E+01  0.11326534462E+03  0.11912868147E+03  0.00000000000E+00 0.  1.
         12    1    3    3    0    0 -0.25310742245E+02  0.38005646999E+02  0.30055252184E+03  0.30400144944E+03  0.00000000000E+00 0. -1.
          1    1    1    2  501    0 -0.11159400682E+02 -0.32301864797E+02  0.27079550675E+02  0.43603265447E+02  0.00000000000E+00 0. -1.
<mgrwt>
<rscale>  1 0.88282960E+02</rscale>
<asrwt>0</asrwt>
<pdfrwt beam="1">  1       21 0.19873834E-02 0.88282960E+02</pdfrwt>
<pdfrwt beam="2">  1        2 0.69817743E-01 0.88282960E+02</pdfrwt>
<totfact> 0.10119313E+06</totfact>
</mgrwt>
</event>
<event>
 6    2  0.8544106E+000  0.1049839E+03  0.7546771E-02  0.1270151E+00
          2   -1    0    0  502    0 -0.00000000000E+00  0.00000000000E+00  0.57182780995E+03  0.57182780995E+03  0.00000000000E+00 0. -1.
         21   -1    0    0  501  502  0.00000000000E+00 -0.00000000000E+00 -0.11368077847E+02  0.11368077847E+02  0.00000000000E+00 0. -1.
         24    2    1    2    0    0 -0.42537356108E+02 -0.32609635707E+02  0.41813843265E+03  0.43111641094E+03  0.90270681344E+02 0.  0.
        -11    1    3    3    0    0  0.81621866435E+01 -0.22840752813E+02  0.25861612270E+02  0.35456230328E+02  0.00000000000E+00 0.  1.
         12    1    3    3    0    0 -0.50699542751E+02 -0.97688828938E+01  0.39227682038E+03  0.39566018061E+03  0.00000000000E+00 0. -1.
          1    1    1    2  501    0  0.42537356108E+02  0.32609635707E+02  0.14232129945E+03  0.15207947686E+03  0.00000000000E+00 0. -1.
<mgrwt>
<rscale>  1 0.10498386E+03</rscale>
<asrwt>0</asrwt>
<pdfrwt beam="1">  1       21 0.17489355E-02 0.10498386E+03</pdfrwt>
<pdfrwt beam="2">  1        2 0.87973487E-01 0.10498386E+03</pdfrwt>
<totfact> 0.98088657E+05</totfact>
</mgrwt>
</event>
<event>
 6    2  0.8544106E+000  0.8396474E+02  0.7546771E-02  0.1318162E+00
         21   -1    0    0  501  502  0.00000000000E+00  0.00000000000E+00  0.63692403146E+02  0.63692403146E+02  0.00000000000E+00 0. -1.
          2   -1    0    0  502    0 -0.00000000000E+00 -0.00000000000E+00 -0.48821452550E+02  0.48821452550E+02  0.00000000000E+00 0. -1.
         24    2    1    2    0    0 -0.22186873739E+02  0.85506735005E+01 -0.92119694826E+00  0.83969796634E+02  0.80527676977E+02 0.  0.
        -13    1    3    3    0    0  0.20044808000E+01 -0.33673736125E+02 -0.83276235237E+01  0.34746046703E+02  0.00000000000E+00 0.  1.
         14    1    3    3    0    0 -0.24191354539E+02  0.42224409626E+02  0.74064265755E+01  0.49223749931E+02  0.00000000000E+00 0. -1.
          1    1    1    2  501    0  0.22186873739E+02 -0.85506735005E+01  0.15792147544E+02  0.28544059061E+02  0.00000000000E+00 0. -1.
<mgrwt>
<rscale>  1 0.83964743E+02</rscale>
<asrwt>0</asrwt>
<pdfrwt beam="1">  1       21 0.97988312E-02 0.83964743E+02</pdfrwt>
<pdfrwt beam="2">  1        2 0.75109927E-02 0.83964743E+02</pdfrwt>
<totfact> 0.86218913E+05</totfact>
</mgrwt>
</event>
<event>
 6    2  0.8544106E+000  0.1092285E+03  0.7546771E-02  0.1262005E+00
         21   -1    0    0  501  502  0.00000000000E+00  0.00000000000E+00  0.75785895841E+03  0.75785895841E+03  0.00000000000E+00 0.  1.
         -3   -1    0    0    0  501 -0.00000000000E+00 -0.00000000000E+00 -0.99542820459E+01  0.99542820459E+01  0.00000000000E+00 0.  1.
         24    2    1    2    0    0 -0.61650109824E+02 -0.85852809863E+01  0.53293108240E+03  0.54400955596E+03  0.89757536172E+02 0.  0.
        -11    1    3    3    0    0 -0.19327482723E+02  0.39450738372E+02  0.17726638775E+03  0.18262881638E+03  0.00000000000E+00 0.  1.
         12    1    3    3    0    0 -0.42322627101E+02 -0.48036019359E+02  0.35566469465E+03  0.36138073959E+03  0.00000000000E+00 0. -1.
         -4    1    1    2    0  502  0.61650109824E+02  0.85852809863E+01  0.21497359396E+03  0.22380368449E+03  0.00000000000E+00 0.  1.
<mgrwt>
<rscale>  1 0.10922847E+03</rscale>
<asrwt>0</asrwt>
<pdfrwt beam="1">  1       21 0.11659364E+00 0.10922847E+03</pdfrwt>
<pdfrwt beam="2">  1       -3 0.15314286E-02 0.10922847E+03</pdfrwt>
<totfact> 0.38684921E+04</totfact>
</mgrwt>
</event>
<event>
 6    2  0.8544106E+000  0.8553681E+02  0.7546771E-02  0.1314035E+00
         21   -1    0    0  501  502  0.00000000000E+00  0.00000000000E+00  0.21668153136E+03  0.21668153136E+03  0.00000000000E+00 0.  1.
         -1   -1    0    0    0  501 -0.00000000000E+00 -0.00000000000E+00 -0.45422430873E+02  0.45422430873E+02  0.00000000000E+00 0.  1.
         24    2    1    2    0    0  0.23657987727E+02  0.25862475213E+02 -0.17752525112E+01  0.85555228663E+02  0.78025493415E+02 0.  0.
        -13    1    3    3    0    0  0.26978301634E+02 -0.25724138005E+01 -0.33324649965E+02  0.42953211371E+02  0.00000000000E+00 0.  1.
         14    1    3    3    0    0 -0.33203139065E+01  0.28434889013E+02  0.31549397454E+02  0.42602017292E+02  0.00000000000E+00 0. -1.
         -2    1    1    2    0  502 -0.23657987727E+02 -0.25862475213E+02  0.17303435300E+03  0.17654873357E+03  0.00000000000E+00 0.  1.
<mgrwt>
<rscale>  1 0.85536809E+02</rscale>
<asrwt>0</asrwt>
<pdfrwt beam="1">  1       21 0.33335620E-01 0.85536809E+02</pdfrwt>
<pdfrwt beam="2">  1       -1 0.69880664E-02 0.85536809E+02</pdfrwt>
<totfact> 0.78683850E+04</totfact>
</mgrwt>
</event>
<event>
 6    2  0.8544106E+000  0.8734506E+02  0.7546771E-02  0.1309411E+00
          4   -1    0    0  502    0 -0.00000000000E+00  0.00000000000E+00  0.14006504765E+03  0.14006504765E+03  0.00000000000E+00 0. -1.
         21   -1    0    0  501  502  0.00000000000E+00 -0.00000000000E+00 -0.10157141246E+03  0.10157141246E+03  0.00000000000E+00 0. -1.
         24    2    1    2    0    0 -0.24471811967E+02  0.24925394539E+02  0.12261887247E+03  0.15054749030E+03  0.80056318156E+02 0.  0.
        -13    1    3    3    0    0  0.46381611573E+01 -0.11797185898E+02 -0.57303476994E+01  0.13911255112E+02  0.00000000000E+00 0.  1.
         14    1    3    3    0    0 -0.29109973124E+02  0.36722580436E+02  0.12834922017E+03  0.13663623519E+03  0.00000000000E+00 0. -1.
          3    1    1    2  501    0  0.24471811967E+02 -0.24925394539E+02 -0.84125237273E+02  0.91088969805E+02  0.00000000000E+00 0. -1.
<mgrwt>
<rscale>  1 0.87345057E+02</rscale>
<asrwt>0</asrwt>
<pdfrwt beam="1">  1       21 0.15626371E-01 0.87345057E+02</pdfrwt>
<pdfrwt beam="2">  1        4 0.21548469E-01 0.87345057E+02</pdfrwt>
<totfact> 0.27667442E+04</totfact>
</mgrwt>
</event>
<event>
 6    2  0.8544106E+000  0.8999731E+02  0.7546771E-02  0.1302858E+00
         21   -1    0    0  501  502  0.00000000000E+00  0.00000000000E+00  0.86175186017E+01  0.86175186017E+01  0.00000000000E+00 0.  1.
          2   -1    0    0  502    0 -0.00000000000E+00 -0.00000000000E+00 -0.61391548621E+03  0.61391548621E+03  0.00000000000E+00 0. -1.
         24    2    1    2    0    0 -0.32783373217E+02  0.25401306166E+02 -0.51949360687E+03  0.52723156601E+03  0.79872027097E+02 0.  0.
        -11    1    3    3    0    0 -0.53849706802E+02  0.22983347884E+02 -0.24413097100E+03  0.25105369187E+03  0.00000000000E+00 0.  1.
         12    1    3    3    0    0  0.21066333584E+02  0.24179582822E+01 -0.27536263587E+03  0.27617787414E+03  0.00000000000E+00 0. -1.
          1    1    1    2  501    0  0.32783373217E+02 -0.25401306166E+02 -0.85804360740E+02  0.95301438795E+02  0.00000000000E+00 0. -1.
<mgrwt>
<rscale>  1 0.89997315E+02</rscale>
<asrwt>0</asrwt>
<pdfrwt beam="1">  1       21 0.13257718E-02 0.89997315E+02</pdfrwt>
<pdfrwt beam="2">  1        2 0.94448558E-01 0.89997315E+02</pdfrwt>
<totfact> 0.13863903E+06</totfact>
</mgrwt>
</event>
<event>
 6    2  0.8544106E+000  0.8854990E+02  0.7546771E-02  0.1306402E+00
         21   -1    0    0  501  502  0.00000000000E+00  0.00000000000E+00  0.67832726257E+01  0.67832726257E+01  0.00000000000E+00 0.  1.
          2   -1    0    0  502    0 -0.00000000000E+00 -0.00000000000E+00 -0.77154867732E+03  0.77154867732E+03  0.00000000000E+00 0. -1.
         24    2    1    2    0    0 -0.26702765985E+02  0.87230905190E+01 -0.30198923064E+03  0.31470395544E+03  0.83975913964E+02 0.  0.
        -11    1    3    3    0    0  0.22371126042E+01  0.32968367350E+02 -0.50197085366E+02  0.60097132193E+02  0.00000000000E+00 0.  1.
         12    1    3    3    0    0 -0.28939878589E+02 -0.24245276830E+02 -0.25179214528E+03  0.25460682325E+03  0.00000000000E+00 0. -1.
          1    1    1    2  501    0  0.26702765985E+02 -0.87230905190E+01 -0.46277617405E+03  0.46362799450E+03  0.00000000000E+00 0. -1.
<mgrwt>
<rscale>  1 0.88549896E+02</rscale>
<asrwt>0</asrwt>
<pdfrwt beam="1">  1       21 0.10435808E-02 0.88549896E+02</pdfrwt>
<pdfrwt beam="2">  1        2 0.11869975E+00 0.88549896E+02</pdfrwt>
<totfact> 0.15457940E+06</totfact>
</mgrwt>
</event>
<event>
 6    2  0.8544106E+000  0.1064655E+03  0.7546771E-02  0.1267259E+00
          2   -1    0    0  502    0 -0.00000000000E+00  0.00000000000E+00  0.28079500467E+04  0.28079500467E+04  0.00000000000E+00 0. -1.
         21   -1    0    0  501  502  0.00000000000E+00 -0.00000000000E+00 -0.30067813147E+01  0.30067813147E+01  0.00000000000E+00 0.  1.
         24    2    1    2    0    0  0.13309451894E+02  0.69749804739E+02  0.20216996044E+04  0.20245009747E+04  0.79326724865E+02 0.  0.
        -13    1    3    3    0    0  0.16353588606E+02  0.87070392458E+02  0.16279123326E+04  0.16303212125E+04  0.00000000000E+00 0.  1.
         14    1    3    3    0    0 -0.30441367123E+01 -0.17320587719E+02  0.39378727176E+03  0.39417976220E+03  0.00000000000E+00 0. -1.
          1    1    1    2  501    0 -0.13309451894E+02 -0.69749804739E+02  0.78324366098E+03  0.78645585332E+03  0.00000000000E+00 0. -1.
<mgrwt>
<rscale>  1 0.10646552E+03</rscale>
<asrwt>0</asrwt>
<pdfrwt beam="1">  1       21 0.46258399E-03 0.10646552E+03</pdfrwt>
<pdfrwt beam="2">  1        2 0.43199022E+00 0.10646552E+03</pdfrwt>
<totfact> 0.44780904E+05</totfact>
</mgrwt>
</event>
<event>
 6    2  0.8544106E+000  0.8379755E+02  0.7546771E-02  0.1318607E+00
          2   -1    0    0  502    0 -0.00000000000E+00  0.00000000000E+00  0.11366238297E+02  0.11366238297E+02  0.00000000000E+00 0. -1.
         21   -1    0    0  501  502  0.00000000000E+00 -0.00000000000E+00 -0.26784481564E+03  0.26784481564E+03  0.00000000000E+00 0.  1.
         24    2    1    2    0    0 -0.18217751580E+01 -0.25456020517E+02 -0.17914268926E+03  0.19777293369E+03  0.79816679562E+02 0.  0.
        -11    1    3    3    0    0  0.12492947774E+02 -0.42559388021E+02 -0.16613397693E+03  0.17195311437E+03  0.00000000000E+00 0.  1.
         12    1    3    3    0    0 -0.14314722932E+02  0.17103367504E+02 -0.13008712335E+02  0.25819819311E+02  0.00000000000E+00 0. -1.
          1    1    1    2  501    0  0.18217751580E+01  0.25456020517E+02 -0.77335888082E+02  0.81438120255E+02  0.00000000000E+00 0. -1.
<mgrwt>
<rscale>  1 0.83797555E+02</rscale>
<asrwt>0</asrwt>
<pdfrwt beam="1">  1       21 0.41206897E-01 0.83797555E+02</pdfrwt>
<pdfrwt beam="2">  1        2 0.17486520E-02 0.83797555E+02</pdfrwt>
<totfact> 0.41437248E+05</totfact>
</mgrwt>
</event>
<event>
 6    2  0.8544106E+000  0.8834524E+02  0.7546771E-02  0.1306909E+00
         -1   -1    0    0    0  501 -0.00000000000E+00  0.00000000000E+00  0.27429163238E+04  0.27429163238E+04  0.00000000000E+00 0.  1.
         21   -1    0    0  501  502  0.00000000000E+00 -0.00000000000E+00 -0.16514713860E+01  0.16514713860E+01  0.00000000000E+00 0. -1.
         24    2    1    2    0    0 -0.33165405500E+02 -0.16768737508E+02  0.13978252381E+04  0.14006142499E+04  0.80148274897E+02 0.  0.
        -11    1    3    3    0    0  0.24246615230E+02 -0.18584441591E+02  0.42729600836E+03  0.42838669282E+03  0.00000000000E+00 0.  1.
         12    1    3    3    0    0 -0.57412020730E+02  0.18157040835E+01  0.97052922978E+03  0.97222755709E+03  0.00000000000E+00 0. -1.
         -2    1    1    2    0  502  0.33165405500E+02  0.16768737508E+02  0.13434396143E+04  0.13439535453E+04  0.00000000000E+00 0.  1.
<mgrwt>
<rscale>  1 0.88345236E+02</rscale>
<asrwt>0</asrwt>
<pdfrwt beam="1">  1       21 0.25407472E-03 0.88345236E+02</pdfrwt>
<pdfrwt beam="2">  1       -1 0.42198348E+00 0.88345236E+02</pdfrwt>
<totfact> 0.19404919E+04</totfact>
</mgrwt>
</event>
<event>
 6    2  0.8544106E+000  0.1786140E+03  0.7546771E-02  0.1169151E+00
          2   -1    0    0  502    0 -0.00000000000E+00  0.00000000000E+00  0.30105110338E+04  0.30105110338E+04  0.00000000000E+00 0. -1.
         21   -1    0    0  501  502  0.00000000000E+00 -0.00000000000E+00 -0.23223848093E+02  0.23223848093E+02  0.00000000000E+00 0. -1.
         24    2    1    2    0    0 -0.14670240035E+03  0.62333923461E+02  0.26941442353E+04  0.27000585392E+04  0.80596789017E+02 0.  0.
        -13    1    3    3    0    0  0.10326699638E+02  0.32032413896E+01  0.16953860937E+03  0.16988302313E+03  0.00000000000E+00 0.  1.
         14    1    3    3    0    0 -0.15702909999E+03  0.59130682072E+02  0.25246056259E+04  0.25301755161E+04  0.00000000000E+00 0. -1.
          1    1    1    2  501    0  0.14670240035E+03 -0.62333923461E+02  0.29314295046E+03  0.33367634272E+03  0.00000000000E+00 0. -1.
<mgrwt>
<rscale>  1 0.17861398E+03</rscale>
<asrwt>0</asrwt>
<pdfrwt beam="1">  1       21 0.35729021E-02 0.17861398E+03</pdfrwt>
<pdfrwt beam="2">  1        2 0.46315523E+00 0.17861398E+03</pdfrwt>
<totfact> 0.12909414E+04</totfact>
</mgrwt>
</event>
<event>
 6    2  0.8544106E+000  0.1100883E+03  0.7546771E-02  0.1260406E+00
          4   -1    0    0  502    0 -0.00000000000E+00  0.00000000000E+00  0.48425511872E+03  0.48425511872E+03  0.00000000000E+00 0. -1.
         21   -1    0    0  501  502  0.00000000000E+00 -0.00000000000E+00 -0.21103207210E+02  0.21103207210E+02  0.00000000000E+00 0. -1.
         24    2    1    2    0    0 -0.67932202161E+02  0.35552119482E+02  0.36238617198E+03  0.37873892949E+03  0.78998112537E+02 0.  0.
        -11    1    3    3    0    0 -0.54565636345E+01 -0.18654083486E+02  0.26775673380E+02  0.33086033342E+02  0.00000000000E+00 0.  1.
         12    1    3    3    0    0 -0.62475638527E+02  0.54206202969E+02  0.33561049860E+03  0.34565289615E+03  0.00000000000E+00 0. -1.
          3    1    1    2  501    0  0.67932202161E+02 -0.35552119482E+02  0.10076573953E+03  0.12661939644E+03  0.00000000000E+00 0. -1.
<mgrwt>
<rscale>  1 0.11008832E+03</rscale>
<asrwt>0</asrwt>
<pdfrwt beam="1">  1       21 0.32466476E-02 0.11008832E+03</pdfrwt>
<pdfrwt beam="2">  1        4 0.74500779E-01 0.11008832E+03</pdfrwt>
<totfact> 0.36382354E+04</totfact>
</mgrwt>
</event>
<event>
 6    2  0.8651993E+000  0.8575697E+02  0.7546771E-02  0.1313465E+00
         21   -1    0    0  501  502  0.00000000000E+00  0.00000000000E+00  0.67524136776E+01  0.67524136776E+01  0.00000000000E+00 0. -1.
         -3   -1    0    0    0  501 -0.00000000000E+00 -0.00000000000E+00 -0.42923201018E+03  0.42923201018E+03  0.00000000000E+00 0.  1.
         24    2    1    2    0    0  0.19769615481E+02  0.59246624529E+01 -0.31081573936E+03  0.32242934333E+03  0.83236520144E+02 0.  0.
        -13    1    3    3    0    0  0.18273923529E+02  0.62419909433E+01 -0.31622198120E+03  0.31681104798E+03  0.00000000000E+00 0.  1.
         14    1    3    3    0    0  0.14956919528E+01 -0.31732849035E+00  0.54062418383E+01  0.56182953467E+01  0.00000000000E+00 0. -1.
         -4    1    1    2    0  502 -0.19769615481E+02 -0.59246624529E+01 -0.11166385715E+03  0.11355508053E+03  0.00000000000E+00 0.  1.
<mgrwt>
<rscale>  1 0.85756968E+02</rscale>
<asrwt>0</asrwt>
<pdfrwt beam="1">  1       21 0.10388326E-02 0.85756968E+02</pdfrwt>
<pdfrwt beam="2">  1       -3 0.66035714E-01 0.85756968E+02</pdfrwt>
<totfact> 0.34817440E+05</totfact>
</mgrwt>
</event>
<event>
 6    2  0.8544106E+000  0.8700033E+02  0.7546771E-02  0.1310283E+00
         21   -1    0    0  501  502  0.00000000000E+00  0.00000000000E+00  0.49564583044E+01  0.49564583044E+01  0.00000000000E+00 0.  1.
          2   -1    0    0  502    0 -0.00000000000E+00 -0.00000000000E+00 -0.72126270101E+03  0.72126270101E+03  0.00000000000E+00 0. -1.
         24    2    1    2    0    0 -0.12468897612E+02 -0.29835012585E+02 -0.54220350869E+03  0.54913905491E+03  0.80767910768E+02 0.  0.
        -11    1    3    3    0    0 -0.21726363133E+02  0.20627707813E+02 -0.11391749928E+03  0.11779106005E+03  0.00000000000E+00 0.  1.
         12    1    3    3    0    0  0.92574655211E+01 -0.50462720398E+02 -0.42828600941E+03  0.43134799486E+03  0.00000000000E+00 0. -1.
          1    1    1    2  501    0  0.12468897612E+02  0.29835012585E+02 -0.17410273401E+03  0.17708010440E+03  0.00000000000E+00 0. -1.
<mgrwt>
<rscale>  1 0.87000326E+02</rscale>
<asrwt>0</asrwt>
<pdfrwt beam="1">  1       21 0.76253249E-03 0.87000326E+02</pdfrwt>
<pdfrwt beam="2">  1        2 0.11096343E+00 0.87000326E+02</pdfrwt>
<totfact> 0.27241695E+06</totfact>
</mgrwt>
</event>
<event>
 6    2  0.8544106E+000  0.1375805E+03  0.7546771E-02  0.1216622E+00
         21   -1    0    0  501  502  0.00000000000E+00  0.00000000000E+00  0.14450282465E+02  0.14450282465E+02  0.00000000000E+00 0. -1.
          4   -1    0    0  502    0 -0.00000000000E+00 -0.00000000000E+00 -0.11440910760E+04  0.11440910760E+04  0.00000000000E+00 0. -1.
         24    2    1    2    0    0  0.10510186533E+03  0.37345883647E+02 -0.47727946246E+03  0.49671326644E+03  0.80543569842E+02 0.  0.
        -13    1    3    3    0    0  0.26661919099E+02  0.16670884966E+02 -0.34977077691E+02  0.47033735759E+02  0.00000000000E+00 0.  1.
         14    1    3    3    0    0  0.78439946234E+02  0.20674998681E+02 -0.44230238477E+03  0.44967953068E+03  0.00000000000E+00 0. -1.
          3    1    1    2  501    0 -0.10510186533E+03 -0.37345883647E+02 -0.65236133108E+03  0.66182809203E+03  0.00000000000E+00 0. -1.
<mgrwt>
<rscale>  1 0.13758046E+03</rscale>
<asrwt>0</asrwt>
<pdfrwt beam="1">  1       21 0.22231198E-02 0.13758046E+03</pdfrwt>
<pdfrwt beam="2">  1        4 0.17601406E+00 0.13758046E+03</pdfrwt>
<totfact> 0.88517574E+03</totfact>
</mgrwt>
</event>
<event>
 6    2  0.8544106E+000  0.8524243E+02  0.7546771E-02  0.1314800E+00
         -1   -1    0    0    0  501 -0.00000000000E+00  0.00000000000E+00  0.15031562530E+04  0.15031562530E+04  0.00000000000E+00 0.  1.
         21   -1    0    0  501  502  0.00000000000E+00 -0.00000000000E+00 -0.21887006288E+01  0.21887006288E+01  0.00000000000E+00 0.  1.
         24    2    1    2    0    0 -0.27037046348E+02  0.54986196702E+01  0.12388837863E+04  0.12418129117E+04  0.80653797026E+02 0.  0.
        -11    1    3    3    0    0 -0.45458377547E+02 -0.23253077119E+02  0.72482375653E+03  0.72662001605E+03  0.00000000000E+00 0.  1.
         12    1    3    3    0    0  0.18421331199E+02  0.28751696789E+02  0.51406002976E+03  0.51519289563E+03  0.00000000000E+00 0. -1.
         -2    1    1    2    0  502  0.27037046348E+02 -0.54986196702E+01  0.26208376608E+03  0.26353204195E+03  0.00000000000E+00 0.  1.
<mgrwt>
<rscale>  1 0.85242429E+02</rscale>
<asrwt>0</asrwt>
<pdfrwt beam="1">  1       21 0.33672438E-03 0.85242429E+02</pdfrwt>
<pdfrwt beam="2">  1       -1 0.23125398E+00 0.85242429E+02</pdfrwt>
<totfact> 0.19614411E+05</totfact>
</mgrwt>
</event>
<event>
 6    2  0.9758078E+000  0.9023894E+02  0.7546771E-02  0.1302274E+00
         21   -1    0    0  501  502  0.00000000000E+00  0.00000000000E+00  0.19366932018E+02  0.19366932018E+02  0.00000000000E+00 0. -1.
         -3   -1    0    0    0  501 -0.00000000000E+00 -0.00000000000E+00 -0.22074179506E+03  0.22074179506E+03  0.00000000000E+00 0.  1.
         24    2    1    2    0    0  0.29503376054E+02 -0.26944101095E+01 -0.10094039593E+03  0.13539582802E+03  0.85237067470E+02 0.  0.
        -11    1    3    3    0    0  0.17048822761E+02 -0.21883658634E+02 -0.10795942290E+03  0.11146655941E+03  0.00000000000E+00 0.  1.
         12    1    3    3    0    0  0.12454553293E+02  0.19189248525E+02  0.70190269747E+01  0.23929268613E+02  0.00000000000E+00 0. -1.
         -4    1    1    2    0  502 -0.29503376054E+02  0.26944101095E+01 -0.10043446711E+03  0.10471289905E+03  0.00000000000E+00 0.  1.
<mgrwt>
<rscale>  1 0.90238942E+02</rscale>
<asrwt>0</asrwt>
<pdfrwt beam="1">  1       21 0.29795278E-02 0.90238942E+02</pdfrwt>
<pdfrwt beam="2">  1       -3 0.33960278E-01 0.90238942E+02</pdfrwt>
<totfact> 0.24189054E+05</totfact>
</mgrwt>
</event>
<event>
 6    2  0.8544106E+000  0.7667204E+02  0.7546771E-02  0.1338770E+00
         -1   -1    0    0    0  501 -0.00000000000E+00  0.00000000000E+00  0.44698458413E+03  0.44698458413E+03  0.00000000000E+00 0.  1.
         21   -1    0    0  501  502  0.00000000000E+00 -0.00000000000E+00 -0.64827899928E+01  0.64827899928E+01  0.00000000000E+00 0.  1.
         24    2    1    2    0    0  0.93461407682E+01 -0.24460379030E+02  0.37807838673E+03  0.38577437388E+03  0.72062060339E+02 0.  0.
        -11    1    3    3    0    0  0.22302337422E+02 -0.46062248114E+02  0.26903691765E+03  0.27386125687E+03  0.00000000000E+00 0.  1.
         12    1    3    3    0    0 -0.12956196654E+02  0.21601869084E+02  0.10904146909E+03  0.11191311702E+03  0.00000000000E+00 0. -1.
         -2    1    1    2    0  502 -0.93461407682E+01  0.24460379030E+02  0.62423407398E+02  0.67693000234E+02  0.00000000000E+00 0.  1.
<mgrwt>
<rscale>  1 0.76672036E+02</rscale>
<asrwt>0</asrwt>
<pdfrwt beam="1">  1       21 0.99735266E-03 0.76672036E+02</pdfrwt>
<pdfrwt beam="2">  1       -1 0.68766835E-01 0.76672036E+02</pdfrwt>
<totfact> 0.71197328E+05</totfact>
</mgrwt>
</event>
<event>
 6    2  0.8544106E+000  0.8265340E+02  0.7546771E-02  0.1321686E+00
         21   -1    0    0  501  502  0.00000000000E+00  0.00000000000E+00  0.52317720809E+01  0.52317720809E+01  0.00000000000E+00 0.  1.
          2   -1    0    0  502    0 -0.00000000000E+00 -0.00000000000E+00 -0.61883087986E+03  0.61883087986E+03  0.00000000000E+00 0. -1.
         24    2    1    2    0    0  0.22375635820E+01  0.22052847455E+02 -0.35409594382E+03  0.36361452491E+03  0.79625690079E+02 0.  0.
        -11    1    3    3    0    0  0.25057479938E+02 -0.16068283735E+02 -0.70011202708E+02  0.76076511143E+02  0.00000000000E+00 0.  1.
         12    1    3    3    0    0 -0.22819916356E+02  0.38121131190E+02 -0.28408474111E+03  0.28753801376E+03  0.00000000000E+00 0. -1.
          1    1    1    2  501    0 -0.22375635820E+01 -0.22052847455E+02 -0.25950316396E+03  0.26044812703E+03  0.00000000000E+00 0. -1.
<mgrwt>
<rscale>  1 0.82653405E+02</rscale>
<asrwt>0</asrwt>
<pdfrwt beam="1">  1       21 0.80488858E-03 0.82653405E+02</pdfrwt>
<pdfrwt beam="2">  1        2 0.95204684E-01 0.82653405E+02</pdfrwt>
<totfact> 0.29687392E+06</totfact>
</mgrwt>
</event>
<event>
 6    2  0.8544106E+000  0.8331535E+02  0.7546771E-02  0.1319898E+00
          2   -1    0    0  502    0 -0.00000000000E+00  0.00000000000E+00  0.10708115673E+04  0.10708115673E+04  0.00000000000E+00 0. -1.
         21   -1    0    0  501  502  0.00000000000E+00 -0.00000000000E+00 -0.41360698110E+01  0.41360698110E+01  0.00000000000E+00 0.  1.
         24    2    1    2    0    0  0.16081476394E+02 -0.12606988028E+02  0.10264863381E+04  0.10298619569E+04  0.80770649824E+02 0.  0.
        -11    1    3    3    0    0 -0.16451308533E+02 -0.18035905963E+02  0.10559234148E+03  0.10837749783E+03  0.00000000000E+00 0.  1.
         12    1    3    3    0    0  0.32532784927E+02  0.54289179348E+01  0.92089399664E+03  0.92148445906E+03  0.00000000000E+00 0. -1.
          1    1    1    2  501    0 -0.16081476394E+02  0.12606988028E+02  0.40189159368E+02  0.45085680220E+02  0.00000000000E+00 0. -1.
<mgrwt>
<rscale>  1 0.83315352E+02</rscale>
<asrwt>0</asrwt>
<pdfrwt beam="1">  1       21 0.63631928E-03 0.83315352E+02</pdfrwt>
<pdfrwt beam="2">  1        2 0.16474002E+00 0.83315352E+02</pdfrwt>
<totfact> 0.21691591E+06</totfact>
</mgrwt>
</event>
<event>
 6    2  0.8544106E+000  0.1022625E+03  0.7546771E-02  0.1275609E+00
          2   -1    0    0  502    0 -0.00000000000E+00  0.00000000000E+00  0.10112910230E+04  0.10112910230E+04  0.00000000000E+00 0. -1.
         21   -1    0    0  501  502  0.00000000000E+00 -0.00000000000E+00 -0.69709019720E+01  0.69709019720E+01  0.00000000000E+00 0.  1.
         24    2    1    2    0    0  0.22263003711E+02 -0.58648095017E+02  0.71034174387E+03  0.71766497452E+03  0.80761266628E+02 0.  0.
        -11    1    3    3    0    0  0.17009963176E+02 -0.77721227451E+02  0.48780356003E+03  0.49424916917E+03  0.00000000000E+00 0.  1.
         12    1    3    3    0    0  0.52530405357E+01  0.19073132434E+02  0.22253818384E+03  0.22341580536E+03  0.00000000000E+00 0. -1.
          1    1    1    2  501    0 -0.22263003711E+02  0.58648095017E+02  0.29397837714E+03  0.30059695043E+03  0.00000000000E+00 0. -1.
<mgrwt>
<rscale>  1 0.10226252E+03</rscale>
<asrwt>0</asrwt>
<pdfrwt beam="1">  1       21 0.10724473E-02 0.10226252E+03</pdfrwt>
<pdfrwt beam="2">  1        2 0.15558312E+00 0.10226252E+03</pdfrwt>
<totfact> 0.10610245E+06</totfact>
</mgrwt>
</event>
<event>
 6    2  0.8544106E+000  0.8654569E+02  0.7546771E-02  0.1311439E+00
         21   -1    0    0  501  502  0.00000000000E+00  0.00000000000E+00  0.25419744820E+02  0.25419744820E+02  0.00000000000E+00 0. -1.
         -1   -1    0    0    0  501 -0.00000000000E+00 -0.00000000000E+00 -0.18942289116E+03  0.18942289116E+03  0.00000000000E+00 0.  1.
         24    2    1    2    0    0 -0.29982276556E+02 -0.33149554589E+00 -0.16333953581E+03  0.18485118427E+03  0.81185648801E+02 0.  0.
        -13    1    3    3    0    0  0.92457725513E+01 -0.14628560700E+02 -0.13073833395E+03  0.13187869828E+03  0.00000000000E+00 0.  1.
         14    1    3    3    0    0 -0.39228049107E+02  0.14297065154E+02 -0.32601201867E+02  0.52972485990E+02  0.00000000000E+00 0. -1.
         -2    1    1    2    0  502  0.29982276556E+02  0.33149554589E+00 -0.66361053152E+00  0.29991451710E+02  0.00000000000E+00 0.  1.
<mgrwt>
<rscale>  1 0.86545689E+02</rscale>
<asrwt>0</asrwt>
<pdfrwt beam="1">  1       21 0.39107298E-02 0.86545689E+02</pdfrwt>
<pdfrwt beam="2">  1       -1 0.29141985E-01 0.86545689E+02</pdfrwt>
<totfact> 0.37345283E+05</totfact>
</mgrwt>
</event>
<event>
 6    2  0.8544106E+000  0.8326727E+02  0.7546771E-02  0.1320027E+00
         21   -1    0    0  501  502  0.00000000000E+00  0.00000000000E+00  0.49435904484E+02  0.49435904484E+02  0.00000000000E+00 0.  1.
         -1   -1    0    0    0  501 -0.00000000000E+00 -0.00000000000E+00 -0.97988892633E+02  0.97988892633E+02  0.00000000000E+00 0.  1.
         24    2    1    2    0    0  0.16881667251E+02 -0.16235692113E+02 -0.75023167348E+02  0.11207994212E+03  0.79905252643E+02 0.  0.
        -13    1    3    3    0    0  0.10025178136E+02 -0.48112624042E+02 -0.55257500878E+02  0.73950795750E+02  0.00000000000E+00 0.  1.
         14    1    3    3    0    0  0.68564891149E+01  0.31876931929E+02 -0.19765666471E+02  0.38129146374E+02  0.00000000000E+00 0. -1.
         -2    1    1    2    0  502 -0.16881667251E+02  0.16235692113E+02  0.26470179199E+02  0.35344854992E+02  0.00000000000E+00 0.  1.
<mgrwt>
<rscale>  1 0.83267267E+02</rscale>
<asrwt>0</asrwt>
<pdfrwt beam="1">  1       21 0.76055239E-02 0.83267267E+02</pdfrwt>
<pdfrwt beam="2">  1       -1 0.15075214E-01 0.83267267E+02</pdfrwt>
<totfact> 0.35059504E+05</totfact>
</mgrwt>
</event>
<event>
 6    2  0.8544106E+000  0.8342451E+02  0.7546771E-02  0.1319605E+00
          2   -1    0    0  502    0 -0.00000000000E+00  0.00000000000E+00  0.21082102112E+04  0.21082102112E+04  0.00000000000E+00 0. -1.
         21   -1    0    0  501  502  0.00000000000E+00 -0.00000000000E+00 -0.15301636341E+01  0.15301636341E+01  0.00000000000E+00 0. -1.
         24    2    1    2    0    0 -0.43354066457E+01  0.20101289809E+02  0.19405660733E+04  0.19423584462E+04  0.80850422969E+02 0.  0.
        -13    1    3    3    0    0 -0.14856296623E+02 -0.16922044431E+02  0.18428370330E+03  0.18565437899E+03  0.00000000000E+00 0.  1.
         14    1    3    3    0    0  0.10520889977E+02  0.37023334239E+02  0.17562823700E+04  0.17567040672E+04  0.00000000000E+00 0. -1.
          1    1    1    2  501    0  0.43354066457E+01 -0.20101289809E+02  0.16611397426E+03  0.16738192867E+03  0.00000000000E+00 0. -1.
<mgrwt>
<rscale>  1 0.83424508E+02</rscale>
<asrwt>0</asrwt>
<pdfrwt beam="1">  1       21 0.23541148E-03 0.83424508E+02</pdfrwt>
<pdfrwt beam="2">  1        2 0.32433771E+00 0.83424508E+02</pdfrwt>
<totfact> 0.28814773E+06</totfact>
</mgrwt>
</event>
<event>
 6    2  0.8544106E+000  0.1319930E+03  0.7546771E-02  0.1224528E+00
         21   -1    0    0  501  502  0.00000000000E+00  0.00000000000E+00  0.33178559914E+02  0.33178559914E+02  0.00000000000E+00 0. -1.
          2   -1    0    0  502    0 -0.00000000000E+00 -0.00000000000E+00 -0.55378625670E+03  0.55378625670E+03  0.00000000000E+00 0. -1.
         24    2    1    2    0    0 -0.41031804629E+02 -0.10051753821E+03 -0.41507449316E+03  0.43555596104E+03  0.75065144029E+02 0.  0.
        -11    1    3    3    0    0 -0.12892214149E+02 -0.45274651034E+01 -0.69080306424E+01  0.15311042201E+02  0.00000000000E+00 0.  1.
         12    1    3    3    0    0 -0.28139590481E+02 -0.95990073104E+02 -0.40816646252E+03  0.42024491884E+03  0.00000000000E+00 0. -1.
          1    1    1    2  501    0  0.41031804629E+02  0.10051753821E+03 -0.10553320363E+03  0.15140885557E+03  0.00000000000E+00 0. -1.
<mgrwt>
<rscale>  1 0.13199303E+03</rscale>
<asrwt>0</asrwt>
<pdfrwt beam="1">  1       21 0.51043942E-02 0.13199303E+03</pdfrwt>
<pdfrwt beam="2">  1        2 0.85197879E-01 0.13199303E+03</pdfrwt>
<totfact> 0.17850468E+05</totfact>
</mgrwt>
</event>
<event>
 6    2  0.8544106E+000  0.1071980E+03  0.7546771E-02  0.1265849E+00
         21   -1    0    0  501  502  0.00000000000E+00  0.00000000000E+00  0.17681487907E+03  0.17681487907E+03  0.00000000000E+00 0. -1.
          2   -1    0    0  502    0 -0.00000000000E+00 -0.00000000000E+00 -0.47617254078E+03  0.47617254078E+03  0.00000000000E+00 0. -1.
         24    2    1    2    0    0 -0.48592484963E+02 -0.53477559838E+02 -0.46239352446E+03  0.47465690776E+03  0.79185412925E+02 0.  0.
        -13    1    3    3    0    0 -0.37548544694E+02 -0.92083647991E+01 -0.73056286606E+02  0.82655357985E+02  0.00000000000E+00 0.  1.
         14    1    3    3    0    0 -0.11043940269E+02 -0.44269195038E+02 -0.38933723785E+03  0.39200154977E+03  0.00000000000E+00 0. -1.
          1    1    1    2  501    0  0.48592484963E+02  0.53477559838E+02  0.16303586274E+03  0.17833051209E+03  0.00000000000E+00 0. -1.
<mgrwt>
<rscale>  1 0.10719799E+03</rscale>
<asrwt>0</asrwt>
<pdfrwt beam="1">  1       21 0.27202290E-01 0.10719799E+03</pdfrwt>
<pdfrwt beam="2">  1        2 0.73257313E-01 0.10719799E+03</pdfrwt>
<totfact> 0.10820368E+04</totfact>
</mgrwt>
</event>
<event>
 6    2  0.8544106E+000  0.8379207E+02  0.7546771E-02  0.1318622E+00
         21   -1    0    0  501  502  0.00000000000E+00  0.00000000000E+00  0.46530450855E+01  0.46530450855E+01  0.00000000000E+00 0.  1.
          2   -1    0    0  502    0 -0.00000000000E+00 -0.00000000000E+00 -0.11387209602E+04  0.11387209602E+04  0.00000000000E+00 0. -1.
         24    2    1    2    0    0 -0.22596797705E+02 -0.10432211819E+02 -0.10861558898E+04  0.10893831868E+04  0.80010402208E+02 0.  0.
        -13    1    3    3    0    0 -0.45274860098E+02 -0.51467488473E+01 -0.96098917890E+03  0.96206886653E+03  0.00000000000E+00 0.  1.
         14    1    3    3    0    0  0.22678062394E+02 -0.52854629715E+01 -0.12516671087E+03  0.12731432025E+03  0.00000000000E+00 0. -1.
          1    1    1    2  501    0  0.22596797705E+02  0.10432211819E+02 -0.47912025375E+02  0.53990818529E+02  0.00000000000E+00 0. -1.
<mgrwt>
<rscale>  1 0.83792069E+02</rscale>
<asrwt>0</asrwt>
<pdfrwt beam="1">  1       21 0.71585220E-03 0.83792069E+02</pdfrwt>
<pdfrwt beam="2">  1        2 0.17518806E+00 0.83792069E+02</pdfrwt>
<totfact> 0.16585301E+06</totfact>
</mgrwt>
</event>
<event>
 6    2  0.8544106E+000  0.8339685E+02  0.7546771E-02  0.1319679E+00
          2   -1    0    0  502    0 -0.00000000000E+00  0.00000000000E+00  0.84413836706E+02  0.84413836706E+02  0.00000000000E+00 0. -1.
         21   -1    0    0  501  502  0.00000000000E+00 -0.00000000000E+00 -0.35516083276E+02  0.35516083276E+02  0.00000000000E+00 0.  1.
         24    2    1    2    0    0  0.14702668846E+02  0.20164971233E+02  0.30008977377E+02  0.88631670881E+02  0.79575371968E+02 0.  0.
        -13    1    3    3    0    0  0.73108376875E+01  0.13085197281E+02 -0.26908296878E+02  0.30801415169E+02  0.00000000000E+00 0.  1.
         14    1    3    3    0    0  0.73918311582E+01  0.70797739519E+01  0.56917274255E+02  0.57830255711E+02  0.00000000000E+00 0. -1.
          1    1    1    2  501    0 -0.14702668846E+02 -0.20164971233E+02  0.18888776053E+02  0.31298249101E+02  0.00000000000E+00 0. -1.
<mgrwt>
<rscale>  1 0.83396849E+02</rscale>
<asrwt>0</asrwt>
<pdfrwt beam="1">  1       21 0.54640128E-02 0.83396849E+02</pdfrwt>
<pdfrwt beam="2">  1        2 0.12986744E-01 0.83396849E+02</pdfrwt>
<totfact> 0.11962229E+06</totfact>
</mgrwt>
</event>
<event>
 6    2  0.8544106E+000  0.8069674E+02  0.7546771E-02  0.1327086E+00
         -1   -1    0    0    0  501 -0.00000000000E+00  0.00000000000E+00  0.12698688718E+03  0.12698688718E+03  0.00000000000E+00 0.  1.
         21   -1    0    0  501  502  0.00000000000E+00 -0.00000000000E+00 -0.21257620319E+02  0.21257620319E+02  0.00000000000E+00 0. -1.
         24    2    1    2    0    0  0.13124059848E+02 -0.15263029112E+02  0.97331766304E+02  0.12643352356E+03  0.78145774962E+02 0.  0.
        -13    1    3    3    0    0 -0.49206477370E+01 -0.44144567815E+02  0.69359031317E+02  0.82362800262E+02  0.00000000000E+00 0.  1.
         14    1    3    3    0    0  0.18044707585E+02  0.28881538703E+02  0.27972734987E+02  0.44070723302E+02  0.00000000000E+00 0. -1.
         -2    1    1    2    0  502 -0.13124059848E+02  0.15263029112E+02  0.83975005549E+01  0.21810983934E+02  0.00000000000E+00 0.  1.
<mgrwt>
<rscale>  1 0.80696736E+02</rscale>
<asrwt>0</asrwt>
<pdfrwt beam="1">  1       21 0.32704032E-02 0.80696736E+02</pdfrwt>
<pdfrwt beam="2">  1       -1 0.19536444E-01 0.80696736E+02</pdfrwt>
<totfact> 0.94628861E+05</totfact>
</mgrwt>
</event>
<event>
 6    2  0.8544106E+000  0.9417820E+02  0.7546771E-02  0.1293038E+00
          2   -1    0    0  502    0 -0.00000000000E+00  0.00000000000E+00  0.13354677949E+04  0.13354677949E+04  0.00000000000E+00 0. -1.
         21   -1    0    0  501  502  0.00000000000E+00 -0.00000000000E+00 -0.37509048089E+01  0.37509048089E+01  0.00000000000E+00 0.  1.
         24    2    1    2    0    0 -0.47343446651E+02 -0.12129136965E+01  0.89508843664E+03  0.90002935618E+03  0.81404296509E+02 0.  0.
        -13    1    3    3    0    0 -0.53819256070E+02 -0.21728647186E+02  0.37216415237E+03  0.37666271748E+03  0.00000000000E+00 0.  1.
         14    1    3    3    0    0  0.64758094186E+01  0.20515733489E+02  0.52292428427E+03  0.52336663871E+03  0.00000000000E+00 0. -1.
          1    1    1    2  501    0  0.47343446651E+02  0.12129136965E+01  0.43662845341E+03  0.43918934348E+03  0.00000000000E+00 0. -1.
<mgrwt>
<rscale>  1 0.94178196E+02</rscale>
<asrwt>0</asrwt>
<pdfrwt beam="1">  1       21 0.57706334E-03 0.94178196E+02</pdfrwt>
<pdfrwt beam="2">  1        2 0.20545621E+00 0.94178196E+02</pdfrwt>
<totfact> 0.18308667E+06</totfact>
</mgrwt>
</event>
<event>
 6    2  0.8544106E+000  0.8319322E+02  0.7546771E-02  0.1320226E+00
         21   -1    0    0  501  502  0.00000000000E+00  0.00000000000E+00  0.64394255266E+01  0.64394255266E+01  0.00000000000E+00 0.  1.
          2   -1    0    0  502    0 -0.00000000000E+00 -0.00000000000E+00 -0.45314265740E+03  0.45314265740E+03  0.00000000000E+00 0. -1.
         24    2    1    2    0    0 -0.71658886525E+01  0.21366865419E+02 -0.30698759131E+03  0.31806051879E+03  0.80082579228E+02 0.  0.
        -11    1    3    3    0    0 -0.41563330427E+02 -0.91428170590E+00 -0.13494012859E+03  0.14119909579E+03  0.00000000000E+00 0.  1.
         12    1    3    3    0    0  0.34397441774E+02  0.22281147125E+02 -0.17204746272E+03  0.17686142300E+03  0.00000000000E+00 0. -1.
          1    1    1    2  501    0  0.71658886525E+01 -0.21366865419E+02 -0.13971564056E+03  0.14152156414E+03  0.00000000000E+00 0. -1.
<mgrwt>
<rscale>  1 0.83193223E+02</rscale>
<asrwt>0</asrwt>
<pdfrwt beam="1">  1       21 0.99068071E-03 0.83193223E+02</pdfrwt>
<pdfrwt beam="2">  1        2 0.69714265E-01 0.83193223E+02</pdfrwt>
<totfact> 0.30202958E+06</totfact>
</mgrwt>
</event>
<event>
 6    2  0.8544106E+000  0.7203546E+02  0.7546771E-02  0.1353305E+00
         21   -1    0    0  501  502  0.00000000000E+00  0.00000000000E+00  0.39438226456E+01  0.39438226456E+01  0.00000000000E+00 0.  1.
          2   -1    0    0  502    0 -0.00000000000E+00 -0.00000000000E+00 -0.65046355669E+03  0.65046355669E+03  0.00000000000E+00 0. -1.
         24    2    1    2    0    0 -0.11337102696E+02 -0.26895106744E+02 -0.44845421301E+03  0.45420291563E+03  0.65857655119E+02 0.  0.
        -11    1    3    3    0    0 -0.22045111014E+02 -0.15360163405E+02 -0.63800593001E+02  0.69227431028E+02  0.00000000000E+00 0.  1.
         12    1    3    3    0    0  0.10708008318E+02 -0.11534943338E+02 -0.38465362000E+03  0.38497548460E+03  0.00000000000E+00 0. -1.
          1    1    1    2  501    0  0.11337102696E+02  0.26895106744E+02 -0.19806552104E+03  0.20020446371E+03  0.00000000000E+00 0. -1.
<mgrwt>
<rscale>  1 0.72035459E+02</rscale>
<asrwt>0</asrwt>
<pdfrwt beam="1">  1       21 0.60674205E-03 0.72035459E+02</pdfrwt>
<pdfrwt beam="2">  1        2 0.10007130E+00 0.72035459E+02</pdfrwt>
<totfact> 0.42613737E+06</totfact>
</mgrwt>
</event>
<event>
 6    2  0.8544106E+000  0.1077958E+03  0.7546771E-02  0.1264707E+00
         21   -1    0    0  501  502  0.00000000000E+00  0.00000000000E+00  0.38372205372E+01  0.38372205372E+01  0.00000000000E+00 0.  1.
          2   -1    0    0  502    0 -0.00000000000E+00 -0.00000000000E+00 -0.20897136493E+04  0.20897136493E+04  0.00000000000E+00 0. -1.
         24    2    1    2    0    0 -0.45535594469E+02 -0.49934176703E+02 -0.10654627317E+04  0.10709018463E+04  0.83982255351E+02 0.  0.
        -13    1    3    3    0    0 -0.39679244899E+02 -0.17093959588E+02 -0.19194408250E+03  0.19674647833E+03  0.00000000000E+00 0.  1.
         14    1    3    3    0    0 -0.58563495708E+01 -0.32840217115E+02 -0.87351864925E+03  0.87415536793E+03  0.00000000000E+00 0. -1.
          1    1    1    2  501    0  0.45535594469E+02  0.49934176703E+02 -0.10204136971E+04  0.10226490236E+04  0.00000000000E+00 0. -1.
<mgrwt>
<rscale>  1 0.10779579E+03</rscale>
<asrwt>0</asrwt>
<pdfrwt beam="1">  1       21 0.59034139E-03 0.10779579E+03</pdfrwt>
<pdfrwt beam="2">  1        2 0.32149454E+00 0.10779579E+03</pdfrwt>
<totfact> 0.73578028E+05</totfact>
</mgrwt>
</event>
<event>
 6    2  0.8544106E+000  0.9492112E+02  0.7546771E-02  0.1291354E+00
         21   -1    0    0  501  502  0.00000000000E+00  0.00000000000E+00  0.13226760363E+02  0.13226760363E+02  0.00000000000E+00 0.  1.
         -3   -1    0    0    0  501 -0.00000000000E+00 -0.00000000000E+00 -0.43392689308E+03  0.43392689308E+03  0.00000000000E+00 0.  1.
         24    2    1    2    0    0  0.10255836731E+01 -0.49489785760E+02 -0.33496629658E+03  0.34815576773E+03  0.80992148039E+02 0.  0.
        -11    1    3    3    0    0  0.29256397172E+02 -0.58103490105E+02 -0.24384334249E+03  0.25237180511E+03  0.00000000000E+00 0.  1.
         12    1    3    3    0    0 -0.28230813499E+02  0.86137043455E+01 -0.91122954089E+02  0.95783962620E+02  0.00000000000E+00 0. -1.
         -4    1    1    2    0  502 -0.10255836731E+01  0.49489785760E+02 -0.85733836135E+02  0.98997885709E+02  0.00000000000E+00 0.  1.
<mgrwt>
<rscale>  1 0.94921119E+02</rscale>
<asrwt>0</asrwt>
<pdfrwt beam="1">  1       21 0.20348864E-02 0.94921119E+02</pdfrwt>
<pdfrwt beam="2">  1       -3 0.66757977E-01 0.94921119E+02</pdfrwt>
<totfact> 0.11940820E+05</totfact>
</mgrwt>
</event>
<event>
 6    2  0.8544106E+000  0.9067797E+02  0.7546771E-02  0.1301218E+00
          2   -1    0    0  502    0 -0.00000000000E+00  0.00000000000E+00  0.18277135364E+03  0.18277135364E+03  0.00000000000E+00 0. -1.
         21   -1    0    0  501  502  0.00000000000E+00 -0.00000000000E+00 -0.39917771592E+02  0.39917771592E+02  0.00000000000E+00 0. -1.
         24    2    1    2    0    0 -0.28888408826E+02  0.32496375582E+02  0.15317255714E+03  0.17800091831E+03  0.79573488476E+02 0.  0.
        -13    1    3    3    0    0  0.82011455382E+01 -0.20374643218E+02  0.18787334743E+02  0.28902401650E+02  0.00000000000E+00 0.  1.
         14    1    3    3    0    0 -0.37089554364E+02  0.52871018799E+02  0.13438522240E+03  0.14909851666E+03  0.00000000000E+00 0. -1.
          1    1    1    2  501    0  0.28888408826E+02 -0.32496375582E+02 -0.10318975095E+02  0.44688206917E+02  0.00000000000E+00 0. -1.
<mgrwt>
<rscale>  1 0.90677972E+02</rscale>
<asrwt>0</asrwt>
<pdfrwt beam="1">  1       21 0.61411957E-02 0.90677972E+02</pdfrwt>
<pdfrwt beam="2">  1        2 0.28118669E-01 0.90677972E+02</pdfrwt>
<totfact> 0.41687600E+05</totfact>
</mgrwt>
</event>
<event>
 6    2  0.8544106E+000  0.8611289E+02  0.7546771E-02  0.1312548E+00
         21   -1    0    0  501  502  0.00000000000E+00  0.00000000000E+00  0.15852495441E+02  0.15852495441E+02  0.00000000000E+00 0.  1.
         -1   -1    0    0    0  501 -0.00000000000E+00 -0.00000000000E+00 -0.34136324102E+03  0.34136324102E+03  0.00000000000E+00 0.  1.
         24    2    1    2    0    0 -0.20447234726E+02 -0.28359348672E+02 -0.30446394529E+03  0.31640752813E+03  0.78696174048E+02 0.  0.
        -13    1    3    3    0    0 -0.49901291889E+02 -0.17891566716E+02 -0.22135798296E+03  0.22761723070E+03  0.00000000000E+00 0.  1.
         14    1    3    3    0    0  0.29454057163E+02 -0.10467781956E+02 -0.83105962325E+02  0.88790297423E+02  0.00000000000E+00 0. -1.
         -2    1    1    2    0  502  0.20447234726E+02  0.28359348672E+02 -0.21046800292E+02  0.40808208335E+02  0.00000000000E+00 0.  1.
<mgrwt>
<rscale>  1 0.86112890E+02</rscale>
<asrwt>0</asrwt>
<pdfrwt beam="1">  1       21 0.24388456E-02 0.86112890E+02</pdfrwt>
<pdfrwt beam="2">  1       -1 0.52517418E-01 0.86112890E+02</pdfrwt>
<totfact> 0.29045169E+05</totfact>
</mgrwt>
</event>
<event>
 6    2  0.8544106E+000  0.1075211E+03  0.7546771E-02  0.1265231E+00
          4   -1    0    0  502    0 -0.00000000000E+00  0.00000000000E+00  0.11757950104E+03  0.11757950104E+03  0.00000000000E+00 0. -1.
         21   -1    0    0  501  502  0.00000000000E+00 -0.00000000000E+00 -0.73119086309E+02  0.73119086309E+02  0.00000000000E+00 0.  1.
         24    2    1    2    0    0  0.39161530528E+02  0.57422922042E+02  0.54377051604E+02  0.12048920667E+03  0.82035161565E+02 0.  0.
        -11    1    3    3    0    0  0.44554443015E+02  0.66718285195E+02  0.66560412250E+02  0.10424354393E+03  0.00000000000E+00 0.  1.
         12    1    3    3    0    0 -0.53929124868E+01 -0.92953631536E+01 -0.12183360645E+02  0.16245662740E+02  0.00000000000E+00 0. -1.
          3    1    1    2  501    0 -0.39161530528E+02 -0.57422922042E+02 -0.99166368708E+01  0.70209380684E+02  0.00000000000E+00 0. -1.
<mgrwt>
<rscale>  1 0.10752109E+03</rscale>
<asrwt>0</asrwt>
<pdfrwt beam="1">  1       21 0.11249090E-01 0.10752109E+03</pdfrwt>
<pdfrwt beam="2">  1        4 0.18089154E-01 0.10752109E+03</pdfrwt>
<totfact> 0.69647254E+04</totfact>
</mgrwt>
</event>
<event>
 6    2  0.8544106E+000  0.8300571E+02  0.7546771E-02  0.1320732E+00
         21   -1    0    0  501  502  0.00000000000E+00  0.00000000000E+00  0.66955421350E+02  0.66955421350E+02  0.00000000000E+00 0. -1.
         -3   -1    0    0    0  501 -0.00000000000E+00 -0.00000000000E+00 -0.40222531176E+02  0.40222531176E+02  0.00000000000E+00 0.  1.
         24    2    1    2    0    0 -0.95790766717E+00  0.20762041658E+02  0.21227462977E+02  0.85677029534E+02  0.80361484832E+02 0.  0.
        -13    1    3    3    0    0 -0.10468214660E+02  0.39680893454E+02 -0.15017621716E+02  0.43699951779E+02  0.00000000000E+00 0.  1.
         14    1    3    3    0    0  0.95103069924E+01 -0.18918851797E+02  0.36245084693E+02  0.41977077755E+02  0.00000000000E+00 0. -1.
         -4    1    1    2    0  502  0.95790766717E+00 -0.20762041658E+02  0.55054271969E+01  0.21500922992E+02  0.00000000000E+00 0.  1.
<mgrwt>
<rscale>  1 0.83005712E+02</rscale>
<asrwt>0</asrwt>
<pdfrwt beam="1">  1       21 0.10300834E-01 0.83005712E+02</pdfrwt>
<pdfrwt beam="2">  1       -3 0.61880817E-02 0.83005712E+02</pdfrwt>
<totfact> 0.53907773E+05</totfact>
</mgrwt>
</event>
<event>
 6    2  0.8544106E+000  0.8886795E+02  0.7546771E-02  0.1305617E+00
         21   -1    0    0  501  502  0.00000000000E+00  0.00000000000E+00  0.16101988327E+03  0.16101988327E+03  0.00000000000E+00 0. -1.
          4   -1    0    0  502    0 -0.00000000000E+00 -0.00000000000E+00 -0.92235591831E+02  0.92235591831E+02  0.00000000000E+00 0. -1.
         24    2    1    2    0    0 -0.34387402026E+02  0.43704332787E+01 -0.68156998557E+02  0.11199503828E+03  0.81828589390E+02 0.  0.
        -13    1    3    3    0    0 -0.25440315283E+02 -0.23258410745E+02  0.35288812846E+01  0.34649910753E+02  0.00000000000E+00 0.  1.
         14    1    3    3    0    0 -0.89470867424E+01  0.27628844023E+02 -0.71685879842E+02  0.77345127526E+02  0.00000000000E+00 0. -1.
          3    1    1    2  501    0  0.34387402026E+02 -0.43704332787E+01  0.13694129000E+03  0.14126043682E+03  0.00000000000E+00 0. -1.
<mgrwt>
<rscale>  1 0.88867948E+02</rscale>
<asrwt>0</asrwt>
<pdfrwt beam="1">  1       21 0.24772290E-01 0.88867948E+02</pdfrwt>
<pdfrwt beam="2">  1        4 0.14190091E-01 0.88867948E+02</pdfrwt>
<totfact> 0.24892598E+04</totfact>
</mgrwt>
</event>
<event>
 6    2  0.8544106E+000  0.1114660E+03  0.7546771E-02  0.1257879E+00
          2   -1    0    0  502    0 -0.00000000000E+00  0.00000000000E+00  0.74811835234E+03  0.74811835234E+03  0.00000000000E+00 0. -1.
         21   -1    0    0  501  502  0.00000000000E+00 -0.00000000000E+00 -0.13115646311E+02  0.13115646311E+02  0.00000000000E+00 0.  1.
         24    2    1    2    0    0  0.27368223694E+02  0.72731484006E+02  0.31592852405E+03  0.33501567615E+03  0.79911091370E+02 0.  0.
        -11    1    3    3    0    0 -0.13821667924E+02  0.15200408883E+02  0.13888923726E+02  0.24799055157E+02  0.00000000000E+00 0.  1.
         12    1    3    3    0    0  0.41189891617E+02  0.57531075123E+02  0.30203960033E+03  0.31021662100E+03  0.00000000000E+00 0. -1.
          1    1    1    2  501    0 -0.27368223694E+02 -0.72731484006E+02  0.41907418197E+03  0.42621832249E+03  0.00000000000E+00 0. -1.
<mgrwt>
<rscale>  1 0.11146601E+03</rscale>
<asrwt>0</asrwt>
<pdfrwt beam="1">  1       21 0.20177923E-02 0.11146601E+03</pdfrwt>
<pdfrwt beam="2">  1        2 0.11509510E+00 0.11146601E+03</pdfrwt>
<totfact> 0.57453509E+05</totfact>
</mgrwt>
</event>
<event>
 6    2  0.8544106E+000  0.8613501E+02  0.7546771E-02  0.1312491E+00
         -3   -1    0    0    0  501 -0.00000000000E+00  0.00000000000E+00  0.12057800458E+03  0.12057800458E+03  0.00000000000E+00 0.  1.
         21   -1    0    0  501  502  0.00000000000E+00 -0.00000000000E+00 -0.55379375362E+02  0.55379375362E+02  0.00000000000E+00 0.  1.
         24    2    1    2    0    0 -0.35183751690E+02  0.85733490305E+01  0.95596088642E+02  0.12867731823E+03  0.78152679846E+02 0.  0.
        -11    1    3    3    0    0 -0.24044959861E+02  0.38946708918E+02  0.81319240240E+02  0.93315727846E+02  0.00000000000E+00 0.  1.
         12    1    3    3    0    0 -0.11138791829E+02 -0.30373359888E+02  0.14276848402E+02  0.35361590385E+02  0.00000000000E+00 0. -1.
         -4    1    1    2    0  502  0.35183751690E+02 -0.85733490305E+01 -0.30397459419E+02  0.47280061715E+02  0.00000000000E+00 0.  1.
<mgrwt>
<rscale>  1 0.86135011E+02</rscale>
<asrwt>0</asrwt>
<pdfrwt beam="1">  1       21 0.85199039E-02 0.86135011E+02</pdfrwt>
<pdfrwt beam="2">  1       -3 0.18550462E-01 0.86135011E+02</pdfrwt>
<totfact> 0.12331905E+05</totfact>
</mgrwt>
</event>
<event>
 6    2  0.8544106E+000  0.9599389E+02  0.7546771E-02  0.1288953E+00
          2   -1    0    0  502    0 -0.00000000000E+00  0.00000000000E+00  0.12317263878E+04  0.12317263878E+04  0.00000000000E+00 0. -1.
         21   -1    0    0  501  502  0.00000000000E+00 -0.00000000000E+00 -0.60392813356E+01  0.60392813356E+01  0.00000000000E+00 0. -1.
         24    2    1    2    0    0 -0.60011238536E+01 -0.51146353880E+02  0.10580829602E+04  0.10624285286E+04  0.81011509856E+02 0.  0.
        -11    1    3    3    0    0  0.28213724931E+02 -0.35868510717E+02  0.30309159026E+03  0.30650787335E+03  0.00000000000E+00 0.  1.
         12    1    3    3    0    0 -0.34214848784E+02 -0.15277843164E+02  0.75499136996E+03  0.75592065528E+03  0.00000000000E+00 0. -1.
          1    1    1    2  501    0  0.60011238536E+01  0.51146353880E+02  0.16760414619E+03  0.17533714046E+03  0.00000000000E+00 0. -1.
<mgrwt>
<rscale>  1 0.95993894E+02</rscale>
<asrwt>0</asrwt>
<pdfrwt beam="1">  1       21 0.92912119E-03 0.95993894E+02</pdfrwt>
<pdfrwt beam="2">  1        2 0.18949617E+00 0.95993894E+02</pdfrwt>
<totfact> 0.99488540E+05</totfact>
</mgrwt>
</event>
<event>
 6    2  0.8544106E+000  0.8958061E+02  0.7546771E-02  0.1303871E+00
          2   -1    0    0  502    0 -0.00000000000E+00  0.00000000000E+00  0.16359097756E+04  0.16359097756E+04  0.00000000000E+00 0. -1.
         21   -1    0    0  501  502  0.00000000000E+00 -0.00000000000E+00 -0.24863413053E+01  0.24863413053E+01  0.00000000000E+00 0.  1.
         24    2    1    2    0    0 -0.15549541850E+01 -0.36508368025E+02  0.12637826150E+04  0.12669535048E+04  0.81788791795E+02 0.  0.
        -13    1    3    3    0    0  0.31749613402E+02 -0.50347680610E+01  0.23967160871E+03  0.24181783818E+03  0.00000000000E+00 0.  1.
         14    1    3    3    0    0 -0.33304567587E+02 -0.31473599964E+02  0.10241110063E+04  0.10251356666E+04  0.00000000000E+00 0. -1.
          1    1    1    2  501    0  0.15549541850E+01  0.36508368025E+02  0.36964081930E+03  0.37144261214E+03  0.00000000000E+00 0. -1.
<mgrwt>
<rscale>  1 0.89580608E+02</rscale>
<asrwt>0</asrwt>
<pdfrwt beam="1">  1       21 0.38251535E-03 0.89580608E+02</pdfrwt>
<pdfrwt beam="2">  1        2 0.25167757E+00 0.89580608E+02</pdfrwt>
<totfact> 0.23993093E+06</totfact>
</mgrwt>
</event>
<event>
 6    2  0.8544106E+000  0.8622502E+02  0.7546771E-02  0.1312260E+00
         -1   -1    0    0    0  501 -0.00000000000E+00  0.00000000000E+00  0.52816836356E+03  0.52816836356E+03  0.00000000000E+00 0.  1.
         21   -1    0    0  501  502  0.00000000000E+00 -0.00000000000E+00 -0.66077561505E+01  0.66077561505E+01  0.00000000000E+00 0. -1.
         24    2    1    2    0    0  0.22575615405E+02 -0.10200149884E+02  0.46646455771E+03  0.47436688068E+03  0.82589662862E+02 0.  0.
        -11    1    3    3    0    0  0.13559020761E+02 -0.46526597990E+02  0.28365272288E+03  0.28776281650E+03  0.00000000000E+00 0.  1.
         12    1    3    3    0    0  0.90165946444E+01  0.36326448106E+02  0.18281183484E+03  0.18660406418E+03  0.00000000000E+00 0. -1.
         -2    1    1    2    0  502 -0.22575615405E+02  0.10200149884E+02  0.55096049700E+02  0.60409239038E+02  0.00000000000E+00 0.  1.
<mgrwt>
<rscale>  1 0.86225019E+02</rscale>
<asrwt>0</asrwt>
<pdfrwt beam="1">  1       21 0.10165783E-02 0.86225019E+02</pdfrwt>
<pdfrwt beam="2">  1       -1 0.81256638E-01 0.86225019E+02</pdfrwt>
<totfact> 0.50301381E+05</totfact>
</mgrwt>
</event>
<event>
 6    2  0.8544106E+000  0.8640528E+02  0.7546771E-02  0.1311798E+00
         21   -1    0    0  501  502  0.00000000000E+00  0.00000000000E+00  0.52363027502E+02  0.52363027502E+02  0.00000000000E+00 0. -1.
         -3   -1    0    0    0  501 -0.00000000000E+00 -0.00000000000E+00 -0.58136137327E+02  0.58136137327E+02  0.00000000000E+00 0.  1.
         24    2    1    2    0    0  0.23407884518E+02 -0.82547585341E+00 -0.89275850507E+01  0.86865265828E+02  0.83170079744E+02 0.  0.
        -13    1    3    3    0    0  0.81799400092E+01  0.33503410585E+02 -0.28296085292E+02  0.44610070412E+02  0.00000000000E+00 0.  1.
         14    1    3    3    0    0  0.15227944509E+02 -0.34328886438E+02  0.19368500241E+02  0.42255195416E+02  0.00000000000E+00 0. -1.
         -4    1    1    2    0  502 -0.23407884518E+02  0.82547585341E+00  0.31544752251E+01  0.23633899000E+02  0.00000000000E+00 0.  1.
<mgrwt>
<rscale>  1 0.86405281E+02</rscale>
<asrwt>0</asrwt>
<pdfrwt beam="1">  1       21 0.80558504E-02 0.86405281E+02</pdfrwt>
<pdfrwt beam="2">  1       -3 0.89440211E-02 0.86405281E+02</pdfrwt>
<totfact> 0.45938820E+05</totfact>
</mgrwt>
</event>
<event>
 6    2  0.8544106E+000  0.8781363E+02  0.7546771E-02  0.1308234E+00
          2   -1    0    0  502    0 -0.00000000000E+00  0.00000000000E+00  0.48447809594E+03  0.48447809594E+03  0.00000000000E+00 0. -1.
         21   -1    0    0  501  502  0.00000000000E+00 -0.00000000000E+00 -0.22572758221E+02  0.22572758221E+02  0.00000000000E+00 0. -1.
         24    2    1    2    0    0  0.18242568318E+02 -0.29269773826E+02  0.46424990633E+03  0.47248196698E+03  0.80757183176E+02 0.  0.
        -13    1    3    3    0    0  0.41731842475E+02  0.15185032179E+01  0.33390053642E+03  0.33650173959E+03  0.00000000000E+00 0.  1.
         14    1    3    3    0    0 -0.23489274157E+02 -0.30788277044E+02  0.13034936992E+03  0.13598022739E+03  0.00000000000E+00 0. -1.
          1    1    1    2  501    0 -0.18242568318E+02  0.29269773826E+02 -0.23445686156E+01  0.34568887177E+02  0.00000000000E+00 0. -1.
<mgrwt>
<rscale>  1 0.87813630E+02</rscale>
<asrwt>0</asrwt>
<pdfrwt beam="1">  1       21 0.34727324E-02 0.87813630E+02</pdfrwt>
<pdfrwt beam="2">  1        2 0.74535084E-01 0.87813630E+02</pdfrwt>
<totfact> 0.38272571E+05</totfact>
</mgrwt>
</event>
<event>
 6    2  0.8544106E+000  0.8638349E+02  0.7546771E-02  0.1311854E+00
         21   -1    0    0  501  502  0.00000000000E+00  0.00000000000E+00  0.64586320307E+01  0.64586320307E+01  0.00000000000E+00 0.  1.
          2   -1    0    0  502    0 -0.00000000000E+00 -0.00000000000E+00 -0.51789113434E+03  0.51789113434E+03  0.00000000000E+00 0. -1.
         24    2    1    2    0    0 -0.16412664262E+02 -0.21841624355E+02 -0.34269323637E+03  0.35341301791E+03  0.81949221326E+02 0.  0.
        -13    1    3    3    0    0 -0.32400938480E+02 -0.25974853550E+02 -0.79414059617E+02  0.89616442108E+02  0.00000000000E+00 0.  1.
         14    1    3    3    0    0  0.15988274218E+02  0.41332291949E+01 -0.26327917675E+03  0.26379657581E+03  0.00000000000E+00 0. -1.
          1    1    1    2  501    0  0.16412664262E+02  0.21841624355E+02 -0.16873926594E+03  0.17093674846E+03  0.00000000000E+00 0. -1.
<mgrwt>
<rscale>  1 0.86383488E+02</rscale>
<asrwt>0</asrwt>
<pdfrwt beam="1">  1       21 0.99363579E-03 0.86383488E+02</pdfrwt>
<pdfrwt beam="2">  1        2 0.79675552E-01 0.86383488E+02</pdfrwt>
<totfact> 0.26172725E+06</totfact>
</mgrwt>
</event>
<event>
 6    2  0.8544106E+000  0.8918578E+02  0.7546771E-02  0.1304835E+00
         21   -1    0    0  501  502  0.00000000000E+00  0.00000000000E+00  0.10666915273E+02  0.10666915273E+02  0.00000000000E+00 0. -1.
          2   -1    0    0  502    0 -0.00000000000E+00 -0.00000000000E+00 -0.75777652666E+03  0.75777652666E+03  0.00000000000E+00 0. -1.
         24    2    1    2    0    0  0.10114724509E+01 -0.28327265782E+02 -0.72980314780E+03  0.73523243856E+03  0.84561498993E+02 0.  0.
        -13    1    3    3    0    0 -0.12604711513E+02  0.20493706967E+02 -0.82195339673E+02  0.85644291354E+02  0.00000000000E+00 0.  1.
         14    1    3    3    0    0  0.13616183964E+02 -0.48820972750E+02 -0.64760780812E+03  0.64958814720E+03  0.00000000000E+00 0. -1.
          1    1    1    2  501    0 -0.10114724509E+01  0.28327265782E+02 -0.17306463594E+02  0.33211003378E+02  0.00000000000E+00 0. -1.
<mgrwt>
<rscale>  1 0.89185785E+02</rscale>
<asrwt>0</asrwt>
<pdfrwt beam="1">  1       21 0.16410639E-02 0.89185785E+02</pdfrwt>
<pdfrwt beam="2">  1        2 0.11658101E+00 0.89185785E+02</pdfrwt>
<totfact> 0.77449891E+05</totfact>
</mgrwt>
</event>
<event>
 6    2  0.8544106E+000  0.8797008E+02  0.7546771E-02  0.1307843E+00
         21   -1    0    0  501  502  0.00000000000E+00  0.00000000000E+00  0.13721027055E+02  0.13721027055E+02  0.00000000000E+00 0.  1.
          4   -1    0    0  502    0 -0.00000000000E+00 -0.00000000000E+00 -0.31449892269E+03  0.31449892269E+03  0.00000000000E+00 0. -1.
         24    2    1    2    0    0 -0.34922848914E+02  0.78861262802E+01 -0.25715903696E+03  0.27178945093E+03  0.80355080644E+02 0.  0.
        -13    1    3    3    0    0 -0.19587872086E+02 -0.71295211956E+01 -0.90015083957E+01  0.22705549074E+02  0.00000000000E+00 0.  1.
         14    1    3    3    0    0 -0.15334976828E+02  0.15015647476E+02 -0.24815752856E+03  0.24908390186E+03  0.00000000000E+00 0. -1.
          3    1    1    2  501    0  0.34922848914E+02 -0.78861262802E+01 -0.43618858680E+02  0.56430498815E+02  0.00000000000E+00 0. -1.
<mgrwt>
<rscale>  1 0.87970082E+02</rscale>
<asrwt>0</asrwt>
<pdfrwt beam="1">  1       21 0.21109272E-02 0.87970082E+02</pdfrwt>
<pdfrwt beam="2">  1        4 0.48384450E-01 0.87970082E+02</pdfrwt>
<totfact> 0.17344542E+05</totfact>
</mgrwt>
</event>
<event>
 6    2  0.8544106E+000  0.8335943E+02  0.7546771E-02  0.1319779E+00
         -3   -1    0    0    0  501 -0.00000000000E+00  0.00000000000E+00  0.58281365234E+03  0.58281365234E+03  0.00000000000E+00 0.  1.
         21   -1    0    0  501  502  0.00000000000E+00 -0.00000000000E+00 -0.11569103992E+02  0.11569103992E+02  0.00000000000E+00 0.  1.
         24    2    1    2    0    0  0.10007396868E+02  0.19597562413E+02  0.56554004424E+03  0.57165053665E+03  0.80402624166E+02 0.  0.
        -11    1    3    3    0    0  0.31422541346E+02  0.30105762045E+02  0.50025034058E+03  0.50213955855E+03  0.00000000000E+00 0.  1.
         12    1    3    3    0    0 -0.21415144478E+02 -0.10508199632E+02  0.65289703655E+02  0.69510978097E+02  0.00000000000E+00 0. -1.
         -4    1    1    2    0  502 -0.10007396868E+02 -0.19597562413E+02  0.57045041134E+01  0.22732219685E+02  0.00000000000E+00 0.  1.
<mgrwt>
<rscale>  1 0.83359429E+02</rscale>
<asrwt>0</asrwt>
<pdfrwt beam="1">  1       21 0.17798626E-02 0.83359429E+02</pdfrwt>
<pdfrwt beam="2">  1       -3 0.89663616E-01 0.83359429E+02</pdfrwt>
<totfact> 0.77290689E+04</totfact>
</mgrwt>
</event>
<event>
 6    2  0.8544106E+000  0.1041737E+03  0.7546771E-02  0.1271756E+00
         21   -1    0    0  501  502  0.00000000000E+00  0.00000000000E+00  0.14368745824E+03  0.14368745824E+03  0.00000000000E+00 0.  1.
         -3   -1    0    0    0  501 -0.00000000000E+00 -0.00000000000E+00 -0.50392634664E+02  0.50392634664E+02  0.00000000000E+00 0.  1.
         24    2    1    2    0    0  0.24665593261E+02 -0.60470708467E+02  0.65842294453E+02  0.12323703093E+03  0.81160704663E+02 0.  0.
        -11    1    3    3    0    0  0.39983135914E+02 -0.65977161079E+02  0.28049215294E+02  0.82087730022E+02  0.00000000000E+00 0.  1.
         12    1    3    3    0    0 -0.15317542653E+02  0.55064526119E+01  0.37793079159E+02  0.41149300913E+02  0.00000000000E+00 0. -1.
         -4    1    1    2    0  502 -0.24665593261E+02  0.60470708467E+02  0.27452529118E+02  0.70843061964E+02  0.00000000000E+00 0.  1.
<mgrwt>
<rscale>  1 0.10417369E+03</rscale>
<asrwt>0</asrwt>
<pdfrwt beam="1">  1       21 0.22105763E-01 0.10417369E+03</pdfrwt>
<pdfrwt beam="2">  1       -3 0.77527131E-02 0.10417369E+03</pdfrwt>
<totfact> 0.99230446E+04</totfact>
</mgrwt>
</event>
<event>
 6    2  0.8544106E+000  0.8895715E+02  0.7546771E-02  0.1305397E+00
         21   -1    0    0  501  502  0.00000000000E+00  0.00000000000E+00  0.15500408036E+03  0.15500408036E+03  0.00000000000E+00 0. -1.
         -1   -1    0    0    0  501 -0.00000000000E+00 -0.00000000000E+00 -0.25434218913E+02  0.25434218913E+02  0.00000000000E+00 0.  1.
         24    2    1    2    0    0  0.31644325971E+02  0.14234920131E+02  0.10652685435E+03  0.13878525024E+03  0.81910797033E+02 0.  0.
        -13    1    3    3    0    0 -0.24253789623E+02 -0.70846737282E+01  0.14829460948E+02  0.29297641969E+02  0.00000000000E+00 0.  1.
         14    1    3    3    0    0  0.55898115595E+02  0.21319593859E+02  0.91697393400E+02  0.10948760827E+03  0.00000000000E+00 0. -1.
         -2    1    1    2    0  502 -0.31644325971E+02 -0.14234920131E+02  0.23043007097E+02  0.41653049029E+02  0.00000000000E+00 0.  1.
<mgrwt>
<rscale>  1 0.88957153E+02</rscale>
<asrwt>0</asrwt>
<pdfrwt beam="1">  1       21 0.23846781E-01 0.88957153E+02</pdfrwt>
<pdfrwt beam="2">  1       -1 0.39129568E-02 0.88957153E+02</pdfrwt>
<totfact> 0.34809258E+05</totfact>
</mgrwt>
</event>
<event>
 6    2  0.8544106E+000  0.8563386E+02  0.7546771E-02  0.1313783E+00
          2   -1    0    0  502    0 -0.00000000000E+00  0.00000000000E+00  0.56759267868E+02  0.56759267868E+02  0.00000000000E+00 0. -1.
         21   -1    0    0  501  502  0.00000000000E+00 -0.00000000000E+00 -0.15760529595E+03  0.15760529595E+03  0.00000000000E+00 0. -1.
         24    2    1    2    0    0  0.48810385933E+01  0.24442876617E+02  0.22487740729E+02  0.88537312063E+02  0.81926054397E+02 0.  0.
        -13    1    3    3    0    0 -0.21195798944E+02 -0.19808636692E+02 -0.62562721415E+01  0.29678020850E+02  0.00000000000E+00 0.  1.
         14    1    3    3    0    0  0.26076837538E+02  0.44251513309E+02  0.28744012871E+02  0.58859291212E+02  0.00000000000E+00 0. -1.
          1    1    1    2  501    0 -0.48810385933E+01 -0.24442876617E+02 -0.12333376881E+03  0.12582725176E+03  0.00000000000E+00 0. -1.
<mgrwt>
<rscale>  1 0.85633855E+02</rscale>
<asrwt>0</asrwt>
<pdfrwt beam="1">  1       21 0.24246969E-01 0.85633855E+02</pdfrwt>
<pdfrwt beam="2">  1        2 0.87321950E-02 0.85633855E+02</pdfrwt>
<totfact> 0.14178712E+05</totfact>
</mgrwt>
</event>
<event>
 6    2  0.8544106E+000  0.8478781E+02  0.7546771E-02  0.1315988E+00
          4   -1    0    0  502    0 -0.00000000000E+00  0.00000000000E+00  0.59196528175E+03  0.59196528175E+03  0.00000000000E+00 0. -1.
         21   -1    0    0  501  502  0.00000000000E+00 -0.00000000000E+00 -0.80200032378E+01  0.80200032378E+01  0.00000000000E+00 0. -1.
         24    2    1    2    0    0 -0.26487951845E+02 -0.85024526394E+00  0.23138735065E+03  0.24643270473E+03  0.80539663574E+02 0.  0.
        -11    1    3    3    0    0 -0.13398594099E+02  0.39549129898E+02  0.12891642269E+03  0.13551051634E+03  0.00000000000E+00 0.  1.
         12    1    3    3    0    0 -0.13089357746E+02 -0.40399375162E+02  0.10247092796E+03  0.11092218838E+03  0.00000000000E+00 0. -1.
          3    1    1    2  501    0  0.26487951845E+02  0.85024526394E+00  0.35255792787E+03  0.35355258027E+03  0.00000000000E+00 0. -1.
<mgrwt>
<rscale>  1 0.84787805E+02</rscale>
<asrwt>0</asrwt>
<pdfrwt beam="1">  1       21 0.12338471E-02 0.84787805E+02</pdfrwt>
<pdfrwt beam="2">  1        4 0.91071547E-01 0.84787805E+02</pdfrwt>
<totfact> 0.10575195E+05</totfact>
</mgrwt>
</event>
<event>
 6    2  0.8544106E+000  0.8491632E+02  0.7546771E-02  0.1315652E+00
         -1   -1    0    0    0  501 -0.00000000000E+00  0.00000000000E+00  0.32467418476E+02  0.32467418476E+02  0.00000000000E+00 0.  1.
         21   -1    0    0  501  502  0.00000000000E+00 -0.00000000000E+00 -0.96236931158E+02  0.96236931158E+02  0.00000000000E+00 0. -1.
         24    2    1    2    0    0 -0.24240064099E+01 -0.25643695513E+02 -0.40873569361E+02  0.94241338345E+02  0.80915426552E+02 0.  0.
        -13    1    3    3    0    0 -0.25606911543E+02  0.14438105387E+02 -0.37731735067E+02  0.47831544373E+02  0.00000000000E+00 0.  1.
         14    1    3    3    0    0  0.23182905133E+02 -0.40081800899E+02 -0.31418342944E+01  0.46409793972E+02  0.00000000000E+00 0. -1.
         -2    1    1    2    0  502  0.24240064099E+01  0.25643695513E+02 -0.22895943321E+02  0.34463011290E+02  0.00000000000E+00 0.  1.
<mgrwt>
<rscale>  1 0.84916319E+02</rscale>
<asrwt>0</asrwt>
<pdfrwt beam="1">  1       21 0.14805681E-01 0.84916319E+02</pdfrwt>
<pdfrwt beam="2">  1       -1 0.49949876E-02 0.84916319E+02</pdfrwt>
<totfact> 0.57773074E+05</totfact>
</mgrwt>
</event>
<event>
 6    2  0.8544106E+000  0.1208305E+03  0.7546771E-02  0.1241733E+00
         -1   -1    0    0    0  501 -0.00000000000E+00  0.00000000000E+00  0.19798691279E+03  0.19798691279E+03  0.00000000000E+00 0.  1.
         21   -1    0    0  501  502  0.00000000000E+00 -0.00000000000E+00 -0.56817687264E+02  0.56817687264E+02  0.00000000000E+00 0. -1.
         24    2    1    2    0    0  0.86198466846E+02 -0.28783011494E+02  0.88432386777E+02  0.14973409230E+03  0.79632744081E+02 0.  0.
        -13    1    3    3    0    0  0.25365847237E+02  0.10344012386E+02  0.69888435092E+02  0.75065425849E+02  0.00000000000E+00 0.  1.
         14    1    3    3    0    0  0.60832619609E+02 -0.39127023880E+02  0.18543951685E+02  0.74668666456E+02  0.00000000000E+00 0. -1.
         -2    1    1    2    0  502 -0.86198466846E+02  0.28783011494E+02  0.52736838748E+02  0.10507050775E+03  0.00000000000E+00 0.  1.
<mgrwt>
<rscale>  1 0.12083051E+03</rscale>
<asrwt>0</asrwt>
<pdfrwt beam="1">  1       21 0.87411828E-02 0.12083051E+03</pdfrwt>
<pdfrwt beam="2">  1       -1 0.30459525E-01 0.12083051E+03</pdfrwt>
<totfact> 0.91781810E+04</totfact>
</mgrwt>
</event>
<event>
 6    2  0.8544106E+000  0.1832772E+03  0.7546771E-02  0.1164669E+00
          4   -1    0    0  502    0 -0.00000000000E+00  0.00000000000E+00  0.14368785733E+03  0.14368785733E+03  0.00000000000E+00 0. -1.
         21   -1    0    0  501  502  0.00000000000E+00 -0.00000000000E+00 -0.24416050666E+03  0.24416050666E+03  0.00000000000E+00 0. -1.
         24    2    1    2    0    0 -0.15088825712E+03 -0.75047680275E+02  0.14489505452E+02  0.18384905644E+03  0.72049353464E+02 0.  0.
        -13    1    3    3    0    0 -0.37297939278E+01 -0.28609203767E+02 -0.75065885058E-01  0.28851404434E+02  0.00000000000E+00 0.  1.
         14    1    3    3    0    0 -0.14715846319E+03 -0.46438476508E+02  0.14564571337E+02  0.15499765200E+03  0.00000000000E+00 0. -1.
          3    1    1    2  501    0  0.15088825712E+03  0.75047680275E+02 -0.11496215478E+03  0.20399930755E+03  0.00000000000E+00 0. -1.
<mgrwt>
<rscale>  1 0.18327719E+03</rscale>
<asrwt>0</asrwt>
<pdfrwt beam="1">  1       21 0.37563155E-01 0.18327719E+03</pdfrwt>
<pdfrwt beam="2">  1        4 0.22105824E-01 0.18327719E+03</pdfrwt>
<totfact> 0.53917576E+03</totfact>
</mgrwt>
</event>
<event>
 6    2  0.8544106E+000  0.8653088E+02  0.7546771E-02  0.1311477E+00
          2   -1    0    0  502    0 -0.00000000000E+00  0.00000000000E+00  0.28024200281E+04  0.28024200281E+04  0.00000000000E+00 0. -1.
         21   -1    0    0  501  502  0.00000000000E+00 -0.00000000000E+00 -0.10829201335E+01  0.10829201335E+01  0.00000000000E+00 0.  1.
         24    2    1    2    0    0  0.18367156481E+02 -0.12866449907E+02  0.20372854266E+04  0.20391222382E+04  0.83574488852E+02 0.  0.
        -13    1    3    3    0    0  0.36028425702E+02 -0.62305713926E+01  0.38572523753E+03  0.38745428937E+03  0.00000000000E+00 0.  1.
         14    1    3    3    0    0 -0.17661269221E+02 -0.66358785148E+01  0.16515601890E+04  0.16516679489E+04  0.00000000000E+00 0. -1.
          1    1    1    2  501    0 -0.18367156481E+02  0.12866449907E+02  0.76405168145E+03  0.76438071005E+03  0.00000000000E+00 0. -1.
<mgrwt>
<rscale>  1 0.86530880E+02</rscale>
<asrwt>0</asrwt>
<pdfrwt beam="1">  1       21 0.16660534E-03 0.86530880E+02</pdfrwt>
<pdfrwt beam="2">  1        2 0.43113574E+00 0.86530880E+02</pdfrwt>
<totfact> 0.21020848E+06</totfact>
</mgrwt>
</event>
<event>
 6    2  0.8544106E+000  0.8206965E+02  0.7546771E-02  0.1323279E+00
          4   -1    0    0  502    0 -0.00000000000E+00  0.00000000000E+00  0.18302791900E+03  0.18302791900E+03  0.00000000000E+00 0. -1.
         21   -1    0    0  501  502  0.00000000000E+00 -0.00000000000E+00 -0.23016975547E+03  0.23016975547E+03  0.00000000000E+00 0. -1.
         24    2    1    2    0    0 -0.10689630375E+01 -0.20138354296E+02  0.17334455445E+03  0.19179093434E+03  0.79553327673E+02 0.  0.
        -11    1    3    3    0    0  0.39592426830E+01 -0.19677055830E+02  0.17779222833E+01  0.20150015792E+02  0.00000000000E+00 0.  1.
         12    1    3    3    0    0 -0.50282057204E+01 -0.46129846625E+00  0.17156663216E+03  0.17164091855E+03  0.00000000000E+00 0. -1.
          3    1    1    2  501    0  0.10689630375E+01  0.20138354296E+02 -0.22048639092E+03  0.22140674013E+03  0.00000000000E+00 0. -1.
<mgrwt>
<rscale>  1 0.82069653E+02</rscale>
<asrwt>0</asrwt>
<pdfrwt beam="1">  1       21 0.35410732E-01 0.82069653E+02</pdfrwt>
<pdfrwt beam="2">  1        4 0.28158141E-01 0.82069653E+02</pdfrwt>
<totfact> 0.36854678E+03</totfact>
</mgrwt>
</event>
<event>
 6    2  0.8544106E+000  0.8621319E+02  0.7546771E-02  0.1312290E+00
         21   -1    0    0  501  502  0.00000000000E+00  0.00000000000E+00  0.22925751501E+03  0.22925751501E+03  0.00000000000E+00 0.  1.
          4   -1    0    0  502    0 -0.00000000000E+00 -0.00000000000E+00 -0.14848543333E+02  0.14848543333E+02  0.00000000000E+00 0. -1.
         24    2    1    2    0    0  0.29534390672E+02 -0.46107777851E+01  0.16937555601E+03  0.19005471210E+03  0.80865166253E+02 0.  0.
        -13    1    3    3    0    0  0.28416163913E+02  0.19132024686E+02  0.21861354232E+02  0.40637809352E+02  0.00000000000E+00 0.  1.
         14    1    3    3    0    0  0.11182267588E+01 -0.23742802471E+02  0.14751420178E+03  0.14941690275E+03  0.00000000000E+00 0. -1.
          3    1    1    2  501    0 -0.29534390672E+02  0.46107777851E+01  0.45033415671E+02  0.54051346247E+02  0.00000000000E+00 0. -1.
<mgrwt>
<rscale>  1 0.86213193E+02</rscale>
<asrwt>0</asrwt>
<pdfrwt beam="1">  1       21 0.35270384E-01 0.86213193E+02</pdfrwt>
<pdfrwt beam="2">  1        4 0.22843914E-02 0.86213193E+02</pdfrwt>
<totfact> 0.24000186E+05</totfact>
</mgrwt>
</event>
<event>
 6    2  0.8544106E+000  0.8874581E+02  0.7546771E-02  0.1305918E+00
         21   -1    0    0  501  502  0.00000000000E+00  0.00000000000E+00  0.17545089240E+01  0.17545089240E+01  0.00000000000E+00 0.  1.
          2   -1    0    0  502    0 -0.00000000000E+00 -0.00000000000E+00 -0.21579184226E+04  0.21579184226E+04  0.00000000000E+00 0. -1.
         24    2    1    2    0    0 -0.28715942847E+02  0.18511212346E+02 -0.16036093716E+04  0.16060631481E+04  0.81905729841E+02 0.  0.
        -13    1    3    3    0    0 -0.54053401846E+02  0.10450474325E+01 -0.77553508759E+03  0.77741722032E+03  0.00000000000E+00 0.  1.
         14    1    3    3    0    0  0.25337458999E+02  0.17466164913E+02 -0.82807428406E+03  0.82864592780E+03  0.00000000000E+00 0. -1.
          1    1    1    2  501    0  0.28715942847E+02 -0.18511212346E+02 -0.55255454199E+03  0.55360978336E+03  0.00000000000E+00 0. -1.
<mgrwt>
<rscale>  1 0.88745811E+02</rscale>
<asrwt>0</asrwt>
<pdfrwt beam="1">  1       21 0.26992619E-03 0.88745811E+02</pdfrwt>
<pdfrwt beam="2">  1        2 0.33198531E+00 0.88745811E+02</pdfrwt>
<totfact> 0.22228456E+06</totfact>
</mgrwt>
</event>
<event>
 6    2  0.8544106E+000  0.8652366E+02  0.7546771E-02  0.1311495E+00
         -1   -1    0    0    0  501 -0.00000000000E+00  0.00000000000E+00  0.26289730345E+02  0.26289730345E+02  0.00000000000E+00 0.  1.
         21   -1    0    0  501  502  0.00000000000E+00 -0.00000000000E+00 -0.13763209167E+03  0.13763209167E+03  0.00000000000E+00 0. -1.
         24    2    1    2    0    0  0.30503985888E+02 -0.13925430781E+02 -0.84872977618E+02  0.12120134623E+03  0.79761727793E+02 0.  0.
        -13    1    3    3    0    0 -0.12494461026E+01 -0.26107479355E+01  0.15267559346E+02  0.15539481611E+02  0.00000000000E+00 0.  1.
         14    1    3    3    0    0  0.31753431991E+02 -0.11314682845E+02 -0.10014053696E+03  0.10566186462E+03  0.00000000000E+00 0. -1.
         -2    1    1    2    0  502 -0.30503985888E+02  0.13925430781E+02 -0.26469383707E+02  0.42720475785E+02  0.00000000000E+00 0.  1.
<mgrwt>
<rscale>  1 0.86523661E+02</rscale>
<asrwt>0</asrwt>
<pdfrwt beam="1">  1       21 0.21174168E-01 0.86523661E+02</pdfrwt>
<pdfrwt beam="2">  1       -1 0.40445739E-02 0.86523661E+02</pdfrwt>
<totfact> 0.41219198E+05</totfact>
</mgrwt>
</event>
<event>
 6    2  0.8544106E+000  0.9181746E+02  0.7546771E-02  0.1298509E+00
         -1   -1    0    0    0  501 -0.00000000000E+00  0.00000000000E+00  0.16004394315E+02  0.16004394315E+02  0.00000000000E+00 0.  1.
         21   -1    0    0  501  502  0.00000000000E+00 -0.00000000000E+00 -0.26442422023E+03  0.26442422023E+03  0.00000000000E+00 0.  1.
         24    2    1    2    0    0  0.26225541751E+02  0.13828377727E+02 -0.22375970443E+03  0.24186535920E+03  0.86899042499E+02 0.  0.
        -11    1    3    3    0    0 -0.11572079086E+02 -0.18497562339E+02 -0.15756332433E+03  0.15906688531E+03  0.00000000000E+00 0.  1.
         12    1    3    3    0    0  0.37797620837E+02  0.32325940066E+02 -0.66196380096E+02  0.82798473898E+02  0.00000000000E+00 0. -1.
         -2    1    1    2    0  502 -0.26225541751E+02 -0.13828377727E+02 -0.24660121493E+02  0.38563255345E+02  0.00000000000E+00 0.  1.
<mgrwt>
<rscale>  1 0.91817464E+02</rscale>
<asrwt>0</asrwt>
<pdfrwt beam="1">  1       21 0.40680651E-01 0.91817464E+02</pdfrwt>
<pdfrwt beam="2">  1       -1 0.24622144E-02 0.91817464E+02</pdfrwt>
<totfact> 0.24422405E+05</totfact>
</mgrwt>
</event>
<event>
 6    2  0.8544106E+000  0.1832008E+03  0.7546771E-02  0.1164741E+00
          2   -1    0    0  502    0 -0.00000000000E+00  0.00000000000E+00  0.17842492404E+04  0.17842492404E+04  0.00000000000E+00 0. -1.
         21   -1    0    0  501  502  0.00000000000E+00 -0.00000000000E+00 -0.17191085954E+02  0.17191085954E+02  0.00000000000E+00 0. -1.
         24    2    1    2    0    0  0.12157863855E+03 -0.11130418870E+03  0.10311522897E+04  0.10473001341E+04  0.79953352670E+02 0.  0.
        -13    1    3    3    0    0  0.57121152399E+01 -0.49921247573E+02  0.22396608070E+03  0.22953336255E+03  0.00000000000E+00 0.  1.
         14    1    3    3    0    0  0.11586652331E+03 -0.61382941129E+02  0.80718620903E+03  0.81776677160E+03  0.00000000000E+00 0. -1.
          1    1    1    2  501    0 -0.12157863855E+03  0.11130418870E+03  0.73590586472E+03  0.75414019221E+03  0.00000000000E+00 0. -1.
<mgrwt>
<rscale>  1 0.18320078E+03</rscale>
<asrwt>0</asrwt>
<pdfrwt beam="1">  1       21 0.26447839E-02 0.18320078E+03</pdfrwt>
<pdfrwt beam="2">  1        2 0.27449974E+00 0.18320078E+03</pdfrwt>
<totfact> 0.97240681E+04</totfact>
</mgrwt>
</event>
<event>
 6    2  0.8544106E+000  0.9176731E+02  0.7546771E-02  0.1298627E+00
         -1   -1    0    0    0  501 -0.00000000000E+00  0.00000000000E+00  0.55657941434E+02  0.55657941434E+02  0.00000000000E+00 0.  1.
         21   -1    0    0  501  502  0.00000000000E+00 -0.00000000000E+00 -0.11382737228E+03  0.11382737228E+03  0.00000000000E+00 0.  1.
         24    2    1    2    0    0 -0.37303443889E+02  0.24829800802E+02  0.51518302337E+01  0.91911812835E+02  0.80082295485E+02 0.  0.
        -11    1    3    3    0    0 -0.49931445645E+02  0.45059309405E+02  0.86438454570E+01  0.67810078105E+02  0.00000000000E+00 0.  1.
         12    1    3    3    0    0  0.12628001756E+02 -0.20229508603E+02 -0.34920152233E+01  0.24101734730E+02  0.00000000000E+00 0. -1.
         -2    1    1    2    0  502  0.37303443889E+02 -0.24829800802E+02 -0.63321261081E+02  0.77573500880E+02  0.00000000000E+00 0.  1.
<mgrwt>
<rscale>  1 0.91767314E+02</rscale>
<asrwt>0</asrwt>
<pdfrwt beam="1">  1       21 0.17511903E-01 0.91767314E+02</pdfrwt>
<pdfrwt beam="2">  1       -1 0.85627603E-02 0.91767314E+02</pdfrwt>
<totfact> 0.19421087E+05</totfact>
</mgrwt>
</event>
<event>
 6    2  0.8544106E+000  0.8494475E+02  0.7546771E-02  0.1315577E+00
          2   -1    0    0  502    0 -0.00000000000E+00  0.00000000000E+00  0.13825842652E+04  0.13825842652E+04  0.00000000000E+00 0. -1.
         21   -1    0    0  501  502  0.00000000000E+00 -0.00000000000E+00 -0.26483952640E+01  0.26483952640E+01  0.00000000000E+00 0.  1.
         24    2    1    2    0    0 -0.31506569272E+02  0.28258886144E+01  0.11497127204E+04  0.11528464558E+04  0.78835027482E+02 0.  0.
        -11    1    3    3    0    0 -0.29009735514E+02 -0.14777552892E+02  0.17687885420E+03  0.17985013174E+03  0.00000000000E+00 0.  1.
         12    1    3    3    0    0 -0.24968337581E+01  0.17603441506E+02  0.97283386622E+03  0.97299632405E+03  0.00000000000E+00 0. -1.
          1    1    1    2  501    0  0.31506569272E+02 -0.28258886144E+01  0.23022314950E+03  0.23238620467E+03  0.00000000000E+00 0. -1.
<mgrwt>
<rscale>  1 0.84944753E+02</rscale>
<asrwt>0</asrwt>
<pdfrwt beam="1">  1       21 0.40744653E-03 0.84944753E+02</pdfrwt>
<pdfrwt beam="2">  1        2 0.21270470E+00 0.84944753E+02</pdfrwt>
<totfact> 0.29211419E+06</totfact>
</mgrwt>
</event>
<event>
 6    2  0.8544106E+000  0.8780044E+02  0.7546771E-02  0.1308267E+00
         -3   -1    0    0    0  501 -0.00000000000E+00  0.00000000000E+00  0.11755602741E+03  0.11755602741E+03  0.00000000000E+00 0.  1.
         21   -1    0    0  501  502  0.00000000000E+00 -0.00000000000E+00 -0.11943335780E+03  0.11943335780E+03  0.00000000000E+00 0.  1.
         24    2    1    2    0    0 -0.81140444981E+01 -0.32071222778E+02  0.98116457888E+02  0.13166531986E+03  0.81329675375E+02 0.  0.
        -11    1    3    3    0    0 -0.42489006578E+02 -0.20094940878E+02  0.75107315208E+02  0.88601530047E+02  0.00000000000E+00 0.  1.
         12    1    3    3    0    0  0.34374962080E+02 -0.11976281900E+02  0.23009142680E+02  0.43063789813E+02  0.00000000000E+00 0. -1.
         -4    1    1    2    0  502  0.81140444981E+01  0.32071222778E+02 -0.99993788279E+02  0.10532406536E+03  0.00000000000E+00 0.  1.
<mgrwt>
<rscale>  1 0.87800439E+02</rscale>
<asrwt>0</asrwt>
<pdfrwt beam="1">  1       21 0.18374363E-01 0.87800439E+02</pdfrwt>
<pdfrwt beam="2">  1       -3 0.18085543E-01 0.87800439E+02</pdfrwt>
<totfact> 0.33389965E+04</totfact>
</mgrwt>
</event>
<event>
 6    2  0.8544106E+000  0.8694589E+02  0.7546771E-02  0.1310421E+00
          2   -1    0    0  502    0 -0.00000000000E+00  0.00000000000E+00  0.14795720338E+03  0.14795720338E+03  0.00000000000E+00 0. -1.
         21   -1    0    0  501  502  0.00000000000E+00 -0.00000000000E+00 -0.33912125055E+02  0.33912125055E+02  0.00000000000E+00 0. -1.
         24    2    1    2    0    0 -0.27745060186E+02 -0.90446574415E+01  0.12363995888E+03  0.15115034528E+03  0.81902339723E+02 0.  0.
        -11    1    3    3    0    0 -0.12074953683E+02 -0.14308611143E+02 -0.66102171159E+01  0.19855372815E+02  0.00000000000E+00 0.  1.
         12    1    3    3    0    0 -0.15670106503E+02  0.52639537014E+01  0.13025017600E+03  0.13129497246E+03  0.00000000000E+00 0. -1.
          1    1    1    2  501    0  0.27745060186E+02  0.90446574415E+01 -0.95948805623E+01  0.30718983153E+02  0.00000000000E+00 0. -1.
<mgrwt>
<rscale>  1 0.86945888E+02</rscale>
<asrwt>0</asrwt>
<pdfrwt beam="1">  1       21 0.52172501E-02 0.86945888E+02</pdfrwt>
<pdfrwt beam="2">  1        2 0.22762646E-01 0.86945888E+02</pdfrwt>
<totfact> 0.68642948E+05</totfact>
</mgrwt>
</event>
<event>
 6    2  0.8544106E+000  0.8644670E+02  0.7546771E-02  0.1311692E+00
         -1   -1    0    0    0  501 -0.00000000000E+00  0.00000000000E+00  0.35131903926E+03  0.35131903926E+03  0.00000000000E+00 0.  1.
         21   -1    0    0  501  502  0.00000000000E+00 -0.00000000000E+00 -0.11311969789E+02  0.11311969789E+02  0.00000000000E+00 0. -1.
         24    2    1    2    0    0 -0.22391165605E+02 -0.24869711336E+02  0.28878596827E+03  0.30144712190E+03  0.79706743695E+02 0.  0.
        -11    1    3    3    0    0 -0.37262489112E+02  0.15484645471E+02  0.18001950077E+03  0.18448655235E+03  0.00000000000E+00 0.  1.
         12    1    3    3    0    0  0.14871323508E+02 -0.40354356807E+02  0.10876646750E+03  0.11696056954E+03  0.00000000000E+00 0. -1.
         -2    1    1    2    0  502  0.22391165605E+02  0.24869711336E+02  0.51221101202E+02  0.61183887155E+02  0.00000000000E+00 0.  1.
<mgrwt>
<rscale>  1 0.86446699E+02</rscale>
<asrwt>0</asrwt>
<pdfrwt beam="1">  1       21 0.17403033E-02 0.86446699E+02</pdfrwt>
<pdfrwt beam="2">  1       -1 0.54049075E-01 0.86446699E+02</pdfrwt>
<totfact> 0.47303097E+05</totfact>
</mgrwt>
</event>
<event>
 6    2  0.8544106E+000  0.8308068E+02  0.7546771E-02  0.1320529E+00
          2   -1    0    0  502    0 -0.00000000000E+00  0.00000000000E+00  0.75954224206E+03  0.75954224206E+03  0.00000000000E+00 0. -1.
         21   -1    0    0  501  502  0.00000000000E+00 -0.00000000000E+00 -0.53289391165E+01  0.53289391165E+01  0.00000000000E+00 0.  1.
         24    2    1    2    0    0  0.90115898179E+01 -0.25281786503E+02  0.34830537235E+03  0.35807685281E+03  0.78625839418E+02 0.  0.
        -13    1    3    3    0    0 -0.19417348550E+02 -0.19517810258E+02  0.40882590803E+02  0.49288584609E+02  0.00000000000E+00 0.  1.
         14    1    3    3    0    0  0.28428938368E+02 -0.57639762449E+01  0.30742278155E+03  0.30878826820E+03  0.00000000000E+00 0. -1.
          1    1    1    2  501    0 -0.90115898179E+01  0.25281786503E+02  0.40590793059E+03  0.40679432837E+03  0.00000000000E+00 0. -1.
<mgrwt>
<rscale>  1 0.83080684E+02</rscale>
<asrwt>0</asrwt>
<pdfrwt beam="1">  1       21 0.81983739E-03 0.83080684E+02</pdfrwt>
<pdfrwt beam="2">  1        2 0.11685257E+00 0.83080684E+02</pdfrwt>
<totfact> 0.22783239E+06</totfact>
</mgrwt>
</event>
<event>
 6    2  0.8544106E+000  0.1395052E+03  0.7546771E-02  0.1213996E+00
         21   -1    0    0  501  502  0.00000000000E+00  0.00000000000E+00  0.13094150830E+02  0.13094150830E+02  0.00000000000E+00 0. -1.
          2   -1    0    0  502    0 -0.00000000000E+00 -0.00000000000E+00 -0.12789818376E+04  0.12789818376E+04  0.00000000000E+00 0. -1.
         24    2    1    2    0    0  0.10496385616E+03 -0.50194240618E+02 -0.78609785941E+03  0.79838058504E+03  0.76972989480E+02 0.  0.
        -11    1    3    3    0    0  0.72126006949E+01 -0.46171990368E+01 -0.50933370517E+01  0.99640462690E+01  0.00000000000E+00 0.  1.
         12    1    3    3    0    0  0.97751255462E+02 -0.45577041581E+02 -0.78100452236E+03  0.78841653877E+03  0.00000000000E+00 0. -1.
          1    1    1    2  501    0 -0.10496385616E+03  0.50194240618E+02 -0.47978982737E+03  0.49369540340E+03  0.00000000000E+00 0. -1.
<mgrwt>
<rscale>  1 0.13950525E+03</rscale>
<asrwt>0</asrwt>
<pdfrwt beam="1">  1       21 0.20144851E-02 0.13950525E+03</pdfrwt>
<pdfrwt beam="2">  1        2 0.19676640E+00 0.13950525E+03</pdfrwt>
<totfact> 0.27918295E+05</totfact>
</mgrwt>
</event>
<event>
 6    2  0.8544106E+000  0.8784135E+02  0.7546771E-02  0.1308165E+00
         21   -1    0    0  501  502  0.00000000000E+00  0.00000000000E+00  0.11964733491E+02  0.11964733491E+02  0.00000000000E+00 0. -1.
          2   -1    0    0  502    0 -0.00000000000E+00 -0.00000000000E+00 -0.10174950620E+04  0.10174950620E+04  0.00000000000E+00 0. -1.
         24    2    1    2    0    0 -0.16446360510E+02  0.28134131186E+02 -0.98904636911E+03  0.99293948568E+03  0.81572604895E+02 0.  0.
        -13    1    3    3    0    0  0.21513181036E+01 -0.12718450393E+02 -0.27812464510E+02  0.30658120166E+02  0.00000000000E+00 0.  1.
         14    1    3    3    0    0 -0.18597678613E+02  0.40852581579E+02 -0.96123390460E+03  0.96228136551E+03  0.00000000000E+00 0. -1.
          1    1    1    2  501    0  0.16446360510E+02 -0.28134131186E+02 -0.16483959416E+02  0.36520309824E+02  0.00000000000E+00 0. -1.
<mgrwt>
<rscale>  1 0.87841346E+02</rscale>
<asrwt>0</asrwt>
<pdfrwt beam="1">  1       21 0.18407278E-02 0.87841346E+02</pdfrwt>
<pdfrwt beam="2">  1        2 0.15653774E+00 0.87841346E+02</pdfrwt>
<totfact> 0.44315744E+05</totfact>
</mgrwt>
</event>
<event>
 6    2  0.8544106E+000  0.8284038E+02  0.7546771E-02  0.1321179E+00
         21   -1    0    0  501  502  0.00000000000E+00  0.00000000000E+00  0.48766844881E+01  0.48766844881E+01  0.00000000000E+00 0. -1.
         -3   -1    0    0    0  501 -0.00000000000E+00 -0.00000000000E+00 -0.56786382088E+03  0.56786382088E+03  0.00000000000E+00 0.  1.
         24    2    1    2    0    0  0.77856616436E+01 -0.20041187592E+02 -0.47462862551E+03  0.48180375717E+03  0.80001640881E+02 0.  0.
        -11    1    3    3    0    0  0.41088997360E+02  0.35617391345E+01 -0.20557794669E+03  0.20967423269E+03  0.00000000000E+00 0.  1.
         12    1    3    3    0    0 -0.33303335717E+02 -0.23602926726E+02 -0.26905067882E+03  0.27212952448E+03  0.00000000000E+00 0. -1.
         -4    1    1    2    0  502 -0.77856616436E+01  0.20041187592E+02 -0.88358510883E+02  0.90936748198E+02  0.00000000000E+00 0.  1.
<mgrwt>
<rscale>  1 0.82840378E+02</rscale>
<asrwt>0</asrwt>
<pdfrwt beam="1">  1       21 0.75025975E-03 0.82840378E+02</pdfrwt>
<pdfrwt beam="2">  1       -3 0.87363596E-01 0.82840378E+02</pdfrwt>
<totfact> 0.31648289E+05</totfact>
</mgrwt>
</event>
<event>
 6    2  0.8544106E+000  0.8586965E+02  0.7546771E-02  0.1313174E+00
         21   -1    0    0  501  502  0.00000000000E+00  0.00000000000E+00  0.14127973552E+02  0.14127973552E+02  0.00000000000E+00 0.  1.
          2   -1    0    0  502    0 -0.00000000000E+00 -0.00000000000E+00 -0.25111855074E+03  0.25111855074E+03  0.00000000000E+00 0. -1.
         24    2    1    2    0    0  0.86858181001E+01  0.29825488766E+02 -0.14951798070E+03  0.17242164427E+03  0.80053692241E+02 0.  0.
        -11    1    3    3    0    0  0.17078845148E+01  0.55186496431E+02 -0.73132698230E+02  0.91634370234E+02  0.00000000000E+00 0.  1.
         12    1    3    3    0    0  0.69779335853E+01 -0.25361007665E+02 -0.76385282474E+02  0.80787274032E+02  0.00000000000E+00 0. -1.
          1    1    1    2  501    0 -0.86858181001E+01 -0.29825488766E+02 -0.87472596488E+02  0.92824880030E+02  0.00000000000E+00 0. -1.
<mgrwt>
<rscale>  1 0.85869650E+02</rscale>
<asrwt>0</asrwt>
<pdfrwt beam="1">  1       21 0.21735345E-02 0.85869650E+02</pdfrwt>
<pdfrwt beam="2">  1        2 0.38633621E-01 0.85869650E+02</pdfrwt>
<totfact> 0.16251446E+06</totfact>
</mgrwt>
</event>
<event>
 6    2  0.8544106E+000  0.9111602E+02  0.7546771E-02  0.1300171E+00
         21   -1    0    0  501  502  0.00000000000E+00  0.00000000000E+00  0.30977404973E+03  0.30977404973E+03  0.00000000000E+00 0.  1.
         -3   -1    0    0    0  501 -0.00000000000E+00 -0.00000000000E+00 -0.45559267933E+02  0.45559267933E+02  0.00000000000E+00 0.  1.
         24    2    1    2    0    0 -0.48591617910E+01 -0.49900672587E+02  0.49339138954E+01  0.91249510818E+02  0.76081805580E+02 0.  0.
        -11    1    3    3    0    0 -0.31729816618E+02 -0.42767525407E+02 -0.16931924665E+02  0.55879625669E+02  0.00000000000E+00 0.  1.
         12    1    3    3    0    0  0.26870654827E+02 -0.71331471798E+01  0.21865838561E+02  0.35369885149E+02  0.00000000000E+00 0. -1.
         -4    1    1    2    0  502  0.48591617910E+01  0.49900672587E+02  0.25928086790E+03  0.26408380684E+03  0.00000000000E+00 0.  1.
<mgrwt>
<rscale>  1 0.91116023E+02</rscale>
<asrwt>0</asrwt>
<pdfrwt beam="1">  1       21 0.47657545E-01 0.91116023E+02</pdfrwt>
<pdfrwt beam="2">  1       -3 0.70091184E-02 0.91116023E+02</pdfrwt>
<totfact> 0.26023793E+04</totfact>
</mgrwt>
</event>
<event>
 6    2  0.8544106E+000  0.8564451E+02  0.7546771E-02  0.1313756E+00
          2   -1    0    0  502    0 -0.00000000000E+00  0.00000000000E+00  0.74933546369E+03  0.74933546369E+03  0.00000000000E+00 0. -1.
         21   -1    0    0  501  502  0.00000000000E+00 -0.00000000000E+00 -0.45954543062E+01  0.45954543062E+01  0.00000000000E+00 0.  1.
         24    2    1    2    0    0 -0.27552410237E+02  0.11552546147E+02  0.48799151348E+03  0.49544999649E+03  0.80264470122E+02 0.  0.
        -13    1    3    3    0    0 -0.41445227547E+02 -0.20496858464E+01  0.12050420209E+03  0.12744869877E+03  0.00000000000E+00 0.  1.
         14    1    3    3    0    0  0.13892817311E+02  0.13602231994E+02  0.36748731139E+03  0.36800129772E+03  0.00000000000E+00 0. -1.
          1    1    1    2  501    0  0.27552410237E+02 -0.11552546147E+02  0.25674849590E+03  0.25848092150E+03  0.00000000000E+00 0. -1.
<mgrwt>
<rscale>  1 0.85644508E+02</rscale>
<asrwt>0</asrwt>
<pdfrwt beam="1">  1       21 0.70699357E-03 0.85644508E+02</pdfrwt>
<pdfrwt beam="2">  1        2 0.11528228E+00 0.85644508E+02</pdfrwt>
<totfact> 0.29218000E+06</totfact>
</mgrwt>
</event>
<event>
 6    2  0.8544106E+000  0.1780784E+03  0.7546771E-02  0.1169676E+00
         21   -1    0    0  501  502  0.00000000000E+00  0.00000000000E+00  0.38808802795E+02  0.38808802795E+02  0.00000000000E+00 0. -1.
          4   -1    0    0  502    0 -0.00000000000E+00 -0.00000000000E+00 -0.11136196749E+04  0.11136196749E+04  0.00000000000E+00 0. -1.
         24    2    1    2    0    0  0.10349713732E+03  0.12077931675E+03 -0.22046309287E+03  0.28340061355E+03  0.80078908912E+02 0.  0.
        -11    1    3    3    0    0  0.25965932475E+02  0.18443432179E+02 -0.10840602244E+03  0.11298785572E+03  0.00000000000E+00 0.  1.
         12    1    3    3    0    0  0.77531204840E+02  0.10233588457E+03 -0.11205707043E+03  0.17041275782E+03  0.00000000000E+00 0. -1.
          3    1    1    2  501    0 -0.10349713732E+03 -0.12077931675E+03 -0.85434777919E+03  0.86902786411E+03  0.00000000000E+00 0. -1.
<mgrwt>
<rscale>  1 0.17807844E+03</rscale>
<asrwt>0</asrwt>
<pdfrwt beam="1">  1       21 0.59705863E-02 0.17807844E+03</pdfrwt>
<pdfrwt beam="2">  1        4 0.17132607E+00 0.17807844E+03</pdfrwt>
<totfact> 0.18669687E+03</totfact>
</mgrwt>
</event>
<event>
 6    2  0.8544106E+000  0.1003607E+03  0.7546771E-02  0.1279539E+00
          2   -1    0    0  502    0 -0.00000000000E+00  0.00000000000E+00  0.21349882823E+04  0.21349882823E+04  0.00000000000E+00 0. -1.
         21   -1    0    0  501  502  0.00000000000E+00 -0.00000000000E+00 -0.33565685466E+01  0.33565685466E+01  0.00000000000E+00 0.  1.
         24    2    1    2    0    0 -0.29090199570E+02 -0.10121176333E+02  0.20214284489E+04  0.20239182914E+04  0.95517528960E+02 0.  0.
        -13    1    3    3    0    0 -0.48765747588E+02 -0.13599171346E+02  0.54303087215E+03  0.54538570178E+03  0.00000000000E+00 0.  1.
         14    1    3    3    0    0  0.19675548018E+02  0.34779950135E+01  0.14783975767E+04  0.14785325896E+04  0.00000000000E+00 0. -1.
          1    1    1    2  501    0  0.29090199570E+02  0.10121176333E+02  0.11020326485E+03  0.11442655944E+03  0.00000000000E+00 0. -1.
<mgrwt>
<rscale>  1 0.10036073E+03</rscale>
<asrwt>0</asrwt>
<pdfrwt beam="1">  1       21 0.51639687E-03 0.10036073E+03</pdfrwt>
<pdfrwt beam="2">  1        2 0.32845865E+00 0.10036073E+03</pdfrwt>
<totfact> 0.85553789E+05</totfact>
</mgrwt>
</event>
<event>
 6    2  0.8544106E+000  0.8406822E+02  0.7546771E-02  0.1317887E+00
          2   -1    0    0  502    0 -0.00000000000E+00  0.00000000000E+00  0.12133919780E+04  0.12133919780E+04  0.00000000000E+00 0. -1.
         21   -1    0    0  501  502  0.00000000000E+00 -0.00000000000E+00 -0.65346942064E+01  0.65346942064E+01  0.00000000000E+00 0. -1.
         24    2    1    2    0    0 -0.18634172411E+02  0.10297189802E+02  0.11894745815E+04  0.11924417157E+04  0.81327735876E+02 0.  0.
        -11    1    3    3    0    0 -0.93385534838E+01 -0.98402638103E+01  0.32027906749E+02  0.34782555739E+02  0.00000000000E+00 0.  1.
         12    1    3    3    0    0 -0.92956189269E+01  0.20137453612E+02  0.11574466748E+04  0.11576591599E+04  0.00000000000E+00 0. -1.
          1    1    1    2  501    0  0.18634172411E+02 -0.10297189802E+02  0.17382702286E+02  0.27484956577E+02  0.00000000000E+00 0. -1.
<mgrwt>
<rscale>  1 0.84068217E+02</rscale>
<asrwt>0</asrwt>
<pdfrwt beam="1">  1       21 0.10053385E-02 0.84068217E+02</pdfrwt>
<pdfrwt beam="2">  1        2 0.18667551E+00 0.84068217E+02</pdfrwt>
<totfact> 0.89161737E+05</totfact>
</mgrwt>
</event>
<event>
 6    2  0.8544106E+000  0.9394968E+02  0.7546771E-02  0.1293559E+00
         21   -1    0    0  501  502  0.00000000000E+00  0.00000000000E+00  0.13092426877E+02  0.13092426877E+02  0.00000000000E+00 0.  1.
          4   -1    0    0  502    0 -0.00000000000E+00 -0.00000000000E+00 -0.38129120896E+03  0.38129120896E+03  0.00000000000E+00 0. -1.
         24    2    1    2    0    0 -0.39060150725E+02 -0.17363433317E+02 -0.20205258386E+03  0.22282681326E+03  0.83662165098E+02 0.  0.
        -11    1    3    3    0    0 -0.33674532525E+02 -0.15266995451E+02 -0.22710211036E+02  0.43391346789E+02  0.00000000000E+00 0.  1.
         12    1    3    3    0    0 -0.53856182002E+01 -0.20964378662E+01 -0.17934237283E+03  0.17943546647E+03  0.00000000000E+00 0. -1.
          3    1    1    2  501    0  0.39060150725E+02  0.17363433317E+02 -0.16614619821E+03  0.17155682258E+03  0.00000000000E+00 0. -1.
<mgrwt>
<rscale>  1 0.93949678E+02</rscale>
<asrwt>0</asrwt>
<pdfrwt beam="1">  1       21 0.20142195E-02 0.93949678E+02</pdfrwt>
<pdfrwt beam="2">  1        4 0.58660187E-01 0.93949678E+02</pdfrwt>
<totfact> 0.12775138E+05</totfact>
</mgrwt>
</event>
<event>
 6    2  0.8544106E+000  0.1829885E+03  0.7546771E-02  0.1164942E+00
          2   -1    0    0  502    0 -0.00000000000E+00  0.00000000000E+00  0.84181316273E+03  0.84181316273E+03  0.00000000000E+00 0. -1.
         21   -1    0    0  501  502  0.00000000000E+00 -0.00000000000E+00 -0.38006939056E+02  0.38006939056E+02  0.00000000000E+00 0.  1.
         24    2    1    2    0    0  0.22083360024E+02 -0.16691958467E+03  0.33539436534E+03  0.38206565272E+03  0.71658636276E+02 0.  0.
        -11    1    3    3    0    0  0.36927528026E+02 -0.51549614671E+02  0.85727079670E+02  0.10663084585E+03  0.00000000000E+00 0.  1.
         12    1    3    3    0    0 -0.14844168003E+02 -0.11536996999E+03  0.24966728567E+03  0.27543480686E+03  0.00000000000E+00 0. -1.
          1    1    1    2  501    0 -0.22083360024E+02  0.16691958467E+03  0.46841185833E+03  0.49775444906E+03  0.00000000000E+00 0. -1.
<mgrwt>
<rscale>  1 0.18298848E+03</rscale>
<asrwt>0</asrwt>
<pdfrwt beam="1">  1       21 0.58472220E-02 0.18298848E+03</pdfrwt>
<pdfrwt beam="2">  1        2 0.12950970E+00 0.18298848E+03</pdfrwt>
<totfact> 0.86664182E+04</totfact>
</mgrwt>
</event>
<event>
 6    2  0.8544106E+000  0.1480225E+03  0.7546771E-02  0.1202924E+00
         21   -1    0    0  501  502  0.00000000000E+00  0.00000000000E+00  0.14894918472E+04  0.14894918472E+04  0.00000000000E+00 0. -1.
          2   -1    0    0  502    0 -0.00000000000E+00 -0.00000000000E+00 -0.92754676566E+02  0.92754676566E+02  0.00000000000E+00 0. -1.
         24    2    1    2    0    0  0.10582200794E+03 -0.65014446738E+02 -0.29230008945E+02  0.15088089162E+03  0.80532443049E+02 0.  0.
        -13    1    3    3    0    0  0.55186389555E+02 -0.47242023417E+02  0.22795735122E+02  0.76137979408E+02  0.00000000000E+00 0.  1.
         14    1    3    3    0    0  0.50635618390E+02 -0.17772423322E+02 -0.52025744067E+02  0.74742912213E+02  0.00000000000E+00 0. -1.
          1    1    1    2  501    0 -0.10582200794E+03  0.65014446738E+02  0.14259671796E+04  0.14313656321E+04  0.00000000000E+00 0. -1.
<mgrwt>
<rscale>  1 0.14802246E+03</rscale>
<asrwt>0</asrwt>
<pdfrwt beam="1">  1       21 0.22915258E+00 0.14802246E+03</pdfrwt>
<pdfrwt beam="2">  1        2 0.14269951E-01 0.14802246E+03</pdfrwt>
<totfact> 0.46376564E+02</totfact>
</mgrwt>
</event>
<event>
 6    2  0.8544106E+000  0.8468892E+02  0.7546771E-02  0.1316248E+00
          2   -1    0    0  502    0 -0.00000000000E+00  0.00000000000E+00  0.21047487951E+04  0.21047487951E+04  0.00000000000E+00 0. -1.
         21   -1    0    0  501  502  0.00000000000E+00 -0.00000000000E+00 -0.15397115012E+01  0.15397115012E+01  0.00000000000E+00 0.  1.
         24    2    1    2    0    0 -0.21461192732E+02 -0.15199498901E+02  0.17789560731E+04  0.17809707813E+04  0.80502213386E+02 0.  0.
        -11    1    3    3    0    0 -0.26482600996E+02  0.22488423254E+02  0.40461093124E+03  0.40609981903E+03  0.00000000000E+00 0.  1.
         12    1    3    3    0    0  0.50214082637E+01 -0.37687922155E+02  0.13743451418E+04  0.13748709623E+04  0.00000000000E+00 0. -1.
          1    1    1    2  501    0  0.21461192732E+02  0.15199498901E+02  0.32425301056E+03  0.32531772534E+03  0.00000000000E+00 0. -1.
<mgrwt>
<rscale>  1 0.84688924E+02</rscale>
<asrwt>0</asrwt>
<pdfrwt beam="1">  1       21 0.23688038E-03 0.84688924E+02</pdfrwt>
<pdfrwt beam="2">  1        2 0.32380521E+00 0.84688924E+02</pdfrwt>
<totfact> 0.28692721E+06</totfact>
</mgrwt>
</event>
<event>
 6    2  0.8544106E+000  0.8801281E+02  0.7546771E-02  0.1307737E+00
         21   -1    0    0  501  502  0.00000000000E+00  0.00000000000E+00  0.14540206958E+02  0.14540206958E+02  0.00000000000E+00 0.  1.
          4   -1    0    0  502    0 -0.00000000000E+00 -0.00000000000E+00 -0.62696235199E+03  0.62696235199E+03  0.00000000000E+00 0. -1.
         24    2    1    2    0    0 -0.15520732812E+01  0.20043193973E+02 -0.12076051459E+03  0.14943010757E+03  0.85686151788E+02 0.  0.
        -11    1    3    3    0    0 -0.42737590172E+02  0.17026897858E+02 -0.54110597864E+02  0.71023754234E+02  0.00000000000E+00 0.  1.
         12    1    3    3    0    0  0.41185516891E+02  0.30162961154E+01 -0.66649916724E+02  0.78406353334E+02  0.00000000000E+00 0. -1.
          3    1    1    2  501    0  0.15520732812E+01 -0.20043193973E+02 -0.49166163044E+03  0.49207245138E+03  0.00000000000E+00 0. -1.
<mgrwt>
<rscale>  1 0.88012813E+02</rscale>
<asrwt>0</asrwt>
<pdfrwt beam="1">  1       21 0.22369550E-02 0.88012813E+02</pdfrwt>
<pdfrwt beam="2">  1        4 0.96455742E-01 0.88012813E+02</pdfrwt>
<totfact> 0.36357630E+04</totfact>
</mgrwt>
</event>
<event>
 6    2  0.8544106E+000  0.7764821E+02  0.7546771E-02  0.1335861E+00
         -1   -1    0    0    0  501 -0.00000000000E+00  0.00000000000E+00  0.15808223981E+03  0.15808223981E+03  0.00000000000E+00 0.  1.
         21   -1    0    0  501  502  0.00000000000E+00 -0.00000000000E+00 -0.21364665516E+02  0.21364665516E+02  0.00000000000E+00 0. -1.
         24    2    1    2    0    0 -0.34216496626E+02 -0.16110621307E+02  0.10126927680E+03  0.12761156453E+03  0.67815368596E+02 0.  0.
        -13    1    3    3    0    0  0.17482225218E+02  0.70289164864E+01  0.39742653882E+02  0.43983092241E+02  0.00000000000E+00 0.  1.
         14    1    3    3    0    0 -0.51698721844E+02 -0.23139537793E+02  0.61526622922E+02  0.83628472291E+02  0.00000000000E+00 0. -1.
         -2    1    1    2    0  502  0.34216496626E+02  0.16110621307E+02  0.35448297493E+02  0.51835340795E+02  0.00000000000E+00 0.  1.
<mgrwt>
<rscale>  1 0.77648213E+02</rscale>
<asrwt>0</asrwt>
<pdfrwt beam="1">  1       21 0.32868717E-02 0.77648213E+02</pdfrwt>
<pdfrwt beam="2">  1       -1 0.24320344E-01 0.77648213E+02</pdfrwt>
<totfact> 0.65856206E+05</totfact>
</mgrwt>
</event>
<event>
 6    2  0.8544106E+000  0.8320188E+02  0.7546771E-02  0.1320203E+00
          4   -1    0    0  502    0 -0.00000000000E+00  0.00000000000E+00  0.18001322432E+03  0.18001322432E+03  0.00000000000E+00 0. -1.
         21   -1    0    0  501  502  0.00000000000E+00 -0.00000000000E+00 -0.15003017770E+02  0.15003017770E+02  0.00000000000E+00 0.  1.
         24    2    1    2    0    0  0.12502564396E+02  0.15779999164E+02  0.12394366398E+03  0.14928022337E+03  0.80729367379E+02 0.  0.
        -13    1    3    3    0    0 -0.63194986126E+01  0.66492823354E+01 -0.10082590817E+02  0.13631128195E+02  0.00000000000E+00 0.  1.
         14    1    3    3    0    0  0.18822063008E+02  0.91307168284E+01  0.13402625480E+03  0.13564909517E+03  0.00000000000E+00 0. -1.
          3    1    1    2  501    0 -0.12502564396E+02 -0.15779999164E+02  0.41066542566E+02  0.45736018720E+02  0.00000000000E+00 0. -1.
<mgrwt>
<rscale>  1 0.83201882E+02</rscale>
<asrwt>0</asrwt>
<pdfrwt beam="1">  1       21 0.23081567E-02 0.83201882E+02</pdfrwt>
<pdfrwt beam="2">  1        4 0.27694341E-01 0.83201882E+02</pdfrwt>
<totfact> 0.43490478E+05</totfact>
</mgrwt>
</event>
<event>
 6    2  0.8544106E+000  0.8669802E+02  0.7546771E-02  0.1311051E+00
          2   -1    0    0  502    0 -0.00000000000E+00  0.00000000000E+00  0.89928409684E+03  0.89928409684E+03  0.00000000000E+00 0. -1.
         21   -1    0    0  501  502  0.00000000000E+00 -0.00000000000E+00 -0.42819150967E+01  0.42819150967E+01  0.00000000000E+00 0. -1.
         24    2    1    2    0    0  0.30110442621E+02 -0.88731570316E+01  0.76167559811E+03  0.76659393604E+03  0.80815681371E+02 0.  0.
        -11    1    3    3    0    0 -0.79751370573E+01 -0.20676122319E+02  0.63045326559E+02  0.66826776416E+02  0.00000000000E+00 0.  1.
         12    1    3    3    0    0  0.38085579678E+02  0.11802965287E+02  0.69863027155E+03  0.69976715962E+03  0.00000000000E+00 0. -1.
          1    1    1    2  501    0 -0.30110442621E+02  0.88731570316E+01  0.13332658363E+03  0.13697207589E+03  0.00000000000E+00 0. -1.
<mgrwt>
<rscale>  1 0.86698016E+02</rscale>
<asrwt>0</asrwt>
<pdfrwt beam="1">  1       21 0.65875688E-03 0.86698016E+02</pdfrwt>
<pdfrwt beam="2">  1        2 0.13835125E+00 0.86698016E+02</pdfrwt>
<totfact> 0.26063071E+06</totfact>
</mgrwt>
</event>
<event>
 6    2  0.8544106E+000  0.8724855E+02  0.7546771E-02  0.1309655E+00
         21   -1    0    0  501  502  0.00000000000E+00  0.00000000000E+00  0.99758563033E+01  0.99758563033E+01  0.00000000000E+00 0. -1.
         -1   -1    0    0    0  501 -0.00000000000E+00 -0.00000000000E+00 -0.34287042794E+03  0.34287042794E+03  0.00000000000E+00 0.  1.
         24    2    1    2    0    0 -0.27678952202E+02 -0.63598636132E+01 -0.22640212451E+03  0.24263188611E+03  0.82496896401E+02 0.  0.
        -13    1    3    3    0    0  0.20131739653E+02 -0.37874376175E+01 -0.15691346486E+03  0.15824495910E+03  0.00000000000E+00 0.  1.
         14    1    3    3    0    0 -0.47810691855E+02 -0.25724259957E+01 -0.69488659648E+02  0.84386927014E+02  0.00000000000E+00 0. -1.
         -2    1    1    2    0  502  0.27678952202E+02  0.63598636132E+01 -0.10649244712E+03  0.11021439813E+03  0.00000000000E+00 0.  1.
<mgrwt>
<rscale>  1 0.87248554E+02</rscale>
<asrwt>0</asrwt>
<pdfrwt beam="1">  1       21 0.15347475E-02 0.87248554E+02</pdfrwt>
<pdfrwt beam="2">  1       -1 0.52749283E-01 0.87248554E+02</pdfrwt>
<totfact> 0.60432351E+05</totfact>
</mgrwt>
</event>
<event>
 6    2  0.8544106E+000  0.8551522E+02  0.7546771E-02  0.1314091E+00
          2   -1    0    0  502    0 -0.00000000000E+00  0.00000000000E+00  0.83647877958E+03  0.83647877958E+03  0.00000000000E+00 0. -1.
         21   -1    0    0  501  502  0.00000000000E+00 -0.00000000000E+00 -0.57077556265E+01  0.57077556265E+01  0.00000000000E+00 0.  1.
         24    2    1    2    0    0 -0.69504496657E+01  0.24353624307E+02  0.33410925201E+03  0.34487946359E+03  0.81678910140E+02 0.  0.
        -13    1    3    3    0    0  0.14971707440E+01 -0.64375662476E+01 -0.22699562717E+01  0.69883103040E+01  0.00000000000E+00 0.  1.
         14    1    3    3    0    0 -0.84476204098E+01  0.30791190554E+02  0.33637920828E+03  0.33789115329E+03  0.00000000000E+00 0. -1.
          1    1    1    2  501    0  0.69504496657E+01 -0.24353624307E+02  0.49666177195E+03  0.49730707162E+03  0.00000000000E+00 0. -1.
<mgrwt>
<rscale>  1 0.85515216E+02</rscale>
<asrwt>0</asrwt>
<pdfrwt beam="1">  1       21 0.87811691E-03 0.85515216E+02</pdfrwt>
<pdfrwt beam="2">  1        2 0.12868895E+00 0.85515216E+02</pdfrwt>
<totfact> 0.18268052E+06</totfact>
</mgrwt>
</event>
<event>
 6    2  0.8544106E+000  0.1070622E+03  0.7546771E-02  0.1266109E+00
         -1   -1    0    0    0  501 -0.00000000000E+00  0.00000000000E+00  0.23292907676E+03  0.23292907676E+03  0.00000000000E+00 0.  1.
         21   -1    0    0  501  502  0.00000000000E+00 -0.00000000000E+00 -0.24483832988E+02  0.24483832988E+02  0.00000000000E+00 0. -1.
         24    2    1    2    0    0  0.96831679000E+01  0.21175387163E+02  0.20821464678E+03  0.23412742206E+03  0.10449952087E+03 0.  0.
        -11    1    3    3    0    0  0.27366614648E+02  0.59138062471E+02  0.12454894839E+03  0.14056558105E+03  0.00000000000E+00 0.  1.
         12    1    3    3    0    0 -0.17683446748E+02 -0.37962675308E+02  0.83665698395E+02  0.93561841011E+02  0.00000000000E+00 0. -1.
         -2    1    1    2    0  502 -0.96831679000E+01 -0.21175387163E+02  0.23059698972E+00  0.23285487692E+02  0.00000000000E+00 0.  1.
<mgrwt>
<rscale>  1 0.10706218E+03</rscale>
<asrwt>0</asrwt>
<pdfrwt beam="1">  1       21 0.37667437E-02 0.10706218E+03</pdfrwt>
<pdfrwt beam="2">  1       -1 0.35835241E-01 0.10706218E+03</pdfrwt>
<totfact> 0.28614983E+05</totfact>
</mgrwt>
</event>
<event>
 6    2  0.8544106E+000  0.1028677E+03  0.7546771E-02  0.1274379E+00
         -1   -1    0    0    0  501 -0.00000000000E+00  0.00000000000E+00  0.58354125642E+03  0.58354125642E+03  0.00000000000E+00 0.  1.
         21   -1    0    0  501  502  0.00000000000E+00 -0.00000000000E+00 -0.12541692962E+02  0.12541692962E+02  0.00000000000E+00 0.  1.
         24    2    1    2    0    0 -0.53509159902E+02 -0.37955946182E+02  0.39749218562E+03  0.41058714293E+03  0.79233075623E+02 0.  0.
        -13    1    3    3    0    0 -0.32611701785E+02 -0.10971407952E+02  0.35219195583E+03  0.35386871667E+03  0.00000000000E+00 0.  1.
         14    1    3    3    0    0 -0.20897458117E+02 -0.26984538230E+02  0.45300229786E+02  0.56718426265E+02  0.00000000000E+00 0. -1.
         -2    1    1    2    0  502  0.53509159902E+02  0.37955946182E+02  0.17350737784E+03  0.18549580645E+03  0.00000000000E+00 0.  1.
<mgrwt>
<rscale>  1 0.10286770E+03</rscale>
<asrwt>0</asrwt>
<pdfrwt beam="1">  1       21 0.19294917E-02 0.10286770E+03</pdfrwt>
<pdfrwt beam="2">  1       -1 0.89775557E-01 0.10286770E+03</pdfrwt>
<totfact> 0.15080169E+05</totfact>
</mgrwt>
</event>
<event>
 6    2  0.8544106E+000  0.8920209E+02  0.7546771E-02  0.1304796E+00
         21   -1    0    0  501  502  0.00000000000E+00  0.00000000000E+00  0.16542186442E+02  0.16542186442E+02  0.00000000000E+00 0.  1.
          2   -1    0    0  502    0 -0.00000000000E+00 -0.00000000000E+00 -0.36520443316E+03  0.36520443316E+03  0.00000000000E+00 0. -1.
         24    2    1    2    0    0  0.10416912843E+02  0.39851540795E+02 -0.12065596591E+03  0.15004957287E+03  0.79122404107E+02 0.  0.
        -13    1    3    3    0    0  0.40211646932E+01  0.30819034070E+02 -0.22869702338E+01  0.31164288205E+02  0.00000000000E+00 0.  1.
         14    1    3    3    0    0  0.63957481502E+01  0.90325067257E+01 -0.11836899568E+03  0.11888528467E+03  0.00000000000E+00 0. -1.
          1    1    1    2  501    0 -0.10416912843E+02 -0.39851540795E+02 -0.22800628080E+03  0.23169704673E+03  0.00000000000E+00 0. -1.
<mgrwt>
<rscale>  1 0.89202086E+02</rscale>
<asrwt>0</asrwt>
<pdfrwt beam="1">  1       21 0.25449519E-02 0.89202086E+02</pdfrwt>
<pdfrwt beam="2">  1        2 0.56185295E-01 0.89202086E+02</pdfrwt>
<totfact> 0.85616375E+05</totfact>
</mgrwt>
</event>
<event>
 6    2  0.8544106E+000  0.1004276E+03  0.7546771E-02  0.1279399E+00
         21   -1    0    0  501  502  0.00000000000E+00  0.00000000000E+00  0.74371685837E+02  0.74371685837E+02  0.00000000000E+00 0.  1.
         -3   -1    0    0    0  501 -0.00000000000E+00 -0.00000000000E+00 -0.56790234929E+03  0.56790234929E+03  0.00000000000E+00 0.  1.
         24    2    1    2    0    0  0.13833413106E+02 -0.57994245426E+02 -0.55063443739E+03  0.55971777056E+03  0.80814622550E+02 0.  0.
        -11    1    3    3    0    0  0.35084445111E+01 -0.43540317378E+02 -0.53265695882E+03  0.53444504320E+03  0.00000000000E+00 0.  1.
         12    1    3    3    0    0  0.10324968595E+02 -0.14453928048E+02 -0.17977478575E+02  0.25272727364E+02  0.00000000000E+00 0. -1.
         -4    1    1    2    0  502 -0.13833413106E+02  0.57994245426E+02  0.57103773941E+02  0.82556264565E+02  0.00000000000E+00 0.  1.
<mgrwt>
<rscale>  1 0.10042758E+03</rscale>
<asrwt>0</asrwt>
<pdfrwt beam="1">  1       21 0.11441798E-01 0.10042758E+03</pdfrwt>
<pdfrwt beam="2">  1       -3 0.87369589E-01 0.10042758E+03</pdfrwt>
<totfact> 0.37837473E+03</totfact>
</mgrwt>
</event>
<event>
 6    2  0.8544106E+000  0.9498042E+02  0.7546771E-02  0.1291220E+00
         -3   -1    0    0    0  501 -0.00000000000E+00  0.00000000000E+00  0.41317395663E+03  0.41317395663E+03  0.00000000000E+00 0.  1.
         21   -1    0    0  501  502  0.00000000000E+00 -0.00000000000E+00 -0.15044655649E+02  0.15044655649E+02  0.00000000000E+00 0. -1.
         24    2    1    2    0    0  0.90455832133E+01  0.50937917847E+02  0.17440985858E+03  0.19859526207E+03  0.79654160584E+02 0.  0.
        -13    1    3    3    0    0 -0.27641548319E+02  0.37307364803E+02  0.13620639698E+03  0.14390301332E+03  0.00000000000E+00 0.  1.
         14    1    3    3    0    0  0.36687131532E+02  0.13630553044E+02  0.38203461592E+02  0.54692248755E+02  0.00000000000E+00 0. -1.
         -4    1    1    2    0  502 -0.90455832133E+01 -0.50937917847E+02  0.22371944241E+03  0.22962335021E+03  0.00000000000E+00 0.  1.
<mgrwt>
<rscale>  1 0.94980416E+02</rscale>
<asrwt>0</asrwt>
<pdfrwt beam="1">  1       21 0.23145627E-02 0.94980416E+02</pdfrwt>
<pdfrwt beam="2">  1       -3 0.63565216E-01 0.94980416E+02</pdfrwt>
<totfact> 0.10747871E+05</totfact>
</mgrwt>
</event>
<event>
 6    2  0.8544106E+000  0.8572753E+02  0.7546771E-02  0.1313541E+00
         21   -1    0    0  501  502  0.00000000000E+00  0.00000000000E+00  0.27923710641E+01  0.27923710641E+01  0.00000000000E+00 0.  1.
          2   -1    0    0  502    0 -0.00000000000E+00 -0.00000000000E+00 -0.15751032652E+04  0.15751032652E+04  0.00000000000E+00 0. -1.
         24    2    1    2    0    0 -0.57581518379E+01  0.27389494040E+02 -0.14451763586E+04  0.14477167946E+04  0.81030050930E+02 0.  0.
        -11    1    3    3    0    0 -0.16819397595E+02  0.20159038075E+02 -0.13808822273E+03  0.14056185901E+03  0.00000000000E+00 0.  1.
         12    1    3    3    0    0  0.11061245757E+02  0.72304559654E+01 -0.13070881358E+04  0.13071549355E+04  0.00000000000E+00 0. -1.
          1    1    1    2  501    0  0.57581518379E+01 -0.27389494040E+02 -0.12713453552E+03  0.13017884167E+03  0.00000000000E+00 0. -1.
<mgrwt>
<rscale>  1 0.85727533E+02</rscale>
<asrwt>0</asrwt>
<pdfrwt beam="1">  1       21 0.42959527E-03 0.85727533E+02</pdfrwt>
<pdfrwt beam="2">  1        2 0.24232373E+00 0.85727533E+02</pdfrwt>
<totfact> 0.21501939E+06</totfact>
</mgrwt>
</event>
<event>
 6    2  0.8544106E+000  0.7388839E+02  0.7546771E-02  0.1347348E+00
         -3   -1    0    0    0  501 -0.00000000000E+00  0.00000000000E+00  0.57618901874E+02  0.57618901874E+02  0.00000000000E+00 0.  1.
         21   -1    0    0  501  502  0.00000000000E+00 -0.00000000000E+00 -0.56941915355E+02  0.56941915355E+02  0.00000000000E+00 0. -1.
         24    2    1    2    0    0 -0.23471080327E+02 -0.27422189621E+02 -0.14683256099E+02  0.75333210259E+02  0.64471904447E+02 0.  0.
        -11    1    3    3    0    0  0.59620781871E+01 -0.29754232569E+02  0.14664652836E+02  0.33703305103E+02  0.00000000000E+00 0.  1.
         12    1    3    3    0    0 -0.29433158514E+02  0.23320429482E+01 -0.29347908936E+02  0.41629905156E+02  0.00000000000E+00 0. -1.
         -4    1    1    2    0  502  0.23471080327E+02  0.27422189621E+02  0.15360242618E+02  0.39227606970E+02  0.00000000000E+00 0.  1.
<mgrwt>
<rscale>  1 0.73888393E+02</rscale>
<asrwt>0</asrwt>
<pdfrwt beam="1">  1       21 0.87602946E-02 0.73888393E+02</pdfrwt>
<pdfrwt beam="2">  1       -3 0.88644465E-02 0.73888393E+02</pdfrwt>
<totfact> 0.39276497E+05</totfact>
</mgrwt>
</event>
<event>
 6    2  0.8544106E+000  0.9592427E+02  0.7546771E-02  0.1289108E+00
         21   -1    0    0  501  502  0.00000000000E+00  0.00000000000E+00  0.41330545281E+01  0.41330545281E+01  0.00000000000E+00 0.  1.
          2   -1    0    0  502    0 -0.00000000000E+00 -0.00000000000E+00 -0.13050580192E+04  0.13050580192E+04  0.00000000000E+00 0. -1.
         24    2    1    2    0    0 -0.69830359998E+01  0.37965694846E+02 -0.11249264324E+04  0.11290088322E+04  0.87814054943E+02 0.  0.
        -13    1    3    3    0    0 -0.33809234102E+02  0.53170406653E+02 -0.63689257448E+03  0.64000180303E+03  0.00000000000E+00 0.  1.
         14    1    3    3    0    0  0.26826198102E+02 -0.15204711807E+02 -0.48803385788E+03  0.48900702920E+03  0.00000000000E+00 0. -1.
          1    1    1    2  501    0  0.69830359998E+01 -0.37965694846E+02 -0.17599853233E+03  0.18018224152E+03  0.00000000000E+00 0. -1.
<mgrwt>
<rscale>  1 0.95924267E+02</rscale>
<asrwt>0</asrwt>
<pdfrwt beam="1">  1       21 0.63585444E-03 0.95924267E+02</pdfrwt>
<pdfrwt beam="2">  1        2 0.20077819E+00 0.95924267E+02</pdfrwt>
<totfact> 0.16381468E+06</totfact>
</mgrwt>
</event>
<event>
 6    2  0.8544106E+000  0.8356168E+02  0.7546771E-02  0.1319237E+00
         21   -1    0    0  501  502  0.00000000000E+00  0.00000000000E+00  0.39737535895E+02  0.39737535895E+02  0.00000000000E+00 0. -1.
          2   -1    0    0  502    0 -0.00000000000E+00 -0.00000000000E+00 -0.69873319166E+03  0.69873319166E+03  0.00000000000E+00 0. -1.
         24    2    1    2    0    0  0.22851959752E+02 -0.70318732400E+01 -0.69238192807E+03  0.69740611404E+03  0.80068060235E+02 0.  0.
        -11    1    3    3    0    0 -0.20383353668E+02 -0.19591832616E+02 -0.12125848259E+03  0.12451080520E+03  0.00000000000E+00 0.  1.
         12    1    3    3    0    0  0.43235313420E+02  0.12559959376E+02 -0.57112344548E+03  0.57289530884E+03  0.00000000000E+00 0. -1.
          1    1    1    2  501    0 -0.22851959752E+02  0.70318732400E+01  0.33386272301E+02  0.41064613524E+02  0.00000000000E+00 0. -1.
<mgrwt>
<rscale>  1 0.83561675E+02</rscale>
<asrwt>0</asrwt>
<pdfrwt beam="1">  1       21 0.61134670E-02 0.83561675E+02</pdfrwt>
<pdfrwt beam="2">  1        2 0.10749742E+00 0.83561675E+02</pdfrwt>
<totfact> 0.99617130E+04</totfact>
</mgrwt>
</event>
<event>
 6    2  0.8544106E+000  0.8920177E+02  0.7546771E-02  0.1304796E+00
         21   -1    0    0  501  502  0.00000000000E+00  0.00000000000E+00  0.44412869600E+03  0.44412869600E+03  0.00000000000E+00 0. -1.
          2   -1    0    0  502    0 -0.00000000000E+00 -0.00000000000E+00 -0.32186983580E+02  0.32186983580E+02  0.00000000000E+00 0. -1.
         24    2    1    2    0    0 -0.40269775402E+02  0.16445642620E+02  0.33348376354E+02  0.95231662485E+02  0.77877091381E+02 0.  0.
        -11    1    3    3    0    0  0.15056971014E+02  0.19322485726E+02  0.31361369319E+02  0.39794551339E+02  0.00000000000E+00 0.  1.
         12    1    3    3    0    0 -0.55326746416E+02 -0.28768431059E+01  0.19870070358E+01  0.55437111146E+02  0.00000000000E+00 0. -1.
          1    1    1    2  501    0  0.40269775402E+02 -0.16445642620E+02  0.37859333606E+03  0.38108401709E+03  0.00000000000E+00 0. -1.
<mgrwt>
<rscale>  1 0.89201768E+02</rscale>
<asrwt>0</asrwt>
<pdfrwt beam="1">  1       21 0.68327487E-01 0.89201768E+02</pdfrwt>
<pdfrwt beam="2">  1        2 0.49518439E-02 0.89201768E+02</pdfrwt>
<totfact> 0.36963312E+04</totfact>
</mgrwt>
</event>
<event>
 6    2  0.8544106E+000  0.9393701E+02  0.7546771E-02  0.1293588E+00
          2   -1    0    0  502    0 -0.00000000000E+00  0.00000000000E+00  0.68044774091E+03  0.68044774091E+03  0.00000000000E+00 0. -1.
         21   -1    0    0  501  502  0.00000000000E+00 -0.00000000000E+00 -0.75105070725E+01  0.75105070725E+01  0.00000000000E+00 0.  1.
         24    2    1    2    0    0 -0.42937705994E+02  0.23650190477E+02  0.44740386787E+03  0.45715903380E+03  0.80132284931E+02 0.  0.
        -13    1    3    3    0    0 -0.61703074270E+02 -0.15453348630E+01  0.32341524087E+03  0.32925229758E+03  0.00000000000E+00 0.  1.
         14    1    3    3    0    0  0.18765368275E+02  0.25195525340E+02  0.12398862700E+03  0.12790673622E+03  0.00000000000E+00 0. -1.
          1    1    1    2  501    0  0.42937705994E+02 -0.23650190477E+02  0.22553336596E+03  0.23079921418E+03  0.00000000000E+00 0. -1.
<mgrwt>
<rscale>  1 0.93937007E+02</rscale>
<asrwt>0</asrwt>
<pdfrwt beam="1">  1       21 0.11554632E-02 0.93937007E+02</pdfrwt>
<pdfrwt beam="2">  1        2 0.10468422E+00 0.93937007E+02</pdfrwt>
<totfact> 0.15371100E+06</totfact>
</mgrwt>
</event>
<event>
 6    2  0.8544106E+000  0.8618087E+02  0.7546771E-02  0.1312373E+00
         21   -1    0    0  501  502  0.00000000000E+00  0.00000000000E+00  0.95092873243E+02  0.95092873243E+02  0.00000000000E+00 0.  1.
          2   -1    0    0  502    0 -0.00000000000E+00 -0.00000000000E+00 -0.50696476868E+02  0.50696476868E+02  0.00000000000E+00 0. -1.
         24    2    1    2    0    0  0.19916531264E+02 -0.45311202605E+01  0.71410665057E+02  0.11192240486E+03  0.83725398516E+02 0.  0.
        -13    1    3    3    0    0  0.16181763660E+02  0.34578869200E+02  0.59812483717E+02  0.70958303804E+02  0.00000000000E+00 0.  1.
         14    1    3    3    0    0  0.37347676042E+01 -0.39109989461E+02  0.11598181340E+02  0.40964101053E+02  0.00000000000E+00 0. -1.
          1    1    1    2  501    0 -0.19916531264E+02  0.45311202605E+01 -0.27014268681E+02  0.33866945254E+02  0.00000000000E+00 0. -1.
<mgrwt>
<rscale>  1 0.86180866E+02</rscale>
<asrwt>0</asrwt>
<pdfrwt beam="1">  1       21 0.14629673E-01 0.86180866E+02</pdfrwt>
<pdfrwt beam="2">  1        2 0.77994580E-02 0.86180866E+02</pdfrwt>
<totfact> 0.40876788E+05</totfact>
</mgrwt>
</event>
<event>
 6    2  0.8544106E+000  0.8605271E+02  0.7546771E-02  0.1312702E+00
          2   -1    0    0  502    0 -0.00000000000E+00  0.00000000000E+00  0.49295985763E+02  0.49295985763E+02  0.00000000000E+00 0. -1.
         21   -1    0    0  501  502  0.00000000000E+00 -0.00000000000E+00 -0.70449161866E+02  0.70449161866E+02  0.00000000000E+00 0.  1.
         24    2    1    2    0    0 -0.34190883001E+01 -0.27841316492E+02 -0.25576964149E+01  0.86090713542E+02  0.81352566514E+02 0.  0.
        -11    1    3    3    0    0  0.57240945271E+01 -0.27135763311E+02 -0.39367887084E+02  0.48155430037E+02  0.00000000000E+00 0.  1.
         12    1    3    3    0    0 -0.91431828272E+01 -0.70555318127E+00  0.36810190669E+02  0.37935283505E+02  0.00000000000E+00 0. -1.
          1    1    1    2  501    0  0.34190883001E+01  0.27841316492E+02 -0.18595479689E+02  0.33654434087E+02  0.00000000000E+00 0. -1.
<mgrwt>
<rscale>  1 0.86052711E+02</rscale>
<asrwt>0</asrwt>
<pdfrwt beam="1">  1       21 0.10838333E-01 0.86052711E+02</pdfrwt>
<pdfrwt beam="2">  1        2 0.75839978E-02 0.86052711E+02</pdfrwt>
<totfact> 0.71725457E+05</totfact>
</mgrwt>
</event>
<event>
 6    2  0.8544106E+000  0.7969281E+02  0.7546771E-02  0.1329925E+00
         21   -1    0    0  501  502  0.00000000000E+00  0.00000000000E+00  0.13363491238E+01  0.13363491238E+01  0.00000000000E+00 0. -1.
         -1   -1    0    0    0  501 -0.00000000000E+00 -0.00000000000E+00 -0.21023060008E+04  0.21023060008E+04  0.00000000000E+00 0.  1.
         24    2    1    2    0    0 -0.38849249832E+01 -0.22934159173E+02 -0.18057760764E+04  0.18075337293E+04  0.76222544616E+02 0.  0.
        -13    1    3    3    0    0  0.20713787345E+02 -0.17650889884E+02 -0.15991451184E+04  0.15993766675E+04  0.00000000000E+00 0.  1.
         14    1    3    3    0    0 -0.24598712328E+02 -0.52832692884E+01 -0.20663095798E+03  0.20815706181E+03  0.00000000000E+00 0. -1.
         -2    1    1    2    0  502  0.38849249832E+01  0.22934159173E+02 -0.29519357528E+03  0.29610862059E+03  0.00000000000E+00 0.  1.
<mgrwt>
<rscale>  1 0.79692814E+02</rscale>
<asrwt>0</asrwt>
<pdfrwt beam="1">  1       21 0.20559149E-03 0.79692814E+02</pdfrwt>
<pdfrwt beam="2">  1       -1 0.32343277E+00 0.79692814E+02</pdfrwt>
<totfact> 0.11278559E+05</totfact>
</mgrwt>
</event>
<event>
 6    2  0.8544106E+000  0.8441274E+02  0.7546771E-02  0.1316975E+00
          2   -1    0    0  502    0 -0.00000000000E+00  0.00000000000E+00  0.17599183999E+04  0.17599183999E+04  0.00000000000E+00 0. -1.
         21   -1    0    0  501  502  0.00000000000E+00 -0.00000000000E+00 -0.77655465905E+01  0.77655465905E+01  0.00000000000E+00 0. -1.
         24    2    1    2    0    0 -0.30289229592E+02 -0.27862362946E+01  0.17245338853E+04  0.17265985728E+04  0.78742043085E+02 0.  0.
        -13    1    3    3    0    0 -0.90465846945E+01  0.67492903140E+01  0.32493510265E+02  0.34397991565E+02  0.00000000000E+00 0.  1.
         14    1    3    3    0    0 -0.21242644898E+02 -0.95355266086E+01  0.16920403750E+04  0.16922005812E+04  0.00000000000E+00 0. -1.
          1    1    1    2  501    0  0.30289229592E+02  0.27862362946E+01  0.27618968043E+02  0.41085373769E+02  0.00000000000E+00 0. -1.
<mgrwt>
<rscale>  1 0.84412735E+02</rscale>
<asrwt>0</asrwt>
<pdfrwt beam="1">  1       21 0.11947009E-02 0.84412735E+02</pdfrwt>
<pdfrwt beam="2">  1        2 0.27075636E+00 0.84412735E+02</pdfrwt>
<totfact> 0.35696799E+05</totfact>
</mgrwt>
</event>
<event>
 6    2  0.8544106E+000  0.8301216E+02  0.7546771E-02  0.1320714E+00
         21   -1    0    0  501  502  0.00000000000E+00  0.00000000000E+00  0.13286970376E+02  0.13286970376E+02  0.00000000000E+00 0. -1.
          2   -1    0    0  502    0 -0.00000000000E+00 -0.00000000000E+00 -0.35841321470E+03  0.35841321470E+03  0.00000000000E+00 0. -1.
         24    2    1    2    0    0 -0.13437493618E+01  0.23879497500E+02 -0.33599718022E+03  0.34609987503E+03  0.79492026732E+02 0.  0.
        -13    1    3    3    0    0 -0.21194902908E+02  0.42156215739E+01 -0.21916311871E+02  0.30778565603E+02  0.00000000000E+00 0.  1.
         14    1    3    3    0    0  0.19851153546E+02  0.19663875926E+02 -0.31408086835E+03  0.31532130942E+03  0.00000000000E+00 0. -1.
          1    1    1    2  501    0  0.13437493618E+01 -0.23879497500E+02 -0.91290641040E+01  0.25600310049E+02  0.00000000000E+00 0. -1.
<mgrwt>
<rscale>  1 0.83012158E+02</rscale>
<asrwt>0</asrwt>
<pdfrwt beam="1">  1       21 0.20441494E-02 0.83012158E+02</pdfrwt>
<pdfrwt beam="2">  1        2 0.55140493E-01 0.83012158E+02</pdfrwt>
<totfact> 0.12321135E+06</totfact>
</mgrwt>
</event>
<event>
 6    2  0.8544106E+000  0.8350397E+02  0.7546771E-02  0.1319392E+00
         -3   -1    0    0    0  501 -0.00000000000E+00  0.00000000000E+00  0.40735291159E+03  0.40735291159E+03  0.00000000000E+00 0.  1.
         21   -1    0    0  501  502  0.00000000000E+00 -0.00000000000E+00 -0.72142933630E+01  0.72142933630E+01  0.00000000000E+00 0.  1.
         24    2    1    2    0    0  0.45719063975E+01  0.22325520333E+02  0.27605126921E+03  0.28840460601E+03  0.80334191653E+02 0.  0.
        -13    1    3    3    0    0  0.34095433799E+02  0.22623468365E+02  0.23062231133E+03  0.23422418836E+03  0.00000000000E+00 0.  1.
         14    1    3    3    0    0 -0.29523527402E+02 -0.29794803204E+00  0.45428957883E+02  0.54180417658E+02  0.00000000000E+00 0. -1.
         -4    1    1    2    0  502 -0.45719063975E+01 -0.22325520333E+02  0.12408734902E+03  0.12616259894E+03  0.00000000000E+00 0.  1.
<mgrwt>
<rscale>  1 0.83503973E+02</rscale>
<asrwt>0</asrwt>
<pdfrwt beam="1">  1       21 0.11098916E-02 0.83503973E+02</pdfrwt>
<pdfrwt beam="2">  1       -3 0.62669661E-01 0.83503973E+02</pdfrwt>
<totfact> 0.34807480E+05</totfact>
</mgrwt>
</event>
<event>
 6    2  0.8544106E+000  0.8949788E+02  0.7546771E-02  0.1304072E+00
         21   -1    0    0  501  502  0.00000000000E+00  0.00000000000E+00  0.84477313882E+03  0.84477313882E+03  0.00000000000E+00 0. -1.
          2   -1    0    0  502    0 -0.00000000000E+00 -0.00000000000E+00 -0.54768220982E+01  0.54768220982E+01  0.00000000000E+00 0. -1.
         24    2    1    2    0    0  0.38755005540E+02 -0.61022097319E-01  0.43568667553E+03  0.44478393689E+03  0.80671662330E+02 0.  0.
        -11    1    3    3    0    0 -0.22198263065E+02 -0.14788813168E+02  0.11983798956E+03  0.12277058124E+03  0.00000000000E+00 0.  1.
         12    1    3    3    0    0  0.60953268605E+02  0.14727791071E+02  0.31584868597E+03  0.32201335565E+03  0.00000000000E+00 0. -1.
          1    1    1    2  501    0 -0.38755005540E+02  0.61022097319E-01  0.40360964119E+03  0.40546602403E+03  0.00000000000E+00 0. -1.
<mgrwt>
<rscale>  1 0.89497884E+02</rscale>
<asrwt>0</asrwt>
<pdfrwt beam="1">  1       21 0.12996499E+00 0.89497884E+02</pdfrwt>
<pdfrwt beam="2">  1        2 0.84258868E-03 0.89497884E+02</pdfrwt>
<totfact> 0.91354369E+04</totfact>
</mgrwt>
</event>
<event>
 6    2  0.8544106E+000  0.8663159E+02  0.7546771E-02  0.1311220E+00
         21   -1    0    0  501  502  0.00000000000E+00  0.00000000000E+00  0.39675485106E+01  0.39675485106E+01  0.00000000000E+00 0.  1.
          2   -1    0    0  502    0 -0.00000000000E+00 -0.00000000000E+00 -0.19307865233E+04  0.19307865233E+04  0.00000000000E+00 0. -1.
         24    2    1    2    0    0  0.30016424289E+02  0.50341597926E+01 -0.48910375365E+03  0.49671673377E+03  0.81109205917E+02 0.  0.
        -11    1    3    3    0    0  0.26582248367E+02 -0.16226588974E+02 -0.65095738395E+02  0.72162131864E+02  0.00000000000E+00 0.  1.
         12    1    3    3    0    0  0.34341759219E+01  0.21260748766E+02 -0.42400801526E+03  0.42455460191E+03  0.00000000000E+00 0. -1.
          1    1    1    2  501    0 -0.30016424289E+02 -0.50341597926E+01 -0.14377152211E+04  0.14380373380E+04  0.00000000000E+00 0. -1.
<mgrwt>
<rscale>  1 0.86631586E+02</rscale>
<asrwt>0</asrwt>
<pdfrwt beam="1">  1       21 0.61039023E-03 0.86631586E+02</pdfrwt>
<pdfrwt beam="2">  1        2 0.29704498E+00 0.86631586E+02</pdfrwt>
<totfact> 0.83327917E+05</totfact>
</mgrwt>
</event>
<event>
 6    2  0.8544106E+000  0.8506406E+02  0.7546771E-02  0.1315265E+00
         21   -1    0    0  501  502  0.00000000000E+00  0.00000000000E+00  0.46137103387E+01  0.46137103387E+01  0.00000000000E+00 0.  1.
          2   -1    0    0  502    0 -0.00000000000E+00 -0.00000000000E+00 -0.67660927488E+03  0.67660927488E+03  0.00000000000E+00 0. -1.
         24    2    1    2    0    0  0.15171863124E+02  0.19969963848E+02 -0.56224117353E+03  0.56863963283E+03  0.81282900640E+02 0.  0.
        -11    1    3    3    0    0  0.16166827550E+02  0.18925518770E+02 -0.45230347719E+02  0.51626794676E+02  0.00000000000E+00 0.  1.
         12    1    3    3    0    0 -0.99496442612E+00  0.10444450777E+01 -0.51701082581E+03  0.51701283816E+03  0.00000000000E+00 0. -1.
          1    1    1    2  501    0 -0.15171863124E+02 -0.19969963848E+02 -0.10975439101E+03  0.11258335238E+03  0.00000000000E+00 0. -1.
<mgrwt>
<rscale>  1 0.85064063E+02</rscale>
<asrwt>0</asrwt>
<pdfrwt beam="1">  1       21 0.70980184E-03 0.85064063E+02</pdfrwt>
<pdfrwt beam="2">  1        2 0.10409370E+00 0.85064063E+02</pdfrwt>
<totfact> 0.32696966E+06</totfact>
</mgrwt>
</event>
<event>
 6    2  0.8544106E+000  0.1018324E+03  0.7546771E-02  0.1276489E+00
         21   -1    0    0  501  502  0.00000000000E+00  0.00000000000E+00  0.33335827784E+02  0.33335827784E+02  0.00000000000E+00 0. -1.
         -1   -1    0    0    0  501 -0.00000000000E+00 -0.00000000000E+00 -0.14120651326E+03  0.14120651326E+03  0.00000000000E+00 0.  1.
         24    2    1    2    0    0  0.29694455103E+02  0.19200752783E+02 -0.78607070830E+02  0.12864257292E+03  0.95495604155E+02 0.  0.
        -11    1    3    3    0    0  0.33659504922E+02 -0.33729647894E+02 -0.27806247369E+02  0.55170996107E+02  0.00000000000E+00 0.  1.
         12    1    3    3    0    0 -0.39650498191E+01  0.52930400677E+02 -0.50800823461E+02  0.73471576818E+02  0.00000000000E+00 0. -1.
         -2    1    1    2    0  502 -0.29694455103E+02 -0.19200752783E+02 -0.29263614648E+02  0.45899768121E+02  0.00000000000E+00 0.  1.
<mgrwt>
<rscale>  1 0.10183241E+03</rscale>
<asrwt>0</asrwt>
<pdfrwt beam="1">  1       21 0.51285889E-02 0.10183241E+03</pdfrwt>
<pdfrwt beam="2">  1       -1 0.21724079E-01 0.10183241E+03</pdfrwt>
<totfact> 0.39067203E+05</totfact>
</mgrwt>
</event>
<event>
 6    2  0.8544106E+000  0.1014609E+03  0.7546771E-02  0.1277254E+00
         21   -1    0    0  501  502  0.00000000000E+00  0.00000000000E+00  0.38481675651E+01  0.38481675651E+01  0.00000000000E+00 0. -1.
          2   -1    0    0  502    0 -0.00000000000E+00 -0.00000000000E+00 -0.21825420605E+04  0.21825420605E+04  0.00000000000E+00 0. -1.
         24    2    1    2    0    0  0.42313701616E+02 -0.29456005986E+02 -0.19160168932E+04  0.19187013941E+04  0.87385348359E+02 0.  0.
        -13    1    3    3    0    0  0.97640676920E+01 -0.57039113155E+01 -0.27228813866E+02  0.29483553496E+02  0.00000000000E+00 0.  1.
         14    1    3    3    0    0  0.32549633924E+02 -0.23752094671E+02 -0.18887880793E+04  0.18892178406E+04  0.00000000000E+00 0. -1.
          1    1    1    2  501    0 -0.42313701616E+02  0.29456005986E+02 -0.26267699973E+03  0.26768883394E+03  0.00000000000E+00 0. -1.
<mgrwt>
<rscale>  1 0.10146085E+03</rscale>
<asrwt>0</asrwt>
<pdfrwt beam="1">  1       21 0.59202586E-03 0.10146085E+03</pdfrwt>
<pdfrwt beam="2">  1        2 0.33577565E+00 0.10146085E+03</pdfrwt>
<totfact> 0.65573151E+05</totfact>
</mgrwt>
</event>
<event>
 6    2  0.8544106E+000  0.8559770E+02  0.7546771E-02  0.1313877E+00
          2   -1    0    0  502    0 -0.00000000000E+00  0.00000000000E+00  0.16667746009E+04  0.16667746009E+04  0.00000000000E+00 0. -1.
         21   -1    0    0  501  502  0.00000000000E+00 -0.00000000000E+00 -0.42485933123E+01  0.42485933123E+01  0.00000000000E+00 0. -1.
         24    2    1    2    0    0 -0.14818412420E+02 -0.24379169050E+02  0.16000892146E+04  0.16023771284E+04  0.80703393908E+02 0.  0.
        -13    1    3    3    0    0 -0.64861279592E+01  0.18280536528E+02  0.11299317334E+03  0.11464599902E+03  0.00000000000E+00 0.  1.
         14    1    3    3    0    0 -0.83322844608E+01 -0.42659705578E+02  0.14870960412E+04  0.14877311294E+04  0.00000000000E+00 0. -1.
          1    1    1    2  501    0  0.14818412420E+02  0.24379169050E+02  0.62436793041E+02  0.68646065841E+02  0.00000000000E+00 0. -1.
<mgrwt>
<rscale>  1 0.85597705E+02</rscale>
<asrwt>0</asrwt>
<pdfrwt beam="1">  1       21 0.65363107E-03 0.85597705E+02</pdfrwt>
<pdfrwt beam="2">  1        2 0.25642634E+00 0.85597705E+02</pdfrwt>
<totfact> 0.10159097E+06</totfact>
</mgrwt>
</event>
<event>
 6    2  0.8544106E+000  0.8161128E+02  0.7546771E-02  0.1324540E+00
         21   -1    0    0  501  502  0.00000000000E+00  0.00000000000E+00  0.23943684578E+02  0.23943684578E+02  0.00000000000E+00 0. -1.
         -1   -1    0    0    0  501 -0.00000000000E+00 -0.00000000000E+00 -0.11163991009E+03  0.11163991009E+03  0.00000000000E+00 0.  1.
         24    2    1    2    0    0 -0.21418474396E+02  0.35201203226E+01 -0.71488149295E+02  0.10849403898E+03  0.78671841928E+02 0.  0.
        -13    1    3    3    0    0 -0.29736678085E+02 -0.11716884496E+02 -0.82131474197E+02  0.88131347769E+02  0.00000000000E+00 0.  1.
         14    1    3    3    0    0  0.83182036888E+01  0.15237004818E+02  0.10643324902E+02  0.20362691212E+02  0.00000000000E+00 0. -1.
         -2    1    1    2    0  502  0.21418474396E+02 -0.35201203226E+01 -0.16208076213E+02  0.27089555683E+02  0.00000000000E+00 0.  1.
<mgrwt>
<rscale>  1 0.81611280E+02</rscale>
<asrwt>0</asrwt>
<pdfrwt beam="1">  1       21 0.36836438E-02 0.81611280E+02</pdfrwt>
<pdfrwt beam="2">  1       -1 0.17175371E-01 0.81611280E+02</pdfrwt>
<totfact> 0.95548854E+05</totfact>
</mgrwt>
</event>
<event>
 6    2  0.8544106E+000  0.8437721E+02  0.7546771E-02  0.1317069E+00
         21   -1    0    0  501  502  0.00000000000E+00  0.00000000000E+00  0.31139415989E+01  0.31139415989E+01  0.00000000000E+00 0. -1.
          2   -1    0    0  502    0 -0.00000000000E+00 -0.00000000000E+00 -0.19829232617E+04  0.19829232617E+04  0.00000000000E+00 0. -1.
         24    2    1    2    0    0 -0.29935689002E+02  0.52971585035E+01 -0.18752676578E+04  0.18771649639E+04  0.78710277449E+02 0.  0.
        -13    1    3    3    0    0  0.20762530850E+02  0.20621832800E+02 -0.47891717649E+03  0.47981038401E+03  0.00000000000E+00 0.  1.
         14    1    3    3    0    0 -0.50698219853E+02 -0.15324674296E+02 -0.13963504813E+04  0.13973545798E+04  0.00000000000E+00 0. -1.
          1    1    1    2  501    0  0.29935689002E+02 -0.52971585035E+01 -0.10454166227E+03  0.10887223941E+03  0.00000000000E+00 0. -1.
<mgrwt>
<rscale>  1 0.84377207E+02</rscale>
<asrwt>0</asrwt>
<pdfrwt beam="1">  1       21 0.47906816E-03 0.84377207E+02</pdfrwt>
<pdfrwt beam="2">  1        2 0.30506498E+00 0.84377207E+02</pdfrwt>
<totfact> 0.11362530E+06</totfact>
</mgrwt>
</event>
<event>
 6    2  0.8544106E+000  0.1020536E+03  0.7546771E-02  0.1276036E+00
         21   -1    0    0  501  502  0.00000000000E+00  0.00000000000E+00  0.11824315041E+02  0.11824315041E+02  0.00000000000E+00 0. -1.
          2   -1    0    0  502    0 -0.00000000000E+00 -0.00000000000E+00 -0.84036483304E+03  0.84036483304E+03  0.00000000000E+00 0. -1.
         24    2    1    2    0    0 -0.52278138945E+01  0.61596821425E+02 -0.24530720297E+03  0.26568885123E+03  0.81200020881E+02 0.  0.
        -13    1    3    3    0    0 -0.31600291777E+02  0.71398826715E+01 -0.39046509848E+02  0.50736439530E+02  0.00000000000E+00 0.  1.
         14    1    3    3    0    0  0.26372477882E+02  0.54456938754E+02 -0.20626069313E+03  0.21495241170E+03  0.00000000000E+00 0. -1.
          1    1    1    2  501    0  0.52278138945E+01 -0.61596821425E+02 -0.58323331503E+03  0.58650029685E+03  0.00000000000E+00 0. -1.
<mgrwt>
<rscale>  1 0.10205362E+03</rscale>
<asrwt>0</asrwt>
<pdfrwt beam="1">  1       21 0.18191252E-02 0.10205362E+03</pdfrwt>
<pdfrwt beam="2">  1        2 0.12928691E+00 0.10205362E+03</pdfrwt>
<totfact> 0.58481127E+05</totfact>
</mgrwt>
</event>
<event>
 6    2  0.8544106E+000  0.1021641E+03  0.7546771E-02  0.1275810E+00
         21   -1    0    0  501  502  0.00000000000E+00  0.00000000000E+00  0.35624355515E+01  0.35624355515E+01  0.00000000000E+00 0.  1.
          2   -1    0    0  502    0 -0.00000000000E+00 -0.00000000000E+00 -0.25047525983E+04  0.25047525983E+04  0.00000000000E+00 0. -1.
         24    2    1    2    0    0  0.51124326203E+02 -0.36568280502E+02 -0.88063359842E+03  0.88653992180E+03  0.80539198018E+02 0.  0.
        -11    1    3    3    0    0  0.31983840116E+02 -0.23145044707E+02 -0.13794289425E+03  0.14348136185E+03  0.00000000000E+00 0.  1.
         12    1    3    3    0    0  0.19140486087E+02 -0.13423235795E+02 -0.74269070416E+03  0.74305855995E+03  0.00000000000E+00 0. -1.
          1    1    1    2  501    0 -0.51124326203E+02  0.36568280502E+02 -0.16205565644E+04  0.16217751121E+04  0.00000000000E+00 0. -1.
<mgrwt>
<rscale>  1 0.10216408E+03</rscale>
<asrwt>0</asrwt>
<pdfrwt beam="1">  1       21 0.54806520E-03 0.10216408E+03</pdfrwt>
<pdfrwt beam="2">  1        2 0.38534783E+00 0.10216408E+03</pdfrwt>
<totfact> 0.50281022E+05</totfact>
</mgrwt>
</event>
<event>
 6    2  0.8544106E+000  0.8559074E+02  0.7546771E-02  0.1313895E+00
         21   -1    0    0  501  502  0.00000000000E+00  0.00000000000E+00  0.24960148165E+01  0.24960148165E+01  0.00000000000E+00 0. -1.
          2   -1    0    0  502    0 -0.00000000000E+00 -0.00000000000E+00 -0.14926179850E+04  0.14926179850E+04  0.00000000000E+00 0. -1.
         24    2    1    2    0    0  0.18366741854E+02 -0.21776523635E+02 -0.13059540526E+04  0.13087558070E+04  0.80710721024E+02 0.  0.
        -11    1    3    3    0    0 -0.30774955470E+02 -0.52842870181E+01 -0.34710719286E+03  0.34850885916E+03  0.00000000000E+00 0.  1.
         12    1    3    3    0    0  0.49141697324E+02 -0.16492236617E+02 -0.95884685977E+03  0.96024694780E+03  0.00000000000E+00 0. -1.
          1    1    1    2  501    0 -0.18366741854E+02  0.21776523635E+02 -0.18416791754E+03  0.18635819284E+03  0.00000000000E+00 0. -1.
<mgrwt>
<rscale>  1 0.85590739E+02</rscale>
<asrwt>0</asrwt>
<pdfrwt beam="1">  1       21 0.38400201E-03 0.85590739E+02</pdfrwt>
<pdfrwt beam="2">  1        2 0.22963370E+00 0.85590739E+02</pdfrwt>
<totfact> 0.28083929E+06</totfact>
</mgrwt>
</event>
<event>
 6    2  0.8978138E+000  0.8654362E+02  0.7546771E-02  0.1311444E+00
         21   -1    0    0  501  502  0.00000000000E+00  0.00000000000E+00  0.66956200949E+02  0.66956200949E+02  0.00000000000E+00 0.  1.
         -3   -1    0    0    0  501 -0.00000000000E+00 -0.00000000000E+00 -0.23004896867E+03  0.23004896867E+03  0.00000000000E+00 0.  1.
         24    2    1    2    0    0 -0.31243470401E+02 -0.11494149141E+01 -0.21759415117E+03  0.23417304092E+03  0.80698964507E+02 0.  0.
        -11    1    3    3    0    0 -0.30041902231E+02 -0.24168122841E+01 -0.22477310376E+03  0.22678471078E+03  0.00000000000E+00 0.  1.
         12    1    3    3    0    0 -0.12015681697E+01  0.12673973700E+01  0.71789525808E+01  0.73883301441E+01  0.00000000000E+00 0. -1.
         -4    1    1    2    0  502  0.31243470401E+02  0.11494149141E+01  0.54501383457E+02  0.62832128692E+02  0.00000000000E+00 0.  1.
<mgrwt>
<rscale>  1 0.86543622E+02</rscale>
<asrwt>0</asrwt>
<pdfrwt beam="1">  1       21 0.10300954E-01 0.86543622E+02</pdfrwt>
<pdfrwt beam="2">  1       -3 0.35392149E-01 0.86543622E+02</pdfrwt>
<totfact> 0.27892403E+04</totfact>
</mgrwt>
</event>
<event>
 6    2  0.8544106E+000  0.8374467E+02  0.7546771E-02  0.1318748E+00
          2   -1    0    0  502    0 -0.00000000000E+00  0.00000000000E+00  0.20950392739E+04  0.20950392739E+04  0.00000000000E+00 0. -1.
         21   -1    0    0  501  502  0.00000000000E+00 -0.00000000000E+00 -0.14875743141E+01  0.14875743141E+01  0.00000000000E+00 0.  1.
         24    2    1    2    0    0  0.16436654388E+02  0.22542319274E+02  0.15590046560E+04  0.15612522817E+04  0.78961065557E+02 0.  0.
        -11    1    3    3    0    0 -0.13670098677E+02  0.37700407150E+02  0.46424595472E+03  0.46597478341E+03  0.00000000000E+00 0.  1.
         12    1    3    3    0    0  0.30106753065E+02 -0.15158087876E+02  0.10947587013E+04  0.10952774983E+04  0.00000000000E+00 0. -1.
          1    1    1    2  501    0 -0.16436654388E+02 -0.22542319274E+02  0.53454704362E+03  0.53527456656E+03  0.00000000000E+00 0. -1.
<mgrwt>
<rscale>  1 0.83744669E+02</rscale>
<asrwt>0</asrwt>
<pdfrwt beam="1">  1       21 0.22885926E-03 0.83744669E+02</pdfrwt>
<pdfrwt beam="2">  1        2 0.32231137E+00 0.83744669E+02</pdfrwt>
<totfact> 0.30532683E+06</totfact>
</mgrwt>
</event>
<event>
 6    2  0.8544106E+000  0.9497181E+02  0.7546771E-02  0.1291240E+00
          2   -1    0    0  502    0 -0.00000000000E+00  0.00000000000E+00  0.53793983655E+03  0.53793983655E+03  0.00000000000E+00 0. -1.
         21   -1    0    0  501  502  0.00000000000E+00 -0.00000000000E+00 -0.12888019545E+02  0.12888019545E+02  0.00000000000E+00 0.  1.
         24    2    1    2    0    0  0.24829806094E+02 -0.44747922603E+02  0.19573844268E+03  0.21756190470E+03  0.80004678535E+02 0.  0.
        -11    1    3    3    0    0  0.42331654530E+02 -0.53190246458E+02  0.10735781088E+03  0.12707033820E+03  0.00000000000E+00 0.  1.
         12    1    3    3    0    0 -0.17501848436E+02  0.84423238553E+01  0.88380631801E+02  0.90491566503E+02  0.00000000000E+00 0. -1.
          1    1    1    2  501    0 -0.24829806094E+02  0.44747922603E+02  0.32931337432E+03  0.33326595139E+03  0.00000000000E+00 0. -1.
<mgrwt>
<rscale>  1 0.94971809E+02</rscale>
<asrwt>0</asrwt>
<pdfrwt beam="1">  1       21 0.19827727E-02 0.94971809E+02</pdfrwt>
<pdfrwt beam="2">  1        2 0.82759958E-01 0.94971809E+02</pdfrwt>
<totfact> 0.85108374E+05</totfact>
</mgrwt>
</event>
<event>
 6    2  0.8544106E+000  0.8907530E+02  0.7546771E-02  0.1305107E+00
         21   -1    0    0  501  502  0.00000000000E+00  0.00000000000E+00  0.60650032885E+01  0.60650032885E+01  0.00000000000E+00 0. -1.
          2   -1    0    0  502    0 -0.00000000000E+00 -0.00000000000E+00 -0.16192350630E+04  0.16192350630E+04  0.00000000000E+00 0. -1.
         24    2    1    2    0    0 -0.33987081813E+02  0.14161610352E+02 -0.15471088267E+04  0.15496709751E+04  0.81109408917E+02 0.  0.
        -11    1    3    3    0    0 -0.86083286697E+01 -0.25535582688E+02 -0.20863060802E+03  0.21036373239E+03  0.00000000000E+00 0.  1.
         12    1    3    3    0    0 -0.25378753143E+02  0.39697193041E+02 -0.13384782187E+04  0.13393072427E+04  0.00000000000E+00 0. -1.
          1    1    1    2  501    0  0.33987081813E+02 -0.14161610352E+02 -0.66061232915E+02  0.75629091176E+02  0.00000000000E+00 0. -1.
<mgrwt>
<rscale>  1 0.89075300E+02</rscale>
<asrwt>0</asrwt>
<pdfrwt beam="1">  1       21 0.93307805E-03 0.89075300E+02</pdfrwt>
<pdfrwt beam="2">  1        2 0.24911292E+00 0.89075300E+02</pdfrwt>
<totfact> 0.61955798E+05</totfact>
</mgrwt>
</event>
<event>
 6    2  0.8544106E+000  0.8842006E+02  0.7546771E-02  0.1306723E+00
          2   -1    0    0  502    0 -0.00000000000E+00  0.00000000000E+00  0.80321674119E+02  0.80321674119E+02  0.00000000000E+00 0. -1.
         21   -1    0    0  501  502  0.00000000000E+00 -0.00000000000E+00 -0.55966506316E+02  0.55966506316E+02  0.00000000000E+00 0. -1.
         24    2    1    2    0    0 -0.34800305357E+02  0.12463965527E+02  0.38855538379E+02  0.96580845641E+02  0.80322445135E+02 0.  0.
        -11    1    3    3    0    0  0.31422356002E+01 -0.13594095645E+02 -0.18416310281E+02  0.23104838570E+02  0.00000000000E+00 0.  1.
         12    1    3    3    0    0 -0.37942540957E+02  0.26058061172E+02  0.57271848659E+02  0.73476007072E+02  0.00000000000E+00 0. -1.
          1    1    1    2  501    0  0.34800305357E+02 -0.12463965527E+02 -0.14500370576E+02  0.39707334794E+02  0.00000000000E+00 0. -1.
<mgrwt>
<rscale>  1 0.88420059E+02</rscale>
<asrwt>0</asrwt>
<pdfrwt beam="1">  1       21 0.86102317E-02 0.88420059E+02</pdfrwt>
<pdfrwt beam="2">  1        2 0.12357181E-01 0.88420059E+02</pdfrwt>
<totfact> 0.59174160E+05</totfact>
</mgrwt>
</event>
<event>
 6    2  0.8544106E+000  0.8336489E+02  0.7546771E-02  0.1319765E+00
          2   -1    0    0  502    0 -0.00000000000E+00  0.00000000000E+00  0.10355447576E+04  0.10355447576E+04  0.00000000000E+00 0. -1.
         21   -1    0    0  501  502  0.00000000000E+00 -0.00000000000E+00 -0.37223222326E+01  0.37223222326E+01  0.00000000000E+00 0.  1.
         24    2    1    2    0    0 -0.21510479804E+02 -0.25730085036E+02  0.87127929151E+03  0.87525842440E+03  0.76321475689E+02 0.  0.
        -11    1    3    3    0    0  0.14682937561E+01  0.28762640353E+01  0.22613088826E-01  0.32294415472E+01  0.00000000000E+00 0.  1.
         12    1    3    3    0    0 -0.22978773560E+02 -0.28606349071E+02  0.87125667842E+03  0.87202898285E+03  0.00000000000E+00 0. -1.
          1    1    1    2  501    0  0.21510479804E+02  0.25730085036E+02  0.16054314387E+03  0.16400865545E+03  0.00000000000E+00 0. -1.
<mgrwt>
<rscale>  1 0.83364895E+02</rscale>
<asrwt>0</asrwt>
<pdfrwt beam="1">  1       21 0.57266578E-03 0.83364895E+02</pdfrwt>
<pdfrwt beam="2">  1        2 0.15931435E+00 0.83364895E+02</pdfrwt>
<totfact> 0.26716435E+06</totfact>
</mgrwt>
</event>
<event>
 6    2  0.8544106E+000  0.9938099E+02  0.7546771E-02  0.1281603E+00
         21   -1    0    0  501  502  0.00000000000E+00  0.00000000000E+00  0.30530365408E+02  0.30530365408E+02  0.00000000000E+00 0.  1.
         -1   -1    0    0    0  501 -0.00000000000E+00 -0.00000000000E+00 -0.22689107925E+03  0.22689107925E+03  0.00000000000E+00 0.  1.
         24    2    1    2    0    0  0.64538390820E+02  0.13693700542E+02 -0.13223759942E+03  0.16541875379E+03  0.74322675410E+02 0.  0.
        -13    1    3    3    0    0  0.30293809364E+02 -0.12919700522E+02 -0.11348665674E+03  0.11816875562E+03  0.00000000000E+00 0.  1.
         14    1    3    3    0    0  0.34244581455E+02  0.26613401064E+02 -0.18750942681E+02  0.47249998166E+02  0.00000000000E+00 0. -1.
         -2    1    1    2    0  502 -0.64538390820E+02 -0.13693700542E+02 -0.64123114421E+02  0.92002690869E+02  0.00000000000E+00 0.  1.
<mgrwt>
<rscale>  1 0.99380991E+02</rscale>
<asrwt>0</asrwt>
<pdfrwt beam="1">  1       21 0.46969796E-02 0.99380991E+02</pdfrwt>
<pdfrwt beam="2">  1       -1 0.34906318E-01 0.99380991E+02</pdfrwt>
<totfact> 0.20637514E+05</totfact>
</mgrwt>
</event>
<event>
 6    2  0.8544106E+000  0.1105092E+03  0.7546771E-02  0.1259630E+00
          2   -1    0    0  502    0 -0.00000000000E+00  0.00000000000E+00  0.15876198176E+04  0.15876198176E+04  0.00000000000E+00 0. -1.
         21   -1    0    0  501  502  0.00000000000E+00 -0.00000000000E+00 -0.35464795421E+01  0.35464795421E+01  0.00000000000E+00 0.  1.
         24    2    1    2    0    0  0.35297168724E+02 -0.91481574738E+01  0.13146848357E+04  0.13193212234E+04  0.10432015356E+03 0.  0.
        -13    1    3    3    0    0  0.69212749555E+02  0.49556988884E+01  0.66807272098E+03  0.67166667639E+03  0.00000000000E+00 0.  1.
         14    1    3    3    0    0 -0.33915580831E+02 -0.14103856362E+02  0.64661211469E+03  0.64765454700E+03  0.00000000000E+00 0. -1.
          1    1    1    2  501    0 -0.35297168724E+02  0.91481574738E+01  0.26938850241E+03  0.27184507378E+03  0.00000000000E+00 0. -1.
<mgrwt>
<rscale>  1 0.11050916E+03</rscale>
<asrwt>0</asrwt>
<pdfrwt beam="1">  1       21 0.54561350E-03 0.11050916E+03</pdfrwt>
<pdfrwt beam="2">  1        2 0.24424864E+00 0.11050916E+03</pdfrwt>
<totfact> 0.14950968E+06</totfact>
</mgrwt>
</event>
<event>
 6    2  0.8544106E+000  0.9563221E+02  0.7546771E-02  0.1289759E+00
         21   -1    0    0  501  502  0.00000000000E+00  0.00000000000E+00  0.93438472814E+02  0.93438472814E+02  0.00000000000E+00 0. -1.
          2   -1    0    0  502    0 -0.00000000000E+00 -0.00000000000E+00 -0.64957736292E+02  0.64957736292E+02  0.00000000000E+00 0. -1.
         24    2    1    2    0    0  0.37746557747E+02 -0.37392724719E+02 -0.47119088321E+01  0.95748222791E+02  0.79514159740E+02 0.  0.
        -11    1    3    3    0    0 -0.14170795410E+02 -0.26539134565E+02  0.21113981799E+02  0.36755099421E+02  0.00000000000E+00 0.  1.
         12    1    3    3    0    0  0.51917353157E+02 -0.10853590153E+02 -0.25825890631E+02  0.58993123370E+02  0.00000000000E+00 0. -1.
          1    1    1    2  501    0 -0.37746557747E+02  0.37392724719E+02  0.33192645354E+02  0.62647986315E+02  0.00000000000E+00 0. -1.
<mgrwt>
<rscale>  1 0.95632213E+02</rscale>
<asrwt>0</asrwt>
<pdfrwt beam="1">  1       21 0.14375150E-01 0.95632213E+02</pdfrwt>
<pdfrwt beam="2">  1        2 0.99934979E-02 0.95632213E+02</pdfrwt>
<totfact> 0.31387430E+05</totfact>
</mgrwt>
</event>
<event>
 6    2  0.8544106E+000  0.8718832E+02  0.7546771E-02  0.1309807E+00
          2   -1    0    0  502    0 -0.00000000000E+00  0.00000000000E+00  0.39778065943E+03  0.39778065943E+03  0.00000000000E+00 0. -1.
         21   -1    0    0  501  502  0.00000000000E+00 -0.00000000000E+00 -0.75083215313E+01  0.75083215313E+01  0.00000000000E+00 0.  1.
         24    2    1    2    0    0 -0.21245070966E+02 -0.57219469296E+01  0.31870334176E+03  0.33041431953E+03  0.84366514571E+02 0.  0.
        -13    1    3    3    0    0  0.16905950429E+02  0.60711713112E+01  0.13148046084E+02  0.22260759125E+02  0.00000000000E+00 0.  1.
         14    1    3    3    0    0 -0.38151021394E+02 -0.11793118241E+02  0.30555529568E+03  0.30815356040E+03  0.00000000000E+00 0. -1.
          1    1    1    2  501    0  0.21245070966E+02  0.57219469296E+01  0.71568996139E+02  0.74874661437E+02  0.00000000000E+00 0. -1.
<mgrwt>
<rscale>  1 0.87188316E+02</rscale>
<asrwt>0</asrwt>
<pdfrwt beam="1">  1       21 0.11551267E-02 0.87188316E+02</pdfrwt>
<pdfrwt beam="2">  1        2 0.61197008E-01 0.87188316E+02</pdfrwt>
<totfact> 0.27422055E+06</totfact>
</mgrwt>
</event>
<event>
 6    2  0.8544106E+000  0.1008316E+03  0.7546771E-02  0.1278557E+00
         21   -1    0    0  501  502  0.00000000000E+00  0.00000000000E+00  0.14325291303E+02  0.14325291303E+02  0.00000000000E+00 0.  1.
          2   -1    0    0  502    0 -0.00000000000E+00 -0.00000000000E+00 -0.45879321075E+03  0.45879321075E+03  0.00000000000E+00 0. -1.
         24    2    1    2    0    0  0.43630764828E+02 -0.42696605936E+02 -0.28971359414E+03  0.30675881644E+03  0.80251859998E+02 0.  0.
        -11    1    3    3    0    0  0.17802509856E+02 -0.20015178300E+00 -0.61019906455E+01  0.18820300416E+02  0.00000000000E+00 0.  1.
         12    1    3    3    0    0  0.25828254972E+02 -0.42496454153E+02 -0.28361160350E+03  0.28793851602E+03  0.00000000000E+00 0. -1.
          1    1    1    2  501    0 -0.43630764828E+02  0.42696605936E+02 -0.15475432531E+03  0.16635968562E+03  0.00000000000E+00 0. -1.
<mgrwt>
<rscale>  1 0.10083157E+03</rscale>
<asrwt>0</asrwt>
<pdfrwt beam="1">  1       21 0.22038916E-02 0.10083157E+03</pdfrwt>
<pdfrwt beam="2">  1        2 0.70583551E-01 0.10083157E+03</pdfrwt>
<totfact> 0.85781879E+05</totfact>
</mgrwt>
</event>
<event>
 6    2  0.8544106E+000  0.8610294E+02  0.7546771E-02  0.1312573E+00
         -3   -1    0    0    0  501 -0.00000000000E+00  0.00000000000E+00  0.57569571472E+03  0.57569571472E+03  0.00000000000E+00 0.  1.
         21   -1    0    0  501  502  0.00000000000E+00 -0.00000000000E+00 -0.11260733977E+02  0.11260733977E+02  0.00000000000E+00 0.  1.
         24    2    1    2    0    0  0.20139333356E+01  0.27826086029E+02  0.54769271337E+03  0.55441953876E+03  0.81457778612E+02 0.  0.
        -11    1    3    3    0    0 -0.10309283228E+02  0.52153188829E+01  0.50070485873E+03  0.50083813396E+03  0.00000000000E+00 0.  1.
         12    1    3    3    0    0  0.12323216563E+02  0.22610767146E+02  0.46987854632E+02  0.53581404800E+02  0.00000000000E+00 0. -1.
         -4    1    1    2    0  502 -0.20139333356E+01 -0.27826086029E+02  0.16742267379E+02  0.32536909935E+02  0.00000000000E+00 0.  1.
<mgrwt>
<rscale>  1 0.86102942E+02</rscale>
<asrwt>0</asrwt>
<pdfrwt beam="1">  1       21 0.17324211E-02 0.86102942E+02</pdfrwt>
<pdfrwt beam="2">  1       -3 0.88568549E-01 0.86102942E+02</pdfrwt>
<totfact> 0.83264034E+04</totfact>
</mgrwt>
</event>
<event>
 6    2  0.8544106E+000  0.1317940E+03  0.7546771E-02  0.1224818E+00
         -3   -1    0    0    0  501 -0.00000000000E+00  0.00000000000E+00  0.10610657214E+04  0.10610657214E+04  0.00000000000E+00 0.  1.
         21   -1    0    0  501  502  0.00000000000E+00 -0.00000000000E+00 -0.14113487828E+02  0.14113487828E+02  0.00000000000E+00 0.  1.
         24    2    1    2    0    0 -0.49238889752E+02 -0.90855459601E+02  0.73012153629E+03  0.74192124077E+03  0.81795396843E+02 0.  0.
        -11    1    3    3    0    0 -0.53855045078E+02 -0.60607692744E+02  0.30157479463E+03  0.31228354912E+03  0.00000000000E+00 0.  1.
         12    1    3    3    0    0  0.46161553260E+01 -0.30247766858E+02  0.42854674167E+03  0.42963769165E+03  0.00000000000E+00 0. -1.
         -4    1    1    2    0  502  0.49238889752E+02  0.90855459601E+02  0.31683069733E+03  0.33325796851E+03  0.00000000000E+00 0.  1.
<mgrwt>
<rscale>  1 0.13179404E+03</rscale>
<asrwt>0</asrwt>
<pdfrwt beam="1">  1       21 0.21713067E-02 0.13179404E+03</pdfrwt>
<pdfrwt beam="2">  1       -3 0.16324082E+00 0.13179404E+03</pdfrwt>
<totfact> 0.14377106E+04</totfact>
</mgrwt>
</event>
<event>
 6    2  0.8544106E+000  0.1854098E+03  0.7546771E-02  0.1162668E+00
         21   -1    0    0  501  502  0.00000000000E+00  0.00000000000E+00  0.37336584630E+03  0.37336584630E+03  0.00000000000E+00 0.  1.
         -1   -1    0    0    0  501 -0.00000000000E+00 -0.00000000000E+00 -0.55656293333E+03  0.55656293333E+03  0.00000000000E+00 0.  1.
         24    2    1    2    0    0 -0.14563000922E+03 -0.73585413326E+02 -0.52196363186E+03  0.55391590147E+03  0.88056120036E+02 0.  0.
        -13    1    3    3    0    0 -0.15633773690E+03 -0.74321872208E+02 -0.47022238158E+03  0.50107316512E+03  0.00000000000E+00 0.  1.
         14    1    3    3    0    0  0.10707727684E+02  0.73645888273E+00 -0.51741250288E+02  0.52842736352E+02  0.00000000000E+00 0. -1.
         -2    1    1    2    0  502  0.14563000922E+03  0.73585413326E+02  0.33876654484E+03  0.37601287816E+03  0.00000000000E+00 0.  1.
<mgrwt>
<rscale>  1 0.18540980E+03</rscale>
<asrwt>0</asrwt>
<pdfrwt beam="1">  1       21 0.57440900E-01 0.18540980E+03</pdfrwt>
<pdfrwt beam="2">  1       -1 0.85625066E-01 0.18540980E+03</pdfrwt>
<totfact> 0.37769221E+02</totfact>
</mgrwt>
</event>
<event>
 6    2  0.8544106E+000  0.8505178E+02  0.7546771E-02  0.1315297E+00
          2   -1    0    0  502    0 -0.00000000000E+00  0.00000000000E+00  0.27517582729E+03  0.27517582729E+03  0.00000000000E+00 0. -1.
         21   -1    0    0  501  502  0.00000000000E+00 -0.00000000000E+00 -0.11066383520E+02  0.11066383520E+02  0.00000000000E+00 0. -1.
         24    2    1    2    0    0 -0.80370645518E+01  0.20599223317E+02  0.23329682314E+03  0.24831675764E+03  0.82127230756E+02 0.  0.
        -11    1    3    3    0    0  0.26699837449E+02 -0.18489770782E+02  0.79746496691E+02  0.86106078054E+02  0.00000000000E+00 0.  1.
         12    1    3    3    0    0 -0.34736902001E+02  0.39088994099E+02  0.15355032645E+03  0.16221067959E+03  0.00000000000E+00 0. -1.
          1    1    1    2  501    0  0.80370645518E+01 -0.20599223317E+02  0.30812620634E+02  0.37925453170E+02  0.00000000000E+00 0. -1.
<mgrwt>
<rscale>  1 0.85051775E+02</rscale>
<asrwt>0</asrwt>
<pdfrwt beam="1">  1       21 0.17025207E-02 0.85051775E+02</pdfrwt>
<pdfrwt beam="2">  1        2 0.42334737E-01 0.85051775E+02</pdfrwt>
<totfact> 0.21779282E+06</totfact>
</mgrwt>
</event>
<event>
 6    2  0.8544106E+000  0.8995745E+02  0.7546771E-02  0.1302955E+00
          2   -1    0    0  502    0 -0.00000000000E+00  0.00000000000E+00  0.83149965709E+03  0.83149965709E+03  0.00000000000E+00 0. -1.
         21   -1    0    0  501  502  0.00000000000E+00 -0.00000000000E+00 -0.15418848461E+02  0.15418848461E+02  0.00000000000E+00 0. -1.
         24    2    1    2    0    0 -0.41250793277E+02  0.42619468315E+01  0.79559434153E+03  0.80066391150E+03  0.79828257933E+02 0.  0.
        -11    1    3    3    0    0 -0.24566522794E+02 -0.21842825553E+02  0.12181178236E+03  0.12616946300E+03  0.00000000000E+00 0.  1.
         12    1    3    3    0    0 -0.16684270484E+02  0.26104772384E+02  0.67378255916E+03  0.67449444850E+03  0.00000000000E+00 0. -1.
          1    1    1    2  501    0  0.41250793277E+02 -0.42619468315E+01  0.20486467101E+02  0.46254594054E+02  0.00000000000E+00 0. -1.
<mgrwt>
<rscale>  1 0.89957451E+02</rscale>
<asrwt>0</asrwt>
<pdfrwt beam="1">  1       21 0.23721312E-02 0.89957451E+02</pdfrwt>
<pdfrwt beam="2">  1        2 0.12792299E+00 0.89957451E+02</pdfrwt>
<totfact> 0.38404812E+05</totfact>
</mgrwt>
</event>
<event>
 6    2  0.8544106E+000  0.2016166E+03  0.7546771E-02  0.1148382E+00
          2   -1    0    0  502    0 -0.00000000000E+00  0.00000000000E+00  0.22700421400E+03  0.22700421400E+03  0.00000000000E+00 0. -1.
         21   -1    0    0  501  502  0.00000000000E+00 -0.00000000000E+00 -0.18655788146E+03  0.18655788146E+03  0.00000000000E+00 0. -1.
         24    2    1    2    0    0 -0.31157120287E+02 -0.18516063221E+03 -0.46088130892E+02  0.20681723040E+03  0.73444027089E+02 0.  0.
        -11    1    3    3    0    0 -0.19544333733E+02 -0.59139566453E+02  0.18172203220E+02  0.64882187626E+02  0.00000000000E+00 0.  1.
         12    1    3    3    0    0 -0.11612786554E+02 -0.12602106576E+03 -0.64260334112E+02  0.14193504277E+03  0.00000000000E+00 0. -1.
          1    1    1    2  501    0  0.31157120287E+02  0.18516063221E+03  0.86534463437E+02  0.20674486506E+03  0.00000000000E+00 0. -1.
<mgrwt>
<rscale>  1 0.20161659E+03</rscale>
<asrwt>0</asrwt>
<pdfrwt beam="1">  1       21 0.28701213E-01 0.20161659E+03</pdfrwt>
<pdfrwt beam="2">  1        2 0.34923725E-01 0.20161659E+03</pdfrwt>
<totfact> 0.21232404E+04</totfact>
</mgrwt>
</event>
<event>
 6    2  0.8544106E+000  0.9832708E+02  0.7546771E-02  0.1283854E+00
         21   -1    0    0  501  502  0.00000000000E+00  0.00000000000E+00  0.24262271737E+02  0.24262271737E+02  0.00000000000E+00 0. -1.
          2   -1    0    0  502    0 -0.00000000000E+00 -0.00000000000E+00 -0.48723984136E+03  0.48723984136E+03  0.00000000000E+00 0. -1.
         24    2    1    2    0    0  0.13026401736E+02 -0.54272065535E+02 -0.44048627649E+03  0.45132734674E+03  0.80951033924E+02 0.  0.
        -11    1    3    3    0    0  0.30444798948E+02  0.61678868181E+01 -0.89196161862E+02  0.94450430924E+02  0.00000000000E+00 0.  1.
         12    1    3    3    0    0 -0.17418397213E+02 -0.60439952353E+02 -0.35129011463E+03  0.35687691581E+03  0.00000000000E+00 0. -1.
          1    1    1    2  501    0 -0.13026401736E+02  0.54272065535E+02 -0.22491293127E+02  0.60174766357E+02  0.00000000000E+00 0. -1.
<mgrwt>
<rscale>  1 0.98327077E+02</rscale>
<asrwt>0</asrwt>
<pdfrwt beam="1">  1       21 0.37326573E-02 0.98327077E+02</pdfrwt>
<pdfrwt beam="2">  1        2 0.74959974E-01 0.98327077E+02</pdfrwt>
<totfact> 0.34055299E+05</totfact>
</mgrwt>
</event>
<event>
 6    2  0.8544106E+000  0.1007300E+03  0.7546771E-02  0.1278768E+00
          2   -1    0    0  502    0 -0.00000000000E+00  0.00000000000E+00  0.28459696750E+04  0.28459696750E+04  0.00000000000E+00 0. -1.
         21   -1    0    0  501  502  0.00000000000E+00 -0.00000000000E+00 -0.19680331433E+01  0.19680331433E+01  0.00000000000E+00 0.  1.
         24    2    1    2    0    0 -0.47925260390E+02  0.87633677611E+01  0.18414754145E+04  0.18442283559E+04  0.88164048127E+02 0.  0.
        -11    1    3    3    0    0 -0.12674621772E+02 -0.17181793527E+02  0.10239848771E+03  0.10460071869E+03  0.00000000000E+00 0.  1.
         12    1    3    3    0    0 -0.35250638618E+02  0.25945161289E+02  0.17390769268E+04  0.17396276373E+04  0.00000000000E+00 0. -1.
          1    1    1    2  501    0  0.47925260390E+02 -0.87633677611E+01  0.10025262274E+04  0.10037093522E+04  0.00000000000E+00 0. -1.
<mgrwt>
<rscale>  1 0.10072997E+03</rscale>
<asrwt>0</asrwt>
<pdfrwt beam="1">  1       21 0.30277661E-03 0.10072997E+03</pdfrwt>
<pdfrwt beam="2">  1        2 0.43783820E+00 0.10072997E+03</pdfrwt>
<totfact> 0.81397502E+05</totfact>
</mgrwt>
</event>
<event>
 6    2  0.8544106E+000  0.1007298E+03  0.7546771E-02  0.1278769E+00
         21   -1    0    0  501  502  0.00000000000E+00  0.00000000000E+00  0.36439205009E+03  0.36439205009E+03  0.00000000000E+00 0. -1.
          2   -1    0    0  502    0 -0.00000000000E+00 -0.00000000000E+00 -0.20609812905E+02  0.20609812905E+02  0.00000000000E+00 0. -1.
         24    2    1    2    0    0 -0.44093581952E+02 -0.42381355862E+02  0.14160718764E+03  0.17377881986E+03  0.80037861948E+02 0.  0.
        -11    1    3    3    0    0 -0.79483098564E+01 -0.11843796444E+02  0.12155176239E+03  0.12238579200E+03  0.00000000000E+00 0.  1.
         12    1    3    3    0    0 -0.36145272095E+02 -0.30537559418E+02  0.20055425251E+02  0.51393027855E+02  0.00000000000E+00 0. -1.
          1    1    1    2  501    0  0.44093581952E+02  0.42381355862E+02  0.20217504954E+03  0.21122304313E+03  0.00000000000E+00 0. -1.
<mgrwt>
<rscale>  1 0.10072975E+03</rscale>
<asrwt>0</asrwt>
<pdfrwt beam="1">  1       21 0.56060311E-01 0.10072975E+03</pdfrwt>
<pdfrwt beam="2">  1        2 0.31707407E-02 0.10072975E+03</pdfrwt>
<totfact> 0.10117834E+05</totfact>
</mgrwt>
</event>
<event>
 6    2  0.8544106E+000  0.9494871E+02  0.7546771E-02  0.1291292E+00
         -1   -1    0    0    0  501 -0.00000000000E+00  0.00000000000E+00  0.23531677097E+03  0.23531677097E+03  0.00000000000E+00 0.  1.
         21   -1    0    0  501  502  0.00000000000E+00 -0.00000000000E+00 -0.10890635443E+03  0.10890635443E+03  0.00000000000E+00 0.  1.
         24    2    1    2    0    0 -0.19267856899E+02 -0.45446389237E+02  0.21933336034E+03  0.23900288929E+03  0.81108775900E+02 0.  0.
        -13    1    3    3    0    0 -0.71723280281E+01 -0.26809933499E+02  0.21447143329E+03  0.21625959059E+03  0.00000000000E+00 0.  1.
         14    1    3    3    0    0 -0.12095528871E+02 -0.18636455738E+02  0.48619270440E+01  0.22743298699E+02  0.00000000000E+00 0. -1.
         -2    1    1    2    0  502  0.19267856899E+02  0.45446389237E+02 -0.92922943792E+02  0.10522023611E+03  0.00000000000E+00 0.  1.
<mgrwt>
<rscale>  1 0.94948713E+02</rscale>
<asrwt>0</asrwt>
<pdfrwt beam="1">  1       21 0.16754824E-01 0.94948713E+02</pdfrwt>
<pdfrwt beam="2">  1       -1 0.36202580E-01 0.94948713E+02</pdfrwt>
<totfact> 0.21539190E+04</totfact>
</mgrwt>
</event>
<event>
 6    2  0.8544106E+000  0.1461439E+03  0.7546771E-02  0.1205293E+00
         21   -1    0    0  501  502  0.00000000000E+00  0.00000000000E+00  0.87229491119E+01  0.87229491119E+01  0.00000000000E+00 0. -1.
          2   -1    0    0  502    0 -0.00000000000E+00 -0.00000000000E+00 -0.21463698789E+04  0.21463698789E+04  0.00000000000E+00 0. -1.
         24    2    1    2    0    0 -0.73214960056E+02  0.98438262877E+02 -0.13598038630E+04  0.13676346649E+04  0.79419827833E+02 0.  0.
        -11    1    3    3    0    0  0.29595763404E+01  0.34051918247E+02 -0.15573396355E+03  0.15944077155E+03  0.00000000000E+00 0.  1.
         12    1    3    3    0    0 -0.76174536396E+02  0.64386344630E+02 -0.12040698994E+04  0.12081938934E+04  0.00000000000E+00 0. -1.
          1    1    1    2  501    0  0.73214960056E+02 -0.98438262877E+02 -0.77784306680E+03  0.78745816305E+03  0.00000000000E+00 0. -1.
<mgrwt>
<rscale>  1 0.14614387E+03</rscale>
<asrwt>0</asrwt>
<pdfrwt beam="1">  1       21 0.13419939E-02 0.14614387E+03</pdfrwt>
<pdfrwt beam="2">  1        2 0.33021031E+00 0.14614387E+03</pdfrwt>
<totfact> 0.19034277E+05</totfact>
</mgrwt>
</event>
<event>
 6    2  0.8544106E+000  0.8404762E+02  0.7546771E-02  0.1317942E+00
         21   -1    0    0  501  502  0.00000000000E+00  0.00000000000E+00  0.34671375978E+02  0.34671375978E+02  0.00000000000E+00 0. -1.
          4   -1    0    0  502    0 -0.00000000000E+00 -0.00000000000E+00 -0.92794225188E+02  0.92794225188E+02  0.00000000000E+00 0. -1.
         24    2    1    2    0    0 -0.10513219717E+02  0.25121466284E+02 -0.54057878658E+02  0.99931261829E+02  0.79513439045E+02 0.  0.
        -11    1    3    3    0    0 -0.13770680852E+02 -0.17184172260E+02  0.91136924803E+01  0.23832474022E+02  0.00000000000E+00 0.  1.
         12    1    3    3    0    0  0.32574611346E+01  0.42305638544E+02 -0.63171571138E+02  0.76098787807E+02  0.00000000000E+00 0. -1.
          3    1    1    2  501    0  0.10513219717E+02 -0.25121466284E+02 -0.40649705523E+01  0.27534339336E+02  0.00000000000E+00 0. -1.
<mgrwt>
<rscale>  1 0.84047622E+02</rscale>
<asrwt>0</asrwt>
<pdfrwt beam="1">  1       21 0.53340579E-02 0.84047622E+02</pdfrwt>
<pdfrwt beam="2">  1        4 0.14276034E-01 0.84047622E+02</pdfrwt>
<totfact> 0.36076148E+05</totfact>
</mgrwt>
</event>
<event>
 6    2  0.8544106E+000  0.8800931E+02  0.7546771E-02  0.1307745E+00
         21   -1    0    0  501  502  0.00000000000E+00  0.00000000000E+00  0.58522498047E+01  0.58522498047E+01  0.00000000000E+00 0. -1.
          2   -1    0    0  502    0 -0.00000000000E+00 -0.00000000000E+00 -0.12910288857E+04  0.12910288857E+04  0.00000000000E+00 0. -1.
         24    2    1    2    0    0 -0.18144751153E+02  0.33179714404E+02 -0.12052547231E+04  0.12084637300E+04  0.79470207404E+02 0.  0.
        -11    1    3    3    0    0 -0.14433204702E+02 -0.22157153682E+01 -0.38652846865E+02  0.41319116197E+02  0.00000000000E+00 0.  1.
         12    1    3    3    0    0 -0.37115464511E+01  0.35395429772E+02 -0.11666018762E+04  0.11671446138E+04  0.00000000000E+00 0. -1.
          1    1    1    2  501    0  0.18144751153E+02 -0.33179714404E+02 -0.79921912852E+02  0.88417405505E+02  0.00000000000E+00 0. -1.
<mgrwt>
<rscale>  1 0.88009314E+02</rscale>
<asrwt>0</asrwt>
<pdfrwt beam="1">  1       21 0.90034598E-03 0.88009314E+02</pdfrwt>
<pdfrwt beam="2">  1        2 0.19861986E+00 0.88009314E+02</pdfrwt>
<totfact> 0.96563294E+05</totfact>
</mgrwt>
</event>
<event>
 6    2  0.8544106E+000  0.9135328E+02  0.7546771E-02  0.1299607E+00
         21   -1    0    0  501  502  0.00000000000E+00  0.00000000000E+00  0.22036997337E+01  0.22036997337E+01  0.00000000000E+00 0. -1.
          2   -1    0    0  502    0 -0.00000000000E+00 -0.00000000000E+00 -0.23081688072E+04  0.23081688072E+04  0.00000000000E+00 0. -1.
         24    2    1    2    0    0 -0.17551522866E+02  0.46978932152E+02 -0.13440959048E+04  0.13471968017E+04  0.76356697940E+02 0.  0.
        -11    1    3    3    0    0  0.30356257093E+02  0.19158224489E+02 -0.50538280913E+03  0.50665602105E+03  0.00000000000E+00 0.  1.
         12    1    3    3    0    0 -0.47907779958E+02  0.27820707663E+02 -0.83871309566E+03  0.84054078068E+03  0.00000000000E+00 0. -1.
          1    1    1    2  501    0  0.17551522866E+02 -0.46978932152E+02 -0.96186920267E+03  0.96317570519E+03  0.00000000000E+00 0. -1.
<mgrwt>
<rscale>  1 0.91353278E+02</rscale>
<asrwt>0</asrwt>
<pdfrwt beam="1">  1       21 0.33903097E-03 0.91353278E+02</pdfrwt>
<pdfrwt beam="2">  1        2 0.35510264E+00 0.91353278E+02</pdfrwt>
<totfact> 0.13218545E+06</totfact>
</mgrwt>
</event>
<event>
 6    2  0.8544106E+000  0.8355021E+02  0.7546771E-02  0.1319268E+00
         21   -1    0    0  501  502  0.00000000000E+00  0.00000000000E+00  0.26782127347E+01  0.26782127347E+01  0.00000000000E+00 0.  1.
          2   -1    0    0  502    0 -0.00000000000E+00 -0.00000000000E+00 -0.10691042887E+04  0.10691042887E+04  0.00000000000E+00 0. -1.
         24    2    1    2    0    0 -0.22001248894E+02 -0.58359516086E+00 -0.76347501135E+03  0.76803302722E+03  0.80599270490E+02 0.  0.
        -13    1    3    3    0    0 -0.24918987898E+02  0.36739086922E+02 -0.49013544274E+03  0.49214171607E+03  0.00000000000E+00 0.  1.
         14    1    3    3    0    0  0.29177390044E+01 -0.37322682083E+02 -0.27333956861E+03  0.27589131115E+03  0.00000000000E+00 0. -1.
          1    1    1    2  501    0  0.22001248894E+02  0.58359516086E+00 -0.30295106461E+03  0.30374947421E+03  0.00000000000E+00 0. -1.
<mgrwt>
<rscale>  1 0.83550212E+02</rscale>
<asrwt>0</asrwt>
<pdfrwt beam="1">  1       21 0.41203330E-03 0.83550212E+02</pdfrwt>
<pdfrwt beam="2">  1        2 0.16447735E+00 0.83550212E+02</pdfrwt>
<totfact> 0.42293075E+06</totfact>
</mgrwt>
</event>
<event>
 6    2  0.8544106E+000  0.1086059E+03  0.7546771E-02  0.1263173E+00
          2   -1    0    0  502    0 -0.00000000000E+00  0.00000000000E+00  0.79395465316E+03  0.79395465316E+03  0.00000000000E+00 0. -1.
         21   -1    0    0  501  502  0.00000000000E+00 -0.00000000000E+00 -0.10373674859E+02  0.10373674859E+02  0.00000000000E+00 0. -1.
         24    2    1    2    0    0 -0.61587200961E+02  0.38918506705E+02  0.45988686256E+03  0.47253695674E+03  0.80545736380E+02 0.  0.
        -11    1    3    3    0    0 -0.22268851328E+02 -0.12127402086E+02  0.37528048099E+02  0.45291610867E+02  0.00000000000E+00 0.  1.
         12    1    3    3    0    0 -0.39318349633E+02  0.51045908791E+02  0.42235881446E+03  0.42724534588E+03  0.00000000000E+00 0. -1.
          1    1    1    2  501    0  0.61587200961E+02 -0.38918506705E+02  0.32369411574E+03  0.33179137128E+03  0.00000000000E+00 0. -1.
<mgrwt>
<rscale>  1 0.10860594E+03</rscale>
<asrwt>0</asrwt>
<pdfrwt beam="1">  1       21 0.15959506E-02 0.10860594E+03</pdfrwt>
<pdfrwt beam="2">  1        2 0.12214682E+00 0.10860594E+03</pdfrwt>
<totfact> 0.77668098E+05</totfact>
</mgrwt>
</event>
<event>
 6    2  0.8544106E+000  0.1000039E+03  0.7546771E-02  0.1280288E+00
         21   -1    0    0  501  502  0.00000000000E+00  0.00000000000E+00  0.40202218105E+03  0.40202218105E+03  0.00000000000E+00 0.  1.
         -1   -1    0    0    0  501 -0.00000000000E+00 -0.00000000000E+00 -0.17369584579E+02  0.17369584579E+02  0.00000000000E+00 0.  1.
         24    2    1    2    0    0  0.55639174200E+01  0.63843522216E+02  0.27178425679E+03  0.28959879737E+03  0.76771275195E+02 0.  0.
        -11    1    3    3    0    0  0.14626261102E+02  0.78136981573E+02  0.18789245721E+03  0.20401688871E+03  0.00000000000E+00 0.  1.
         12    1    3    3    0    0 -0.90623436821E+01 -0.14293459357E+02  0.83891799580E+02  0.85581908661E+02  0.00000000000E+00 0. -1.
         -2    1    1    2    0  502 -0.55639174200E+01 -0.63843522216E+02  0.11286833968E+03  0.12979296825E+03  0.00000000000E+00 0.  1.
<mgrwt>
<rscale>  1 0.10000391E+03</rscale>
<asrwt>0</asrwt>
<pdfrwt beam="1">  1       21 0.61849559E-01 0.10000391E+03</pdfrwt>
<pdfrwt beam="2">  1       -1 0.26722441E-02 0.10000391E+03</pdfrwt>
<totfact> 0.92602319E+04</totfact>
</mgrwt>
</event>
<event>
 6    2  0.8544106E+000  0.1096271E+03  0.7546771E-02  0.1261262E+00
          2   -1    0    0  502    0 -0.00000000000E+00  0.00000000000E+00  0.16408809466E+04  0.16408809466E+04  0.00000000000E+00 0. -1.
         21   -1    0    0  501  502  0.00000000000E+00 -0.00000000000E+00 -0.52493231147E+01  0.52493231147E+01  0.00000000000E+00 0. -1.
         24    2    1    2    0    0  0.68722825740E+01  0.73507975498E+02  0.10966205440E+04  0.11020865265E+04  0.81039765714E+02 0.  0.
        -11    1    3    3    0    0  0.18354570030E+02  0.40869956597E+02  0.20697691675E+03  0.21177036540E+03  0.00000000000E+00 0.  1.
         12    1    3    3    0    0 -0.11482287456E+02  0.32638018901E+02  0.88964362726E+03  0.89031616111E+03  0.00000000000E+00 0. -1.
          1    1    1    2  501    0 -0.68722825740E+01 -0.73507975498E+02  0.53901107946E+03  0.54404374319E+03  0.00000000000E+00 0. -1.
<mgrwt>
<rscale>  1 0.10962707E+03</rscale>
<asrwt>0</asrwt>
<pdfrwt beam="1">  1       21 0.80758948E-03 0.10962707E+03</pdfrwt>
<pdfrwt beam="2">  1        2 0.25244281E+00 0.10962707E+03</pdfrwt>
<totfact> 0.76404851E+05</totfact>
</mgrwt>
</event>
<event>
 6    2  0.8544106E+000  0.8593215E+02  0.7546771E-02  0.1313013E+00
          2   -1    0    0  502    0 -0.00000000000E+00  0.00000000000E+00  0.33468216755E+04  0.33468216755E+04  0.00000000000E+00 0. -1.
         21   -1    0    0  501  502  0.00000000000E+00 -0.00000000000E+00 -0.10682692279E+01  0.10682692279E+01  0.00000000000E+00 0.  1.
         24    2    1    2    0    0  0.21857552655E+01 -0.23586732241E+02  0.30423117716E+04  0.30435251354E+04  0.82602803469E+02 0.  0.
        -11    1    3    3    0    0  0.20875342997E+02  0.10923610870E+02  0.29706704148E+03  0.29799988650E+03  0.00000000000E+00 0.  1.
         12    1    3    3    0    0 -0.18689587731E+02 -0.34510343110E+02  0.27452447301E+04  0.27455252490E+04  0.00000000000E+00 0. -1.
          1    1    1    2  501    0 -0.21857552655E+01  0.23586732241E+02  0.30344163473E+03  0.30436480932E+03  0.00000000000E+00 0. -1.
<mgrwt>
<rscale>  1 0.85932151E+02</rscale>
<asrwt>0</asrwt>
<pdfrwt beam="1">  1       21 0.16435179E-03 0.85932151E+02</pdfrwt>
<pdfrwt beam="2">  1        2 0.51488725E+00 0.85932151E+02</pdfrwt>
<totfact> 0.10394259E+06</totfact>
</mgrwt>
</event>
<event>
 6    2  0.8544106E+000  0.9020639E+02  0.7546771E-02  0.1302353E+00
          2   -1    0    0  502    0 -0.00000000000E+00  0.00000000000E+00  0.16758754092E+04  0.16758754092E+04  0.00000000000E+00 0. -1.
         21   -1    0    0  501  502  0.00000000000E+00 -0.00000000000E+00 -0.25733728324E+01  0.25733728324E+01  0.00000000000E+00 0.  1.
         24    2    1    2    0    0  0.24601766031E+02  0.31211293230E+02  0.10421329635E+04  0.10460297831E+04  0.80980255113E+02 0.  0.
        -11    1    3    3    0    0  0.17547396089E+02 -0.66923161060E+01  0.54508241438E+02  0.57652810764E+02  0.00000000000E+00 0.  1.
         12    1    3    3    0    0  0.70543699419E+01  0.37903609336E+02  0.98762472208E+03  0.98837697231E+03  0.00000000000E+00 0. -1.
          1    1    1    2  501    0 -0.24601766031E+02 -0.31211293230E+02  0.63116907287E+03  0.63241899897E+03  0.00000000000E+00 0. -1.
<mgrwt>
<rscale>  1 0.90206394E+02</rscale>
<asrwt>0</asrwt>
<pdfrwt beam="1">  1       21 0.39590485E-03 0.90206394E+02</pdfrwt>
<pdfrwt beam="2">  1        2 0.25782611E+00 0.90206394E+02</pdfrwt>
<totfact> 0.21749303E+06</totfact>
</mgrwt>
</event>
<event>
 6    2  0.8544106E+000  0.8111836E+02  0.7546771E-02  0.1325907E+00
         21   -1    0    0  501  502  0.00000000000E+00  0.00000000000E+00  0.13967886998E+03  0.13967886998E+03  0.00000000000E+00 0.  1.
          2   -1    0    0  502    0 -0.00000000000E+00 -0.00000000000E+00 -0.19982688678E+02  0.19982688678E+02  0.00000000000E+00 0. -1.
         24    2    1    2    0    0  0.10778820027E+01 -0.24500063968E+02  0.90562081291E+02  0.12157992598E+03  0.77322524981E+02 0.  0.
        -11    1    3    3    0    0  0.36044480294E+02 -0.16633384956E+02  0.25153236243E+02  0.46995311982E+02  0.00000000000E+00 0.  1.
         12    1    3    3    0    0 -0.34966598291E+02 -0.78666790118E+01  0.65408845047E+02  0.74584613997E+02  0.00000000000E+00 0. -1.
          1    1    1    2  501    0 -0.10778820027E+01  0.24500063968E+02  0.29134100015E+02  0.38081632682E+02  0.00000000000E+00 0. -1.
<mgrwt>
<rscale>  1 0.81118357E+02</rscale>
<asrwt>0</asrwt>
<pdfrwt beam="1">  1       21 0.21489056E-01 0.81118357E+02</pdfrwt>
<pdfrwt beam="2">  1        2 0.30742599E-02 0.81118357E+02</pdfrwt>
<totfact> 0.67119771E+05</totfact>
</mgrwt>
</event>
<event>
 6    2  0.8544106E+000  0.8458719E+02  0.7546771E-02  0.1316516E+00
          2   -1    0    0  502    0 -0.00000000000E+00  0.00000000000E+00  0.13184295808E+02  0.13184295808E+02  0.00000000000E+00 0. -1.
         21   -1    0    0  501  502  0.00000000000E+00 -0.00000000000E+00 -0.34680063096E+03  0.34680063096E+03  0.00000000000E+00 0.  1.
         24    2    1    2    0    0 -0.27866061116E+02 -0.64387266257E+01 -0.13493695369E+03  0.15925757143E+03  0.79605389418E+02 0.  0.
        -11    1    3    3    0    0 -0.38706767411E+02 -0.19047114873E+02 -0.13591876540E+03  0.14260055125E+03  0.00000000000E+00 0.  1.
         12    1    3    3    0    0  0.10840706295E+02  0.12608388247E+02  0.98181170979E+00  0.16657020183E+02  0.00000000000E+00 0. -1.
          1    1    1    2  501    0  0.27866061116E+02  0.64387266257E+01 -0.19867938146E+03  0.20072735534E+03  0.00000000000E+00 0. -1.
<mgrwt>
<rscale>  1 0.84587189E+02</rscale>
<asrwt>0</asrwt>
<pdfrwt beam="1">  1       21 0.53353943E-01 0.84587189E+02</pdfrwt>
<pdfrwt beam="2">  1        2 0.20283532E-02 0.84587189E+02</pdfrwt>
<totfact> 0.20154316E+05</totfact>
</mgrwt>
</event>
<event>
 6    2  0.8544106E+000  0.9068868E+02  0.7546771E-02  0.1301192E+00
         21   -1    0    0  501  502  0.00000000000E+00  0.00000000000E+00  0.72227313398E+02  0.72227313398E+02  0.00000000000E+00 0.  1.
          2   -1    0    0  502    0 -0.00000000000E+00 -0.00000000000E+00 -0.87283184058E+02  0.87283184058E+02  0.00000000000E+00 0. -1.
         24    2    1    2    0    0 -0.32562826252E+02  0.23193753745E+02  0.33442586607E+02  0.96658383541E+02  0.81401158735E+02 0.  0.
        -11    1    3    3    0    0 -0.57807423314E+02  0.11472389292E+02  0.90035826421E+01  0.59618607889E+02  0.00000000000E+00 0.  1.
         12    1    3    3    0    0  0.25244597062E+02  0.11721364454E+02  0.24439003965E+02  0.37039775651E+02  0.00000000000E+00 0. -1.
          1    1    1    2  501    0  0.32562826252E+02 -0.23193753745E+02 -0.48498457268E+02  0.62852113916E+02  0.00000000000E+00 0. -1.
<mgrwt>
<rscale>  1 0.90688679E+02</rscale>
<asrwt>0</asrwt>
<pdfrwt beam="1">  1       21 0.11111894E-01 0.90688679E+02</pdfrwt>
<pdfrwt beam="2">  1        2 0.13428182E-01 0.90688679E+02</pdfrwt>
<totfact> 0.34596964E+05</totfact>
</mgrwt>
</event>
<event>
 6    2  0.8544106E+000  0.1181329E+03  0.7546771E-02  0.1246209E+00
         21   -1    0    0  501  502  0.00000000000E+00  0.00000000000E+00  0.48907537849E+01  0.48907537849E+01  0.00000000000E+00 0. -1.
          2   -1    0    0  502    0 -0.00000000000E+00 -0.00000000000E+00 -0.21715402974E+04  0.21715402974E+04  0.00000000000E+00 0. -1.
         24    2    1    2    0    0 -0.40862766804E+02  0.69864858330E+02 -0.15495208358E+04  0.15540174378E+04  0.86049475356E+02 0.  0.
        -13    1    3    3    0    0 -0.16379583511E+02  0.18976814221E+02 -0.90600665132E+02  0.94004737946E+02  0.00000000000E+00 0.  1.
         14    1    3    3    0    0 -0.24483183293E+02  0.50888044109E+02 -0.14589201707E+04  0.14600126999E+04  0.00000000000E+00 0. -1.
          1    1    1    2  501    0  0.40862766804E+02 -0.69864858330E+02 -0.61712870776E+03  0.62241361335E+03  0.00000000000E+00 0. -1.
<mgrwt>
<rscale>  1 0.11813288E+03</rscale>
<asrwt>0</asrwt>
<pdfrwt beam="1">  1       21 0.75242420E-03 0.11813288E+03</pdfrwt>
<pdfrwt beam="2">  1        2 0.33408288E+00 0.11813288E+03</pdfrwt>
<totfact> 0.45956926E+05</totfact>
</mgrwt>
</event>
<event>
 6    2  0.8544106E+000  0.1068436E+03  0.7546771E-02  0.1266529E+00
         21   -1    0    0  501  502  0.00000000000E+00  0.00000000000E+00  0.48680747373E+01  0.48680747373E+01  0.00000000000E+00 0.  1.
          2   -1    0    0  502    0 -0.00000000000E+00 -0.00000000000E+00 -0.17059299734E+04  0.17059299734E+04  0.00000000000E+00 0. -1.
         24    2    1    2    0    0 -0.34432846847E+02 -0.62291979627E+02 -0.11930016209E+04  0.11977764526E+04  0.79684698756E+02 0.  0.
        -13    1    3    3    0    0  0.62440523565E+01 -0.53087526326E+02 -0.38424338819E+03  0.38794362349E+03  0.00000000000E+00 0.  1.
         14    1    3    3    0    0 -0.40676899204E+02 -0.92044533010E+01 -0.80875823275E+03  0.80983282913E+03  0.00000000000E+00 0. -1.
          1    1    1    2  501    0  0.34432846847E+02  0.62291979627E+02 -0.50806027768E+03  0.51302159548E+03  0.00000000000E+00 0. -1.
<mgrwt>
<rscale>  1 0.10684364E+03</rscale>
<asrwt>0</asrwt>
<pdfrwt beam="1">  1       21 0.74893435E-03 0.10684364E+03</pdfrwt>
<pdfrwt beam="2">  1        2 0.26245084E+00 0.10684364E+03</pdfrwt>
<totfact> 0.79542342E+05</totfact>
</mgrwt>
</event>
<event>
 6    2  0.8544106E+000  0.7897977E+02  0.7546771E-02  0.1331972E+00
         21   -1    0    0  501  502  0.00000000000E+00  0.00000000000E+00  0.27328252203E+03  0.27328252203E+03  0.00000000000E+00 0. -1.
          4   -1    0    0  502    0 -0.00000000000E+00 -0.00000000000E+00 -0.18567514631E+02  0.18567514631E+02  0.00000000000E+00 0. -1.
         24    2    1    2    0    0 -0.57025781407E+02 -0.16381762669E+02  0.10975993842E+03  0.13522221693E+03  0.52129665015E+02 0.  0.
        -11    1    3    3    0    0  0.37707937747E+01  0.87185001440E+01  0.31973872627E+02  0.33355054508E+02  0.00000000000E+00 0.  1.
         12    1    3    3    0    0 -0.60796575182E+02 -0.25100262813E+02  0.77786065796E+02  0.10186716242E+03  0.00000000000E+00 0. -1.
          3    1    1    2  501    0  0.57025781407E+02  0.16381762669E+02  0.14495506897E+03  0.15662781973E+03  0.00000000000E+00 0. -1.
<mgrwt>
<rscale>  1 0.78979769E+02</rscale>
<asrwt>0</asrwt>
<pdfrwt beam="1">  1       21 0.42043462E-01 0.78979769E+02</pdfrwt>
<pdfrwt beam="2">  1        4 0.28565409E-02 0.78979769E+02</pdfrwt>
<totfact> 0.11874193E+05</totfact>
</mgrwt>
</event>
<event>
 6    2  0.8544106E+000  0.9527197E+02  0.7546771E-02  0.1290565E+00
         21   -1    0    0  501  502  0.00000000000E+00  0.00000000000E+00  0.12199018577E+04  0.12199018577E+04  0.00000000000E+00 0. -1.
          4   -1    0    0  502    0 -0.00000000000E+00 -0.00000000000E+00 -0.44227182681E+01  0.44227182681E+01  0.00000000000E+00 0. -1.
         24    2    1    2    0    0  0.50029943040E+02  0.12446580711E+02  0.80757093233E+03  0.81317129798E+03  0.80117641979E+02 0.  0.
        -13    1    3    3    0    0 -0.17490514956E+02  0.51409672405E+01  0.36155778030E+03  0.36201709373E+03  0.00000000000E+00 0.  1.
         14    1    3    3    0    0  0.67520457995E+02  0.73056134707E+01  0.44601315202E+03  0.45115420425E+03  0.00000000000E+00 0. -1.
          3    1    1    2  501    0 -0.50029943040E+02 -0.12446580711E+02  0.40790820706E+03  0.41115327794E+03  0.00000000000E+00 0. -1.
<mgrwt>
<rscale>  1 0.95271975E+02</rscale>
<asrwt>0</asrwt>
<pdfrwt beam="1">  1       21 0.18767694E+00 0.95271975E+02</pdfrwt>
<pdfrwt beam="2">  1        4 0.68041917E-03 0.95271975E+02</pdfrwt>
<totfact> 0.34513505E+04</totfact>
</mgrwt>
</event>
<event>
 6    2  0.8544106E+000  0.8424000E+02  0.7546771E-02  0.1317432E+00
          2   -1    0    0  502    0 -0.00000000000E+00  0.00000000000E+00  0.30144623622E+03  0.30144623622E+03  0.00000000000E+00 0. -1.
         21   -1    0    0  501  502  0.00000000000E+00 -0.00000000000E+00 -0.10037252883E+02  0.10037252883E+02  0.00000000000E+00 0.  1.
         24    2    1    2    0    0 -0.18855620156E+02 -0.12154809873E+02  0.19357781215E+03  0.21111311563E+03  0.81197933600E+02 0.  0.
        -13    1    3    3    0    0  0.24321149322E+01 -0.91675064258E+01 -0.54425188876E+01  0.10935235203E+02  0.00000000000E+00 0.  1.
         14    1    3    3    0    0 -0.21287735088E+02 -0.29873034469E+01  0.19902033104E+03  0.20017788043E+03  0.00000000000E+00 0. -1.
          1    1    1    2  501    0  0.18855620156E+02  0.12154809873E+02  0.97831171191E+02  0.10037037347E+03  0.00000000000E+00 0. -1.
<mgrwt>
<rscale>  1 0.84240004E+02</rscale>
<asrwt>0</asrwt>
<pdfrwt beam="1">  1       21 0.15441930E-02 0.84240004E+02</pdfrwt>
<pdfrwt beam="2">  1        2 0.46376337E-01 0.84240004E+02</pdfrwt>
<totfact> 0.23090419E+06</totfact>
</mgrwt>
</event>
<event>
 6    2  0.8544106E+000  0.8443562E+02  0.7546771E-02  0.1316915E+00
         21   -1    0    0  501  502  0.00000000000E+00  0.00000000000E+00  0.21354353451E+03  0.21354353451E+03  0.00000000000E+00 0.  1.
         -1   -1    0    0    0  501 -0.00000000000E+00 -0.00000000000E+00 -0.15446239093E+02  0.15446239093E+02  0.00000000000E+00 0.  1.
         24    2    1    2    0    0  0.24898865250E+02  0.94601400706E+01  0.12202777374E+03  0.14839188363E+03  0.80124439599E+02 0.  0.
        -13    1    3    3    0    0  0.46117893430E+02  0.29899096595E+02  0.80623351342E+02  0.97575308624E+02  0.00000000000E+00 0.  1.
         14    1    3    3    0    0 -0.21219028179E+02 -0.20438956525E+02  0.41404422402E+02  0.50816575004E+02  0.00000000000E+00 0. -1.
         -2    1    1    2    0  502 -0.24898865250E+02 -0.94601400706E+01  0.76069521677E+02  0.80597889979E+02  0.00000000000E+00 0.  1.
<mgrwt>
<rscale>  1 0.84435618E+02</rscale>
<asrwt>0</asrwt>
<pdfrwt beam="1">  1       21 0.32852849E-01 0.84435618E+02</pdfrwt>
<pdfrwt beam="2">  1       -1 0.23763446E-02 0.84435618E+02</pdfrwt>
<totfact> 0.38704226E+05</totfact>
</mgrwt>
</event>
<event>
 6    2  0.8544106E+000  0.8198315E+02  0.7546771E-02  0.1323516E+00
         21   -1    0    0  501  502  0.00000000000E+00  0.00000000000E+00  0.19011710525E+03  0.19011710525E+03  0.00000000000E+00 0. -1.
          2   -1    0    0  502    0 -0.00000000000E+00 -0.00000000000E+00 -0.21376522833E+03  0.21376522833E+03  0.00000000000E+00 0. -1.
         24    2    1    2    0    0  0.15175764839E+02  0.21154077756E+02 -0.20494044107E+03  0.22073020171E+03  0.77739556955E+02 0.  0.
        -13    1    3    3    0    0  0.19449801769E+02 -0.26306888868E+02 -0.10559487845E+03  0.11054693820E+03  0.00000000000E+00 0.  1.
         14    1    3    3    0    0 -0.42740369303E+01  0.47460966624E+02 -0.99345562622E+02  0.11018326351E+03  0.00000000000E+00 0. -1.
          1    1    1    2  501    0 -0.15175764839E+02 -0.21154077756E+02  0.18129231799E+03  0.18315213187E+03  0.00000000000E+00 0. -1.
<mgrwt>
<rscale>  1 0.81983154E+02</rscale>
<asrwt>0</asrwt>
<pdfrwt beam="1">  1       21 0.29248785E-01 0.81983154E+02</pdfrwt>
<pdfrwt beam="2">  1        2 0.32886958E-01 0.81983154E+02</pdfrwt>
<totfact> 0.22000590E+04</totfact>
</mgrwt>
</event>
<event>
 6    2  0.8544106E+000  0.8446749E+02  0.7546771E-02  0.1316831E+00
         21   -1    0    0  501  502  0.00000000000E+00  0.00000000000E+00  0.11027122826E+02  0.11027122826E+02  0.00000000000E+00 0. -1.
          2   -1    0    0  502    0 -0.00000000000E+00 -0.00000000000E+00 -0.14503992640E+04  0.14503992640E+04  0.00000000000E+00 0. -1.
         24    2    1    2    0    0  0.13459312228E+01  0.24597560276E+02 -0.14336500260E+04  0.14361361890E+04  0.80795450963E+02 0.  0.
        -13    1    3    3    0    0 -0.30852354717E+02 -0.13804685860E+02 -0.65977060733E+03  0.66063582361E+03  0.00000000000E+00 0.  1.
         14    1    3    3    0    0  0.32198285939E+02  0.38402246137E+02 -0.77387941866E+03  0.77550036541E+03  0.00000000000E+00 0. -1.
          1    1    1    2  501    0 -0.13459312228E+01 -0.24597560276E+02 -0.57221151740E+01  0.25290197794E+02  0.00000000000E+00 0. -1.
<mgrwt>
<rscale>  1 0.84467487E+02</rscale>
<asrwt>0</asrwt>
<pdfrwt beam="1">  1       21 0.16964802E-02 0.84467487E+02</pdfrwt>
<pdfrwt beam="2">  1        2 0.22313838E+00 0.84467487E+02</pdfrwt>
<totfact> 0.29409811E+05</totfact>
</mgrwt>
</event>
<event>
 6    2  0.8544106E+000  0.9045828E+02  0.7546771E-02  0.1301746E+00
         21   -1    0    0  501  502  0.00000000000E+00  0.00000000000E+00  0.14080272336E+02  0.14080272336E+02  0.00000000000E+00 0. -1.
          2   -1    0    0  502    0 -0.00000000000E+00 -0.00000000000E+00 -0.91553779648E+03  0.91553779648E+03  0.00000000000E+00 0. -1.
         24    2    1    2    0    0 -0.39074711851E+02  0.47179102643E+01 -0.88029574513E+03  0.88493123994E+03  0.81446968965E+02 0.  0.
        -11    1    3    3    0    0  0.47408667138E+01 -0.28124795388E+02 -0.15730127474E+03  0.15986610325E+03  0.00000000000E+00 0.  1.
         12    1    3    3    0    0 -0.43815578565E+02  0.32842705653E+02 -0.72299447039E+03  0.72506513669E+03  0.00000000000E+00 0. -1.
          1    1    1    2  501    0  0.39074711851E+02 -0.47179102643E+01 -0.21161779015E+02  0.44686828871E+02  0.00000000000E+00 0. -1.
<mgrwt>
<rscale>  1 0.90458281E+02</rscale>
<asrwt>0</asrwt>
<pdfrwt beam="1">  1       21 0.21661957E-02 0.90458281E+02</pdfrwt>
<pdfrwt beam="2">  1        2 0.14085197E+00 0.90458281E+02</pdfrwt>
<totfact> 0.39356806E+05</totfact>
</mgrwt>
</event>
<event>
 6    2  0.8544106E+000  0.8994888E+02  0.7546771E-02  0.1302976E+00
         21   -1    0    0  501  502  0.00000000000E+00  0.00000000000E+00  0.92295520463E+01  0.92295520463E+01  0.00000000000E+00 0. -1.
         -1   -1    0    0    0  501 -0.00000000000E+00 -0.00000000000E+00 -0.11060868707E+04  0.11060868707E+04  0.00000000000E+00 0.  1.
         24    2    1    2    0    0 -0.12080578852E+02  0.34741207179E+02 -0.21986315521E+03  0.23755127501E+03  0.82084769474E+02 0.  0.
        -11    1    3    3    0    0  0.20285266320E+02  0.46597270869E+02 -0.16598179873E+03  0.17358788895E+03  0.00000000000E+00 0.  1.
         12    1    3    3    0    0 -0.32365845172E+02 -0.11856063690E+02 -0.53881356482E+02  0.63963386060E+02  0.00000000000E+00 0. -1.
         -2    1    1    2    0  502  0.12080578852E+02 -0.34741207179E+02 -0.87699416340E+03  0.87776514769E+03  0.00000000000E+00 0.  1.
<mgrwt>
<rscale>  1 0.89948881E+02</rscale>
<asrwt>0</asrwt>
<pdfrwt beam="1">  1       21 0.14199309E-02 0.89948881E+02</pdfrwt>
<pdfrwt beam="2">  1       -1 0.17016723E+00 0.89948881E+02</pdfrwt>
<totfact> 0.53286942E+04</totfact>
</mgrwt>
</event>
<event>
 6    2  0.8544106E+000  0.7785922E+02  0.7546771E-02  0.1335239E+00
          2   -1    0    0  502    0 -0.00000000000E+00  0.00000000000E+00  0.13326307510E+04  0.13326307510E+04  0.00000000000E+00 0. -1.
         21   -1    0    0  501  502  0.00000000000E+00 -0.00000000000E+00 -0.22609855345E+01  0.22609855345E+01  0.00000000000E+00 0.  1.
         24    2    1    2    0    0  0.29001378456E+02  0.11543009908E+02  0.10145597927E+04  0.10175429380E+04  0.71328372264E+02 0.  0.
        -13    1    3    3    0    0  0.25095382837E+02  0.24550351751E+02  0.21343394792E+03  0.21630198366E+03  0.00000000000E+00 0.  1.
         14    1    3    3    0    0  0.39059956194E+01 -0.13007341843E+02  0.80112584482E+03  0.80124095438E+03  0.00000000000E+00 0. -1.
          1    1    1    2  501    0 -0.29001378456E+02 -0.11543009908E+02  0.31580997272E+03  0.31734879848E+03  0.00000000000E+00 0. -1.
<mgrwt>
<rscale>  1 0.77859217E+02</rscale>
<asrwt>0</asrwt>
<pdfrwt beam="1">  1       21 0.34784499E-03 0.77859217E+02</pdfrwt>
<pdfrwt beam="2">  1        2 0.20501949E+00 0.77859217E+02</pdfrwt>
<totfact> 0.39080312E+06</totfact>
</mgrwt>
</event>
<event>
 6    2  0.8544106E+000  0.8394629E+02  0.7546771E-02  0.1318211E+00
         21   -1    0    0  501  502  0.00000000000E+00  0.00000000000E+00  0.12365816989E+03  0.12365816989E+03  0.00000000000E+00 0.  1.
          2   -1    0    0  502    0 -0.00000000000E+00 -0.00000000000E+00 -0.27038672883E+02  0.27038672883E+02  0.00000000000E+00 0. -1.
         24    2    1    2    0    0  0.90445269726E+01 -0.26005675582E+02  0.53528510478E+02  0.99560439393E+02  0.79302465456E+02 0.  0.
        -11    1    3    3    0    0  0.24076154413E+02  0.15512773969E+02  0.46837724011E+02  0.54900635316E+02  0.00000000000E+00 0.  1.
         12    1    3    3    0    0 -0.15031627441E+02 -0.41518449551E+02  0.66907864665E+01  0.44659804077E+02  0.00000000000E+00 0. -1.
          1    1    1    2  501    0 -0.90445269726E+01  0.26005675582E+02  0.43090986534E+02  0.51136403385E+02  0.00000000000E+00 0. -1.
<mgrwt>
<rscale>  1 0.83946290E+02</rscale>
<asrwt>0</asrwt>
<pdfrwt beam="1">  1       21 0.19024334E-01 0.83946290E+02</pdfrwt>
<pdfrwt beam="2">  1        2 0.41597959E-02 0.83946290E+02</pdfrwt>
<totfact> 0.56606247E+05</totfact>
</mgrwt>
</event>
<event>
 6    2  0.8544106E+000  0.8823356E+02  0.7546771E-02  0.1307187E+00
          2   -1    0    0  502    0 -0.00000000000E+00  0.00000000000E+00  0.19185123600E+04  0.19185123600E+04  0.00000000000E+00 0. -1.
         21   -1    0    0  501  502  0.00000000000E+00 -0.00000000000E+00 -0.24136753439E+01  0.24136753439E+01  0.00000000000E+00 0.  1.
         24    2    1    2    0    0 -0.81136897511E+01 -0.32269938213E+02  0.90765097140E+03  0.91192951838E+03  0.81718906845E+02 0.  0.
        -13    1    3    3    0    0 -0.61060612784E+00 -0.54438502440E+02  0.39374955960E+03  0.39749545792E+03  0.00000000000E+00 0.  1.
         14    1    3    3    0    0 -0.75030836233E+01  0.22168564227E+02  0.51390141180E+03  0.51443406045E+03  0.00000000000E+00 0. -1.
          1    1    1    2  501    0  0.81136897511E+01  0.32269938213E+02  0.10084477133E+04  0.10089965170E+04  0.00000000000E+00 0. -1.
<mgrwt>
<rscale>  1 0.88233557E+02</rscale>
<asrwt>0</asrwt>
<pdfrwt beam="1">  1       21 0.37133620E-03 0.88233557E+02</pdfrwt>
<pdfrwt beam="2">  1        2 0.29515453E+00 0.88233557E+02</pdfrwt>
<totfact> 0.18091629E+06</totfact>
</mgrwt>
</event>
<event>
 6    2  0.8544106E+000  0.9204755E+02  0.7546771E-02  0.1297968E+00
         21   -1    0    0  501  502  0.00000000000E+00  0.00000000000E+00  0.62630024507E+01  0.62630024507E+01  0.00000000000E+00 0. -1.
          2   -1    0    0  502    0 -0.00000000000E+00 -0.00000000000E+00 -0.12022373849E+04  0.12022373849E+04  0.00000000000E+00 0. -1.
         24    2    1    2    0    0  0.31575305967E+02 -0.30664399496E+02 -0.10881799191E+04  0.10920660639E+04  0.80842107147E+02 0.  0.
        -13    1    3    3    0    0  0.21230350579E+02 -0.46114422621E+02 -0.35106278958E+03  0.35471446262E+03  0.00000000000E+00 0.  1.
         14    1    3    3    0    0  0.10344955389E+02  0.15450023125E+02 -0.73711712952E+03  0.73735160131E+03  0.00000000000E+00 0. -1.
          1    1    1    2  501    0 -0.31575305967E+02  0.30664399496E+02 -0.10779446330E+03  0.11643432338E+03  0.00000000000E+00 0. -1.
<mgrwt>
<rscale>  1 0.92047551E+02</rscale>
<asrwt>0</asrwt>
<pdfrwt beam="1">  1       21 0.96353904E-03 0.92047551E+02</pdfrwt>
<pdfrwt beam="2">  1        2 0.18495956E+00 0.92047551E+02</pdfrwt>
<totfact> 0.97234515E+05</totfact>
</mgrwt>
</event>
<event>
 6    2  0.8544106E+000  0.1091139E+03  0.7546771E-02  0.1262220E+00
         21   -1    0    0  501  502  0.00000000000E+00  0.00000000000E+00  0.33627889686E+02  0.33627889686E+02  0.00000000000E+00 0. -1.
          2   -1    0    0  502    0 -0.00000000000E+00 -0.00000000000E+00 -0.14745177353E+04  0.14745177353E+04  0.00000000000E+00 0. -1.
         24    2    1    2    0    0 -0.68268044516E+02  0.29124769648E+02 -0.14287832013E+04  0.14329435709E+04  0.79981640556E+02 0.  0.
        -11    1    3    3    0    0  0.15678193116E+02 -0.72700237213E+01 -0.27117354889E+03  0.27172366957E+03  0.00000000000E+00 0.  1.
         12    1    3    3    0    0 -0.83946237633E+02  0.36394793369E+02 -0.11576096525E+04  0.11612199013E+04  0.00000000000E+00 0. -1.
          1    1    1    2  501    0  0.68268044516E+02 -0.29124769648E+02 -0.12106644314E+02  0.75202054132E+02  0.00000000000E+00 0. -1.
<mgrwt>
<rscale>  1 0.10911389E+03</rscale>
<asrwt>0</asrwt>
<pdfrwt beam="1">  1       21 0.51735214E-02 0.10911389E+03</pdfrwt>
<pdfrwt beam="2">  1        2 0.22684889E+00 0.10911389E+03</pdfrwt>
<totfact> 0.46608363E+04</totfact>
</mgrwt>
</event>
<event>
 6    2  0.8544106E+000  0.9035116E+02  0.7546771E-02  0.1302004E+00
         21   -1    0    0  501  502  0.00000000000E+00  0.00000000000E+00  0.26896417800E+01  0.26896417800E+01  0.00000000000E+00 0.  1.
         -3   -1    0    0    0  501 -0.00000000000E+00 -0.00000000000E+00 -0.21365311710E+04  0.21365311710E+04  0.00000000000E+00 0.  1.
         24    2    1    2    0    0 -0.22950115651E+02 -0.26883605543E+02 -0.19451368742E+04  0.19472341391E+04  0.83149846288E+02 0.  0.
        -11    1    3    3    0    0 -0.44331710112E+02  0.34062891866E-01 -0.15410988505E+04  0.15417363486E+04  0.00000000000E+00 0.  1.
         12    1    3    3    0    0  0.21381594461E+02 -0.26917668435E+02 -0.40403802369E+03  0.40549779043E+03  0.00000000000E+00 0. -1.
         -4    1    1    2    0  502  0.22950115651E+02  0.26883605543E+02 -0.18870465501E+03  0.19198667370E+03  0.00000000000E+00 0.  1.
<mgrwt>
<rscale>  1 0.90351165E+02</rscale>
<asrwt>0</asrwt>
<pdfrwt beam="1">  1       21 0.41379020E-03 0.90351165E+02</pdfrwt>
<pdfrwt beam="2">  1       -3 0.32869777E+00 0.90351165E+02</pdfrwt>
<totfact> 0.22458845E+04</totfact>
</mgrwt>
</event>
<event>
 6    2  0.8544106E+000  0.2907991E+03  0.7546771E-02  0.1089933E+00
          4   -1    0    0  502    0 -0.00000000000E+00  0.00000000000E+00  0.14494632673E+03  0.14494632673E+03  0.00000000000E+00 0. -1.
         21   -1    0    0  501  502  0.00000000000E+00 -0.00000000000E+00 -0.56912845107E+03  0.56912845107E+03  0.00000000000E+00 0. -1.
         24    2    1    2    0    0 -0.27866004711E+03  0.30757287039E+02 -0.17782821674E+03  0.34086213018E+03  0.77244317328E+02 0.  0.
        -13    1    3    3    0    0 -0.27042886070E+02  0.27328375967E+02 -0.15783382074E+02  0.41560473646E+02  0.00000000000E+00 0.  1.
         14    1    3    3    0    0 -0.25161716104E+03  0.34289110716E+01 -0.16204483467E+03  0.29930165653E+03  0.00000000000E+00 0. -1.
          3    1    1    2  501    0  0.27866004711E+03 -0.30757287039E+02 -0.24635390760E+03  0.37321264763E+03  0.00000000000E+00 0. -1.
<mgrwt>
<rscale>  1 0.29079910E+03</rscale>
<asrwt>0</asrwt>
<pdfrwt beam="1">  1       21 0.87558224E-01 0.29079910E+03</pdfrwt>
<pdfrwt beam="2">  1        4 0.22299435E-01 0.29079910E+03</pdfrwt>
<totfact> 0.86525766E+02</totfact>
</mgrwt>
</event>
<event>
 6    2  0.8544106E+000  0.8292690E+02  0.7546771E-02  0.1320945E+00
         21   -1    0    0  501  502  0.00000000000E+00  0.00000000000E+00  0.26139406189E+01  0.26139406189E+01  0.00000000000E+00 0.  1.
          2   -1    0    0  502    0 -0.00000000000E+00 -0.00000000000E+00 -0.11252138299E+04  0.11252138299E+04  0.00000000000E+00 0. -1.
         24    2    1    2    0    0  0.23423982863E+02 -0.61630336834E+01 -0.93510782537E+03  0.93877767137E+03  0.79310814166E+02 0.  0.
        -13    1    3    3    0    0  0.46276848363E+02 -0.20288791987E+02 -0.75362465490E+03  0.75531669004E+03  0.00000000000E+00 0.  1.
         14    1    3    3    0    0 -0.22852865500E+02  0.14125758303E+02 -0.18148317047E+03  0.18346098134E+03  0.00000000000E+00 0. -1.
          1    1    1    2  501    0 -0.23423982863E+02  0.61630336834E+01 -0.18749206393E+03  0.18905009916E+03  0.00000000000E+00 0. -1.
<mgrwt>
<rscale>  1 0.82926903E+02</rscale>
<asrwt>0</asrwt>
<pdfrwt beam="1">  1       21 0.40214407E-03 0.82926903E+02</pdfrwt>
<pdfrwt beam="2">  1        2 0.17311009E+00 0.82926903E+02</pdfrwt>
<totfact> 0.40788432E+06</totfact>
</mgrwt>
</event>
<event>
 6    2  0.8544106E+000  0.7795385E+02  0.7546771E-02  0.1334960E+00
         -1   -1    0    0    0  501 -0.00000000000E+00  0.00000000000E+00  0.18402499123E+03  0.18402499123E+03  0.00000000000E+00 0.  1.
         21   -1    0    0  501  502  0.00000000000E+00 -0.00000000000E+00 -0.36170334349E+02  0.36170334349E+02  0.00000000000E+00 0.  1.
         24    2    1    2    0    0  0.15371971070E+01 -0.21952076559E+02  0.17120055138E+03  0.18811281585E+03  0.74783327389E+02 0.  0.
        -13    1    3    3    0    0 -0.22353179633E+02 -0.11202130170E+02  0.15565453528E+03  0.15764988650E+03  0.00000000000E+00 0.  1.
         14    1    3    3    0    0  0.23890376740E+02 -0.10749946389E+02  0.15546016096E+02  0.30462929350E+02  0.00000000000E+00 0. -1.
         -2    1    1    2    0  502 -0.15371971070E+01  0.21952076559E+02 -0.23345894500E+02  0.32082509724E+02  0.00000000000E+00 0.  1.
<mgrwt>
<rscale>  1 0.77953850E+02</rscale>
<asrwt>0</asrwt>
<pdfrwt beam="1">  1       21 0.55646669E-02 0.77953850E+02</pdfrwt>
<pdfrwt beam="2">  1       -1 0.28311537E-01 0.77953850E+02</pdfrwt>
<totfact> 0.21635278E+05</totfact>
</mgrwt>
</event>
<event>
 6    2  0.8544106E+000  0.9187191E+02  0.7546771E-02  0.1298381E+00
         21   -1    0    0  501  502  0.00000000000E+00  0.00000000000E+00  0.14858521861E+02  0.14858521861E+02  0.00000000000E+00 0. -1.
          2   -1    0    0  502    0 -0.00000000000E+00 -0.00000000000E+00 -0.42546674978E+03  0.42546674978E+03  0.00000000000E+00 0. -1.
         24    2    1    2    0    0  0.58632438168E+01 -0.46709666601E+02 -0.35857207997E+03  0.37015454216E+03  0.78894093364E+02 0.  0.
        -13    1    3    3    0    0  0.14515733757E+02  0.72514988549E+01 -0.14474132887E+02  0.21743764278E+02  0.00000000000E+00 0.  1.
         14    1    3    3    0    0 -0.86524899402E+01 -0.53961165456E+02 -0.34409794709E+03  0.34841077789E+03  0.00000000000E+00 0. -1.
          1    1    1    2  501    0 -0.58632438168E+01  0.46709666601E+02 -0.52036147948E+02  0.70170729476E+02  0.00000000000E+00 0. -1.
<mgrwt>
<rscale>  1 0.91871914E+02</rscale>
<asrwt>0</asrwt>
<pdfrwt beam="1">  1       21 0.22859266E-02 0.91871914E+02</pdfrwt>
<pdfrwt beam="2">  1        2 0.65456420E-01 0.91871914E+02</pdfrwt>
<totfact> 0.86918976E+05</totfact>
</mgrwt>
</event>
<event>
 6    2  0.8544106E+000  0.1074227E+03  0.7546771E-02  0.1265418E+00
         21   -1    0    0  501  502  0.00000000000E+00  0.00000000000E+00  0.12274614017E+03  0.12274614017E+03  0.00000000000E+00 0. -1.
          2   -1    0    0  502    0 -0.00000000000E+00 -0.00000000000E+00 -0.19707399143E+03  0.19707399143E+03  0.00000000000E+00 0. -1.
         24    2    1    2    0    0 -0.16379833767E+02 -0.45393342161E+02 -0.17661622458E+03  0.20671944291E+03  0.95972823374E+02 0.  0.
        -13    1    3    3    0    0  0.22335178801E+02 -0.59675072052E+02 -0.12776510773E+03  0.14277218633E+03  0.00000000000E+00 0.  1.
         14    1    3    3    0    0 -0.38715012568E+02  0.14281729890E+02 -0.48851116847E+02  0.63947256579E+02  0.00000000000E+00 0. -1.
          1    1    1    2  501    0  0.16379833767E+02  0.45393342161E+02  0.10228837332E+03  0.11310068869E+03  0.00000000000E+00 0. -1.
<mgrwt>
<rscale>  1 0.10742270E+03</rscale>
<asrwt>0</asrwt>
<pdfrwt beam="1">  1       21 0.18884022E-01 0.10742270E+03</pdfrwt>
<pdfrwt beam="2">  1        2 0.30319075E-01 0.10742270E+03</pdfrwt>
<totfact> 0.54379140E+04</totfact>
</mgrwt>
</event>
<event>
 6    2  0.8544106E+000  0.8679254E+02  0.7546771E-02  0.1310810E+00
         21   -1    0    0  501  502  0.00000000000E+00  0.00000000000E+00  0.89456560875E+01  0.89456560875E+01  0.00000000000E+00 0.  1.
         -1   -1    0    0    0  501 -0.00000000000E+00 -0.00000000000E+00 -0.54106215735E+03  0.54106215735E+03  0.00000000000E+00 0.  1.
         24    2    1    2    0    0 -0.17089025128E+02  0.17245356878E+02 -0.50945960843E+03  0.51679980376E+03  0.83327711092E+02 0.  0.
        -11    1    3    3    0    0  0.11994630032E+02  0.41647199320E+02 -0.35976134098E+03  0.36236250195E+03  0.00000000000E+00 0.  1.
         12    1    3    3    0    0 -0.29083655161E+02 -0.24401842442E+02 -0.14969826745E+03  0.15443730181E+03  0.00000000000E+00 0. -1.
         -2    1    1    2    0  502  0.17089025128E+02 -0.17245356878E+02 -0.22656892837E+02  0.33208009677E+02  0.00000000000E+00 0.  1.
<mgrwt>
<rscale>  1 0.86792537E+02</rscale>
<asrwt>0</asrwt>
<pdfrwt beam="1">  1       21 0.13762547E-02 0.86792537E+02</pdfrwt>
<pdfrwt beam="2">  1       -1 0.83240334E-01 0.86792537E+02</pdfrwt>
<totfact> 0.29786445E+05</totfact>
</mgrwt>
</event>
<event>
 6    2  0.8544106E+000  0.1000708E+03  0.7546771E-02  0.1280147E+00
         -1   -1    0    0    0  501 -0.00000000000E+00  0.00000000000E+00  0.29634865016E+02  0.29634865016E+02  0.00000000000E+00 0.  1.
         21   -1    0    0  501  502  0.00000000000E+00 -0.00000000000E+00 -0.22287158251E+03  0.22287158251E+03  0.00000000000E+00 0.  1.
         24    2    1    2    0    0 -0.47975419950E+02  0.39605276430E+02 -0.11217752625E+03  0.15032615919E+03  0.78383275631E+02 0.  0.
        -11    1    3    3    0    0 -0.61149531649E+02  0.88164066187E+01 -0.49125164992E+02  0.78932097920E+02  0.00000000000E+00 0.  1.
         12    1    3    3    0    0  0.13174111699E+02  0.30788869812E+02 -0.63052361263E+02  0.71394061266E+02  0.00000000000E+00 0. -1.
         -2    1    1    2    0  502  0.47975419950E+02 -0.39605276430E+02 -0.81059191235E+02  0.10218028833E+03  0.00000000000E+00 0.  1.
<mgrwt>
<rscale>  1 0.10007076E+03</rscale>
<asrwt>0</asrwt>
<pdfrwt beam="1">  1       21 0.34287936E-01 0.10007076E+03</pdfrwt>
<pdfrwt beam="2">  1       -1 0.45592099E-02 0.10007076E+03</pdfrwt>
<totfact> 0.14100861E+05</totfact>
</mgrwt>
</event>
<event>
 6    2  0.8544106E+000  0.8449416E+02  0.7546771E-02  0.1316761E+00
         21   -1    0    0  501  502  0.00000000000E+00  0.00000000000E+00  0.16731328247E+01  0.16731328247E+01  0.00000000000E+00 0.  1.
          2   -1    0    0  502    0 -0.00000000000E+00 -0.00000000000E+00 -0.20863066246E+04  0.20863066246E+04  0.00000000000E+00 0. -1.
         24    2    1    2    0    0 -0.70284850427E+00 -0.24860369356E+02 -0.18703983708E+04  0.18723058855E+04  0.80751046576E+02 0.  0.
        -11    1    3    3    0    0 -0.19615706353E+02 -0.37946954289E+02 -0.53275615401E+03  0.53446596422E+03  0.00000000000E+00 0.  1.
         12    1    3    3    0    0  0.18912857849E+02  0.13086584933E+02 -0.13376422168E+04  0.13378399213E+04  0.00000000000E+00 0. -1.
          1    1    1    2  501    0  0.70284850427E+00  0.24860369356E+02 -0.21423512098E+03  0.21567387190E+03  0.00000000000E+00 0. -1.
<mgrwt>
<rscale>  1 0.84494162E+02</rscale>
<asrwt>0</asrwt>
<pdfrwt beam="1">  1       21 0.25740535E-03 0.84494162E+02</pdfrwt>
<pdfrwt beam="2">  1        2 0.32096988E+00 0.84494162E+02</pdfrwt>
<totfact> 0.25865303E+06</totfact>
</mgrwt>
</event>
<event>
 6    2  0.8544106E+000  0.8274132E+02  0.7546771E-02  0.1321447E+00
         -1   -1    0    0    0  501 -0.00000000000E+00  0.00000000000E+00  0.12090871266E+03  0.12090871266E+03  0.00000000000E+00 0.  1.
         21   -1    0    0  501  502  0.00000000000E+00 -0.00000000000E+00 -0.26824057825E+02  0.26824057825E+02  0.00000000000E+00 0.  1.
         24    2    1    2    0    0  0.17312119328E+02 -0.10724602129E+02  0.96624525227E+02  0.12721016080E+03  0.80196007191E+02 0.  0.
        -13    1    3    3    0    0  0.49152226214E+02 -0.11187653991E+02  0.65814019304E+02  0.82901086124E+02  0.00000000000E+00 0.  1.
         14    1    3    3    0    0 -0.31840106886E+02  0.46305186169E+00  0.30810505924E+02  0.44309074678E+02  0.00000000000E+00 0. -1.
         -2    1    1    2    0  502 -0.17312119328E+02  0.10724602129E+02 -0.25398703955E+01  0.20522609680E+02  0.00000000000E+00 0.  1.
<mgrwt>
<rscale>  1 0.82741321E+02</rscale>
<asrwt>0</asrwt>
<pdfrwt beam="1">  1       21 0.41267782E-02 0.82741321E+02</pdfrwt>
<pdfrwt beam="2">  1       -1 0.18601340E-01 0.82741321E+02</pdfrwt>
<totfact> 0.70105559E+05</totfact>
</mgrwt>
</event>
<event>
 6    2  0.8544106E+000  0.9526328E+02  0.7546771E-02  0.1290584E+00
          2   -1    0    0  502    0 -0.00000000000E+00  0.00000000000E+00  0.10746305957E+03  0.10746305957E+03  0.00000000000E+00 0. -1.
         21   -1    0    0  501  502  0.00000000000E+00 -0.00000000000E+00 -0.77041660034E+02  0.77041660034E+02  0.00000000000E+00 0. -1.
         24    2    1    2    0    0  0.24257431876E+02  0.53644794382E+02  0.65836384465E+02  0.11579949329E+03  0.74892630884E+02 0.  0.
        -13    1    3    3    0    0 -0.25518954423E+02  0.24634494915E+02  0.13461364324E+02  0.37937892720E+02  0.00000000000E+00 0.  1.
         14    1    3    3    0    0  0.49776386300E+02  0.29010299467E+02  0.52375020141E+02  0.77861600568E+02  0.00000000000E+00 0. -1.
          1    1    1    2  501    0 -0.24257431876E+02 -0.53644794382E+02 -0.35414984929E+02  0.68705226316E+02  0.00000000000E+00 0. -1.
<mgrwt>
<rscale>  1 0.95263283E+02</rscale>
<asrwt>0</asrwt>
<pdfrwt beam="1">  1       21 0.11852563E-01 0.95263283E+02</pdfrwt>
<pdfrwt beam="2">  1        2 0.16532778E-01 0.95263283E+02</pdfrwt>
<totfact> 0.24375862E+05</totfact>
</mgrwt>
</event>
<event>
 6    2  0.8544106E+000  0.8646553E+02  0.7546771E-02  0.1311644E+00
          2   -1    0    0  502    0 -0.00000000000E+00  0.00000000000E+00  0.14885172777E+03  0.14885172777E+03  0.00000000000E+00 0. -1.
         21   -1    0    0  501  502  0.00000000000E+00 -0.00000000000E+00 -0.31398402559E+02  0.31398402559E+02  0.00000000000E+00 0. -1.
         24    2    1    2    0    0  0.54078399221E+01  0.30435650793E+02  0.12144501559E+03  0.14908112066E+03  0.80750945217E+02 0.  0.
        -11    1    3    3    0    0  0.49160025552E+01 -0.20916657496E+02  0.53615598992E+01  0.22145427666E+02  0.00000000000E+00 0.  1.
         12    1    3    3    0    0  0.49183736690E+00  0.51352308289E+02  0.11608345569E+03  0.12693569299E+03  0.00000000000E+00 0. -1.
          1    1    1    2  501    0 -0.54078399221E+01 -0.30435650793E+02 -0.39916903784E+01  0.31169009671E+02  0.00000000000E+00 0. -1.
<mgrwt>
<rscale>  1 0.86465535E+02</rscale>
<asrwt>0</asrwt>
<pdfrwt beam="1">  1       21 0.48305236E-02 0.86465535E+02</pdfrwt>
<pdfrwt beam="2">  1        2 0.22900265E-01 0.86465535E+02</pdfrwt>
<totfact> 0.77462022E+05</totfact>
</mgrwt>
</event>
<event>
 6    2  0.8544106E+000  0.8956709E+02  0.7546771E-02  0.1303903E+00
          2   -1    0    0  502    0 -0.00000000000E+00  0.00000000000E+00  0.18598621905E+04  0.18598621905E+04  0.00000000000E+00 0. -1.
         21   -1    0    0  501  502  0.00000000000E+00 -0.00000000000E+00 -0.58794485786E+01  0.58794485786E+01  0.00000000000E+00 0. -1.
         24    2    1    2    0    0 -0.22134350158E+02  0.28907751106E+02  0.17891084792E+04  0.17913490487E+04  0.81833224546E+02 0.  0.
        -11    1    3    3    0    0 -0.94384631047E+01 -0.57383252347E+01  0.31993351363E+02  0.33846528532E+02  0.00000000000E+00 0.  1.
         12    1    3    3    0    0 -0.12695887053E+02  0.34646076340E+02  0.17571151278E+04  0.17575025202E+04  0.00000000000E+00 0. -1.
          1    1    1    2  501    0  0.22134350158E+02 -0.28907751106E+02  0.64874262783E+02  0.74392590374E+02  0.00000000000E+00 0. -1.
<mgrwt>
<rscale>  1 0.89567093E+02</rscale>
<asrwt>0</asrwt>
<pdfrwt beam="1">  1       21 0.90453203E-03 0.89567093E+02</pdfrwt>
<pdfrwt beam="2">  1        2 0.28613218E+00 0.89567093E+02</pdfrwt>
<totfact> 0.49251696E+05</totfact>
</mgrwt>
</event>
<event>
 6    2  0.8544106E+000  0.1231511E+03  0.7546771E-02  0.1237987E+00
          2   -1    0    0  502    0 -0.00000000000E+00  0.00000000000E+00  0.15904805994E+04  0.15904805994E+04  0.00000000000E+00 0. -1.
         21   -1    0    0  501  502  0.00000000000E+00 -0.00000000000E+00 -0.10276044911E+02  0.10276044911E+02  0.00000000000E+00 0. -1.
         24    2    1    2    0    0  0.91518069126E+02 -0.29511161384E+02  0.12708214306E+04  0.12767745723E+04  0.76939810468E+02 0.  0.
        -13    1    3    3    0    0  0.61049029979E+02  0.15361485639E+02  0.48249283297E+03  0.48658225735E+03  0.00000000000E+00 0.  1.
         14    1    3    3    0    0  0.30469039147E+02 -0.44872647023E+02  0.78832859763E+03  0.79019231497E+03  0.00000000000E+00 0. -1.
          1    1    1    2  501    0 -0.91518069126E+02  0.29511161384E+02  0.30938312390E+03  0.32398207200E+03  0.00000000000E+00 0. -1.
<mgrwt>
<rscale>  1 0.12315113E+03</rscale>
<asrwt>0</asrwt>
<pdfrwt beam="1">  1       21 0.15809312E-02 0.12315113E+03</pdfrwt>
<pdfrwt beam="2">  1        2 0.24468913E+00 0.12315113E+03</pdfrwt>
<totfact> 0.28187096E+05</totfact>
</mgrwt>
</event>
<event>
 6    2  0.8544106E+000  0.1017373E+03  0.7546771E-02  0.1276685E+00
         21   -1    0    0  501  502  0.00000000000E+00  0.00000000000E+00  0.27172507205E+02  0.27172507205E+02  0.00000000000E+00 0. -1.
          2   -1    0    0  502    0 -0.00000000000E+00 -0.00000000000E+00 -0.44746430440E+03  0.44746430440E+03  0.00000000000E+00 0. -1.
         24    2    1    2    0    0 -0.56750803011E+02 -0.26290396857E+02 -0.39377126208E+03  0.40670171469E+03  0.80241132151E+02 0.  0.
        -11    1    3    3    0    0  0.67026668685E+01  0.21357483993E+02 -0.87472738739E+02  0.90291460771E+02  0.00000000000E+00 0.  1.
         12    1    3    3    0    0 -0.63453469879E+02 -0.47647880850E+02 -0.30629852334E+03  0.31641025392E+03  0.00000000000E+00 0. -1.
          1    1    1    2  501    0  0.56750803011E+02  0.26290396857E+02 -0.26520535119E+02  0.67935096911E+02  0.00000000000E+00 0. -1.
<mgrwt>
<rscale>  1 0.10173730E+03</rscale>
<asrwt>0</asrwt>
<pdfrwt beam="1">  1       21 0.41803857E-02 0.10173730E+03</pdfrwt>
<pdfrwt beam="2">  1        2 0.68840663E-01 0.10173730E+03</pdfrwt>
<totfact> 0.31024653E+05</totfact>
</mgrwt>
</event>
<event>
 6    2  0.8544106E+000  0.8451052E+02  0.7546771E-02  0.1316718E+00
         21   -1    0    0  501  502  0.00000000000E+00  0.00000000000E+00  0.30436217508E+03  0.30436217508E+03  0.00000000000E+00 0. -1.
          4   -1    0    0  502    0 -0.00000000000E+00 -0.00000000000E+00 -0.37394402538E+02  0.37394402538E+02  0.00000000000E+00 0. -1.
         24    2    1    2    0    0  0.12677654402E+02 -0.25282406282E+02  0.12156389208E+02  0.85380361745E+02  0.79637336624E+02 0.  0.
        -13    1    3    3    0    0  0.49360498198E+01  0.27221882028E+01  0.42789842098E+02  0.43159535252E+02  0.00000000000E+00 0.  1.
         14    1    3    3    0    0  0.77416045826E+01 -0.28004594485E+02 -0.30633452890E+02  0.42220826493E+02  0.00000000000E+00 0. -1.
          3    1    1    2  501    0 -0.12677654402E+02  0.25282406282E+02  0.25481138334E+03  0.25637621588E+03  0.00000000000E+00 0. -1.
<mgrwt>
<rscale>  1 0.84510522E+02</rscale>
<asrwt>0</asrwt>
<pdfrwt beam="1">  1       21 0.46824948E-01 0.84510522E+02</pdfrwt>
<pdfrwt beam="2">  1        4 0.57529852E-02 0.84510522E+02</pdfrwt>
<totfact> 0.32144527E+04</totfact>
</mgrwt>
</event>
<event>
 6    2  0.8544106E+000  0.8226036E+02  0.7546771E-02  0.1322757E+00
          2   -1    0    0  502    0 -0.00000000000E+00  0.00000000000E+00  0.29452528853E+03  0.29452528853E+03  0.00000000000E+00 0. -1.
         21   -1    0    0  501  502  0.00000000000E+00 -0.00000000000E+00 -0.12231203092E+02  0.12231203092E+02  0.00000000000E+00 0.  1.
         24    2    1    2    0    0  0.45541668162E+01 -0.23621730274E+02  0.26404277241E+03  0.27655985267E+03  0.78664095196E+02 0.  0.
        -13    1    3    3    0    0 -0.26227655000E+02 -0.15053348237E+02  0.39457624513E+02  0.49713150294E+02  0.00000000000E+00 0.  1.
         14    1    3    3    0    0  0.30781821816E+02 -0.85683820367E+01  0.22458514790E+03  0.22684670238E+03  0.00000000000E+00 0. -1.
          1    1    1    2  501    0 -0.45541668162E+01  0.23621730274E+02  0.18251313030E+02  0.30196638949E+02  0.00000000000E+00 0. -1.
<mgrwt>
<rscale>  1 0.82260358E+02</rscale>
<asrwt>0</asrwt>
<pdfrwt beam="1">  1       21 0.18817238E-02 0.82260358E+02</pdfrwt>
<pdfrwt beam="2">  1        2 0.45311577E-01 0.82260358E+02</pdfrwt>
<totfact> 0.17233677E+06</totfact>
</mgrwt>
</event>
<event>
 6    2  0.8544106E+000  0.9728710E+02  0.7546771E-02  0.1286106E+00
         21   -1    0    0  501  502  0.00000000000E+00  0.00000000000E+00  0.10229575944E+02  0.10229575944E+02  0.00000000000E+00 0.  1.
         -1   -1    0    0    0  501 -0.00000000000E+00 -0.00000000000E+00 -0.83629377107E+03  0.83629377107E+03  0.00000000000E+00 0.  1.
         24    2    1    2    0    0  0.15463859692E+02  0.57234566316E+02 -0.70543959827E+03  0.71211642791E+03  0.77135293773E+02 0.  0.
        -13    1    3    3    0    0 -0.47788903302E+01  0.60731471522E+02 -0.65239345614E+03  0.65523154002E+03  0.00000000000E+00 0.  1.
         14    1    3    3    0    0  0.20242750022E+02 -0.34969052057E+01 -0.53046142137E+02  0.56884887889E+02  0.00000000000E+00 0. -1.
         -2    1    1    2    0  502 -0.15463859692E+02 -0.57234566316E+02 -0.12062459685E+03  0.13440691911E+03  0.00000000000E+00 0.  1.
<mgrwt>
<rscale>  1 0.97287101E+02</rscale>
<asrwt>0</asrwt>
<pdfrwt beam="1">  1       21 0.15737808E-02 0.97287101E+02</pdfrwt>
<pdfrwt beam="2">  1       -1 0.12866059E+00 0.97287101E+02</pdfrwt>
<totfact> 0.92815753E+04</totfact>
</mgrwt>
</event>
<event>
 6    2  0.1087275E+001  0.9438942E+02  0.7546771E-02  0.1292557E+00
         21   -1    0    0  501  502  0.00000000000E+00  0.00000000000E+00  0.17974445437E+02  0.17974445437E+02  0.00000000000E+00 0. -1.
         -1   -1    0    0    0  501 -0.00000000000E+00 -0.00000000000E+00 -0.22857460231E+03  0.22857460231E+03  0.00000000000E+00 0.  1.
         24    2    1    2    0    0 -0.20973694289E+02 -0.17160957475E+02 -0.12418856249E+03  0.15598769862E+03  0.90415533794E+02 0.  0.
        -13    1    3    3    0    0  0.25839984578E+02  0.73285669430E+01 -0.87851438071E+02  0.91865596758E+02  0.00000000000E+00 0.  1.
         14    1    3    3    0    0 -0.46813678867E+02 -0.24489524418E+02 -0.36337124423E+02  0.64122101858E+02  0.00000000000E+00 0. -1.
         -2    1    1    2    0  502  0.20973694289E+02  0.17160957475E+02 -0.86411594376E+02  0.90561349129E+02  0.00000000000E+00 0.  1.
<mgrwt>
<rscale>  1 0.94389422E+02</rscale>
<asrwt>0</asrwt>
<pdfrwt beam="1">  1       21 0.27652993E-02 0.94389422E+02</pdfrwt>
<pdfrwt beam="2">  1       -1 0.35165323E-01 0.94389422E+02</pdfrwt>
<totfact> 0.48411441E+05</totfact>
</mgrwt>
</event>
<event>
 6    2  0.8544106E+000  0.8640063E+02  0.7546771E-02  0.1311810E+00
         -3   -1    0    0    0  501 -0.00000000000E+00  0.00000000000E+00  0.35579354122E+03  0.35579354122E+03  0.00000000000E+00 0.  1.
         21   -1    0    0  501  502  0.00000000000E+00 -0.00000000000E+00 -0.10154554280E+02  0.10154554280E+02  0.00000000000E+00 0.  1.
         24    2    1    2    0    0  0.19440048163E+02  0.22513335983E+02  0.29314387154E+03  0.30561151530E+03  0.81119067376E+02 0.  0.
        -11    1    3    3    0    0  0.36262999356E+02  0.44547185010E+02  0.22046633400E+03  0.22782638399E+03  0.00000000000E+00 0.  1.
         12    1    3    3    0    0 -0.16822951193E+02 -0.22033849027E+02  0.72677537538E+02  0.77785131306E+02  0.00000000000E+00 0. -1.
         -4    1    1    2    0  502 -0.19440048163E+02 -0.22513335983E+02  0.52495115403E+02  0.60336580206E+02  0.00000000000E+00 0.  1.
<mgrwt>
<rscale>  1 0.86400630E+02</rscale>
<asrwt>0</asrwt>
<pdfrwt beam="1">  1       21 0.15622394E-02 0.86400630E+02</pdfrwt>
<pdfrwt beam="2">  1       -3 0.54737458E-01 0.86400630E+02</pdfrwt>
<totfact> 0.26899955E+05</totfact>
</mgrwt>
</event>
<event>
 6    2  0.8544106E+000  0.9270623E+02  0.7546771E-02  0.1296427E+00
          4   -1    0    0  502    0 -0.00000000000E+00  0.00000000000E+00  0.19547481673E+04  0.19547481673E+04  0.00000000000E+00 0. -1.
         21   -1    0    0  501  502  0.00000000000E+00 -0.00000000000E+00 -0.20628075596E+01  0.20628075596E+01  0.00000000000E+00 0.  1.
         24    2    1    2    0    0  0.30849344535E+02  0.99288193944E+01  0.15808750667E+04  0.15835909895E+04  0.86857249429E+02 0.  0.
        -13    1    3    3    0    0  0.17412812612E+02  0.47354576099E+02  0.69818060101E+03  0.70000129539E+03  0.00000000000E+00 0.  1.
         14    1    3    3    0    0  0.13436531924E+02 -0.37425756704E+02  0.88269446573E+03  0.88358969408E+03  0.00000000000E+00 0. -1.
          3    1    1    2  501    0 -0.30849344535E+02 -0.99288193944E+01  0.37181029296E+03  0.37321998535E+03  0.00000000000E+00 0. -1.
<mgrwt>
<rscale>  1 0.92706231E+02</rscale>
<asrwt>0</asrwt>
<pdfrwt beam="1">  1       21 0.31735657E-03 0.92706231E+02</pdfrwt>
<pdfrwt beam="2">  1        4 0.30072901E+00 0.92706231E+02</pdfrwt>
<totfact> 0.32931839E+04</totfact>
</mgrwt>
</event>
<event>
 6    2  0.8544106E+000  0.9677021E+02  0.7546771E-02  0.1287238E+00
          4   -1    0    0  502    0 -0.00000000000E+00  0.00000000000E+00  0.29120917778E+03  0.29120917778E+03  0.00000000000E+00 0. -1.
         21   -1    0    0  501  502  0.00000000000E+00 -0.00000000000E+00 -0.34203176787E+02  0.34203176787E+02  0.00000000000E+00 0.  1.
         24    2    1    2    0    0 -0.22876707469E+02 -0.47066408639E+02  0.25533120178E+03  0.27305401694E+03  0.81399526993E+02 0.  0.
        -11    1    3    3    0    0 -0.52183570515E+02 -0.39572782207E+02  0.19215793592E+03  0.20301182837E+03  0.00000000000E+00 0.  1.
         12    1    3    3    0    0  0.29306863047E+02 -0.74936264328E+01  0.63173265866E+02  0.70042188564E+02  0.00000000000E+00 0. -1.
          3    1    1    2  501    0  0.22876707469E+02  0.47066408639E+02  0.16747992080E+01  0.52358337628E+02  0.00000000000E+00 0. -1.
<mgrwt>
<rscale>  1 0.96770210E+02</rscale>
<asrwt>0</asrwt>
<pdfrwt beam="1">  1       21 0.52620274E-02 0.96770210E+02</pdfrwt>
<pdfrwt beam="2">  1        4 0.44801410E-01 0.96770210E+02</pdfrwt>
<totfact> 0.46164952E+04</totfact>
</mgrwt>
</event>
<event>
 6    2  0.8544106E+000  0.9064049E+02  0.7546771E-02  0.1301308E+00
         21   -1    0    0  501  502  0.00000000000E+00  0.00000000000E+00  0.86429900005E+02  0.86429900005E+02  0.00000000000E+00 0.  1.
         -1   -1    0    0    0  501 -0.00000000000E+00 -0.00000000000E+00 -0.60937275381E+02  0.60937275381E+02  0.00000000000E+00 0.  1.
         24    2    1    2    0    0 -0.28194884832E+02 -0.30291730438E+02 -0.12117696257E+02  0.91446904461E+02  0.80642155907E+02 0.  0.
        -11    1    3    3    0    0  0.56493775736E+01  0.18854904781E+02 -0.23546403446E+02  0.30689672799E+02  0.00000000000E+00 0.  1.
         12    1    3    3    0    0 -0.33844262405E+02 -0.49146635220E+02  0.11428707190E+02  0.60757231662E+02  0.00000000000E+00 0. -1.
         -2    1    1    2    0  502  0.28194884832E+02  0.30291730438E+02  0.37610320880E+02  0.55920270925E+02  0.00000000000E+00 0.  1.
<mgrwt>
<rscale>  1 0.90640486E+02</rscale>
<asrwt>0</asrwt>
<pdfrwt beam="1">  1       21 0.13296908E-01 0.90640486E+02</pdfrwt>
<pdfrwt beam="2">  1       -1 0.93749654E-02 0.90640486E+02</pdfrwt>
<totfact> 0.27708881E+05</totfact>
</mgrwt>
</event>
<event>
 6    2  0.8544106E+000  0.8794380E+02  0.7546771E-02  0.1307909E+00
          2   -1    0    0  502    0 -0.00000000000E+00  0.00000000000E+00  0.19583323319E+04  0.19583323319E+04  0.00000000000E+00 0. -1.
         21   -1    0    0  501  502  0.00000000000E+00 -0.00000000000E+00 -0.54089181269E+01  0.54089181269E+01  0.00000000000E+00 0. -1.
         24    2    1    2    0    0  0.28479089883E+02  0.15387301103E+02  0.18976502833E+04  0.18996870031E+04  0.81769703760E+02 0.  0.
        -13    1    3    3    0    0  0.26726946769E+02  0.69310049904E+01  0.18817464964E+03  0.19018955618E+03  0.00000000000E+00 0.  1.
         14    1    3    3    0    0  0.17521431148E+01  0.84562961123E+01  0.17094756337E+04  0.17094974469E+04  0.00000000000E+00 0. -1.
          1    1    1    2  501    0 -0.28479089883E+02 -0.15387301103E+02  0.55273130420E+02  0.64054246872E+02  0.00000000000E+00 0. -1.
<mgrwt>
<rscale>  1 0.87943801E+02</rscale>
<asrwt>0</asrwt>
<pdfrwt beam="1">  1       21 0.83214282E-03 0.87943801E+02</pdfrwt>
<pdfrwt beam="2">  1        2 0.30128133E+00 0.87943801E+02</pdfrwt>
<totfact> 0.50022771E+05</totfact>
</mgrwt>
</event>
<event>
 6    2  0.8544106E+000  0.8911850E+02  0.7546771E-02  0.1305001E+00
         21   -1    0    0  501  502  0.00000000000E+00  0.00000000000E+00  0.77884459173E+02  0.77884459173E+02  0.00000000000E+00 0.  1.
         -3   -1    0    0    0  501 -0.00000000000E+00 -0.00000000000E+00 -0.92892284484E+02  0.92892284484E+02  0.00000000000E+00 0.  1.
         24    2    1    2    0    0  0.12078088594E+02 -0.37664918650E+02 -0.62589469273E+02  0.10890155345E+03  0.79859754316E+02 0.  0.
        -11    1    3    3    0    0  0.44484033111E+02 -0.21565186264E+02 -0.50702860844E+02  0.70814310405E+02  0.00000000000E+00 0.  1.
         12    1    3    3    0    0 -0.32405944517E+02 -0.16099732386E+02 -0.11886608429E+02  0.38087243046E+02  0.00000000000E+00 0. -1.
         -4    1    1    2    0  502 -0.12078088594E+02  0.37664918650E+02  0.47581643961E+02  0.61875190206E+02  0.00000000000E+00 0.  1.
<mgrwt>
<rscale>  1 0.89118498E+02</rscale>
<asrwt>0</asrwt>
<pdfrwt beam="1">  1       21 0.11982225E-01 0.89118498E+02</pdfrwt>
<pdfrwt beam="2">  1       -3 0.14291121E-01 0.89118498E+02</pdfrwt>
<totfact> 0.10710422E+05</totfact>
</mgrwt>
</event>
<event>
 6    2  0.8544106E+000  0.9254380E+02  0.7546771E-02  0.1296806E+00
          2   -1    0    0  502    0 -0.00000000000E+00  0.00000000000E+00  0.26276440188E+03  0.26276440188E+03  0.00000000000E+00 0. -1.
         21   -1    0    0  501  502  0.00000000000E+00 -0.00000000000E+00 -0.81877544809E+02  0.81877544809E+02  0.00000000000E+00 0. -1.
         24    2    1    2    0    0 -0.21695229366E+02 -0.38771276454E+02  0.24768996794E+03  0.26441383143E+03  0.81181643126E+02 0.  0.
        -13    1    3    3    0    0 -0.28976270437E+02  0.57262212623E+01  0.29987719260E+02  0.42091295594E+02  0.00000000000E+00 0.  1.
         14    1    3    3    0    0  0.72810410712E+01 -0.44497497716E+02  0.21770224868E+03  0.22232253584E+03  0.00000000000E+00 0. -1.
          1    1    1    2  501    0  0.21695229366E+02  0.38771276454E+02 -0.66803110870E+02  0.80228115253E+02  0.00000000000E+00 0. -1.
<mgrwt>
<rscale>  1 0.92543795E+02</rscale>
<asrwt>0</asrwt>
<pdfrwt beam="1">  1       21 0.12596545E-01 0.92543795E+02</pdfrwt>
<pdfrwt beam="2">  1        2 0.40425292E-01 0.92543795E+02</pdfrwt>
<totfact> 0.82531946E+04</totfact>
</mgrwt>
</event>
<event>
 6    2  0.8544106E+000  0.8764903E+02  0.7546771E-02  0.1308647E+00
          2   -1    0    0  502    0 -0.00000000000E+00  0.00000000000E+00  0.25017952717E+02  0.25017952717E+02  0.00000000000E+00 0. -1.
         21   -1    0    0  501  502  0.00000000000E+00 -0.00000000000E+00 -0.15537365910E+03  0.15537365910E+03  0.00000000000E+00 0. -1.
         24    2    1    2    0    0  0.14946466207E+02 -0.15452805496E+02 -0.58474241308E+02  0.10536407640E+03  0.84971557881E+02 0.  0.
        -11    1    3    3    0    0 -0.32929415656E+02  0.45663555758E+01 -0.35429513853E+02  0.48584446797E+02  0.00000000000E+00 0.  1.
         12    1    3    3    0    0  0.47875881863E+02 -0.20019161071E+02 -0.23044727455E+02  0.56779629601E+02  0.00000000000E+00 0. -1.
          1    1    1    2  501    0 -0.14946466207E+02  0.15452805496E+02 -0.71881465073E+02  0.75027535417E+02  0.00000000000E+00 0. -1.
<mgrwt>
<rscale>  1 0.87649026E+02</rscale>
<asrwt>0</asrwt>
<pdfrwt beam="1">  1       21 0.23903640E-01 0.87649026E+02</pdfrwt>
<pdfrwt beam="2">  1        2 0.38489159E-02 0.87649026E+02</pdfrwt>
<totfact> 0.41344686E+05</totfact>
</mgrwt>
</event>
<event>
 6    2  0.8544106E+000  0.8512937E+02  0.7546771E-02  0.1315095E+00
          2   -1    0    0  502    0 -0.00000000000E+00  0.00000000000E+00  0.21722717753E+02  0.21722717753E+02  0.00000000000E+00 0. -1.
         21   -1    0    0  501  502  0.00000000000E+00 -0.00000000000E+00 -0.84762155938E+03  0.84762155938E+03  0.00000000000E+00 0. -1.
         24    2    1    2    0    0  0.17839171683E+02 -0.20402666303E+02 -0.62855446897E+02  0.10581973458E+03  0.80700087878E+02 0.  0.
        -13    1    3    3    0    0  0.56838618511E+01 -0.13059273543E+02 -0.81301874962E+02  0.82539964764E+02  0.00000000000E+00 0.  1.
         14    1    3    3    0    0  0.12155309832E+02 -0.73433927599E+01  0.18446428065E+02  0.23279769816E+02  0.00000000000E+00 0. -1.
          1    1    1    2  501    0 -0.17839171683E+02  0.20402666303E+02 -0.76304339473E+03  0.76352454255E+03  0.00000000000E+00 0. -1.
<mgrwt>
<rscale>  1 0.85129366E+02</rscale>
<asrwt>0</asrwt>
<pdfrwt beam="1">  1       21 0.13040334E+00 0.85129366E+02</pdfrwt>
<pdfrwt beam="2">  1        2 0.33419560E-02 0.85129366E+02</pdfrwt>
<totfact> 0.14081925E+04</totfact>
</mgrwt>
</event>
<event>
 6    2  0.8544106E+000  0.8327038E+02  0.7546771E-02  0.1320019E+00
         -1   -1    0    0    0  501 -0.00000000000E+00  0.00000000000E+00  0.54154579072E+03  0.54154579072E+03  0.00000000000E+00 0.  1.
         21   -1    0    0  501  502  0.00000000000E+00 -0.00000000000E+00 -0.80069403003E+02  0.80069403003E+02  0.00000000000E+00 0.  1.
         24    2    1    2    0    0 -0.18851813781E+02 -0.31553098441E+02  0.53392326163E+03  0.54037765041E+03  0.74719253543E+02 0.  0.
        -11    1    3    3    0    0 -0.39899882736E+02 -0.38957872781E+02  0.45352950590E+03  0.45694499583E+03  0.00000000000E+00 0.  1.
         12    1    3    3    0    0  0.21048068955E+02  0.74047743400E+01  0.80393755736E+02  0.83432654585E+02  0.00000000000E+00 0. -1.
         -2    1    1    2    0  502  0.18851813781E+02  0.31553098441E+02 -0.72446873912E+02  0.81237543314E+02  0.00000000000E+00 0.  1.
<mgrwt>
<rscale>  1 0.83270377E+02</rscale>
<asrwt>0</asrwt>
<pdfrwt beam="1">  1       21 0.12318370E-01 0.83270377E+02</pdfrwt>
<pdfrwt beam="2">  1       -1 0.83314735E-01 0.83270377E+02</pdfrwt>
<totfact> 0.79348572E+03</totfact>
</mgrwt>
</event>
<event>
 6    2  0.8544106E+000  0.9559293E+02  0.7546771E-02  0.1289846E+00
          2   -1    0    0  502    0 -0.00000000000E+00  0.00000000000E+00  0.23266259071E+03  0.23266259071E+03  0.00000000000E+00 0. -1.
         21   -1    0    0  501  502  0.00000000000E+00 -0.00000000000E+00 -0.23536478392E+02  0.23536478392E+02  0.00000000000E+00 0.  1.
         24    2    1    2    0    0 -0.48462089044E+02 -0.17858138303E+02  0.12306944879E+03  0.15583355453E+03  0.80439544462E+02 0.  0.
        -11    1    3    3    0    0 -0.61739838812E+02 -0.13866409532E+02  0.47812997845E+02  0.79310577937E+02  0.00000000000E+00 0.  1.
         12    1    3    3    0    0  0.13277749768E+02 -0.39917287704E+01  0.75256450944E+02  0.76522976590E+02  0.00000000000E+00 0. -1.
          1    1    1    2  501    0  0.48462089044E+02  0.17858138303E+02  0.86056663528E+02  0.10036551457E+03  0.00000000000E+00 0. -1.
<mgrwt>
<rscale>  1 0.95592926E+02</rscale>
<asrwt>0</asrwt>
<pdfrwt beam="1">  1       21 0.36209968E-02 0.95592926E+02</pdfrwt>
<pdfrwt beam="2">  1        2 0.35794243E-01 0.95592926E+02</pdfrwt>
<totfact> 0.77879938E+05</totfact>
</mgrwt>
</event>
<event>
 6    2  0.8544106E+000  0.8628391E+02  0.7546771E-02  0.1312109E+00
         21   -1    0    0  501  502  0.00000000000E+00  0.00000000000E+00  0.15700585603E+01  0.15700585603E+01  0.00000000000E+00 0.  1.
          2   -1    0    0  502    0 -0.00000000000E+00 -0.00000000000E+00 -0.26101242755E+04  0.26101242755E+04  0.00000000000E+00 0. -1.
         24    2    1    2    0    0  0.33307802392E+02 -0.17010940292E+01 -0.13846341111E+04  0.13873199106E+04  0.79577692970E+02 0.  0.
        -13    1    3    3    0    0  0.58821786959E+01  0.10692111219E+02 -0.30490784987E+02  0.32842186858E+02  0.00000000000E+00 0.  1.
         14    1    3    3    0    0  0.27425623696E+02 -0.12393205248E+02 -0.13541433261E+04  0.13544777237E+04  0.00000000000E+00 0. -1.
          1    1    1    2  501    0 -0.33307802392E+02  0.17010940292E+01 -0.12239201058E+04  0.12243744235E+04  0.00000000000E+00 0. -1.
<mgrwt>
<rscale>  1 0.86283907E+02</rscale>
<asrwt>0</asrwt>
<pdfrwt beam="1">  1       21 0.24155078E-03 0.86283907E+02</pdfrwt>
<pdfrwt beam="2">  1        2 0.40155208E+00 0.86283907E+02</pdfrwt>
<totfact> 0.15306128E+06</totfact>
</mgrwt>
</event>
<event>
 6    2  0.8544106E+000  0.8284057E+02  0.7546771E-02  0.1321178E+00
         21   -1    0    0  501  502  0.00000000000E+00  0.00000000000E+00  0.31351407824E+01  0.31351407824E+01  0.00000000000E+00 0. -1.
          2   -1    0    0  502    0 -0.00000000000E+00 -0.00000000000E+00 -0.91967772111E+03  0.91967772111E+03  0.00000000000E+00 0. -1.
         24    2    1    2    0    0  0.13022035410E+02 -0.17221568991E+02 -0.80082810383E+03  0.80510136749E+03  0.79977523067E+02 0.  0.
        -13    1    3    3    0    0 -0.11230451654E+02 -0.19686045680E+02 -0.64431826779E+02  0.68301711113E+02  0.00000000000E+00 0.  1.
         14    1    3    3    0    0  0.24252487064E+02  0.24644766891E+01 -0.73639627706E+03  0.73679965638E+03  0.00000000000E+00 0. -1.
          1    1    1    2  501    0 -0.13022035410E+02  0.17221568991E+02 -0.11571447650E+03  0.11771149441E+03  0.00000000000E+00 0. -1.
<mgrwt>
<rscale>  1 0.82840570E+02</rscale>
<asrwt>0</asrwt>
<pdfrwt beam="1">  1       21 0.48232884E-03 0.82840570E+02</pdfrwt>
<pdfrwt beam="2">  1        2 0.14148903E+00 0.82840570E+02</pdfrwt>
<totfact> 0.40653311E+06</totfact>
</mgrwt>
</event>
<event>
 6    2  0.8544106E+000  0.9888688E+02  0.7546771E-02  0.1282654E+00
          2   -1    0    0  502    0 -0.00000000000E+00  0.00000000000E+00  0.15799824983E+04  0.15799824983E+04  0.00000000000E+00 0. -1.
         21   -1    0    0  501  502  0.00000000000E+00 -0.00000000000E+00 -0.57671784186E+01  0.57671784186E+01  0.00000000000E+00 0. -1.
         24    2    1    2    0    0 -0.32555731418E+02 -0.45927433927E+02  0.13800393818E+04  0.13835777208E+04  0.81298273708E+02 0.  0.
        -11    1    3    3    0    0  0.30419231982E+01  0.19019424263E+02  0.13871606689E+03  0.14004691718E+03  0.00000000000E+00 0.  1.
         12    1    3    3    0    0 -0.35597654616E+02 -0.64946858190E+02  0.12413233149E+04  0.12435308036E+04  0.00000000000E+00 0. -1.
          1    1    1    2  501    0  0.32555731418E+02  0.45927433927E+02  0.19417593811E+03  0.20217195596E+03  0.00000000000E+00 0. -1.
<mgrwt>
<rscale>  1 0.98886875E+02</rscale>
<asrwt>0</asrwt>
<pdfrwt beam="1">  1       21 0.88725948E-03 0.98886875E+02</pdfrwt>
<pdfrwt beam="2">  1        2 0.24307389E+00 0.98886875E+02</pdfrwt>
<totfact> 0.70510762E+05</totfact>
</mgrwt>
</event>
<event>
 6    2  0.8544106E+000  0.8975899E+02  0.7546771E-02  0.1303436E+00
         21   -1    0    0  501  502  0.00000000000E+00  0.00000000000E+00  0.42984754521E+02  0.42984754521E+02  0.00000000000E+00 0. -1.
          2   -1    0    0  502    0 -0.00000000000E+00 -0.00000000000E+00 -0.96223632404E+02  0.96223632404E+02  0.00000000000E+00 0. -1.
         24    2    1    2    0    0  0.25324416192E+01  0.38610628832E+02 -0.40487657238E+02  0.98467896657E+02  0.80990631335E+02 0.  0.
        -11    1    3    3    0    0  0.21239081695E+00 -0.25420628117E+02 -0.81453115388E+01  0.26694560191E+02  0.00000000000E+00 0.  1.
         12    1    3    3    0    0  0.23200508023E+01  0.64031256948E+02 -0.32342345699E+02  0.71773336466E+02  0.00000000000E+00 0. -1.
          1    1    1    2  501    0 -0.25324416192E+01 -0.38610628832E+02 -0.12751220644E+02  0.40740490268E+02  0.00000000000E+00 0. -1.
<mgrwt>
<rscale>  1 0.89758990E+02</rscale>
<asrwt>0</asrwt>
<pdfrwt beam="1">  1       21 0.66130391E-02 0.89758990E+02</pdfrwt>
<pdfrwt beam="2">  1        2 0.14803636E-01 0.89758990E+02</pdfrwt>
<totfact> 0.75171601E+05</totfact>
</mgrwt>
</event>
<event>
 6    2  0.8544106E+000  0.8310187E+02  0.7546771E-02  0.1320472E+00
          2   -1    0    0  502    0 -0.00000000000E+00  0.00000000000E+00  0.77731809540E+03  0.77731809540E+03  0.00000000000E+00 0. -1.
         21   -1    0    0  501  502  0.00000000000E+00 -0.00000000000E+00 -0.62087312233E+01  0.62087312233E+01  0.00000000000E+00 0.  1.
         24    2    1    2    0    0  0.79901428100E+01 -0.22769754746E+02  0.73741482984E+03  0.74208257783E+03  0.79521172955E+02 0.  0.
        -11    1    3    3    0    0  0.42751609269E+02 -0.19507855295E+02  0.48357112677E+03  0.48584904153E+03  0.00000000000E+00 0.  1.
         12    1    3    3    0    0 -0.34761466459E+02 -0.32618994509E+01  0.25384370307E+03  0.25623353630E+03  0.00000000000E+00 0. -1.
          1    1    1    2  501    0 -0.79901428100E+01  0.22769754746E+02  0.33694534340E+02  0.41444248789E+02  0.00000000000E+00 0. -1.
<mgrwt>
<rscale>  1 0.83101872E+02</rscale>
<asrwt>0</asrwt>
<pdfrwt beam="1">  1       21 0.95519003E-03 0.83101872E+02</pdfrwt>
<pdfrwt beam="2">  1        2 0.11958732E+00 0.83101872E+02</pdfrwt>
<totfact> 0.17477031E+06</totfact>
</mgrwt>
</event>
<event>
 6    2  0.8544106E+000  0.8348188E+02  0.7546771E-02  0.1319451E+00
         21   -1    0    0  501  502  0.00000000000E+00  0.00000000000E+00  0.47494872250E+03  0.47494872250E+03  0.00000000000E+00 0. -1.
         -1   -1    0    0    0  501 -0.00000000000E+00 -0.00000000000E+00 -0.64771208698E+01  0.64771208698E+01  0.00000000000E+00 0.  1.
         24    2    1    2    0    0  0.63903475623E+01  0.19545872330E+02  0.42759441706E+03  0.43566754483E+03  0.80909495411E+02 0.  0.
        -11    1    3    3    0    0  0.35285367567E+02 -0.24044336190E+01  0.10000826536E+03  0.10607776207E+03  0.00000000000E+00 0.  1.
         12    1    3    3    0    0 -0.28895020005E+02  0.21950305949E+02  0.32758615170E+03  0.32958978276E+03  0.00000000000E+00 0. -1.
         -2    1    1    2    0  502 -0.63903475623E+01 -0.19545872330E+02  0.40877184567E+02  0.45758298539E+02  0.00000000000E+00 0.  1.
<mgrwt>
<rscale>  1 0.83481879E+02</rscale>
<asrwt>0</asrwt>
<pdfrwt beam="1">  1       21 0.73069007E-01 0.83481879E+02</pdfrwt>
<pdfrwt beam="2">  1       -1 0.99648050E-03 0.83481879E+02</pdfrwt>
<totfact> 0.26009111E+05</totfact>
</mgrwt>
</event>
<event>
 6    2  0.8544106E+000  0.1077989E+03  0.7546771E-02  0.1264701E+00
         21   -1    0    0  501  502  0.00000000000E+00  0.00000000000E+00  0.22873356351E+03  0.22873356351E+03  0.00000000000E+00 0.  1.
         -1   -1    0    0    0  501 -0.00000000000E+00 -0.00000000000E+00 -0.93577064480E+02  0.93577064480E+02  0.00000000000E+00 0.  1.
         24    2    1    2    0    0 -0.67046963337E+02 -0.14852312496E+01 -0.54753564403E+02  0.12090721839E+03  0.84398468230E+02 0.  0.
        -13    1    3    3    0    0 -0.77948245288E+02  0.15180278190E+02 -0.21710039753E+02  0.82326761235E+02  0.00000000000E+00 0.  1.
         14    1    3    3    0    0  0.10901281951E+02 -0.16665509439E+02 -0.33043524650E+02  0.38580457156E+02  0.00000000000E+00 0. -1.
         -2    1    1    2    0  502  0.67046963337E+02  0.14852312496E+01  0.18991006344E+03  0.20140340960E+03  0.00000000000E+00 0.  1.
<mgrwt>
<rscale>  1 0.10779890E+03</rscale>
<asrwt>0</asrwt>
<pdfrwt beam="1">  1       21 0.35189779E-01 0.10779890E+03</pdfrwt>
<pdfrwt beam="2">  1       -1 0.14396472E-01 0.10779890E+03</pdfrwt>
<totfact> 0.23919601E+04</totfact>
</mgrwt>
</event>
<event>
 6    2  0.8544106E+000  0.8972518E+02  0.7546771E-02  0.1303519E+00
          2   -1    0    0  502    0 -0.00000000000E+00  0.00000000000E+00  0.24188933063E+03  0.24188933063E+03  0.00000000000E+00 0. -1.
         21   -1    0    0  501  502  0.00000000000E+00 -0.00000000000E+00 -0.37539779034E+02  0.37539779034E+02  0.00000000000E+00 0. -1.
         24    2    1    2    0    0 -0.19884113317E+02 -0.33040749255E+02  0.22016748960E+03  0.23774846383E+03  0.81015674428E+02 0.  0.
        -13    1    3    3    0    0 -0.37946025901E+02 -0.15092501998E+02  0.45110733365E+02  0.60849509143E+02  0.00000000000E+00 0.  1.
         14    1    3    3    0    0  0.18061912583E+02 -0.17948247257E+02  0.17505675624E+03  0.17689895469E+03  0.00000000000E+00 0. -1.
          1    1    1    2  501    0  0.19884113317E+02  0.33040749255E+02 -0.15817938010E+02  0.41680645828E+02  0.00000000000E+00 0. -1.
<mgrwt>
<rscale>  1 0.89725184E+02</rscale>
<asrwt>0</asrwt>
<pdfrwt beam="1">  1       21 0.57753508E-02 0.89725184E+02</pdfrwt>
<pdfrwt beam="2">  1        2 0.37213742E-01 0.89725184E+02</pdfrwt>
<totfact> 0.34279427E+05</totfact>
</mgrwt>
</event>
<event>
 6    2  0.8544106E+000  0.9582403E+02  0.7546771E-02  0.1289331E+00
          2   -1    0    0  502    0 -0.00000000000E+00  0.00000000000E+00  0.12889532853E+04  0.12889532853E+04  0.00000000000E+00 0. -1.
         21   -1    0    0  501  502  0.00000000000E+00 -0.00000000000E+00 -0.61294279627E+01  0.61294279627E+01  0.00000000000E+00 0.  1.
         24    2    1    2    0    0 -0.41437926248E+02 -0.31599910845E+02  0.11207053654E+04  0.11247945413E+04  0.80415097475E+02 0.  0.
        -13    1    3    3    0    0 -0.18042481782E+02  0.62841011444E+01  0.56207089516E+02  0.59365461237E+02  0.00000000000E+00 0.  1.
         14    1    3    3    0    0 -0.23395444467E+02 -0.37884011990E+02  0.10644982759E+04  0.10654290800E+04  0.00000000000E+00 0. -1.
          1    1    1    2  501    0  0.41437926248E+02  0.31599910845E+02  0.16211849189E+03  0.17028817196E+03  0.00000000000E+00 0. -1.
<mgrwt>
<rscale>  1 0.95824026E+02</rscale>
<asrwt>0</asrwt>
<pdfrwt beam="1">  1       21 0.94298994E-03 0.95824026E+02</pdfrwt>
<pdfrwt beam="2">  1        2 0.19830029E+00 0.95824026E+02</pdfrwt>
<totfact> 0.90579267E+05</totfact>
</mgrwt>
</event>
<event>
 6    2  0.8544106E+000  0.9909185E+02  0.7546771E-02  0.1282217E+00
         21   -1    0    0  501  502  0.00000000000E+00  0.00000000000E+00  0.40261159698E+01  0.40261159698E+01  0.00000000000E+00 0. -1.
          2   -1    0    0  502    0 -0.00000000000E+00 -0.00000000000E+00 -0.15101131515E+04  0.15101131515E+04  0.00000000000E+00 0. -1.
         24    2    1    2    0    0 -0.55390252855E+02  0.12198909967E+01 -0.86310732580E+03  0.86877698521E+03  0.82156107055E+02 0.  0.
        -13    1    3    3    0    0  0.11341545904E+02 -0.22880465280E+02 -0.15104021092E+03  0.15318384924E+03  0.00000000000E+00 0.  1.
         14    1    3    3    0    0 -0.66731798759E+02  0.24100356277E+02 -0.71206711489E+03  0.71559313596E+03  0.00000000000E+00 0. -1.
          1    1    1    2  501    0  0.55390252855E+02 -0.12198909967E+01 -0.64297970969E+03  0.64536228223E+03  0.00000000000E+00 0. -1.
<mgrwt>
<rscale>  1 0.99091847E+02</rscale>
<asrwt>0</asrwt>
<pdfrwt beam="1">  1       21 0.61940187E-03 0.99091847E+02</pdfrwt>
<pdfrwt beam="2">  1        2 0.23232532E+00 0.99091847E+02</pdfrwt>
<totfact> 0.13374704E+06</totfact>
</mgrwt>
</event>
<event>
 6    2  0.8544106E+000  0.2168200E+03  0.7546771E-02  0.1136276E+00
          2   -1    0    0  502    0 -0.00000000000E+00  0.00000000000E+00  0.16033693249E+03  0.16033693249E+03  0.00000000000E+00 0. -1.
         21   -1    0    0  501  502  0.00000000000E+00 -0.00000000000E+00 -0.31203188224E+03  0.31203188224E+03  0.00000000000E+00 0. -1.
         24    2    1    2    0    0 -0.89596538090E+02  0.18129101461E+03  0.44706613168E+01  0.21686603648E+03  0.78210736807E+02 0.  0.
        -11    1    3    3    0    0 -0.72465306538E+02  0.59563988616E+02 -0.11585917833E+01  0.93810616277E+02  0.00000000000E+00 0.  1.
         12    1    3    3    0    0 -0.17131231552E+02  0.12172702599E+03  0.56292531001E+01  0.12305542021E+03  0.00000000000E+00 0. -1.
          1    1    1    2  501    0  0.89596538090E+02 -0.18129101461E+03 -0.15616561106E+03  0.25550277825E+03  0.00000000000E+00 0. -1.
<mgrwt>
<rscale>  1 0.21681995E+03</rscale>
<asrwt>0</asrwt>
<pdfrwt beam="1">  1       21 0.48004904E-01 0.21681995E+03</pdfrwt>
<pdfrwt beam="2">  1        2 0.24667221E-01 0.21681995E+03</pdfrwt>
<totfact> 0.11064260E+04</totfact>
</mgrwt>
</event>
<event>
 6    2  0.8544106E+000  0.8362537E+02  0.7546771E-02  0.1319067E+00
          2   -1    0    0  502    0 -0.00000000000E+00  0.00000000000E+00  0.35300729924E+02  0.35300729924E+02  0.00000000000E+00 0. -1.
         21   -1    0    0  501  502  0.00000000000E+00 -0.00000000000E+00 -0.99542694697E+02  0.99542694697E+02  0.00000000000E+00 0. -1.
         24    2    1    2    0    0  0.25096221729E+02  0.41552276805E+01 -0.23590680387E+02  0.86889142389E+02  0.79662516919E+02 0.  0.
        -11    1    3    3    0    0 -0.28032219918E+02 -0.65654888051E+01 -0.13330770094E+02  0.31727282078E+02  0.00000000000E+00 0.  1.
         12    1    3    3    0    0  0.53128441647E+02  0.10720716486E+02 -0.10259910293E+02  0.55161860311E+02  0.00000000000E+00 0. -1.
          1    1    1    2  501    0 -0.25096221729E+02 -0.41552276805E+01 -0.40651284385E+02  0.47954282231E+02  0.00000000000E+00 0. -1.
<mgrwt>
<rscale>  1 0.83625372E+02</rscale>
<asrwt>0</asrwt>
<pdfrwt beam="1">  1       21 0.15314260E-01 0.83625372E+02</pdfrwt>
<pdfrwt beam="2">  1        2 0.54308816E-02 0.83625372E+02</pdfrwt>
<totfact> 0.59278651E+05</totfact>
</mgrwt>
</event>
<event>
 6    2  0.8544106E+000  0.1055515E+03  0.7546771E-02  0.1269037E+00
          2   -1    0    0  502    0 -0.00000000000E+00  0.00000000000E+00  0.14350261387E+04  0.14350261387E+04  0.00000000000E+00 0. -1.
         21   -1    0    0  501  502  0.00000000000E+00 -0.00000000000E+00 -0.52487640729E+01  0.52487640729E+01  0.00000000000E+00 0. -1.
         24    2    1    2    0    0  0.55546261532E+02  0.38323765615E+02  0.92656239318E+03  0.93255508266E+03  0.81160431011E+02 0.  0.
        -11    1    3    3    0    0  0.70644286337E+02  0.40269371836E+02  0.58160509353E+03  0.58726205591E+03  0.00000000000E+00 0.  1.
         12    1    3    3    0    0 -0.15098024805E+02 -0.19456062211E+01  0.34495729965E+03  0.34529302675E+03  0.00000000000E+00 0. -1.
          1    1    1    2  501    0 -0.55546261532E+02 -0.38323765615E+02  0.50321498148E+03  0.50771982015E+03  0.00000000000E+00 0. -1.
<mgrwt>
<rscale>  1 0.10555147E+03</rscale>
<asrwt>0</asrwt>
<pdfrwt beam="1">  1       21 0.80750331E-03 0.10555147E+03</pdfrwt>
<pdfrwt beam="2">  1        2 0.22077294E+00 0.10555147E+03</pdfrwt>
<totfact> 0.97278732E+05</totfact>
</mgrwt>
</event>
<event>
 6    2  0.8544106E+000  0.9402654E+02  0.7546771E-02  0.1293384E+00
          2   -1    0    0  502    0 -0.00000000000E+00  0.00000000000E+00  0.65572620268E+03  0.65572620268E+03  0.00000000000E+00 0. -1.
         21   -1    0    0  501  502  0.00000000000E+00 -0.00000000000E+00 -0.78913888960E+01  0.78913888960E+01  0.00000000000E+00 0.  1.
         24    2    1    2    0    0 -0.47231777265E+02  0.14178784017E+02  0.39720531539E+03  0.40818262106E+03  0.80056922609E+02 0.  0.
        -13    1    3    3    0    0 -0.21205622459E+02  0.46770719485E+02  0.24777118307E+03  0.25303702848E+03  0.00000000000E+00 0.  1.
         14    1    3    3    0    0 -0.26026154805E+02 -0.32591935468E+02  0.14943413232E+03  0.15514559257E+03  0.00000000000E+00 0. -1.
          1    1    1    2  501    0  0.47231777265E+02 -0.14178784017E+02  0.25062949840E+03  0.25543497052E+03  0.00000000000E+00 0. -1.
<mgrwt>
<rscale>  1 0.94026536E+02</rscale>
<asrwt>0</asrwt>
<pdfrwt beam="1">  1       21 0.12140603E-02 0.94026536E+02</pdfrwt>
<pdfrwt beam="2">  1        2 0.10088091E+00 0.94026536E+02</pdfrwt>
<totfact> 0.14841521E+06</totfact>
</mgrwt>
</event>
<event>
 6    2  0.8544106E+000  0.9920337E+02  0.7546771E-02  0.1281980E+00
         21   -1    0    0  501  502  0.00000000000E+00  0.00000000000E+00  0.18870086492E+02  0.18870086492E+02  0.00000000000E+00 0. -1.
         -1   -1    0    0    0  501 -0.00000000000E+00 -0.00000000000E+00 -0.39643129461E+03  0.39643129461E+03  0.00000000000E+00 0.  1.
         24    2    1    2    0    0  0.55522439626E+02  0.13657553725E+02 -0.14413831775E+03  0.17497760820E+03  0.81068111183E+02 0.  0.
        -11    1    3    3    0    0  0.37217540052E+02 -0.27324928539E+02 -0.38207946707E+02  0.59930327871E+02  0.00000000000E+00 0.  1.
         12    1    3    3    0    0  0.18304899574E+02  0.40982482264E+02 -0.10593037105E+03  0.11504728033E+03  0.00000000000E+00 0. -1.
         -2    1    1    2    0  502 -0.55522439626E+02 -0.13657553725E+02 -0.23342289036E+03  0.24032377290E+03  0.00000000000E+00 0.  1.
<mgrwt>
<rscale>  1 0.99203371E+02</rscale>
<asrwt>0</asrwt>
<pdfrwt beam="1">  1       21 0.29030902E-02 0.99203371E+02</pdfrwt>
<pdfrwt beam="2">  1       -1 0.60989431E-01 0.99203371E+02</pdfrwt>
<totfact> 0.16793185E+05</totfact>
</mgrwt>
</event>
<event>
 6    2  0.8544106E+000  0.1320318E+03  0.7546771E-02  0.1224472E+00
         21   -1    0    0  501  502  0.00000000000E+00  0.00000000000E+00  0.30080559214E+02  0.30080559214E+02  0.00000000000E+00 0. -1.
          2   -1    0    0  502    0 -0.00000000000E+00 -0.00000000000E+00 -0.63990403833E+03  0.63990403833E+03  0.00000000000E+00 0. -1.
         24    2    1    2    0    0 -0.67011369077E+02  0.81647335585E+02 -0.50189127706E+03  0.51896747522E+03  0.79218529126E+02 0.  0.
        -11    1    3    3    0    0  0.86613852384E+01  0.40989640718E+02 -0.10852832130E+03  0.11633385906E+03  0.00000000000E+00 0.  1.
         12    1    3    3    0    0 -0.75672754315E+02  0.40657694868E+02 -0.39336295576E+03  0.40263361616E+03  0.00000000000E+00 0. -1.
          1    1    1    2  501    0  0.67011369077E+02 -0.81647335585E+02 -0.10793220206E+03  0.15101712232E+03  0.00000000000E+00 0. -1.
<mgrwt>
<rscale>  1 0.13203176E+03</rscale>
<asrwt>0</asrwt>
<pdfrwt beam="1">  1       21 0.46277790E-02 0.13203176E+03</pdfrwt>
<pdfrwt beam="2">  1        2 0.98446761E-01 0.13203176E+03</pdfrwt>
<totfact> 0.17858707E+05</totfact>
</mgrwt>
</event>
<event>
 6    2  0.8544106E+000  0.9138281E+02  0.7546771E-02  0.1299537E+00
         21   -1    0    0  501  502  0.00000000000E+00  0.00000000000E+00  0.31016175526E+01  0.31016175526E+01  0.00000000000E+00 0.  1.
          2   -1    0    0  502    0 -0.00000000000E+00 -0.00000000000E+00 -0.16042147383E+04  0.16042147383E+04  0.00000000000E+00 0. -1.
         24    2    1    2    0    0 -0.11466130261E+01  0.42222772661E+02 -0.82304161514E+03  0.82809921982E+03  0.81035426557E+02 0.  0.
        -13    1    3    3    0    0 -0.30362863598E+01  0.60387363644E+02 -0.76171856128E+03  0.76411453285E+03  0.00000000000E+00 0.  1.
         14    1    3    3    0    0  0.18896733337E+01 -0.18164590983E+02 -0.61323053863E+02  0.63984686965E+02  0.00000000000E+00 0. -1.
          1    1    1    2  501    0  0.11466130261E+01 -0.42222772661E+02 -0.77807150559E+03  0.77921713601E+03  0.00000000000E+00 0. -1.
<mgrwt>
<rscale>  1 0.91382808E+02</rscale>
<asrwt>0</asrwt>
<pdfrwt beam="1">  1       21 0.47717148E-03 0.91382808E+02</pdfrwt>
<pdfrwt beam="2">  1        2 0.24680250E+00 0.91382808E+02</pdfrwt>
<totfact> 0.17790867E+06</totfact>
</mgrwt>
</event>
<event>
 6    2  0.8544106E+000  0.8646974E+02  0.7546771E-02  0.1311633E+00
          2   -1    0    0  502    0 -0.00000000000E+00  0.00000000000E+00  0.96413562121E+02  0.96413562121E+02  0.00000000000E+00 0. -1.
         21   -1    0    0  501  502  0.00000000000E+00 -0.00000000000E+00 -0.18189964832E+03  0.18189964832E+03  0.00000000000E+00 0. -1.
         24    2    1    2    0    0 -0.17093429688E+02  0.20085307505E+02  0.75736272757E+02  0.11494781036E+03  0.82349324098E+02 0.  0.
        -13    1    3    3    0    0  0.22918123778E+02  0.25412856111E+02  0.65415627937E+01  0.34840288417E+02  0.00000000000E+00 0.  1.
         14    1    3    3    0    0 -0.40011553466E+02 -0.53275486060E+01  0.69194709963E+02  0.80107521943E+02  0.00000000000E+00 0. -1.
          1    1    1    2  501    0  0.17093429688E+02 -0.20085307505E+02 -0.16122235896E+03  0.16336540008E+03  0.00000000000E+00 0. -1.
<mgrwt>
<rscale>  1 0.86469741E+02</rscale>
<asrwt>0</asrwt>
<pdfrwt beam="1">  1       21 0.27984561E-01 0.86469741E+02</pdfrwt>
<pdfrwt beam="2">  1        2 0.14832856E-01 0.86469741E+02</pdfrwt>
<totfact> 0.57632266E+04</totfact>
</mgrwt>
</event>
<event>
 6    2  0.8544106E+000  0.8063182E+02  0.7546771E-02  0.1327268E+00
          2   -1    0    0  502    0 -0.00000000000E+00  0.00000000000E+00  0.34529661515E+03  0.34529661515E+03  0.00000000000E+00 0. -1.
         21   -1    0    0  501  502  0.00000000000E+00 -0.00000000000E+00 -0.76418121746E+01  0.76418121746E+01  0.00000000000E+00 0.  1.
         24    2    1    2    0    0 -0.63967679109E+01 -0.20817801206E+02  0.27675109637E+03  0.28825797459E+03  0.77634986251E+02 0.  0.
        -11    1    3    3    0    0 -0.57886538894E+01 -0.35712411388E+02  0.53943065004E+02  0.64951821399E+02  0.00000000000E+00 0.  1.
         12    1    3    3    0    0 -0.60811402150E+00  0.14894610183E+02  0.22280803136E+03  0.22330615319E+03  0.00000000000E+00 0. -1.
          1    1    1    2  501    0  0.63967679109E+01  0.20817801206E+02  0.60903706612E+02  0.64680452733E+02  0.00000000000E+00 0. -1.
<mgrwt>
<rscale>  1 0.80631821E+02</rscale>
<asrwt>0</asrwt>
<pdfrwt beam="1">  1       21 0.11756637E-02 0.80631821E+02</pdfrwt>
<pdfrwt beam="2">  1        2 0.53122544E-01 0.80631821E+02</pdfrwt>
<totfact> 0.30615256E+06</totfact>
</mgrwt>
</event>
<event>
 6    2  0.8544106E+000  0.7740916E+02  0.7546771E-02  0.1336569E+00
         21   -1    0    0  501  502  0.00000000000E+00  0.00000000000E+00  0.11687868777E+02  0.11687868777E+02  0.00000000000E+00 0. -1.
          2   -1    0    0  502    0 -0.00000000000E+00 -0.00000000000E+00 -0.34267136444E+03  0.34267136444E+03  0.00000000000E+00 0. -1.
         24    2    1    2    0    0 -0.88769915694E+01 -0.18537750412E+02 -0.32326524354E+03  0.33240426600E+03  0.74630618410E+02 0.  0.
        -13    1    3    3    0    0  0.66355914073E+01 -0.24474455278E+01  0.11970035185E+01  0.71731360199E+01  0.00000000000E+00 0.  1.
         14    1    3    3    0    0 -0.15512582977E+02 -0.16090304885E+02 -0.32446224706E+03  0.32523112998E+03  0.00000000000E+00 0. -1.
          1    1    1    2  501    0  0.88769915694E+01  0.18537750412E+02 -0.77182521237E+01  0.21954967217E+02  0.00000000000E+00 0. -1.
<mgrwt>
<rscale>  1 0.77409162E+02</rscale>
<asrwt>0</asrwt>
<pdfrwt beam="1">  1       21 0.17981338E-02 0.77409162E+02</pdfrwt>
<pdfrwt beam="2">  1        2 0.52718666E-01 0.77409162E+02</pdfrwt>
<totfact> 0.15711253E+06</totfact>
</mgrwt>
</event>
<event>
 6    2  0.8544106E+000  0.9737778E+02  0.7546771E-02  0.1285909E+00
         21   -1    0    0  501  502  0.00000000000E+00  0.00000000000E+00  0.72858922661E+01  0.72858922661E+01  0.00000000000E+00 0.  1.
         -1   -1    0    0    0  501 -0.00000000000E+00 -0.00000000000E+00 -0.83562018544E+03  0.83562018544E+03  0.00000000000E+00 0.  1.
         24    2    1    2    0    0  0.26221289235E+02  0.37846134983E+02 -0.38250374773E+03  0.39470438071E+03  0.85805274775E+02 0.  0.
        -13    1    3    3    0    0  0.31111226600E+02  0.60896970889E+02 -0.33206011650E+03  0.33902842131E+03  0.00000000000E+00 0.  1.
         14    1    3    3    0    0 -0.48899373647E+01 -0.23050835906E+02 -0.50443631227E+02  0.55675959397E+02  0.00000000000E+00 0. -1.
         -2    1    1    2    0  502 -0.26221289235E+02 -0.37846134983E+02 -0.44583054544E+03  0.44820169700E+03  0.00000000000E+00 0.  1.
<mgrwt>
<rscale>  1 0.97377775E+02</rscale>
<asrwt>0</asrwt>
<pdfrwt beam="1">  1       21 0.11209069E-02 0.97377775E+02</pdfrwt>
<pdfrwt beam="2">  1       -1 0.12855691E+00 0.97377775E+02</pdfrwt>
<totfact> 0.15897744E+05</totfact>
</mgrwt>
</event>
<event>
 6    2  0.8544106E+000  0.8377963E+02  0.7546771E-02  0.1318655E+00
          2   -1    0    0  502    0 -0.00000000000E+00  0.00000000000E+00  0.20642047053E+04  0.20642047053E+04  0.00000000000E+00 0. -1.
         21   -1    0    0  501  502  0.00000000000E+00 -0.00000000000E+00 -0.15181761415E+01  0.15181761415E+01  0.00000000000E+00 0. -1.
         24    2    1    2    0    0 -0.27625891998E+02  0.54364173768E+01  0.15243565782E+04  0.15266571334E+04  0.78906787509E+02 0.  0.
        -11    1    3    3    0    0  0.21076519213E+02 -0.18316472472E+02  0.38400178070E+03  0.38501568852E+03  0.00000000000E+00 0.  1.
         12    1    3    3    0    0 -0.48702411212E+02  0.23752889849E+02  0.11403547975E+04  0.11416414449E+04  0.00000000000E+00 0. -1.
          1    1    1    2  501    0  0.27625891998E+02 -0.54364173768E+01  0.53832995093E+03  0.53906574795E+03  0.00000000000E+00 0. -1.
<mgrwt>
<rscale>  1 0.83779626E+02</rscale>
<asrwt>0</asrwt>
<pdfrwt beam="1">  1       21 0.23356721E-03 0.83779626E+02</pdfrwt>
<pdfrwt beam="2">  1        2 0.31756771E+00 0.83779626E+02</pdfrwt>
<totfact> 0.30690465E+06</totfact>
</mgrwt>
</event>
<event>
 6    2  0.8544106E+000  0.1007205E+03  0.7546771E-02  0.1278788E+00
         21   -1    0    0  501  502  0.00000000000E+00  0.00000000000E+00  0.18762737084E+03  0.18762737084E+03  0.00000000000E+00 0. -1.
          2   -1    0    0  502    0 -0.00000000000E+00 -0.00000000000E+00 -0.44432379340E+03  0.44432379340E+03  0.00000000000E+00 0. -1.
         24    2    1    2    0    0 -0.46119436426E+02 -0.33383455161E+02 -0.43410213561E+03  0.44563357378E+03  0.83085260073E+02 0.  0.
        -11    1    3    3    0    0 -0.19259292129E+02  0.15769169793E+02 -0.36957112797E+02  0.44557998559E+02  0.00000000000E+00 0.  1.
         12    1    3    3    0    0 -0.26860144297E+02 -0.49152624955E+02 -0.39714502281E+03  0.40107557522E+03  0.00000000000E+00 0. -1.
          1    1    1    2  501    0  0.46119436426E+02  0.33383455161E+02  0.17740571304E+03  0.18631759046E+03  0.00000000000E+00 0. -1.
<mgrwt>
<rscale>  1 0.10072049E+03</rscale>
<asrwt>0</asrwt>
<pdfrwt beam="1">  1       21 0.28865750E-01 0.10072049E+03</pdfrwt>
<pdfrwt beam="2">  1        2 0.68357506E-01 0.10072049E+03</pdfrwt>
<totfact> 0.10429383E+04</totfact>
</mgrwt>
</event>
<event>
 6    2  0.8544106E+000  0.9338400E+02  0.7546771E-02  0.1294858E+00
          2   -1    0    0  502    0 -0.00000000000E+00  0.00000000000E+00  0.21495121871E+04  0.21495121871E+04  0.00000000000E+00 0. -1.
         21   -1    0    0  501  502  0.00000000000E+00 -0.00000000000E+00 -0.21666185610E+01  0.21666185610E+01  0.00000000000E+00 0.  1.
         24    2    1    2    0    0  0.14646096682E+02  0.33989899272E+02  0.12078852652E+04  0.12114897380E+04  0.85736514917E+02 0.  0.
        -11    1    3    3    0    0 -0.93467384940E+01  0.47754809631E+02  0.37483559975E+03  0.37798096540E+03  0.00000000000E+00 0.  1.
         12    1    3    3    0    0  0.23992835176E+02 -0.13764910360E+02  0.83304966542E+03  0.83350877258E+03  0.00000000000E+00 0. -1.
          1    1    1    2  501    0 -0.14646096682E+02 -0.33989899272E+02  0.93946030336E+03  0.94018906768E+03  0.00000000000E+00 0. -1.
<mgrwt>
<rscale>  1 0.93384000E+02</rscale>
<asrwt>0</asrwt>
<pdfrwt beam="1">  1       21 0.33332765E-03 0.93384000E+02</pdfrwt>
<pdfrwt beam="2">  1        2 0.33069248E+00 0.93384000E+02</pdfrwt>
<totfact> 0.16361679E+06</totfact>
</mgrwt>
</event>
<event>
 6    2  0.8544106E+000  0.8321550E+02  0.7546771E-02  0.1320166E+00
          2   -1    0    0  502    0 -0.00000000000E+00  0.00000000000E+00  0.13200438093E+03  0.13200438093E+03  0.00000000000E+00 0. -1.
         21   -1    0    0  501  502  0.00000000000E+00 -0.00000000000E+00 -0.34104943535E+02  0.34104943535E+02  0.00000000000E+00 0.  1.
         24    2    1    2    0    0  0.16374737725E+01  0.24245891456E+02  0.21514116668E+02  0.85951593736E+02  0.79588156637E+02 0.  0.
        -13    1    3    3    0    0 -0.37430731806E+01  0.50475083036E+02 -0.15130386876E+01  0.50636290251E+02  0.00000000000E+00 0.  1.
         14    1    3    3    0    0  0.53805469531E+01 -0.26229191580E+02  0.23027155356E+02  0.35315303485E+02  0.00000000000E+00 0. -1.
          1    1    1    2  501    0 -0.16374737725E+01 -0.24245891456E+02  0.76385320728E+02  0.80157730729E+02  0.00000000000E+00 0. -1.
<mgrwt>
<rscale>  1 0.83215499E+02</rscale>
<asrwt>0</asrwt>
<pdfrwt beam="1">  1       21 0.52469145E-02 0.83215499E+02</pdfrwt>
<pdfrwt beam="2">  1        2 0.20308366E-01 0.83215499E+02</pdfrwt>
<totfact> 0.76782405E+05</totfact>
</mgrwt>
</event>
<event>
 6    2  0.8544106E+000  0.8732162E+02  0.7546771E-02  0.1309471E+00
         21   -1    0    0  501  502  0.00000000000E+00  0.00000000000E+00  0.74915976134E+01  0.74915976134E+01  0.00000000000E+00 0. -1.
          4   -1    0    0  502    0 -0.00000000000E+00 -0.00000000000E+00 -0.61189320376E+03  0.61189320376E+03  0.00000000000E+00 0. -1.
         24    2    1    2    0    0  0.25426332298E+02 -0.65914026138E+01 -0.56697937657E+03  0.57366425644E+03  0.83277372062E+02 0.  0.
        -13    1    3    3    0    0 -0.28001696222E+01  0.24950785366E+02 -0.61668734113E+02  0.66583897509E+02  0.00000000000E+00 0.  1.
         14    1    3    3    0    0  0.28226501921E+02 -0.31542187980E+02 -0.50531064246E+03  0.50708035893E+03  0.00000000000E+00 0. -1.
          3    1    1    2  501    0 -0.25426332298E+02  0.65914026138E+01 -0.37422229574E+02  0.45720544932E+02  0.00000000000E+00 0. -1.
<mgrwt>
<rscale>  1 0.87321622E+02</rscale>
<asrwt>0</asrwt>
<pdfrwt beam="1">  1       21 0.11525534E-02 0.87321622E+02</pdfrwt>
<pdfrwt beam="2">  1        4 0.94137420E-01 0.87321622E+02</pdfrwt>
<totfact> 0.10984195E+05</totfact>
</mgrwt>
</event>
<event>
 6    2  0.8544106E+000  0.9167837E+02  0.7546771E-02  0.1298837E+00
         -1   -1    0    0    0  501 -0.00000000000E+00  0.00000000000E+00  0.58979612855E+02  0.58979612855E+02  0.00000000000E+00 0.  1.
         21   -1    0    0  501  502  0.00000000000E+00 -0.00000000000E+00 -0.10901732148E+03  0.10901732148E+03  0.00000000000E+00 0. -1.
         24    2    1    2    0    0 -0.15977791694E+02 -0.43278538045E+02  0.10065665292E+02  0.92229281351E+02  0.79225002607E+02 0.  0.
        -11    1    3    3    0    0 -0.59762434632E+01 -0.47494881219E+02  0.38732363441E+02  0.61576580010E+02  0.00000000000E+00 0.  1.
         12    1    3    3    0    0 -0.10001548231E+02  0.42163431745E+01 -0.28666698149E+02  0.30652701342E+02  0.00000000000E+00 0. -1.
         -2    1    1    2    0  502  0.15977791694E+02  0.43278538045E+02 -0.60103373921E+02  0.75767652989E+02  0.00000000000E+00 0.  1.
<mgrwt>
<rscale>  1 0.91678366E+02</rscale>
<asrwt>0</asrwt>
<pdfrwt beam="1">  1       21 0.16771896E-01 0.91678366E+02</pdfrwt>
<pdfrwt beam="2">  1       -1 0.90737866E-02 0.91678366E+02</pdfrwt>
<totfact> 0.19246011E+05</totfact>
</mgrwt>
</event>
<event>
 6    2  0.8544106E+000  0.8816243E+02  0.7546771E-02  0.1307364E+00
          2   -1    0    0  502    0 -0.00000000000E+00  0.00000000000E+00  0.12438904536E+03  0.12438904536E+03  0.00000000000E+00 0. -1.
         21   -1    0    0  501  502  0.00000000000E+00 -0.00000000000E+00 -0.39616776185E+02  0.39616776185E+02  0.00000000000E+00 0. -1.
         24    2    1    2    0    0 -0.49071289893E+02  0.13838853620E+02  0.64038968004E+02  0.10896606193E+03  0.71924320415E+02 0.  0.
        -11    1    3    3    0    0 -0.40410732542E+01  0.20676744219E+02 -0.89836894091E+01  0.22903377479E+02  0.00000000000E+00 0.  1.
         12    1    3    3    0    0 -0.45030216639E+02 -0.68378905985E+01  0.73022657414E+02  0.86062684446E+02  0.00000000000E+00 0. -1.
          1    1    1    2  501    0  0.49071289893E+02 -0.13838853620E+02  0.20733301166E+02  0.55039759616E+02  0.00000000000E+00 0. -1.
<mgrwt>
<rscale>  1 0.88162425E+02</rscale>
<asrwt>0</asrwt>
<pdfrwt beam="1">  1       21 0.60948887E-02 0.88162425E+02</pdfrwt>
<pdfrwt beam="2">  1        2 0.19136776E-01 0.88162425E+02</pdfrwt>
<totfact> 0.64248922E+05</totfact>
</mgrwt>
</event>
<event>
 6    2  0.8544106E+000  0.9584700E+02  0.7546771E-02  0.1289280E+00
          2   -1    0    0  502    0 -0.00000000000E+00  0.00000000000E+00  0.12924049130E+02  0.12924049130E+02  0.00000000000E+00 0. -1.
         21   -1    0    0  501  502  0.00000000000E+00 -0.00000000000E+00 -0.48789681498E+03  0.48789681498E+03  0.00000000000E+00 0. -1.
         24    2    1    2    0    0  0.56577507612E+01 -0.50581982554E+02 -0.20774893356E+03  0.22879306471E+03  0.81216377417E+02 0.  0.
        -11    1    3    3    0    0  0.29992740109E+02 -0.25258436088E+02 -0.17946628451E+03  0.18370002811E+03  0.00000000000E+00 0.  1.
         12    1    3    3    0    0 -0.24334989348E+02 -0.25323546467E+02 -0.28282649052E+02  0.45093036598E+02  0.00000000000E+00 0. -1.
          1    1    1    2  501    0 -0.56577507612E+01  0.50581982554E+02 -0.26722383229E+03  0.27202779940E+03  0.00000000000E+00 0. -1.
<mgrwt>
<rscale>  1 0.95846998E+02</rscale>
<asrwt>0</asrwt>
<pdfrwt beam="1">  1       21 0.75061061E-01 0.95846998E+02</pdfrwt>
<pdfrwt beam="2">  1        2 0.19883149E-02 0.95846998E+02</pdfrwt>
<totfact> 0.10117638E+05</totfact>
</mgrwt>
</event>
<event>
 6    2  0.8544106E+000  0.1097158E+03  0.7546771E-02  0.1261097E+00
         21   -1    0    0  501  502  0.00000000000E+00  0.00000000000E+00  0.52017651999E+02  0.52017651999E+02  0.00000000000E+00 0. -1.
          2   -1    0    0  502    0 -0.00000000000E+00 -0.00000000000E+00 -0.97356832519E+03  0.97356832519E+03  0.00000000000E+00 0. -1.
         24    2    1    2    0    0 -0.67001083427E+01  0.71954292839E+02 -0.94365783641E+03  0.95001456477E+03  0.82554523420E+02 0.  0.
        -11    1    3    3    0    0  0.25765577322E+02  0.42547063500E+02 -0.24574383010E+03  0.25072723749E+03  0.00000000000E+00 0.  1.
         12    1    3    3    0    0 -0.32465685664E+02  0.29407229339E+02 -0.69791400631E+03  0.69928732728E+03  0.00000000000E+00 0. -1.
          1    1    1    2  501    0  0.67001083427E+01 -0.71954292839E+02  0.22107163221E+02  0.75571412422E+02  0.00000000000E+00 0. -1.
<mgrwt>
<rscale>  1 0.10971582E+03</rscale>
<asrwt>0</asrwt>
<pdfrwt beam="1">  1       21 0.80027166E-02 0.10971582E+03</pdfrwt>
<pdfrwt beam="2">  1        2 0.14977972E+00 0.10971582E+03</pdfrwt>
<totfact> 0.41890145E+04</totfact>
</mgrwt>
</event>
<event>
 6    2  0.8544106E+000  0.8826605E+02  0.7546771E-02  0.1307106E+00
         21   -1    0    0  501  502  0.00000000000E+00  0.00000000000E+00  0.10590571339E+02  0.10590571339E+02  0.00000000000E+00 0.  1.
          2   -1    0    0  502    0 -0.00000000000E+00 -0.00000000000E+00 -0.31905814233E+03  0.31905814233E+03  0.00000000000E+00 0. -1.
         24    2    1    2    0    0 -0.20764362583E+02 -0.10793751056E+02 -0.27494422291E+03  0.28876499219E+03  0.85107174713E+02 0.  0.
        -13    1    3    3    0    0 -0.24750029562E+02 -0.97131253302E+01 -0.18742129782E+02  0.32529620283E+02  0.00000000000E+00 0.  1.
         14    1    3    3    0    0  0.39856669786E+01 -0.10806257254E+01 -0.25620209313E+03  0.25623537191E+03  0.00000000000E+00 0. -1.
          1    1    1    2  501    0  0.20764362583E+02  0.10793751056E+02 -0.33523348077E+02  0.40883721475E+02  0.00000000000E+00 0. -1.
<mgrwt>
<rscale>  1 0.88266047E+02</rscale>
<asrwt>0</asrwt>
<pdfrwt beam="1">  1       21 0.16293185E-02 0.88266047E+02</pdfrwt>
<pdfrwt beam="2">  1        2 0.49085872E-01 0.88266047E+02</pdfrwt>
<totfact> 0.20105941E+06</totfact>
</mgrwt>
</event>
<event>
 6    2  0.8544106E+000  0.8646170E+02  0.7546771E-02  0.1311654E+00
         21   -1    0    0  501  502  0.00000000000E+00  0.00000000000E+00  0.72275376780E+02  0.72275376780E+02  0.00000000000E+00 0. -1.
         -1   -1    0    0    0  501 -0.00000000000E+00 -0.00000000000E+00 -0.47836122743E+02  0.47836122743E+02  0.00000000000E+00 0.  1.
         24    2    1    2    0    0 -0.30770120814E+02  0.13265245902E+01  0.21997758561E+02  0.89216177829E+02  0.80790253139E+02 0.  0.
        -11    1    3    3    0    0  0.14552695835E+02 -0.28640872509E+02  0.84287035044E+01  0.33213304215E+02  0.00000000000E+00 0.  1.
         12    1    3    3    0    0 -0.45322816649E+02  0.29967397099E+02  0.13569055057E+02  0.56002873614E+02  0.00000000000E+00 0. -1.
         -2    1    1    2    0  502  0.30770120814E+02 -0.13265245902E+01  0.24414954753E+01  0.30895321693E+02  0.00000000000E+00 0.  1.
<mgrwt>
<rscale>  1 0.86461697E+02</rscale>
<asrwt>0</asrwt>
<pdfrwt beam="1">  1       21 0.11119289E-01 0.86461697E+02</pdfrwt>
<pdfrwt beam="2">  1       -1 0.73594035E-02 0.86461697E+02</pdfrwt>
<totfact> 0.54187869E+05</totfact>
</mgrwt>
</event>
<event>
 6    2  0.8544106E+000  0.8447987E+02  0.7546771E-02  0.1316798E+00
         21   -1    0    0  501  502  0.00000000000E+00  0.00000000000E+00  0.11996276317E+03  0.11996276317E+03  0.00000000000E+00 0.  1.
         -3   -1    0    0    0  501 -0.00000000000E+00 -0.00000000000E+00 -0.50020811457E+02  0.50020811457E+02  0.00000000000E+00 0.  1.
         24    2    1    2    0    0 -0.74092480958E+01 -0.25025144561E+02 -0.10763718873E+02  0.85162821965E+02  0.80347332148E+02 0.  0.
        -13    1    3    3    0    0  0.14567199889E+02 -0.17556961104E+02 -0.41075169767E+02  0.46985314378E+02  0.00000000000E+00 0.  1.
         14    1    3    3    0    0 -0.21976447985E+02 -0.74681834575E+01  0.30311450895E+02  0.38177507587E+02  0.00000000000E+00 0. -1.
         -4    1    1    2    0  502  0.74092480958E+01  0.25025144561E+02  0.80705670588E+02  0.84820752666E+02  0.00000000000E+00 0.  1.
<mgrwt>
<rscale>  1 0.84479871E+02</rscale>
<asrwt>0</asrwt>
<pdfrwt beam="1">  1       21 0.18455810E-01 0.84479871E+02</pdfrwt>
<pdfrwt beam="2">  1       -3 0.76955095E-02 0.84479871E+02</pdfrwt>
<totfact> 0.13604050E+05</totfact>
</mgrwt>
</event>
<event>
 6    2  0.8544106E+000  0.1087805E+03  0.7546771E-02  0.1262845E+00
         21   -1    0    0  501  502  0.00000000000E+00  0.00000000000E+00  0.51187643926E+01  0.51187643926E+01  0.00000000000E+00 0. -1.
          2   -1    0    0  502    0 -0.00000000000E+00 -0.00000000000E+00 -0.15377431296E+04  0.15377431296E+04  0.00000000000E+00 0. -1.
         24    2    1    2    0    0 -0.63702741091E+02  0.25580853647E+02 -0.93031780891E+03  0.93665598256E+03  0.84384742674E+02 0.  0.
        -13    1    3    3    0    0 -0.11622172326E+02  0.47892375681E+02 -0.54050413667E+03  0.54274623564E+03  0.00000000000E+00 0.  1.
         14    1    3    3    0    0 -0.52080568765E+02 -0.22311522034E+02 -0.38981367223E+03  0.39390974692E+03  0.00000000000E+00 0. -1.
          1    1    1    2  501    0  0.63702741091E+02 -0.25580853647E+02 -0.60230655628E+03  0.60620591142E+03  0.00000000000E+00 0. -1.
<mgrwt>
<rscale>  1 0.10878053E+03</rscale>
<asrwt>0</asrwt>
<pdfrwt beam="1">  1       21 0.78750221E-03 0.10878053E+03</pdfrwt>
<pdfrwt beam="2">  1        2 0.23657587E+00 0.10878053E+03</pdfrwt>
<totfact> 0.89682508E+05</totfact>
</mgrwt>
</event>
<event>
 6    2  0.8544106E+000  0.8354566E+02  0.7546771E-02  0.1319280E+00
          2   -1    0    0  502    0 -0.00000000000E+00  0.00000000000E+00  0.74368794184E+03  0.74368794184E+03  0.00000000000E+00 0. -1.
         21   -1    0    0  501  502  0.00000000000E+00 -0.00000000000E+00 -0.49898564667E+01  0.49898564667E+01  0.00000000000E+00 0.  1.
         24    2    1    2    0    0 -0.17151904321E+02 -0.12416318949E+02  0.36752274010E+03  0.37689898001E+03  0.80817843582E+02 0.  0.
        -11    1    3    3    0    0  0.16479116889E+01 -0.16052619175E+02  0.10257905925E+02  0.19121371010E+02  0.00000000000E+00 0.  1.
         12    1    3    3    0    0 -0.18799816010E+02  0.36363002268E+01  0.35726483418E+03  0.35777760900E+03  0.00000000000E+00 0. -1.
          1    1    1    2  501    0  0.17151904321E+02  0.12416318949E+02  0.37117534527E+03  0.37177881829E+03  0.00000000000E+00 0. -1.
<mgrwt>
<rscale>  1 0.83545656E+02</rscale>
<asrwt>0</asrwt>
<pdfrwt beam="1">  1       21 0.76767081E-03 0.83545656E+02</pdfrwt>
<pdfrwt beam="2">  1        2 0.11441344E+00 0.83545656E+02</pdfrwt>
<totfact> 0.25882914E+06</totfact>
</mgrwt>
</event>
<event>
 6    2  0.8544106E+000  0.8314200E+02  0.7546771E-02  0.1320364E+00
         -1   -1    0    0    0  501 -0.00000000000E+00  0.00000000000E+00  0.51967703881E+02  0.51967703881E+02  0.00000000000E+00 0.  1.
         21   -1    0    0  501  502  0.00000000000E+00 -0.00000000000E+00 -0.54746051650E+02  0.54746051650E+02  0.00000000000E+00 0. -1.
         24    2    1    2    0    0 -0.59771359921E+01  0.20600916236E+02 -0.10741181831E+02  0.83832963790E+02  0.80327261413E+02 0.  0.
        -13    1    3    3    0    0 -0.25058151231E+01 -0.20909218657E+02  0.22294693890E+02  0.30668027487E+02  0.00000000000E+00 0.  1.
         14    1    3    3    0    0 -0.34713208689E+01  0.41510134894E+02 -0.33035875720E+02  0.53164936303E+02  0.00000000000E+00 0. -1.
         -2    1    1    2    0  502  0.59771359921E+01 -0.20600916236E+02  0.79628340617E+01  0.22880791742E+02  0.00000000000E+00 0.  1.
<mgrwt>
<rscale>  1 0.83142004E+02</rscale>
<asrwt>0</asrwt>
<pdfrwt beam="1">  1       21 0.84224694E-02 0.83142004E+02</pdfrwt>
<pdfrwt beam="2">  1       -1 0.79950314E-02 0.83142004E+02</pdfrwt>
<totfact> 0.77023544E+05</totfact>
</mgrwt>
</event>
<event>
 6    2  0.8544106E+000  0.8469667E+02  0.7546771E-02  0.1316228E+00
         21   -1    0    0  501  502  0.00000000000E+00  0.00000000000E+00  0.52824444929E+02  0.52824444929E+02  0.00000000000E+00 0.  1.
         -3   -1    0    0    0  501 -0.00000000000E+00 -0.00000000000E+00 -0.59209956117E+02  0.59209956117E+02  0.00000000000E+00 0.  1.
         24    2    1    2    0    0  0.16572272180E+01 -0.22544708559E+02 -0.18047232602E+02  0.86598087784E+02  0.81624236090E+02 0.  0.
        -13    1    3    3    0    0  0.28858406593E+02 -0.25069315592E+02 -0.37117489549E+02  0.53282138149E+02  0.00000000000E+00 0.  1.
         14    1    3    3    0    0 -0.27201179375E+02  0.25246070336E+01  0.19070256947E+02  0.33315949635E+02  0.00000000000E+00 0. -1.
         -4    1    1    2    0  502 -0.16572272180E+01  0.22544708559E+02  0.11661721413E+02  0.25436313262E+02  0.00000000000E+00 0.  1.
<mgrwt>
<rscale>  1 0.84696672E+02</rscale>
<asrwt>0</asrwt>
<pdfrwt beam="1">  1       21 0.81268377E-02 0.84696672E+02</pdfrwt>
<pdfrwt beam="2">  1       -3 0.91092240E-02 0.84696672E+02</pdfrwt>
<totfact> 0.43776307E+05</totfact>
</mgrwt>
</event>
<event>
 6    2  0.8544106E+000  0.8425399E+02  0.7546771E-02  0.1317395E+00
         21   -1    0    0  501  502  0.00000000000E+00  0.00000000000E+00  0.92288777012E+01  0.92288777012E+01  0.00000000000E+00 0. -1.
          2   -1    0    0  502    0 -0.00000000000E+00 -0.00000000000E+00 -0.11690201496E+04  0.11690201496E+04  0.00000000000E+00 0. -1.
         24    2    1    2    0    0  0.12340854606E+02  0.19275215589E+02 -0.11504463178E+04  0.11535274013E+04  0.81085786022E+02 0.  0.
        -11    1    3    3    0    0  0.23041382100E+02  0.32636008571E+02 -0.27237221910E+03  0.27528646912E+03  0.00000000000E+00 0.  1.
         12    1    3    3    0    0 -0.10700527494E+02 -0.13360792982E+02 -0.87807409870E+03  0.87824093214E+03  0.00000000000E+00 0. -1.
          1    1    1    2  501    0 -0.12340854606E+02 -0.19275215589E+02 -0.93449541474E+01  0.24721626088E+02  0.00000000000E+00 0. -1.
<mgrwt>
<rscale>  1 0.84253993E+02</rscale>
<asrwt>0</asrwt>
<pdfrwt beam="1">  1       21 0.14198269E-02 0.84253993E+02</pdfrwt>
<pdfrwt beam="2">  1        2 0.17984931E+00 0.84253993E+02</pdfrwt>
<totfact> 0.54838333E+05</totfact>
</mgrwt>
</event>
<event>
 6    2  0.8544106E+000  0.8388633E+02  0.7546771E-02  0.1318371E+00
         21   -1    0    0  501  502  0.00000000000E+00  0.00000000000E+00  0.68832750970E+02  0.68832750970E+02  0.00000000000E+00 0.  1.
         -3   -1    0    0    0  501 -0.00000000000E+00 -0.00000000000E+00 -0.97923256624E+02  0.97923256624E+02  0.00000000000E+00 0.  1.
         24    2    1    2    0    0  0.21805452543E+01 -0.22984284251E+02 -0.76813347959E+02  0.11374184177E+03  0.80646661711E+02 0.  0.
        -11    1    3    3    0    0 -0.18249283020E+02 -0.38491228357E+02 -0.77107309445E+02  0.88091703134E+02  0.00000000000E+00 0.  1.
         12    1    3    3    0    0  0.20429828275E+02  0.15506944106E+02  0.29396148637E+00  0.25650138639E+02  0.00000000000E+00 0. -1.
         -4    1    1    2    0  502 -0.21805452543E+01  0.22984284251E+02  0.47722842305E+02  0.53014165822E+02  0.00000000000E+00 0.  1.
<mgrwt>
<rscale>  1 0.83886329E+02</rscale>
<asrwt>0</asrwt>
<pdfrwt beam="1">  1       21 0.10589654E-01 0.83886329E+02</pdfrwt>
<pdfrwt beam="2">  1       -3 0.15065116E-01 0.83886329E+02</pdfrwt>
<totfact> 0.12051012E+05</totfact>
</mgrwt>
</event>
<event>
 6    2  0.8544106E+000  0.8884054E+02  0.7546771E-02  0.1305684E+00
          2   -1    0    0  502    0 -0.00000000000E+00  0.00000000000E+00  0.99048575171E+02  0.99048575171E+02  0.00000000000E+00 0. -1.
         21   -1    0    0  501  502  0.00000000000E+00 -0.00000000000E+00 -0.15277241006E+03  0.15277241006E+03  0.00000000000E+00 0. -1.
         24    2    1    2    0    0 -0.43112208949E+02 -0.14341782791E+02  0.74400203632E+02  0.11587938549E+03  0.76343253704E+02 0.  0.
        -13    1    3    3    0    0 -0.41009487818E+02 -0.42286684383E+02  0.38647654248E+02  0.70452700063E+02  0.00000000000E+00 0.  1.
         14    1    3    3    0    0 -0.21027211311E+01  0.27944901592E+02  0.35752549384E+02  0.45426685424E+02  0.00000000000E+00 0. -1.
          1    1    1    2  501    0  0.43112208949E+02  0.14341782791E+02 -0.12812403852E+03  0.13594159974E+03  0.00000000000E+00 0. -1.
<mgrwt>
<rscale>  1 0.88840541E+02</rscale>
<asrwt>0</asrwt>
<pdfrwt beam="1">  1       21 0.23503448E-01 0.88840541E+02</pdfrwt>
<pdfrwt beam="2">  1        2 0.15238242E-01 0.88840541E+02</pdfrwt>
<totfact> 0.77565160E+04</totfact>
</mgrwt>
</event>
<event>
 6    2  0.8544106E+000  0.8069673E+02  0.7546771E-02  0.1327086E+00
         21   -1    0    0  501  502  0.00000000000E+00  0.00000000000E+00  0.62713848379E+01  0.62713848379E+01  0.00000000000E+00 0. -1.
          2   -1    0    0  502    0 -0.00000000000E+00 -0.00000000000E+00 -0.72513573707E+03  0.72513573707E+03  0.00000000000E+00 0. -1.
         24    2    1    2    0    0  0.17908514066E+02  0.23851335169E+02 -0.66464123593E+03  0.66952216891E+03  0.74982405299E+02 0.  0.
        -13    1    3    3    0    0  0.14199272684E+01  0.64016708516E+01 -0.26128941841E+01  0.70586683699E+01  0.00000000000E+00 0.  1.
         14    1    3    3    0    0  0.16488586797E+02  0.17449664318E+02 -0.66202834175E+03  0.66246350054E+03  0.00000000000E+00 0. -1.
          1    1    1    2  501    0 -0.17908514066E+02 -0.23851335169E+02 -0.54223116299E+02  0.61884952990E+02  0.00000000000E+00 0. -1.
<mgrwt>
<rscale>  1 0.80696730E+02</rscale>
<asrwt>0</asrwt>
<pdfrwt beam="1">  1       21 0.96482814E-03 0.80696730E+02</pdfrwt>
<pdfrwt beam="2">  1        2 0.11155938E+00 0.80696730E+02</pdfrwt>
<totfact> 0.18628897E+06</totfact>
</mgrwt>
</event>
<event>
 6    2  0.8544106E+000  0.8266413E+02  0.7546771E-02  0.1321657E+00
          4   -1    0    0  502    0 -0.00000000000E+00  0.00000000000E+00  0.68889866412E+01  0.68889866412E+01  0.00000000000E+00 0. -1.
         21   -1    0    0  501  502  0.00000000000E+00 -0.00000000000E+00 -0.87983281114E+03  0.87983281114E+03  0.00000000000E+00 0. -1.
         24    2    1    2    0    0  0.21072316367E+02  0.41213350107E+01 -0.24809712291E+03  0.26150629221E+03  0.79826878620E+02 0.  0.
        -11    1    3    3    0    0 -0.64085130944E+01 -0.26903085546E+02 -0.17750814687E+03  0.17964962359E+03  0.00000000000E+00 0.  1.
         12    1    3    3    0    0  0.27480829461E+02  0.31024420557E+02 -0.70588976037E+02  0.81856668615E+02  0.00000000000E+00 0. -1.
          3    1    1    2  501    0 -0.21072316367E+02 -0.41213350107E+01 -0.62484670159E+03  0.62521550557E+03  0.00000000000E+00 0. -1.
<mgrwt>
<rscale>  1 0.82664130E+02</rscale>
<asrwt>0</asrwt>
<pdfrwt beam="1">  1       21 0.13535885E+00 0.82664130E+02</pdfrwt>
<pdfrwt beam="2">  1        4 0.10598444E-02 0.82664130E+02</pdfrwt>
<totfact> 0.41328712E+04</totfact>
</mgrwt>
</event>
<event>
 6    2  0.8544106E+000  0.8327459E+02  0.7546771E-02  0.1320007E+00
         21   -1    0    0  501  502  0.00000000000E+00  0.00000000000E+00  0.18985415235E+02  0.18985415235E+02  0.00000000000E+00 0. -1.
         -3   -1    0    0    0  501 -0.00000000000E+00 -0.00000000000E+00 -0.21830192402E+03  0.21830192402E+03  0.00000000000E+00 0.  1.
         24    2    1    2    0    0 -0.10710229390E+02  0.19688605225E+02 -0.19804215732E+03  0.21483797042E+03  0.80201666239E+02 0.  0.
        -13    1    3    3    0    0 -0.34517992721E+01  0.49657984872E+02 -0.14705667388E+03  0.15525300549E+03  0.00000000000E+00 0.  1.
         14    1    3    3    0    0 -0.72584301179E+01 -0.29969379647E+02 -0.50985483441E+02  0.59584964932E+02  0.00000000000E+00 0. -1.
         -4    1    1    2    0  502  0.10710229390E+02 -0.19688605225E+02 -0.12743514582E+01  0.22449368831E+02  0.00000000000E+00 0.  1.
<mgrwt>
<rscale>  1 0.83274591E+02</rscale>
<asrwt>0</asrwt>
<pdfrwt beam="1">  1       21 0.29208329E-02 0.83274591E+02</pdfrwt>
<pdfrwt beam="2">  1       -3 0.33584914E-01 0.83274591E+02</pdfrwt>
<totfact> 0.25165795E+05</totfact>
</mgrwt>
</event>
<event>
 6    2  0.8544106E+000  0.9238230E+02  0.7546771E-02  0.1297183E+00
         21   -1    0    0  501  502  0.00000000000E+00  0.00000000000E+00  0.48900288860E+03  0.48900288860E+03  0.00000000000E+00 0. -1.
          4   -1    0    0  502    0 -0.00000000000E+00 -0.00000000000E+00 -0.26153285945E+02  0.26153285945E+02  0.00000000000E+00 0. -1.
         24    2    1    2    0    0 -0.14438230212E+02 -0.43550407038E+02  0.61019716349E+02  0.11071537792E+03  0.80183468871E+02 0.  0.
        -11    1    3    3    0    0  0.25428937931E+02 -0.11195011055E+02  0.51469925765E+02  0.58490276244E+02  0.00000000000E+00 0.  1.
         12    1    3    3    0    0 -0.39867168144E+02 -0.32355395983E+02  0.95497905838E+01  0.52225101677E+02  0.00000000000E+00 0. -1.
          3    1    1    2  501    0  0.14438230212E+02  0.43550407038E+02  0.40182988631E+03  0.40444079663E+03  0.00000000000E+00 0. -1.
<mgrwt>
<rscale>  1 0.92382299E+02</rscale>
<asrwt>0</asrwt>
<pdfrwt beam="1">  1       21 0.75231207E-01 0.92382299E+02</pdfrwt>
<pdfrwt beam="2">  1        4 0.40235828E-02 0.92382299E+02</pdfrwt>
<totfact> 0.21199488E+04</totfact>
</mgrwt>
</event>
<event>
 6    2  0.8544106E+000  0.7841899E+02  0.7546771E-02  0.1333599E+00
          2   -1    0    0  502    0 -0.00000000000E+00  0.00000000000E+00  0.80225204661E+03  0.80225204661E+03  0.00000000000E+00 0. -1.
         21   -1    0    0  501  502  0.00000000000E+00 -0.00000000000E+00 -0.28300344790E+02  0.28300344790E+02  0.00000000000E+00 0. -1.
         24    2    1    2    0    0  0.34073375986E+00  0.29690909286E+02  0.79195496254E+03  0.79582799665E+03  0.72580103193E+02 0.  0.
        -13    1    3    3    0    0  0.72680872807E+01  0.43809688973E+02  0.26934010032E+03  0.27297656233E+03  0.00000000000E+00 0.  1.
         14    1    3    3    0    0 -0.69273535208E+01 -0.14118779688E+02  0.52261486222E+03  0.52285143432E+03  0.00000000000E+00 0. -1.
          1    1    1    2  501    0 -0.34073375986E+00 -0.29690909286E+02 -0.18003260719E+02  0.34724394742E+02  0.00000000000E+00 0. -1.
<mgrwt>
<rscale>  1 0.78418987E+02</rscale>
<asrwt>0</asrwt>
<pdfrwt beam="1">  1       21 0.43538998E-02 0.78418987E+02</pdfrwt>
<pdfrwt beam="2">  1        2 0.12342337E+00 0.78418987E+02</pdfrwt>
<totfact> 0.14831043E+05</totfact>
</mgrwt>
</event>
<event>
 6    2  0.8544106E+000  0.8459910E+02  0.7546771E-02  0.1316484E+00
          4   -1    0    0  502    0 -0.00000000000E+00  0.00000000000E+00  0.10315661600E+02  0.10315661600E+02  0.00000000000E+00 0. -1.
         21   -1    0    0  501  502  0.00000000000E+00 -0.00000000000E+00 -0.28681112972E+03  0.28681112972E+03  0.00000000000E+00 0. -1.
         24    2    1    2    0    0 -0.22843555628E+02  0.48268880121E+01 -0.20025897828E+03  0.21739518363E+03  0.81313471224E+02 0.  0.
        -13    1    3    3    0    0  0.20674218004E+02  0.20703990930E+02 -0.34258791317E+02  0.45052672651E+02  0.00000000000E+00 0.  1.
         14    1    3    3    0    0 -0.43517773632E+02 -0.15877102918E+02 -0.16600018696E+03  0.17234251098E+03  0.00000000000E+00 0. -1.
          3    1    1    2  501    0  0.22843555628E+02 -0.48268880121E+01 -0.76236489844E+02  0.79731607693E+02  0.00000000000E+00 0. -1.
<mgrwt>
<rscale>  1 0.84599099E+02</rscale>
<asrwt>0</asrwt>
<pdfrwt beam="1">  1       21 0.44124790E-01 0.84599099E+02</pdfrwt>
<pdfrwt beam="2">  1        4 0.15870248E-02 0.84599099E+02</pdfrwt>
<totfact> 0.26777249E+05</totfact>
</mgrwt>
</event>
<event>
 6    2  0.8544106E+000  0.8337811E+02  0.7546771E-02  0.1319729E+00
         21   -1    0    0  501  502  0.00000000000E+00  0.00000000000E+00  0.43142945445E+01  0.43142945445E+01  0.00000000000E+00 0. -1.
          2   -1    0    0  502    0 -0.00000000000E+00 -0.00000000000E+00 -0.68333761646E+03  0.68333761646E+03  0.00000000000E+00 0. -1.
         24    2    1    2    0    0 -0.18527643964E+02 -0.10367932345E+02 -0.60235249357E+03  0.60809574512E+03  0.80629654002E+02 0.  0.
        -11    1    3    3    0    0 -0.60142227722E+01 -0.14374927182E+02 -0.18899875815E+02  0.24495197752E+02  0.00000000000E+00 0.  1.
         12    1    3    3    0    0 -0.12513421192E+02  0.40069948377E+01 -0.58345261776E+03  0.58360054736E+03  0.00000000000E+00 0. -1.
          1    1    1    2  501    0  0.18527643964E+02  0.10367932345E+02 -0.76670828347E+02  0.79556165892E+02  0.00000000000E+00 0. -1.
<mgrwt>
<rscale>  1 0.83378107E+02</rscale>
<asrwt>0</asrwt>
<pdfrwt beam="1">  1       21 0.66373814E-03 0.83378107E+02</pdfrwt>
<pdfrwt beam="2">  1        2 0.10512878E+00 0.83378107E+02</pdfrwt>
<totfact> 0.35765072E+06</totfact>
</mgrwt>
</event>
<event>
 6    2  0.8544106E+000  0.8645125E+02  0.7546771E-02  0.1311680E+00
         -3   -1    0    0    0  501 -0.00000000000E+00  0.00000000000E+00  0.12973914238E+03  0.12973914238E+03  0.00000000000E+00 0.  1.
         21   -1    0    0  501  502  0.00000000000E+00 -0.00000000000E+00 -0.32573590833E+03  0.32573590833E+03  0.00000000000E+00 0.  1.
         24    2    1    2    0    0  0.23714020430E+02  0.18932111456E+02  0.11451537118E+03  0.14348375770E+03  0.80950842354E+02 0.  0.
        -13    1    3    3    0    0 -0.74225821551E+01 -0.50357503537E+01  0.10178565412E+03  0.10218010027E+03  0.00000000000E+00 0.  1.
         14    1    3    3    0    0  0.31136602585E+02  0.23967861809E+02  0.12729717060E+02  0.41303657425E+02  0.00000000000E+00 0. -1.
         -4    1    1    2    0  502 -0.23714020430E+02 -0.18932111456E+02 -0.31051213713E+03  0.31199129301E+03  0.00000000000E+00 0.  1.
<mgrwt>
<rscale>  1 0.86451249E+02</rscale>
<asrwt>0</asrwt>
<pdfrwt beam="1">  1       21 0.50113216E-01 0.86451249E+02</pdfrwt>
<pdfrwt beam="2">  1       -3 0.19959868E-01 0.86451249E+02</pdfrwt>
<totfact> 0.41126259E+03</totfact>
</mgrwt>
</event>
<event>
 6    2  0.8544106E+000  0.8408769E+02  0.7546771E-02  0.1317836E+00
          2   -1    0    0  502    0 -0.00000000000E+00  0.00000000000E+00  0.79459915731E+03  0.79459915731E+03  0.00000000000E+00 0. -1.
         21   -1    0    0  501  502  0.00000000000E+00 -0.00000000000E+00 -0.51060670844E+02  0.51060670844E+02  0.00000000000E+00 0. -1.
         24    2    1    2    0    0 -0.17322379849E+02 -0.16992984597E+02  0.78935123497E+03  0.79381742955E+03  0.80510328149E+02 0.  0.
        -13    1    3    3    0    0  0.24691716997E+02  0.16738412238E+02  0.24629230863E+03  0.24809223411E+03  0.00000000000E+00 0.  1.
         14    1    3    3    0    0 -0.42014096847E+02 -0.33731396834E+02  0.54305892633E+03  0.54572519544E+03  0.00000000000E+00 0. -1.
          1    1    1    2  501    0  0.17322379849E+02  0.16992984597E+02 -0.45812748496E+02  0.51842398613E+02  0.00000000000E+00 0. -1.
<mgrwt>
<rscale>  1 0.84087688E+02</rscale>
<asrwt>0</asrwt>
<pdfrwt beam="1">  1       21 0.78554884E-02 0.84087688E+02</pdfrwt>
<pdfrwt beam="2">  1        2 0.12224602E+00 0.84087688E+02</pdfrwt>
<totfact> 0.55984558E+04</totfact>
</mgrwt>
</event>
<event>
 6    2  0.8544106E+000  0.9970478E+02  0.7546771E-02  0.1280918E+00
          2   -1    0    0  502    0 -0.00000000000E+00  0.00000000000E+00  0.26496772558E+03  0.26496772558E+03  0.00000000000E+00 0. -1.
         21   -1    0    0  501  502  0.00000000000E+00 -0.00000000000E+00 -0.19483361824E+02  0.19483361824E+02  0.00000000000E+00 0.  1.
         24    2    1    2    0    0  0.25590918328E+02  0.48890096408E+01  0.23688849377E+03  0.25701595488E+03  0.96240558323E+02 0.  0.
        -13    1    3    3    0    0  0.29501665182E+02 -0.38922063295E+02  0.76958440197E+02  0.91147554971E+02  0.00000000000E+00 0.  1.
         14    1    3    3    0    0 -0.39107468545E+01  0.43811072936E+02  0.15993005357E+03  0.16586839990E+03  0.00000000000E+00 0. -1.
          1    1    1    2  501    0 -0.25590918328E+02 -0.48890096408E+01  0.85958699949E+01  0.27435132533E+02  0.00000000000E+00 0. -1.
<mgrwt>
<rscale>  1 0.99704777E+02</rscale>
<asrwt>0</asrwt>
<pdfrwt beam="1">  1       21 0.29974405E-02 0.99704777E+02</pdfrwt>
<pdfrwt beam="2">  1        2 0.40764263E-01 0.99704777E+02</pdfrwt>
<totfact> 0.92873069E+05</totfact>
</mgrwt>
</event>
<event>
 6    2  0.8544106E+000  0.1083512E+03  0.7546771E-02  0.1263654E+00
          2   -1    0    0  502    0 -0.00000000000E+00  0.00000000000E+00  0.38660320959E+03  0.38660320959E+03  0.00000000000E+00 0. -1.
         21   -1    0    0  501  502  0.00000000000E+00 -0.00000000000E+00 -0.21352353745E+02  0.21352353745E+02  0.00000000000E+00 0. -1.
         24    2    1    2    0    0  0.59596153375E+02  0.40095014213E+02  0.19311968104E+03  0.22143893405E+03  0.81121382162E+02 0.  0.
        -11    1    3    3    0    0 -0.12052543422E+02 -0.60963736913E+01  0.41486552516E+01  0.14129434366E+02  0.00000000000E+00 0.  1.
         12    1    3    3    0    0  0.71648696797E+02  0.46191387905E+02  0.18897102579E+03  0.20730949968E+03  0.00000000000E+00 0. -1.
          1    1    1    2  501    0 -0.59596153375E+02 -0.40095014213E+02  0.17213117480E+03  0.18651662928E+03  0.00000000000E+00 0. -1.
<mgrwt>
<rscale>  1 0.10835124E+03</rscale>
<asrwt>0</asrwt>
<pdfrwt beam="1">  1       21 0.32849778E-02 0.10835124E+03</pdfrwt>
<pdfrwt beam="2">  1        2 0.59477412E-01 0.10835124E+03</pdfrwt>
<totfact> 0.54141302E+05</totfact>
</mgrwt>
</event>
<event>
 6    2  0.8544106E+000  0.8076608E+02  0.7546771E-02  0.1326891E+00
         21   -1    0    0  501  502  0.00000000000E+00  0.00000000000E+00  0.18097152101E+02  0.18097152101E+02  0.00000000000E+00 0.  1.
         -3   -1    0    0    0  501 -0.00000000000E+00 -0.00000000000E+00 -0.42144859480E+03  0.42144859480E+03  0.00000000000E+00 0.  1.
         24    2    1    2    0    0 -0.25742404191E+02  0.11720665306E+02 -0.40325182879E+03  0.41126049825E+03  0.75651269825E+02 0.  0.
        -11    1    3    3    0    0  0.25639512119E+02  0.11239481489E+02 -0.18055912381E+03  0.18271646810E+03  0.00000000000E+00 0.  1.
         12    1    3    3    0    0 -0.51381916310E+02  0.48118381703E+00 -0.22269270499E+03  0.22854403015E+03  0.00000000000E+00 0. -1.
         -4    1    1    2    0  502  0.25742404191E+02 -0.11720665306E+02 -0.99613912184E-01  0.28285248659E+02  0.00000000000E+00 0.  1.
<mgrwt>
<rscale>  1 0.80766082E+02</rscale>
<asrwt>0</asrwt>
<pdfrwt beam="1">  1       21 0.27841772E-02 0.80766082E+02</pdfrwt>
<pdfrwt beam="2">  1       -3 0.64838246E-01 0.80766082E+02</pdfrwt>
<totfact> 0.74863899E+04</totfact>
</mgrwt>
</event>
<event>
 6    2  0.8544106E+000  0.8019382E+02  0.7546771E-02  0.1328502E+00
         21   -1    0    0  501  502  0.00000000000E+00  0.00000000000E+00  0.19757490926E+02  0.19757490926E+02  0.00000000000E+00 0. -1.
          4   -1    0    0  502    0 -0.00000000000E+00 -0.00000000000E+00 -0.33105757705E+03  0.33105757705E+03  0.00000000000E+00 0. -1.
         24    2    1    2    0    0 -0.14156682064E+02 -0.15710041843E+02 -0.31852692530E+03  0.32846681823E+03  0.77355229137E+02 0.  0.
        -11    1    3    3    0    0 -0.30732768304E+02  0.13818936054E+02 -0.70502413428E+02  0.78141258887E+02  0.00000000000E+00 0.  1.
         12    1    3    3    0    0  0.16576086239E+02 -0.29528977897E+02 -0.24802451188E+03  0.25032555935E+03  0.00000000000E+00 0. -1.
          3    1    1    2  501    0  0.14156682064E+02  0.15710041843E+02  0.72268391841E+01  0.22348249739E+02  0.00000000000E+00 0. -1.
<mgrwt>
<rscale>  1 0.80193819E+02</rscale>
<asrwt>0</asrwt>
<pdfrwt beam="1">  1       21 0.30396141E-02 0.80193819E+02</pdfrwt>
<pdfrwt beam="2">  1        4 0.50931933E-01 0.80193819E+02</pdfrwt>
<totfact> 0.85453667E+04</totfact>
</mgrwt>
</event>
<event>
 6    2  0.8544106E+000  0.8785747E+02  0.7546771E-02  0.1308125E+00
         21   -1    0    0  501  502  0.00000000000E+00  0.00000000000E+00  0.26082190467E+01  0.26082190467E+01  0.00000000000E+00 0. -1.
          2   -1    0    0  502    0 -0.00000000000E+00 -0.00000000000E+00 -0.17003892225E+04  0.17003892225E+04  0.00000000000E+00 0. -1.
         24    2    1    2    0    0 -0.15289843789E+02  0.29329297089E+02 -0.14911477145E+04  0.14937337249E+04  0.81393780636E+02 0.  0.
        -13    1    3    3    0    0  0.27499044417E+02  0.16403351503E+02 -0.29145562840E+03  0.29320922685E+03  0.00000000000E+00 0.  1.
         14    1    3    3    0    0 -0.42788888206E+02  0.12925945586E+02 -0.11996920861E+04  0.12005244981E+04  0.00000000000E+00 0. -1.
          1    1    1    2  501    0  0.15289843789E+02 -0.29329297089E+02 -0.20663328892E+03  0.20926371659E+03  0.00000000000E+00 0. -1.
<mgrwt>
<rscale>  1 0.87857467E+02</rscale>
<asrwt>0</asrwt>
<pdfrwt beam="1">  1       21 0.40126394E-03 0.87857467E+02</pdfrwt>
<pdfrwt beam="2">  1        2 0.26159869E+00 0.87857467E+02</pdfrwt>
<totfact> 0.20671308E+06</totfact>
</mgrwt>
</event>
<event>
 6    2  0.8544106E+000  0.8352729E+02  0.7546771E-02  0.1319329E+00
         21   -1    0    0  501  502  0.00000000000E+00  0.00000000000E+00  0.27768930451E+01  0.27768930451E+01  0.00000000000E+00 0.  1.
          2   -1    0    0  502    0 -0.00000000000E+00 -0.00000000000E+00 -0.11164712559E+04  0.11164712559E+04  0.00000000000E+00 0. -1.
         24    2    1    2    0    0 -0.91373619113E+00 -0.27717973608E+02 -0.81499131970E+03  0.81926043426E+03  0.78788875962E+02 0.  0.
        -11    1    3    3    0    0 -0.33722645846E+02 -0.33581555820E+02 -0.37485083370E+03  0.37785987517E+03  0.00000000000E+00 0.  1.
         12    1    3    3    0    0  0.32808909655E+02  0.58635822121E+01 -0.44014048600E+03  0.44140055909E+03  0.00000000000E+00 0. -1.
          1    1    1    2  501    0  0.91373619113E+00  0.27717973608E+02 -0.29870304317E+03  0.29998771471E+03  0.00000000000E+00 0. -1.
<mgrwt>
<rscale>  1 0.83527289E+02</rscale>
<asrwt>0</asrwt>
<pdfrwt beam="1">  1       21 0.42721404E-03 0.83527289E+02</pdfrwt>
<pdfrwt beam="2">  1        2 0.17176492E+00 0.83527289E+02</pdfrwt>
<totfact> 0.37649772E+06</totfact>
</mgrwt>
</event>
<event>
 6    2  0.8544106E+000  0.8475508E+02  0.7546771E-02  0.1316074E+00
         21   -1    0    0  501  502  0.00000000000E+00  0.00000000000E+00  0.11224076269E+01  0.11224076269E+01  0.00000000000E+00 0.  1.
          2   -1    0    0  502    0 -0.00000000000E+00 -0.00000000000E+00 -0.27272274912E+04  0.27272274912E+04  0.00000000000E+00 0. -1.
         24    2    1    2    0    0  0.11696261647E+02 -0.22383800785E+02 -0.22155524282E+04  0.22171729716E+04  0.80904799514E+02 0.  0.
        -13    1    3    3    0    0  0.30506065647E+02 -0.38973643356E+02 -0.88403932437E+03  0.88542367935E+03  0.00000000000E+00 0.  1.
         14    1    3    3    0    0 -0.18809804000E+02  0.16589842571E+02 -0.13315131039E+04  0.13317492922E+04  0.00000000000E+00 0. -1.
          1    1    1    2  501    0 -0.11696261647E+02  0.22383800785E+02 -0.51055265531E+03  0.51117692721E+03  0.00000000000E+00 0. -1.
<mgrwt>
<rscale>  1 0.84755080E+02</rscale>
<asrwt>0</asrwt>
<pdfrwt beam="1">  1       21 0.17267864E-03 0.84755080E+02</pdfrwt>
<pdfrwt beam="2">  1        2 0.41957213E+00 0.84755080E+02</pdfrwt>
<totfact> 0.21875982E+06</totfact>
</mgrwt>
</event>
<event>
 6    2  0.8544106E+000  0.8675532E+02  0.7546771E-02  0.1310905E+00
          2   -1    0    0  502    0 -0.00000000000E+00  0.00000000000E+00  0.43994501111E+03  0.43994501111E+03  0.00000000000E+00 0. -1.
         21   -1    0    0  501  502  0.00000000000E+00 -0.00000000000E+00 -0.98090628020E+01  0.98090628020E+01  0.00000000000E+00 0. -1.
         24    2    1    2    0    0  0.35700453158E+01 -0.26975565893E+02  0.39935686171E+03  0.40867149183E+03  0.82377538565E+02 0.  0.
        -11    1    3    3    0    0  0.14550095254E+02 -0.10947904039E+02  0.14373587602E+02  0.23198316648E+02  0.00000000000E+00 0.  1.
         12    1    3    3    0    0 -0.10980049938E+02 -0.16027661854E+02  0.38498327411E+03  0.38547317519E+03  0.00000000000E+00 0. -1.
          1    1    1    2  501    0 -0.35700453158E+01  0.26975565893E+02  0.30779086597E+02  0.41082582082E+02  0.00000000000E+00 0. -1.
<mgrwt>
<rscale>  1 0.86755318E+02</rscale>
<asrwt>0</asrwt>
<pdfrwt beam="1">  1       21 0.15090869E-02 0.86755318E+02</pdfrwt>
<pdfrwt beam="2">  1        2 0.67683833E-01 0.86755318E+02</pdfrwt>
<totfact> 0.16173457E+06</totfact>
</mgrwt>
</event>
<event>
 6    2  0.8544106E+000  0.1103695E+03  0.7546771E-02  0.1259887E+00
          2   -1    0    0  502    0 -0.00000000000E+00  0.00000000000E+00  0.11344118839E+04  0.11344118839E+04  0.00000000000E+00 0. -1.
         21   -1    0    0  501  502  0.00000000000E+00 -0.00000000000E+00 -0.79931136015E+01  0.79931136015E+01  0.00000000000E+00 0. -1.
         24    2    1    2    0    0  0.71619043694E+02 -0.49044037204E+01  0.83558354629E+03  0.84284120109E+03  0.83833685532E+02 0.  0.
        -11    1    3    3    0    0  0.29610429259E+02  0.39418454543E+02  0.37500790933E+03  0.37823474739E+03  0.00000000000E+00 0.  1.
         12    1    3    3    0    0  0.42008614435E+02 -0.44322858264E+02  0.46057563696E+03  0.46460645369E+03  0.00000000000E+00 0. -1.
          1    1    1    2  501    0 -0.71619043694E+02  0.49044037204E+01  0.29083522399E+03  0.29956379639E+03  0.00000000000E+00 0. -1.
<mgrwt>
<rscale>  1 0.11036950E+03</rscale>
<asrwt>0</asrwt>
<pdfrwt beam="1">  1       21 0.12297107E-02 0.11036950E+03</pdfrwt>
<pdfrwt beam="2">  1        2 0.17452478E+00 0.11036950E+03</pdfrwt>
<totfact> 0.73088224E+05</totfact>
</mgrwt>
</event>
<event>
 6    2  0.8544106E+000  0.9055356E+02  0.7546771E-02  0.1301517E+00
         21   -1    0    0  501  502  0.00000000000E+00  0.00000000000E+00  0.10613559275E+04  0.10613559275E+04  0.00000000000E+00 0. -1.
          2   -1    0    0  502    0 -0.00000000000E+00 -0.00000000000E+00 -0.50693820862E+01  0.50693820862E+01  0.00000000000E+00 0. -1.
         24    2    1    2    0    0 -0.37118453006E+02 -0.22753934621E+02  0.88773750452E+03  0.89234400594E+03  0.79400421312E+02 0.  0.
        -13    1    3    3    0    0  0.25149667549E+02 -0.36795292029E+01  0.24272747721E+03  0.24405465148E+03  0.00000000000E+00 0.  1.
         14    1    3    3    0    0 -0.62268120555E+02 -0.19074405418E+02  0.64501002731E+03  0.64828935446E+03  0.00000000000E+00 0. -1.
          1    1    1    2  501    0  0.37118453006E+02  0.22753934621E+02  0.16854904090E+03  0.17408130365E+03  0.00000000000E+00 0. -1.
<mgrwt>
<rscale>  1 0.90553564E+02</rscale>
<asrwt>0</asrwt>
<pdfrwt beam="1">  1       21 0.16328535E+00 0.90553564E+02</pdfrwt>
<pdfrwt beam="2">  1        2 0.77990578E-03 0.90553564E+02</pdfrwt>
<totfact> 0.57015277E+04</totfact>
</mgrwt>
</event>
<event>
 6    2  0.8544106E+000  0.1191868E+03  0.7546771E-02  0.1244445E+00
         -1   -1    0    0    0  501 -0.00000000000E+00  0.00000000000E+00  0.10800784994E+03  0.10800784994E+03  0.00000000000E+00 0.  1.
         21   -1    0    0  501  502  0.00000000000E+00 -0.00000000000E+00 -0.21955188491E+03  0.21955188491E+03  0.00000000000E+00 0.  1.
         24    2    1    2    0    0 -0.80956791279E+02  0.22061782407E+02  0.62327627281E+02  0.13449995335E+03  0.84645023669E+02 0.  0.
        -13    1    3    3    0    0 -0.30386746781E+02  0.32538599306E+01  0.73322885944E+02  0.79436689178E+02  0.00000000000E+00 0.  1.
         14    1    3    3    0    0 -0.50570044498E+02  0.18807922477E+02 -0.10995258663E+02  0.55063264174E+02  0.00000000000E+00 0. -1.
         -2    1    1    2    0  502  0.80956791279E+02 -0.22061782407E+02 -0.17387166226E+03  0.19305978150E+03  0.00000000000E+00 0.  1.
<mgrwt>
<rscale>  1 0.11918685E+03</rscale>
<asrwt>0</asrwt>
<pdfrwt beam="1">  1       21 0.33777213E-01 0.11918685E+03</pdfrwt>
<pdfrwt beam="2">  1       -1 0.16616593E-01 0.11918685E+03</pdfrwt>
<totfact> 0.20736680E+04</totfact>
</mgrwt>
</event>
<event>
 6    2  0.8544106E+000  0.8336969E+02  0.7546771E-02  0.1319752E+00
         21   -1    0    0  501  502  0.00000000000E+00  0.00000000000E+00  0.52381794233E+02  0.52381794233E+02  0.00000000000E+00 0.  1.
          2   -1    0    0  502    0 -0.00000000000E+00 -0.00000000000E+00 -0.63756904274E+02  0.63756904274E+02  0.00000000000E+00 0. -1.
         24    2    1    2    0    0  0.17134635304E+02  0.14402162773E+02 -0.28337612954E+02  0.88054102648E+02  0.80308696077E+02 0.  0.
        -13    1    3    3    0    0  0.20402995623E+01  0.42637676239E+02  0.35916259860E+01  0.42837297238E+02  0.00000000000E+00 0.  1.
         14    1    3    3    0    0  0.15094335742E+02 -0.28235513467E+02 -0.31929238940E+02  0.45216805410E+02  0.00000000000E+00 0. -1.
          1    1    1    2  501    0 -0.17134635304E+02 -0.14402162773E+02  0.16962502912E+02  0.28084595859E+02  0.00000000000E+00 0. -1.
<mgrwt>
<rscale>  1 0.83369687E+02</rscale>
<asrwt>0</asrwt>
<pdfrwt beam="1">  1       21 0.80587376E-02 0.83369687E+02</pdfrwt>
<pdfrwt beam="2">  1        2 0.98087545E-02 0.83369687E+02</pdfrwt>
<totfact> 0.86814406E+05</totfact>
</mgrwt>
</event>
<event>
 6    2  0.8544106E+000  0.8911397E+02  0.7546771E-02  0.1305012E+00
          2   -1    0    0  502    0 -0.00000000000E+00  0.00000000000E+00  0.67119207139E+03  0.67119207139E+03  0.00000000000E+00 0. -1.
         21   -1    0    0  501  502  0.00000000000E+00 -0.00000000000E+00 -0.49018515796E+01  0.49018515796E+01  0.00000000000E+00 0.  1.
         24    2    1    2    0    0 -0.17634685935E+02 -0.17320251778E+02  0.55342315269E+03  0.56055194744E+03  0.85617326354E+02 0.  0.
        -11    1    3    3    0    0  0.22908689151E+02  0.80146637812E+01  0.58635309482E+02  0.63459769872E+02  0.00000000000E+00 0.  1.
         12    1    3    3    0    0 -0.40543375086E+02 -0.25334915559E+02  0.49478784321E+03  0.49709217757E+03  0.00000000000E+00 0. -1.
          1    1    1    2  501    0  0.17634685935E+02  0.17320251778E+02  0.11286706712E+03  0.11554197553E+03  0.00000000000E+00 0. -1.
<mgrwt>
<rscale>  1 0.89113971E+02</rscale>
<asrwt>0</asrwt>
<pdfrwt beam="1">  1       21 0.75413154E-03 0.89113971E+02</pdfrwt>
<pdfrwt beam="2">  1        2 0.10326025E+00 0.89113971E+02</pdfrwt>
<totfact> 0.30216455E+06</totfact>
</mgrwt>
</event>
<event>
 6    2  0.8544106E+000  0.8120316E+02  0.7546771E-02  0.1325671E+00
         21   -1    0    0  501  502  0.00000000000E+00  0.00000000000E+00  0.58435421161E+01  0.58435421161E+01  0.00000000000E+00 0. -1.
          2   -1    0    0  502    0 -0.00000000000E+00 -0.00000000000E+00 -0.22301766921E+04  0.22301766921E+04  0.00000000000E+00 0. -1.
         24    2    1    2    0    0 -0.25895867902E+02 -0.13083935060E+02 -0.21880818085E+04  0.21895880784E+04  0.75843043562E+02 0.  0.
        -11    1    3    3    0    0 -0.20913454324E+02  0.24309561586E+02 -0.15868300514E+04  0.15871540377E+04  0.00000000000E+00 0.  1.
         12    1    3    3    0    0 -0.49824135783E+01 -0.37393496647E+02 -0.60125175706E+03  0.60243404071E+03  0.00000000000E+00 0. -1.
          1    1    1    2  501    0  0.25895867902E+02  0.13083935060E+02 -0.36251341535E+02  0.46432155821E+02  0.00000000000E+00 0. -1.
<mgrwt>
<rscale>  1 0.81203156E+02</rscale>
<asrwt>0</asrwt>
<pdfrwt beam="1">  1       21 0.89900603E-03 0.81203156E+02</pdfrwt>
<pdfrwt beam="2">  1        2 0.34310428E+00 0.81203156E+02</pdfrwt>
<totfact> 0.32301546E+05</totfact>
</mgrwt>
</event>
<event>
 6    2  0.8544106E+000  0.7582366E+02  0.7546771E-02  0.1341339E+00
         21   -1    0    0  501  502  0.00000000000E+00  0.00000000000E+00  0.11922635112E+02  0.11922635112E+02  0.00000000000E+00 0. -1.
          2   -1    0    0  502    0 -0.00000000000E+00 -0.00000000000E+00 -0.93233852639E+03  0.93233852639E+03  0.00000000000E+00 0. -1.
         24    2    1    2    0    0 -0.12469220520E+02  0.24000713950E+02 -0.91309979504E+03  0.91624257848E+03  0.70835804423E+02 0.  0.
        -13    1    3    3    0    0  0.10128037990E+02 -0.21786565202E+02 -0.35493283051E+03  0.35574505724E+03  0.00000000000E+00 0.  1.
         14    1    3    3    0    0 -0.22597258510E+02  0.45787279152E+02 -0.55816696453E+03  0.56049752124E+03  0.00000000000E+00 0. -1.
          1    1    1    2  501    0  0.12469220520E+02 -0.24000713950E+02 -0.73160962419E+01  0.28018583025E+02  0.00000000000E+00 0. -1.
<mgrwt>
<rscale>  1 0.75823657E+02</rscale>
<asrwt>0</asrwt>
<pdfrwt beam="1">  1       21 0.18342521E-02 0.75823657E+02</pdfrwt>
<pdfrwt beam="2">  1        2 0.14343666E+00 0.75823657E+02</pdfrwt>
<totfact> 0.49569539E+05</totfact>
</mgrwt>
</event>
<event>
 6    2  0.8544106E+000  0.7980159E+02  0.7546771E-02  0.1329615E+00
          2   -1    0    0  502    0 -0.00000000000E+00  0.00000000000E+00  0.93260206418E+03  0.93260206418E+03  0.00000000000E+00 0. -1.
         21   -1    0    0  501  502  0.00000000000E+00 -0.00000000000E+00 -0.30408623505E+01  0.30408623505E+01  0.00000000000E+00 0.  1.
         24    2    1    2    0    0 -0.24269708828E+02 -0.55189790118E+01  0.62662435736E+03  0.63168534785E+03  0.75820944102E+02 0.  0.
        -11    1    3    3    0    0  0.10379639488E+02  0.12122311702E+02  0.31688118274E+02  0.35479912580E+02  0.00000000000E+00 0.  1.
         12    1    3    3    0    0 -0.34649348316E+02 -0.17641290713E+02  0.59493623908E+03  0.59620543527E+03  0.00000000000E+00 0. -1.
          1    1    1    2  501    0  0.24269708828E+02  0.55189790118E+01  0.30293684448E+03  0.30395757868E+03  0.00000000000E+00 0. -1.
<mgrwt>
<rscale>  1 0.79801588E+02</rscale>
<asrwt>0</asrwt>
<pdfrwt beam="1">  1       21 0.46782572E-03 0.79801588E+02</pdfrwt>
<pdfrwt beam="2">  1        2 0.14347701E+00 0.79801588E+02</pdfrwt>
<totfact> 0.41645631E+06</totfact>
</mgrwt>
</event>
<event>
 6    2  0.8544106E+000  0.1877120E+03  0.7546771E-02  0.1160541E+00
         21   -1    0    0  501  502  0.00000000000E+00  0.00000000000E+00  0.97625687470E+02  0.97625687470E+02  0.00000000000E+00 0. -1.
          2   -1    0    0  502    0 -0.00000000000E+00 -0.00000000000E+00 -0.38160261311E+03  0.38160261311E+03  0.00000000000E+00 0. -1.
         24    2    1    2    0    0 -0.17064007039E+03 -0.35236770811E+01 -0.23675400524E+03  0.30213946939E+03  0.78136739368E+02 0.  0.
        -13    1    3    3    0    0 -0.46332679071E+02 -0.27724641955E+02 -0.36403597732E+02  0.65119849887E+02  0.00000000000E+00 0.  1.
         14    1    3    3    0    0 -0.12430739132E+03  0.24200964874E+02 -0.20035040751E+03  0.23701961950E+03  0.00000000000E+00 0. -1.
          1    1    1    2  501    0  0.17064007039E+03  0.35236770811E+01 -0.47222920394E+02  0.17708883119E+03  0.00000000000E+00 0. -1.
<mgrwt>
<rscale>  1 0.18771201E+03</rscale>
<asrwt>0</asrwt>
<pdfrwt beam="1">  1       21 0.15019336E-01 0.18771201E+03</pdfrwt>
<pdfrwt beam="2">  1        2 0.58708095E-01 0.18771201E+03</pdfrwt>
<totfact> 0.40995332E+04</totfact>
</mgrwt>
</event>
<event>
 6    2  0.8544106E+000  0.8468658E+02  0.7546771E-02  0.1316254E+00
         21   -1    0    0  501  502  0.00000000000E+00  0.00000000000E+00  0.20474131290E+03  0.20474131290E+03  0.00000000000E+00 0.  1.
          2   -1    0    0  502    0 -0.00000000000E+00 -0.00000000000E+00 -0.22116851967E+02  0.22116851967E+02  0.00000000000E+00 0. -1.
         24    2    1    2    0    0 -0.25270451777E+02 -0.98908101893E+01  0.18081065237E+03  0.19966048554E+03  0.80220905095E+02 0.  0.
        -13    1    3    3    0    0  0.17571029429E+02 -0.19157608802E+02  0.12992198456E+03  0.13249708345E+03  0.00000000000E+00 0.  1.
         14    1    3    3    0    0 -0.42841481205E+02  0.92667986125E+01  0.50888667810E+02  0.67163402087E+02  0.00000000000E+00 0. -1.
          1    1    1    2  501    0  0.25270451777E+02  0.98908101893E+01  0.18138085561E+01  0.27197679325E+02  0.00000000000E+00 0. -1.
<mgrwt>
<rscale>  1 0.84686584E+02</rscale>
<asrwt>0</asrwt>
<pdfrwt beam="1">  1       21 0.31498662E-01 0.84686584E+02</pdfrwt>
<pdfrwt beam="2">  1        2 0.34025928E-02 0.84686584E+02</pdfrwt>
<totfact> 0.28781610E+05</totfact>
</mgrwt>
</event>
<event>
 6    2  0.8544106E+000  0.8521558E+02  0.7546771E-02  0.1314870E+00
         21   -1    0    0  501  502  0.00000000000E+00  0.00000000000E+00  0.12502145089E+01  0.12502145089E+01  0.00000000000E+00 0.  1.
          2   -1    0    0  502    0 -0.00000000000E+00 -0.00000000000E+00 -0.24471376483E+04  0.24471376483E+04  0.00000000000E+00 0. -1.
         24    2    1    2    0    0 -0.94409886283E+01  0.19441865440E+02 -0.21620752886E+04  0.21637539714E+04  0.82429222026E+02 0.  0.
        -11    1    3    3    0    0  0.87061203314E+01 -0.30388093896E+02 -0.68985041753E+03  0.69057427649E+03  0.00000000000E+00 0.  1.
         12    1    3    3    0    0 -0.18147108960E+02  0.49829959336E+02 -0.14722248711E+04  0.14731796949E+04  0.00000000000E+00 0. -1.
          1    1    1    2  501    0  0.94409886283E+01 -0.19441865440E+02 -0.28381214518E+03  0.28463389143E+03  0.00000000000E+00 0. -1.
<mgrwt>
<rscale>  1 0.85215580E+02</rscale>
<asrwt>0</asrwt>
<pdfrwt beam="1">  1       21 0.19234305E-03 0.85215580E+02</pdfrwt>
<pdfrwt beam="2">  1        2 0.37647810E+00 0.85215580E+02</pdfrwt>
<totfact> 0.26216505E+06</totfact>
</mgrwt>
</event>
<event>
 6    2  0.8544106E+000  0.8298798E+02  0.7546771E-02  0.1320780E+00
         21   -1    0    0  501  502  0.00000000000E+00  0.00000000000E+00  0.22713511102E+03  0.22713511102E+03  0.00000000000E+00 0.  1.
          2   -1    0    0  502    0 -0.00000000000E+00 -0.00000000000E+00 -0.15714288649E+02  0.15714288649E+02  0.00000000000E+00 0. -1.
         24    2    1    2    0    0 -0.91137116332E+01  0.18316344061E+02  0.10182089833E+03  0.13135638845E+03  0.80426719763E+02 0.  0.
        -13    1    3    3    0    0  0.23082451833E+01  0.34792459866E+02  0.10537630335E+03  0.11099553399E+03  0.00000000000E+00 0.  1.
         14    1    3    3    0    0 -0.11421956816E+02 -0.16476115805E+02 -0.35554050183E+01  0.20360854461E+02  0.00000000000E+00 0. -1.
          1    1    1    2  501    0  0.91137116332E+01 -0.18316344061E+02  0.10959992404E+03  0.11149301121E+03  0.00000000000E+00 0. -1.
<mgrwt>
<rscale>  1 0.82987984E+02</rscale>
<asrwt>0</asrwt>
<pdfrwt beam="1">  1       21 0.34943861E-01 0.82987984E+02</pdfrwt>
<pdfrwt beam="2">  1        2 0.24175830E-02 0.82987984E+02</pdfrwt>
<totfact> 0.37012645E+05</totfact>
</mgrwt>
</event>
<event>
 6    2  0.8544106E+000  0.8465147E+02  0.7546771E-02  0.1316347E+00
         21   -1    0    0  501  502  0.00000000000E+00  0.00000000000E+00  0.77377342695E+01  0.77377342695E+01  0.00000000000E+00 0.  1.
          2   -1    0    0  502    0 -0.00000000000E+00 -0.00000000000E+00 -0.65577811871E+03  0.65577811871E+03  0.00000000000E+00 0. -1.
         24    2    1    2    0    0 -0.20504923302E+02 -0.12597345316E+02 -0.62322529165E+03  0.62894803820E+03  0.81158644695E+02 0.  0.
        -13    1    3    3    0    0  0.87615750567E+01 -0.32874326688E+02 -0.12799313109E+03  0.13243763876E+03  0.00000000000E+00 0.  1.
         14    1    3    3    0    0 -0.29266498359E+02  0.20276981372E+02 -0.49523216056E+03  0.49651039944E+03  0.00000000000E+00 0. -1.
          1    1    1    2  501    0  0.20504923302E+02  0.12597345316E+02 -0.24815092785E+02  0.34567814778E+02  0.00000000000E+00 0. -1.
<mgrwt>
<rscale>  1 0.84651465E+02</rscale>
<asrwt>0</asrwt>
<pdfrwt beam="1">  1       21 0.11904213E-02 0.84651465E+02</pdfrwt>
<pdfrwt beam="2">  1        2 0.10088889E+00 0.84651465E+02</pdfrwt>
<totfact> 0.15144687E+06</totfact>
</mgrwt>
</event>
<event>
 6    2  0.8544106E+000  0.9583114E+02  0.7546771E-02  0.1289315E+00
         21   -1    0    0  501  502  0.00000000000E+00  0.00000000000E+00  0.11846399509E+02  0.11846399509E+02  0.00000000000E+00 0.  1.
          2   -1    0    0  502    0 -0.00000000000E+00 -0.00000000000E+00 -0.48854483627E+03  0.48854483627E+03  0.00000000000E+00 0. -1.
         24    2    1    2    0    0  0.25948086324E+02 -0.44012966595E+02 -0.36817081049E+03  0.38043836972E+03  0.81075045750E+02 0.  0.
        -13    1    3    3    0    0  0.21551485497E+02 -0.56601057847E+02 -0.14867383998E+03  0.16053677762E+03  0.00000000000E+00 0.  1.
         14    1    3    3    0    0  0.43966008271E+01  0.12588091252E+02 -0.21949697052E+03  0.21990159210E+03  0.00000000000E+00 0. -1.
          1    1    1    2  501    0 -0.25948086324E+02  0.44012966595E+02 -0.10852762627E+03  0.11995286606E+03  0.00000000000E+00 0. -1.
<mgrwt>
<rscale>  1 0.95831140E+02</rscale>
<asrwt>0</asrwt>
<pdfrwt beam="1">  1       21 0.18225235E-02 0.95831140E+02</pdfrwt>
<pdfrwt beam="2">  1        2 0.75160722E-01 0.95831140E+02</pdfrwt>
<totfact> 0.10822540E+06</totfact>
</mgrwt>
</event>
<event>
 6    2  0.8544106E+000  0.9655333E+02  0.7546771E-02  0.1287715E+00
         21   -1    0    0  501  502  0.00000000000E+00  0.00000000000E+00  0.59306019674E+02  0.59306019674E+02  0.00000000000E+00 0.  1.
          4   -1    0    0  502    0 -0.00000000000E+00 -0.00000000000E+00 -0.10113363985E+03  0.10113363985E+03  0.00000000000E+00 0. -1.
         24    2    1    2    0    0 -0.54871158610E+02  0.82278688337E+01 -0.11578439263E+02  0.97245080494E+02  0.79019007535E+02 0.  0.
        -13    1    3    3    0    0 -0.15957656464E+02  0.32074081020E+02  0.20672390067E+02  0.41361107144E+02  0.00000000000E+00 0.  1.
         14    1    3    3    0    0 -0.38913502146E+02 -0.23846212186E+02 -0.32250829330E+02  0.55883973350E+02  0.00000000000E+00 0. -1.
          3    1    1    2  501    0  0.54871158610E+02 -0.82278688337E+01 -0.30249180913E+02  0.63194579029E+02  0.00000000000E+00 0. -1.
<mgrwt>
<rscale>  1 0.96553329E+02</rscale>
<asrwt>0</asrwt>
<pdfrwt beam="1">  1       21 0.91240031E-02 0.96553329E+02</pdfrwt>
<pdfrwt beam="2">  1        4 0.15559021E-01 0.96553329E+02</pdfrwt>
<totfact> 0.12843510E+05</totfact>
</mgrwt>
</event>
<event>
 6    2  0.8544106E+000  0.9437377E+02  0.7546771E-02  0.1292593E+00
         -3   -1    0    0    0  501 -0.00000000000E+00  0.00000000000E+00  0.26044794205E+02  0.26044794205E+02  0.00000000000E+00 0.  1.
         21   -1    0    0  501  502  0.00000000000E+00 -0.00000000000E+00 -0.20387239357E+03  0.20387239357E+03  0.00000000000E+00 0. -1.
         24    2    1    2    0    0  0.50250856887E+02 -0.99668955632E+01 -0.11990928559E+03  0.15259307320E+03  0.79258574246E+02 0.  0.
        -11    1    3    3    0    0 -0.19460987621E+02  0.99710757684E+01 -0.27696761119E+02  0.35288283716E+02  0.00000000000E+00 0.  1.
         12    1    3    3    0    0  0.69711844508E+02 -0.19937971332E+02 -0.92212524474E+02  0.11730478948E+03  0.00000000000E+00 0. -1.
         -4    1    1    2    0  502 -0.50250856887E+02  0.99668955632E+01 -0.57918313776E+02  0.77324114581E+02  0.00000000000E+00 0.  1.
<mgrwt>
<rscale>  1 0.94373774E+02</rscale>
<asrwt>0</asrwt>
<pdfrwt beam="1">  1       21 0.31364985E-01 0.94373774E+02</pdfrwt>
<pdfrwt beam="2">  1       -3 0.40068913E-02 0.94373774E+02</pdfrwt>
<totfact> 0.14372702E+05</totfact>
</mgrwt>
</event>
<event>
 6    2  0.8544106E+000  0.9428505E+02  0.7546771E-02  0.1292795E+00
         21   -1    0    0  501  502  0.00000000000E+00  0.00000000000E+00  0.47257307815E+02  0.47257307815E+02  0.00000000000E+00 0. -1.
          2   -1    0    0  502    0 -0.00000000000E+00 -0.00000000000E+00 -0.16832685517E+03  0.16832685517E+03  0.00000000000E+00 0. -1.
         24    2    1    2    0    0 -0.11011340846E+02 -0.46666372032E+02 -0.10254886031E+02  0.94841092499E+02  0.81182942993E+02 0.  0.
        -13    1    3    3    0    0  0.27986305986E+02 -0.46547784563E+02 -0.12659850843E+02  0.55769179605E+02  0.00000000000E+00 0.  1.
         14    1    3    3    0    0 -0.38997646833E+02 -0.11858746968E+00  0.24049648117E+01  0.39071912894E+02  0.00000000000E+00 0. -1.
          1    1    1    2  501    0  0.11011340846E+02  0.46666372032E+02 -0.11081466133E+03  0.12074307049E+03  0.00000000000E+00 0. -1.
<mgrwt>
<rscale>  1 0.94285047E+02</rscale>
<asrwt>0</asrwt>
<pdfrwt beam="1">  1       21 0.72703551E-02 0.94285047E+02</pdfrwt>
<pdfrwt beam="2">  1        2 0.25896439E-01 0.94285047E+02</pdfrwt>
<totfact> 0.34355691E+05</totfact>
</mgrwt>
</event>
<event>
 6    2  0.8544106E+000  0.7802206E+02  0.7546771E-02  0.1334760E+00
         21   -1    0    0  501  502  0.00000000000E+00  0.00000000000E+00  0.44545879739E+03  0.44545879739E+03  0.00000000000E+00 0. -1.
         -1   -1    0    0    0  501 -0.00000000000E+00 -0.00000000000E+00 -0.10903187611E+02  0.10903187611E+02  0.00000000000E+00 0.  1.
         24    2    1    2    0    0  0.11746411240E+02  0.51424101770E+02  0.33189805176E+03  0.34094538897E+03  0.57489347542E+02 0.  0.
        -13    1    3    3    0    0  0.13998152133E+02 -0.29640832720E+01  0.21603311926E+02  0.25912104101E+02  0.00000000000E+00 0.  1.
         14    1    3    3    0    0 -0.22517408927E+01  0.54388185042E+02  0.31029473983E+03  0.31503328487E+03  0.00000000000E+00 0. -1.
         -2    1    1    2    0  502 -0.11746411240E+02 -0.51424101770E+02  0.10265755801E+03  0.11541659602E+03  0.00000000000E+00 0.  1.
<mgrwt>
<rscale>  1 0.78022058E+02</rscale>
<asrwt>0</asrwt>
<pdfrwt beam="1">  1       21 0.68532109E-01 0.78022058E+02</pdfrwt>
<pdfrwt beam="2">  1       -1 0.16774138E-02 0.78022058E+02</pdfrwt>
<totfact> 0.14239791E+05</totfact>
</mgrwt>
</event>
<event>
 6    2  0.8544106E+000  0.9186811E+02  0.7546771E-02  0.1298390E+00
         21   -1    0    0  501  502  0.00000000000E+00  0.00000000000E+00  0.11739909345E+02  0.11739909345E+02  0.00000000000E+00 0. -1.
          4   -1    0    0  502    0 -0.00000000000E+00 -0.00000000000E+00 -0.45923788717E+03  0.45923788717E+03  0.00000000000E+00 0. -1.
         24    2    1    2    0    0  0.21548753417E+02  0.38270615555E+02 -0.37605889649E+03  0.38711760852E+03  0.80689283099E+02 0.  0.
        -13    1    3    3    0    0 -0.13529105341E+02  0.10013411185E+02 -0.12979795054E+02  0.21255121136E+02  0.00000000000E+00 0.  1.
         14    1    3    3    0    0  0.35077858758E+02  0.28257204370E+02 -0.36307910144E+03  0.36586248738E+03  0.00000000000E+00 0. -1.
          3    1    1    2  501    0 -0.21548753417E+02 -0.38270615555E+02 -0.71439081332E+02  0.83860187994E+02  0.00000000000E+00 0. -1.
<mgrwt>
<rscale>  1 0.91868108E+02</rscale>
<asrwt>0</asrwt>
<pdfrwt beam="1">  1       21 0.18061401E-02 0.91868108E+02</pdfrwt>
<pdfrwt beam="2">  1        4 0.70651976E-01 0.91868108E+02</pdfrwt>
<totfact> 0.10235283E+05</totfact>
</mgrwt>
</event>
<event>
 6    2  0.8544106E+000  0.8441968E+02  0.7546771E-02  0.1316957E+00
         21   -1    0    0  501  502  0.00000000000E+00  0.00000000000E+00  0.13086095946E+02  0.13086095946E+02  0.00000000000E+00 0. -1.
          2   -1    0    0  502    0 -0.00000000000E+00 -0.00000000000E+00 -0.50954176833E+03  0.50954176833E+03  0.00000000000E+00 0. -1.
         24    2    1    2    0    0  0.16895062297E+02  0.20945627917E+02 -0.48675678701E+03  0.49402312977E+03  0.80015752111E+02 0.  0.
        -11    1    3    3    0    0 -0.21334434236E+02 -0.26162070427E+01 -0.43738061614E+02  0.48734183662E+02  0.00000000000E+00 0.  1.
         12    1    3    3    0    0  0.38229496533E+02  0.23561834960E+02 -0.44301872540E+03  0.44528894611E+03  0.00000000000E+00 0. -1.
          1    1    1    2  501    0 -0.16895062297E+02 -0.20945627917E+02 -0.96988853752E+01  0.28604734510E+02  0.00000000000E+00 0. -1.
<mgrwt>
<rscale>  1 0.84419684E+02</rscale>
<asrwt>0</asrwt>
<pdfrwt beam="1">  1       21 0.20132454E-02 0.84419684E+02</pdfrwt>
<pdfrwt beam="2">  1        2 0.78391047E-01 0.84419684E+02</pdfrwt>
<totfact> 0.87164259E+05</totfact>
</mgrwt>
</event>
<event>
 6    2  0.8544106E+000  0.8528130E+02  0.7546771E-02  0.1314699E+00
          2   -1    0    0  502    0 -0.00000000000E+00  0.00000000000E+00  0.11501456698E+04  0.11501456698E+04  0.00000000000E+00 0. -1.
         21   -1    0    0  501  502  0.00000000000E+00 -0.00000000000E+00 -0.29726923965E+01  0.29726923965E+01  0.00000000000E+00 0.  1.
         24    2    1    2    0    0  0.24343985142E+01 -0.29083613277E+02  0.94649120172E+03  0.95032546797E+03  0.80131874317E+02 0.  0.
        -13    1    3    3    0    0 -0.71754058672E+01 -0.10408214132E+02  0.20422683666E+02  0.24018813020E+02  0.00000000000E+00 0.  1.
         14    1    3    3    0    0  0.96098043814E+01 -0.18675399145E+02  0.92606851806E+03  0.92630665495E+03  0.00000000000E+00 0. -1.
          1    1    1    2  501    0 -0.24343985142E+01  0.29083613277E+02  0.20068177570E+03  0.20279289424E+03  0.00000000000E+00 0. -1.
<mgrwt>
<rscale>  1 0.85281300E+02</rscale>
<asrwt>0</asrwt>
<pdfrwt beam="1">  1       21 0.45733821E-03 0.85281300E+02</pdfrwt>
<pdfrwt beam="2">  1        2 0.17694513E+00 0.85281300E+02</pdfrwt>
<totfact> 0.32582736E+06</totfact>
</mgrwt>
</event>
<event>
 6    2  0.8544106E+000  0.1110573E+03  0.7546771E-02  0.1258624E+00
         21   -1    0    0  501  502  0.00000000000E+00  0.00000000000E+00  0.95255131330E+03  0.95255131330E+03  0.00000000000E+00 0. -1.
         -1   -1    0    0    0  501 -0.00000000000E+00 -0.00000000000E+00 -0.87904834600E+01  0.87904834600E+01  0.00000000000E+00 0.  1.
         24    2    1    2    0    0  0.69496831777E+02 -0.17188677127E+02  0.60303261454E+03  0.61317376700E+03  0.84902733079E+02 0.  0.
        -11    1    3    3    0    0  0.32388190830E+02 -0.22900072295E+02  0.85192241970E+02  0.93974072532E+02  0.00000000000E+00 0.  1.
         12    1    3    3    0    0  0.37108640947E+02  0.57113951681E+01  0.51784037257E+03  0.51919969446E+03  0.00000000000E+00 0. -1.
         -2    1    1    2    0  502 -0.69496831777E+02  0.17188677127E+02  0.34072821530E+03  0.34816802977E+03  0.00000000000E+00 0.  1.
<mgrwt>
<rscale>  1 0.11105735E+03</rscale>
<asrwt>0</asrwt>
<pdfrwt beam="1">  1       21 0.14654627E+00 0.11105735E+03</pdfrwt>
<pdfrwt beam="2">  1       -1 0.13523828E-02 0.11105735E+03</pdfrwt>
<totfact> 0.33549191E+04</totfact>
</mgrwt>
</event>
<event>
 6    2  0.8544106E+000  0.8668347E+02  0.7546771E-02  0.1311088E+00
         21   -1    0    0  501  502  0.00000000000E+00  0.00000000000E+00  0.13380542924E+03  0.13380542924E+03  0.00000000000E+00 0. -1.
          2   -1    0    0  502    0 -0.00000000000E+00 -0.00000000000E+00 -0.12861108490E+03  0.12861108490E+03  0.00000000000E+00 0. -1.
         24    2    1    2    0    0  0.21563375477E+02  0.24513294164E+02 -0.11150567602E+03  0.14123575864E+03  0.80300329893E+02 0.  0.
        -13    1    3    3    0    0  0.35999474226E+01  0.15041697807E+01  0.12886620337E+02  0.13464290991E+02  0.00000000000E+00 0.  1.
         14    1    3    3    0    0  0.17963428055E+02  0.23009124383E+02 -0.12439229635E+03  0.12777146765E+03  0.00000000000E+00 0. -1.
          1    1    1    2  501    0 -0.21563375477E+02 -0.24513294164E+02  0.11670002036E+03  0.12118075550E+03  0.00000000000E+00 0. -1.
<mgrwt>
<rscale>  1 0.86683469E+02</rscale>
<asrwt>0</asrwt>
<pdfrwt beam="1">  1       21 0.20585451E-01 0.86683469E+02</pdfrwt>
<pdfrwt beam="2">  1        2 0.19786321E-01 0.86683469E+02</pdfrwt>
<totfact> 0.73581963E+04</totfact>
</mgrwt>
</event>
<event>
 6    2  0.8544106E+000  0.8438663E+02  0.7546771E-02  0.1317044E+00
         21   -1    0    0  501  502  0.00000000000E+00  0.00000000000E+00  0.24711192763E+02  0.24711192763E+02  0.00000000000E+00 0. -1.
         -1   -1    0    0    0  501 -0.00000000000E+00 -0.00000000000E+00 -0.13334497647E+03  0.13334497647E+03  0.00000000000E+00 0.  1.
         24    2    1    2    0    0  0.23037077530E+02  0.39749723149E+01 -0.58325329398E+02  0.10258141893E+03  0.81083883198E+02 0.  0.
        -13    1    3    3    0    0  0.22350187834E+02  0.21062492409E+02 -0.73537899551E+02  0.79693049590E+02  0.00000000000E+00 0.  1.
         14    1    3    3    0    0  0.68688969579E+00 -0.17087520094E+02  0.15212570153E+02  0.22888369341E+02  0.00000000000E+00 0. -1.
         -2    1    1    2    0  502 -0.23037077530E+02 -0.39749723149E+01 -0.50308454314E+02  0.55474750306E+02  0.00000000000E+00 0.  1.
<mgrwt>
<rscale>  1 0.84386631E+02</rscale>
<asrwt>0</asrwt>
<pdfrwt beam="1">  1       21 0.38017220E-02 0.84386631E+02</pdfrwt>
<pdfrwt beam="2">  1       -1 0.20514612E-01 0.84386631E+02</pdfrwt>
<totfact> 0.68873499E+05</totfact>
</mgrwt>
</event>
<event>
 6    2  0.8544106E+000  0.8648784E+02  0.7546771E-02  0.1311587E+00
          2   -1    0    0  502    0 -0.00000000000E+00  0.00000000000E+00  0.70429698288E+03  0.70429698288E+03  0.00000000000E+00 0. -1.
         21   -1    0    0  501  502  0.00000000000E+00 -0.00000000000E+00 -0.50196703830E+01  0.50196703830E+01  0.00000000000E+00 0.  1.
         24    2    1    2    0    0 -0.27198888071E+02 -0.24474808021E+01  0.42684255267E+03  0.43551660206E+03  0.82063245298E+02 0.  0.
        -11    1    3    3    0    0 -0.26718047379E+02 -0.37524857640E+02  0.16411527572E+03  0.17045759802E+03  0.00000000000E+00 0.  1.
         12    1    3    3    0    0 -0.48084069208E+00  0.35077376837E+02  0.26272727694E+03  0.26505900404E+03  0.00000000000E+00 0. -1.
          1    1    1    2  501    0  0.27198888071E+02  0.24474808021E+01  0.27243475983E+03  0.27380005120E+03  0.00000000000E+00 0. -1.
<mgrwt>
<rscale>  1 0.86487837E+02</rscale>
<asrwt>0</asrwt>
<pdfrwt beam="1">  1       21 0.77225754E-03 0.86487837E+02</pdfrwt>
<pdfrwt beam="2">  1        2 0.10835330E+00 0.86487837E+02</pdfrwt>
<totfact> 0.27448261E+06</totfact>
</mgrwt>
</event>
<event>
 6    2  0.8544106E+000  0.1061557E+03  0.7546771E-02  0.1267859E+00
         21   -1    0    0  501  502  0.00000000000E+00  0.00000000000E+00  0.19330071961E+02  0.19330071961E+02  0.00000000000E+00 0. -1.
         -1   -1    0    0    0  501 -0.00000000000E+00 -0.00000000000E+00 -0.42953158245E+03  0.42953158245E+03  0.00000000000E+00 0.  1.
         24    2    1    2    0    0 -0.20299214189E+01 -0.68283288077E+02 -0.18244839141E+03  0.21108400352E+03  0.81254618352E+02 0.  0.
        -13    1    3    3    0    0  0.43584669117E+01 -0.83192618993E+02 -0.17372543704E+03  0.19266690313E+03  0.00000000000E+00 0.  1.
         14    1    3    3    0    0 -0.63883883305E+01  0.14909330916E+02 -0.87229543731E+01  0.18417100391E+02  0.00000000000E+00 0. -1.
         -2    1    1    2    0  502  0.20299214189E+01  0.68283288077E+02 -0.22775311908E+03  0.23777765089E+03  0.00000000000E+00 0.  1.
<mgrwt>
<rscale>  1 0.10615574E+03</rscale>
<asrwt>0</asrwt>
<pdfrwt beam="1">  1       21 0.29738570E-02 0.10615574E+03</pdfrwt>
<pdfrwt beam="2">  1       -1 0.66081786E-01 0.10615574E+03</pdfrwt>
<totfact> 0.13917109E+05</totfact>
</mgrwt>
</event>
<event>
 6    2  0.8544106E+000  0.8249615E+02  0.7546771E-02  0.1322113E+00
          2   -1    0    0  502    0 -0.00000000000E+00  0.00000000000E+00  0.15414654247E+04  0.15414654247E+04  0.00000000000E+00 0. -1.
         21   -1    0    0  501  502  0.00000000000E+00 -0.00000000000E+00 -0.17280581600E+01  0.17280581600E+01  0.00000000000E+00 0.  1.
         24    2    1    2    0    0  0.16424662831E+02  0.12158154151E+02  0.12777538746E+04  0.12804142213E+04  0.79925113502E+02 0.  0.
        -13    1    3    3    0    0  0.45887772349E+01  0.46278844968E+01  0.69306608147E+01  0.95135824354E+01  0.00000000000E+00 0.  1.
         14    1    3    3    0    0  0.11835885597E+02  0.75302696541E+01  0.12708232138E+04  0.12709006388E+04  0.00000000000E+00 0. -1.
          1    1    1    2  501    0 -0.16424662831E+02 -0.12158154151E+02  0.26198349196E+03  0.26277926159E+03  0.00000000000E+00 0. -1.
<mgrwt>
<rscale>  1 0.82496146E+02</rscale>
<asrwt>0</asrwt>
<pdfrwt beam="1">  1       21 0.26585633E-03 0.82496146E+02</pdfrwt>
<pdfrwt beam="2">  1        2 0.23714743E+00 0.82496146E+02</pdfrwt>
<totfact> 0.46096136E+06</totfact>
</mgrwt>
</event>
<event>
 6    2  0.8544106E+000  0.8217596E+02  0.7546771E-02  0.1322987E+00
         -3   -1    0    0    0  501 -0.00000000000E+00  0.00000000000E+00  0.20711589323E+04  0.20711589323E+04  0.00000000000E+00 0.  1.
         21   -1    0    0  501  502  0.00000000000E+00 -0.00000000000E+00 -0.17132360966E+01  0.17132360966E+01  0.00000000000E+00 0. -1.
         24    2    1    2    0    0  0.92548933276E+01  0.21744819557E+02  0.19011667332E+04  0.19029418897E+04  0.78704497491E+02 0.  0.
        -13    1    3    3    0    0  0.10835293929E+02 -0.82124719795E+01  0.16402353312E+04  0.16402916783E+04  0.00000000000E+00 0.  1.
         14    1    3    3    0    0 -0.15804006014E+01  0.29957291537E+02  0.26093140200E+03  0.26265021136E+03  0.00000000000E+00 0. -1.
         -4    1    1    2    0  502 -0.92548933276E+01 -0.21744819557E+02  0.16827896303E+03  0.16993027873E+03  0.00000000000E+00 0.  1.
<mgrwt>
<rscale>  1 0.82175958E+02</rscale>
<asrwt>0</asrwt>
<pdfrwt beam="1">  1       21 0.26357644E-03 0.82175958E+02</pdfrwt>
<pdfrwt beam="2">  1       -3 0.31863783E+00 0.82175958E+02</pdfrwt>
<totfact> 0.49692744E+04</totfact>
</mgrwt>
</event>
<event>
 6    2  0.8544106E+000  0.8302502E+02  0.7546771E-02  0.1320680E+00
          2   -1    0    0  502    0 -0.00000000000E+00  0.00000000000E+00  0.92427581496E+03  0.92427581496E+03  0.00000000000E+00 0. -1.
         21   -1    0    0  501  502  0.00000000000E+00 -0.00000000000E+00 -0.39609350076E+01  0.39609350076E+01  0.00000000000E+00 0. -1.
         24    2    1    2    0    0 -0.63806430643E+00  0.23341459664E+02  0.85211773922E+03  0.85615290386E+03  0.79673850372E+02 0.  0.
        -13    1    3    3    0    0 -0.71157614219E+01  0.30350527180E+02  0.12031470854E+03  0.12428764079E+03  0.00000000000E+00 0.  1.
         14    1    3    3    0    0  0.64776971155E+01 -0.70090675167E+01  0.73180303068E+03  0.73186526307E+03  0.00000000000E+00 0. -1.
          1    1    1    2  501    0  0.63806430643E+00 -0.23341459664E+02  0.68197140737E+02  0.72083846110E+02  0.00000000000E+00 0. -1.
<mgrwt>
<rscale>  1 0.83025016E+02</rscale>
<asrwt>0</asrwt>
<pdfrwt beam="1">  1       21 0.60937535E-03 0.83025016E+02</pdfrwt>
<pdfrwt beam="2">  1        2 0.14219611E+00 0.83025016E+02</pdfrwt>
<totfact> 0.28234709E+06</totfact>
</mgrwt>
</event>
<event>
 6    2  0.8544106E+000  0.1163915E+03  0.7546771E-02  0.1249171E+00
          2   -1    0    0  502    0 -0.00000000000E+00  0.00000000000E+00  0.88096399581E+03  0.88096399581E+03  0.00000000000E+00 0. -1.
         21   -1    0    0  501  502  0.00000000000E+00 -0.00000000000E+00 -0.12513601477E+02  0.12513601477E+02  0.00000000000E+00 0. -1.
         24    2    1    2    0    0  0.72895415031E+02 -0.39740162816E+02  0.63795175349E+03  0.64848240242E+03  0.81571835861E+02 0.  0.
        -11    1    3    3    0    0 -0.95617204839E+01 -0.25274568648E+02  0.83975797405E+02  0.88216579331E+02  0.00000000000E+00 0.  1.
         12    1    3    3    0    0  0.82457135515E+02 -0.14465594168E+02  0.55397595608E+03  0.56026582309E+03  0.00000000000E+00 0. -1.
          1    1    1    2  501    0 -0.72895415031E+02  0.39740162816E+02  0.23049864085E+03  0.24499519486E+03  0.00000000000E+00 0. -1.
<mgrwt>
<rscale>  1 0.11639152E+03</rscale>
<asrwt>0</asrwt>
<pdfrwt beam="1">  1       21 0.19251701E-02 0.11639152E+03</pdfrwt>
<pdfrwt beam="2">  1        2 0.13553287E+00 0.11639152E+03</pdfrwt>
<totfact> 0.50706168E+05</totfact>
</mgrwt>
</event>
<event>
 6    2  0.8544106E+000  0.8645164E+02  0.7546771E-02  0.1311679E+00
         21   -1    0    0  501  502  0.00000000000E+00  0.00000000000E+00  0.33375641758E+01  0.33375641758E+01  0.00000000000E+00 0.  1.
          2   -1    0    0  502    0 -0.00000000000E+00 -0.00000000000E+00 -0.12328772841E+04  0.12328772841E+04  0.00000000000E+00 0. -1.
         24    2    1    2    0    0 -0.72572373518E+01 -0.30305962296E+02 -0.63486356915E+03  0.64072274661E+03  0.80639740496E+02 0.  0.
        -13    1    3    3    0    0 -0.38030888930E+02 -0.27926603395E+02 -0.23622470326E+03  0.24089075143E+03  0.00000000000E+00 0.  1.
         14    1    3    3    0    0  0.30773651578E+02 -0.23793589010E+01 -0.39863886589E+03  0.39983199519E+03  0.00000000000E+00 0. -1.
          1    1    1    2  501    0  0.72572373518E+01  0.30305962296E+02 -0.59467615081E+03  0.59549210170E+03  0.00000000000E+00 0. -1.
<mgrwt>
<rscale>  1 0.86451643E+02</rscale>
<asrwt>0</asrwt>
<pdfrwt beam="1">  1       21 0.51347010E-03 0.86451643E+02</pdfrwt>
<pdfrwt beam="2">  1        2 0.18967391E+00 0.86451643E+02</pdfrwt>
<totfact> 0.24646658E+06</totfact>
</mgrwt>
</event>
<event>
 6    2  0.8544106E+000  0.8979926E+02  0.7546771E-02  0.1303339E+00
          4   -1    0    0  502    0 -0.00000000000E+00  0.00000000000E+00  0.88286143592E+02  0.88286143592E+02  0.00000000000E+00 0. -1.
         21   -1    0    0  501  502  0.00000000000E+00 -0.00000000000E+00 -0.50255248985E+02  0.50255248985E+02  0.00000000000E+00 0.  1.
         24    2    1    2    0    0  0.90601004650E+01 -0.38851554753E+02  0.40629270046E+02  0.98562894830E+02  0.80451090269E+02 0.  0.
        -11    1    3    3    0    0 -0.61682314992E+01 -0.25000951235E+02 -0.21226677041E+02  0.33371641564E+02  0.00000000000E+00 0.  1.
         12    1    3    3    0    0  0.15228331964E+02 -0.13850603519E+02  0.61855947087E+02  0.65191253266E+02  0.00000000000E+00 0. -1.
          3    1    1    2  501    0 -0.90601004650E+01  0.38851554753E+02 -0.25983754388E+01  0.39978497747E+02  0.00000000000E+00 0. -1.
<mgrwt>
<rscale>  1 0.89799258E+02</rscale>
<asrwt>0</asrwt>
<pdfrwt beam="1">  1       21 0.77315768E-02 0.89799258E+02</pdfrwt>
<pdfrwt beam="2">  1        4 0.13582484E-01 0.89799258E+02</pdfrwt>
<totfact> 0.21301061E+05</totfact>
</mgrwt>
</event>
<event>
 6    2  0.8544106E+000  0.8281837E+02  0.7546771E-02  0.1321238E+00
         -3   -1    0    0    0  501 -0.00000000000E+00  0.00000000000E+00  0.99823608501E+02  0.99823608501E+02  0.00000000000E+00 0.  1.
         21   -1    0    0  501  502  0.00000000000E+00 -0.00000000000E+00 -0.12864953108E+03  0.12864953108E+03  0.00000000000E+00 0.  1.
         24    2    1    2    0    0 -0.77045051060E+00 -0.21613691586E+02  0.81412627835E+02  0.11613310551E+03  0.79944586849E+02 0.  0.
        -13    1    3    3    0    0 -0.25717460196E+02 -0.42901706660E+02  0.48641315704E+02  0.69770493668E+02  0.00000000000E+00 0.  1.
         14    1    3    3    0    0  0.24947009686E+02  0.21288015074E+02  0.32771312130E+02  0.46362611842E+02  0.00000000000E+00 0. -1.
         -4    1    1    2    0  502  0.77045051060E+00  0.21613691586E+02 -0.11023855042E+03  0.11234003408E+03  0.00000000000E+00 0.  1.
<mgrwt>
<rscale>  1 0.82818369E+02</rscale>
<asrwt>0</asrwt>
<pdfrwt beam="1">  1       21 0.19792235E-01 0.82818369E+02</pdfrwt>
<pdfrwt beam="2">  1       -3 0.15357478E-01 0.82818369E+02</pdfrwt>
<totfact> 0.38322072E+04</totfact>
</mgrwt>
</event>
<event>
 6    2  0.8544106E+000  0.8468853E+02  0.7546771E-02  0.1316249E+00
          4   -1    0    0  502    0 -0.00000000000E+00  0.00000000000E+00  0.21874036965E+03  0.21874036965E+03  0.00000000000E+00 0. -1.
         21   -1    0    0  501  502  0.00000000000E+00 -0.00000000000E+00 -0.13284277591E+03  0.13284277591E+03  0.00000000000E+00 0. -1.
         24    2    1    2    0    0 -0.23466527876E+01 -0.25867889955E+02  0.20913852655E+03  0.22563481476E+03  0.80607020989E+02 0.  0.
        -11    1    3    3    0    0  0.22365997979E+02  0.18545532980E+02  0.43000766743E+02  0.51896441107E+02  0.00000000000E+00 0.  1.
         12    1    3    3    0    0 -0.24712650766E+02 -0.44413422935E+02  0.16613775981E+03  0.17373837365E+03  0.00000000000E+00 0. -1.
          3    1    1    2  501    0  0.23466527876E+01  0.25867889955E+02 -0.12324093281E+03  0.12594833080E+03  0.00000000000E+00 0. -1.
<mgrwt>
<rscale>  1 0.84688525E+02</rscale>
<asrwt>0</asrwt>
<pdfrwt beam="1">  1       21 0.20437350E-01 0.84688525E+02</pdfrwt>
<pdfrwt beam="2">  1        4 0.33652365E-01 0.84688525E+02</pdfrwt>
<totfact> 0.74486767E+03</totfact>
</mgrwt>
</event>
<event>
 6    2  0.8544106E+000  0.8789313E+02  0.7546771E-02  0.1308035E+00
         21   -1    0    0  501  502  0.00000000000E+00  0.00000000000E+00  0.11705151670E+02  0.11705151670E+02  0.00000000000E+00 0. -1.
          2   -1    0    0  502    0 -0.00000000000E+00 -0.00000000000E+00 -0.78400154037E+03  0.78400154037E+03  0.00000000000E+00 0. -1.
         24    2    1    2    0    0  0.22999991120E+02  0.26590928927E+02 -0.74758274550E+03  0.75273180108E+03  0.80555110944E+02 0.  0.
        -11    1    3    3    0    0  0.39128481916E+02  0.29338440163E+02 -0.24240730940E+03  0.24729149969E+03  0.00000000000E+00 0.  1.
         12    1    3    3    0    0 -0.16128490797E+02 -0.27475112357E+01 -0.50517543610E+03  0.50544030139E+03  0.00000000000E+00 0. -1.
          1    1    1    2  501    0 -0.22999991120E+02 -0.26590928927E+02 -0.24713643203E+02  0.42974890960E+02  0.00000000000E+00 0. -1.
<mgrwt>
<rscale>  1 0.87893134E+02</rscale>
<asrwt>0</asrwt>
<pdfrwt beam="1">  1       21 0.18007926E-02 0.87893134E+02</pdfrwt>
<pdfrwt beam="2">  1        2 0.12061562E+00 0.87893134E+02</pdfrwt>
<totfact> 0.64060373E+05</totfact>
</mgrwt>
</event>
<event>
 6    2  0.8544106E+000  0.8421655E+02  0.7546771E-02  0.1317494E+00
          2   -1    0    0  502    0 -0.00000000000E+00  0.00000000000E+00  0.22996690317E+04  0.22996690317E+04  0.00000000000E+00 0. -1.
         21   -1    0    0  501  502  0.00000000000E+00 -0.00000000000E+00 -0.12301676522E+01  0.12301676522E+01  0.00000000000E+00 0.  1.
         24    2    1    2    0    0  0.19878549132E+02 -0.44385120265E+01  0.16592050000E+04  0.16613409221E+04  0.81716400981E+02 0.  0.
        -11    1    3    3    0    0  0.53080030766E+01 -0.10971902885E+02  0.35074078283E+02  0.37131503026E+02  0.00000000000E+00 0.  1.
         12    1    3    3    0    0  0.14570546056E+02  0.65333908585E+01  0.16241309217E+04  0.16242094190E+04  0.00000000000E+00 0. -1.
          1    1    1    2  501    0 -0.19878549132E+02  0.44385120265E+01  0.63923386408E+03  0.63955827732E+03  0.00000000000E+00 0. -1.
<mgrwt>
<rscale>  1 0.84216550E+02</rscale>
<asrwt>0</asrwt>
<pdfrwt beam="1">  1       21 0.18925840E-03 0.84216550E+02</pdfrwt>
<pdfrwt beam="2">  1        2 0.35379180E+00 0.84216550E+02</pdfrwt>
<totfact> 0.31971332E+06</totfact>
</mgrwt>
</event>
<event>
 6    2  0.8544106E+000  0.1116204E+03  0.7546771E-02  0.1257598E+00
          2   -1    0    0  502    0 -0.00000000000E+00  0.00000000000E+00  0.21146297762E+03  0.21146297762E+03  0.00000000000E+00 0. -1.
         21   -1    0    0  501  502  0.00000000000E+00 -0.00000000000E+00 -0.12443918534E+03  0.12443918534E+03  0.00000000000E+00 0. -1.
         24    2    1    2    0    0 -0.83288214262E+01  0.75661193057E+02  0.18241957848E+03  0.21385978743E+03  0.81640190256E+02 0.  0.
        -11    1    3    3    0    0  0.78011660669E+01  0.11088185743E+02 -0.54020389571E+01  0.14594111140E+02  0.00000000000E+00 0.  1.
         12    1    3    3    0    0 -0.16129987493E+02  0.64573007314E+02  0.18782161744E+03  0.19926567629E+03  0.00000000000E+00 0. -1.
          1    1    1    2  501    0  0.83288214262E+01 -0.75661193057E+02 -0.95395786201E+02  0.12204237553E+03  0.00000000000E+00 0. -1.
<mgrwt>
<rscale>  1 0.11162037E+03</rscale>
<asrwt>0</asrwt>
<pdfrwt beam="1">  1       21 0.19144490E-01 0.11162037E+03</pdfrwt>
<pdfrwt beam="2">  1        2 0.32532766E-01 0.11162037E+03</pdfrwt>
<totfact> 0.49212056E+04</totfact>
</mgrwt>
</event>
<event>
 6    2  0.8544106E+000  0.8465833E+02  0.7546771E-02  0.1316328E+00
          2   -1    0    0  502    0 -0.00000000000E+00  0.00000000000E+00  0.11399366776E+04  0.11399366776E+04  0.00000000000E+00 0. -1.
         21   -1    0    0  501  502  0.00000000000E+00 -0.00000000000E+00 -0.27264771523E+01  0.27264771523E+01  0.00000000000E+00 0. -1.
         24    2    1    2    0    0  0.99828047679E+01 -0.24131568327E+02  0.92060327081E+03  0.92448764983E+03  0.80529767670E+02 0.  0.
        -11    1    3    3    0    0  0.11492446615E+02  0.25338854901E+02  0.17068051383E+03  0.17293343141E+03  0.00000000000E+00 0.  1.
         12    1    3    3    0    0 -0.15096418475E+01 -0.49470423228E+02  0.74992275698E+03  0.75155421842E+03  0.00000000000E+00 0. -1.
          1    1    1    2  501    0 -0.99828047679E+01  0.24131568327E+02  0.21660692961E+03  0.21817550490E+03  0.00000000000E+00 0. -1.
<mgrwt>
<rscale>  1 0.84658328E+02</rscale>
<asrwt>0</asrwt>
<pdfrwt beam="1">  1       21 0.41945893E-03 0.84658328E+02</pdfrwt>
<pdfrwt beam="2">  1        2 0.17537449E+00 0.84658328E+02</pdfrwt>
<totfact> 0.37629298E+06</totfact>
</mgrwt>
</event>
<event>
 6    2  0.8544106E+000  0.8558326E+02  0.7546771E-02  0.1313914E+00
          4   -1    0    0  502    0 -0.00000000000E+00  0.00000000000E+00  0.20485660007E+02  0.20485660007E+02  0.00000000000E+00 0. -1.
         21   -1    0    0  501  502  0.00000000000E+00 -0.00000000000E+00 -0.22098613525E+03  0.22098613525E+03  0.00000000000E+00 0. -1.
         24    2    1    2    0    0  0.28860127273E+02 -0.11034784532E+02 -0.80275339961E+02  0.11733978259E+03  0.79811158091E+02 0.  0.
        -11    1    3    3    0    0 -0.97202067436E+00  0.94030748222E+01 -0.80624173906E+02  0.81176474784E+02  0.00000000000E+00 0.  1.
         12    1    3    3    0    0  0.29832147947E+02 -0.20437859355E+02  0.34883394512E+00  0.36163307803E+02  0.00000000000E+00 0. -1.
          3    1    1    2  501    0 -0.28860127273E+02  0.11034784532E+02 -0.12022513529E+03  0.12413201267E+03  0.00000000000E+00 0. -1.
<mgrwt>
<rscale>  1 0.85583260E+02</rscale>
<asrwt>0</asrwt>
<pdfrwt beam="1">  1       21 0.33997868E-01 0.85583260E+02</pdfrwt>
<pdfrwt beam="2">  1        4 0.31516399E-02 0.85583260E+02</pdfrwt>
<totfact> 0.15663697E+05</totfact>
</mgrwt>
</event>
<event>
 6    2  0.8544106E+000  0.8914378E+02  0.7546771E-02  0.1304938E+00
         21   -1    0    0  501  502  0.00000000000E+00  0.00000000000E+00  0.56850037672E+03  0.56850037672E+03  0.00000000000E+00 0.  1.
          2   -1    0    0  502    0 -0.00000000000E+00 -0.00000000000E+00 -0.70538283255E+01  0.70538283255E+01  0.00000000000E+00 0. -1.
         24    2    1    2    0    0 -0.30716809354E+02 -0.13633931928E+02  0.46372209256E+03  0.47221265607E+03  0.82566379033E+02 0.  0.
        -13    1    3    3    0    0 -0.14795182624E+02  0.64574386826E+00  0.44009246086E+03  0.44034155893E+03  0.00000000000E+00 0.  1.
         14    1    3    3    0    0 -0.15921626730E+02 -0.14279675796E+02  0.23629631695E+02  0.31871097135E+02  0.00000000000E+00 0. -1.
          1    1    1    2  501    0  0.30716809354E+02  0.13633931928E+02  0.97724455832E+02  0.10334154897E+03  0.00000000000E+00 0. -1.
<mgrwt>
<rscale>  1 0.89143779E+02</rscale>
<asrwt>0</asrwt>
<pdfrwt beam="1">  1       21 0.87461560E-01 0.89143779E+02</pdfrwt>
<pdfrwt beam="2">  1        2 0.10852048E-02 0.89143779E+02</pdfrwt>
<totfact> 0.16352795E+05</totfact>
</mgrwt>
</event>
<event>
 6    2  0.8544106E+000  0.8630799E+02  0.7546771E-02  0.1312047E+00
         21   -1    0    0  501  502  0.00000000000E+00  0.00000000000E+00  0.13119889401E+02  0.13119889401E+02  0.00000000000E+00 0.  1.
          2   -1    0    0  502    0 -0.00000000000E+00 -0.00000000000E+00 -0.34276024293E+03  0.34276024293E+03  0.00000000000E+00 0. -1.
         24    2    1    2    0    0  0.28111358518E+02 -0.10854314860E+02 -0.14457564503E+03  0.16837810311E+03  0.80876472742E+02 0.  0.
        -11    1    3    3    0    0  0.21219184473E+02 -0.36341560933E+02 -0.32326682664E+02  0.53065782316E+02  0.00000000000E+00 0.  1.
         12    1    3    3    0    0  0.68921740452E+01  0.25487246073E+02 -0.11224896236E+03  0.11531232080E+03  0.00000000000E+00 0. -1.
          1    1    1    2  501    0 -0.28111358518E+02  0.10854314860E+02 -0.18506470850E+03  0.18750202922E+03  0.00000000000E+00 0. -1.
<mgrwt>
<rscale>  1 0.86307986E+02</rscale>
<asrwt>0</asrwt>
<pdfrwt beam="1">  1       21 0.20184448E-02 0.86307986E+02</pdfrwt>
<pdfrwt beam="2">  1        2 0.52732338E-01 0.86307986E+02</pdfrwt>
<totfact> 0.13230049E+06</totfact>
</mgrwt>
</event>
<event>
 6    2  0.8544106E+000  0.9379094E+02  0.7546771E-02  0.1293923E+00
          2   -1    0    0  502    0 -0.00000000000E+00  0.00000000000E+00  0.12411899709E+04  0.12411899709E+04  0.00000000000E+00 0. -1.
         21   -1    0    0  501  502  0.00000000000E+00 -0.00000000000E+00 -0.14683529183E+02  0.14683529183E+02  0.00000000000E+00 0. -1.
         24    2    1    2    0    0 -0.23063093011E+02  0.37981086678E+02  0.12009630967E+04  0.12046198985E+04  0.82597039181E+02 0.  0.
        -13    1    3    3    0    0 -0.24597205734E+02  0.10359281443E+02  0.10603555270E+03  0.10934292697E+03  0.00000000000E+00 0.  1.
         14    1    3    3    0    0  0.15341127225E+01  0.27621805234E+02  0.10949275440E+04  0.10952769715E+04  0.00000000000E+00 0. -1.
          1    1    1    2  501    0  0.23063093011E+02 -0.37981086678E+02  0.25543344977E+02  0.51253601601E+02  0.00000000000E+00 0. -1.
<mgrwt>
<rscale>  1 0.93790938E+02</rscale>
<asrwt>0</asrwt>
<pdfrwt beam="1">  1       21 0.22590055E-02 0.93790938E+02</pdfrwt>
<pdfrwt beam="2">  1        2 0.19095222E+00 0.93790938E+02</pdfrwt>
<totfact> 0.24041227E+05</totfact>
</mgrwt>
</event>
<event>
 6    2  0.8544106E+000  0.8348998E+02  0.7546771E-02  0.1319429E+00
         21   -1    0    0  501  502  0.00000000000E+00  0.00000000000E+00  0.25794191145E+03  0.25794191145E+03  0.00000000000E+00 0.  1.
         -1   -1    0    0    0  501 -0.00000000000E+00 -0.00000000000E+00 -0.24995652676E+02  0.24995652676E+02  0.00000000000E+00 0.  1.
         24    2    1    2    0    0 -0.65151818035E+01 -0.20675515579E+02  0.47155621307E+02  0.95886540315E+02  0.80626617530E+02 0.  0.
        -13    1    3    3    0    0 -0.25764329129E+01 -0.44747978725E+02  0.23647934374E+01  0.44884427751E+02  0.00000000000E+00 0.  1.
         14    1    3    3    0    0 -0.39387488906E+01  0.24072463146E+02  0.44790827870E+02  0.51002112564E+02  0.00000000000E+00 0. -1.
         -2    1    1    2    0  502  0.65151818035E+01  0.20675515579E+02  0.18579063747E+03  0.18705102381E+03  0.00000000000E+00 0.  1.
<mgrwt>
<rscale>  1 0.83489975E+02</rscale>
<asrwt>0</asrwt>
<pdfrwt beam="1">  1       21 0.39683369E-01 0.83489975E+02</pdfrwt>
<pdfrwt beam="2">  1       -1 0.38454852E-02 0.83489975E+02</pdfrwt>
<totfact> 0.13396478E+05</totfact>
</mgrwt>
</event>
<event>
 6    2  0.8544106E+000  0.8238468E+02  0.7546771E-02  0.1322417E+00
          2   -1    0    0  502    0 -0.00000000000E+00  0.00000000000E+00  0.10368298727E+04  0.10368298727E+04  0.00000000000E+00 0. -1.
         21   -1    0    0  501  502  0.00000000000E+00 -0.00000000000E+00 -0.10374912769E+02  0.10374912769E+02  0.00000000000E+00 0. -1.
         24    2    1    2    0    0  0.12048553590E+02  0.17461936369E+02  0.10222655070E+04  0.10255798374E+04  0.79606212701E+02 0.  0.
        -13    1    3    3    0    0 -0.25351398686E+02  0.53105659509E+01  0.13613387233E+03  0.13857606836E+03  0.00000000000E+00 0.  1.
         14    1    3    3    0    0  0.37399952276E+02  0.12151370418E+02  0.88613163471E+03  0.88700376903E+03  0.00000000000E+00 0. -1.
          1    1    1    2  501    0 -0.12048553590E+02 -0.17461936369E+02  0.41894529269E+01  0.21624948120E+02  0.00000000000E+00 0. -1.
<mgrwt>
<rscale>  1 0.82384683E+02</rscale>
<asrwt>0</asrwt>
<pdfrwt beam="1">  1       21 0.15961412E-02 0.82384683E+02</pdfrwt>
<pdfrwt beam="2">  1        2 0.15951221E+00 0.82384683E+02</pdfrwt>
<totfact> 0.53952575E+05</totfact>
</mgrwt>
</event>
<event>
 6    2  0.8544106E+000  0.9677639E+02  0.7546771E-02  0.1287225E+00
          2   -1    0    0  502    0 -0.00000000000E+00  0.00000000000E+00  0.15885061028E+03  0.15885061028E+03  0.00000000000E+00 0. -1.
         21   -1    0    0  501  502  0.00000000000E+00 -0.00000000000E+00 -0.50796992310E+02  0.50796992310E+02  0.00000000000E+00 0. -1.
         24    2    1    2    0    0 -0.65062197019E+00 -0.53690505195E+02  0.12047890068E+03  0.15453425296E+03  0.80514446964E+02 0.  0.
        -13    1    3    3    0    0 -0.34513653757E+02 -0.15916385630E+01  0.46261685453E+02  0.57739667041E+02  0.00000000000E+00 0.  1.
         14    1    3    3    0    0  0.33863031787E+02 -0.52098866632E+02  0.74217215228E+02  0.96794585915E+02  0.00000000000E+00 0. -1.
          1    1    1    2  501    0  0.65062197019E+00  0.53690505195E+02 -0.12425282715E+02  0.55113349631E+02  0.00000000000E+00 0. -1.
<mgrwt>
<rscale>  1 0.96776391E+02</rscale>
<asrwt>0</asrwt>
<pdfrwt beam="1">  1       21 0.78149220E-02 0.96776391E+02</pdfrwt>
<pdfrwt beam="2">  1        2 0.24438555E-01 0.96776391E+02</pdfrwt>
<totfact> 0.32420166E+05</totfact>
</mgrwt>
</event>
<event>
 6    2  0.8544106E+000  0.8307154E+02  0.7546771E-02  0.1320554E+00
         21   -1    0    0  501  502  0.00000000000E+00  0.00000000000E+00  0.14774786039E+01  0.14774786039E+01  0.00000000000E+00 0.  1.
          2   -1    0    0  502    0 -0.00000000000E+00 -0.00000000000E+00 -0.19823978903E+04  0.19823978903E+04  0.00000000000E+00 0. -1.
         24    2    1    2    0    0 -0.22764102060E+02 -0.10733982153E+02 -0.15215931212E+04  0.15238590839E+04  0.79167280171E+02 0.  0.
        -13    1    3    3    0    0 -0.23460019576E+02 -0.43815399112E+02 -0.85094817970E+03  0.85239836124E+03  0.00000000000E+00 0.  1.
         14    1    3    3    0    0  0.69591751616E+00  0.33081416959E+02 -0.67064494155E+03  0.67146072266E+03  0.00000000000E+00 0. -1.
          1    1    1    2  501    0  0.22764102060E+02  0.10733982153E+02 -0.45932729043E+03  0.46001628498E+03  0.00000000000E+00 0. -1.
<mgrwt>
<rscale>  1 0.83071541E+02</rscale>
<asrwt>0</asrwt>
<pdfrwt beam="1">  1       21 0.22730595E-03 0.83071541E+02</pdfrwt>
<pdfrwt beam="2">  1        2 0.30498221E+00 0.83071541E+02</pdfrwt>
<totfact> 0.35109241E+06</totfact>
</mgrwt>
</event>
<event>
 6    2  0.8544106E+000  0.8516332E+02  0.7546771E-02  0.1315006E+00
          2   -1    0    0  502    0 -0.00000000000E+00  0.00000000000E+00  0.94950340223E+03  0.94950340223E+03  0.00000000000E+00 0. -1.
         21   -1    0    0  501  502  0.00000000000E+00 -0.00000000000E+00 -0.12729217332E+02  0.12729217332E+02  0.00000000000E+00 0. -1.
         24    2    1    2    0    0  0.17463754570E+02 -0.29619145824E+02  0.92007457174E+03  0.92400758062E+03  0.77913509425E+02 0.  0.
        -13    1    3    3    0    0  0.28505798722E+02 -0.45954416452E+02  0.40985833943E+03  0.41341050707E+03  0.00000000000E+00 0.  1.
         14    1    3    3    0    0 -0.11042044152E+02  0.16335270628E+02  0.51021623231E+03  0.51059707355E+03  0.00000000000E+00 0. -1.
          1    1    1    2  501    0 -0.17463754570E+02  0.29619145824E+02  0.16699613162E+02  0.38225038951E+02  0.00000000000E+00 0. -1.
<mgrwt>
<rscale>  1 0.85163322E+02</rscale>
<asrwt>0</asrwt>
<pdfrwt beam="1">  1       21 0.19583419E-02 0.85163322E+02</pdfrwt>
<pdfrwt beam="2">  1        2 0.14607739E+00 0.85163322E+02</pdfrwt>
<totfact> 0.43947921E+05</totfact>
</mgrwt>
</event>
<event>
 6    2  0.8544106E+000  0.8609713E+02  0.7546771E-02  0.1312588E+00
          2   -1    0    0  502    0 -0.00000000000E+00  0.00000000000E+00  0.77736495341E+03  0.77736495341E+03  0.00000000000E+00 0. -1.
         21   -1    0    0  501  502  0.00000000000E+00 -0.00000000000E+00 -0.42402348028E+01  0.42402348028E+01  0.00000000000E+00 0.  1.
         24    2    1    2    0    0  0.24829375523E+02 -0.14440009191E+02  0.57651091685E+03  0.58290441117E+03  0.81164669437E+02 0.  0.
        -13    1    3    3    0    0  0.41935140793E+02 -0.30059978149E+02  0.23446353899E+03  0.24007355005E+03  0.00000000000E+00 0.  1.
         14    1    3    3    0    0 -0.17105765270E+02  0.15619968959E+02  0.34204737786E+03  0.34283086112E+03  0.00000000000E+00 0. -1.
          1    1    1    2  501    0 -0.24829375523E+02  0.14440009191E+02  0.19661380175E+03  0.19870077703E+03  0.00000000000E+00 0. -1.
<mgrwt>
<rscale>  1 0.86097127E+02</rscale>
<asrwt>0</asrwt>
<pdfrwt beam="1">  1       21 0.65234443E-03 0.86097127E+02</pdfrwt>
<pdfrwt beam="2">  1        2 0.11959449E+00 0.86097127E+02</pdfrwt>
<totfact> 0.31677178E+06</totfact>
</mgrwt>
</event>
<event>
 6    2  0.8544106E+000  0.8265212E+02  0.7546771E-02  0.1321689E+00
         -1   -1    0    0    0  501 -0.00000000000E+00  0.00000000000E+00  0.25515975147E+03  0.25515975147E+03  0.00000000000E+00 0.  1.
         21   -1    0    0  501  502  0.00000000000E+00 -0.00000000000E+00 -0.11931754578E+02  0.11931754578E+02  0.00000000000E+00 0. -1.
         24    2    1    2    0    0  0.22015190597E+02  0.16799131730E+02  0.18368187269E+03  0.20142096203E+03  0.77874862099E+02 0.  0.
        -13    1    3    3    0    0  0.75551297982E+01  0.44906541819E+02  0.14191220488E+03  0.14903942893E+03  0.00000000000E+00 0.  1.
         14    1    3    3    0    0  0.14460060799E+02 -0.28107410090E+02  0.41769667810E+02  0.52381533094E+02  0.00000000000E+00 0. -1.
         -2    1    1    2    0  502 -0.22015190597E+02 -0.16799131730E+02  0.59546124204E+02  0.65670544018E+02  0.00000000000E+00 0.  1.
<mgrwt>
<rscale>  1 0.82652124E+02</rscale>
<asrwt>0</asrwt>
<pdfrwt beam="1">  1       21 0.18356547E-02 0.82652124E+02</pdfrwt>
<pdfrwt beam="2">  1       -1 0.39255342E-01 0.82652124E+02</pdfrwt>
<totfact> 0.76294714E+05</totfact>
</mgrwt>
</event>
<event>
 6    2  0.8544106E+000  0.8613828E+02  0.7546771E-02  0.1312482E+00
          4   -1    0    0  502    0 -0.00000000000E+00  0.00000000000E+00  0.83578344066E+02  0.83578344066E+02  0.00000000000E+00 0. -1.
         21   -1    0    0  501  502  0.00000000000E+00 -0.00000000000E+00 -0.48683023613E+02  0.48683023613E+02  0.00000000000E+00 0.  1.
         24    2    1    2    0    0 -0.15459518254E+02 -0.26916713870E+02  0.78515675774E+00  0.86141854916E+02  0.80351082799E+02 0.  0.
        -13    1    3    3    0    0 -0.64795631097E+01 -0.78404248482E+01 -0.39437546846E+02  0.40728087373E+02  0.00000000000E+00 0.  1.
         14    1    3    3    0    0 -0.89799551443E+01 -0.19076289021E+02  0.40222703603E+02  0.45413767542E+02  0.00000000000E+00 0. -1.
          3    1    1    2  501    0  0.15459518254E+02  0.26916713870E+02  0.34110163695E+02  0.46119512763E+02  0.00000000000E+00 0. -1.
<mgrwt>
<rscale>  1 0.86138277E+02</rscale>
<asrwt>0</asrwt>
<pdfrwt beam="1">  1       21 0.74896960E-02 0.86138277E+02</pdfrwt>
<pdfrwt beam="2">  1        4 0.12858207E-01 0.86138277E+02</pdfrwt>
<totfact> 0.24496334E+05</totfact>
</mgrwt>
</event>
<event>
 6    2  0.8544106E+000  0.1078250E+03  0.7546771E-02  0.1264652E+00
         21   -1    0    0  501  502  0.00000000000E+00  0.00000000000E+00  0.95842379718E+01  0.95842379718E+01  0.00000000000E+00 0. -1.
          2   -1    0    0  502    0 -0.00000000000E+00 -0.00000000000E+00 -0.14054609405E+04  0.14054609405E+04  0.00000000000E+00 0. -1.
         24    2    1    2    0    0 -0.28200733128E+02 -0.66537239084E+02 -0.12220109702E+04  0.12267587519E+04  0.80023363296E+02 0.  0.
        -13    1    3    3    0    0 -0.34332694148E+02  0.28868305521E+01 -0.26802907232E+03  0.27023443764E+03  0.00000000000E+00 0.  1.
         14    1    3    3    0    0  0.61319610202E+01 -0.69424069637E+02 -0.95398189787E+03  0.95652431430E+03  0.00000000000E+00 0. -1.
          1    1    1    2  501    0  0.28200733128E+02  0.66537239084E+02 -0.17386573237E+03  0.18828642656E+03  0.00000000000E+00 0. -1.
<mgrwt>
<rscale>  1 0.10782497E+03</rscale>
<asrwt>0</asrwt>
<pdfrwt beam="1">  1       21 0.14744976E-02 0.10782497E+03</pdfrwt>
<pdfrwt beam="2">  1        2 0.21622485E+00 0.10782497E+03</pdfrwt>
<totfact> 0.39119019E+05</totfact>
</mgrwt>
</event>
<event>
 6    2  0.8544106E+000  0.9419595E+02  0.7546771E-02  0.1292997E+00
         21   -1    0    0  501  502  0.00000000000E+00  0.00000000000E+00  0.60793347201E+01  0.60793347201E+01  0.00000000000E+00 0.  1.
          2   -1    0    0  502    0 -0.00000000000E+00 -0.00000000000E+00 -0.17822812133E+04  0.17822812133E+04  0.00000000000E+00 0. -1.
         24    2    1    2    0    0  0.45305857389E+01  0.48517455700E+02 -0.38679881674E+03  0.39810325602E+03  0.80612704371E+02 0.  0.
        -11    1    3    3    0    0  0.75852713616E+01  0.39857987050E+02 -0.68087724472E+02  0.79259912295E+02  0.00000000000E+00 0.  1.
         12    1    3    3    0    0 -0.30546856227E+01  0.86594686500E+01 -0.31871109227E+03  0.31884334373E+03  0.00000000000E+00 0. -1.
          1    1    1    2  501    0 -0.45305857389E+01 -0.48517455700E+02 -0.13894030618E+04  0.13902572920E+04  0.00000000000E+00 0. -1.
<mgrwt>
<rscale>  1 0.94195954E+02</rscale>
<asrwt>0</asrwt>
<pdfrwt beam="1">  1       21 0.93528181E-03 0.94195954E+02</pdfrwt>
<pdfrwt beam="2">  1        2 0.27419724E+00 0.94195954E+02</pdfrwt>
<totfact> 0.51224165E+05</totfact>
</mgrwt>
</event>
<event>
 6    2  0.8544106E+000  0.7203513E+02  0.7546771E-02  0.1353306E+00
         21   -1    0    0  501  502  0.00000000000E+00  0.00000000000E+00  0.27363172024E+02  0.27363172024E+02  0.00000000000E+00 0. -1.
         -1   -1    0    0    0  501 -0.00000000000E+00 -0.00000000000E+00 -0.11835469957E+03  0.11835469957E+03  0.00000000000E+00 0.  1.
         24    2    1    2    0    0  0.32798717684E+02 -0.16542315899E+02 -0.79379055172E+02  0.10719185945E+03  0.61964959745E+02 0.  0.
        -13    1    3    3    0    0 -0.17251749381E+02  0.40147598784E+01 -0.23264931879E+02  0.29240352407E+02  0.00000000000E+00 0.  1.
         14    1    3    3    0    0  0.50050467064E+02 -0.20557075777E+02 -0.56114123294E+02  0.77951507047E+02  0.00000000000E+00 0. -1.
         -2    1    1    2    0  502 -0.32798717684E+02  0.16542315899E+02 -0.11612472376E+02  0.38526012143E+02  0.00000000000E+00 0.  1.
<mgrwt>
<rscale>  1 0.72035133E+02</rscale>
<asrwt>0</asrwt>
<pdfrwt beam="1">  1       21 0.42097187E-02 0.72035133E+02</pdfrwt>
<pdfrwt beam="2">  1       -1 0.18208416E-01 0.72035133E+02</pdfrwt>
<totfact> 0.68967870E+05</totfact>
</mgrwt>
</event>
<event>
 6    2  0.8544106E+000  0.9122544E+02  0.7546771E-02  0.1299911E+00
         -3   -1    0    0    0  501 -0.00000000000E+00  0.00000000000E+00  0.55641317664E+02  0.55641317664E+02  0.00000000000E+00 0.  1.
         21   -1    0    0  501  502  0.00000000000E+00 -0.00000000000E+00 -0.12507511841E+03  0.12507511841E+03  0.00000000000E+00 0.  1.
         24    2    1    2    0    0  0.19219519574E+01 -0.42897477259E+02  0.86187921333E+01  0.91631674696E+02  0.80487221192E+02 0.  0.
        -13    1    3    3    0    0 -0.17483724492E+02 -0.60639778818E+02  0.14349027554E+02  0.64720614869E+02  0.00000000000E+00 0.  1.
         14    1    3    3    0    0  0.19405676450E+02  0.17742301559E+02 -0.57302354212E+01  0.26911059828E+02  0.00000000000E+00 0. -1.
         -4    1    1    2    0  502 -0.19219519574E+01  0.42897477259E+02 -0.78052592879E+02  0.89084761377E+02  0.00000000000E+00 0.  1.
<mgrwt>
<rscale>  1 0.91225436E+02</rscale>
<asrwt>0</asrwt>
<pdfrwt beam="1">  1       21 0.19242326E-01 0.91225436E+02</pdfrwt>
<pdfrwt beam="2">  1       -3 0.85602029E-02 0.91225436E+02</pdfrwt>
<totfact> 0.10735114E+05</totfact>
</mgrwt>
</event>
<event>
 6    2  0.8544106E+000  0.8318109E+02  0.7546771E-02  0.1320259E+00
         21   -1    0    0  501  502  0.00000000000E+00  0.00000000000E+00  0.11612057311E+02  0.11612057311E+02  0.00000000000E+00 0.  1.
         -1   -1    0    0    0  501 -0.00000000000E+00 -0.00000000000E+00 -0.29267594291E+03  0.29267594291E+03  0.00000000000E+00 0.  1.
         24    2    1    2    0    0  0.16875356430E+02 -0.18613407166E+02 -0.25439260046E+03  0.26764657514E+03  0.79296011464E+02 0.  0.
        -13    1    3    3    0    0  0.45007379680E+02 -0.17783916620E+02 -0.20651659475E+03  0.21211090453E+03  0.00000000000E+00 0.  1.
         14    1    3    3    0    0 -0.28132023250E+02 -0.82949054529E+00 -0.47876005718E+02  0.55535670611E+02  0.00000000000E+00 0. -1.
         -2    1    1    2    0  502 -0.16875356430E+02  0.18613407166E+02 -0.26671285132E+02  0.36641425075E+02  0.00000000000E+00 0.  1.
<mgrwt>
<rscale>  1 0.83181092E+02</rscale>
<asrwt>0</asrwt>
<pdfrwt beam="1">  1       21 0.17864705E-02 0.83181092E+02</pdfrwt>
<pdfrwt beam="2">  1       -1 0.45027065E-01 0.83181092E+02</pdfrwt>
<totfact> 0.62750243E+05</totfact>
</mgrwt>
</event>
<event>
 6    2  0.8544106E+000  0.8577116E+02  0.7546771E-02  0.1313428E+00
          2   -1    0    0  502    0 -0.00000000000E+00  0.00000000000E+00  0.18260523601E+04  0.18260523601E+04  0.00000000000E+00 0. -1.
         21   -1    0    0  501  502  0.00000000000E+00 -0.00000000000E+00 -0.25136052675E+02  0.25136052675E+02  0.00000000000E+00 0. -1.
         24    2    1    2    0    0 -0.21715736416E+02  0.11491115370E+02  0.18187866996E+04  0.18208079937E+04  0.82177079094E+02 0.  0.
        -13    1    3    3    0    0  0.13033508251E+02 -0.20787095204E+02  0.22835512457E+03  0.22966941151E+03  0.00000000000E+00 0.  1.
         14    1    3    3    0    0 -0.34749244667E+02  0.32278210573E+02  0.15904315751E+04  0.15911385822E+04  0.00000000000E+00 0. -1.
          1    1    1    2  501    0  0.21715736416E+02 -0.11491115370E+02 -0.17870392240E+02  0.30380419012E+02  0.00000000000E+00 0. -1.
<mgrwt>
<rscale>  1 0.85771156E+02</rscale>
<asrwt>0</asrwt>
<pdfrwt beam="1">  1       21 0.38670865E-02 0.85771156E+02</pdfrwt>
<pdfrwt beam="2">  1        2 0.28093103E+00 0.85771156E+02</pdfrwt>
<totfact> 0.50346823E+04</totfact>
</mgrwt>
</event>
<event>
 6    2  0.8544106E+000  0.9543275E+02  0.7546771E-02  0.1290204E+00
         21   -1    0    0  501  502  0.00000000000E+00  0.00000000000E+00  0.12251753931E+03  0.12251753931E+03  0.00000000000E+00 0. -1.
          2   -1    0    0  502    0 -0.00000000000E+00 -0.00000000000E+00 -0.47786701570E+03  0.47786701570E+03  0.00000000000E+00 0. -1.
         24    2    1    2    0    0  0.45718621887E+02 -0.99615230807E+01 -0.46840538681E+03  0.47802825885E+03  0.83174428398E+02 0.  0.
        -13    1    3    3    0    0  0.25147096236E+02  0.29741735164E+02 -0.10702026795E+03  0.11388715912E+03  0.00000000000E+00 0.  1.
         14    1    3    3    0    0  0.20571525651E+02 -0.39703258245E+02 -0.36138511886E+03  0.36414109973E+03  0.00000000000E+00 0. -1.
          1    1    1    2  501    0 -0.45718621887E+02  0.99615230807E+01  0.11305591042E+03  0.12235629616E+03  0.00000000000E+00 0. -1.
<mgrwt>
<rscale>  1 0.95432751E+02</rscale>
<asrwt>0</asrwt>
<pdfrwt beam="1">  1       21 0.18848852E-01 0.95432751E+02</pdfrwt>
<pdfrwt beam="2">  1        2 0.73518004E-01 0.95432751E+02</pdfrwt>
<totfact> 0.21367504E+04</totfact>
</mgrwt>
</event>
<event>
 6    2  0.8544106E+000  0.8370495E+02  0.7546771E-02  0.1318854E+00
          4   -1    0    0  502    0 -0.00000000000E+00  0.00000000000E+00  0.48206246282E+02  0.48206246282E+02  0.00000000000E+00 0. -1.
         21   -1    0    0  501  502  0.00000000000E+00 -0.00000000000E+00 -0.15358688685E+03  0.15358688685E+03  0.00000000000E+00 0. -1.
         24    2    1    2    0    0  0.63262794514E+01 -0.24132583900E+02  0.94930899602E+01  0.84241538575E+02  0.79900654861E+02 0.  0.
        -11    1    3    3    0    0 -0.16524402445E+02  0.20312549595E+02  0.20274432987E+02  0.33116584669E+02  0.00000000000E+00 0.  1.
         12    1    3    3    0    0  0.22850681896E+02 -0.44445133494E+02 -0.10781343027E+02  0.51124953906E+02  0.00000000000E+00 0. -1.
          3    1    1    2  501    0 -0.63262794514E+01  0.24132583900E+02 -0.11487373052E+03  0.11755159455E+03  0.00000000000E+00 0. -1.
<mgrwt>
<rscale>  1 0.83704946E+02</rscale>
<asrwt>0</asrwt>
<pdfrwt beam="1">  1       21 0.23628752E-01 0.83704946E+02</pdfrwt>
<pdfrwt beam="2">  1        4 0.74163455E-02 0.83704946E+02</pdfrwt>
<totfact> 0.79787171E+04</totfact>
</mgrwt>
</event>
<event>
 6    2  0.8544106E+000  0.8558305E+02  0.7546771E-02  0.1313915E+00
         21   -1    0    0  501  502  0.00000000000E+00  0.00000000000E+00  0.36581531696E+01  0.36581531696E+01  0.00000000000E+00 0.  1.
         -1   -1    0    0    0  501 -0.00000000000E+00 -0.00000000000E+00 -0.94729481588E+03  0.94729481588E+03  0.00000000000E+00 0.  1.
         24    2    1    2    0    0  0.30177776950E+02  0.90161140070E-01 -0.76662444845E+03  0.77138674075E+03  0.80085906894E+02 0.  0.
        -11    1    3    3    0    0  0.45432723971E+02  0.28237592892E+02 -0.46383370247E+03  0.46690812545E+03  0.00000000000E+00 0.  1.
         12    1    3    3    0    0 -0.15254947021E+02 -0.28147431752E+02 -0.30279074598E+03  0.30447861530E+03  0.00000000000E+00 0. -1.
         -2    1    1    2    0  502 -0.30177776950E+02 -0.90161140070E-01 -0.17701221426E+03  0.17956622831E+03  0.00000000000E+00 0.  1.
<mgrwt>
<rscale>  1 0.85583052E+02</rscale>
<asrwt>0</asrwt>
<pdfrwt beam="1">  1       21 0.56279241E-03 0.85583052E+02</pdfrwt>
<pdfrwt beam="2">  1       -1 0.14573776E+00 0.85583052E+02</pdfrwt>
<totfact> 0.33685739E+05</totfact>
</mgrwt>
</event>
<event>
 6    2  0.8544106E+000  0.7488501E+02  0.7546771E-02  0.1344227E+00
         -1   -1    0    0    0  501 -0.00000000000E+00  0.00000000000E+00  0.19692042351E+03  0.19692042351E+03  0.00000000000E+00 0.  1.
         21   -1    0    0  501  502  0.00000000000E+00 -0.00000000000E+00 -0.30745759944E+02  0.30745759944E+02  0.00000000000E+00 0.  1.
         24    2    1    2    0    0  0.23040607421E+02  0.20256980564E+02  0.17929050738E+03  0.19430092891E+03  0.68312151840E+02 0.  0.
        -13    1    3    3    0    0  0.46233039961E+02  0.59524018567E+01  0.12795823435E+03  0.13618456157E+03  0.00000000000E+00 0.  1.
         14    1    3    3    0    0 -0.23192432539E+02  0.14304578707E+02  0.51332273025E+02  0.58116367342E+02  0.00000000000E+00 0. -1.
         -2    1    1    2    0  502 -0.23040607421E+02 -0.20256980564E+02 -0.13115843809E+02  0.33365254543E+02  0.00000000000E+00 0.  1.
<mgrwt>
<rscale>  1 0.74885011E+02</rscale>
<asrwt>0</asrwt>
<pdfrwt beam="1">  1       21 0.47301170E-02 0.74885011E+02</pdfrwt>
<pdfrwt beam="2">  1       -1 0.30295449E-01 0.74885011E+02</pdfrwt>
<totfact> 0.25241975E+05</totfact>
</mgrwt>
</event>
<event>
 6    2  0.8544106E+000  0.8336286E+02  0.7546771E-02  0.1319770E+00
          2   -1    0    0  502    0 -0.00000000000E+00  0.00000000000E+00  0.11165887933E+03  0.11165887933E+03  0.00000000000E+00 0. -1.
         21   -1    0    0  501  502  0.00000000000E+00 -0.00000000000E+00 -0.74730022504E+02  0.74730022504E+02  0.00000000000E+00 0. -1.
         24    2    1    2    0    0  0.23707125609E+01 -0.24021250213E+02  0.93270126792E+02  0.12509469785E+03  0.79791767362E+02 0.  0.
        -13    1    3    3    0    0  0.52585355299E+01 -0.82476426053E+01 -0.13753136291E+02  0.16876746200E+02  0.00000000000E+00 0.  1.
         14    1    3    3    0    0 -0.28878229690E+01 -0.15773607607E+02  0.10702326308E+03  0.10821795165E+03  0.00000000000E+00 0. -1.
          1    1    1    2  501    0 -0.23707125609E+01  0.24021250213E+02 -0.56341269969E+02  0.61294203980E+02  0.00000000000E+00 0. -1.
<mgrwt>
<rscale>  1 0.83362863E+02</rscale>
<asrwt>0</asrwt>
<pdfrwt beam="1">  1       21 0.11496927E-01 0.83362863E+02</pdfrwt>
<pdfrwt beam="2">  1        2 0.17178289E-01 0.83362863E+02</pdfrwt>
<totfact> 0.24375236E+05</totfact>
</mgrwt>
</event>
<event>
 6    2  0.8544106E+000  0.8356354E+02  0.7546771E-02  0.1319232E+00
         21   -1    0    0  501  502  0.00000000000E+00  0.00000000000E+00  0.12229081626E+01  0.12229081626E+01  0.00000000000E+00 0. -1.
          2   -1    0    0  502    0 -0.00000000000E+00 -0.00000000000E+00 -0.24496403642E+04  0.24496403642E+04  0.00000000000E+00 0. -1.
         24    2    1    2    0    0 -0.13757335696E+02 -0.18061915568E+02 -0.21293374767E+04  0.21309765263E+04  0.80419953809E+02 0.  0.
        -13    1    3    3    0    0  0.66391722747E+01  0.63161402585E+01 -0.29322654568E+02  0.30721170342E+02  0.00000000000E+00 0.  1.
         14    1    3    3    0    0 -0.20396507971E+02 -0.24378055826E+02 -0.21000148221E+04  0.21002553560E+04  0.00000000000E+00 0. -1.
          1    1    1    2  501    0  0.13757335696E+02  0.18061915568E+02 -0.31907997932E+03  0.31988674603E+03  0.00000000000E+00 0. -1.
<mgrwt>
<rscale>  1 0.83563545E+02</rscale>
<asrwt>0</asrwt>
<pdfrwt beam="1">  1       21 0.18813955E-03 0.83563545E+02</pdfrwt>
<pdfrwt beam="2">  1        2 0.37686808E+00 0.83563545E+02</pdfrwt>
<totfact> 0.26982529E+06</totfact>
</mgrwt>
</event>
<event>
 6    2  0.8544106E+000  0.8377217E+02  0.7546771E-02  0.1318675E+00
          2   -1    0    0  502    0 -0.00000000000E+00  0.00000000000E+00  0.16866025806E+04  0.16866025806E+04  0.00000000000E+00 0. -1.
         21   -1    0    0  501  502  0.00000000000E+00 -0.00000000000E+00 -0.19719998361E+01  0.19719998361E+01  0.00000000000E+00 0. -1.
         24    2    1    2    0    0  0.24796279850E+02  0.13596999838E+01  0.14919851745E+04  0.14943351487E+04  0.80006696581E+02 0.  0.
        -13    1    3    3    0    0 -0.17258372393E+02 -0.22916769494E+02  0.30198058865E+03  0.30334024735E+03  0.00000000000E+00 0.  1.
         14    1    3    3    0    0  0.42054652243E+02  0.24276469478E+02  0.11900045858E+04  0.11909949013E+04  0.00000000000E+00 0. -1.
          1    1    1    2  501    0 -0.24796279850E+02 -0.13596999838E+01  0.19264540632E+03  0.19423943177E+03  0.00000000000E+00 0. -1.
<mgrwt>
<rscale>  1 0.83772166E+02</rscale>
<asrwt>0</asrwt>
<pdfrwt beam="1">  1       21 0.30338594E-03 0.83772166E+02</pdfrwt>
<pdfrwt beam="2">  1        2 0.25947617E+00 0.83772166E+02</pdfrwt>
<totfact> 0.31972652E+06</totfact>
</mgrwt>
</event>
<event>
 6    2  0.8544106E+000  0.9232152E+02  0.7546771E-02  0.1297325E+00
          2   -1    0    0  502    0 -0.00000000000E+00  0.00000000000E+00  0.21464590098E+04  0.21464590098E+04  0.00000000000E+00 0. -1.
         21   -1    0    0  501  502  0.00000000000E+00 -0.00000000000E+00 -0.22118521784E+01  0.22118521784E+01  0.00000000000E+00 0. -1.
         24    2    1    2    0    0  0.39432450695E+02 -0.10376711615E+02  0.17177053683E+04  0.17201845818E+04  0.82829153504E+02 0.  0.
        -11    1    3    3    0    0 -0.18942756703E+02  0.11759975272E+02  0.82382074091E+03  0.82412240487E+03  0.00000000000E+00 0.  1.
         12    1    3    3    0    0  0.58375207398E+02 -0.22136686888E+02  0.89388462742E+03  0.89606217690E+03  0.00000000000E+00 0. -1.
          1    1    1    2  501    0 -0.39432450695E+02  0.10376711615E+02  0.42654178933E+03  0.42848628024E+03  0.00000000000E+00 0. -1.
<mgrwt>
<rscale>  1 0.92321520E+02</rscale>
<asrwt>0</asrwt>
<pdfrwt beam="1">  1       21 0.34028667E-03 0.92321520E+02</pdfrwt>
<pdfrwt beam="2">  1        2 0.33022280E+00 0.92321520E+02</pdfrwt>
<totfact> 0.15903250E+06</totfact>
</mgrwt>
</event>
<event>
 6    2  0.8544106E+000  0.7946323E+02  0.7546771E-02  0.1330582E+00
         21   -1    0    0  501  502  0.00000000000E+00  0.00000000000E+00  0.65357899685E+01  0.65357899685E+01  0.00000000000E+00 0. -1.
         -1   -1    0    0    0  501 -0.00000000000E+00 -0.00000000000E+00 -0.46581729995E+03  0.46581729995E+03  0.00000000000E+00 0.  1.
         24    2    1    2    0    0  0.27708634318E+02 -0.43183735655E+01 -0.28671914415E+03  0.29752692807E+03  0.74350444098E+02 0.  0.
        -13    1    3    3    0    0  0.14818622740E+02  0.22066032523E+02 -0.24540446212E+03  0.24683972816E+03  0.00000000000E+00 0.  1.
         14    1    3    3    0    0  0.12890011578E+02 -0.26384406088E+02 -0.41314682038E+02  0.50687199913E+02  0.00000000000E+00 0. -1.
         -2    1    1    2    0  502 -0.27708634318E+02  0.43183735655E+01 -0.17256236583E+03  0.17482616185E+03  0.00000000000E+00 0.  1.
<mgrwt>
<rscale>  1 0.79463232E+02</rscale>
<asrwt>0</asrwt>
<pdfrwt beam="1">  1       21 0.10055060E-02 0.79463232E+02</pdfrwt>
<pdfrwt beam="2">  1       -1 0.71664211E-01 0.79463232E+02</pdfrwt>
<totfact> 0.65144845E+05</totfact>
</mgrwt>
</event>
<event>
 6    2  0.8544106E+000  0.1454954E+03  0.7546771E-02  0.1206120E+00
          2   -1    0    0  502    0 -0.00000000000E+00  0.00000000000E+00  0.30341703569E+03  0.30341703569E+03  0.00000000000E+00 0. -1.
         21   -1    0    0  501  502  0.00000000000E+00 -0.00000000000E+00 -0.60699128424E+02  0.60699128424E+02  0.00000000000E+00 0. -1.
         24    2    1    2    0    0  0.11199989215E+03  0.44830962709E+02  0.96654352707E+02  0.17467394857E+03  0.81333470073E+02 0.  0.
        -13    1    3    3    0    0  0.59375804999E+02 -0.17722412359E+02  0.28320557855E+02  0.68129465845E+02  0.00000000000E+00 0.  1.
         14    1    3    3    0    0  0.52624087148E+02  0.62553375069E+02  0.68333794852E+02  0.10654448273E+03  0.00000000000E+00 0. -1.
          1    1    1    2  501    0 -0.11199989215E+03 -0.44830962709E+02  0.14606355455E+03  0.18944221554E+03  0.00000000000E+00 0. -1.
<mgrwt>
<rscale>  1 0.14549544E+03</rscale>
<asrwt>0</asrwt>
<pdfrwt beam="1">  1       21 0.93383276E-02 0.14549544E+03</pdfrwt>
<pdfrwt beam="2">  1        2 0.46679543E-01 0.14549544E+03</pdfrwt>
<totfact> 0.12176309E+05</totfact>
</mgrwt>
</event>
<event>
 6    2  0.8544106E+000  0.8703798E+02  0.7546771E-02  0.1310187E+00
         21   -1    0    0  501  502  0.00000000000E+00  0.00000000000E+00  0.99844489098E+02  0.99844489098E+02  0.00000000000E+00 0. -1.
          2   -1    0    0  502    0 -0.00000000000E+00 -0.00000000000E+00 -0.58759077720E+03  0.58759077720E+03  0.00000000000E+00 0. -1.
         24    2    1    2    0    0 -0.12633525451E+01 -0.29099510650E+02 -0.58216013907E+03  0.58863064680E+03  0.82019712556E+02 0.  0.
        -11    1    3    3    0    0  0.38345399926E+02 -0.17383038693E+02 -0.20951189954E+03  0.21370020070E+03  0.00000000000E+00 0.  1.
         12    1    3    3    0    0 -0.39608752471E+02 -0.11716471957E+02 -0.37264823953E+03  0.37493044610E+03  0.00000000000E+00 0. -1.
          1    1    1    2  501    0  0.12633525451E+01  0.29099510650E+02  0.94413850968E+02  0.98804619499E+02  0.00000000000E+00 0. -1.
<mgrwt>
<rscale>  1 0.87037985E+02</rscale>
<asrwt>0</asrwt>
<pdfrwt beam="1">  1       21 0.15360691E-01 0.87037985E+02</pdfrwt>
<pdfrwt beam="2">  1        2 0.90398578E-01 0.87037985E+02</pdfrwt>
<totfact> 0.24683304E+04</totfact>
</mgrwt>
</event>
<event>
 6    2  0.8544106E+000  0.8233867E+02  0.7546771E-02  0.1322543E+00
         -1   -1    0    0    0  501 -0.00000000000E+00  0.00000000000E+00  0.32846666667E+03  0.32846666667E+03  0.00000000000E+00 0.  1.
         21   -1    0    0  501  502  0.00000000000E+00 -0.00000000000E+00 -0.28241813886E+02  0.28241813886E+02  0.00000000000E+00 0.  1.
         24    2    1    2    0    0 -0.95660138915E+01  0.17965281742E+02  0.31873403877E+03  0.32919757481E+03  0.79783430741E+02 0.  0.
        -11    1    3    3    0    0  0.86749475804E+01  0.46899072798E+01  0.29917989356E+03  0.29934237698E+03  0.00000000000E+00 0.  1.
         12    1    3    3    0    0 -0.18240961472E+02  0.13275374462E+02  0.19554145207E+02  0.29855197827E+02  0.00000000000E+00 0. -1.
         -2    1    1    2    0  502  0.95660138915E+01 -0.17965281742E+02 -0.18509185978E+02  0.27510905754E+02  0.00000000000E+00 0.  1.
<mgrwt>
<rscale>  1 0.82338665E+02</rscale>
<asrwt>0</asrwt>
<pdfrwt beam="1">  1       21 0.43448947E-02 0.82338665E+02</pdfrwt>
<pdfrwt beam="2">  1       -1 0.50533331E-01 0.82338665E+02</pdfrwt>
<totfact> 0.12115831E+05</totfact>
</mgrwt>
</event>
<event>
 6    2  0.8544106E+000  0.1186636E+03  0.7546771E-02  0.1245318E+00
          2   -1    0    0  502    0 -0.00000000000E+00  0.00000000000E+00  0.24905798754E+03  0.24905798754E+03  0.00000000000E+00 0. -1.
         21   -1    0    0  501  502  0.00000000000E+00 -0.00000000000E+00 -0.53858759144E+02  0.53858759144E+02  0.00000000000E+00 0.  1.
         24    2    1    2    0    0 -0.82515781679E+02 -0.27667733866E+02  0.17842929986E+03  0.21428499038E+03  0.80664021278E+02 0.  0.
        -11    1    3    3    0    0 -0.70330932302E+02 -0.67961339126E+01  0.57884559861E+02  0.91341391192E+02  0.00000000000E+00 0.  1.
         12    1    3    3    0    0 -0.12184849377E+02 -0.20871599954E+02  0.12054474000E+03  0.12294359918E+03  0.00000000000E+00 0. -1.
          1    1    1    2  501    0  0.82515781679E+02  0.27667733866E+02  0.16769928538E+02  0.88631756309E+02  0.00000000000E+00 0. -1.
<mgrwt>
<rscale>  1 0.11866357E+03</rscale>
<asrwt>0</asrwt>
<pdfrwt beam="1">  1       21 0.82859631E-02 0.11866357E+03</pdfrwt>
<pdfrwt beam="2">  1        2 0.38316613E-01 0.11866357E+03</pdfrwt>
<totfact> 0.18315006E+05</totfact>
</mgrwt>
</event>
<event>
 6    2  0.8544106E+000  0.1016744E+03  0.7546771E-02  0.1276814E+00
         21   -1    0    0  501  502  0.00000000000E+00  0.00000000000E+00  0.86843693324E+01  0.86843693324E+01  0.00000000000E+00 0.  1.
          2   -1    0    0  502    0 -0.00000000000E+00 -0.00000000000E+00 -0.66626226132E+03  0.66626226132E+03  0.00000000000E+00 0. -1.
         24    2    1    2    0    0  0.12566133554E+01 -0.50436225359E+02 -0.43663808319E+03  0.44831964414E+03  0.88273981001E+02 0.  0.
        -11    1    3    3    0    0  0.28861845777E+02 -0.59836421167E+02 -0.22253183106E+03  0.23223655886E+03  0.00000000000E+00 0.  1.
         12    1    3    3    0    0 -0.27605232422E+02  0.94001958082E+01 -0.21410625214E+03  0.21608308528E+03  0.00000000000E+00 0. -1.
          1    1    1    2  501    0 -0.12566133554E+01  0.50436225359E+02 -0.22093980880E+03  0.22662698651E+03  0.00000000000E+00 0. -1.
<mgrwt>
<rscale>  1 0.10167442E+03</rscale>
<asrwt>0</asrwt>
<pdfrwt beam="1">  1       21 0.13360570E-02 0.10167442E+03</pdfrwt>
<pdfrwt beam="2">  1        2 0.10250188E+00 0.10167442E+03</pdfrwt>
<totfact> 0.12620231E+06</totfact>
</mgrwt>
</event>
<event>
 6    2  0.8544106E+000  0.9019609E+02  0.7546771E-02  0.1302378E+00
          2   -1    0    0  502    0 -0.00000000000E+00  0.00000000000E+00  0.16913887752E+04  0.16913887752E+04  0.00000000000E+00 0. -1.
         21   -1    0    0  501  502  0.00000000000E+00 -0.00000000000E+00 -0.19462928140E+01  0.19462928140E+01  0.00000000000E+00 0.  1.
         24    2    1    2    0    0 -0.14217847997E+02  0.19847984323E+02  0.12941377248E+04  0.12972770659E+04  0.86828827168E+02 0.  0.
        -13    1    3    3    0    0 -0.79908191445E+01  0.21466752036E+02  0.82460509705E+02  0.85582768676E+02  0.00000000000E+00 0.  1.
         14    1    3    3    0    0 -0.62270288526E+01 -0.16187677124E+01  0.12116772151E+04  0.12116942972E+04  0.00000000000E+00 0. -1.
          1    1    1    2  501    0  0.14217847997E+02 -0.19847984323E+02  0.39530475758E+03  0.39605800212E+03  0.00000000000E+00 0. -1.
<mgrwt>
<rscale>  1 0.90196091E+02</rscale>
<asrwt>0</asrwt>
<pdfrwt beam="1">  1       21 0.29943102E-03 0.90196091E+02</pdfrwt>
<pdfrwt beam="2">  1        2 0.26021248E+00 0.90196091E+02</pdfrwt>
<totfact> 0.32639249E+06</totfact>
</mgrwt>
</event>
<event>
 6    2  0.8544106E+000  0.9747431E+02  0.7546771E-02  0.1285699E+00
          2   -1    0    0  502    0 -0.00000000000E+00  0.00000000000E+00  0.12901252067E+03  0.12901252067E+03  0.00000000000E+00 0. -1.
         21   -1    0    0  501  502  0.00000000000E+00 -0.00000000000E+00 -0.19370871079E+03  0.19370871079E+03  0.00000000000E+00 0. -1.
         24    2    1    2    0    0  0.41558025198E+01  0.26585719819E+02  0.10941885693E+03  0.14653916427E+03  0.93686547697E+02 0.  0.
        -13    1    3    3    0    0  0.14891671460E+02  0.34419629045E+02  0.12154892791E+01  0.37522661908E+02  0.00000000000E+00 0.  1.
         14    1    3    3    0    0 -0.10735868940E+02 -0.78339092255E+01  0.10820336765E+03  0.10901650236E+03  0.00000000000E+00 0. -1.
          1    1    1    2  501    0 -0.41558025198E+01 -0.26585719819E+02 -0.17411504705E+03  0.17618206719E+03  0.00000000000E+00 0. -1.
<mgrwt>
<rscale>  1 0.97474306E+02</rscale>
<asrwt>0</asrwt>
<pdfrwt beam="1">  1       21 0.29801340E-01 0.97474306E+02</pdfrwt>
<pdfrwt beam="2">  1        2 0.19848080E-01 0.97474306E+02</pdfrwt>
<totfact> 0.36808636E+04</totfact>
</mgrwt>
</event>
<event>
 6    2  0.8544106E+000  0.1092304E+03  0.7546771E-02  0.1262002E+00
          2   -1    0    0  502    0 -0.00000000000E+00  0.00000000000E+00  0.23420201386E+03  0.23420201386E+03  0.00000000000E+00 0. -1.
         21   -1    0    0  501  502  0.00000000000E+00 -0.00000000000E+00 -0.12493462143E+03  0.12493462143E+03  0.00000000000E+00 0. -1.
         24    2    1    2    0    0 -0.73381081933E+02 -0.38006977365E+02  0.20523422716E+03  0.23249167139E+03  0.71428116004E+02 0.  0.
        -11    1    3    3    0    0 -0.43746249108E+02  0.15498875863E+02  0.68990825749E+02  0.83148562836E+02  0.00000000000E+00 0.  1.
         12    1    3    3    0    0 -0.29634832825E+02 -0.53505853228E+02  0.13624340141E+03  0.14934310856E+03  0.00000000000E+00 0. -1.
          1    1    1    2  501    0  0.73381081933E+02  0.38006977365E+02 -0.95966834726E+02  0.12664496390E+03  0.00000000000E+00 0. -1.
<mgrwt>
<rscale>  1 0.10923044E+03</rscale>
<asrwt>0</asrwt>
<pdfrwt beam="1">  1       21 0.19220711E-01 0.10923044E+03</pdfrwt>
<pdfrwt beam="2">  1        2 0.36031079E-01 0.10923044E+03</pdfrwt>
<totfact> 0.43801692E+04</totfact>
</mgrwt>
</event>
<event>
 6    2  0.8544106E+000  0.9783452E+02  0.7546771E-02  0.1284917E+00
          2   -1    0    0  502    0 -0.00000000000E+00  0.00000000000E+00  0.10787878279E+04  0.10787878279E+04  0.00000000000E+00 0. -1.
         21   -1    0    0  501  502  0.00000000000E+00 -0.00000000000E+00 -0.91910528480E+01  0.91910528480E+01  0.00000000000E+00 0. -1.
         24    2    1    2    0    0 -0.57813281599E+02 -0.10991662721E+02  0.94645146596E+03  0.95149459839E+03  0.78156261310E+02 0.  0.
        -11    1    3    3    0    0  0.65729979301E+01  0.21964963850E+02  0.14693709477E+03  0.14871507576E+03  0.00000000000E+00 0.  1.
         12    1    3    3    0    0 -0.64386279529E+02 -0.32956626571E+02  0.79951437118E+03  0.80277952263E+03  0.00000000000E+00 0. -1.
          1    1    1    2  501    0  0.57813281599E+02  0.10991662721E+02  0.12314530913E+03  0.13648428239E+03  0.00000000000E+00 0. -1.
<mgrwt>
<rscale>  1 0.97834520E+02</rscale>
<asrwt>0</asrwt>
<pdfrwt beam="1">  1       21 0.14140090E-02 0.97834520E+02</pdfrwt>
<pdfrwt beam="2">  1        2 0.16596726E+00 0.97834520E+02</pdfrwt>
<totfact> 0.62532759E+05</totfact>
</mgrwt>
</event>
<event>
 6    2  0.8544106E+000  0.8522023E+02  0.7546771E-02  0.1314858E+00
         21   -1    0    0  501  502  0.00000000000E+00  0.00000000000E+00  0.87844579513E+02  0.87844579513E+02  0.00000000000E+00 0. -1.
          4   -1    0    0  502    0 -0.00000000000E+00 -0.00000000000E+00 -0.96885730381E+02  0.96885730381E+02  0.00000000000E+00 0. -1.
         24    2    1    2    0    0 -0.10792642157E+02 -0.27955356226E+02 -0.74209498402E+02  0.11300237540E+03  0.79777842328E+02 0.  0.
        -13    1    3    3    0    0 -0.10216579088E+02 -0.55193101600E+02 -0.38406646050E+02  0.68012700382E+02  0.00000000000E+00 0.  1.
         14    1    3    3    0    0 -0.57606306830E+00  0.27237745374E+02 -0.35802852352E+02  0.44989675018E+02  0.00000000000E+00 0. -1.
          3    1    1    2  501    0  0.10792642157E+02  0.27955356226E+02  0.65168347534E+02  0.71727934494E+02  0.00000000000E+00 0. -1.
<mgrwt>
<rscale>  1 0.85220228E+02</rscale>
<asrwt>0</asrwt>
<pdfrwt beam="1">  1       21 0.13514551E-01 0.85220228E+02</pdfrwt>
<pdfrwt beam="2">  1        4 0.14905497E-01 0.85220228E+02</pdfrwt>
<totfact> 0.68286598E+04</totfact>
</mgrwt>
</event>
<event>
 6    2  0.8544106E+000  0.9142095E+02  0.7546771E-02  0.1299447E+00
         21   -1    0    0  501  502  0.00000000000E+00  0.00000000000E+00  0.42269923933E+01  0.42269923933E+01  0.00000000000E+00 0. -1.
          2   -1    0    0  502    0 -0.00000000000E+00 -0.00000000000E+00 -0.11229586884E+04  0.11229586884E+04  0.00000000000E+00 0. -1.
         24    2    1    2    0    0 -0.22307894733E+02  0.39417068037E+02 -0.81153030922E+03  0.81666347633E+03  0.79413118384E+02 0.  0.
        -13    1    3    3    0    0  0.17758492402E+02 -0.14785789808E+02 -0.26136667334E+03  0.26238620689E+03  0.00000000000E+00 0.  1.
         14    1    3    3    0    0 -0.40066387135E+02  0.54202857844E+02 -0.55016363588E+03  0.55427726944E+03  0.00000000000E+00 0. -1.
          1    1    1    2  501    0  0.22307894733E+02 -0.39417068037E+02 -0.30720138680E+03  0.31052220447E+03  0.00000000000E+00 0. -1.
<mgrwt>
<rscale>  1 0.91420954E+02</rscale>
<asrwt>0</asrwt>
<pdfrwt beam="1">  1       21 0.65030651E-03 0.91420954E+02</pdfrwt>
<pdfrwt beam="2">  1        2 0.17276288E+00 0.91420954E+02</pdfrwt>
<totfact> 0.19782722E+06</totfact>
</mgrwt>
</event>
<event>
 6    2  0.8544106E+000  0.8471516E+02  0.7546771E-02  0.1316179E+00
         21   -1    0    0  501  502  0.00000000000E+00  0.00000000000E+00  0.31955250811E+03  0.31955250811E+03  0.00000000000E+00 0. -1.
         -1   -1    0    0    0  501 -0.00000000000E+00 -0.00000000000E+00 -0.45045578897E+02  0.45045578897E+02  0.00000000000E+00 0.  1.
         24    2    1    2    0    0  0.24843168134E+02 -0.11428079472E+02 -0.39446779381E+01  0.84806947890E+02  0.80180258936E+02 0.  0.
        -11    1    3    3    0    0  0.39831140828E+02 -0.37451610875E+02 -0.18904302061E+01  0.54705727883E+02  0.00000000000E+00 0.  1.
         12    1    3    3    0    0 -0.14987972694E+02  0.26023531403E+02 -0.20542477320E+01  0.30101220007E+02  0.00000000000E+00 0. -1.
         -2    1    1    2    0  502 -0.24843168134E+02  0.11428079472E+02  0.27845160715E+03  0.27979113912E+03  0.00000000000E+00 0.  1.
<mgrwt>
<rscale>  1 0.84715158E+02</rscale>
<asrwt>0</asrwt>
<pdfrwt beam="1">  1       21 0.49161923E-01 0.84715158E+02</pdfrwt>
<pdfrwt beam="2">  1       -1 0.69300893E-02 0.84715158E+02</pdfrwt>
<totfact> 0.36903857E+04</totfact>
</mgrwt>
</event>
<event>
 6    2  0.8544106E+000  0.9249873E+02  0.7546771E-02  0.1296911E+00
         21   -1    0    0  501  502  0.00000000000E+00  0.00000000000E+00  0.47664178620E+01  0.47664178620E+01  0.00000000000E+00 0. -1.
          4   -1    0    0  502    0 -0.00000000000E+00 -0.00000000000E+00 -0.10699379293E+04  0.10699379293E+04  0.00000000000E+00 0. -1.
         24    2    1    2    0    0  0.32420899656E+02 -0.32724437519E+02 -0.82377181660E+03  0.82894874456E+03  0.80212291617E+02 0.  0.
        -13    1    3    3    0    0 -0.10791741027E+02  0.18489134269E+02 -0.11185076338E+03  0.11388109162E+03  0.00000000000E+00 0.  1.
         14    1    3    3    0    0  0.43212640683E+02 -0.51213571788E+02 -0.71192105323E+03  0.71506765294E+03  0.00000000000E+00 0. -1.
          3    1    1    2  501    0 -0.32420899656E+02  0.32724437519E+02 -0.24139969481E+03  0.24575560258E+03  0.00000000000E+00 0. -1.
<mgrwt>
<rscale>  1 0.92498731E+02</rscale>
<asrwt>0</asrwt>
<pdfrwt beam="1">  1       21 0.73329557E-03 0.92498731E+02</pdfrwt>
<pdfrwt beam="2">  1        4 0.16460572E+00 0.92498731E+02</pdfrwt>
<totfact> 0.58532085E+04</totfact>
</mgrwt>
</event>
<event>
 6    2  0.8544106E+000  0.8463894E+02  0.7546771E-02  0.1316379E+00
          2   -1    0    0  502    0 -0.00000000000E+00  0.00000000000E+00  0.75254157553E+03  0.75254157553E+03  0.00000000000E+00 0. -1.
         21   -1    0    0  501  502  0.00000000000E+00 -0.00000000000E+00 -0.10075008140E+02  0.10075008140E+02  0.00000000000E+00 0. -1.
         24    2    1    2    0    0 -0.25910027959E+02  0.12957800489E+02  0.72248141163E+03  0.72742225752E+03  0.79526828467E+02 0.  0.
        -11    1    3    3    0    0 -0.49327877363E+02  0.15486880041E+02  0.31108519683E+03  0.31535231508E+03  0.00000000000E+00 0.  1.
         12    1    3    3    0    0  0.23417849405E+02 -0.25290795516E+01  0.41139621480E+03  0.41206994244E+03  0.00000000000E+00 0. -1.
          1    1    1    2  501    0  0.25910027959E+02 -0.12957800489E+02  0.19985155764E+02  0.35194326151E+02  0.00000000000E+00 0. -1.
<mgrwt>
<rscale>  1 0.84638943E+02</rscale>
<asrwt>0</asrwt>
<pdfrwt beam="1">  1       21 0.15500018E-02 0.84638943E+02</pdfrwt>
<pdfrwt beam="2">  1        2 0.11577558E+00 0.84638943E+02</pdfrwt>
<totfact> 0.85115522E+05</totfact>
</mgrwt>
</event>
<event>
 6    2  0.8544106E+000  0.8440631E+02  0.7546771E-02  0.1316992E+00
          2   -1    0    0  502    0 -0.00000000000E+00  0.00000000000E+00  0.26712114146E+04  0.26712114146E+04  0.00000000000E+00 0. -1.
         21   -1    0    0  501  502  0.00000000000E+00 -0.00000000000E+00 -0.14507187260E+01  0.14507187260E+01  0.00000000000E+00 0.  1.
         24    2    1    2    0    0 -0.39880136625E+01 -0.28586969877E+02  0.23730945363E+04  0.23745951453E+04  0.79317758948E+02 0.  0.
        -13    1    3    3    0    0 -0.54781396755E+01 -0.55490206833E+02  0.13604869455E+04  0.13616291353E+04  0.00000000000E+00 0.  1.
         14    1    3    3    0    0  0.14901260130E+01  0.26903236956E+02  0.10126075907E+04  0.10129660100E+04  0.00000000000E+00 0. -1.
          1    1    1    2  501    0  0.39880136625E+01  0.28586969877E+02  0.29666615960E+03  0.29806698803E+03  0.00000000000E+00 0. -1.
<mgrwt>
<rscale>  1 0.84406315E+02</rscale>
<asrwt>0</asrwt>
<pdfrwt beam="1">  1       21 0.22318963E-03 0.84406315E+02</pdfrwt>
<pdfrwt beam="2">  1        2 0.41095167E+00 0.84406315E+02</pdfrwt>
<totfact> 0.15973565E+06</totfact>
</mgrwt>
</event>
<event>
 6    2  0.8544106E+000  0.9094395E+02  0.7546771E-02  0.1300582E+00
         21   -1    0    0  501  502  0.00000000000E+00  0.00000000000E+00  0.97902453241E+01  0.97902453241E+01  0.00000000000E+00 0.  1.
          2   -1    0    0  502    0 -0.00000000000E+00 -0.00000000000E+00 -0.43437546206E+03  0.43437546206E+03  0.00000000000E+00 0. -1.
         24    2    1    2    0    0 -0.23777123702E+02  0.25103634597E+02 -0.35499312793E+03  0.36645725928E+03  0.84114552391E+02 0.  0.
        -11    1    3    3    0    0 -0.47117042488E+02  0.27759222660E+02 -0.14189534344E+03  0.15206866418E+03  0.00000000000E+00 0.  1.
         12    1    3    3    0    0  0.23339918786E+02 -0.26555880632E+01 -0.21309778448E+03  0.21438859510E+03  0.00000000000E+00 0. -1.
          1    1    1    2  501    0  0.23777123702E+02 -0.25103634597E+02 -0.69592088806E+02  0.77708448099E+02  0.00000000000E+00 0. -1.
<mgrwt>
<rscale>  1 0.90943950E+02</rscale>
<asrwt>0</asrwt>
<pdfrwt beam="1">  1       21 0.15061915E-02 0.90943950E+02</pdfrwt>
<pdfrwt beam="2">  1        2 0.66826998E-01 0.90943950E+02</pdfrwt>
<totfact> 0.16531066E+06</totfact>
</mgrwt>
</event>
<event>
 6    2  0.8544106E+000  0.8670387E+02  0.7546771E-02  0.1311036E+00
          4   -1    0    0  502    0 -0.00000000000E+00  0.00000000000E+00  0.11527056681E+03  0.11527056681E+03  0.00000000000E+00 0. -1.
         21   -1    0    0  501  502  0.00000000000E+00 -0.00000000000E+00 -0.39389182762E+02  0.39389182762E+02  0.00000000000E+00 0.  1.
         24    2    1    2    0    0  0.24001615928E+02  0.22802366993E+02  0.83840615763E+02  0.12061015520E+03  0.80134481832E+02 0.  0.
        -11    1    3    3    0    0 -0.13626508500E+02 -0.18881822077E+02  0.50016586104E+01  0.23816412990E+02  0.00000000000E+00 0.  1.
         12    1    3    3    0    0  0.37628124427E+02  0.41684189070E+02  0.78838957152E+02  0.96793742211E+02  0.00000000000E+00 0. -1.
          3    1    1    2  501    0 -0.24001615928E+02 -0.22802366993E+02 -0.79592317111E+01  0.34049594374E+02  0.00000000000E+00 0. -1.
<mgrwt>
<rscale>  1 0.86703868E+02</rscale>
<asrwt>0</asrwt>
<pdfrwt beam="1">  1       21 0.60598743E-02 0.86703868E+02</pdfrwt>
<pdfrwt beam="2">  1        4 0.17733933E-01 0.86703868E+02</pdfrwt>
<totfact> 0.20113511E+05</totfact>
</mgrwt>
</event>
<event>
 6    2  0.8544106E+000  0.8905081E+02  0.7546771E-02  0.1305167E+00
         -3   -1    0    0    0  501 -0.00000000000E+00  0.00000000000E+00  0.75034433057E+02  0.75034433057E+02  0.00000000000E+00 0.  1.
         21   -1    0    0  501  502  0.00000000000E+00 -0.00000000000E+00 -0.36504102058E+03  0.36504102058E+03  0.00000000000E+00 0.  1.
         24    2    1    2    0    0 -0.34946822619E+02 -0.15290987917E+02  0.47153354448E+02  0.10076450304E+03  0.80467083429E+02 0.  0.
        -13    1    3    3    0    0  0.57973141916E+01 -0.13190219157E+02  0.57001695428E+02  0.58794421631E+02  0.00000000000E+00 0.  1.
         14    1    3    3    0    0 -0.40744136810E+02 -0.21007687599E+01 -0.98483409807E+01  0.41970081414E+02  0.00000000000E+00 0. -1.
         -4    1    1    2    0  502  0.34946822619E+02  0.15290987917E+02 -0.33715994197E+03  0.33931095059E+03  0.00000000000E+00 0.  1.
<mgrwt>
<rscale>  1 0.89050807E+02</rscale>
<asrwt>0</asrwt>
<pdfrwt beam="1">  1       21 0.56160156E-01 0.89050807E+02</pdfrwt>
<pdfrwt beam="2">  1       -3 0.11543759E-01 0.89050807E+02</pdfrwt>
<totfact> 0.82459019E+03</totfact>
</mgrwt>
</event>
<event>
 6    2  0.8544106E+000  0.1090413E+03  0.7546771E-02  0.1262356E+00
         21   -1    0    0  501  502  0.00000000000E+00  0.00000000000E+00  0.40097234854E+01  0.40097234854E+01  0.00000000000E+00 0. -1.
          2   -1    0    0  502    0 -0.00000000000E+00 -0.00000000000E+00 -0.34023977755E+04  0.34023977755E+04  0.00000000000E+00 0. -1.
         24    2    1    2    0    0 -0.70407290390E+02 -0.20572556789E+02 -0.29535695007E+04  0.29555816343E+04  0.80682000465E+02 0.  0.
        -11    1    3    3    0    0  0.98144686583E+01  0.15523036457E+02 -0.30560934303E+03  0.30616067514E+03  0.00000000000E+00 0.  1.
         12    1    3    3    0    0 -0.80221759049E+02 -0.36095593246E+02 -0.26479601576E+04  0.26494209592E+04  0.00000000000E+00 0. -1.
          1    1    1    2  501    0  0.70407290390E+02  0.20572556789E+02 -0.44481855138E+03  0.45082586471E+03  0.00000000000E+00 0. -1.
<mgrwt>
<rscale>  1 0.10904128E+03</rscale>
<asrwt>0</asrwt>
<pdfrwt beam="1">  1       21 0.61688286E-03 0.10904128E+03</pdfrwt>
<pdfrwt beam="2">  1        2 0.52344384E+00 0.10904128E+03</pdfrwt>
<totfact> 0.12861195E+05</totfact>
</mgrwt>
</event>
<event>
 6    2  0.8544106E+000  0.9090391E+02  0.7546771E-02  0.1300677E+00
          2   -1    0    0  502    0 -0.00000000000E+00  0.00000000000E+00  0.81231681483E+02  0.81231681483E+02  0.00000000000E+00 0. -1.
         21   -1    0    0  501  502  0.00000000000E+00 -0.00000000000E+00 -0.56588216604E+02  0.56588216604E+02  0.00000000000E+00 0. -1.
         24    2    1    2    0    0  0.33543524389E+02  0.15482694021E+02  0.38011793748E+02  0.98531298476E+02  0.83058042795E+02 0.  0.
        -13    1    3    3    0    0  0.14628334355E+02 -0.22104770484E+02 -0.15306642602E+02  0.30608860676E+02  0.00000000000E+00 0.  1.
         14    1    3    3    0    0  0.18915190033E+02  0.37587464505E+02  0.53318436350E+02  0.67922437800E+02  0.00000000000E+00 0. -1.
          1    1    1    2  501    0 -0.33543524389E+02 -0.15482694021E+02 -0.13368328869E+02  0.39288599610E+02  0.00000000000E+00 0. -1.
<mgrwt>
<rscale>  1 0.90903907E+02</rscale>
<asrwt>0</asrwt>
<pdfrwt beam="1">  1       21 0.87058795E-02 0.90903907E+02</pdfrwt>
<pdfrwt beam="2">  1        2 0.12497182E-01 0.90903907E+02</pdfrwt>
<totfact> 0.57455023E+05</totfact>
</mgrwt>
</event>
<event>
 6    2  0.8544106E+000  0.9643898E+02  0.7546771E-02  0.1287968E+00
         21   -1    0    0  501  502  0.00000000000E+00  0.00000000000E+00  0.47746739774E+01  0.47746739774E+01  0.00000000000E+00 0. -1.
          2   -1    0    0  502    0 -0.00000000000E+00 -0.00000000000E+00 -0.12462275541E+04  0.12462275541E+04  0.00000000000E+00 0. -1.
         24    2    1    2    0    0  0.30281948626E+02  0.43830330331E+02 -0.93424923821E+03  0.93921356267E+03  0.80388947901E+02 0.  0.
        -13    1    3    3    0    0 -0.18298302896E+02  0.14533376898E+02 -0.87515729004E+02  0.90581729704E+02  0.00000000000E+00 0.  1.
         14    1    3    3    0    0  0.48580251522E+02  0.29296953433E+02 -0.84673350920E+03  0.84863183297E+03  0.00000000000E+00 0. -1.
          1    1    1    2  501    0 -0.30281948626E+02 -0.43830330331E+02 -0.30720364189E+03  0.31178866538E+03  0.00000000000E+00 0. -1.
<mgrwt>
<rscale>  1 0.96438982E+02</rscale>
<asrwt>0</asrwt>
<pdfrwt beam="1">  1       21 0.73456505E-03 0.96438982E+02</pdfrwt>
<pdfrwt beam="2">  1        2 0.19172736E+00 0.96438982E+02</pdfrwt>
<totfact> 0.14089954E+06</totfact>
</mgrwt>
</event>
<event>
 6    2  0.8544106E+000  0.8368308E+02  0.7546771E-02  0.1318913E+00
          2   -1    0    0  502    0 -0.00000000000E+00  0.00000000000E+00  0.21153627794E+04  0.21153627794E+04  0.00000000000E+00 0. -1.
         21   -1    0    0  501  502  0.00000000000E+00 -0.00000000000E+00 -0.12762139651E+01  0.12762139651E+01  0.00000000000E+00 0. -1.
         24    2    1    2    0    0 -0.19876234956E+02 -0.28351959587E+01  0.16572441569E+04  0.16593556137E+04  0.81238871205E+02 0.  0.
        -13    1    3    3    0    0  0.26337326927E+02  0.17974914342E+02  0.77643780518E+03  0.77709228387E+03  0.00000000000E+00 0.  1.
         14    1    3    3    0    0 -0.46213561882E+02 -0.20810110301E+02  0.88080635168E+03  0.88226332982E+03  0.00000000000E+00 0. -1.
          1    1    1    2  501    0  0.19876234956E+02  0.28351959587E+01  0.45684240856E+03  0.45728337965E+03  0.00000000000E+00 0. -1.
<mgrwt>
<rscale>  1 0.83683076E+02</rscale>
<asrwt>0</asrwt>
<pdfrwt beam="1">  1       21 0.19634230E-03 0.83683076E+02</pdfrwt>
<pdfrwt beam="2">  1        2 0.32543762E+00 0.83683076E+02</pdfrwt>
<totfact> 0.37514173E+06</totfact>
</mgrwt>
</event>
<event>
 6    2  0.9133521E+000  0.7943209E+02  0.7546771E-02  0.1330671E+00
         -3   -1    0    0    0  501 -0.00000000000E+00  0.00000000000E+00  0.52783295313E+03  0.52783295313E+03  0.00000000000E+00 0.  1.
         21   -1    0    0  501  502  0.00000000000E+00 -0.00000000000E+00 -0.54316741413E+01  0.54316741413E+01  0.00000000000E+00 0. -1.
         24    2    1    2    0    0 -0.18121762573E+02 -0.13266961717E+02  0.32393502372E+03  0.33353164293E+03  0.76190857022E+02 0.  0.
        -13    1    3    3    0    0  0.17353284641E+02  0.56595741497E+01  0.23752002889E+03  0.23822034210E+03  0.00000000000E+00 0.  1.
         14    1    3    3    0    0 -0.35475047214E+02 -0.18926535867E+02  0.86414994827E+02  0.95311300829E+02  0.00000000000E+00 0. -1.
         -4    1    1    2    0  502  0.18121762573E+02  0.13266961717E+02  0.19846625527E+03  0.19973298434E+03  0.00000000000E+00 0.  1.
<mgrwt>
<rscale>  1 0.79432092E+02</rscale>
<asrwt>0</asrwt>
<pdfrwt beam="1">  1       21 0.83564259E-03 0.79432092E+02</pdfrwt>
<pdfrwt beam="2">  1       -3 0.81205029E-01 0.79432092E+02</pdfrwt>
<totfact> 0.31147163E+05</totfact>
</mgrwt>
</event>
<event>
 6    2  0.8544106E+000  0.8634783E+02  0.7546771E-02  0.1311945E+00
         21   -1    0    0  501  502  0.00000000000E+00  0.00000000000E+00  0.15981226915E+01  0.15981226915E+01  0.00000000000E+00 0. -1.
          2   -1    0    0  502    0 -0.00000000000E+00 -0.00000000000E+00 -0.22417083341E+04  0.22417083341E+04  0.00000000000E+00 0. -1.
         24    2    1    2    0    0  0.24582535973E+02  0.14924780138E+02 -0.19082073135E+04  0.19101599668E+04  0.81418041167E+02 0.  0.
        -13    1    3    3    0    0 -0.45138088718E+01  0.15537940581E+02 -0.75172042418E+02  0.76893680035E+02  0.00000000000E+00 0.  1.
         14    1    3    3    0    0  0.29096344845E+02 -0.61316044223E+00 -0.18330352711E+04  0.18332662868E+04  0.00000000000E+00 0. -1.
          1    1    1    2  501    0 -0.24582535973E+02 -0.14924780138E+02 -0.33190289786E+03  0.33314648992E+03  0.00000000000E+00 0. -1.
<mgrwt>
<rscale>  1 0.86347829E+02</rscale>
<asrwt>0</asrwt>
<pdfrwt beam="1">  1       21 0.24586468E-03 0.86347829E+02</pdfrwt>
<pdfrwt beam="2">  1        2 0.34487869E+00 0.86347829E+02</pdfrwt>
<totfact> 0.23157111E+06</totfact>
</mgrwt>
</event>
<event>
 6    2  0.8544106E+000  0.9171647E+02  0.7546771E-02  0.1298747E+00
          2   -1    0    0  502    0 -0.00000000000E+00  0.00000000000E+00  0.75221334566E+03  0.75221334566E+03  0.00000000000E+00 0. -1.
         21   -1    0    0  501  502  0.00000000000E+00 -0.00000000000E+00 -0.57671968207E+01  0.57671968207E+01  0.00000000000E+00 0.  1.
         24    2    1    2    0    0  0.38181611876E+02 -0.79991036702E+01  0.56418468586E+03  0.57159099870E+03  0.83006559297E+02 0.  0.
        -13    1    3    3    0    0  0.57322233638E+02 -0.26491821948E+02  0.44588459602E+03  0.45033401833E+03  0.00000000000E+00 0.  1.
         14    1    3    3    0    0 -0.19140621762E+02  0.18492718278E+02  0.11830008985E+03  0.12125698037E+03  0.00000000000E+00 0. -1.
          1    1    1    2  501    0 -0.38181611876E+02  0.79991036702E+01  0.18226146297E+03  0.18638954378E+03  0.00000000000E+00 0. -1.
<mgrwt>
<rscale>  1 0.91716465E+02</rscale>
<asrwt>0</asrwt>
<pdfrwt beam="1">  1       21 0.88726165E-03 0.91716465E+02</pdfrwt>
<pdfrwt beam="2">  1        2 0.11572505E+00 0.91716465E+02</pdfrwt>
<totfact> 0.20602838E+06</totfact>
</mgrwt>
</event>
<event>
 6    2  0.8544106E+000  0.8246158E+02  0.7546771E-02  0.1322207E+00
         21   -1    0    0  501  502  0.00000000000E+00  0.00000000000E+00  0.38751435124E+01  0.38751435124E+01  0.00000000000E+00 0. -1.
          2   -1    0    0  502    0 -0.00000000000E+00 -0.00000000000E+00 -0.70177624262E+03  0.70177624262E+03  0.00000000000E+00 0. -1.
         24    2    1    2    0    0  0.20874895064E+02 -0.60401945369E+01 -0.56477453185E+03  0.57076280950E+03  0.79546638502E+02 0.  0.
        -13    1    3    3    0    0 -0.24082856808E+02 -0.21803551630E+01 -0.72538241251E+02  0.76462633910E+02  0.00000000000E+00 0.  1.
         14    1    3    3    0    0  0.44957751872E+02 -0.38598393740E+01 -0.49223629060E+03  0.49430017559E+03  0.00000000000E+00 0. -1.
          1    1    1    2  501    0 -0.20874895064E+02  0.60401945369E+01 -0.13312656726E+03  0.13488857663E+03  0.00000000000E+00 0. -1.
<mgrwt>
<rscale>  1 0.82461584E+02</rscale>
<asrwt>0</asrwt>
<pdfrwt beam="1">  1       21 0.59617584E-03 0.82461584E+02</pdfrwt>
<pdfrwt beam="2">  1        2 0.10796559E+00 0.82461584E+02</pdfrwt>
<totfact> 0.40851347E+06</totfact>
</mgrwt>
</event>
<event>
 6    2  0.8544106E+000  0.9108778E+02  0.7546771E-02  0.1300239E+00
          2   -1    0    0  502    0 -0.00000000000E+00  0.00000000000E+00  0.16439137551E+04  0.16439137551E+04  0.00000000000E+00 0. -1.
         21   -1    0    0  501  502  0.00000000000E+00 -0.00000000000E+00 -0.37823920949E+01  0.37823920949E+01  0.00000000000E+00 0. -1.
         24    2    1    2    0    0 -0.42699517199E+02  0.38179686124E+01  0.14469953216E+04  0.14498594566E+04  0.80368884091E+02 0.  0.
        -13    1    3    3    0    0 -0.26013249856E+02 -0.20247293080E+02  0.21466785086E+03  0.21718408836E+03  0.00000000000E+00 0.  1.
         14    1    3    3    0    0 -0.16686267343E+02  0.24065261692E+02  0.12323274707E+04  0.12326753682E+04  0.00000000000E+00 0. -1.
          1    1    1    2  501    0  0.42699517199E+02 -0.38179686124E+01  0.19313604147E+03  0.19783669065E+03  0.00000000000E+00 0. -1.
<mgrwt>
<rscale>  1 0.91087777E+02</rscale>
<asrwt>0</asrwt>
<pdfrwt beam="1">  1       21 0.58190779E-03 0.91087777E+02</pdfrwt>
<pdfrwt beam="2">  1        2 0.25290924E+00 0.91087777E+02</pdfrwt>
<totfact> 0.12524957E+06</totfact>
</mgrwt>
</event>
<event>
 6    2  0.8544106E+000  0.8603399E+02  0.7546771E-02  0.1312750E+00
          2   -1    0    0  502    0 -0.00000000000E+00  0.00000000000E+00  0.85817792490E+03  0.85817792490E+03  0.00000000000E+00 0. -1.
         21   -1    0    0  501  502  0.00000000000E+00 -0.00000000000E+00 -0.37238683747E+01  0.37238683747E+01  0.00000000000E+00 0.  1.
         24    2    1    2    0    0  0.16964507492E+02  0.21002361252E+02  0.64181467230E+03  0.64755534143E+03  0.81688144481E+02 0.  0.
        -13    1    3    3    0    0  0.32671185688E+02  0.15788047522E+02  0.11740309911E+03  0.12288269406E+03  0.00000000000E+00 0.  1.
         14    1    3    3    0    0 -0.15706678196E+02  0.52143137308E+01  0.52441157319E+03  0.52467264737E+03  0.00000000000E+00 0. -1.
          1    1    1    2  501    0 -0.16964507492E+02 -0.21002361252E+02  0.21263938423E+03  0.21434645184E+03  0.00000000000E+00 0. -1.
<mgrwt>
<rscale>  1 0.86033985E+02</rscale>
<asrwt>0</asrwt>
<pdfrwt beam="1">  1       21 0.57290351E-03 0.86033985E+02</pdfrwt>
<pdfrwt beam="2">  1        2 0.13202722E+00 0.86033985E+02</pdfrwt>
<totfact> 0.34254989E+06</totfact>
</mgrwt>
</event>
<event>
 6    2  0.8544106E+000  0.9413667E+02  0.7546771E-02  0.1293132E+00
         21   -1    0    0  501  502  0.00000000000E+00  0.00000000000E+00  0.12936285480E+03  0.12936285480E+03  0.00000000000E+00 0. -1.
          2   -1    0    0  502    0 -0.00000000000E+00 -0.00000000000E+00 -0.42642463253E+02  0.42642463253E+02  0.00000000000E+00 0. -1.
         24    2    1    2    0    0 -0.38776569516E+02 -0.35538590646E+02  0.42490233311E+02  0.10328180922E+03  0.78071111310E+02 0.  0.
        -11    1    3    3    0    0 -0.27048264682E+02 -0.15582146719E+02  0.64300929193E+02  0.71477418908E+02  0.00000000000E+00 0.  1.
         12    1    3    3    0    0 -0.11728304834E+02 -0.19956443927E+02 -0.21810695882E+02  0.31804390316E+02  0.00000000000E+00 0. -1.
          1    1    1    2  501    0  0.38776569516E+02  0.35538590646E+02  0.44230158240E+02  0.68723508834E+02  0.00000000000E+00 0. -1.
<mgrwt>
<rscale>  1 0.94136668E+02</rscale>
<asrwt>0</asrwt>
<pdfrwt beam="1">  1       21 0.19901977E-01 0.94136668E+02</pdfrwt>
<pdfrwt beam="2">  1        2 0.65603790E-02 0.94136668E+02</pdfrwt>
<totfact> 0.29354247E+05</totfact>
</mgrwt>
</event>
<event>
 6    2  0.8544106E+000  0.8675306E+02  0.7546771E-02  0.1310911E+00
         21   -1    0    0  501  502  0.00000000000E+00  0.00000000000E+00  0.81596216135E+02  0.81596216135E+02  0.00000000000E+00 0. -1.
          2   -1    0    0  502    0 -0.00000000000E+00 -0.00000000000E+00 -0.17297521397E+04  0.17297521397E+04  0.00000000000E+00 0. -1.
         24    2    1    2    0    0  0.24587319047E+02  0.58103687787E+01 -0.17266810405E+04  0.17288590193E+04  0.82992748956E+02 0.  0.
        -13    1    3    3    0    0 -0.25702475608E+02 -0.59315481560E+00 -0.25226570966E+03  0.25357239075E+03  0.00000000000E+00 0.  1.
         14    1    3    3    0    0  0.50289794655E+02  0.64035235943E+01 -0.14744153309E+04  0.14752866286E+04  0.00000000000E+00 0. -1.
          1    1    1    2  501    0 -0.24587319047E+02 -0.58103687787E+01  0.78525116959E+02  0.82489336503E+02  0.00000000000E+00 0. -1.
<mgrwt>
<rscale>  1 0.86753058E+02</rscale>
<asrwt>0</asrwt>
<pdfrwt beam="1">  1       21 0.12553263E-01 0.86753058E+02</pdfrwt>
<pdfrwt beam="2">  1        2 0.26611573E+00 0.86753058E+02</pdfrwt>
<totfact> 0.76433211E+03</totfact>
</mgrwt>
</event>
<event>
 6    2  0.8544106E+000  0.8910135E+02  0.7546771E-02  0.1305043E+00
         21   -1    0    0  501  502  0.00000000000E+00  0.00000000000E+00  0.23458507806E+03  0.23458507806E+03  0.00000000000E+00 0. -1.
         -3   -1    0    0    0  501 -0.00000000000E+00 -0.00000000000E+00 -0.41777567852E+02  0.41777567852E+02  0.00000000000E+00 0.  1.
         24    2    1    2    0    0 -0.28695583441E+02  0.32609144130E+02  0.21117412728E+03  0.22920201177E+03  0.77796255570E+02 0.  0.
        -11    1    3    3    0    0 -0.35534788784E+02  0.25739307377E+02  0.45375618677E+02  0.63120360649E+02  0.00000000000E+00 0.  1.
         12    1    3    3    0    0  0.68392053434E+01  0.68698367525E+01  0.16579850860E+03  0.16608165112E+03  0.00000000000E+00 0. -1.
         -4    1    1    2    0  502  0.28695583441E+02 -0.32609144130E+02 -0.18366617067E+02  0.47160634139E+02  0.00000000000E+00 0.  1.
<mgrwt>
<rscale>  1 0.89101348E+02</rscale>
<asrwt>0</asrwt>
<pdfrwt beam="1">  1       21 0.36090011E-01 0.89101348E+02</pdfrwt>
<pdfrwt beam="2">  1       -3 0.64273183E-02 0.89101348E+02</pdfrwt>
<totfact> 0.51819715E+04</totfact>
</mgrwt>
</event>
<event>
 6    2  0.8544106E+000  0.8940041E+02  0.7546771E-02  0.1304310E+00
         21   -1    0    0  501  502  0.00000000000E+00  0.00000000000E+00  0.37928609223E+01  0.37928609223E+01  0.00000000000E+00 0. -1.
          2   -1    0    0  502    0 -0.00000000000E+00 -0.00000000000E+00 -0.17470018874E+04  0.17470018874E+04  0.00000000000E+00 0. -1.
         24    2    1    2    0    0 -0.36810304860E+02  0.50914125308E+01 -0.16105461464E+04  0.16130255182E+04  0.81311201980E+02 0.  0.
        -13    1    3    3    0    0  0.52949727182E+00 -0.21503675774E+02 -0.12982530628E+03  0.13159520732E+03  0.00000000000E+00 0.  1.
         14    1    3    3    0    0 -0.37339802132E+02  0.26595088304E+02 -0.14807208402E+04  0.14814303109E+04  0.00000000000E+00 0. -1.
          1    1    1    2  501    0  0.36810304860E+02 -0.50914125308E+01 -0.13266288007E+03  0.13776923015E+03  0.00000000000E+00 0. -1.
<mgrwt>
<rscale>  1 0.89400406E+02</rscale>
<asrwt>0</asrwt>
<pdfrwt beam="1">  1       21 0.58351730E-03 0.89400406E+02</pdfrwt>
<pdfrwt beam="2">  1        2 0.26876941E+00 0.89400406E+02</pdfrwt>
<totfact> 0.11056129E+06</totfact>
</mgrwt>
</event>
<event>
 6    2  0.8544106E+000  0.8746607E+02  0.7546771E-02  0.1309107E+00
          2   -1    0    0  502    0 -0.00000000000E+00  0.00000000000E+00  0.34866318459E+02  0.34866318459E+02  0.00000000000E+00 0. -1.
         21   -1    0    0  501  502  0.00000000000E+00 -0.00000000000E+00 -0.20805351169E+03  0.20805351169E+03  0.00000000000E+00 0. -1.
         24    2    1    2    0    0  0.80071827882E+01 -0.22195250400E+02 -0.22388051843E+02  0.90285872067E+02  0.84223332355E+02 0.  0.
        -13    1    3    3    0    0 -0.31293740612E+02 -0.19615419403E+02 -0.32964762888E+02  0.49504933816E+02  0.00000000000E+00 0.  1.
         14    1    3    3    0    0  0.39300923400E+02 -0.25798309968E+01  0.10576711045E+02  0.40780938251E+02  0.00000000000E+00 0. -1.
          1    1    1    2  501    0 -0.80071827882E+01  0.22195250400E+02 -0.15079914138E+03  0.15263395808E+03  0.00000000000E+00 0. -1.
<mgrwt>
<rscale>  1 0.87466072E+02</rscale>
<asrwt>0</asrwt>
<pdfrwt beam="1">  1       21 0.32008232E-01 0.87466072E+02</pdfrwt>
<pdfrwt beam="2">  1        2 0.53640490E-02 0.87466072E+02</pdfrwt>
<totfact> 0.15480106E+05</totfact>
</mgrwt>
</event>
<event>
 6    2  0.8544106E+000  0.1032387E+03  0.7546771E-02  0.1273629E+00
          2   -1    0    0  502    0 -0.00000000000E+00  0.00000000000E+00  0.27260074948E+04  0.27260074948E+04  0.00000000000E+00 0. -1.
         21   -1    0    0  501  502  0.00000000000E+00 -0.00000000000E+00 -0.91017875641E+01  0.91017875641E+01  0.00000000000E+00 0.  1.
         24    2    1    2    0    0  0.37200912874E+01 -0.68429092034E+02  0.30064206594E+03  0.31787400958E+03  0.77213045798E+02 0.  0.
        -11    1    3    3    0    0  0.14711512257E+02 -0.26683875046E+02  0.26584613974E+02  0.40437599836E+02  0.00000000000E+00 0.  1.
         12    1    3    3    0    0 -0.10991420970E+02 -0.41745216988E+02  0.27405745196E+03  0.27743640975E+03  0.00000000000E+00 0. -1.
          1    1    1    2  501    0 -0.37200912874E+01  0.68429092034E+02  0.24162636413E+04  0.24172352728E+04  0.00000000000E+00 0. -1.
<mgrwt>
<rscale>  1 0.10323872E+03</rscale>
<asrwt>0</asrwt>
<pdfrwt beam="1">  1       21 0.14002772E-02 0.10323872E+03</pdfrwt>
<pdfrwt beam="2">  1        2 0.41938512E+00 0.10323872E+03</pdfrwt>
<totfact> 0.88406880E+04</totfact>
</mgrwt>
</event>
<event>
 6    2  0.8544106E+000  0.8928962E+02  0.7546771E-02  0.1304581E+00
         21   -1    0    0  501  502  0.00000000000E+00  0.00000000000E+00  0.17466916393E+04  0.17466916393E+04  0.00000000000E+00 0. -1.
         -1   -1    0    0    0  501 -0.00000000000E+00 -0.00000000000E+00 -0.23679349733E+01  0.23679349733E+01  0.00000000000E+00 0.  1.
         24    2    1    2    0    0  0.15372500027E+01 -0.34530945586E+02  0.14429925347E+04  0.14457524311E+04  0.82327925709E+02 0.  0.
        -13    1    3    3    0    0 -0.37109981764E+02  0.51749685387E+00  0.60587212904E+03  0.60700778849E+03  0.00000000000E+00 0.  1.
         14    1    3    3    0    0  0.38647231767E+02 -0.35048442439E+02  0.83712040570E+03  0.83874464260E+03  0.00000000000E+00 0. -1.
         -2    1    1    2    0  502 -0.15372500027E+01  0.34530945586E+02  0.30133116963E+03  0.30330714322E+03  0.00000000000E+00 0.  1.
<mgrwt>
<rscale>  1 0.89289623E+02</rscale>
<asrwt>0</asrwt>
<pdfrwt beam="1">  1       21 0.26872076E+00 0.89289623E+02</pdfrwt>
<pdfrwt beam="2">  1       -1 0.36429908E-03 0.89289623E+02</pdfrwt>
<totfact> 0.36991552E+04</totfact>
</mgrwt>
</event>
<event>
 6    2  0.8544106E+000  0.1158760E+03  0.7546771E-02  0.1250060E+00
         21   -1    0    0  501  502  0.00000000000E+00  0.00000000000E+00  0.55094129774E+02  0.55094129774E+02  0.00000000000E+00 0. -1.
          2   -1    0    0  502    0 -0.00000000000E+00 -0.00000000000E+00 -0.32881342508E+03  0.32881342508E+03  0.00000000000E+00 0. -1.
         24    2    1    2    0    0 -0.81920279149E+02 -0.10110955980E+02 -0.27807346728E+03  0.30125090128E+03  0.81327048105E+02 0.  0.
        -11    1    3    3    0    0 -0.45145652042E+02 -0.28249346307E+02 -0.63877698516E+02  0.83165592842E+02  0.00000000000E+00 0.  1.
         12    1    3    3    0    0 -0.36774627107E+02  0.18138390328E+02 -0.21419576876E+03  0.21808530844E+03  0.00000000000E+00 0. -1.
          1    1    1    2  501    0  0.81920279149E+02  0.10110955980E+02  0.43541719679E+01  0.82656653575E+02  0.00000000000E+00 0. -1.
<mgrwt>
<rscale>  1 0.11587602E+03</rscale>
<asrwt>0</asrwt>
<pdfrwt beam="1">  1       21 0.84760200E-02 0.11587602E+03</pdfrwt>
<pdfrwt beam="2">  1        2 0.50586681E-01 0.11587602E+03</pdfrwt>
<totfact> 0.13122231E+05</totfact>
</mgrwt>
</event>
<event>
 6    2  0.8544106E+000  0.8722519E+02  0.7546771E-02  0.1309714E+00
         21   -1    0    0  501  502  0.00000000000E+00  0.00000000000E+00  0.65408152365E+03  0.65408152365E+03  0.00000000000E+00 0.  1.
         -3   -1    0    0    0  501 -0.00000000000E+00 -0.00000000000E+00 -0.70219707105E+01  0.70219707105E+01  0.00000000000E+00 0.  1.
         24    2    1    2    0    0  0.22922004160E+02 -0.35873783638E+02  0.33569071883E+03  0.34683784641E+03  0.76130718940E+02 0.  0.
        -13    1    3    3    0    0  0.15526989643E+02  0.26569273848E+01  0.97106423963E+01  0.18505222135E+02  0.00000000000E+00 0.  1.
         14    1    3    3    0    0  0.73950145174E+01 -0.38530711023E+02  0.32598007644E+03  0.32833262428E+03  0.00000000000E+00 0. -1.
         -4    1    1    2    0  502 -0.22922004160E+02  0.35873783638E+02  0.31136883411E+03  0.31426564795E+03  0.00000000000E+00 0.  1.
<mgrwt>
<rscale>  1 0.87225186E+02</rscale>
<asrwt>0</asrwt>
<pdfrwt beam="1">  1       21 0.10062788E+00 0.87225186E+02</pdfrwt>
<pdfrwt beam="2">  1       -3 0.10803037E-02 0.87225186E+02</pdfrwt>
<totfact> 0.90344183E+04</totfact>
</mgrwt>
</event>
<event>
 6    2  0.8544106E+000  0.8799184E+02  0.7546771E-02  0.1307789E+00
         -1   -1    0    0    0  501 -0.00000000000E+00  0.00000000000E+00  0.72959762118E+02  0.72959762118E+02  0.00000000000E+00 0.  1.
         21   -1    0    0  501  502  0.00000000000E+00 -0.00000000000E+00 -0.13454164851E+03  0.13454164851E+03  0.00000000000E+00 0.  1.
         24    2    1    2    0    0  0.69035899867E+01  0.32829920087E+02  0.42808647242E+02  0.97852668183E+02  0.81345566469E+02 0.  0.
        -11    1    3    3    0    0 -0.93432329794E+01  0.36500397095E+02  0.61932111288E+02  0.72492492019E+02  0.00000000000E+00 0.  1.
         12    1    3    3    0    0  0.16246822966E+02 -0.36704770080E+01 -0.19123464046E+02  0.25360176164E+02  0.00000000000E+00 0. -1.
         -2    1    1    2    0  502 -0.69035899867E+01 -0.32829920087E+02 -0.10439053364E+03  0.10964874245E+03  0.00000000000E+00 0.  1.
<mgrwt>
<rscale>  1 0.87991843E+02</rscale>
<asrwt>0</asrwt>
<pdfrwt beam="1">  1       21 0.20698715E-01 0.87991843E+02</pdfrwt>
<pdfrwt beam="2">  1       -1 0.11224579E-01 0.87991843E+02</pdfrwt>
<totfact> 0.94925283E+04</totfact>
</mgrwt>
</event>
<event>
 6    2  0.8544106E+000  0.8706091E+02  0.7546771E-02  0.1310129E+00
         21   -1    0    0  501  502  0.00000000000E+00  0.00000000000E+00  0.48031899983E+02  0.48031899983E+02  0.00000000000E+00 0.  1.
          4   -1    0    0  502    0 -0.00000000000E+00 -0.00000000000E+00 -0.74871076250E+02  0.74871076250E+02  0.00000000000E+00 0. -1.
         24    2    1    2    0    0 -0.49847254368E+01  0.30111928409E+02 -0.30306218945E+02  0.92184966775E+02  0.81535424647E+02 0.  0.
        -11    1    3    3    0    0  0.80558994698E+01  0.11121287792E+02  0.27071490128E+02  0.30355331264E+02  0.00000000000E+00 0.  1.
         12    1    3    3    0    0 -0.13040624907E+02  0.18990640617E+02 -0.57377709073E+02  0.61829635511E+02  0.00000000000E+00 0. -1.
          3    1    1    2  501    0  0.49847254368E+01 -0.30111928409E+02  0.34670426779E+01  0.30718009459E+02  0.00000000000E+00 0. -1.
<mgrwt>
<rscale>  1 0.87060905E+02</rscale>
<asrwt>0</asrwt>
<pdfrwt beam="1">  1       21 0.73895231E-02 0.87060905E+02</pdfrwt>
<pdfrwt beam="2">  1        4 0.11518627E-01 0.87060905E+02</pdfrwt>
<totfact> 0.30265890E+05</totfact>
</mgrwt>
</event>
<event>
 6    2  0.8544106E+000  0.8641374E+02  0.7546771E-02  0.1311776E+00
         21   -1    0    0  501  502  0.00000000000E+00  0.00000000000E+00  0.61445621007E+02  0.61445621007E+02  0.00000000000E+00 0. -1.
         -3   -1    0    0    0  501 -0.00000000000E+00 -0.00000000000E+00 -0.58509900456E+02  0.58509900456E+02  0.00000000000E+00 0.  1.
         24    2    1    2    0    0 -0.21416938006E+02  0.22516036238E+02 -0.85277373098E+01  0.86833504804E+02  0.80632984141E+02 0.  0.
        -13    1    3    3    0    0 -0.22591876568E+01 -0.17813626764E+02 -0.31773210907E+02  0.36496111555E+02  0.00000000000E+00 0.  1.
         14    1    3    3    0    0 -0.19157750349E+02  0.40329663002E+02  0.23245473597E+02  0.50337393248E+02  0.00000000000E+00 0. -1.
         -4    1    1    2    0  502  0.21416938006E+02 -0.22516036238E+02  0.11463457860E+02  0.33122016659E+02  0.00000000000E+00 0.  1.
<mgrwt>
<rscale>  1 0.86413745E+02</rscale>
<asrwt>0</asrwt>
<pdfrwt beam="1">  1       21 0.94531725E-02 0.86413745E+02</pdfrwt>
<pdfrwt beam="2">  1       -3 0.90015232E-02 0.86413745E+02</pdfrwt>
<totfact> 0.34555728E+05</totfact>
</mgrwt>
</event>
<event>
 6    2  0.8544106E+000  0.8284412E+02  0.7546771E-02  0.1321169E+00
          2   -1    0    0  502    0 -0.00000000000E+00  0.00000000000E+00  0.62735451346E+02  0.62735451346E+02  0.00000000000E+00 0. -1.
         21   -1    0    0  501  502  0.00000000000E+00 -0.00000000000E+00 -0.51486713095E+02  0.51486713095E+02  0.00000000000E+00 0. -1.
         24    2    1    2    0    0  0.19794439342E+02 -0.38119373600E+01 -0.11712302963E+02  0.83667948546E+02  0.80354196393E+02 0.  0.
        -11    1    3    3    0    0 -0.26094713181E+02 -0.17489876042E+02  0.71249716326E+01  0.32211722101E+02  0.00000000000E+00 0.  1.
         12    1    3    3    0    0  0.45889152523E+02  0.13677938682E+02 -0.18837274595E+02  0.51456226445E+02  0.00000000000E+00 0. -1.
          1    1    1    2  501    0 -0.19794439342E+02  0.38119373600E+01  0.22961041214E+02  0.30554215894E+02  0.00000000000E+00 0. -1.
<mgrwt>
<rscale>  1 0.82844116E+02</rscale>
<asrwt>0</asrwt>
<pdfrwt beam="1">  1       21 0.79210328E-02 0.82844116E+02</pdfrwt>
<pdfrwt beam="2">  1        2 0.96516079E-02 0.82844116E+02</pdfrwt>
<totfact> 0.91102792E+05</totfact>
</mgrwt>
</event>
<event>
 6    2  0.8544106E+000  0.1040788E+03  0.7546771E-02  0.1271945E+00
          2   -1    0    0  502    0 -0.00000000000E+00  0.00000000000E+00  0.31869386211E+04  0.31869386211E+04  0.00000000000E+00 0. -1.
         21   -1    0    0  501  502  0.00000000000E+00 -0.00000000000E+00 -0.26929196320E+01  0.26929196320E+01  0.00000000000E+00 0. -1.
         24    2    1    2    0    0 -0.20216404664E+02  0.64129284699E+02  0.12896170838E+04  0.12938101179E+04  0.79442622817E+02 0.  0.
        -11    1    3    3    0    0 -0.36013179374E+02  0.11033857675E+01  0.62066519341E+03  0.62171010034E+03  0.00000000000E+00 0.  1.
         12    1    3    3    0    0  0.15796774710E+02  0.63025898932E+02  0.66895189038E+03  0.67210001761E+03  0.00000000000E+00 0. -1.
          1    1    1    2  501    0  0.20216404664E+02 -0.64129284699E+02  0.18946286176E+04  0.18958214227E+04  0.00000000000E+00 0. -1.
<mgrwt>
<rscale>  1 0.10407881E+03</rscale>
<asrwt>0</asrwt>
<pdfrwt beam="1">  1       21 0.41429788E-03 0.10407881E+03</pdfrwt>
<pdfrwt beam="2">  1        2 0.49029523E+00 0.10407881E+03</pdfrwt>
<totfact> 0.32161869E+05</totfact>
</mgrwt>
</event>
<event>
 6    2  0.8544106E+000  0.8141650E+02  0.7546771E-02  0.1325079E+00
          2   -1    0    0  502    0 -0.00000000000E+00  0.00000000000E+00  0.62994973844E+02  0.62994973844E+02  0.00000000000E+00 0. -1.
         21   -1    0    0  501  502  0.00000000000E+00 -0.00000000000E+00 -0.44283523753E+02  0.44283523753E+02  0.00000000000E+00 0.  1.
         24    2    1    2    0    0  0.15974349465E+02  0.14496731165E+02  0.24354272361E+02  0.84981042619E+02  0.78506763830E+02 0.  0.
        -13    1    3    3    0    0  0.34493484730E+02  0.36587304627E+02  0.56077639449E+01  0.50595240539E+02  0.00000000000E+00 0.  1.
         14    1    3    3    0    0 -0.18519135265E+02 -0.22090573462E+02  0.18746508416E+02  0.34385802080E+02  0.00000000000E+00 0. -1.
          1    1    1    2  501    0 -0.15974349465E+02 -0.14496731165E+02 -0.56428222712E+01  0.22297454978E+02  0.00000000000E+00 0. -1.
<mgrwt>
<rscale>  1 0.81416503E+02</rscale>
<asrwt>0</asrwt>
<pdfrwt beam="1">  1       21 0.68128498E-02 0.81416503E+02</pdfrwt>
<pdfrwt beam="2">  1        2 0.96915345E-02 0.81416503E+02</pdfrwt>
<totfact> 0.11679048E+06</totfact>
</mgrwt>
</event>
<event>
 6    2  0.8544106E+000  0.8769136E+02  0.7546771E-02  0.1308541E+00
         21   -1    0    0  501  502  0.00000000000E+00  0.00000000000E+00  0.24374789844E+02  0.24374789844E+02  0.00000000000E+00 0. -1.
          2   -1    0    0  502    0 -0.00000000000E+00 -0.00000000000E+00 -0.15393274283E+03  0.15393274283E+03  0.00000000000E+00 0. -1.
         24    2    1    2    0    0 -0.31413278737E+02 -0.98728479997E+01 -0.10723997955E+03  0.13852865452E+03  0.81274274537E+02 0.  0.
        -11    1    3    3    0    0 -0.40144948956E+02  0.25054550552E+02 -0.38791001217E+02  0.61188963102E+02  0.00000000000E+00 0.  1.
         12    1    3    3    0    0  0.87316702190E+01 -0.34927398551E+02 -0.68448978332E+02  0.77339691421E+02  0.00000000000E+00 0. -1.
          1    1    1    2  501    0  0.31413278737E+02  0.98728479997E+01 -0.22317973440E+02  0.39778878153E+02  0.00000000000E+00 0. -1.
<mgrwt>
<rscale>  1 0.87691362E+02</rscale>
<asrwt>0</asrwt>
<pdfrwt beam="1">  1       21 0.37499677E-02 0.87691362E+02</pdfrwt>
<pdfrwt beam="2">  1        2 0.23681960E-01 0.87691362E+02</pdfrwt>
<totfact> 0.11355209E+06</totfact>
</mgrwt>
</event>
<event>
 6    2  0.8544106E+000  0.8198441E+02  0.7546771E-02  0.1323512E+00
         21   -1    0    0  501  502  0.00000000000E+00  0.00000000000E+00  0.21905790337E+02  0.21905790337E+02  0.00000000000E+00 0. -1.
          2   -1    0    0  502    0 -0.00000000000E+00 -0.00000000000E+00 -0.18537966020E+03  0.18537966020E+03  0.00000000000E+00 0. -1.
         24    2    1    2    0    0  0.21365012691E+02 -0.41076844158E+01 -0.16623716585E+03  0.18535436203E+03  0.79044970591E+02 0.  0.
        -13    1    3    3    0    0  0.66299529376E+01 -0.33945704411E+02 -0.32227164157E+02  0.47274276658E+02  0.00000000000E+00 0.  1.
         14    1    3    3    0    0  0.14735059754E+02  0.29838019996E+02 -0.13401000169E+03  0.13808008537E+03  0.00000000000E+00 0. -1.
          1    1    1    2  501    0 -0.21365012691E+02  0.41076844158E+01  0.27632959811E+01  0.21931088510E+02  0.00000000000E+00 0. -1.
<mgrwt>
<rscale>  1 0.81984414E+02</rscale>
<asrwt>0</asrwt>
<pdfrwt beam="1">  1       21 0.33701216E-02 0.81984414E+02</pdfrwt>
<pdfrwt beam="2">  1        2 0.28519948E-01 0.81984414E+02</pdfrwt>
<totfact> 0.10972406E+06</totfact>
</mgrwt>
</event>
<event>
 6    2  0.8544106E+000  0.8305048E+02  0.7546771E-02  0.1320611E+00
          2   -1    0    0  502    0 -0.00000000000E+00  0.00000000000E+00  0.73374518170E+02  0.73374518170E+02  0.00000000000E+00 0. -1.
         21   -1    0    0  501  502  0.00000000000E+00 -0.00000000000E+00 -0.20404059134E+03  0.20404059134E+03  0.00000000000E+00 0. -1.
         24    2    1    2    0    0  0.31936715880E+02 -0.29275629858E+02  0.46394837344E+02  0.95130764717E+02  0.70854535060E+02 0.  0.
        -13    1    3    3    0    0  0.14881818653E+02 -0.22779810930E+02 -0.15007044526E+02  0.31074100113E+02  0.00000000000E+00 0.  1.
         14    1    3    3    0    0  0.17054897227E+02 -0.64958189279E+01  0.61401881870E+02  0.64056664604E+02  0.00000000000E+00 0. -1.
          1    1    1    2  501    0 -0.31936715880E+02  0.29275629858E+02 -0.17706091052E+03  0.18228434480E+03  0.00000000000E+00 0. -1.
<mgrwt>
<rscale>  1 0.83050475E+02</rscale>
<asrwt>0</asrwt>
<pdfrwt beam="1">  1       21 0.31390859E-01 0.83050475E+02</pdfrwt>
<pdfrwt beam="2">  1        2 0.11288388E-01 0.83050475E+02</pdfrwt>
<totfact> 0.63731504E+04</totfact>
</mgrwt>
</event>
<event>
 6    2  0.8544106E+000  0.8548683E+02  0.7546771E-02  0.1314164E+00
         21   -1    0    0  501  502  0.00000000000E+00  0.00000000000E+00  0.77724270593E+01  0.77724270593E+01  0.00000000000E+00 0.  1.
          4   -1    0    0  502    0 -0.00000000000E+00 -0.00000000000E+00 -0.55943806880E+03  0.55943806880E+03  0.00000000000E+00 0. -1.
         24    2    1    2    0    0  0.30365353804E+02 -0.28906508858E+01 -0.49965457456E+03  0.50691487675E+03  0.79859801027E+02 0.  0.
        -11    1    3    3    0    0  0.40661937373E+02  0.17650177346E+02 -0.14763163712E+03  0.15414286292E+03  0.00000000000E+00 0.  1.
         12    1    3    3    0    0 -0.10296583569E+02 -0.20540828231E+02 -0.35202293744E+03  0.35277201383E+03  0.00000000000E+00 0. -1.
          3    1    1    2  501    0 -0.30365353804E+02  0.28906508858E+01 -0.52011067181E+02  0.60295619107E+02  0.00000000000E+00 0. -1.
<mgrwt>
<rscale>  1 0.85486832E+02</rscale>
<asrwt>0</asrwt>
<pdfrwt beam="1">  1       21 0.11957576E-02 0.85486832E+02</pdfrwt>
<pdfrwt beam="2">  1        4 0.86067422E-01 0.85486832E+02</pdfrwt>
<totfact> 0.12617902E+05</totfact>
</mgrwt>
</event>
<event>
 6    2  0.8544106E+000  0.8587902E+02  0.7546771E-02  0.1313150E+00
         21   -1    0    0  501  502  0.00000000000E+00  0.00000000000E+00  0.21864531616E+01  0.21864531616E+01  0.00000000000E+00 0. -1.
          2   -1    0    0  502    0 -0.00000000000E+00 -0.00000000000E+00 -0.16271489843E+04  0.16271489843E+04  0.00000000000E+00 0. -1.
         24    2    1    2    0    0  0.15484807142E+02  0.21754908935E+02 -0.14267500091E+04  0.14293322895E+04  0.81621994156E+02 0.  0.
        -13    1    3    3    0    0  0.18123753826E+02 -0.23641231036E+02 -0.93762355046E+03  0.93809663715E+03  0.00000000000E+00 0.  1.
         14    1    3    3    0    0 -0.26389466833E+01  0.45396139971E+02 -0.48912645868E+03  0.49123565235E+03  0.00000000000E+00 0. -1.
          1    1    1    2  501    0 -0.15484807142E+02 -0.21754908935E+02 -0.19821252202E+03  0.20000314797E+03  0.00000000000E+00 0. -1.
<mgrwt>
<rscale>  1 0.85879015E+02</rscale>
<asrwt>0</asrwt>
<pdfrwt beam="1">  1       21 0.33637839E-03 0.85879015E+02</pdfrwt>
<pdfrwt beam="2">  1        2 0.25032989E+00 0.85879015E+02</pdfrwt>
<totfact> 0.29359009E+06</totfact>
</mgrwt>
</event>
<event>
 6    2  0.8544106E+000  0.8784524E+02  0.7546771E-02  0.1308155E+00
         -1   -1    0    0    0  501 -0.00000000000E+00  0.00000000000E+00  0.14082475933E+04  0.14082475933E+04  0.00000000000E+00 0.  1.
         21   -1    0    0  501  502  0.00000000000E+00 -0.00000000000E+00 -0.47955543550E+01  0.47955543550E+01  0.00000000000E+00 0. -1.
         24    2    1    2    0    0  0.30075095761E+02  0.16536092764E+02  0.13184558082E+04  0.13213790162E+04  0.80863048483E+02 0.  0.
        -13    1    3    3    0    0 -0.12809224054E+02  0.19258942322E+02  0.97109724410E+03  0.97137265793E+03  0.00000000000E+00 0.  1.
         14    1    3    3    0    0  0.42884319815E+02 -0.27228495575E+01  0.34735856411E+03  0.35000635831E+03  0.00000000000E+00 0. -1.
         -2    1    1    2    0  502 -0.30075095761E+02 -0.16536092764E+02  0.84996230748E+02  0.91664131427E+02  0.00000000000E+00 0.  1.
<mgrwt>
<rscale>  1 0.87845241E+02</rscale>
<asrwt>0</asrwt>
<pdfrwt beam="1">  1       21 0.73777872E-03 0.87845241E+02</pdfrwt>
<pdfrwt beam="2">  1       -1 0.21665315E+00 0.87845241E+02</pdfrwt>
<totfact> 0.73012049E+04</totfact>
</mgrwt>
</event>
<event>
 6    2  0.8544106E+000  0.8435238E+02  0.7546771E-02  0.1317135E+00
         -3   -1    0    0    0  501 -0.00000000000E+00  0.00000000000E+00  0.59333180021E+01  0.59333180021E+01  0.00000000000E+00 0.  1.
         21   -1    0    0  501  502  0.00000000000E+00 -0.00000000000E+00 -0.63583674852E+03  0.63583674852E+03  0.00000000000E+00 0.  1.
         24    2    1    2    0    0  0.28596502368E+02  0.16764472843E+02 -0.35543680479E+03  0.36530897318E+03  0.77566205167E+02 0.  0.
        -13    1    3    3    0    0  0.38997493767E+02  0.39587595979E+02 -0.18923861910E+03  0.19722889553E+03  0.00000000000E+00 0.  1.
         14    1    3    3    0    0 -0.10400991399E+02 -0.22823123136E+02 -0.16619818569E+03  0.16808007764E+03  0.00000000000E+00 0. -1.
         -4    1    1    2    0  502 -0.28596502368E+02 -0.16764472843E+02 -0.27446662572E+03  0.27646109334E+03  0.00000000000E+00 0.  1.
<mgrwt>
<rscale>  1 0.84352378E+02</rscale>
<asrwt>0</asrwt>
<pdfrwt beam="1">  1       21 0.97821102E-01 0.84352378E+02</pdfrwt>
<pdfrwt beam="2">  1       -3 0.91281756E-03 0.84352378E+02</pdfrwt>
<totfact> 0.12323462E+05</totfact>
</mgrwt>
</event>
<event>
 6    2  0.8544106E+000  0.1134770E+03  0.7546771E-02  0.1254263E+00
         21   -1    0    0  501  502  0.00000000000E+00  0.00000000000E+00  0.77532924505E+01  0.77532924505E+01  0.00000000000E+00 0.  1.
          2   -1    0    0  502    0 -0.00000000000E+00 -0.00000000000E+00 -0.12225143370E+04  0.12225143370E+04  0.00000000000E+00 0. -1.
         24    2    1    2    0    0  0.58310990771E+02  0.56560578851E+02 -0.70491471837E+03  0.71399004225E+03  0.79232250605E+02 0.  0.
        -11    1    3    3    0    0  0.66324806759E+02  0.43916972893E+02 -0.35706558722E+03  0.36581896353E+03  0.00000000000E+00 0.  1.
         12    1    3    3    0    0 -0.80138159886E+01  0.12643605958E+02 -0.34784913115E+03  0.34817107872E+03  0.00000000000E+00 0. -1.
          1    1    1    2  501    0 -0.58310990771E+02 -0.56560578851E+02 -0.50984632619E+03  0.51627758721E+03  0.00000000000E+00 0. -1.
<mgrwt>
<rscale>  1 0.11347696E+03</rscale>
<asrwt>0</asrwt>
<pdfrwt beam="1">  1       21 0.11928148E-02 0.11347696E+03</pdfrwt>
<pdfrwt beam="2">  1        2 0.18807904E+00 0.11347696E+03</pdfrwt>
<totfact> 0.68669280E+05</totfact>
</mgrwt>
</event>
<event>
 6    2  0.8544106E+000  0.8920842E+02  0.7546771E-02  0.1304780E+00
         21   -1    0    0  501  502  0.00000000000E+00  0.00000000000E+00  0.34992233315E+01  0.34992233315E+01  0.00000000000E+00 0.  1.
          2   -1    0    0  502    0 -0.00000000000E+00 -0.00000000000E+00 -0.12245837490E+04  0.12245837490E+04  0.00000000000E+00 0. -1.
         24    2    1    2    0    0 -0.15576847666E+02  0.31424795306E+02 -0.10259756100E+04  0.10298466363E+04  0.82024301735E+02 0.  0.
        -11    1    3    3    0    0 -0.44013204483E+01 -0.64121751742E+01 -0.81818393254E+01  0.11288494448E+02  0.00000000000E+00 0.  1.
         12    1    3    3    0    0 -0.11175527218E+02  0.37836970480E+02 -0.10177937707E+04  0.10185581419E+04  0.00000000000E+00 0. -1.
          1    1    1    2  501    0  0.15576847666E+02 -0.31424795306E+02 -0.19510891569E+03  0.19823633603E+03  0.00000000000E+00 0. -1.
<mgrwt>
<rscale>  1 0.89208419E+02</rscale>
<asrwt>0</asrwt>
<pdfrwt beam="1">  1       21 0.53834134E-03 0.89208419E+02</pdfrwt>
<pdfrwt beam="2">  1        2 0.18839775E+00 0.89208419E+02</pdfrwt>
<totfact> 0.23226931E+06</totfact>
</mgrwt>
</event>
<event>
 6    2  0.8544106E+000  0.1167215E+03  0.7546771E-02  0.1248606E+00
          2   -1    0    0  502    0 -0.00000000000E+00  0.00000000000E+00  0.68695553120E+03  0.68695553120E+03  0.00000000000E+00 0. -1.
         21   -1    0    0  501  502  0.00000000000E+00 -0.00000000000E+00 -0.18625277703E+02  0.18625277703E+02  0.00000000000E+00 0. -1.
         24    2    1    2    0    0  0.54757585684E+02 -0.65845842794E+02  0.53145915503E+03  0.54412565786E+03  0.79308447676E+02 0.  0.
        -13    1    3    3    0    0  0.64958781034E+00 -0.24182772861E+02  0.32501027186E+02  0.40515987408E+02  0.00000000000E+00 0.  1.
         14    1    3    3    0    0  0.54107997874E+02 -0.41663069934E+02  0.49895812785E+03  0.50360967045E+03  0.00000000000E+00 0. -1.
          1    1    1    2  501    0 -0.54757585684E+02  0.65845842794E+02  0.13687109847E+03  0.16145515105E+03  0.00000000000E+00 0. -1.
<mgrwt>
<rscale>  1 0.11672146E+03</rscale>
<asrwt>0</asrwt>
<pdfrwt beam="1">  1       21 0.28654279E-02 0.11672146E+03</pdfrwt>
<pdfrwt beam="2">  1        2 0.10568545E+00 0.11672146E+03</pdfrwt>
<totfact> 0.36112253E+05</totfact>
</mgrwt>
</event>
<event>
 6    2  0.8544106E+000  0.1377094E+03  0.7546771E-02  0.1216445E+00
         -1   -1    0    0    0  501 -0.00000000000E+00  0.00000000000E+00  0.48046052413E+02  0.48046052413E+02  0.00000000000E+00 0.  1.
         21   -1    0    0  501  502  0.00000000000E+00 -0.00000000000E+00 -0.37042220712E+03  0.37042220712E+03  0.00000000000E+00 0.  1.
         24    2    1    2    0    0  0.30429778899E+02  0.10636064527E+03 -0.10030495338E+03  0.17036711733E+03  0.82008003795E+02 0.  0.
        -11    1    3    3    0    0 -0.15598021681E+02  0.48102110013E+02 -0.77789988770E+02  0.92781429289E+02  0.00000000000E+00 0.  1.
         12    1    3    3    0    0  0.46027800580E+02  0.58258535260E+02 -0.22514964614E+02  0.77585688038E+02  0.00000000000E+00 0. -1.
         -2    1    1    2    0  502 -0.30429778899E+02 -0.10636064527E+03 -0.22207120132E+03  0.24810114220E+03  0.00000000000E+00 0.  1.
<mgrwt>
<rscale>  1 0.13770937E+03</rscale>
<asrwt>0</asrwt>
<pdfrwt beam="1">  1       21 0.56988032E-01 0.13770937E+03</pdfrwt>
<pdfrwt beam="2">  1       -1 0.73917003E-02 0.13770937E+03</pdfrwt>
<totfact> 0.24960115E+04</totfact>
</mgrwt>
</event>
<event>
 6    2  0.8544106E+000  0.8479765E+02  0.7546771E-02  0.1315963E+00
         21   -1    0    0  501  502  0.00000000000E+00  0.00000000000E+00  0.45893699513E+02  0.45893699513E+02  0.00000000000E+00 0.  1.
         -3   -1    0    0    0  501 -0.00000000000E+00 -0.00000000000E+00 -0.74042359607E+02  0.74042359607E+02  0.00000000000E+00 0.  1.
         24    2    1    2    0    0 -0.84337649643E+01  0.23018172060E+02 -0.38744340437E+02  0.93229635205E+02  0.81176821372E+02 0.  0.
        -13    1    3    3    0    0 -0.17934653573E+02  0.41876525905E+02 -0.51343608481E+02  0.68640085609E+02  0.00000000000E+00 0.  1.
         14    1    3    3    0    0  0.95008886083E+01 -0.18858353845E+02  0.12599268044E+02  0.24589549596E+02  0.00000000000E+00 0. -1.
         -4    1    1    2    0  502  0.84337649643E+01 -0.23018172060E+02  0.10595680343E+02  0.26706423916E+02  0.00000000000E+00 0.  1.
<mgrwt>
<rscale>  1 0.84797647E+02</rscale>
<asrwt>0</asrwt>
<pdfrwt beam="1">  1       21 0.70605692E-02 0.84797647E+02</pdfrwt>
<pdfrwt beam="2">  1       -3 0.11391132E-01 0.84797647E+02</pdfrwt>
<totfact> 0.38569013E+05</totfact>
</mgrwt>
</event>
<event>
 6    2  0.8544106E+000  0.7855036E+02  0.7546771E-02  0.1333216E+00
         21   -1    0    0  501  502  0.00000000000E+00  0.00000000000E+00  0.13921156254E+02  0.13921156254E+02  0.00000000000E+00 0. -1.
          2   -1    0    0  502    0 -0.00000000000E+00 -0.00000000000E+00 -0.84479654219E+03  0.84479654219E+03  0.00000000000E+00 0. -1.
         24    2    1    2    0    0 -0.23499029141E+02 -0.61225596570E+00 -0.83150037219E+03  0.83520238777E+03  0.74950519371E+02 0.  0.
        -13    1    3    3    0    0 -0.10795524460E+02  0.20590814765E+02 -0.80363262997E+02  0.83658705707E+02  0.00000000000E+00 0.  1.
         14    1    3    3    0    0 -0.12703504680E+02 -0.21203070730E+02 -0.75113710920E+03  0.75154368207E+03  0.00000000000E+00 0. -1.
          1    1    1    2  501    0  0.23499029141E+02  0.61225596570E+00  0.62498626204E+00  0.23515310667E+02  0.00000000000E+00 0. -1.
<mgrwt>
<rscale>  1 0.78550363E+02</rscale>
<asrwt>0</asrwt>
<pdfrwt beam="1">  1       21 0.21417161E-02 0.78550363E+02</pdfrwt>
<pdfrwt beam="2">  1        2 0.12996871E+00 0.78550363E+02</pdfrwt>
<totfact> 0.43977436E+05</totfact>
</mgrwt>
</event>
<event>
 6    2  0.8544106E+000  0.8476241E+02  0.7546771E-02  0.1316055E+00
          4   -1    0    0  502    0 -0.00000000000E+00  0.00000000000E+00  0.13987852847E+01  0.13987852847E+01  0.00000000000E+00 0. -1.
         21   -1    0    0  501  502  0.00000000000E+00 -0.00000000000E+00 -0.21907776089E+04  0.21907776089E+04  0.00000000000E+00 0. -1.
         24    2    1    2    0    0 -0.12584381209E+02 -0.21259174790E+02 -0.15439798271E+04  0.15463047476E+04  0.81082345708E+02 0.  0.
        -11    1    3    3    0    0  0.48551131324E+01 -0.22125063169E+02 -0.14741814620E+04  0.14743554773E+04  0.00000000000E+00 0.  1.
         12    1    3    3    0    0 -0.17439494341E+02  0.86588837922E+00 -0.69798365132E+02  0.71949270327E+02  0.00000000000E+00 0. -1.
          3    1    1    2  501    0  0.12584381209E+02  0.21259174790E+02 -0.64539899653E+03  0.64587164661E+03  0.00000000000E+00 0. -1.
<mgrwt>
<rscale>  1 0.84762409E+02</rscale>
<asrwt>0</asrwt>
<pdfrwt beam="1">  1       21 0.33704081E+00 0.84762409E+02</pdfrwt>
<pdfrwt beam="2">  1        4 0.21519895E-03 0.84762409E+02</pdfrwt>
<totfact> 0.26099314E+04</totfact>
</mgrwt>
</event>
<event>
 6    2  0.8544106E+000  0.9325091E+02  0.7546771E-02  0.1295165E+00
         21   -1    0    0  501  502  0.00000000000E+00  0.00000000000E+00  0.12751402651E+03  0.12751402651E+03  0.00000000000E+00 0. -1.
          2   -1    0    0  502    0 -0.00000000000E+00 -0.00000000000E+00 -0.11557389217E+03  0.11557389217E+03  0.00000000000E+00 0. -1.
         24    2    1    2    0    0 -0.44332971115E+02  0.20625976105E+01 -0.91428624456E+02  0.13059451030E+03  0.82012597282E+02 0.  0.
        -13    1    3    3    0    0 -0.32648117883E+01  0.28278869838E+02 -0.17321954529E+01  0.28519361431E+02  0.00000000000E+00 0.  1.
         14    1    3    3    0    0 -0.41068159326E+02 -0.26216272228E+02 -0.89696429003E+02  0.10207514886E+03  0.00000000000E+00 0. -1.
          1    1    1    2  501    0  0.44332971115E+02 -0.20625976105E+01  0.10336875879E+03  0.11249340838E+03  0.00000000000E+00 0. -1.
<mgrwt>
<rscale>  1 0.93250913E+02</rscale>
<asrwt>0</asrwt>
<pdfrwt beam="1">  1       21 0.19617543E-01 0.93250913E+02</pdfrwt>
<pdfrwt beam="2">  1        2 0.17780599E-01 0.93250913E+02</pdfrwt>
<totfact> 0.90908591E+04</totfact>
</mgrwt>
</event>
<event>
 6    2  0.8544106E+000  0.8761084E+02  0.7546771E-02  0.1308743E+00
         21   -1    0    0  501  502  0.00000000000E+00  0.00000000000E+00  0.25259557039E+02  0.25259557039E+02  0.00000000000E+00 0. -1.
         -3   -1    0    0    0  501 -0.00000000000E+00 -0.00000000000E+00 -0.16041759404E+03  0.16041759404E+03  0.00000000000E+00 0.  1.
         24    2    1    2    0    0  0.11059108091E+02  0.38038990190E+02 -0.96217858594E+02  0.13012891852E+03  0.78143396876E+02 0.  0.
        -11    1    3    3    0    0 -0.16922769806E+02 -0.17116083862E+02 -0.39254666103E+02  0.46046381786E+02  0.00000000000E+00 0.  1.
         12    1    3    3    0    0  0.27981877897E+02  0.55155074052E+02 -0.56963192491E+02  0.84082536731E+02  0.00000000000E+00 0. -1.
         -4    1    1    2    0  502 -0.11059108091E+02 -0.38038990190E+02 -0.38940178404E+02  0.55548232561E+02  0.00000000000E+00 0.  1.
<mgrwt>
<rscale>  1 0.87610839E+02</rscale>
<asrwt>0</asrwt>
<pdfrwt beam="1">  1       21 0.38860857E-02 0.87610839E+02</pdfrwt>
<pdfrwt beam="2">  1       -3 0.24679630E-01 0.87610839E+02</pdfrwt>
<totfact> 0.27908862E+05</totfact>
</mgrwt>
</event>
<event>
 6    2  0.8544106E+000  0.8865199E+02  0.7546771E-02  0.1306149E+00
         21   -1    0    0  501  502  0.00000000000E+00  0.00000000000E+00  0.25104903457E+03  0.25104903457E+03  0.00000000000E+00 0.  1.
          4   -1    0    0  502    0 -0.00000000000E+00 -0.00000000000E+00 -0.16385590850E+02  0.16385590850E+02  0.00000000000E+00 0. -1.
         24    2    1    2    0    0  0.25047171104E+01  0.34513863247E+02  0.19842096855E+03  0.21732477240E+03  0.81619210794E+02 0.  0.
        -11    1    3    3    0    0 -0.30422506454E+02  0.42016378061E+02  0.14625151551E+03  0.15517864129E+03  0.00000000000E+00 0.  1.
         12    1    3    3    0    0  0.32927223564E+02 -0.75025148141E+01  0.52169453045E+02  0.62146131104E+02  0.00000000000E+00 0. -1.
          3    1    1    2  501    0 -0.25047171104E+01 -0.34513863247E+02  0.36242475165E+02  0.50109853024E+02  0.00000000000E+00 0. -1.
<mgrwt>
<rscale>  1 0.88651993E+02</rscale>
<asrwt>0</asrwt>
<pdfrwt beam="1">  1       21 0.38622926E-01 0.88651993E+02</pdfrwt>
<pdfrwt beam="2">  1        4 0.25208603E-02 0.88651993E+02</pdfrwt>
<totfact> 0.17355249E+05</totfact>
</mgrwt>
</event>
<event>
 6    2  0.8544106E+000  0.8554140E+02  0.7546771E-02  0.1314023E+00
         21   -1    0    0  501  502  0.00000000000E+00  0.00000000000E+00  0.22694095450E+03  0.22694095450E+03  0.00000000000E+00 0.  1.
         -3   -1    0    0    0  501 -0.00000000000E+00 -0.00000000000E+00 -0.19902423717E+02  0.19902423717E+02  0.00000000000E+00 0.  1.
         24    2    1    2    0    0  0.28659231813E+02 -0.20123223775E+01  0.81821266681E+02  0.11837250899E+03  0.80572515134E+02 0.  0.
        -13    1    3    3    0    0  0.51095763118E+02 -0.16545836387E+02  0.72148079553E+02  0.89943799639E+02  0.00000000000E+00 0.  1.
         14    1    3    3    0    0 -0.22436531304E+02  0.14533514009E+02  0.96731871278E+01  0.28428709356E+02  0.00000000000E+00 0. -1.
         -4    1    1    2    0  502 -0.28659231813E+02  0.20123223775E+01  0.12521726410E+03  0.12847086922E+03  0.00000000000E+00 0.  1.
<mgrwt>
<rscale>  1 0.85541401E+02</rscale>
<asrwt>0</asrwt>
<pdfrwt beam="1">  1       21 0.34913991E-01 0.85541401E+02</pdfrwt>
<pdfrwt beam="2">  1       -3 0.30619115E-02 0.85541401E+02</pdfrwt>
<totfact> 0.17449605E+05</totfact>
</mgrwt>
</event>
<event>
 6    2  0.8544106E+000  0.8688408E+02  0.7546771E-02  0.1310578E+00
         21   -1    0    0  501  502  0.00000000000E+00  0.00000000000E+00  0.19729706912E+02  0.19729706912E+02  0.00000000000E+00 0.  1.
         -1   -1    0    0    0  501 -0.00000000000E+00 -0.00000000000E+00 -0.21925735861E+03  0.21925735861E+03  0.00000000000E+00 0.  1.
         24    2    1    2    0    0 -0.26331711974E+02  0.18231508417E+02 -0.18381183906E+03  0.20331167174E+03  0.80765690312E+02 0.  0.
        -11    1    3    3    0    0 -0.71343283143E+01  0.20010049314E+02 -0.18277370084E+03  0.18400414787E+03  0.00000000000E+00 0.  1.
         12    1    3    3    0    0 -0.19197383660E+02 -0.17785408969E+01 -0.10381382227E+01  0.19307523872E+02  0.00000000000E+00 0. -1.
         -2    1    1    2    0  502  0.26331711974E+02 -0.18231508417E+02 -0.15715812634E+02  0.35675393780E+02  0.00000000000E+00 0.  1.
<mgrwt>
<rscale>  1 0.86884082E+02</rscale>
<asrwt>0</asrwt>
<pdfrwt beam="1">  1       21 0.30353396E-02 0.86884082E+02</pdfrwt>
<pdfrwt beam="2">  1       -1 0.33731900E-01 0.86884082E+02</pdfrwt>
<totfact> 0.44272236E+05</totfact>
</mgrwt>
</event>
<event>
 6    2  0.8544106E+000  0.8775516E+02  0.7546771E-02  0.1308381E+00
          2   -1    0    0  502    0 -0.00000000000E+00  0.00000000000E+00  0.19497905590E+04  0.19497905590E+04  0.00000000000E+00 0. -1.
         21   -1    0    0  501  502  0.00000000000E+00 -0.00000000000E+00 -0.21281495596E+01  0.21281495596E+01  0.00000000000E+00 0. -1.
         24    2    1    2    0    0  0.18932798972E+02 -0.20118067267E+02  0.17648814249E+04  0.17670618022E+04  0.83293345741E+02 0.  0.
        -13    1    3    3    0    0 -0.77802529460E+01 -0.33911866760E+02  0.32327585728E+03  0.32514277932E+03  0.00000000000E+00 0.  1.
         14    1    3    3    0    0  0.26713051918E+02  0.13793799494E+02  0.14416055676E+04  0.14419190229E+04  0.00000000000E+00 0. -1.
          1    1    1    2  501    0 -0.18932798972E+02  0.20118067267E+02  0.18278098458E+03  0.18485690637E+03  0.00000000000E+00 0. -1.
<mgrwt>
<rscale>  1 0.87755165E+02</rscale>
<asrwt>0</asrwt>
<pdfrwt beam="1">  1       21 0.32740918E-03 0.87755165E+02</pdfrwt>
<pdfrwt beam="2">  1        2 0.29996635E+00 0.87755165E+02</pdfrwt>
<totfact> 0.21116532E+06</totfact>
</mgrwt>
</event>
<event>
 6    2  0.8544106E+000  0.1001307E+03  0.7546771E-02  0.1280021E+00
         -3   -1    0    0    0  501 -0.00000000000E+00  0.00000000000E+00  0.40154221741E+03  0.40154221741E+03  0.00000000000E+00 0.  1.
         21   -1    0    0  501  502  0.00000000000E+00 -0.00000000000E+00 -0.16408953603E+02  0.16408953603E+02  0.00000000000E+00 0. -1.
         24    2    1    2    0    0  0.39491186188E+02  0.47954352446E+02  0.23082661143E+03  0.25160900357E+03  0.78530200713E+02 0.  0.
        -11    1    3    3    0    0 -0.19844164129E+02  0.61798104647E+01  0.98720559277E+02  0.10088473488E+03  0.00000000000E+00 0.  1.
         12    1    3    3    0    0  0.59335350317E+02  0.41774541981E+02  0.13210605216E+03  0.15072426869E+03  0.00000000000E+00 0. -1.
         -4    1    1    2    0  502 -0.39491186188E+02 -0.47954352446E+02  0.15430665238E+03  0.16634216745E+03  0.00000000000E+00 0.  1.
<mgrwt>
<rscale>  1 0.10013075E+03</rscale>
<asrwt>0</asrwt>
<pdfrwt beam="1">  1       21 0.25244547E-02 0.10013075E+03</pdfrwt>
<pdfrwt beam="2">  1       -3 0.61775718E-01 0.10013075E+03</pdfrwt>
<totfact> 0.99793092E+04</totfact>
</mgrwt>
</event>
<event>
 6    2  0.8544106E+000  0.1034248E+03  0.7546771E-02  0.1273255E+00
          2   -1    0    0  502    0 -0.00000000000E+00  0.00000000000E+00  0.22098911187E+04  0.22098911187E+04  0.00000000000E+00 0. -1.
         21   -1    0    0  501  502  0.00000000000E+00 -0.00000000000E+00 -0.55291480718E+01  0.55291480718E+01  0.00000000000E+00 0.  1.
         24    2    1    2    0    0 -0.88328159734E+01  0.63875374316E+02  0.54032339619E+03  0.55013276628E+03  0.80861647156E+02 0.  0.
        -13    1    3    3    0    0 -0.34794579849E+02  0.58625141712E+02  0.26840843634E+03  0.27693078327E+03  0.00000000000E+00 0.  1.
         14    1    3    3    0    0  0.25961763875E+02  0.52502326043E+01  0.27191495986E+03  0.27320198301E+03  0.00000000000E+00 0. -1.
          1    1    1    2  501    0  0.88328159734E+01 -0.63875374316E+02  0.16640385745E+04  0.16652875005E+04  0.00000000000E+00 0. -1.
<mgrwt>
<rscale>  1 0.10342479E+03</rscale>
<asrwt>0</asrwt>
<pdfrwt beam="1">  1       21 0.85063993E-03 0.10342479E+03</pdfrwt>
<pdfrwt beam="2">  1        2 0.33998254E+00 0.10342479E+03</pdfrwt>
<totfact> 0.36197000E+05</totfact>
</mgrwt>
</event>
<event>
 6    2  0.8544106E+000  0.8697088E+02  0.7546771E-02  0.1310357E+00
         21   -1    0    0  501  502  0.00000000000E+00  0.00000000000E+00  0.36435468746E+02  0.36435468746E+02  0.00000000000E+00 0.  1.
         -1   -1    0    0    0  501 -0.00000000000E+00 -0.00000000000E+00 -0.14029025266E+03  0.14029025266E+03  0.00000000000E+00 0.  1.
         24    2    1    2    0    0  0.92824378526E+01 -0.29464709378E+02 -0.11473591420E+03  0.14397313757E+03  0.81299456228E+02 0.  0.
        -11    1    3    3    0    0 -0.17117609931E+02 -0.45485636326E+02 -0.96661799394E+02  0.10819177022E+03  0.00000000000E+00 0.  1.
         12    1    3    3    0    0  0.26400047783E+02  0.16020926948E+02 -0.18074114807E+02  0.35781367348E+02  0.00000000000E+00 0. -1.
         -2    1    1    2    0  502 -0.92824378526E+01  0.29464709378E+02  0.10881130291E+02  0.32752583832E+02  0.00000000000E+00 0.  1.
<mgrwt>
<rscale>  1 0.86970882E+02</rscale>
<asrwt>0</asrwt>
<pdfrwt beam="1">  1       21 0.56054568E-02 0.86970882E+02</pdfrwt>
<pdfrwt beam="2">  1       -1 0.21583115E-01 0.86970882E+02</pdfrwt>
<totfact> 0.33510103E+05</totfact>
</mgrwt>
</event>
<event>
 6    2  0.8544106E+000  0.9880515E+02  0.7546771E-02  0.1282829E+00
          2   -1    0    0  502    0 -0.00000000000E+00  0.00000000000E+00  0.14310620331E+04  0.14310620331E+04  0.00000000000E+00 0. -1.
         21   -1    0    0  501  502  0.00000000000E+00 -0.00000000000E+00 -0.75475968555E+01  0.75475968555E+01  0.00000000000E+00 0.  1.
         24    2    1    2    0    0 -0.55065319973E+02 -0.16008495308E+02  0.35319000254E+03  0.36675009868E+03  0.80461143461E+02 0.  0.
        -11    1    3    3    0    0 -0.69666985865E+02  0.82181611501E+01  0.23680872982E+03  0.24698056930E+03  0.00000000000E+00 0.  1.
         12    1    3    3    0    0  0.14601665892E+02 -0.24226656458E+02  0.11638127272E+03  0.11976952939E+03  0.00000000000E+00 0. -1.
          1    1    1    2  501    0  0.55065319973E+02  0.16008495308E+02  0.10703244337E+04  0.10718595313E+04  0.00000000000E+00 0. -1.
<mgrwt>
<rscale>  1 0.98805147E+02</rscale>
<asrwt>0</asrwt>
<pdfrwt beam="1">  1       21 0.11611699E-02 0.98805147E+02</pdfrwt>
<pdfrwt beam="2">  1        2 0.22016317E+00 0.98805147E+02</pdfrwt>
<totfact> 0.55148101E+05</totfact>
</mgrwt>
</event>
<event>
 6    2  0.8544106E+000  0.9037863E+02  0.7546771E-02  0.1301937E+00
         -1   -1    0    0    0  501 -0.00000000000E+00  0.00000000000E+00  0.70743057559E+02  0.70743057559E+02  0.00000000000E+00 0.  1.
         21   -1    0    0  501  502  0.00000000000E+00 -0.00000000000E+00 -0.62389356535E+02  0.62389356535E+02  0.00000000000E+00 0. -1.
         24    2    1    2    0    0  0.38797920295E+02  0.14483802080E+02 -0.21635933209E+01  0.90404523645E+02  0.80332046019E+02 0.  0.
        -13    1    3    3    0    0  0.60522286890E+02  0.62704351817E+00  0.10924800906E+02  0.61503590698E+02  0.00000000000E+00 0.  1.
         14    1    3    3    0    0 -0.21724366595E+02  0.13856758562E+02 -0.13088394227E+02  0.28900932947E+02  0.00000000000E+00 0. -1.
         -2    1    1    2    0  502 -0.38797920295E+02 -0.14483802080E+02  0.10517294344E+02  0.42727890449E+02  0.00000000000E+00 0.  1.
<mgrwt>
<rscale>  1 0.90378630E+02</rscale>
<asrwt>0</asrwt>
<pdfrwt beam="1">  1       21 0.95983626E-02 0.90378630E+02</pdfrwt>
<pdfrwt beam="2">  1       -1 0.10883547E-01 0.90378630E+02</pdfrwt>
<totfact> 0.39083473E+05</totfact>
</mgrwt>
</event>
<event>
 6    2  0.8544106E+000  0.9074667E+02  0.7546771E-02  0.1301054E+00
          2   -1    0    0  502    0 -0.00000000000E+00  0.00000000000E+00  0.10372139255E+04  0.10372139255E+04  0.00000000000E+00 0. -1.
         21   -1    0    0  501  502  0.00000000000E+00 -0.00000000000E+00 -0.12502734363E+02  0.12502734363E+02  0.00000000000E+00 0. -1.
         24    2    1    2    0    0 -0.40353810268E+02 -0.14852854164E+01  0.99610440758E+03  0.10002294480E+04  0.81266977899E+02 0.  0.
        -11    1    3    3    0    0 -0.27348014579E+01 -0.38058130463E+02  0.39384799530E+03  0.39569198101E+03  0.00000000000E+00 0.  1.
         12    1    3    3    0    0 -0.37619008810E+02  0.36572845047E+02  0.60225641227E+03  0.60453746695E+03  0.00000000000E+00 0. -1.
          1    1    1    2  501    0  0.40353810268E+02  0.14852854164E+01  0.28606783553E+02  0.49487211895E+02  0.00000000000E+00 0. -1.
<mgrwt>
<rscale>  1 0.90746668E+02</rscale>
<asrwt>0</asrwt>
<pdfrwt beam="1">  1       21 0.19234984E-02 0.90746668E+02</pdfrwt>
<pdfrwt beam="2">  1        2 0.15957131E+00 0.90746668E+02</pdfrwt>
<totfact> 0.40317744E+05</totfact>
</mgrwt>
</event>
<event>
 6    2  0.8544106E+000  0.8361888E+02  0.7546771E-02  0.1319084E+00
         21   -1    0    0  501  502  0.00000000000E+00  0.00000000000E+00  0.14007959719E+04  0.14007959719E+04  0.00000000000E+00 0. -1.
         -3   -1    0    0    0  501 -0.00000000000E+00 -0.00000000000E+00 -0.41426314681E+01  0.41426314681E+01  0.00000000000E+00 0.  1.
         24    2    1    2    0    0  0.22143856879E+02  0.12466065550E+02  0.13426910029E+04  0.13452922534E+04  0.79664074117E+02 0.  0.
        -11    1    3    3    0    0 -0.44118253176E+01  0.32808722756E+01  0.54010442471E+01  0.77071138879E+01  0.00000000000E+00 0.  1.
         12    1    3    3    0    0  0.26555682196E+02  0.91851932747E+01  0.13372899587E+04  0.13375851396E+04  0.00000000000E+00 0. -1.
         -4    1    1    2    0  502 -0.22143856879E+02 -0.12466065550E+02  0.53962337508E+02  0.59646349906E+02  0.00000000000E+00 0.  1.
<mgrwt>
<rscale>  1 0.83618885E+02</rscale>
<asrwt>0</asrwt>
<pdfrwt beam="1">  1       21 0.21550670E+00 0.83618885E+02</pdfrwt>
<pdfrwt beam="2">  1       -3 0.63732903E-03 0.83618885E+02</pdfrwt>
<totfact> 0.27866910E+04</totfact>
</mgrwt>
</event>
<event>
 6    2  0.8544106E+000  0.1086396E+03  0.7546771E-02  0.1263110E+00
         -1   -1    0    0    0  501 -0.00000000000E+00  0.00000000000E+00  0.17671831723E+03  0.17671831723E+03  0.00000000000E+00 0.  1.
         21   -1    0    0  501  502  0.00000000000E+00 -0.00000000000E+00 -0.39836666974E+03  0.39836666974E+03  0.00000000000E+00 0.  1.
         24    2    1    2    0    0 -0.63736055820E+02  0.33470095356E+02 -0.38315569962E+03  0.39825977591E+03  0.81363547491E+02 0.  0.
        -11    1    3    3    0    0 -0.79354125802E+02  0.43085512353E+02 -0.31744842868E+03  0.33004082100E+03  0.00000000000E+00 0.  1.
         12    1    3    3    0    0  0.15618069983E+02 -0.96154169971E+01 -0.65707270943E+02  0.68218954908E+02  0.00000000000E+00 0. -1.
         -2    1    1    2    0  502  0.63736055820E+02 -0.33470095356E+02  0.16150734711E+03  0.17682521106E+03  0.00000000000E+00 0.  1.
<mgrwt>
<rscale>  1 0.10863958E+03</rscale>
<asrwt>0</asrwt>
<pdfrwt beam="1">  1       21 0.61287179E-01 0.10863958E+03</pdfrwt>
<pdfrwt beam="2">  1       -1 0.27187434E-01 0.10863958E+03</pdfrwt>
<totfact> 0.28052190E+03</totfact>
</mgrwt>
</event>
<event>
 6    2  0.8544106E+000  0.8620725E+02  0.7546771E-02  0.1312305E+00
          4   -1    0    0  502    0 -0.00000000000E+00  0.00000000000E+00  0.23695019127E+02  0.23695019127E+02  0.00000000000E+00 0. -1.
         21   -1    0    0  501  502  0.00000000000E+00 -0.00000000000E+00 -0.17380442900E+03  0.17380442900E+03  0.00000000000E+00 0.  1.
         24    2    1    2    0    0 -0.14732453918E+02 -0.27759514597E+02 -0.68695320528E+02  0.11023038263E+03  0.80274867444E+02 0.  0.
        -13    1    3    3    0    0 -0.15384245373E+02  0.23345773727E+02 -0.47041694949E+02  0.54723132405E+02  0.00000000000E+00 0.  1.
         14    1    3    3    0    0  0.65179145513E+00 -0.51105288324E+02 -0.21653625579E+02  0.55507250224E+02  0.00000000000E+00 0. -1.
          3    1    1    2  501    0  0.14732453918E+02  0.27759514597E+02 -0.81414089345E+02  0.87269065498E+02  0.00000000000E+00 0. -1.
<mgrwt>
<rscale>  1 0.86207251E+02</rscale>
<asrwt>0</asrwt>
<pdfrwt beam="1">  1       21 0.26739143E-01 0.86207251E+02</pdfrwt>
<pdfrwt beam="2">  1        4 0.36453875E-02 0.86207251E+02</pdfrwt>
<totfact> 0.19764345E+05</totfact>
</mgrwt>
</event>
<event>
 6    2  0.8544106E+000  0.8241587E+02  0.7546771E-02  0.1322332E+00
         -1   -1    0    0    0  501 -0.00000000000E+00  0.00000000000E+00  0.81441209233E+02  0.81441209233E+02  0.00000000000E+00 0.  1.
         21   -1    0    0  501  502  0.00000000000E+00 -0.00000000000E+00 -0.42888889492E+02  0.42888889492E+02  0.00000000000E+00 0.  1.
         24    2    1    2    0    0  0.24034596925E+02 -0.23078076966E+01  0.51248501451E+02  0.97050420287E+02  0.78799665934E+02 0.  0.
        -11    1    3    3    0    0 -0.90247812543E+01  0.18504164859E+02  0.54096791676E+02  0.57881894090E+02  0.00000000000E+00 0.  1.
         12    1    3    3    0    0  0.33059378179E+02 -0.20811972555E+02 -0.28482902255E+01  0.39168526197E+02  0.00000000000E+00 0. -1.
         -2    1    1    2    0  502 -0.24034596925E+02  0.23078076966E+01 -0.12696181709E+02  0.27279678438E+02  0.00000000000E+00 0.  1.
<mgrwt>
<rscale>  1 0.82415867E+02</rscale>
<asrwt>0</asrwt>
<pdfrwt beam="1">  1       21 0.65982907E-02 0.82415867E+02</pdfrwt>
<pdfrwt beam="2">  1       -1 0.12529417E-01 0.82415867E+02</pdfrwt>
<totfact> 0.59175287E+05</totfact>
</mgrwt>
</event>
<event>
 6    2  0.8544106E+000  0.8458713E+02  0.7546771E-02  0.1316516E+00
         21   -1    0    0  501  502  0.00000000000E+00  0.00000000000E+00  0.21038178523E+01  0.21038178523E+01  0.00000000000E+00 0.  1.
          2   -1    0    0  502    0 -0.00000000000E+00 -0.00000000000E+00 -0.15133354678E+04  0.15133354678E+04  0.00000000000E+00 0. -1.
         24    2    1    2    0    0 -0.13005882788E+02 -0.22660723374E+02 -0.10141607021E+04  0.10176821274E+04  0.80450739139E+02 0.  0.
        -11    1    3    3    0    0 -0.16547180981E+02 -0.47221726697E+02 -0.41466075802E+03  0.41766882205E+03  0.00000000000E+00 0.  1.
         12    1    3    3    0    0  0.35412981940E+01  0.24561003323E+02 -0.59949994403E+03  0.60001330533E+03  0.00000000000E+00 0. -1.
          1    1    1    2  501    0  0.13005882788E+02  0.22660723374E+02 -0.49707094793E+03  0.49775715831E+03  0.00000000000E+00 0. -1.
<mgrwt>
<rscale>  1 0.84587131E+02</rscale>
<asrwt>0</asrwt>
<pdfrwt beam="1">  1       21 0.32366384E-03 0.84587131E+02</pdfrwt>
<pdfrwt beam="2">  1        2 0.23282116E+00 0.84587131E+02</pdfrwt>
<totfact> 0.35484304E+06</totfact>
</mgrwt>
</event>
<event>
 6    2  0.8544106E+000  0.6891056E+02  0.7546771E-02  0.1363837E+00
          2   -1    0    0  502    0 -0.00000000000E+00  0.00000000000E+00  0.38611247441E+02  0.38611247441E+02  0.00000000000E+00 0. -1.
         21   -1    0    0  501  502  0.00000000000E+00 -0.00000000000E+00 -0.54191971319E+02  0.54191971319E+02  0.00000000000E+00 0.  1.
         24    2    1    2    0    0 -0.10135798374E+02  0.18744889280E+02 -0.52191853514E+01  0.69107928861E+02  0.65532897486E+02 0.  0.
        -13    1    3    3    0    0 -0.18119621208E+02  0.39598883702E+02  0.62681569255E+01  0.43996386834E+02  0.00000000000E+00 0.  1.
         14    1    3    3    0    0  0.79838228344E+01 -0.20853994422E+02 -0.11487342277E+02  0.25111542027E+02  0.00000000000E+00 0. -1.
          1    1    1    2  501    0  0.10135798374E+02 -0.18744889280E+02 -0.10361538527E+02  0.23695289900E+02  0.00000000000E+00 0. -1.
<mgrwt>
<rscale>  1 0.68910565E+02</rscale>
<asrwt>0</asrwt>
<pdfrwt beam="1">  1       21 0.83372263E-02 0.68910565E+02</pdfrwt>
<pdfrwt beam="2">  1        2 0.59401919E-02 0.68910565E+02</pdfrwt>
<totfact> 0.14875518E+06</totfact>
</mgrwt>
</event>
<event>
 6    2  0.8544106E+000  0.8813667E+02  0.7546771E-02  0.1307428E+00
         21   -1    0    0  501  502  0.00000000000E+00  0.00000000000E+00  0.11759082342E+02  0.11759082342E+02  0.00000000000E+00 0. -1.
          4   -1    0    0  502    0 -0.00000000000E+00 -0.00000000000E+00 -0.47205464227E+03  0.47205464227E+03  0.00000000000E+00 0. -1.
         24    2    1    2    0    0 -0.29928789667E+02 -0.19836634556E+02 -0.42283969738E+03  0.43192763630E+03  0.80491296389E+02 0.  0.
        -11    1    3    3    0    0 -0.70272923657E+01  0.30414512845E+02 -0.19552202785E+03  0.19799820405E+03  0.00000000000E+00 0.  1.
         12    1    3    3    0    0 -0.22901497301E+02 -0.50251147401E+02 -0.22731766953E+03  0.23392943225E+03  0.00000000000E+00 0. -1.
          3    1    1    2  501    0  0.29928789667E+02  0.19836634556E+02 -0.37455862544E+02  0.51886088312E+02  0.00000000000E+00 0. -1.
<mgrwt>
<rscale>  1 0.88136674E+02</rscale>
<asrwt>0</asrwt>
<pdfrwt beam="1">  1       21 0.18090901E-02 0.88136674E+02</pdfrwt>
<pdfrwt beam="2">  1        4 0.72623770E-01 0.88136674E+02</pdfrwt>
<totfact> 0.95528242E+04</totfact>
</mgrwt>
</event>
<event>
 6    2  0.8544106E+000  0.8338323E+02  0.7546771E-02  0.1319716E+00
          2   -1    0    0  502    0 -0.00000000000E+00  0.00000000000E+00  0.24615075582E+03  0.24615075582E+03  0.00000000000E+00 0. -1.
         21   -1    0    0  501  502  0.00000000000E+00 -0.00000000000E+00 -0.13781516001E+02  0.13781516001E+02  0.00000000000E+00 0. -1.
         24    2    1    2    0    0  0.23056110022E+02  0.19785457802E+01  0.21614391599E+03  0.23166992963E+03  0.80107833725E+02 0.  0.
        -13    1    3    3    0    0  0.27660957629E+02  0.15000625864E+02  0.25433489423E+02  0.40459976983E+02  0.00000000000E+00 0.  1.
         14    1    3    3    0    0 -0.46048476072E+01 -0.13022080083E+02  0.19071042656E+03  0.19120995265E+03  0.00000000000E+00 0. -1.
          1    1    1    2  501    0 -0.23056110022E+02 -0.19785457802E+01  0.16225323835E+02  0.28262342194E+02  0.00000000000E+00 0. -1.
<mgrwt>
<rscale>  1 0.83383235E+02</rscale>
<asrwt>0</asrwt>
<pdfrwt beam="1">  1       21 0.21202334E-02 0.83383235E+02</pdfrwt>
<pdfrwt beam="2">  1        2 0.37869344E-01 0.83383235E+02</pdfrwt>
<totfact> 0.17207385E+06</totfact>
</mgrwt>
</event>
<event>
 6    2  0.8544106E+000  0.8848312E+02  0.7546771E-02  0.1306567E+00
         -3   -1    0    0    0  501 -0.00000000000E+00  0.00000000000E+00  0.26453842943E+03  0.26453842943E+03  0.00000000000E+00 0.  1.
         21   -1    0    0  501  502  0.00000000000E+00 -0.00000000000E+00 -0.15881190479E+02  0.15881190479E+02  0.00000000000E+00 0. -1.
         24    2    1    2    0    0  0.39607878791E+02  0.84319997493E+01  0.18319229890E+03  0.20344208385E+03  0.78672615451E+02 0.  0.
        -13    1    3    3    0    0  0.21719005887E+02 -0.15137284121E+02  0.16820147407E+03  0.17027210126E+03  0.00000000000E+00 0.  1.
         14    1    3    3    0    0  0.17888872904E+02  0.23569283870E+02  0.14990824830E+02  0.33169982590E+02  0.00000000000E+00 0. -1.
         -4    1    1    2    0  502 -0.39607878791E+02 -0.84319997493E+01  0.65464940045E+02  0.76977536056E+02  0.00000000000E+00 0.  1.
<mgrwt>
<rscale>  1 0.88483123E+02</rscale>
<asrwt>0</asrwt>
<pdfrwt beam="1">  1       21 0.24432603E-02 0.88483123E+02</pdfrwt>
<pdfrwt beam="2">  1       -3 0.40698217E-01 0.88483123E+02</pdfrwt>
<totfact> 0.23619743E+05</totfact>
</mgrwt>
</event>
<event>
 6    2  0.8544106E+000  0.8126735E+02  0.7546771E-02  0.1325493E+00
          2   -1    0    0  502    0 -0.00000000000E+00  0.00000000000E+00  0.97857627623E+03  0.97857627623E+03  0.00000000000E+00 0. -1.
         21   -1    0    0  501  502  0.00000000000E+00 -0.00000000000E+00 -0.52092003206E+01  0.52092003206E+01  0.00000000000E+00 0. -1.
         24    2    1    2    0    0  0.18768065259E+02 -0.74196111499E+01  0.94749142865E+03  0.95097023582E+03  0.78721605337E+02 0.  0.
        -13    1    3    3    0    0 -0.15248253054E+02  0.20082918107E+02  0.13713428072E+03  0.13943329506E+03  0.00000000000E+00 0.  1.
         14    1    3    3    0    0  0.34016318313E+02 -0.27502529257E+02  0.81035714793E+03  0.81153694076E+03  0.00000000000E+00 0. -1.
          1    1    1    2  501    0 -0.18768065259E+02  0.74196111499E+01  0.25875647264E+02  0.32815240735E+02  0.00000000000E+00 0. -1.
<mgrwt>
<rscale>  1 0.81267349E+02</rscale>
<asrwt>0</asrwt>
<pdfrwt beam="1">  1       21 0.80141621E-03 0.81267349E+02</pdfrwt>
<pdfrwt beam="2">  1        2 0.15055005E+00 0.81267349E+02</pdfrwt>
<totfact> 0.17130367E+06</totfact>
</mgrwt>
</event>
<event>
 6    2  0.8544106E+000  0.9621934E+02  0.7546771E-02  0.1288453E+00
         21   -1    0    0  501  502  0.00000000000E+00  0.00000000000E+00  0.91072738158E+03  0.91072738158E+03  0.00000000000E+00 0. -1.
         -3   -1    0    0    0  501 -0.00000000000E+00 -0.00000000000E+00 -0.89291259597E+01  0.89291259597E+01  0.00000000000E+00 0.  1.
         24    2    1    2    0    0  0.37036791738E+02  0.39006059417E+02  0.29101091183E+03  0.30650532231E+03  0.79780731929E+02 0.  0.
        -13    1    3    3    0    0  0.15317503519E+02 -0.18036433974E+02  0.28752381756E+02  0.37237592849E+02  0.00000000000E+00 0.  1.
         14    1    3    3    0    0  0.21719288219E+02  0.57042493391E+02  0.26225853008E+03  0.26926772947E+03  0.00000000000E+00 0. -1.
         -4    1    1    2    0  502 -0.37036791738E+02 -0.39006059417E+02  0.61078734379E+03  0.61315118523E+03  0.00000000000E+00 0.  1.
<mgrwt>
<rscale>  1 0.96219342E+02</rscale>
<asrwt>0</asrwt>
<pdfrwt beam="1">  1       21 0.14011183E+00 0.96219342E+02</pdfrwt>
<pdfrwt beam="2">  1       -3 0.13737124E-02 0.96219342E+02</pdfrwt>
<totfact> 0.28741699E+04</totfact>
</mgrwt>
</event>
<event>
 6    2  0.8544106E+000  0.8685998E+02  0.7546771E-02  0.1310639E+00
          2   -1    0    0  502    0 -0.00000000000E+00  0.00000000000E+00  0.51372348428E+03  0.51372348428E+03  0.00000000000E+00 0. -1.
         21   -1    0    0  501  502  0.00000000000E+00 -0.00000000000E+00 -0.33966534160E+02  0.33966534160E+02  0.00000000000E+00 0. -1.
         24    2    1    2    0    0  0.14112210861E+02  0.29854025140E+02  0.50096846599E+03  0.50844278010E+03  0.80338281104E+02 0.  0.
        -11    1    3    3    0    0 -0.10205883746E+02  0.26351489188E+02  0.55340204821E+02  0.62137744690E+02  0.00000000000E+00 0.  1.
         12    1    3    3    0    0  0.24318094607E+02  0.35025359514E+01  0.44562826117E+03  0.44630503541E+03  0.00000000000E+00 0. -1.
          1    1    1    2  501    0 -0.14112210861E+02 -0.29854025140E+02 -0.21211515862E+02  0.39247238344E+02  0.00000000000E+00 0. -1.
<mgrwt>
<rscale>  1 0.86859983E+02</rscale>
<asrwt>0</asrwt>
<pdfrwt beam="1">  1       21 0.52256210E-02 0.86859983E+02</pdfrwt>
<pdfrwt beam="2">  1        2 0.79034376E-01 0.86859983E+02</pdfrwt>
<totfact> 0.18293813E+05</totfact>
</mgrwt>
</event>
<event>
 6    2  0.8544106E+000  0.8257381E+02  0.7546771E-02  0.1321902E+00
          2   -1    0    0  502    0 -0.00000000000E+00  0.00000000000E+00  0.13444569139E+03  0.13444569139E+03  0.00000000000E+00 0. -1.
         21   -1    0    0  501  502  0.00000000000E+00 -0.00000000000E+00 -0.20631542423E+02  0.20631542423E+02  0.00000000000E+00 0.  1.
         24    2    1    2    0    0 -0.22420318367E+01 -0.20065579346E+02  0.76070919329E+02  0.11227296341E+03  0.80067342680E+02 0.  0.
        -11    1    3    3    0    0  0.37790249116E+02 -0.19526034280E+02  0.39491403782E+02  0.58042569857E+02  0.00000000000E+00 0.  1.
         12    1    3    3    0    0 -0.40032280953E+02 -0.53954506600E+00  0.36579515547E+02  0.54230393552E+02  0.00000000000E+00 0. -1.
          1    1    1    2  501    0  0.22420318367E+01  0.20065579346E+02  0.37743229637E+02  0.42804270402E+02  0.00000000000E+00 0. -1.
<mgrwt>
<rscale>  1 0.82573807E+02</rscale>
<asrwt>0</asrwt>
<pdfrwt beam="1">  1       21 0.31740835E-02 0.82573807E+02</pdfrwt>
<pdfrwt beam="2">  1        2 0.20683952E-01 0.82573807E+02</pdfrwt>
<totfact> 0.17179263E+06</totfact>
</mgrwt>
</event>
<event>
 6    2  0.8544106E+000  0.9219427E+02  0.7546771E-02  0.1297623E+00
          2   -1    0    0  502    0 -0.00000000000E+00  0.00000000000E+00  0.17255719237E+04  0.17255719237E+04  0.00000000000E+00 0. -1.
         21   -1    0    0  501  502  0.00000000000E+00 -0.00000000000E+00 -0.30605360106E+01  0.30605360106E+01  0.00000000000E+00 0.  1.
         24    2    1    2    0    0 -0.31971991637E+02  0.31241983452E+02  0.14007466553E+04  0.14037773954E+04  0.80631965161E+02 0.  0.
        -11    1    3    3    0    0 -0.28419177383E+01  0.29170876794E+02  0.15847173002E+03  0.16115925591E+03  0.00000000000E+00 0.  1.
         12    1    3    3    0    0 -0.29130073899E+02  0.20711066577E+01  0.12422749253E+04  0.12426181395E+04  0.00000000000E+00 0. -1.
          1    1    1    2  501    0  0.31971991637E+02 -0.31241983452E+02  0.32176473237E+03  0.32485506426E+03  0.00000000000E+00 0. -1.
<mgrwt>
<rscale>  1 0.92194271E+02</rscale>
<asrwt>0</asrwt>
<pdfrwt beam="1">  1       21 0.47085307E-03 0.92194271E+02</pdfrwt>
<pdfrwt beam="2">  1        2 0.26547183E+00 0.92194271E+02</pdfrwt>
<totfact> 0.15781851E+06</totfact>
</mgrwt>
</event>
<event>
 6    2  0.8544106E+000  0.8321963E+02  0.7546771E-02  0.1320155E+00
         21   -1    0    0  501  502  0.00000000000E+00  0.00000000000E+00  0.89891209553E+00  0.89891209553E+00  0.00000000000E+00 0.  1.
          2   -1    0    0  502    0 -0.00000000000E+00 -0.00000000000E+00 -0.29945284030E+04  0.29945284030E+04  0.00000000000E+00 0. -1.
         24    2    1    2    0    0 -0.15361117982E+02 -0.12988823008E+02 -0.22952666897E+04  0.22967748439E+04  0.80751675124E+02 0.  0.
        -11    1    3    3    0    0 -0.13889501270E+02 -0.28286361063E+02 -0.34224900879E+03  0.34369669839E+03  0.00000000000E+00 0.  1.
         12    1    3    3    0    0 -0.14716167124E+01  0.15297538055E+02 -0.19530176809E+04  0.19530781455E+04  0.00000000000E+00 0. -1.
          1    1    1    2  501    0  0.15361117982E+02  0.12988823008E+02 -0.69836280113E+03  0.69865247117E+03  0.00000000000E+00 0. -1.
<mgrwt>
<rscale>  1 0.83219628E+02</rscale>
<asrwt>0</asrwt>
<pdfrwt beam="1">  1       21 0.13829014E-03 0.83219628E+02</pdfrwt>
<pdfrwt beam="2">  1        2 0.46071010E+00 0.83219628E+02</pdfrwt>
<totfact> 0.21633430E+06</totfact>
</mgrwt>
</event>
<event>
 6    2  0.8544106E+000  0.8351968E+02  0.7546771E-02  0.1319350E+00
          2   -1    0    0  502    0 -0.00000000000E+00  0.00000000000E+00  0.70398803536E+03  0.70398803536E+03  0.00000000000E+00 0. -1.
         21   -1    0    0  501  502  0.00000000000E+00 -0.00000000000E+00 -0.45614778457E+01  0.45614778457E+01  0.00000000000E+00 0.  1.
         24    2    1    2    0    0  0.20273932213E+02 -0.46535081096E+01  0.41251928572E+03  0.42088917518E+03  0.80887880594E+02 0.  0.
        -11    1    3    3    0    0  0.63364242940E+01 -0.26042184632E+02  0.44235371412E+02  0.51721501691E+02  0.00000000000E+00 0.  1.
         12    1    3    3    0    0  0.13937507919E+02  0.21388676522E+02  0.36828391431E+03  0.36916767349E+03  0.00000000000E+00 0. -1.
          1    1    1    2  501    0 -0.20273932213E+02  0.46535081096E+01  0.28690727179E+03  0.28766033803E+03  0.00000000000E+00 0. -1.
<mgrwt>
<rscale>  1 0.83519678E+02</rscale>
<asrwt>0</asrwt>
<pdfrwt beam="1">  1       21 0.70176638E-03 0.83519678E+02</pdfrwt>
<pdfrwt beam="2">  1        2 0.10830577E+00 0.83519678E+02</pdfrwt>
<totfact> 0.31713128E+06</totfact>
</mgrwt>
</event>
<event>
 6    2  0.8544106E+000  0.1005354E+03  0.7546771E-02  0.1279174E+00
         -3   -1    0    0    0  501 -0.00000000000E+00  0.00000000000E+00  0.10069131555E+03  0.10069131555E+03  0.00000000000E+00 0.  1.
         21   -1    0    0  501  502  0.00000000000E+00 -0.00000000000E+00 -0.37998848375E+03  0.37998848375E+03  0.00000000000E+00 0.  1.
         24    2    1    2    0    0  0.45925977394E+02 -0.37601991388E+02  0.72474781666E+02  0.12393533912E+03  0.81143509594E+02 0.  0.
        -13    1    3    3    0    0  0.45498348569E+02 -0.54749420453E+02  0.78297650286E+02  0.10582117370E+03  0.00000000000E+00 0.  1.
         14    1    3    3    0    0  0.42762882471E+00  0.17147429065E+02 -0.58228686197E+01  0.18114165422E+02  0.00000000000E+00 0. -1.
         -4    1    1    2    0  502 -0.45925977394E+02  0.37601991388E+02 -0.35177194986E+03  0.35674446018E+03  0.00000000000E+00 0.  1.
<mgrwt>
<rscale>  1 0.10053544E+03</rscale>
<asrwt>0</asrwt>
<pdfrwt beam="1">  1       21 0.58459767E-01 0.10053544E+03</pdfrwt>
<pdfrwt beam="2">  1       -3 0.15490971E-01 0.10053544E+03</pdfrwt>
<totfact> 0.46560044E+03</totfact>
</mgrwt>
</event>
<event>
 6    2  0.8544106E+000  0.8609269E+02  0.7546771E-02  0.1312600E+00
          2   -1    0    0  502    0 -0.00000000000E+00  0.00000000000E+00  0.90986546341E+03  0.90986546341E+03  0.00000000000E+00 0. -1.
         21   -1    0    0  501  502  0.00000000000E+00 -0.00000000000E+00 -0.57075237218E+01  0.57075237218E+01  0.00000000000E+00 0.  1.
         24    2    1    2    0    0  0.26272909059E+02 -0.19558156257E+01  0.33765664052E+03  0.34845940686E+03  0.81962554739E+02 0.  0.
        -11    1    3    3    0    0 -0.17259601163E+02  0.20609005752E+02  0.51114005529E+02  0.57751766307E+02  0.00000000000E+00 0.  1.
         12    1    3    3    0    0  0.43532510223E+02 -0.22564821378E+02  0.28654263499E+03  0.29070764055E+03  0.00000000000E+00 0. -1.
          1    1    1    2  501    0 -0.26272909059E+02  0.19558156257E+01  0.56650129917E+03  0.56711358027E+03  0.00000000000E+00 0. -1.
<mgrwt>
<rscale>  1 0.86092690E+02</rscale>
<asrwt>0</asrwt>
<pdfrwt beam="1">  1       21 0.87808130E-03 0.86092690E+02</pdfrwt>
<pdfrwt beam="2">  1        2 0.13997919E+00 0.86092690E+02</pdfrwt>
<totfact> 0.16440443E+06</totfact>
</mgrwt>
</event>
<event>
 6    2  0.8544106E+000  0.9480107E+02  0.7546771E-02  0.1291625E+00
         21   -1    0    0  501  502  0.00000000000E+00  0.00000000000E+00  0.39866814338E+03  0.39866814338E+03  0.00000000000E+00 0.  1.
          2   -1    0    0  502    0 -0.00000000000E+00 -0.00000000000E+00 -0.13047803127E+02  0.13047803127E+02  0.00000000000E+00 0. -1.
         24    2    1    2    0    0 -0.47331322296E+02 -0.13401241544E+02  0.24210094230E+03  0.26000020925E+03  0.81039466914E+02 0.  0.
        -13    1    3    3    0    0 -0.26561221078E+02  0.30766237762E+02  0.15410342797E+03  0.15937354348E+03  0.00000000000E+00 0.  1.
         14    1    3    3    0    0 -0.20770101218E+02 -0.44167479306E+02  0.87997514336E+02  0.10062666576E+03  0.00000000000E+00 0. -1.
          1    1    1    2  501    0  0.47331322296E+02  0.13401241544E+02  0.14351939794E+03  0.15171573726E+03  0.00000000000E+00 0. -1.
<mgrwt>
<rscale>  1 0.94801068E+02</rscale>
<asrwt>0</asrwt>
<pdfrwt beam="1">  1       21 0.61333551E-01 0.94801068E+02</pdfrwt>
<pdfrwt beam="2">  1        2 0.20073546E-02 0.94801068E+02</pdfrwt>
<totfact> 0.15408247E+05</totfact>
</mgrwt>
</event>
<event>
 6    2  0.8544106E+000  0.1108806E+03  0.7546771E-02  0.1258948E+00
         21   -1    0    0  501  502  0.00000000000E+00  0.00000000000E+00  0.40038880549E+03  0.40038880549E+03  0.00000000000E+00 0.  1.
         -1   -1    0    0    0  501 -0.00000000000E+00 -0.00000000000E+00 -0.29373622315E+02  0.29373622315E+02  0.00000000000E+00 0.  1.
         24    2    1    2    0    0 -0.77714822977E+02  0.19720408813E+01  0.10531890194E+03  0.15292674275E+03  0.79063486438E+02 0.  0.
        -11    1    3    3    0    0 -0.77173285011E+02 -0.34912919451E+01  0.39289169623E+02  0.86669163423E+02  0.00000000000E+00 0.  1.
         12    1    3    3    0    0 -0.54153796625E+00  0.54633328264E+01  0.66029732314E+02  0.66257579328E+02  0.00000000000E+00 0. -1.
         -2    1    1    2    0  502  0.77714822977E+02 -0.19720408813E+01  0.26569628124E+03  0.27683568506E+03  0.00000000000E+00 0.  1.
<mgrwt>
<rscale>  1 0.11088065E+03</rscale>
<asrwt>0</asrwt>
<pdfrwt beam="1">  1       21 0.61598274E-01 0.11088065E+03</pdfrwt>
<pdfrwt beam="2">  1       -1 0.45190191E-02 0.11088065E+03</pdfrwt>
<totfact> 0.43742165E+04</totfact>
</mgrwt>
</event>
<event>
 6    2  0.8544106E+000  0.9351655E+02  0.7546771E-02  0.1294553E+00
         21   -1    0    0  501  502  0.00000000000E+00  0.00000000000E+00  0.81994307072E+01  0.81994307072E+01  0.00000000000E+00 0.  1.
         -1   -1    0    0    0  501 -0.00000000000E+00 -0.00000000000E+00 -0.95519582892E+03  0.95519582892E+03  0.00000000000E+00 0.  1.
         24    2    1    2    0    0 -0.81396620863E+01 -0.45924391875E+02 -0.85647092354E+03  0.86156125041E+03  0.81055792366E+02 0.  0.
        -13    1    3    3    0    0 -0.20773302574E+02 -0.65032911925E+02 -0.54704002566E+03  0.55128359254E+03  0.00000000000E+00 0.  1.
         14    1    3    3    0    0  0.12633640488E+02  0.19108520049E+02 -0.30943089788E+03  0.31027765787E+03  0.00000000000E+00 0. -1.
         -2    1    1    2    0  502  0.81396620863E+01  0.45924391875E+02 -0.90525474679E+02  0.10183400922E+03  0.00000000000E+00 0.  1.
<mgrwt>
<rscale>  1 0.93516551E+02</rscale>
<asrwt>0</asrwt>
<pdfrwt beam="1">  1       21 0.12614510E-02 0.93516551E+02</pdfrwt>
<pdfrwt beam="2">  1       -1 0.14695318E+00 0.93516551E+02</pdfrwt>
<totfact> 0.94676020E+04</totfact>
</mgrwt>
</event>
<event>
 6    2  0.8544106E+000  0.8585658E+02  0.7546771E-02  0.1313208E+00
          2   -1    0    0  502    0 -0.00000000000E+00  0.00000000000E+00  0.11002790275E+03  0.11002790275E+03  0.00000000000E+00 0. -1.
         21   -1    0    0  501  502  0.00000000000E+00 -0.00000000000E+00 -0.38574801051E+02  0.38574801051E+02  0.00000000000E+00 0. -1.
         24    2    1    2    0    0  0.25987320210E+02 -0.14147594919E+02  0.80468164343E+02  0.11767105968E+03  0.80596883071E+02 0.  0.
        -13    1    3    3    0    0  0.12498065802E+02  0.87497467517E+01 -0.13281403752E+02  0.20227590134E+02  0.00000000000E+00 0.  1.
         14    1    3    3    0    0  0.13489254408E+02 -0.22897341671E+02  0.93749568095E+02  0.97443469550E+02  0.00000000000E+00 0. -1.
          1    1    1    2  501    0 -0.25987320210E+02  0.14147594919E+02 -0.90150626396E+01  0.30931644122E+02  0.00000000000E+00 0. -1.
<mgrwt>
<rscale>  1 0.85856583E+02</rscale>
<asrwt>0</asrwt>
<pdfrwt beam="1">  1       21 0.59345848E-02 0.85856583E+02</pdfrwt>
<pdfrwt beam="2">  1        2 0.16927370E-01 0.85856583E+02</pdfrwt>
<totfact> 0.76963725E+05</totfact>
</mgrwt>
</event>
<event>
 6    2  0.8544106E+000  0.1063589E+03  0.7546771E-02  0.1267465E+00
         21   -1    0    0  501  502  0.00000000000E+00  0.00000000000E+00  0.50238640300E+01  0.50238640300E+01  0.00000000000E+00 0.  1.
          2   -1    0    0  502    0 -0.00000000000E+00 -0.00000000000E+00 -0.22911101556E+04  0.22911101556E+04  0.00000000000E+00 0. -1.
         24    2    1    2    0    0  0.40278698197E+02 -0.58663865699E+02 -0.66200251767E+03  0.67049201497E+03  0.79046733462E+02 0.  0.
        -11    1    3    3    0    0  0.34783727986E+02 -0.78255867409E+02 -0.51134281374E+03  0.51846442663E+03  0.00000000000E+00 0.  1.
         12    1    3    3    0    0  0.54949702106E+01  0.19592001710E+02 -0.15065970392E+03  0.15202758833E+03  0.00000000000E+00 0. -1.
          1    1    1    2  501    0 -0.40278698197E+02  0.58663865699E+02 -0.16240837739E+04  0.16256420047E+04  0.00000000000E+00 0. -1.
<mgrwt>
<rscale>  1 0.10635887E+03</rscale>
<asrwt>0</asrwt>
<pdfrwt beam="1">  1       21 0.77290253E-03 0.10635887E+03</pdfrwt>
<pdfrwt beam="2">  1        2 0.35247832E+00 0.10635887E+03</pdfrwt>
<totfact> 0.38188978E+05</totfact>
</mgrwt>
</event>
<event>
 6    2  0.8544106E+000  0.9857774E+02  0.7546771E-02  0.1283316E+00
         21   -1    0    0  501  502  0.00000000000E+00  0.00000000000E+00  0.48669955340E+01  0.48669955340E+01  0.00000000000E+00 0.  1.
          2   -1    0    0  502    0 -0.00000000000E+00 -0.00000000000E+00 -0.13504181114E+04  0.13504181114E+04  0.00000000000E+00 0. -1.
         24    2    1    2    0    0 -0.53946327789E+02  0.12632665879E+02 -0.63831527316E+03  0.64588231040E+03  0.81533921794E+02 0.  0.
        -11    1    3    3    0    0 -0.47934694095E+02  0.22956135439E+02 -0.18692349754E+03  0.19433248052E+03  0.00000000000E+00 0.  1.
         12    1    3    3    0    0 -0.60116336938E+01 -0.10323469560E+02 -0.45139177562E+03  0.45154982988E+03  0.00000000000E+00 0. -1.
          1    1    1    2  501    0  0.53946327789E+02 -0.12632665879E+02 -0.70723584273E+03  0.70940279656E+03  0.00000000000E+00 0. -1.
<mgrwt>
<rscale>  1 0.98577741E+02</rscale>
<asrwt>0</asrwt>
<pdfrwt beam="1">  1       21 0.74876682E-03 0.98577741E+02</pdfrwt>
<pdfrwt beam="2">  1        2 0.20775711E+00 0.98577741E+02</pdfrwt>
<totfact> 0.12059924E+06</totfact>
</mgrwt>
</event>
<event>
 6    2  0.8544106E+000  0.8333661E+02  0.7546771E-02  0.1319841E+00
         -3   -1    0    0    0  501 -0.00000000000E+00  0.00000000000E+00  0.23639614879E+02  0.23639614879E+02  0.00000000000E+00 0.  1.
         21   -1    0    0  501  502  0.00000000000E+00 -0.00000000000E+00 -0.14920583003E+03  0.14920583003E+03  0.00000000000E+00 0. -1.
         24    2    1    2    0    0 -0.26152925234E+02  0.13148187589E+02 -0.11435635016E+03  0.14150040689E+03  0.78026533917E+02 0.  0.
        -13    1    3    3    0    0 -0.32309388912E+02  0.25732331419E+02 -0.19608513931E+02  0.45722459588E+02  0.00000000000E+00 0.  1.
         14    1    3    3    0    0  0.61564636782E+01 -0.12584143831E+02 -0.94747836225E+02  0.95777947307E+02  0.00000000000E+00 0. -1.
         -4    1    1    2    0  502  0.26152925234E+02 -0.13148187589E+02 -0.11209864998E+02  0.31345038019E+02  0.00000000000E+00 0.  1.
<mgrwt>
<rscale>  1 0.83336609E+02</rscale>
<asrwt>0</asrwt>
<pdfrwt beam="1">  1       21 0.22954744E-01 0.83336609E+02</pdfrwt>
<pdfrwt beam="2">  1       -3 0.36368637E-02 0.83336609E+02</pdfrwt>
<totfact> 0.29529974E+05</totfact>
</mgrwt>
</event>
<event>
 6    2  0.8544106E+000  0.8477884E+02  0.7546771E-02  0.1316012E+00
         21   -1    0    0  501  502  0.00000000000E+00  0.00000000000E+00  0.27295514081E+02  0.27295514081E+02  0.00000000000E+00 0.  1.
          2   -1    0    0  502    0 -0.00000000000E+00 -0.00000000000E+00 -0.12328924447E+03  0.12328924447E+03  0.00000000000E+00 0. -1.
         24    2    1    2    0    0 -0.30009548049E+02  0.66650905236E+01 -0.76445175382E+02  0.11415479275E+03  0.79009211247E+02 0.  0.
        -13    1    3    3    0    0 -0.10541943276E+02  0.20839859488E+02  0.92655636471E+01  0.25125345394E+02  0.00000000000E+00 0.  1.
         14    1    3    3    0    0 -0.19467604773E+02 -0.14174768964E+02 -0.85710739029E+02  0.89029447352E+02  0.00000000000E+00 0. -1.
          1    1    1    2  501    0  0.30009548049E+02 -0.66650905236E+01 -0.19548555009E+02  0.36429965807E+02  0.00000000000E+00 0. -1.
<mgrwt>
<rscale>  1 0.84778841E+02</rscale>
<asrwt>0</asrwt>
<pdfrwt beam="1">  1       21 0.41993099E-02 0.84778841E+02</pdfrwt>
<pdfrwt beam="2">  1        2 0.18967576E-01 0.84778841E+02</pdfrwt>
<totfact> 0.12007619E+06</totfact>
</mgrwt>
</event>
<event>
 6    2  0.8544106E+000  0.9966860E+02  0.7546771E-02  0.1280994E+00
         21   -1    0    0  501  502  0.00000000000E+00  0.00000000000E+00  0.95229211517E+01  0.95229211517E+01  0.00000000000E+00 0.  1.
         -1   -1    0    0    0  501 -0.00000000000E+00 -0.00000000000E+00 -0.65109162259E+03  0.65109162259E+03  0.00000000000E+00 0.  1.
         24    2    1    2    0    0  0.70623127483E+01  0.57365739345E+02 -0.40145709064E+03  0.41364432296E+03  0.81198066364E+02 0.  0.
        -11    1    3    3    0    0  0.27745360326E+02  0.58210222102E+02 -0.37255143584E+03  0.37809100402E+03  0.00000000000E+00 0.  1.
         12    1    3    3    0    0 -0.20683047578E+02 -0.84448275686E+00 -0.28905654808E+02  0.35553318947E+02  0.00000000000E+00 0. -1.
         -2    1    1    2    0  502 -0.70623127483E+01 -0.57365739345E+02 -0.24011161079E+03  0.24697022077E+03  0.00000000000E+00 0.  1.
<mgrwt>
<rscale>  1 0.99668602E+02</rscale>
<asrwt>0</asrwt>
<pdfrwt beam="1">  1       21 0.14650642E-02 0.99668602E+02</pdfrwt>
<pdfrwt beam="2">  1       -1 0.10016798E+00 0.99668602E+02</pdfrwt>
<totfact> 0.18457139E+05</totfact>
</mgrwt>
</event>
<event>
 6    2  0.8544106E+000  0.6246577E+02  0.7546771E-02  0.1387766E+00
         21   -1    0    0  501  502  0.00000000000E+00  0.00000000000E+00  0.61148506754E+01  0.61148506754E+01  0.00000000000E+00 0. -1.
         -1   -1    0    0    0  501 -0.00000000000E+00 -0.00000000000E+00 -0.41073612746E+03  0.41073612746E+03  0.00000000000E+00 0.  1.
         24    2    1    2    0    0  0.12797225015E+02  0.30609233041E+02 -0.31834506628E+03  0.32441571098E+03  0.52927102596E+02 0.  0.
        -11    1    3    3    0    0 -0.15741403369E+02 -0.43960389485E+01 -0.11196170935E+03  0.11314831549E+03  0.00000000000E+00 0.  1.
         12    1    3    3    0    0  0.28538628384E+02  0.35005271989E+02 -0.20638335693E+03  0.21126739549E+03  0.00000000000E+00 0. -1.
         -2    1    1    2    0  502 -0.12797225015E+02 -0.30609233041E+02 -0.86276210508E+02  0.92435267161E+02  0.00000000000E+00 0.  1.
<mgrwt>
<rscale>  1 0.62465769E+02</rscale>
<asrwt>0</asrwt>
<pdfrwt beam="1">  1       21 0.94074616E-03 0.62465769E+02</pdfrwt>
<pdfrwt beam="2">  1       -1 0.63190180E-01 0.62465769E+02</pdfrwt>
<totfact> 0.89218198E+05</totfact>
</mgrwt>
</event>
<event>
 6    2  0.8544106E+000  0.8881029E+02  0.7546771E-02  0.1305759E+00
         21   -1    0    0  501  502  0.00000000000E+00  0.00000000000E+00  0.21705962387E+02  0.21705962387E+02  0.00000000000E+00 0.  1.
         -3   -1    0    0    0  501 -0.00000000000E+00 -0.00000000000E+00 -0.26482894807E+03  0.26482894807E+03  0.00000000000E+00 0.  1.
         24    2    1    2    0    0 -0.17041181933E+02  0.33910504385E+02 -0.22971428973E+03  0.24628422951E+03  0.80292855289E+02 0.  0.
        -13    1    3    3    0    0  0.79099777183E+01 -0.88539057468E+01 -0.16181775434E+03  0.16225271958E+03  0.00000000000E+00 0.  1.
         14    1    3    3    0    0 -0.24951159652E+02  0.42764410132E+02 -0.67896535391E+02  0.84031509924E+02  0.00000000000E+00 0. -1.
         -4    1    1    2    0  502  0.17041181933E+02 -0.33910504385E+02 -0.13408695951E+02  0.40250680944E+02  0.00000000000E+00 0.  1.
<mgrwt>
<rscale>  1 0.88810285E+02</rscale>
<asrwt>0</asrwt>
<pdfrwt beam="1">  1       21 0.33393789E-02 0.88810285E+02</pdfrwt>
<pdfrwt beam="2">  1       -3 0.40742915E-01 0.88810285E+02</pdfrwt>
<totfact> 0.14209581E+05</totfact>
</mgrwt>
</event>
<event>
 6    2  0.8544106E+000  0.8987303E+02  0.7546771E-02  0.1303159E+00
         21   -1    0    0  501  502  0.00000000000E+00  0.00000000000E+00  0.94458330258E+02  0.94458330258E+02  0.00000000000E+00 0. -1.
          4   -1    0    0  502    0 -0.00000000000E+00 -0.00000000000E+00 -0.66804732172E+02  0.66804732172E+02  0.00000000000E+00 0. -1.
         24    2    1    2    0    0  0.90385754733E+01 -0.21550258718E+02 -0.33408745095E+02  0.95881725245E+02  0.86781631062E+02 0.  0.
        -11    1    3    3    0    0  0.29414671584E+01  0.27862836399E+02  0.10079226538E+02  0.29775504846E+02  0.00000000000E+00 0.  1.
         12    1    3    3    0    0  0.60971083149E+01 -0.49413095117E+02 -0.43487971632E+02  0.66106220399E+02  0.00000000000E+00 0. -1.
          3    1    1    2  501    0 -0.90385754733E+01  0.21550258718E+02  0.61062343181E+02  0.65381337185E+02  0.00000000000E+00 0. -1.
<mgrwt>
<rscale>  1 0.89873027E+02</rscale>
<asrwt>0</asrwt>
<pdfrwt beam="1">  1       21 0.14532051E-01 0.89873027E+02</pdfrwt>
<pdfrwt beam="2">  1        4 0.10277651E-01 0.89873027E+02</pdfrwt>
<totfact> 0.11389615E+05</totfact>
</mgrwt>
</event>
<event>
 6    2  0.8544106E+000  0.9287703E+02  0.7546771E-02  0.1296030E+00
          2   -1    0    0  502    0 -0.00000000000E+00  0.00000000000E+00  0.19716296332E+03  0.19716296332E+03  0.00000000000E+00 0. -1.
         21   -1    0    0  501  502  0.00000000000E+00 -0.00000000000E+00 -0.22518050368E+02  0.22518050368E+02  0.00000000000E+00 0.  1.
         24    2    1    2    0    0 -0.27929178259E+02  0.27762959537E+02  0.13444464268E+03  0.16340595126E+03  0.84114933533E+02 0.  0.
        -13    1    3    3    0    0 -0.29792524158E+02 -0.25522165316E+02  0.50264853893E+02  0.63761516254E+02  0.00000000000E+00 0.  1.
         14    1    3    3    0    0  0.18633458995E+01  0.53285124854E+02  0.84179788785E+02  0.99644435010E+02  0.00000000000E+00 0. -1.
          1    1    1    2  501    0  0.27929178259E+02 -0.27762959537E+02  0.40200270269E+02  0.56275062418E+02  0.00000000000E+00 0. -1.
<mgrwt>
<rscale>  1 0.92877031E+02</rscale>
<asrwt>0</asrwt>
<pdfrwt beam="1">  1       21 0.34643156E-02 0.92877031E+02</pdfrwt>
<pdfrwt beam="2">  1        2 0.30332762E-01 0.92877031E+02</pdfrwt>
<totfact> 0.99563558E+05</totfact>
</mgrwt>
</event>
<event>
 6    2  0.8544106E+000  0.9780754E+02  0.7546771E-02  0.1284975E+00
         21   -1    0    0  501  502  0.00000000000E+00  0.00000000000E+00  0.30678604739E+02  0.30678604739E+02  0.00000000000E+00 0.  1.
          2   -1    0    0  502    0 -0.00000000000E+00 -0.00000000000E+00 -0.20099211215E+03  0.20099211215E+03  0.00000000000E+00 0. -1.
         24    2    1    2    0    0 -0.51998635064E+02  0.21610122378E+02 -0.85751494718E+02  0.13007549344E+03  0.79971618145E+02 0.  0.
        -11    1    3    3    0    0 -0.73414446445E+02  0.20706207036E+02 -0.64533491187E+02  0.99914961049E+02  0.00000000000E+00 0.  1.
         12    1    3    3    0    0  0.21415811381E+02  0.90391534175E+00 -0.21218003530E+02  0.30160532387E+02  0.00000000000E+00 0. -1.
          1    1    1    2  501    0  0.51998635064E+02 -0.21610122378E+02 -0.84562012698E+02  0.10159522346E+03  0.00000000000E+00 0. -1.
<mgrwt>
<rscale>  1 0.97807541E+02</rscale>
<asrwt>0</asrwt>
<pdfrwt beam="1">  1       21 0.47197854E-02 0.97807541E+02</pdfrwt>
<pdfrwt beam="2">  1        2 0.30921863E-01 0.97807541E+02</pdfrwt>
<totfact> 0.58851848E+05</totfact>
</mgrwt>
</event>
<event>
 6    2  0.8544106E+000  0.8324024E+02  0.7546771E-02  0.1320100E+00
          2   -1    0    0  502    0 -0.00000000000E+00  0.00000000000E+00  0.60287399285E+02  0.60287399285E+02  0.00000000000E+00 0. -1.
         21   -1    0    0  501  502  0.00000000000E+00 -0.00000000000E+00 -0.98299416383E+02  0.98299416383E+02  0.00000000000E+00 0. -1.
         24    2    1    2    0    0  0.26079125440E+02  0.11554674093E+02  0.27067652572E+02  0.87530537399E+02  0.78200421256E+02 0.  0.
        -13    1    3    3    0    0 -0.21746310399E+02 -0.14789404243E+02 -0.62923294487E+00  0.26306357177E+02  0.00000000000E+00 0.  1.
         14    1    3    3    0    0  0.47825435838E+02  0.26344078336E+02  0.27696885517E+02  0.61224180222E+02  0.00000000000E+00 0. -1.
          1    1    1    2  501    0 -0.26079125440E+02 -0.11554674093E+02 -0.65079669670E+02  0.71056278269E+02  0.00000000000E+00 0. -1.
<mgrwt>
<rscale>  1 0.83240238E+02</rscale>
<asrwt>0</asrwt>
<pdfrwt beam="1">  1       21 0.15122987E-01 0.83240238E+02</pdfrwt>
<pdfrwt beam="2">  1        2 0.92749845E-02 0.83240238E+02</pdfrwt>
<totfact> 0.31042500E+05</totfact>
</mgrwt>
</event>
<event>
 6    2  0.8544106E+000  0.8580025E+02  0.7546771E-02  0.1313353E+00
          2   -1    0    0  502    0 -0.00000000000E+00  0.00000000000E+00  0.58178936916E+03  0.58178936916E+03  0.00000000000E+00 0. -1.
         21   -1    0    0  501  502  0.00000000000E+00 -0.00000000000E+00 -0.84548339045E+01  0.84548339045E+01  0.00000000000E+00 0.  1.
         24    2    1    2    0    0  0.21111020332E+02  0.11687914012E+02  0.22079755473E+03  0.23688234158E+03  0.82337118388E+02 0.  0.
        -11    1    3    3    0    0 -0.24487745439E+02 -0.39935695916E+01  0.24952570356E+02  0.35188478827E+02  0.00000000000E+00 0.  1.
         12    1    3    3    0    0  0.45598765772E+02  0.15681483603E+02  0.19584498437E+03  0.20169386275E+03  0.00000000000E+00 0. -1.
          1    1    1    2  501    0 -0.21111020332E+02 -0.11687914012E+02  0.35253698053E+03  0.35336186149E+03  0.00000000000E+00 0. -1.
<mgrwt>
<rscale>  1 0.85800254E+02</rscale>
<asrwt>0</asrwt>
<pdfrwt beam="1">  1       21 0.13007441E-02 0.85800254E+02</pdfrwt>
<pdfrwt beam="2">  1        2 0.89506026E-01 0.85800254E+02</pdfrwt>
<totfact> 0.15094789E+06</totfact>
</mgrwt>
</event>
<event>
 6    2  0.8544106E+000  0.8391775E+02  0.7546771E-02  0.1318287E+00
          2   -1    0    0  502    0 -0.00000000000E+00  0.00000000000E+00  0.44229403985E+03  0.44229403985E+03  0.00000000000E+00 0. -1.
         21   -1    0    0  501  502  0.00000000000E+00 -0.00000000000E+00 -0.83753243606E+01  0.83753243606E+01  0.00000000000E+00 0. -1.
         24    2    1    2    0    0 -0.23175971151E+02  0.51368873864E+01  0.40323727277E+03  0.41187678531E+03  0.80490215994E+02 0.  0.
        -13    1    3    3    0    0 -0.15849954960E+02 -0.11770913692E+02  0.19676498030E+02  0.27873644472E+02  0.00000000000E+00 0.  1.
         14    1    3    3    0    0 -0.73260161912E+01  0.16907801079E+02  0.38356077474E+03  0.38400314084E+03  0.00000000000E+00 0. -1.
          1    1    1    2  501    0  0.23175971151E+02 -0.51368873864E+01  0.30681442717E+02  0.38792578904E+02  0.00000000000E+00 0. -1.
<mgrwt>
<rscale>  1 0.83917746E+02</rscale>
<asrwt>0</asrwt>
<pdfrwt beam="1">  1       21 0.12885118E-02 0.83917746E+02</pdfrwt>
<pdfrwt beam="2">  1        2 0.68045219E-01 0.83917746E+02</pdfrwt>
<totfact> 0.20555402E+06</totfact>
</mgrwt>
</event>
<event>
 6    2  0.8544106E+000  0.1125863E+03  0.7546771E-02  0.1255854E+00
          2   -1    0    0  502    0 -0.00000000000E+00  0.00000000000E+00  0.83646436129E+03  0.83646436129E+03  0.00000000000E+00 0. -1.
         21   -1    0    0  501  502  0.00000000000E+00 -0.00000000000E+00 -0.10519448566E+02  0.10519448566E+02  0.00000000000E+00 0. -1.
         24    2    1    2    0    0  0.45236638316E+02 -0.55817340075E+02  0.57685974584E+03  0.58774386452E+03  0.86681918559E+02 0.  0.
        -13    1    3    3    0    0  0.33354230596E+02 -0.27330586165E+02  0.88873078365E+02  0.98782031245E+02  0.00000000000E+00 0.  1.
         14    1    3    3    0    0  0.11882407720E+02 -0.28486753910E+02  0.48798666748E+03  0.48896183327E+03  0.00000000000E+00 0. -1.
          1    1    1    2  501    0 -0.45236638316E+02  0.55817340075E+02  0.24908516687E+03  0.25923994533E+03  0.00000000000E+00 0. -1.
<mgrwt>
<rscale>  1 0.11258634E+03</rscale>
<asrwt>0</asrwt>
<pdfrwt beam="1">  1       21 0.16183774E-02 0.11258634E+03</pdfrwt>
<pdfrwt beam="2">  1        2 0.12868677E+00 0.11258634E+03</pdfrwt>
<totfact> 0.71371692E+05</totfact>
</mgrwt>
</event>
<event>
 6    2  0.8544106E+000  0.8367223E+02  0.7546771E-02  0.1318942E+00
          2   -1    0    0  502    0 -0.00000000000E+00  0.00000000000E+00  0.90727385404E+03  0.90727385404E+03  0.00000000000E+00 0. -1.
         21   -1    0    0  501  502  0.00000000000E+00 -0.00000000000E+00 -0.10840121565E+02  0.10840121565E+02  0.00000000000E+00 0. -1.
         24    2    1    2    0    0 -0.24759485537E+02  0.83857734087E+01  0.88604074367E+03  0.88998272010E+03  0.79483893437E+02 0.  0.
        -11    1    3    3    0    0  0.32596105218E+01 -0.13561107477E+02  0.28760308600E+02  0.31963792759E+02  0.00000000000E+00 0.  1.
         12    1    3    3    0    0 -0.28019096059E+02  0.21946880885E+02  0.85728043507E+03  0.85801892735E+03  0.00000000000E+00 0. -1.
          1    1    1    2  501    0  0.24759485537E+02 -0.83857734087E+01  0.10392988799E+02  0.28131255498E+02  0.00000000000E+00 0. -1.
<mgrwt>
<rscale>  1 0.83672233E+02</rscale>
<asrwt>0</asrwt>
<pdfrwt beam="1">  1       21 0.16677117E-02 0.83672233E+02</pdfrwt>
<pdfrwt beam="2">  1        2 0.13958053E+00 0.83672233E+02</pdfrwt>
<totfact> 0.60123522E+05</totfact>
</mgrwt>
</event>
<event>
 6    2  0.8544106E+000  0.9972022E+02  0.7546771E-02  0.1280885E+00
         -1   -1    0    0    0  501 -0.00000000000E+00  0.00000000000E+00  0.88737935349E+02  0.88737935349E+02  0.00000000000E+00 0.  1.
         21   -1    0    0  501  502  0.00000000000E+00 -0.00000000000E+00 -0.29028046756E+03  0.29028046756E+03  0.00000000000E+00 0.  1.
         24    2    1    2    0    0  0.51023477817E+02 -0.29105952493E+02  0.56336647702E+02  0.11453357689E+03  0.80582694189E+02 0.  0.
        -13    1    3    3    0    0  0.17128796191E+02 -0.40306660500E+02  0.64453670997E+02  0.77924952644E+02  0.00000000000E+00 0.  1.
         14    1    3    3    0    0  0.33894681625E+02  0.11200708007E+02 -0.81170232944E+01  0.36608624250E+02  0.00000000000E+00 0. -1.
         -2    1    1    2    0  502 -0.51023477817E+02  0.29105952493E+02 -0.25787917991E+03  0.26448482601E+03  0.00000000000E+00 0.  1.
<mgrwt>
<rscale>  1 0.99720220E+02</rscale>
<asrwt>0</asrwt>
<pdfrwt beam="1">  1       21 0.44658534E-01 0.99720220E+02</pdfrwt>
<pdfrwt beam="2">  1       -1 0.13651990E-01 0.99720220E+02</pdfrwt>
<totfact> 0.16166718E+04</totfact>
</mgrwt>
</event>
<event>
 6    2  0.8544106E+000  0.2023128E+03  0.7546771E-02  0.1147802E+00
         21   -1    0    0  501  502  0.00000000000E+00  0.00000000000E+00  0.84787876838E+03  0.84787876838E+03  0.00000000000E+00 0.  1.
          4   -1    0    0  502    0 -0.00000000000E+00 -0.00000000000E+00 -0.46436453283E+02  0.46436453283E+02  0.00000000000E+00 0. -1.
         24    2    1    2    0    0 -0.56941340283E+02 -0.17743571070E+03  0.50680440557E+03  0.54569329838E+03  0.78770062349E+02 0.  0.
        -13    1    3    3    0    0 -0.45709971651E+02 -0.10278333738E+03  0.39562104973E+03  0.41130260264E+03  0.00000000000E+00 0.  1.
         14    1    3    3    0    0 -0.11231368632E+02 -0.74652373322E+02  0.11118335584E+03  0.13439069573E+03  0.00000000000E+00 0. -1.
          3    1    1    2  501    0  0.56941340283E+02  0.17743571070E+03  0.29463790952E+03  0.34862192328E+03  0.00000000000E+00 0. -1.
<mgrwt>
<rscale>  1 0.20231280E+03</rscale>
<asrwt>0</asrwt>
<pdfrwt beam="1">  1       21 0.13044288E+00 0.20231280E+03</pdfrwt>
<pdfrwt beam="2">  1        4 0.71440704E-02 0.20231280E+03</pdfrwt>
<totfact> 0.24032757E+03</totfact>
</mgrwt>
</event>
<event>
 6    2  0.8544106E+000  0.9755126E+02  0.7546771E-02  0.1285531E+00
         21   -1    0    0  501  502  0.00000000000E+00  0.00000000000E+00  0.12258089887E+03  0.12258089887E+03  0.00000000000E+00 0.  1.
         -1   -1    0    0    0  501 -0.00000000000E+00 -0.00000000000E+00 -0.52092533400E+02  0.52092533400E+02  0.00000000000E+00 0.  1.
         24    2    1    2    0    0 -0.55498997792E+02 -0.28136194392E+01  0.19974053610E+02  0.99575157237E+02  0.80176018303E+02 0.  0.
        -13    1    3    3    0    0 -0.28900436880E+02  0.44004633698E+01 -0.30387286298E+02  0.42166177184E+02  0.00000000000E+00 0.  1.
         14    1    3    3    0    0 -0.26598560912E+02 -0.72140828090E+01  0.50361339908E+02  0.57408980053E+02  0.00000000000E+00 0. -1.
         -2    1    1    2    0  502  0.55498997792E+02  0.28136194392E+01  0.50514311858E+02  0.75098275032E+02  0.00000000000E+00 0.  1.
<mgrwt>
<rscale>  1 0.97551264E+02</rscale>
<asrwt>0</asrwt>
<pdfrwt beam="1">  1       21 0.18858600E-01 0.97551264E+02</pdfrwt>
<pdfrwt beam="2">  1       -1 0.80142359E-02 0.97551264E+02</pdfrwt>
<totfact> 0.18832473E+05</totfact>
</mgrwt>
</event>
<event>
 6    2  0.8544106E+000  0.9237222E+02  0.7546771E-02  0.1297207E+00
         21   -1    0    0  501  502  0.00000000000E+00  0.00000000000E+00  0.25512093683E+01  0.25512093683E+01  0.00000000000E+00 0.  1.
          2   -1    0    0  502    0 -0.00000000000E+00 -0.00000000000E+00 -0.31529173011E+04  0.31529173011E+04  0.00000000000E+00 0. -1.
         24    2    1    2    0    0  0.25354760510E+02  0.38752231319E+02 -0.92083031187E+03  0.92545183048E+03  0.79925139848E+02 0.  0.
        -13    1    3    3    0    0  0.35743639380E+02  0.30583086200E+02 -0.24404614489E+03  0.24853863634E+03  0.00000000000E+00 0.  1.
         14    1    3    3    0    0 -0.10388878870E+02  0.81691451196E+01 -0.67678416698E+03  0.67691319415E+03  0.00000000000E+00 0. -1.
          1    1    1    2  501    0 -0.25354760510E+02 -0.38752231319E+02 -0.22295357799E+04  0.22300166800E+04  0.00000000000E+00 0. -1.
<mgrwt>
<rscale>  1 0.92372221E+02</rscale>
<asrwt>0</asrwt>
<pdfrwt beam="1">  1       21 0.39249430E-03 0.92372221E+02</pdfrwt>
<pdfrwt beam="2">  1        2 0.48506352E+00 0.92372221E+02</pdfrwt>
<totfact> 0.36618529E+05</totfact>
</mgrwt>
</event>
<event>
 6    2  0.8544106E+000  0.8553159E+02  0.7546771E-02  0.1314048E+00
         21   -1    0    0  501  502  0.00000000000E+00  0.00000000000E+00  0.17340028348E+01  0.17340028348E+01  0.00000000000E+00 0. -1.
          2   -1    0    0  502    0 -0.00000000000E+00 -0.00000000000E+00 -0.27115075880E+04  0.27115075880E+04  0.00000000000E+00 0. -1.
         24    2    1    2    0    0  0.20823376083E+02  0.26768058821E+02 -0.24165725223E+04  0.24180856910E+04  0.78520770093E+02 0.  0.
        -13    1    3    3    0    0 -0.19659399639E+02  0.25561531352E+02 -0.47623485043E+03  0.47732537817E+03  0.00000000000E+00 0.  1.
         14    1    3    3    0    0  0.40482775722E+02  0.12065274691E+01 -0.19403376719E+04  0.19407603128E+04  0.00000000000E+00 0. -1.
          1    1    1    2  501    0 -0.20823376083E+02 -0.26768058821E+02 -0.29320106290E+03  0.29515589991E+03  0.00000000000E+00 0. -1.
<mgrwt>
<rscale>  1 0.85531592E+02</rscale>
<asrwt>0</asrwt>
<pdfrwt beam="1">  1       21 0.26677030E-03 0.85531592E+02</pdfrwt>
<pdfrwt beam="2">  1        2 0.41715402E+00 0.85531592E+02</pdfrwt>
<totfact> 0.11627722E+06</totfact>
</mgrwt>
</event>
<event>
 6    2  0.8544106E+000  0.8639265E+02  0.7546771E-02  0.1311830E+00
          2   -1    0    0  502    0 -0.00000000000E+00  0.00000000000E+00  0.40436376477E+02  0.40436376477E+02  0.00000000000E+00 0. -1.
         21   -1    0    0  501  502  0.00000000000E+00 -0.00000000000E+00 -0.10552110084E+03  0.10552110084E+03  0.00000000000E+00 0. -1.
         24    2    1    2    0    0 -0.65820456299E+01 -0.26917579117E+02 -0.13555207864E+02  0.87449610661E+02  0.81827937493E+02 0.  0.
        -11    1    3    3    0    0 -0.91436998124E+01 -0.34515635515E+02 -0.43598956146E+02  0.56354283939E+02  0.00000000000E+00 0.  1.
         12    1    3    3    0    0  0.25616541825E+01  0.75980563984E+01  0.30043748281E+02  0.31095326722E+02  0.00000000000E+00 0. -1.
          1    1    1    2  501    0  0.65820456299E+01  0.26917579117E+02 -0.51529516500E+02  0.58507866658E+02  0.00000000000E+00 0. -1.
<mgrwt>
<rscale>  1 0.86392654E+02</rscale>
<asrwt>0</asrwt>
<pdfrwt beam="1">  1       21 0.16234015E-01 0.86392654E+02</pdfrwt>
<pdfrwt beam="2">  1        2 0.62209811E-02 0.86392654E+02</pdfrwt>
<totfact> 0.45076748E+05</totfact>
</mgrwt>
</event>
<event>
 6    2  0.8544106E+000  0.9665630E+02  0.7546771E-02  0.1287489E+00
         21   -1    0    0  501  502  0.00000000000E+00  0.00000000000E+00  0.24673224766E+02  0.24673224766E+02  0.00000000000E+00 0.  1.
         -3   -1    0    0    0  501 -0.00000000000E+00 -0.00000000000E+00 -0.22385597768E+03  0.22385597768E+03  0.00000000000E+00 0.  1.
         24    2    1    2    0    0 -0.50784289458E+02  0.99729156121E+01 -0.12309305699E+03  0.15650667842E+03  0.81632938267E+02 0.  0.
        -13    1    3    3    0    0 -0.48614565754E+02 -0.29544722776E+02 -0.67710822509E+02  0.88436542968E+02  0.00000000000E+00 0.  1.
         14    1    3    3    0    0 -0.21697237048E+01  0.39517638388E+02 -0.55382234481E+02  0.68070135454E+02  0.00000000000E+00 0. -1.
         -4    1    1    2    0  502  0.50784289458E+02 -0.99729156121E+01 -0.76089695921E+02  0.92022524020E+02  0.00000000000E+00 0.  1.
<mgrwt>
<rscale>  1 0.96656297E+02</rscale>
<asrwt>0</asrwt>
<pdfrwt beam="1">  1       21 0.37958808E-02 0.96656297E+02</pdfrwt>
<pdfrwt beam="2">  1       -3 0.34439380E-01 0.96656297E+02</pdfrwt>
<totfact> 0.16025378E+05</totfact>
</mgrwt>
</event>
<event>
 6    2  0.8544106E+000  0.8367322E+02  0.7546771E-02  0.1318939E+00
          2   -1    0    0  502    0 -0.00000000000E+00  0.00000000000E+00  0.50960843274E+02  0.50960843274E+02  0.00000000000E+00 0. -1.
         21   -1    0    0  501  502  0.00000000000E+00 -0.00000000000E+00 -0.60328358822E+02  0.60328358822E+02  0.00000000000E+00 0.  1.
         24    2    1    2    0    0 -0.66560836661E+01  0.23264777830E+02  0.37635066201E+01  0.83757818541E+02  0.80097783036E+02 0.  0.
        -13    1    3    3    0    0 -0.94305755015E+01  0.26505910237E+02 -0.34918096114E+02  0.44841637660E+02  0.00000000000E+00 0.  1.
         14    1    3    3    0    0  0.27744918354E+01 -0.32411324066E+01  0.38681602735E+02  0.38916180881E+02  0.00000000000E+00 0. -1.
          1    1    1    2  501    0  0.66560836661E+01 -0.23264777830E+02 -0.13131022169E+02  0.27531383555E+02  0.00000000000E+00 0. -1.
<mgrwt>
<rscale>  1 0.83673223E+02</rscale>
<asrwt>0</asrwt>
<pdfrwt beam="1">  1       21 0.92812859E-02 0.83673223E+02</pdfrwt>
<pdfrwt beam="2">  1        2 0.78401298E-02 0.83673223E+02</pdfrwt>
<totfact> 0.89727484E+05</totfact>
</mgrwt>
</event>
<event>
 6    2  0.8544106E+000  0.8375760E+02  0.7546771E-02  0.1318714E+00
          4   -1    0    0  502    0 -0.00000000000E+00  0.00000000000E+00  0.66998770016E+03  0.66998770016E+03  0.00000000000E+00 0. -1.
         21   -1    0    0  501  502  0.00000000000E+00 -0.00000000000E+00 -0.66961166817E+01  0.66961166817E+01  0.00000000000E+00 0.  1.
         24    2    1    2    0    0 -0.32613073838E+01  0.21532205640E+02  0.63727429540E+03  0.64275490168E+03  0.80876844888E+02 0.  0.
        -11    1    3    3    0    0 -0.41701743803E+02  0.13231508804E+02  0.37616152828E+03  0.37869724533E+03  0.00000000000E+00 0.  1.
         12    1    3    3    0    0  0.38440436419E+02  0.83006968357E+01  0.26111276712E+03  0.26405765634E+03  0.00000000000E+00 0. -1.
          3    1    1    2  501    0  0.32613073838E+01 -0.21532205640E+02  0.26017288070E+02  0.33928915163E+02  0.00000000000E+00 0. -1.
<mgrwt>
<rscale>  1 0.83757603E+02</rscale>
<asrwt>0</asrwt>
<pdfrwt beam="1">  1       21 0.10301723E-02 0.83757603E+02</pdfrwt>
<pdfrwt beam="2">  1        4 0.10307498E+00 0.83757603E+02</pdfrwt>
<totfact> 0.10569301E+05</totfact>
</mgrwt>
</event>
<event>
 6    2  0.8544106E+000  0.8509495E+02  0.7546771E-02  0.1315184E+00
         21   -1    0    0  501  502  0.00000000000E+00  0.00000000000E+00  0.44001714124E+02  0.44001714124E+02  0.00000000000E+00 0.  1.
          2   -1    0    0  502    0 -0.00000000000E+00 -0.00000000000E+00 -0.85906796925E+02  0.85906796925E+02  0.00000000000E+00 0. -1.
         24    2    1    2    0    0 -0.19422994647E+02 -0.17940945284E+02 -0.59838402933E+01  0.85305081786E+02  0.80882757094E+02 0.  0.
        -11    1    3    3    0    0 -0.34672080343E+02 -0.25840647167E+02  0.24949860306E+02  0.49923819271E+02  0.00000000000E+00 0.  1.
         12    1    3    3    0    0  0.15249085696E+02  0.78997018824E+01 -0.30933700599E+02  0.35381262515E+02  0.00000000000E+00 0. -1.
          1    1    1    2  501    0  0.19422994647E+02  0.17940945284E+02 -0.35921242508E+02  0.44603429263E+02  0.00000000000E+00 0. -1.
<mgrwt>
<rscale>  1 0.85094951E+02</rscale>
<asrwt>0</asrwt>
<pdfrwt beam="1">  1       21 0.67694945E-02 0.85094951E+02</pdfrwt>
<pdfrwt beam="2">  1        2 0.13216430E-01 0.85094951E+02</pdfrwt>
<totfact> 0.81986797E+05</totfact>
</mgrwt>
</event>
<event>
 6    2  0.8544106E+000  0.8965983E+02  0.7546771E-02  0.1303678E+00
         21   -1    0    0  501  502  0.00000000000E+00  0.00000000000E+00  0.38544438970E+02  0.38544438970E+02  0.00000000000E+00 0.  1.
          2   -1    0    0  502    0 -0.00000000000E+00 -0.00000000000E+00 -0.91974909647E+02  0.91974909647E+02  0.00000000000E+00 0. -1.
         24    2    1    2    0    0  0.13865418180E+02 -0.24723695630E+02 -0.47849020935E+02  0.10162880469E+03  0.85061002771E+02 0.  0.
        -13    1    3    3    0    0  0.36034806836E+02 -0.15013287910E+02  0.88081964643E+01  0.40018626195E+02  0.00000000000E+00 0.  1.
         14    1    3    3    0    0 -0.22169388655E+02 -0.97104077194E+01 -0.56657217399E+02  0.61610178500E+02  0.00000000000E+00 0. -1.
          1    1    1    2  501    0 -0.13865418180E+02  0.24723695630E+02 -0.55814497423E+01  0.28890543922E+02  0.00000000000E+00 0. -1.
<mgrwt>
<rscale>  1 0.89659830E+02</rscale>
<asrwt>0</asrwt>
<pdfrwt beam="1">  1       21 0.59299138E-02 0.89659830E+02</pdfrwt>
<pdfrwt beam="2">  1        2 0.14149986E-01 0.89659830E+02</pdfrwt>
<totfact> 0.95171175E+05</totfact>
</mgrwt>
</event>
<event>
 6    2  0.8544106E+000  0.9159321E+02  0.7546771E-02  0.1299039E+00
          2   -1    0    0  502    0 -0.00000000000E+00  0.00000000000E+00  0.42247601597E+03  0.42247601597E+03  0.00000000000E+00 0. -1.
         21   -1    0    0  501  502  0.00000000000E+00 -0.00000000000E+00 -0.10866718680E+02  0.10866718680E+02  0.00000000000E+00 0.  1.
         24    2    1    2    0    0 -0.34162225789E+01  0.42701969379E+02  0.25377231493E+03  0.26979567180E+03  0.80957939283E+02 0.  0.
        -11    1    3    3    0    0 -0.26162895549E+02  0.14136023788E+02  0.27204170612E+02  0.40303736436E+02  0.00000000000E+00 0.  1.
         12    1    3    3    0    0  0.22746672970E+02  0.28565945591E+02  0.22656814432E+03  0.22949193536E+03  0.00000000000E+00 0. -1.
          1    1    1    2  501    0  0.34162225789E+01 -0.42701969379E+02  0.15783698236E+03  0.16354706284E+03  0.00000000000E+00 0. -1.
<mgrwt>
<rscale>  1 0.91593213E+02</rscale>
<asrwt>0</asrwt>
<pdfrwt beam="1">  1       21 0.16718032E-02 0.91593213E+02</pdfrwt>
<pdfrwt beam="2">  1        2 0.64996297E-01 0.91593213E+02</pdfrwt>
<totfact> 0.14438107E+06</totfact>
</mgrwt>
</event>
<event>
 6    2  0.8544106E+000  0.9088668E+02  0.7546771E-02  0.1300719E+00
          2   -1    0    0  502    0 -0.00000000000E+00  0.00000000000E+00  0.44721738299E+02  0.44721738299E+02  0.00000000000E+00 0. -1.
         21   -1    0    0  501  502  0.00000000000E+00 -0.00000000000E+00 -0.32314204465E+03  0.32314204465E+03  0.00000000000E+00 0. -1.
         24    2    1    2    0    0  0.16202150779E+02  0.28048360745E+02 -0.34081008657E+01  0.90950559365E+02  0.84918601419E+02 0.  0.
        -13    1    3    3    0    0  0.13984330741E+02  0.41017391552E+02 -0.35657824856E+02  0.56120124638E+02  0.00000000000E+00 0.  1.
         14    1    3    3    0    0  0.22178200374E+01 -0.12969030806E+02  0.32249723990E+02  0.34830434726E+02  0.00000000000E+00 0. -1.
          1    1    1    2  501    0 -0.16202150779E+02 -0.28048360745E+02 -0.27501220549E+03  0.27691322359E+03  0.00000000000E+00 0. -1.
<mgrwt>
<rscale>  1 0.90886683E+02</rscale>
<asrwt>0</asrwt>
<pdfrwt beam="1">  1       21 0.49714161E-01 0.90886683E+02</pdfrwt>
<pdfrwt beam="2">  1        2 0.68802675E-02 0.90886683E+02</pdfrwt>
<totfact> 0.47308077E+04</totfact>
</mgrwt>
</event>
<event>
 6    2  0.8544106E+000  0.8554176E+02  0.7546771E-02  0.1314022E+00
         -3   -1    0    0    0  501 -0.00000000000E+00  0.00000000000E+00  0.97159387814E+02  0.97159387814E+02  0.00000000000E+00 0.  1.
         21   -1    0    0  501  502  0.00000000000E+00 -0.00000000000E+00 -0.69219947185E+02  0.69219947185E+02  0.00000000000E+00 0.  1.
         24    2    1    2    0    0 -0.81232426662E+01 -0.60665586795E+02 -0.20919628491E+02  0.88062611831E+02  0.59758616565E+02 0.  0.
        -13    1    3    3    0    0  0.22542743551E+02 -0.29700198361E+02  0.45855703983E+01  0.37567333221E+02  0.00000000000E+00 0.  1.
         14    1    3    3    0    0 -0.30665986217E+02 -0.30965388434E+02 -0.25505198889E+02  0.50495278610E+02  0.00000000000E+00 0. -1.
         -4    1    1    2    0  502  0.81232426662E+01  0.60665586795E+02  0.48859069120E+02  0.78316723168E+02  0.00000000000E+00 0.  1.
<mgrwt>
<rscale>  1 0.85541760E+02</rscale>
<asrwt>0</asrwt>
<pdfrwt beam="1">  1       21 0.10649223E-01 0.85541760E+02</pdfrwt>
<pdfrwt beam="2">  1       -3 0.14947598E-01 0.85541760E+02</pdfrwt>
<totfact> 0.12127304E+05</totfact>
</mgrwt>
</event>
<event>
 6    2  0.8544106E+000  0.8854593E+02  0.7546771E-02  0.1306412E+00
         21   -1    0    0  501  502  0.00000000000E+00  0.00000000000E+00  0.64040775597E+02  0.64040775597E+02  0.00000000000E+00 0. -1.
          2   -1    0    0  502    0 -0.00000000000E+00 -0.00000000000E+00 -0.29975587026E+03  0.29975587026E+03  0.00000000000E+00 0. -1.
         24    2    1    2    0    0  0.88880819852E+01  0.36278183091E+02 -0.28700172947E+03  0.30035042076E+03  0.80282488499E+02 0.  0.
        -13    1    3    3    0    0  0.27368486576E+01 -0.39770498268E+00  0.51477333768E+01  0.58436006663E+01  0.00000000000E+00 0.  1.
         14    1    3    3    0    0  0.61512333276E+01  0.36675888073E+02 -0.29214946285E+03  0.29450682009E+03  0.00000000000E+00 0. -1.
          1    1    1    2  501    0 -0.88880819852E+01 -0.36278183091E+02  0.51286634807E+02  0.63446225101E+02  0.00000000000E+00 0. -1.
<mgrwt>
<rscale>  1 0.88545935E+02</rscale>
<asrwt>0</asrwt>
<pdfrwt beam="1">  1       21 0.98524269E-02 0.88545935E+02</pdfrwt>
<pdfrwt beam="2">  1        2 0.46116288E-01 0.88545935E+02</pdfrwt>
<totfact> 0.11023584E+05</totfact>
</mgrwt>
</event>
<event>
 6    2  0.8544106E+000  0.8379892E+02  0.7546771E-02  0.1318604E+00
         21   -1    0    0  501  502  0.00000000000E+00  0.00000000000E+00  0.26448472376E+01  0.26448472376E+01  0.00000000000E+00 0.  1.
          2   -1    0    0  502    0 -0.00000000000E+00 -0.00000000000E+00 -0.10957907930E+04  0.10957907930E+04  0.00000000000E+00 0. -1.
         24    2    1    2    0    0 -0.63183531009E+01  0.21850775394E+02 -0.91848762946E+03  0.92230243659E+03  0.80652843159E+02 0.  0.
        -13    1    3    3    0    0  0.30469938397E+02  0.29908155721E+02 -0.61629629161E+03  0.61777344875E+03  0.00000000000E+00 0.  1.
         14    1    3    3    0    0 -0.36788291497E+02 -0.80573803274E+01 -0.30219133784E+03  0.30452898784E+03  0.00000000000E+00 0. -1.
          1    1    1    2  501    0  0.63183531009E+01 -0.21850775394E+02 -0.17465831628E+03  0.17613320362E+03  0.00000000000E+00 0. -1.
<mgrwt>
<rscale>  1 0.83798921E+02</rscale>
<asrwt>0</asrwt>
<pdfrwt beam="1">  1       21 0.40689907E-03 0.83798921E+02</pdfrwt>
<pdfrwt beam="2">  1        2 0.16858341E+00 0.83798921E+02</pdfrwt>
<totfact> 0.41655379E+06</totfact>
</mgrwt>
</event>
<event>
 6    2  0.8544106E+000  0.8504202E+02  0.7546771E-02  0.1315323E+00
          2   -1    0    0  502    0 -0.00000000000E+00  0.00000000000E+00  0.23485811478E+04  0.23485811478E+04  0.00000000000E+00 0. -1.
         21   -1    0    0  501  502  0.00000000000E+00 -0.00000000000E+00 -0.13392058320E+01  0.13392058320E+01  0.00000000000E+00 0.  1.
         24    2    1    2    0    0  0.82399716595E+01  0.23332627590E+02  0.19940786256E+04  0.19958912070E+04  0.81362377220E+02 0.  0.
        -11    1    3    3    0    0  0.79694512134E+01  0.42434355499E+02  0.55198273782E+03  0.55366879046E+03  0.00000000000E+00 0.  1.
         12    1    3    3    0    0  0.27052044604E+00 -0.19101727909E+02  0.14420958878E+04  0.14422224165E+04  0.00000000000E+00 0. -1.
          1    1    1    2  501    0 -0.82399716595E+01 -0.23332627590E+02  0.35316331643E+03  0.35402914670E+03  0.00000000000E+00 0. -1.
<mgrwt>
<rscale>  1 0.85042019E+02</rscale>
<asrwt>0</asrwt>
<pdfrwt beam="1">  1       21 0.20603355E-03 0.85042019E+02</pdfrwt>
<pdfrwt beam="2">  1        2 0.36131688E+00 0.85042019E+02</pdfrwt>
<totfact> 0.26594697E+06</totfact>
</mgrwt>
</event>
<event>
 6    2  0.8544106E+000  0.7007448E+02  0.7546771E-02  0.1359840E+00
          2   -1    0    0  502    0 -0.00000000000E+00  0.00000000000E+00  0.23010651243E+04  0.23010651243E+04  0.00000000000E+00 0. -1.
         21   -1    0    0  501  502  0.00000000000E+00 -0.00000000000E+00 -0.16647090878E+01  0.16647090878E+01  0.00000000000E+00 0. -1.
         24    2    1    2    0    0  0.13816819443E+01 -0.38977914786E+02  0.19309044057E+04  0.19321755244E+04  0.58217233165E+02 0.  0.
        -11    1    3    3    0    0 -0.26014745939E+02 -0.32965327290E+02  0.11862065780E+04  0.11869496727E+04  0.00000000000E+00 0.  1.
         12    1    3    3    0    0  0.27396427883E+02 -0.60125874957E+01  0.74469782762E+03  0.74522585162E+03  0.00000000000E+00 0. -1.
          1    1    1    2  501    0 -0.13816819443E+01  0.38977914786E+02  0.36849600953E+03  0.37055430901E+03  0.00000000000E+00 0. -1.
<mgrwt>
<rscale>  1 0.70074483E+02</rscale>
<asrwt>0</asrwt>
<pdfrwt beam="1">  1       21 0.25611093E-03 0.70074483E+02</pdfrwt>
<pdfrwt beam="2">  1        2 0.35400747E+00 0.70074483E+02</pdfrwt>
<totfact> 0.20048599E+06</totfact>
</mgrwt>
</event>
<event>
 6    2  0.8544106E+000  0.8432474E+02  0.7546771E-02  0.1317208E+00
          2   -1    0    0  502    0 -0.00000000000E+00  0.00000000000E+00  0.41371958869E+02  0.41371958869E+02  0.00000000000E+00 0. -1.
         21   -1    0    0  501  502  0.00000000000E+00 -0.00000000000E+00 -0.24637226156E+03  0.24637226156E+03  0.00000000000E+00 0. -1.
         24    2    1    2    0    0  0.75312739251E+01  0.25598267984E+02 -0.34079081771E+01  0.84393575147E+02  0.79991688801E+02 0.  0.
        -11    1    3    3    0    0  0.51228670696E+01 -0.26739848794E+02 -0.14488471913E+02  0.30841191594E+02  0.00000000000E+00 0.  1.
         12    1    3    3    0    0  0.24084068555E+01  0.52338116779E+02  0.11080563736E+02  0.53552383553E+02  0.00000000000E+00 0. -1.
          1    1    1    2  501    0 -0.75312739251E+01 -0.25598267984E+02 -0.20159239452E+03  0.20335064528E+03  0.00000000000E+00 0. -1.
<mgrwt>
<rscale>  1 0.84324739E+02</rscale>
<asrwt>0</asrwt>
<pdfrwt beam="1">  1       21 0.37903426E-01 0.84324739E+02</pdfrwt>
<pdfrwt beam="2">  1        2 0.63649166E-02 0.84324739E+02</pdfrwt>
<totfact> 0.89504593E+04</totfact>
</mgrwt>
</event>
<event>
 6    2  0.8544106E+000  0.8374047E+02  0.7546771E-02  0.1318760E+00
          2   -1    0    0  502    0 -0.00000000000E+00  0.00000000000E+00  0.11511541871E+03  0.11511541871E+03  0.00000000000E+00 0. -1.
         21   -1    0    0  501  502  0.00000000000E+00 -0.00000000000E+00 -0.94533180181E+02  0.94533180181E+02  0.00000000000E+00 0. -1.
         24    2    1    2    0    0 -0.30958466822E+01  0.21485720753E+02  0.98197374994E+02  0.12905498953E+03  0.80877966117E+02 0.  0.
        -11    1    3    3    0    0  0.12042079432E+02 -0.26792598808E+02  0.18697527736E+02  0.34820289651E+02  0.00000000000E+00 0.  1.
         12    1    3    3    0    0 -0.15137926115E+02  0.48278319561E+02  0.79499847258E+02  0.94234699877E+02  0.00000000000E+00 0. -1.
          1    1    1    2  501    0  0.30958466822E+01 -0.21485720753E+02 -0.77615136462E+02  0.80593609368E+02  0.00000000000E+00 0. -1.
<mgrwt>
<rscale>  1 0.83740467E+02</rscale>
<asrwt>0</asrwt>
<pdfrwt beam="1">  1       21 0.14543566E-01 0.83740467E+02</pdfrwt>
<pdfrwt beam="2">  1        2 0.17710064E-01 0.83740467E+02</pdfrwt>
<totfact> 0.15571234E+05</totfact>
</mgrwt>
</event>
<event>
 6    2  0.8544106E+000  0.7877009E+02  0.7546771E-02  0.1332578E+00
          2   -1    0    0  502    0 -0.00000000000E+00  0.00000000000E+00  0.78007258040E+03  0.78007258040E+03  0.00000000000E+00 0. -1.
         21   -1    0    0  501  502  0.00000000000E+00 -0.00000000000E+00 -0.40169387252E+01  0.40169387252E+01  0.00000000000E+00 0.  1.
         24    2    1    2    0    0 -0.20628661609E+02 -0.58564815104E+01  0.71600704701E+03  0.72032688291E+03  0.75795031659E+02 0.  0.
        -11    1    3    3    0    0 -0.43626806352E+02  0.97780002381E+01  0.29137251391E+03  0.29478271555E+03  0.00000000000E+00 0.  1.
         12    1    3    3    0    0  0.22998144744E+02 -0.15634481749E+02  0.42463453310E+03  0.42554416737E+03  0.00000000000E+00 0. -1.
          1    1    1    2  501    0  0.20628661609E+02  0.58564815104E+01  0.60048594663E+02  0.63762636210E+02  0.00000000000E+00 0. -1.
<mgrwt>
<rscale>  1 0.78770089E+02</rscale>
<asrwt>0</asrwt>
<pdfrwt beam="1">  1       21 0.61799119E-03 0.78770089E+02</pdfrwt>
<pdfrwt beam="2">  1        2 0.12001105E+00 0.78770089E+02</pdfrwt>
<totfact> 0.33923461E+06</totfact>
</mgrwt>
</event>
<event>
 6    2  0.8544106E+000  0.8310180E+02  0.7546771E-02  0.1320473E+00
          2   -1    0    0  502    0 -0.00000000000E+00  0.00000000000E+00  0.18289181044E+04  0.18289181044E+04  0.00000000000E+00 0. -1.
         21   -1    0    0  501  502  0.00000000000E+00 -0.00000000000E+00 -0.16855974141E+01  0.16855974141E+01  0.00000000000E+00 0.  1.
         24    2    1    2    0    0  0.25720050320E+02 -0.83534305284E+01  0.12705928079E+04  0.12733075010E+04  0.78578673618E+02 0.  0.
        -13    1    3    3    0    0  0.28741462884E+02 -0.39204792712E+02  0.58583619770E+03  0.58784958791E+03  0.00000000000E+00 0.  1.
         14    1    3    3    0    0 -0.30214125646E+01  0.30851362184E+02  0.68475661019E+03  0.68545791313E+03  0.00000000000E+00 0. -1.
          1    1    1    2  501    0 -0.25720050320E+02  0.83534305284E+01  0.55663969907E+03  0.55729620075E+03  0.00000000000E+00 0. -1.
<mgrwt>
<rscale>  1 0.83101797E+02</rscale>
<asrwt>0</asrwt>
<pdfrwt beam="1">  1       21 0.25932414E-03 0.83101797E+02</pdfrwt>
<pdfrwt beam="2">  1        2 0.28137043E+00 0.83101797E+02</pdfrwt>
<totfact> 0.34363220E+06</totfact>
</mgrwt>
</event>
<event>
 6    2  0.8544106E+000  0.8363015E+02  0.7546771E-02  0.1319054E+00
         21   -1    0    0  501  502  0.00000000000E+00  0.00000000000E+00  0.36712236079E+01  0.36712236079E+01  0.00000000000E+00 0. -1.
          2   -1    0    0  502    0 -0.00000000000E+00 -0.00000000000E+00 -0.11841601664E+04  0.11841601664E+04  0.00000000000E+00 0. -1.
         24    2    1    2    0    0 -0.63277927469E+01  0.22764641327E+02 -0.11163614113E+04  0.11194895277E+04  0.80223014231E+02 0.  0.
        -13    1    3    3    0    0 -0.22358320115E+02 -0.92067266906E+01 -0.11621139596E+03  0.11870023945E+03  0.00000000000E+00 0.  1.
         14    1    3    3    0    0  0.16030527368E+02  0.31971368018E+02 -0.10001500154E+04  0.10007892882E+04  0.00000000000E+00 0. -1.
          1    1    1    2  501    0  0.63277927469E+01 -0.22764641327E+02 -0.64127531482E+02  0.68341862353E+02  0.00000000000E+00 0. -1.
<mgrwt>
<rscale>  1 0.83630149E+02</rscale>
<asrwt>0</asrwt>
<pdfrwt beam="1">  1       21 0.56480284E-03 0.83630149E+02</pdfrwt>
<pdfrwt beam="2">  1        2 0.18217874E+00 0.83630149E+02</pdfrwt>
<totfact> 0.22555022E+06</totfact>
</mgrwt>
</event>
<event>
 6    2  0.8544106E+000  0.1124008E+03  0.7546771E-02  0.1256187E+00
          2   -1    0    0  502    0 -0.00000000000E+00  0.00000000000E+00  0.12016137187E+04  0.12016137187E+04  0.00000000000E+00 0. -1.
         21   -1    0    0  501  502  0.00000000000E+00 -0.00000000000E+00 -0.72879097046E+02  0.72879097046E+02  0.00000000000E+00 0. -1.
         24    2    1    2    0    0  0.45224003116E+02  0.64459297143E+02  0.11768558799E+04  0.11822113607E+04  0.80210523087E+02 0.  0.
        -13    1    3    3    0    0  0.47746395386E+02  0.63575386982E+00  0.43595033146E+03  0.43855765180E+03  0.00000000000E+00 0.  1.
         14    1    3    3    0    0 -0.25223922706E+01  0.63823543273E+02  0.74090554840E+03  0.74365370892E+03  0.00000000000E+00 0. -1.
          1    1    1    2  501    0 -0.45224003116E+02 -0.64459297143E+02 -0.48121258220E+02  0.92281455010E+02  0.00000000000E+00 0. -1.
<mgrwt>
<rscale>  1 0.11240080E+03</rscale>
<asrwt>0</asrwt>
<pdfrwt beam="1">  1       21 0.11212170E-01 0.11240080E+03</pdfrwt>
<pdfrwt beam="2">  1        2 0.18486363E+00 0.11240080E+03</pdfrwt>
<totfact> 0.17271162E+04</totfact>
</mgrwt>
</event>
<event>
 6    2  0.8544106E+000  0.8522320E+02  0.7546771E-02  0.1314850E+00
          2   -1    0    0  502    0 -0.00000000000E+00  0.00000000000E+00  0.18405562112E+04  0.18405562112E+04  0.00000000000E+00 0. -1.
         21   -1    0    0  501  502  0.00000000000E+00 -0.00000000000E+00 -0.39376768492E+01  0.39376768492E+01  0.00000000000E+00 0.  1.
         24    2    1    2    0    0  0.67712786126E+01 -0.22615867601E+02  0.17919077328E+04  0.17939331972E+04  0.81888128453E+02 0.  0.
        -11    1    3    3    0    0  0.36831165401E+02 -0.31158921538E+02  0.74574997309E+03  0.74730879527E+03  0.00000000000E+00 0.  1.
         12    1    3    3    0    0 -0.30059886788E+02  0.85430539368E+01  0.10461577597E+04  0.10466244019E+04  0.00000000000E+00 0. -1.
          1    1    1    2  501    0 -0.67712786126E+01  0.22615867601E+02  0.44710801620E+02  0.50560690886E+02  0.00000000000E+00 0. -1.
<mgrwt>
<rscale>  1 0.85223197E+02</rscale>
<asrwt>0</asrwt>
<pdfrwt beam="1">  1       21 0.60579791E-03 0.85223197E+02</pdfrwt>
<pdfrwt beam="2">  1        2 0.28316181E+00 0.85223197E+02</pdfrwt>
<totfact> 0.93453583E+05</totfact>
</mgrwt>
</event>
<event>
 6    2  0.8544106E+000  0.8688262E+02  0.7546771E-02  0.1310581E+00
         21   -1    0    0  501  502  0.00000000000E+00  0.00000000000E+00  0.40226433357E+03  0.40226433357E+03  0.00000000000E+00 0. -1.
          2   -1    0    0  502    0 -0.00000000000E+00 -0.00000000000E+00 -0.16856728434E+02  0.16856728434E+02  0.00000000000E+00 0. -1.
         24    2    1    2    0    0  0.32025480249E+02 -0.40088822371E+01  0.10245648453E+03  0.13433510874E+03  0.80665281856E+02 0.  0.
        -11    1    3    3    0    0 -0.15182785182E+02  0.25110762513E+02  0.22286784461E+02  0.36847905252E+02  0.00000000000E+00 0.  1.
         12    1    3    3    0    0  0.47208265431E+02 -0.29119644750E+02  0.80169700067E+02  0.97487203489E+02  0.00000000000E+00 0. -1.
          1    1    1    2  501    0 -0.32025480249E+02  0.40088822371E+01  0.28295112060E+03  0.28478595326E+03  0.00000000000E+00 0. -1.
<mgrwt>
<rscale>  1 0.86882623E+02</rscale>
<asrwt>0</asrwt>
<pdfrwt beam="1">  1       21 0.61886813E-01 0.86882623E+02</pdfrwt>
<pdfrwt beam="2">  1        2 0.25933431E-02 0.86882623E+02</pdfrwt>
<totfact> 0.10664281E+05</totfact>
</mgrwt>
</event>
<event>
 6    2  0.8544106E+000  0.8448602E+02  0.7546771E-02  0.1316782E+00
         21   -1    0    0  501  502  0.00000000000E+00  0.00000000000E+00  0.19073154986E+01  0.19073154986E+01  0.00000000000E+00 0.  1.
          2   -1    0    0  502    0 -0.00000000000E+00 -0.00000000000E+00 -0.17804157755E+04  0.17804157755E+04  0.00000000000E+00 0. -1.
         24    2    1    2    0    0 -0.64877664493E+01 -0.25626350303E+02 -0.10736037534E+04  0.10769228881E+04  0.80243918956E+02 0.  0.
        -13    1    3    3    0    0 -0.30300644808E+02 -0.43629349981E+02 -0.77955645174E+03  0.78136413451E+03  0.00000000000E+00 0.  1.
         14    1    3    3    0    0  0.23812878358E+02  0.18002999678E+02 -0.29404730171E+03  0.29555875357E+03  0.00000000000E+00 0. -1.
          1    1    1    2  501    0  0.64877664493E+01  0.25626350303E+02 -0.70490470657E+03  0.70540020293E+03  0.00000000000E+00 0. -1.
<mgrwt>
<rscale>  1 0.84486019E+02</rscale>
<asrwt>0</asrwt>
<pdfrwt beam="1">  1       21 0.29343284E-03 0.84486019E+02</pdfrwt>
<pdfrwt beam="2">  1        2 0.27391041E+00 0.84486019E+02</pdfrwt>
<totfact> 0.30201639E+06</totfact>
</mgrwt>
</event>
<event>
 6    2  0.8544106E+000  0.8967403E+02  0.7546771E-02  0.1303643E+00
         21   -1    0    0  501  502  0.00000000000E+00  0.00000000000E+00  0.17159268561E+01  0.17159268561E+01  0.00000000000E+00 0. -1.
          2   -1    0    0  502    0 -0.00000000000E+00 -0.00000000000E+00 -0.24502258099E+04  0.24502258099E+04  0.00000000000E+00 0. -1.
         24    2    1    2    0    0 -0.23824829279E+02 -0.27820873744E+02 -0.19657448277E+04  0.19677891553E+04  0.81852357522E+02 0.  0.
        -13    1    3    3    0    0  0.12004574637E+02 -0.66705732775E+00 -0.46861843387E+02  0.48379614957E+02  0.00000000000E+00 0.  1.
         14    1    3    3    0    0 -0.35829403916E+02 -0.27153816417E+02 -0.19188829843E+04  0.19194095403E+04  0.00000000000E+00 0. -1.
          1    1    1    2  501    0  0.23824829279E+02  0.27820873744E+02 -0.48276505535E+03  0.48415258150E+03  0.00000000000E+00 0. -1.
<mgrwt>
<rscale>  1 0.89674032E+02</rscale>
<asrwt>0</asrwt>
<pdfrwt beam="1">  1       21 0.26398853E-03 0.89674032E+02</pdfrwt>
<pdfrwt beam="2">  1        2 0.37695813E+00 0.89674032E+02</pdfrwt>
<totfact> 0.16280439E+06</totfact>
</mgrwt>
</event>
<event>
 6    2  0.8544106E+000  0.1368879E+03  0.7546771E-02  0.1217579E+00
         -1   -1    0    0    0  501 -0.00000000000E+00  0.00000000000E+00  0.85075373302E+03  0.85075373302E+03  0.00000000000E+00 0.  1.
         21   -1    0    0  501  502  0.00000000000E+00 -0.00000000000E+00 -0.18083826492E+02  0.18083826492E+02  0.00000000000E+00 0. -1.
         24    2    1    2    0    0  0.13415272123E+02 -0.11026919004E+03  0.44727105206E+03  0.46774961302E+03  0.79994016471E+02 0.  0.
        -11    1    3    3    0    0  0.12185662417E+02  0.45828614861E+00  0.15048611233E+03  0.15097937077E+03  0.00000000000E+00 0.  1.
         12    1    3    3    0    0  0.12296097060E+01 -0.11072747618E+03  0.29678493973E+03  0.31677024225E+03  0.00000000000E+00 0. -1.
         -2    1    1    2    0  502 -0.13415272123E+02  0.11026919004E+03  0.38539885447E+03  0.40108794650E+03  0.00000000000E+00 0.  1.
<mgrwt>
<rscale>  1 0.13688793E+03</rscale>
<asrwt>0</asrwt>
<pdfrwt beam="1">  1       21 0.27821278E-02 0.13688793E+03</pdfrwt>
<pdfrwt beam="2">  1       -1 0.13088516E+00 0.13688793E+03</pdfrwt>
<totfact> 0.36023310E+04</totfact>
</mgrwt>
</event>
<event>
 6    2  0.8544106E+000  0.8405739E+02  0.7546771E-02  0.1317916E+00
          2   -1    0    0  502    0 -0.00000000000E+00  0.00000000000E+00  0.12931043826E+04  0.12931043826E+04  0.00000000000E+00 0. -1.
         21   -1    0    0  501  502  0.00000000000E+00 -0.00000000000E+00 -0.28587756709E+01  0.28587756709E+01  0.00000000000E+00 0. -1.
         24    2    1    2    0    0  0.70784667577E+01  0.21281523619E+02  0.12011659688E+04  0.12041035378E+04  0.81010105940E+02 0.  0.
        -13    1    3    3    0    0 -0.26246557696E+02 -0.18530545886E+02  0.46812716539E+03  0.46922841548E+03  0.00000000000E+00 0.  1.
         14    1    3    3    0    0  0.33325024454E+02  0.39812069505E+02  0.73303880337E+03  0.73487512230E+03  0.00000000000E+00 0. -1.
          1    1    1    2  501    0 -0.70784667577E+01 -0.21281523619E+02  0.89079638180E+02  0.91859620495E+02  0.00000000000E+00 0. -1.
<mgrwt>
<rscale>  1 0.84057392E+02</rscale>
<asrwt>0</asrwt>
<pdfrwt beam="1">  1       21 0.43981267E-03 0.84057392E+02</pdfrwt>
<pdfrwt beam="2">  1        2 0.19893867E+00 0.84057392E+02</pdfrwt>
<totfact> 0.28928523E+06</totfact>
</mgrwt>
</event>
<event>
 6    2  0.8683358E+000  0.1335828E+03  0.7546771E-02  0.1222234E+00
         -3   -1    0    0    0  501 -0.00000000000E+00  0.00000000000E+00  0.14555757383E+03  0.14555757383E+03  0.00000000000E+00 0.  1.
         21   -1    0    0  501  502  0.00000000000E+00 -0.00000000000E+00 -0.20152988938E+03  0.20152988938E+03  0.00000000000E+00 0. -1.
         24    2    1    2    0    0  0.93846154239E+02 -0.52307591735E+02 -0.15244509481E+03  0.20269154236E+03  0.79379906752E+02 0.  0.
        -11    1    3    3    0    0  0.46509575966E+01  0.14003133017E+02 -0.93249058048E+00  0.14784744825E+02  0.00000000000E+00 0.  1.
         12    1    3    3    0    0  0.89195196642E+02 -0.66310724752E+02 -0.15151260423E+03  0.18790679754E+03  0.00000000000E+00 0. -1.
         -4    1    1    2    0  502 -0.93846154239E+02  0.52307591735E+02  0.96472779261E+02  0.14439592085E+03  0.00000000000E+00 0.  1.
<mgrwt>
<rscale>  1 0.13358276E+03</rscale>
<asrwt>0</asrwt>
<pdfrwt beam="1">  1       21 0.31004598E-01 0.13358276E+03</pdfrwt>
<pdfrwt beam="2">  1       -3 0.22393473E-01 0.13358276E+03</pdfrwt>
<totfact> 0.88975095E+03</totfact>
</mgrwt>
</event>
<event>
 6    2  0.8544106E+000  0.8370353E+02  0.7546771E-02  0.1318858E+00
         21   -1    0    0  501  502  0.00000000000E+00  0.00000000000E+00  0.10582683658E+02  0.10582683658E+02  0.00000000000E+00 0. -1.
          2   -1    0    0  502    0 -0.00000000000E+00 -0.00000000000E+00 -0.17774663758E+04  0.17774663758E+04  0.00000000000E+00 0. -1.
         24    2    1    2    0    0 -0.13690802144E+02  0.21394744289E+02 -0.17596488316E+04  0.17616385245E+04  0.79756552076E+02 0.  0.
        -11    1    3    3    0    0  0.45457194031E+01 -0.19046407802E+02 -0.13792817867E+03  0.13931120445E+03  0.00000000000E+00 0.  1.
         12    1    3    3    0    0 -0.18236521547E+02  0.40441152091E+02 -0.16217206529E+04  0.16223273201E+04  0.00000000000E+00 0. -1.
          1    1    1    2  501    0  0.13690802144E+02 -0.21394744289E+02 -0.72348605733E+01  0.26410534906E+02  0.00000000000E+00 0. -1.
<mgrwt>
<rscale>  1 0.83703529E+02</rscale>
<asrwt>0</asrwt>
<pdfrwt beam="1">  1       21 0.16281045E-02 0.83703529E+02</pdfrwt>
<pdfrwt beam="2">  1        2 0.27345648E+00 0.83703529E+02</pdfrwt>
<totfact> 0.21468320E+05</totfact>
</mgrwt>
</event>
<event>
 6    2  0.8544106E+000  0.8308743E+02  0.7546771E-02  0.1320511E+00
          2   -1    0    0  502    0 -0.00000000000E+00  0.00000000000E+00  0.74270741400E+01  0.74270741400E+01  0.00000000000E+00 0. -1.
         21   -1    0    0  501  502  0.00000000000E+00 -0.00000000000E+00 -0.49953070595E+03  0.49953070595E+03  0.00000000000E+00 0.  1.
         24    2    1    2    0    0 -0.19021549088E+02 -0.65848260837E+01 -0.23853604609E+03  0.25259249199E+03  0.80612297197E+02 0.  0.
        -11    1    3    3    0    0 -0.20526071859E+02 -0.21566763194E+02 -0.23531944719E+03  0.23719546186E+03  0.00000000000E+00 0.  1.
         12    1    3    3    0    0  0.15045227716E+01  0.14981937110E+02 -0.32165989033E+01  0.15397030131E+02  0.00000000000E+00 0. -1.
          1    1    1    2  501    0  0.19021549088E+02  0.65848260837E+01 -0.25356758572E+03  0.25436528810E+03  0.00000000000E+00 0. -1.
<mgrwt>
<rscale>  1 0.83087434E+02</rscale>
<asrwt>0</asrwt>
<pdfrwt beam="1">  1       21 0.76850935E-01 0.83087434E+02</pdfrwt>
<pdfrwt beam="2">  1        2 0.11426259E-02 0.83087434E+02</pdfrwt>
<totfact> 0.20198518E+05</totfact>
</mgrwt>
</event>
<event>
 6    2  0.8544106E+000  0.1056015E+03  0.7546771E-02  0.1268939E+00
          2   -1    0    0  502    0 -0.00000000000E+00  0.00000000000E+00  0.66838512804E+03  0.66838512804E+03  0.00000000000E+00 0. -1.
         21   -1    0    0  501  502  0.00000000000E+00 -0.00000000000E+00 -0.15381181837E+02  0.15381181837E+02  0.00000000000E+00 0. -1.
         24    2    1    2    0    0 -0.56978945532E+02  0.28967062224E+02  0.56622088514E+03  0.57598416564E+03  0.84059368171E+02 0.  0.
        -11    1    3    3    0    0 -0.51930415303E+02  0.42932149782E+00  0.14961944057E+03  0.15837591151E+03  0.00000000000E+00 0.  1.
         12    1    3    3    0    0 -0.50485302290E+01  0.28537740726E+02  0.41660144457E+03  0.41760825413E+03  0.00000000000E+00 0. -1.
          1    1    1    2  501    0  0.56978945532E+02 -0.28967062224E+02  0.86783061063E+02  0.10778214423E+03  0.00000000000E+00 0. -1.
<mgrwt>
<rscale>  1 0.10560146E+03</rscale>
<asrwt>0</asrwt>
<pdfrwt beam="1">  1       21 0.23663362E-02 0.10560146E+03</pdfrwt>
<pdfrwt beam="2">  1        2 0.10282846E+00 0.10560146E+03</pdfrwt>
<totfact> 0.50573349E+05</totfact>
</mgrwt>
</event>
<event>
 6    2  0.8544106E+000  0.8570274E+02  0.7546771E-02  0.1313605E+00
         21   -1    0    0  501  502  0.00000000000E+00  0.00000000000E+00  0.46148752532E+01  0.46148752532E+01  0.00000000000E+00 0.  1.
          2   -1    0    0  502    0 -0.00000000000E+00 -0.00000000000E+00 -0.68178849181E+03  0.68178849181E+03  0.00000000000E+00 0. -1.
         24    2    1    2    0    0 -0.18051283392E+02 -0.16150029230E+02 -0.46306132590E+03  0.47092542089E+03  0.82208808658E+02 0.  0.
        -13    1    3    3    0    0 -0.19826642466E+02 -0.92634880477E+01 -0.26772025288E+02  0.34578162188E+02  0.00000000000E+00 0.  1.
         14    1    3    3    0    0  0.17753590734E+01 -0.68865411818E+01 -0.43628930061E+03  0.43634725870E+03  0.00000000000E+00 0. -1.
          1    1    1    2  501    0  0.18051283392E+02  0.16150029230E+02 -0.21411229065E+03  0.21547794617E+03  0.00000000000E+00 0. -1.
<mgrwt>
<rscale>  1 0.85702745E+02</rscale>
<asrwt>0</asrwt>
<pdfrwt beam="1">  1       21 0.70998025E-03 0.85702745E+02</pdfrwt>
<pdfrwt beam="2">  1        2 0.10489062E+00 0.85702745E+02</pdfrwt>
<totfact> 0.32427525E+06</totfact>
</mgrwt>
</event>
<event>
 6    2  0.8544106E+000  0.9228564E+02  0.7546771E-02  0.1297409E+00
          2   -1    0    0  502    0 -0.00000000000E+00  0.00000000000E+00  0.34106527916E+04  0.34106527916E+04  0.00000000000E+00 0. -1.
         21   -1    0    0  501  502  0.00000000000E+00 -0.00000000000E+00 -0.25037500168E+01  0.25037500168E+01  0.00000000000E+00 0. -1.
         24    2    1    2    0    0 -0.41859916333E+02  0.18358766773E+02  0.31233268015E+04  0.31246898965E+04  0.80170713212E+02 0.  0.
        -13    1    3    3    0    0  0.10283273648E+02 -0.23346411592E+02  0.84919615153E+03  0.84957925141E+03  0.00000000000E+00 0.  1.
         14    1    3    3    0    0 -0.52143189980E+02  0.41705178365E+02  0.22741306500E+04  0.22751106451E+04  0.00000000000E+00 0. -1.
          1    1    1    2  501    0  0.41859916333E+02 -0.18358766773E+02  0.28482224007E+03  0.28846664513E+03  0.00000000000E+00 0. -1.
<mgrwt>
<rscale>  1 0.92285644E+02</rscale>
<asrwt>0</asrwt>
<pdfrwt beam="1">  1       21 0.38519504E-03 0.92285644E+02</pdfrwt>
<pdfrwt beam="2">  1        2 0.52471209E+00 0.92285644E+02</pdfrwt>
<totfact> 0.26311206E+05</totfact>
</mgrwt>
</event>
<event>
 6    2  0.8544106E+000  0.1233378E+03  0.7546771E-02  0.1237690E+00
          2   -1    0    0  502    0 -0.00000000000E+00  0.00000000000E+00  0.14171987968E+04  0.14171987968E+04  0.00000000000E+00 0. -1.
         21   -1    0    0  501  502  0.00000000000E+00 -0.00000000000E+00 -0.88911585759E+01  0.88911585759E+01  0.00000000000E+00 0. -1.
         24    2    1    2    0    0 -0.42118441454E+01  0.92042840121E+02  0.59985052431E+03  0.61239927146E+03  0.81991414942E+02 0.  0.
        -11    1    3    3    0    0 -0.16536635570E+02  0.42793791182E+01  0.22308478889E+02  0.28097003967E+02  0.00000000000E+00 0.  1.
         12    1    3    3    0    0  0.12324791424E+02  0.87763461003E+02  0.57754204542E+03  0.58430226749E+03  0.00000000000E+00 0. -1.
          1    1    1    2  501    0  0.42118441454E+01 -0.92042840121E+02  0.80845711388E+03  0.81369068388E+03  0.00000000000E+00 0. -1.
<mgrwt>
<rscale>  1 0.12333781E+03</rscale>
<asrwt>0</asrwt>
<pdfrwt beam="1">  1       21 0.13678717E-02 0.12333781E+03</pdfrwt>
<pdfrwt beam="2">  1        2 0.21803040E+00 0.12333781E+03</pdfrwt>
<totfact> 0.43666898E+05</totfact>
</mgrwt>
</event>
<event>
 6    2  0.8544106E+000  0.1066662E+03  0.7546771E-02  0.1266871E+00
         21   -1    0    0  501  502  0.00000000000E+00  0.00000000000E+00  0.92528710983E+01  0.92528710983E+01  0.00000000000E+00 0.  1.
          2   -1    0    0  502    0 -0.00000000000E+00 -0.00000000000E+00 -0.53841345253E+03  0.53841345253E+03  0.00000000000E+00 0. -1.
         24    2    1    2    0    0  0.27841504406E+02 -0.11649716216E+02 -0.46003926976E+03  0.47224337630E+03  0.10230743613E+03 0.  0.
        -13    1    3    3    0    0  0.57487965179E+02  0.15600264647E-01 -0.15111354175E+03  0.16167921600E+03  0.00000000000E+00 0.  1.
         14    1    3    3    0    0 -0.29646460773E+02 -0.11665316481E+02 -0.30892572800E+03  0.31056416031E+03  0.00000000000E+00 0. -1.
          1    1    1    2  501    0 -0.27841504406E+02  0.11649716216E+02 -0.69121311671E+02  0.75422947321E+02  0.00000000000E+00 0. -1.
<mgrwt>
<rscale>  1 0.10666619E+03</rscale>
<asrwt>0</asrwt>
<pdfrwt beam="1">  1       21 0.14235194E-02 0.10666619E+03</pdfrwt>
<pdfrwt beam="2">  1        2 0.82832796E-01 0.10666619E+03</pdfrwt>
<totfact> 0.14574383E+06</totfact>
</mgrwt>
</event>
<event>
 6    2  0.8544106E+000  0.8282095E+02  0.7546771E-02  0.1321231E+00
          2   -1    0    0  502    0 -0.00000000000E+00  0.00000000000E+00  0.21787590745E+04  0.21787590745E+04  0.00000000000E+00 0. -1.
         21   -1    0    0  501  502  0.00000000000E+00 -0.00000000000E+00 -0.15536133411E+01  0.15536133411E+01  0.00000000000E+00 0.  1.
         24    2    1    2    0    0  0.11106028941E+02 -0.19512392138E+02  0.12025229284E+04  0.12053716040E+04  0.79719715500E+02 0.  0.
        -13    1    3    3    0    0 -0.26847179045E+02 -0.30866802109E+02  0.46945629985E+03  0.47123534244E+03  0.00000000000E+00 0.  1.
         14    1    3    3    0    0  0.37953207985E+02  0.11354409971E+02  0.73306662860E+03  0.73413626159E+03  0.00000000000E+00 0. -1.
          1    1    1    2  501    0 -0.11106028941E+02  0.19512392138E+02  0.97468253274E+03  0.97494108384E+03  0.00000000000E+00 0. -1.
<mgrwt>
<rscale>  1 0.82820954E+02</rscale>
<asrwt>0</asrwt>
<pdfrwt beam="1">  1       21 0.23901918E-03 0.82820954E+02</pdfrwt>
<pdfrwt beam="2">  1        2 0.33519126E+00 0.82820954E+02</pdfrwt>
<totfact> 0.25934988E+06</totfact>
</mgrwt>
</event>
<event>
 6    2  0.8544106E+000  0.1100397E+03  0.7546771E-02  0.1260496E+00
         21   -1    0    0  501  502  0.00000000000E+00  0.00000000000E+00  0.15355618135E+02  0.15355618135E+02  0.00000000000E+00 0. -1.
         -3   -1    0    0    0  501 -0.00000000000E+00 -0.00000000000E+00 -0.56463861142E+03  0.56463861142E+03  0.00000000000E+00 0.  1.
         24    2    1    2    0    0  0.72747421364E+02  0.11864636905E+01 -0.27430774648E+03  0.29555621984E+03  0.82553887250E+02 0.  0.
        -13    1    3    3    0    0 -0.28411702131E+01 -0.58919808898E+01 -0.14830614123E+03  0.14845032574E+03  0.00000000000E+00 0.  1.
         14    1    3    3    0    0  0.75588591577E+02  0.70784445803E+01 -0.12600160525E+03  0.14710589410E+03  0.00000000000E+00 0. -1.
         -4    1    1    2    0  502 -0.72747421364E+02 -0.11864636905E+01 -0.27497524681E+03  0.28443800971E+03  0.00000000000E+00 0.  1.
<mgrwt>
<rscale>  1 0.11003972E+03</rscale>
<asrwt>0</asrwt>
<pdfrwt beam="1">  1       21 0.23624029E-02 0.11003972E+03</pdfrwt>
<pdfrwt beam="2">  1       -3 0.86867474E-01 0.11003972E+03</pdfrwt>
<totfact> 0.54515267E+04</totfact>
</mgrwt>
</event>
<event>
 6    2  0.8544106E+000  0.8457917E+02  0.7546771E-02  0.1316537E+00
         21   -1    0    0  501  502  0.00000000000E+00  0.00000000000E+00  0.22113517922E+02  0.22113517922E+02  0.00000000000E+00 0.  1.
          2   -1    0    0  502    0 -0.00000000000E+00 -0.00000000000E+00 -0.14666443560E+03  0.14666443560E+03  0.00000000000E+00 0. -1.
         24    2    1    2    0    0 -0.19128952401E+02 -0.21233167981E+02 -0.84325508216E+02  0.11943377647E+03  0.79604468365E+02 0.  0.
        -13    1    3    3    0    0 -0.42794297890E+02  0.97464457448E+01 -0.56467569925E+02  0.71518749918E+02  0.00000000000E+00 0.  1.
         14    1    3    3    0    0  0.23665345489E+02 -0.30979613726E+02 -0.27857938290E+02  0.47915026552E+02  0.00000000000E+00 0. -1.
          1    1    1    2  501    0  0.19128952401E+02  0.21233167981E+02 -0.40225409458E+02  0.49344177048E+02  0.00000000000E+00 0. -1.
<mgrwt>
<rscale>  1 0.84579168E+02</rscale>
<asrwt>0</asrwt>
<pdfrwt beam="1">  1       21 0.34020798E-02 0.84579168E+02</pdfrwt>
<pdfrwt beam="2">  1        2 0.22563758E-01 0.84579168E+02</pdfrwt>
<totfact> 0.13981093E+06</totfact>
</mgrwt>
</event>
<event>
 6    2  0.8544106E+000  0.9086680E+02  0.7546771E-02  0.1300766E+00
          4   -1    0    0  502    0 -0.00000000000E+00  0.00000000000E+00  0.10072992115E+03  0.10072992115E+03  0.00000000000E+00 0. -1.
         21   -1    0    0  501  502  0.00000000000E+00 -0.00000000000E+00 -0.54211654921E+02  0.54211654921E+02  0.00000000000E+00 0. -1.
         24    2    1    2    0    0 -0.17633772507E+02 -0.39236175655E+02  0.61124930820E+02  0.10951270789E+03  0.80039668975E+02 0.  0.
        -11    1    3    3    0    0 -0.46393351992E+02 -0.97640108682E+01  0.20450446294E+02  0.51632351979E+02  0.00000000000E+00 0.  1.
         12    1    3    3    0    0  0.28759579485E+02 -0.29472164787E+02  0.40674484527E+02  0.57880355915E+02  0.00000000000E+00 0. -1.
          3    1    1    2  501    0  0.17633772507E+02  0.39236175655E+02 -0.14606664595E+02  0.45428868173E+02  0.00000000000E+00 0. -1.
<mgrwt>
<rscale>  1 0.90866804E+02</rscale>
<asrwt>0</asrwt>
<pdfrwt beam="1">  1       21 0.83402546E-02 0.90866804E+02</pdfrwt>
<pdfrwt beam="2">  1        4 0.15496911E-01 0.90866804E+02</pdfrwt>
<totfact> 0.14939721E+05</totfact>
</mgrwt>
</event>
<event>
 6    2  0.8544106E+000  0.8431234E+02  0.7546771E-02  0.1317241E+00
          2   -1    0    0  502    0 -0.00000000000E+00  0.00000000000E+00  0.26111698495E+04  0.26111698495E+04  0.00000000000E+00 0. -1.
         21   -1    0    0  501  502  0.00000000000E+00 -0.00000000000E+00 -0.12279631567E+01  0.12279631567E+01  0.00000000000E+00 0. -1.
         24    2    1    2    0    0 -0.16351324203E+02 -0.21719222042E+02  0.17554286292E+04  0.17574522020E+04  0.79809021885E+02 0.  0.
        -13    1    3    3    0    0  0.23861939947E+02  0.21255796622E+00  0.21110508618E+03  0.21244951111E+03  0.00000000000E+00 0.  1.
         14    1    3    3    0    0 -0.40213264149E+02 -0.21931780008E+02  0.15443235430E+04  0.15450026909E+04  0.00000000000E+00 0. -1.
          1    1    1    2  501    0  0.16351324203E+02  0.21719222042E+02  0.85451325722E+03  0.85494561066E+03  0.00000000000E+00 0. -1.
<mgrwt>
<rscale>  1 0.84312338E+02</rscale>
<asrwt>0</asrwt>
<pdfrwt beam="1">  1       21 0.18891950E-03 0.84312338E+02</pdfrwt>
<pdfrwt beam="2">  1        2 0.40171399E+00 0.84312338E+02</pdfrwt>
<totfact> 0.22069372E+06</totfact>
</mgrwt>
</event>
<event>
 6    2  0.8544106E+000  0.8472943E+02  0.7546771E-02  0.1316142E+00
         21   -1    0    0  501  502  0.00000000000E+00  0.00000000000E+00  0.19540850213E+01  0.19540850213E+01  0.00000000000E+00 0. -1.
          2   -1    0    0  502    0 -0.00000000000E+00 -0.00000000000E+00 -0.16515272698E+04  0.16515272698E+04  0.00000000000E+00 0. -1.
         24    2    1    2    0    0  0.27465100693E+02  0.68052786121E+01 -0.11591533780E+04  0.11622459424E+04  0.79865093975E+02 0.  0.
        -11    1    3    3    0    0  0.25276679845E+02 -0.15310363842E+02 -0.15192875695E+03  0.15477617702E+03  0.00000000000E+00 0.  1.
         12    1    3    3    0    0  0.21884208481E+01  0.22115642454E+02 -0.10072246211E+04  0.10074697654E+04  0.00000000000E+00 0. -1.
          1    1    1    2  501    0 -0.27465100693E+02 -0.68052786121E+01 -0.49041980679E+03  0.49123541247E+03  0.00000000000E+00 0. -1.
<mgrwt>
<rscale>  1 0.84729433E+02</rscale>
<asrwt>0</asrwt>
<pdfrwt beam="1">  1       21 0.30062803E-03 0.84729433E+02</pdfrwt>
<pdfrwt beam="2">  1        2 0.25408149E+00 0.84729433E+02</pdfrwt>
<totfact> 0.33790503E+06</totfact>
</mgrwt>
</event>
<event>
 6    2  0.8544106E+000  0.8789299E+02  0.7546771E-02  0.1308036E+00
          2   -1    0    0  502    0 -0.00000000000E+00  0.00000000000E+00  0.18040456467E+03  0.18040456467E+03  0.00000000000E+00 0. -1.
         21   -1    0    0  501  502  0.00000000000E+00 -0.00000000000E+00 -0.97257841357E+02  0.97257841357E+02  0.00000000000E+00 0. -1.
         24    2    1    2    0    0 -0.96269750400E+01  0.31555196845E+02  0.16635821386E+03  0.18814949491E+03  0.81466361298E+02 0.  0.
        -13    1    3    3    0    0 -0.17901077880E+02 -0.22592253403E+02  0.32073925184E+02  0.43123023778E+02  0.00000000000E+00 0.  1.
         14    1    3    3    0    0  0.82741028400E+01  0.54147450248E+02  0.13428428867E+03  0.14502647114E+03  0.00000000000E+00 0. -1.
          1    1    1    2  501    0  0.96269750400E+01 -0.31555196845E+02 -0.83211490546E+02  0.89512911109E+02  0.00000000000E+00 0. -1.
<mgrwt>
<rscale>  1 0.87892987E+02</rscale>
<asrwt>0</asrwt>
<pdfrwt beam="1">  1       21 0.14962745E-01 0.87892987E+02</pdfrwt>
<pdfrwt beam="2">  1        2 0.27754548E-01 0.87892987E+02</pdfrwt>
<totfact> 0.90453386E+04</totfact>
</mgrwt>
</event>
<event>
 6    2  0.8544106E+000  0.9216756E+02  0.7546771E-02  0.1297686E+00
         -3   -1    0    0    0  501 -0.00000000000E+00  0.00000000000E+00  0.49736504114E+03  0.49736504114E+03  0.00000000000E+00 0.  1.
         21   -1    0    0  501  502  0.00000000000E+00 -0.00000000000E+00 -0.20847049839E+02  0.20847049839E+02  0.00000000000E+00 0.  1.
         24    2    1    2    0    0  0.40445963967E+02 -0.59286280056E+02  0.41042513531E+03  0.42064670461E+03  0.57828361561E+02 0.  0.
        -13    1    3    3    0    0  0.53585682081E+02 -0.43080432502E+02  0.26693228976E+03  0.27564505493E+03  0.00000000000E+00 0.  1.
         14    1    3    3    0    0 -0.13139718114E+02 -0.16205847554E+02  0.14349284554E+03  0.14500164968E+03  0.00000000000E+00 0. -1.
         -4    1    1    2    0  502 -0.40445963967E+02  0.59286280056E+02  0.66092855992E+02  0.97565386369E+02  0.00000000000E+00 0.  1.
<mgrwt>
<rscale>  1 0.92167556E+02</rscale>
<asrwt>0</asrwt>
<pdfrwt beam="1">  1       21 0.32072388E-02 0.92167556E+02</pdfrwt>
<pdfrwt beam="2">  1       -3 0.76517690E-01 0.92167556E+02</pdfrwt>
<totfact> 0.42765573E+04</totfact>
</mgrwt>
</event>
<event>
 6    2  0.8544106E+000  0.8381167E+02  0.7546771E-02  0.1318570E+00
          2   -1    0    0  502    0 -0.00000000000E+00  0.00000000000E+00  0.42696458299E+04  0.42696458299E+04  0.00000000000E+00 0. -1.
         21   -1    0    0  501  502  0.00000000000E+00 -0.00000000000E+00 -0.73520594496E+00  0.73520594496E+00  0.00000000000E+00 0.  1.
         24    2    1    2    0    0  0.70863910127E+01 -0.26112826741E+02  0.34712238640E+04  0.34722355205E+04  0.79324013764E+02 0.  0.
        -13    1    3    3    0    0  0.10897337681E+02 -0.12808161921E+02  0.14337218511E+03  0.14435506379E+03  0.00000000000E+00 0.  1.
         14    1    3    3    0    0 -0.38109466680E+01 -0.13304664820E+02  0.33278516789E+04  0.33278804567E+04  0.00000000000E+00 0. -1.
          1    1    1    2  501    0 -0.70863910127E+01  0.26112826741E+02  0.79768676001E+03  0.79814551540E+03  0.00000000000E+00 0. -1.
<mgrwt>
<rscale>  1 0.83811669E+02</rscale>
<asrwt>0</asrwt>
<pdfrwt beam="1">  1       21 0.11311203E-03 0.83811669E+02</pdfrwt>
<pdfrwt beam="2">  1        2 0.65684873E+00 0.83811669E+02</pdfrwt>
<totfact> 0.40891167E+05</totfact>
</mgrwt>
</event>
<event>
 6    2  0.8544106E+000  0.8391117E+02  0.7546771E-02  0.1318305E+00
         21   -1    0    0  501  502  0.00000000000E+00  0.00000000000E+00  0.27362279326E+01  0.27362279326E+01  0.00000000000E+00 0. -1.
         -1   -1    0    0    0  501 -0.00000000000E+00 -0.00000000000E+00 -0.11172789488E+04  0.11172789488E+04  0.00000000000E+00 0.  1.
         24    2    1    2    0    0 -0.17000082366E+02 -0.12623059242E+02 -0.10013051439E+04  0.10048149456E+04  0.81195684557E+02 0.  0.
        -13    1    3    3    0    0 -0.51253591932E+01 -0.20442669691E+01 -0.96685928996E+03  0.96687503583E+03  0.00000000000E+00 0.  1.
         14    1    3    3    0    0 -0.11874723173E+02 -0.10578792273E+02 -0.34445853953E+02  0.37939909738E+02  0.00000000000E+00 0. -1.
         -2    1    1    2    0  502  0.17000082366E+02  0.12623059242E+02 -0.11323757692E+03  0.11520023113E+03  0.00000000000E+00 0.  1.
<mgrwt>
<rscale>  1 0.83911165E+02</rscale>
<asrwt>0</asrwt>
<pdfrwt beam="1">  1       21 0.42095766E-03 0.83911165E+02</pdfrwt>
<pdfrwt beam="2">  1       -1 0.17188927E+00 0.83911165E+02</pdfrwt>
<totfact> 0.33971255E+05</totfact>
</mgrwt>
</event>
<event>
 6    2  0.8544106E+000  0.8613865E+02  0.7546771E-02  0.1312481E+00
          2   -1    0    0  502    0 -0.00000000000E+00  0.00000000000E+00  0.41350264923E+04  0.41350264923E+04  0.00000000000E+00 0. -1.
         21   -1    0    0  501  502  0.00000000000E+00 -0.00000000000E+00 -0.31396603499E+01  0.31396603499E+01  0.00000000000E+00 0. -1.
         24    2    1    2    0    0  0.18991617850E+02  0.24927371597E+02  0.40429889001E+04  0.40439064174E+04  0.80235970131E+02 0.  0.
        -11    1    3    3    0    0  0.23719908176E+02  0.12465106665E+02  0.40152111904E+03  0.40241424175E+03  0.00000000000E+00 0.  1.
         12    1    3    3    0    0 -0.47282903259E+01  0.12462264932E+02  0.36414677811E+04  0.36414921756E+04  0.00000000000E+00 0. -1.
          1    1    1    2  501    0 -0.18991617850E+02 -0.24927371597E+02  0.88897931845E+02  0.94259735252E+02  0.00000000000E+00 0. -1.
<mgrwt>
<rscale>  1 0.86138646E+02</rscale>
<asrwt>0</asrwt>
<pdfrwt beam="1">  1       21 0.48302798E-03 0.86138646E+02</pdfrwt>
<pdfrwt beam="2">  1        2 0.63615357E+00 0.86138646E+02</pdfrwt>
<totfact> 0.58970159E+04</totfact>
</mgrwt>
</event>
<event>
 6    2  0.8544106E+000  0.1226996E+03  0.7546771E-02  0.1238709E+00
          2   -1    0    0  502    0 -0.00000000000E+00  0.00000000000E+00  0.42059550248E+03  0.42059550248E+03  0.00000000000E+00 0. -1.
         21   -1    0    0  501  502  0.00000000000E+00 -0.00000000000E+00 -0.27465495782E+02  0.27465495782E+02  0.00000000000E+00 0. -1.
         24    2    1    2    0    0 -0.66914689590E+01  0.91912244851E+02  0.23138290786E+03  0.26190310697E+03  0.81009572751E+02 0.  0.
        -13    1    3    3    0    0 -0.17343938449E+02  0.34575326129E+02  0.21893107113E+02  0.44447424187E+02  0.00000000000E+00 0.  1.
         14    1    3    3    0    0  0.10652469490E+02  0.57336918723E+02  0.20948980075E+03  0.21745568278E+03  0.00000000000E+00 0. -1.
          1    1    1    2  501    0  0.66914689590E+01 -0.91912244851E+02  0.16174709884E+03  0.18615789130E+03  0.00000000000E+00 0. -1.
<mgrwt>
<rscale>  1 0.12269958E+03</rscale>
<asrwt>0</asrwt>
<pdfrwt beam="1">  1       21 0.42254612E-02 0.12269958E+03</pdfrwt>
<pdfrwt beam="2">  1        2 0.64706996E-01 0.12269958E+03</pdfrwt>
<totfact> 0.32937186E+05</totfact>
</mgrwt>
</event>
<event>
 6    2  0.8908247E+000  0.8174970E+02  0.7546771E-02  0.1324158E+00
         21   -1    0    0  501  502  0.00000000000E+00  0.00000000000E+00  0.10663168480E+02  0.10663168480E+02  0.00000000000E+00 0. -1.
         -3   -1    0    0    0  501 -0.00000000000E+00 -0.00000000000E+00 -0.25278906855E+03  0.25278906855E+03  0.00000000000E+00 0.  1.
         24    2    1    2    0    0  0.17677891498E+02 -0.99630090843E+01 -0.17181911243E+03  0.19027564388E+03  0.79191185476E+02 0.  0.
        -11    1    3    3    0    0  0.15675209300E+02  0.15523262838E+02 -0.16101878804E+03  0.16252302599E+03  0.00000000000E+00 0.  1.
         12    1    3    3    0    0  0.20026821982E+01 -0.25486271923E+02 -0.10800324396E+02  0.27752617887E+02  0.00000000000E+00 0. -1.
         -4    1    1    2    0  502 -0.17677891498E+02  0.99630090843E+01 -0.70306787637E+02  0.73176593154E+02  0.00000000000E+00 0.  1.
<mgrwt>
<rscale>  1 0.81749699E+02</rscale>
<asrwt>0</asrwt>
<pdfrwt beam="1">  1       21 0.16404876E-02 0.81749699E+02</pdfrwt>
<pdfrwt beam="2">  1       -3 0.38890622E-01 0.81749699E+02</pdfrwt>
<totfact> 0.47993294E+05</totfact>
</mgrwt>
</event>
<event>
 6    2  0.8544106E+000  0.8049907E+02  0.7546771E-02  0.1327641E+00
         21   -1    0    0  501  502  0.00000000000E+00  0.00000000000E+00  0.52598041007E+02  0.52598041007E+02  0.00000000000E+00 0.  1.
          4   -1    0    0  502    0 -0.00000000000E+00 -0.00000000000E+00 -0.84779917317E+02  0.84779917317E+02  0.00000000000E+00 0. -1.
         24    2    1    2    0    0  0.28088821582E+01  0.24438069621E+02 -0.59884029869E+02  0.10033044319E+03  0.76648494647E+02 0.  0.
        -13    1    3    3    0    0 -0.17746935392E+02  0.14000896656E+02  0.11467330502E+02  0.25347159443E+02  0.00000000000E+00 0.  1.
         14    1    3    3    0    0  0.20555817550E+02  0.10437172964E+02 -0.71351360371E+02  0.74983283747E+02  0.00000000000E+00 0. -1.
          3    1    1    2  501    0 -0.28088821582E+01 -0.24438069621E+02  0.27702153559E+02  0.37047515133E+02  0.00000000000E+00 0. -1.
<mgrwt>
<rscale>  1 0.80499073E+02</rscale>
<asrwt>0</asrwt>
<pdfrwt beam="1">  1       21 0.80920064E-02 0.80499073E+02</pdfrwt>
<pdfrwt beam="2">  1        4 0.13043064E-01 0.80499073E+02</pdfrwt>
<totfact> 0.20688447E+05</totfact>
</mgrwt>
</event>
<event>
 6    2  0.8544106E+000  0.8435019E+02  0.7546771E-02  0.1317141E+00
         21   -1    0    0  501  502  0.00000000000E+00  0.00000000000E+00  0.25421919513E+02  0.25421919513E+02  0.00000000000E+00 0. -1.
          4   -1    0    0  502    0 -0.00000000000E+00 -0.00000000000E+00 -0.14722514801E+03  0.14722514801E+03  0.00000000000E+00 0. -1.
         24    2    1    2    0    0 -0.21064103321E+02  0.20935373969E+02 -0.11423064023E+03  0.14199856960E+03  0.78949149895E+02 0.  0.
        -13    1    3    3    0    0  0.56107213466E+01  0.27424858230E+02 -0.38514223984E+01  0.28256618649E+02  0.00000000000E+00 0.  1.
         14    1    3    3    0    0 -0.26674824668E+02 -0.64894842610E+01 -0.11037921783E+03  0.11374195095E+03  0.00000000000E+00 0. -1.
          3    1    1    2  501    0  0.21064103321E+02 -0.20935373969E+02 -0.75725882704E+01  0.30648497925E+02  0.00000000000E+00 0. -1.
<mgrwt>
<rscale>  1 0.84350190E+02</rscale>
<asrwt>0</asrwt>
<pdfrwt beam="1">  1       21 0.39110645E-02 0.84350190E+02</pdfrwt>
<pdfrwt beam="2">  1        4 0.22650023E-01 0.84350190E+02</pdfrwt>
<totfact> 0.26762144E+05</totfact>
</mgrwt>
</event>
<event>
 6    2  0.8544106E+000  0.8595216E+02  0.7546771E-02  0.1312961E+00
         21   -1    0    0  501  502  0.00000000000E+00  0.00000000000E+00  0.35983573584E+01  0.35983573584E+01  0.00000000000E+00 0. -1.
          2   -1    0    0  502    0 -0.00000000000E+00 -0.00000000000E+00 -0.12686002258E+04  0.12686002258E+04  0.00000000000E+00 0. -1.
         24    2    1    2    0    0  0.15264182357E+02  0.39289250739E+02 -0.10183713419E+04  0.10219921542E+04  0.74907494189E+02 0.  0.
        -11    1    3    3    0    0 -0.13800461096E+02 -0.16652931162E+02 -0.19045384251E+03  0.19167795640E+03  0.00000000000E+00 0.  1.
         12    1    3    3    0    0  0.29064643454E+02  0.55942181901E+02 -0.82791749944E+03  0.83031419781E+03  0.00000000000E+00 0. -1.
          1    1    1    2  501    0 -0.15264182357E+02 -0.39289250739E+02 -0.24663052646E+03  0.25020642891E+03  0.00000000000E+00 0. -1.
<mgrwt>
<rscale>  1 0.85952156E+02</rscale>
<asrwt>0</asrwt>
<pdfrwt beam="1">  1       21 0.55359340E-03 0.85952156E+02</pdfrwt>
<pdfrwt beam="2">  1        2 0.19516928E+00 0.85952156E+02</pdfrwt>
<totfact> 0.21006309E+06</totfact>
</mgrwt>
</event>
<event>
 6    2  0.8544106E+000  0.1046306E+03  0.7546771E-02  0.1270849E+00
         -1   -1    0    0    0  501 -0.00000000000E+00  0.00000000000E+00  0.56308199418E+02  0.56308199418E+02  0.00000000000E+00 0.  1.
         21   -1    0    0  501  502  0.00000000000E+00 -0.00000000000E+00 -0.98122332596E+03  0.98122332596E+03  0.00000000000E+00 0.  1.
         24    2    1    2    0    0 -0.65062247254E+02 -0.12903136658E+02  0.54809459925E+01  0.10477408706E+03  0.80919599582E+02 0.  0.
        -13    1    3    3    0    0 -0.36667085598E+02  0.16561023381E+02  0.35792721697E+02  0.53850362934E+02  0.00000000000E+00 0.  1.
         14    1    3    3    0    0 -0.28395161656E+02 -0.29464160039E+02 -0.30311775705E+02  0.50923724124E+02  0.00000000000E+00 0. -1.
         -2    1    1    2    0  502  0.65062247254E+02  0.12903136658E+02 -0.93039607253E+03  0.93275743832E+03  0.00000000000E+00 0.  1.
<mgrwt>
<rscale>  1 0.10463063E+03</rscale>
<asrwt>0</asrwt>
<pdfrwt beam="1">  1       21 0.15095744E+00 0.10463063E+03</pdfrwt>
<pdfrwt beam="2">  1       -1 0.86627995E-02 0.10463063E+03</pdfrwt>
<totfact> 0.20833393E+03</totfact>
</mgrwt>
</event>
<event>
 6    2  0.8544106E+000  0.1031796E+03  0.7546771E-02  0.1273748E+00
         21   -1    0    0  501  502  0.00000000000E+00  0.00000000000E+00  0.11182228964E+03  0.11182228964E+03  0.00000000000E+00 0. -1.
          4   -1    0    0  502    0 -0.00000000000E+00 -0.00000000000E+00 -0.63640217638E+02  0.63640217638E+02  0.00000000000E+00 0. -1.
         24    2    1    2    0    0 -0.35162953263E+02 -0.54926438648E+02  0.34764953163E+02  0.10887898061E+03  0.79954258837E+02 0.  0.
        -13    1    3    3    0    0 -0.29700222311E+02 -0.32757152435E+01  0.46836132948E+02  0.55555889564E+02  0.00000000000E+00 0.  1.
         14    1    3    3    0    0 -0.54627309520E+01 -0.51650723404E+02 -0.12071179785E+02  0.53323091049E+02  0.00000000000E+00 0. -1.
          3    1    1    2  501    0  0.35162953263E+02  0.54926438648E+02  0.13417118834E+02  0.66583526660E+02  0.00000000000E+00 0. -1.
<mgrwt>
<rscale>  1 0.10317960E+03</rscale>
<asrwt>0</asrwt>
<pdfrwt beam="1">  1       21 0.17203429E-01 0.10317960E+03</pdfrwt>
<pdfrwt beam="2">  1        4 0.97908028E-02 0.10317960E+03</pdfrwt>
<totfact> 0.93208043E+04</totfact>
</mgrwt>
</event>
<event>
 6    2  0.8544106E+000  0.9442131E+02  0.7546771E-02  0.1292485E+00
          4   -1    0    0  502    0 -0.00000000000E+00  0.00000000000E+00  0.11498036649E+02  0.11498036649E+02  0.00000000000E+00 0. -1.
         21   -1    0    0  501  502  0.00000000000E+00 -0.00000000000E+00 -0.45442312946E+03  0.45442312946E+03  0.00000000000E+00 0.  1.
         24    2    1    2    0    0  0.47491702963E+02 -0.15557199417E+02 -0.30027194683E+03  0.31476757415E+03  0.80111768040E+02 0.  0.
        -11    1    3    3    0    0 -0.83822561624E+01  0.89770251016E+01 -0.17492497702E+03  0.17535562946E+03  0.00000000000E+00 0.  1.
         12    1    3    3    0    0  0.55873959126E+02 -0.24534224519E+02 -0.12534696980E+03  0.13941194468E+03  0.00000000000E+00 0. -1.
          3    1    1    2  501    0 -0.47491702963E+02  0.15557199417E+02 -0.14265314599E+03  0.15115359196E+03  0.00000000000E+00 0. -1.
<mgrwt>
<rscale>  1 0.94421309E+02</rscale>
<asrwt>0</asrwt>
<pdfrwt beam="1">  1       21 0.69911242E-01 0.94421309E+02</pdfrwt>
<pdfrwt beam="2">  1        4 0.17689289E-02 0.94421309E+02</pdfrwt>
<totfact> 0.88858786E+04</totfact>
</mgrwt>
</event>
<event>
 6    2  0.8544106E+000  0.1067091E+03  0.7546771E-02  0.1266788E+00
          2   -1    0    0  502    0 -0.00000000000E+00  0.00000000000E+00  0.40913516420E+02  0.40913516420E+02  0.00000000000E+00 0. -1.
         21   -1    0    0  501  502  0.00000000000E+00 -0.00000000000E+00 -0.24073766436E+03  0.24073766436E+03  0.00000000000E+00 0. -1.
         24    2    1    2    0    0  0.24619118406E+02  0.65307179040E+02 -0.53138499184E+02  0.11920793476E+03  0.80719904545E+02 0.  0.
        -11    1    3    3    0    0 -0.27794468867E+02  0.15949936785E+02 -0.29152790130E+02  0.43322259352E+02  0.00000000000E+00 0.  1.
         12    1    3    3    0    0  0.52413587272E+02  0.49357242255E+02 -0.23985709054E+02  0.75885675411E+02  0.00000000000E+00 0. -1.
          1    1    1    2  501    0 -0.24619118406E+02 -0.65307179040E+02 -0.14668564875E+03  0.16244324601E+03  0.00000000000E+00 0. -1.
<mgrwt>
<rscale>  1 0.10670910E+03</rscale>
<asrwt>0</asrwt>
<pdfrwt beam="1">  1       21 0.37036563E-01 0.10670910E+03</pdfrwt>
<pdfrwt beam="2">  1        2 0.62943872E-02 0.10670910E+03</pdfrwt>
<totfact> 0.96043970E+04</totfact>
</mgrwt>
</event>
<event>
 6    2  0.8544106E+000  0.8348031E+02  0.7546771E-02  0.1319455E+00
          2   -1    0    0  502    0 -0.00000000000E+00  0.00000000000E+00  0.57992499479E+02  0.57992499479E+02  0.00000000000E+00 0. -1.
         21   -1    0    0  501  502  0.00000000000E+00 -0.00000000000E+00 -0.65147409451E+02  0.65147409451E+02  0.00000000000E+00 0. -1.
         24    2    1    2    0    0 -0.21401731114E+02  0.18482752953E+02  0.17878468892E+02  0.85373305843E+02  0.78544989969E+02 0.  0.
        -13    1    3    3    0    0  0.22307661000E+02 -0.12540299672E+02 -0.66304096621E+01  0.26435831507E+02  0.00000000000E+00 0.  1.
         14    1    3    3    0    0 -0.43709392115E+02  0.31023052625E+02  0.24508878554E+02  0.58937474336E+02  0.00000000000E+00 0. -1.
          1    1    1    2  501    0  0.21401731114E+02 -0.18482752953E+02 -0.25033378864E+02  0.37766603087E+02  0.00000000000E+00 0. -1.
<mgrwt>
<rscale>  1 0.83480307E+02</rscale>
<asrwt>0</asrwt>
<pdfrwt beam="1">  1       21 0.10022678E-01 0.83480307E+02</pdfrwt>
<pdfrwt beam="2">  1        2 0.89219229E-02 0.83480307E+02</pdfrwt>
<totfact> 0.67007947E+05</totfact>
</mgrwt>
</event>
<event>
 6    2  0.8544106E+000  0.9053139E+02  0.7546771E-02  0.1301570E+00
         -1   -1    0    0    0  501 -0.00000000000E+00  0.00000000000E+00  0.27044500910E+02  0.27044500910E+02  0.00000000000E+00 0.  1.
         21   -1    0    0  501  502  0.00000000000E+00 -0.00000000000E+00 -0.17639413890E+03  0.17639413890E+03  0.00000000000E+00 0.  1.
         24    2    1    2    0    0 -0.35523364128E+02 -0.25716498380E+02 -0.12138144698E+03  0.15142453214E+03  0.79200287726E+02 0.  0.
        -13    1    3    3    0    0 -0.54393084041E+02 -0.94127766057E+01 -0.45455366361E+02  0.71508029521E+02  0.00000000000E+00 0.  1.
         14    1    3    3    0    0  0.18869719913E+02 -0.16303721774E+02 -0.75926080619E+02  0.79916502623E+02  0.00000000000E+00 0. -1.
         -2    1    1    2    0  502  0.35523364128E+02  0.25716498380E+02 -0.27968191008E+02  0.52014107665E+02  0.00000000000E+00 0.  1.
<mgrwt>
<rscale>  1 0.90531394E+02</rscale>
<asrwt>0</asrwt>
<pdfrwt beam="1">  1       21 0.27137560E-01 0.90531394E+02</pdfrwt>
<pdfrwt beam="2">  1       -1 0.41606924E-02 0.90531394E+02</pdfrwt>
<totfact> 0.25031601E+05</totfact>
</mgrwt>
</event>
<event>
 6    2  0.8544106E+000  0.9059747E+02  0.7546771E-02  0.1301411E+00
         -1   -1    0    0    0  501 -0.00000000000E+00  0.00000000000E+00  0.30039083137E+03  0.30039083137E+03  0.00000000000E+00 0.  1.
         21   -1    0    0  501  502  0.00000000000E+00 -0.00000000000E+00 -0.13534495820E+02  0.13534495820E+02  0.00000000000E+00 0.  1.
         24    2    1    2    0    0  0.26913977287E+02  0.25022607559E+02  0.19638834674E+03  0.21627825831E+03  0.82809475411E+02 0.  0.
        -11    1    3    3    0    0  0.25812886108E+02  0.51186877228E+02  0.89943499290E+02  0.10665943256E+03  0.00000000000E+00 0.  1.
         12    1    3    3    0    0  0.11010911785E+01 -0.26164269669E+02  0.10644484745E+03  0.10961882574E+03  0.00000000000E+00 0. -1.
         -2    1    1    2    0  502 -0.26913977287E+02 -0.25022607559E+02  0.90467988813E+02  0.97647068887E+02  0.00000000000E+00 0.  1.
<mgrwt>
<rscale>  1 0.90597474E+02</rscale>
<asrwt>0</asrwt>
<pdfrwt beam="1">  1       21 0.20822304E-02 0.90597474E+02</pdfrwt>
<pdfrwt beam="2">  1       -1 0.46213969E-01 0.90597474E+02</pdfrwt>
<totfact> 0.47369805E+05</totfact>
</mgrwt>
</event>
<event>
 6    2  0.8544106E+000  0.9114592E+02  0.7546771E-02  0.1300100E+00
         21   -1    0    0  501  502  0.00000000000E+00  0.00000000000E+00  0.29447657295E+02  0.29447657295E+02  0.00000000000E+00 0.  1.
          2   -1    0    0  502    0 -0.00000000000E+00 -0.00000000000E+00 -0.14815807585E+03  0.14815807585E+03  0.00000000000E+00 0. -1.
         24    2    1    2    0    0 -0.39940073902E+02 -0.33745884665E+01 -0.91564001906E+02  0.12919576219E+03  0.81859520967E+02 0.  0.
        -11    1    3    3    0    0  0.15735022096E+02  0.13615600213E+02 -0.13415588652E+00  0.20808495557E+02  0.00000000000E+00 0.  1.
         12    1    3    3    0    0 -0.55675095998E+02 -0.16990188680E+02 -0.91429846019E+02  0.10838726664E+03  0.00000000000E+00 0. -1.
          1    1    1    2  501    0  0.39940073902E+02  0.33745884665E+01 -0.27146416649E+02  0.48409970951E+02  0.00000000000E+00 0. -1.
<mgrwt>
<rscale>  1 0.91145919E+02</rscale>
<asrwt>0</asrwt>
<pdfrwt beam="1">  1       21 0.45304088E-02 0.91145919E+02</pdfrwt>
<pdfrwt beam="2">  1        2 0.22793550E-01 0.91145919E+02</pdfrwt>
<totfact> 0.87085843E+05</totfact>
</mgrwt>
</event>
<event>
 6    2  0.8544106E+000  0.9167618E+02  0.7546771E-02  0.1298843E+00
          2   -1    0    0  502    0 -0.00000000000E+00  0.00000000000E+00  0.19080182574E+04  0.19080182574E+04  0.00000000000E+00 0. -1.
         21   -1    0    0  501  502  0.00000000000E+00 -0.00000000000E+00 -0.24795989391E+01  0.24795989391E+01  0.00000000000E+00 0.  1.
         24    2    1    2    0    0 -0.33288697234E+02  0.28660803951E+02  0.11279504820E+04  0.11316699221E+04  0.80467034227E+02 0.  0.
        -13    1    3    3    0    0 -0.29882559854E+02  0.54453284013E+02  0.92070916716E+03  0.92280198202E+03  0.00000000000E+00 0.  1.
         14    1    3    3    0    0 -0.34061373808E+01 -0.25792480062E+02  0.20724131486E+03  0.20886794006E+03  0.00000000000E+00 0. -1.
          1    1    1    2  501    0  0.33288697234E+02 -0.28660803951E+02  0.77758817639E+03  0.77882793421E+03  0.00000000000E+00 0. -1.
<mgrwt>
<rscale>  1 0.91676184E+02</rscale>
<asrwt>0</asrwt>
<pdfrwt beam="1">  1       21 0.38147829E-03 0.91676184E+02</pdfrwt>
<pdfrwt beam="2">  1        2 0.29354010E+00 0.91676184E+02</pdfrwt>
<totfact> 0.17619695E+06</totfact>
</mgrwt>
</event>
<event>
 6    2  0.8544106E+000  0.8923086E+02  0.7546771E-02  0.1304725E+00
          2   -1    0    0  502    0 -0.00000000000E+00  0.00000000000E+00  0.22239802805E+03  0.22239802805E+03  0.00000000000E+00 0. -1.
         21   -1    0    0  501  502  0.00000000000E+00 -0.00000000000E+00 -0.24170381498E+02  0.24170381498E+02  0.00000000000E+00 0.  1.
         24    2    1    2    0    0  0.41389707008E+02 -0.10650167803E+02  0.76426500861E+02  0.11748683452E+03  0.78330149566E+02 0.  0.
        -11    1    3    3    0    0  0.24106489088E+02 -0.42426780241E+02  0.25605722336E+02  0.55107236495E+02  0.00000000000E+00 0.  1.
         12    1    3    3    0    0  0.17283217920E+02  0.31776612438E+02  0.50820778526E+02  0.62379598024E+02  0.00000000000E+00 0. -1.
          1    1    1    2  501    0 -0.41389707008E+02  0.10650167803E+02  0.12180114569E+03  0.12908157503E+03  0.00000000000E+00 0. -1.
<mgrwt>
<rscale>  1 0.89230859E+02</rscale>
<asrwt>0</asrwt>
<pdfrwt beam="1">  1       21 0.37185204E-02 0.89230859E+02</pdfrwt>
<pdfrwt beam="2">  1        2 0.34215080E-01 0.89230859E+02</pdfrwt>
<totfact> 0.77680876E+05</totfact>
</mgrwt>
</event>
<event>
 6    2  0.8544106E+000  0.8248841E+02  0.7546771E-02  0.1322134E+00
          2   -1    0    0  502    0 -0.00000000000E+00  0.00000000000E+00  0.15597774719E+04  0.15597774719E+04  0.00000000000E+00 0. -1.
         21   -1    0    0  501  502  0.00000000000E+00 -0.00000000000E+00 -0.22245671288E+01  0.22245671288E+01  0.00000000000E+00 0.  1.
         24    2    1    2    0    0 -0.11971247500E+02  0.22263130920E+02  0.84886797120E+03  0.85286644351E+03  0.78519934833E+02 0.  0.
        -11    1    3    3    0    0 -0.32165355916E+02  0.34305279767E+02  0.31599797059E+03  0.31947798009E+03  0.00000000000E+00 0.  1.
         12    1    3    3    0    0  0.20194108416E+02 -0.12042148848E+02  0.53287000061E+03  0.53338846342E+03  0.00000000000E+00 0. -1.
          1    1    1    2  501    0  0.11971247500E+02 -0.22263130920E+02  0.70868493360E+03  0.70913559555E+03  0.00000000000E+00 0. -1.
<mgrwt>
<rscale>  1 0.82488411E+02</rscale>
<asrwt>0</asrwt>
<pdfrwt beam="1">  1       21 0.34224234E-03 0.82488411E+02</pdfrwt>
<pdfrwt beam="2">  1        2 0.23996489E+00 0.82488411E+02</pdfrwt>
<totfact> 0.30817492E+06</totfact>
</mgrwt>
</event>
<event>
 6    2  0.8544106E+000  0.9121665E+02  0.7546771E-02  0.1299932E+00
          2   -1    0    0  502    0 -0.00000000000E+00  0.00000000000E+00  0.85098749551E+03  0.85098749551E+03  0.00000000000E+00 0. -1.
         21   -1    0    0  501  502  0.00000000000E+00 -0.00000000000E+00 -0.61531608309E+01  0.61531608309E+01  0.00000000000E+00 0. -1.
         24    2    1    2    0    0 -0.37698563707E+02  0.21055502887E+02  0.70259752602E+03  0.70849400941E+03  0.80349000539E+02 0.  0.
        -13    1    3    3    0    0  0.15020997399E+02 -0.12045647981E+02  0.63058247596E+02  0.65932318236E+02  0.00000000000E+00 0.  1.
         14    1    3    3    0    0 -0.52719561106E+02  0.33101150868E+02  0.63953927842E+03  0.64256169117E+03  0.00000000000E+00 0. -1.
          1    1    1    2  501    0  0.37698563707E+02 -0.21055502887E+02  0.14223680866E+03  0.14864664694E+03  0.00000000000E+00 0. -1.
<mgrwt>
<rscale>  1 0.91216653E+02</rscale>
<asrwt>0</asrwt>
<pdfrwt beam="1">  1       21 0.94664080E-03 0.91216653E+02</pdfrwt>
<pdfrwt beam="2">  1        2 0.13092106E+00 0.91216653E+02</pdfrwt>
<totfact> 0.16007717E+06</totfact>
</mgrwt>
</event>
<event>
 6    2  0.8544106E+000  0.8966759E+02  0.7546771E-02  0.1303659E+00
          2   -1    0    0  502    0 -0.00000000000E+00  0.00000000000E+00  0.27924146898E+04  0.27924146898E+04  0.00000000000E+00 0. -1.
         21   -1    0    0  501  502  0.00000000000E+00 -0.00000000000E+00 -0.19114098960E+01  0.19114098960E+01  0.00000000000E+00 0.  1.
         24    2    1    2    0    0 -0.30891982037E+02 -0.54783784136E+01  0.25740041097E+04  0.25755654590E+04  0.83999702760E+02 0.  0.
        -13    1    3    3    0    0 -0.52974355654E+02  0.10010364951E+02  0.11056179258E+04  0.11069315641E+04  0.00000000000E+00 0.  1.
         14    1    3    3    0    0  0.22082373617E+02 -0.15488743365E+02  0.14683861839E+04  0.14686338949E+04  0.00000000000E+00 0. -1.
          1    1    1    2  501    0  0.30891982037E+02  0.54783784136E+01  0.21649917021E+03  0.21876064063E+03  0.00000000000E+00 0. -1.
<mgrwt>
<rscale>  1 0.89667593E+02</rscale>
<asrwt>0</asrwt>
<pdfrwt beam="1">  1       21 0.29406529E-03 0.89667593E+02</pdfrwt>
<pdfrwt beam="2">  1        2 0.42959900E+00 0.89667593E+02</pdfrwt>
<totfact> 0.90834568E+05</totfact>
</mgrwt>
</event>
<event>
 6    2  0.8544106E+000  0.8606329E+02  0.7546771E-02  0.1312675E+00
          2   -1    0    0  502    0 -0.00000000000E+00  0.00000000000E+00  0.28073055579E+03  0.28073055579E+03  0.00000000000E+00 0. -1.
         21   -1    0    0  501  502  0.00000000000E+00 -0.00000000000E+00 -0.23613974528E+02  0.23613974528E+02  0.00000000000E+00 0. -1.
         24    2    1    2    0    0  0.28075248976E+00 -0.20235423705E+02  0.26792028854E+03  0.28140392689E+03  0.83650091852E+02 0.  0.
        -13    1    3    3    0    0 -0.20672002855E+02  0.53850051188E+01  0.14469127494E+02  0.25800884338E+02  0.00000000000E+00 0.  1.
         14    1    3    3    0    0  0.20952755345E+02 -0.25620428824E+02  0.25345116104E+03  0.25560304255E+03  0.00000000000E+00 0. -1.
          1    1    1    2  501    0 -0.28075248976E+00  0.20235423705E+02 -0.10803707277E+02  0.22940603423E+02  0.00000000000E+00 0. -1.
<mgrwt>
<rscale>  1 0.86063285E+02</rscale>
<asrwt>0</asrwt>
<pdfrwt beam="1">  1       21 0.36329194E-02 0.86063285E+02</pdfrwt>
<pdfrwt beam="2">  1        2 0.43189314E-01 0.86063285E+02</pdfrwt>
<totfact> 0.62968499E+05</totfact>
</mgrwt>
</event>
<event>
 6    2  0.8544106E+000  0.9799297E+02  0.7546771E-02  0.1284574E+00
          2   -1    0    0  502    0 -0.00000000000E+00  0.00000000000E+00  0.42219053621E+03  0.42219053621E+03  0.00000000000E+00 0. -1.
         21   -1    0    0  501  502  0.00000000000E+00 -0.00000000000E+00 -0.16500608080E+02  0.16500608080E+02  0.00000000000E+00 0. -1.
         24    2    1    2    0    0 -0.80693399209E+01 -0.56075384482E+02  0.32939589412E+03  0.34366302942E+03  0.79956611540E+02 0.  0.
        -11    1    3    3    0    0  0.14054232475E+02 -0.19216361419E+02  0.19428355704E+02  0.30728667430E+02  0.00000000000E+00 0.  1.
         12    1    3    3    0    0 -0.22123572396E+02 -0.36859023063E+02  0.30996753842E+03  0.31293436199E+03  0.00000000000E+00 0. -1.
          1    1    1    2  501    0  0.80693399209E+01  0.56075384482E+02  0.76294034003E+02  0.95028114871E+02  0.00000000000E+00 0. -1.
<mgrwt>
<rscale>  1 0.97992973E+02</rscale>
<asrwt>0</asrwt>
<pdfrwt beam="1">  1       21 0.25385554E-02 0.97992973E+02</pdfrwt>
<pdfrwt beam="2">  1        2 0.64952382E-01 0.97992973E+02</pdfrwt>
<totfact> 0.74425754E+05</totfact>
</mgrwt>
</event>
<event>
 6    2  0.8544106E+000  0.8585591E+02  0.7546771E-02  0.1313209E+00
         21   -1    0    0  501  502  0.00000000000E+00  0.00000000000E+00  0.58526587166E+01  0.58526587166E+01  0.00000000000E+00 0.  1.
          2   -1    0    0  502    0 -0.00000000000E+00 -0.00000000000E+00 -0.58432532295E+03  0.58432532295E+03  0.00000000000E+00 0. -1.
         24    2    1    2    0    0  0.25620639996E+02  0.86755304225E+01 -0.36305046918E+03  0.37306417707E+03  0.81483464728E+02 0.  0.
        -11    1    3    3    0    0  0.23549707241E+02  0.37844100975E+02 -0.11566216709E+03  0.12395362675E+03  0.00000000000E+00 0.  1.
         12    1    3    3    0    0  0.20709327549E+01 -0.29168570553E+02 -0.24738830209E+03  0.24911055032E+03  0.00000000000E+00 0. -1.
          1    1    1    2  501    0 -0.25620639996E+02 -0.86755304225E+01 -0.21542219506E+03  0.21711380460E+03  0.00000000000E+00 0. -1.
<mgrwt>
<rscale>  1 0.85855909E+02</rscale>
<asrwt>0</asrwt>
<pdfrwt beam="1">  1       21 0.90040954E-03 0.85855909E+02</pdfrwt>
<pdfrwt beam="2">  1        2 0.89896153E-01 0.85855909E+02</pdfrwt>
<totfact> 0.26714714E+06</totfact>
</mgrwt>
</event>
<event>
 6    2  0.8544106E+000  0.8436421E+02  0.7546771E-02  0.1317104E+00
         -1   -1    0    0    0  501 -0.00000000000E+00  0.00000000000E+00  0.61704251128E+01  0.61704251128E+01  0.00000000000E+00 0.  1.
         21   -1    0    0  501  502  0.00000000000E+00 -0.00000000000E+00 -0.52486257857E+03  0.52486257857E+03  0.00000000000E+00 0. -1.
         24    2    1    2    0    0 -0.19318146836E+02 -0.18310816895E+02 -0.33688809993E+03  0.34729081829E+03  0.80055254571E+02 0.  0.
        -11    1    3    3    0    0  0.22761947554E+02 -0.18426286926E+02 -0.55298911841E+02  0.62574786912E+02  0.00000000000E+00 0.  1.
         12    1    3    3    0    0 -0.42080094389E+02  0.11547003153E+00 -0.28158918809E+03  0.28471603138E+03  0.00000000000E+00 0. -1.
         -2    1    1    2    0  502  0.19318146836E+02  0.18310816895E+02 -0.18180405353E+03  0.18374218539E+03  0.00000000000E+00 0.  1.
<mgrwt>
<rscale>  1 0.84364214E+02</rscale>
<asrwt>0</asrwt>
<pdfrwt beam="1">  1       21 0.80748085E-01 0.84364214E+02</pdfrwt>
<pdfrwt beam="2">  1       -1 0.94929622E-03 0.84364214E+02</pdfrwt>
<totfact> 0.22397810E+05</totfact>
</mgrwt>
</event>
<event>
 6    2  0.8544106E+000  0.8142396E+02  0.7546771E-02  0.1325058E+00
          2   -1    0    0  502    0 -0.00000000000E+00  0.00000000000E+00  0.22933051294E+03  0.22933051294E+03  0.00000000000E+00 0. -1.
         21   -1    0    0  501  502  0.00000000000E+00 -0.00000000000E+00 -0.11809594420E+02  0.11809594420E+02  0.00000000000E+00 0.  1.
         24    2    1    2    0    0  0.13692692989E+02  0.16659675096E+02  0.18491619069E+03  0.20204915070E+03  0.78516412962E+02 0.  0.
        -11    1    3    3    0    0  0.23096575023E+01  0.42870153626E+02  0.59215744637E+02  0.73141568226E+02  0.00000000000E+00 0.  1.
         12    1    3    3    0    0  0.11383035486E+02 -0.26210478531E+02  0.12570044605E+03  0.12890758248E+03  0.00000000000E+00 0. -1.
          1    1    1    2  501    0 -0.13692692989E+02 -0.16659675096E+02  0.32604727828E+02  0.39090956656E+02  0.00000000000E+00 0. -1.
<mgrwt>
<rscale>  1 0.81423963E+02</rscale>
<asrwt>0</asrwt>
<pdfrwt beam="1">  1       21 0.18168608E-02 0.81423963E+02</pdfrwt>
<pdfrwt beam="2">  1        2 0.35281614E-01 0.81423963E+02</pdfrwt>
<totfact> 0.23640677E+06</totfact>
</mgrwt>
</event>
<event>
 6    2  0.8544106E+000  0.8108573E+02  0.7546771E-02  0.1325998E+00
          2   -1    0    0  502    0 -0.00000000000E+00  0.00000000000E+00  0.21929766509E+04  0.21929766509E+04  0.00000000000E+00 0. -1.
         21   -1    0    0  501  502  0.00000000000E+00 -0.00000000000E+00 -0.25415741547E+02  0.25415741547E+02  0.00000000000E+00 0. -1.
         24    2    1    2    0    0  0.13649085759E+02  0.18420147894E+02  0.21868977699E+04  0.21884005007E+04  0.77777221482E+02 0.  0.
        -13    1    3    3    0    0  0.88490772638E+01  0.10490101119E+02  0.62782455962E+02  0.64264960644E+02  0.00000000000E+00 0.  1.
         14    1    3    3    0    0  0.48000084948E+01  0.79300467755E+01  0.21241153139E+04  0.21241355401E+04  0.00000000000E+00 0. -1.
          1    1    1    2  501    0 -0.13649085759E+02 -0.18420147894E+02 -0.19336860576E+02  0.29991891695E+02  0.00000000000E+00 0. -1.
<mgrwt>
<rscale>  1 0.81085730E+02</rscale>
<asrwt>0</asrwt>
<pdfrwt beam="1">  1       21 0.39101158E-02 0.81085730E+02</pdfrwt>
<pdfrwt beam="2">  1        2 0.33738087E+00 0.81085730E+02</pdfrwt>
<totfact> 0.32420782E+04</totfact>
</mgrwt>
</event>
<event>
 6    2  0.8544106E+000  0.8146657E+02  0.7546771E-02  0.1324940E+00
          2   -1    0    0  502    0 -0.00000000000E+00  0.00000000000E+00  0.47041817795E+03  0.47041817795E+03  0.00000000000E+00 0. -1.
         21   -1    0    0  501  502  0.00000000000E+00 -0.00000000000E+00 -0.33395754808E+02  0.33395754808E+02  0.00000000000E+00 0. -1.
         24    2    1    2    0    0  0.28295455832E+01 -0.30248082637E+02  0.45909171597E+03  0.46626387926E+03  0.75590003272E+02 0.  0.
        -11    1    3    3    0    0 -0.18910358275E+02 -0.63084456753E+00  0.29131165141E+02  0.34736499499E+02  0.00000000000E+00 0.  1.
         12    1    3    3    0    0  0.21739903858E+02 -0.29617238069E+02  0.42996055083E+03  0.43152737976E+03  0.00000000000E+00 0. -1.
          1    1    1    2  501    0 -0.28295455832E+01  0.30248082637E+02 -0.22069292834E+02  0.37550053496E+02  0.00000000000E+00 0. -1.
<mgrwt>
<rscale>  1 0.81466566E+02</rscale>
<asrwt>0</asrwt>
<pdfrwt beam="1">  1       21 0.51378087E-02 0.81466566E+02</pdfrwt>
<pdfrwt beam="2">  1        2 0.72372023E-01 0.81466566E+02</pdfrwt>
<totfact> 0.20610728E+05</totfact>
</mgrwt>
</event>
<event>
 6    2  0.8544106E+000  0.9036408E+02  0.7546771E-02  0.1301972E+00
          2   -1    0    0  502    0 -0.00000000000E+00  0.00000000000E+00  0.28167415719E+04  0.28167415719E+04  0.00000000000E+00 0. -1.
         21   -1    0    0  501  502  0.00000000000E+00 -0.00000000000E+00 -0.15923583581E+01  0.15923583581E+01  0.00000000000E+00 0.  1.
         24    2    1    2    0    0  0.38316822826E+02  0.15819836271E+02  0.16805913630E+04  0.16830190126E+04  0.80294589499E+02 0.  0.
        -11    1    3    3    0    0  0.54261443559E+02 -0.14428764991E+02  0.10629296936E+04  0.10644115872E+04  0.00000000000E+00 0.  1.
         12    1    3    3    0    0 -0.15944620733E+02  0.30248601261E+02  0.61766166942E+03  0.61860742534E+03  0.00000000000E+00 0. -1.
          1    1    1    2  501    0 -0.38316822826E+02 -0.15819836271E+02  0.11345578505E+04  0.11353149177E+04  0.00000000000E+00 0. -1.
<mgrwt>
<rscale>  1 0.90364082E+02</rscale>
<asrwt>0</asrwt>
<pdfrwt beam="1">  1       21 0.24498046E-03 0.90364082E+02</pdfrwt>
<pdfrwt beam="2">  1        2 0.43334087E+00 0.90364082E+02</pdfrwt>
<totfact> 0.11604445E+06</totfact>
</mgrwt>
</event>
<event>
 6    2  0.8544106E+000  0.8937834E+02  0.7546771E-02  0.1304364E+00
          2   -1    0    0  502    0 -0.00000000000E+00  0.00000000000E+00  0.61543663003E+02  0.61543663003E+02  0.00000000000E+00 0. -1.
         21   -1    0    0  501  502  0.00000000000E+00 -0.00000000000E+00 -0.95217269164E+02  0.95217269164E+02  0.00000000000E+00 0. -1.
         24    2    1    2    0    0  0.28847296911E+02 -0.23555724286E+02  0.19848973703E+02  0.91555830825E+02  0.81249305937E+02 0.  0.
        -11    1    3    3    0    0 -0.20986108224E+02 -0.11485709847E+02 -0.16186702877E+02  0.28885076062E+02  0.00000000000E+00 0.  1.
         12    1    3    3    0    0  0.49833405135E+02 -0.12070014439E+02  0.36035676580E+02  0.62670754763E+02  0.00000000000E+00 0. -1.
          1    1    1    2  501    0 -0.28847296911E+02  0.23555724286E+02 -0.53522579865E+02  0.65205101342E+02  0.00000000000E+00 0. -1.
<mgrwt>
<rscale>  1 0.89378344E+02</rscale>
<asrwt>0</asrwt>
<pdfrwt beam="1">  1       21 0.14648811E-01 0.89378344E+02</pdfrwt>
<pdfrwt beam="2">  1        2 0.94682559E-02 0.89378344E+02</pdfrwt>
<totfact> 0.32234695E+05</totfact>
</mgrwt>
</event>
<event>
 6    2  0.8544106E+000  0.8407620E+02  0.7546771E-02  0.1317866E+00
          2   -1    0    0  502    0 -0.00000000000E+00  0.00000000000E+00  0.21423775436E+03  0.21423775436E+03  0.00000000000E+00 0. -1.
         21   -1    0    0  501  502  0.00000000000E+00 -0.00000000000E+00 -0.98462603399E+02  0.98462603399E+02  0.00000000000E+00 0. -1.
         24    2    1    2    0    0 -0.10907167369E+02 -0.17912311282E+02  0.20472228670E+03  0.22131430767E+03  0.81418615253E+02 0.  0.
        -13    1    3    3    0    0  0.24687871568E+02  0.11881619135E+02  0.30431058774E+02  0.40947688749E+02  0.00000000000E+00 0.  1.
         14    1    3    3    0    0 -0.35595038937E+02 -0.29793930417E+02  0.17429122793E+03  0.18036661892E+03  0.00000000000E+00 0. -1.
          1    1    1    2  501    0  0.10907167369E+02  0.17912311282E+02 -0.88947135739E+02  0.91386050094E+02  0.00000000000E+00 0. -1.
<mgrwt>
<rscale>  1 0.84076204E+02</rscale>
<asrwt>0</asrwt>
<pdfrwt beam="1">  1       21 0.15148093E-01 0.84076204E+02</pdfrwt>
<pdfrwt beam="2">  1        2 0.32959654E-01 0.84076204E+02</pdfrwt>
<totfact> 0.73533876E+04</totfact>
</mgrwt>
</event>
<event>
 6    2  0.8544106E+000  0.8254324E+02  0.7546771E-02  0.1321985E+00
         21   -1    0    0  501  502  0.00000000000E+00  0.00000000000E+00  0.34543598146E+02  0.34543598146E+02  0.00000000000E+00 0.  1.
          2   -1    0    0  502    0 -0.00000000000E+00 -0.00000000000E+00 -0.13959641062E+03  0.13959641062E+03  0.00000000000E+00 0. -1.
         24    2    1    2    0    0  0.14558713980E+02 -0.15930129391E+02 -0.12158357464E+03  0.14695561484E+03  0.79672215579E+02 0.  0.
        -11    1    3    3    0    0 -0.22614714609E+02 -0.64665263275E+01 -0.47630828253E+01  0.23998504903E+02  0.00000000000E+00 0.  1.
         12    1    3    3    0    0  0.37173428589E+02 -0.94636030634E+01 -0.11682049181E+03  0.12295710993E+03  0.00000000000E+00 0. -1.
          1    1    1    2  501    0 -0.14558713980E+02  0.15930129391E+02  0.16530762168E+02  0.27184393924E+02  0.00000000000E+00 0. -1.
<mgrwt>
<rscale>  1 0.82543244E+02</rscale>
<asrwt>0</asrwt>
<pdfrwt beam="1">  1       21 0.53143996E-02 0.82543244E+02</pdfrwt>
<pdfrwt beam="2">  1        2 0.21476371E-01 0.82543244E+02</pdfrwt>
<totfact> 0.70591183E+05</totfact>
</mgrwt>
</event>
<event>
 6    2  0.8544106E+000  0.8442802E+02  0.7546771E-02  0.1316935E+00
          2   -1    0    0  502    0 -0.00000000000E+00  0.00000000000E+00  0.86747602264E+03  0.86747602264E+03  0.00000000000E+00 0. -1.
         21   -1    0    0  501  502  0.00000000000E+00 -0.00000000000E+00 -0.53074997374E+01  0.53074997374E+01  0.00000000000E+00 0.  1.
         24    2    1    2    0    0 -0.20563599823E+02 -0.14093643090E+02  0.81563303977E+03  0.81999106455E+03  0.80663485918E+02 0.  0.
        -13    1    3    3    0    0 -0.32810078000E+02 -0.32996160950E+02  0.27652697316E+03  0.28041471919E+03  0.00000000000E+00 0.  1.
         14    1    3    3    0    0  0.12246478177E+02  0.18902517859E+02  0.53910606662E+03  0.53957634536E+03  0.00000000000E+00 0. -1.
          1    1    1    2  501    0  0.20563599823E+02  0.14093643090E+02  0.46535483129E+02  0.52792457826E+02  0.00000000000E+00 0. -1.
<mgrwt>
<rscale>  1 0.84428019E+02</rscale>
<asrwt>0</asrwt>
<pdfrwt beam="1">  1       21 0.81653911E-03 0.84428019E+02</pdfrwt>
<pdfrwt beam="2">  1        2 0.13345774E+00 0.84428019E+02</pdfrwt>
<totfact> 0.19517466E+06</totfact>
</mgrwt>
</event>
<event>
 6    2  0.8544106E+000  0.1173981E+03  0.7546771E-02  0.1247452E+00
          2   -1    0    0  502    0 -0.00000000000E+00  0.00000000000E+00  0.51061589250E+03  0.51061589250E+03  0.00000000000E+00 0. -1.
         21   -1    0    0  501  502  0.00000000000E+00 -0.00000000000E+00 -0.75032027752E+02  0.75032027752E+02  0.00000000000E+00 0. -1.
         24    2    1    2    0    0 -0.42060884201E+02 -0.58587277075E+02  0.48448815068E+03  0.49850885784E+03  0.92632209182E+02 0.  0.
        -11    1    3    3    0    0 -0.44111730297E+02 -0.43396204481E+00  0.95548697799E+02  0.10524061347E+03  0.00000000000E+00 0.  1.
         12    1    3    3    0    0  0.20508460964E+01 -0.58153315030E+02  0.38893945289E+03  0.39326824437E+03  0.00000000000E+00 0. -1.
          1    1    1    2  501    0  0.42060884201E+02  0.58587277075E+02 -0.48904285937E+02  0.87139062411E+02  0.00000000000E+00 0. -1.
<mgrwt>
<rscale>  1 0.11739810E+03</rscale>
<asrwt>0</asrwt>
<pdfrwt beam="1">  1       21 0.11543389E-01 0.11739810E+03</pdfrwt>
<pdfrwt beam="2">  1        2 0.78556289E-01 0.11739810E+03</pdfrwt>
<totfact> 0.47859964E+04</totfact>
</mgrwt>
</event>
<event>
 6    2  0.8544106E+000  0.9054941E+02  0.7546771E-02  0.1301527E+00
         -1   -1    0    0    0  501 -0.00000000000E+00  0.00000000000E+00  0.67155969758E+02  0.67155969758E+02  0.00000000000E+00 0.  1.
         21   -1    0    0  501  502  0.00000000000E+00 -0.00000000000E+00 -0.77684484713E+02  0.77684484713E+02  0.00000000000E+00 0.  1.
         24    2    1    2    0    0 -0.31419932280E+02 -0.30060329448E+02 -0.32393087001E+02  0.96169158395E+02  0.79425181083E+02 0.  0.
        -11    1    3    3    0    0 -0.27874569949E+02  0.49926103280E+01 -0.49481623789E+02  0.57011831232E+02  0.00000000000E+00 0.  1.
         12    1    3    3    0    0 -0.35453623308E+01 -0.35052939776E+02  0.17088536788E+02  0.39157327163E+02  0.00000000000E+00 0. -1.
         -2    1    1    2    0  502  0.31419932280E+02  0.30060329448E+02  0.21864572046E+02  0.48671296076E+02  0.00000000000E+00 0.  1.
<mgrwt>
<rscale>  1 0.90549406E+02</rscale>
<asrwt>0</asrwt>
<pdfrwt beam="1">  1       21 0.11951459E-01 0.90549406E+02</pdfrwt>
<pdfrwt beam="2">  1       -1 0.10331688E-01 0.90549406E+02</pdfrwt>
<totfact> 0.28874977E+05</totfact>
</mgrwt>
</event>
<event>
 6    2  0.8544106E+000  0.8446760E+02  0.7546771E-02  0.1316831E+00
         21   -1    0    0  501  502  0.00000000000E+00  0.00000000000E+00  0.29580347824E+02  0.29580347824E+02  0.00000000000E+00 0. -1.
         -1   -1    0    0    0  501 -0.00000000000E+00 -0.00000000000E+00 -0.10238436053E+03  0.10238436053E+03  0.00000000000E+00 0.  1.
         24    2    1    2    0    0  0.24258868103E+02 -0.50461305179E+01 -0.62746867536E+02  0.10522331191E+03  0.80751593601E+02 0.  0.
        -13    1    3    3    0    0  0.11643119198E+02  0.35578168251E+02 -0.46481264403E+02  0.59681456260E+02  0.00000000000E+00 0.  1.
         14    1    3    3    0    0  0.12615748905E+02 -0.40624298769E+02 -0.16265603133E+02  0.45541855651E+02  0.00000000000E+00 0. -1.
         -2    1    1    2    0  502 -0.24258868103E+02  0.50461305179E+01 -0.10057145174E+02  0.26741396447E+02  0.00000000000E+00 0.  1.
<mgrwt>
<rscale>  1 0.84467603E+02</rscale>
<asrwt>0</asrwt>
<pdfrwt beam="1">  1       21 0.45508228E-02 0.84467603E+02</pdfrwt>
<pdfrwt beam="2">  1       -1 0.15751440E-01 0.84467603E+02</pdfrwt>
<totfact> 0.77565658E+05</totfact>
</mgrwt>
</event>
<event>
 6    2  0.8544106E+000  0.7813667E+02  0.7546771E-02  0.1334424E+00
          2   -1    0    0  502    0 -0.00000000000E+00  0.00000000000E+00  0.48360403609E+03  0.48360403609E+03  0.00000000000E+00 0. -1.
         21   -1    0    0  501  502  0.00000000000E+00 -0.00000000000E+00 -0.61401840138E+01  0.61401840138E+01  0.00000000000E+00 0. -1.
         24    2    1    2    0    0 -0.89578679141E+01  0.21006495005E+02  0.43036795025E+03  0.43740360300E+03  0.74724983004E+02 0.  0.
        -11    1    3    3    0    0 -0.78511361075E+01 -0.18332487997E+02  0.36657996307E+02  0.41731632458E+02  0.00000000000E+00 0.  1.
         12    1    3    3    0    0 -0.11067318066E+01  0.39338983002E+02  0.39370995394E+03  0.39567197054E+03  0.00000000000E+00 0. -1.
          1    1    1    2  501    0  0.89578679141E+01 -0.21006495005E+02  0.47095901825E+02  0.52340617103E+02  0.00000000000E+00 0. -1.
<mgrwt>
<rscale>  1 0.78136671E+02</rscale>
<asrwt>0</asrwt>
<pdfrwt beam="1">  1       21 0.94464407E-03 0.78136671E+02</pdfrwt>
<pdfrwt beam="2">  1        2 0.74400591E-01 0.78136671E+02</pdfrwt>
<totfact> 0.30104005E+06</totfact>
</mgrwt>
</event>
<event>
 6    2  0.8544106E+000  0.9305854E+02  0.7546771E-02  0.1295610E+00
         21   -1    0    0  501  502  0.00000000000E+00  0.00000000000E+00  0.48894639378E+01  0.48894639378E+01  0.00000000000E+00 0. -1.
          2   -1    0    0  502    0 -0.00000000000E+00 -0.00000000000E+00 -0.99337549042E+03  0.99337549042E+03  0.00000000000E+00 0. -1.
         24    2    1    2    0    0 -0.19392237830E+02  0.39931311411E+02 -0.58673532409E+03  0.59406921540E+03  0.81788285420E+02 0.  0.
        -11    1    3    3    0    0 -0.27860529776E+02 -0.18747764121E+02 -0.23075263828E+03  0.23318333528E+03  0.00000000000E+00 0.  1.
         12    1    3    3    0    0  0.84682919465E+01  0.58679075531E+02 -0.35598268581E+03  0.36088588012E+03  0.00000000000E+00 0. -1.
          1    1    1    2  501    0  0.19392237830E+02 -0.39931311411E+02 -0.40175070239E+03  0.40419573896E+03  0.00000000000E+00 0. -1.
<mgrwt>
<rscale>  1 0.93058542E+02</rscale>
<asrwt>0</asrwt>
<pdfrwt beam="1">  1       21 0.75222502E-03 0.93058542E+02</pdfrwt>
<pdfrwt beam="2">  1        2 0.15282704E+00 0.93058542E+02</pdfrwt>
<totfact> 0.18761162E+06</totfact>
</mgrwt>
</event>
<event>
 6    2  0.8544106E+000  0.8463500E+02  0.7546771E-02  0.1316390E+00
         21   -1    0    0  501  502  0.00000000000E+00  0.00000000000E+00  0.63035964296E+01  0.63035964296E+01  0.00000000000E+00 0.  1.
         -1   -1    0    0    0  501 -0.00000000000E+00 -0.00000000000E+00 -0.71247338578E+03  0.71247338578E+03  0.00000000000E+00 0.  1.
         24    2    1    2    0    0  0.19935836343E+02 -0.72354395274E+01 -0.67926954902E+03  0.68452187915E+03  0.81934691388E+02 0.  0.
        -13    1    3    3    0    0  0.36370525728E+02 -0.33857960722E+02 -0.31315128921E+03  0.31706924572E+03  0.00000000000E+00 0.  1.
         14    1    3    3    0    0 -0.16434689385E+02  0.26622521195E+02 -0.36611825981E+03  0.36745263343E+03  0.00000000000E+00 0. -1.
         -2    1    1    2    0  502 -0.19935836343E+02  0.72354395274E+01 -0.26900240333E+02  0.34255103062E+02  0.00000000000E+00 0.  1.
<mgrwt>
<rscale>  1 0.84634998E+02</rscale>
<asrwt>0</asrwt>
<pdfrwt beam="1">  1       21 0.96978452E-03 0.84634998E+02</pdfrwt>
<pdfrwt beam="2">  1       -1 0.10961124E+00 0.84634998E+02</pdfrwt>
<totfact> 0.28536381E+05</totfact>
</mgrwt>
</event>
<event>
 6    2  0.8544106E+000  0.9556912E+02  0.7546771E-02  0.1289899E+00
         21   -1    0    0  501  502  0.00000000000E+00  0.00000000000E+00  0.24247345178E+03  0.24247345178E+03  0.00000000000E+00 0. -1.
          4   -1    0    0  502    0 -0.00000000000E+00 -0.00000000000E+00 -0.18576961065E+02  0.18576961065E+02  0.00000000000E+00 0. -1.
         24    2    1    2    0    0 -0.14016950095E+02 -0.23799368480E+02  0.11924995685E+03  0.15282018657E+03  0.91490832241E+02 0.  0.
        -13    1    3    3    0    0  0.35620172528E+02 -0.15339577070E+02  0.80250755125E+02  0.89130707468E+02  0.00000000000E+00 0.  1.
         14    1    3    3    0    0 -0.49637122622E+02 -0.84597914101E+01  0.38999201726E+02  0.63689479102E+02  0.00000000000E+00 0. -1.
          3    1    1    2  501    0  0.14016950095E+02  0.23799368480E+02  0.10464653386E+03  0.10823022627E+03  0.00000000000E+00 0. -1.
<mgrwt>
<rscale>  1 0.95569123E+02</rscale>
<asrwt>0</asrwt>
<pdfrwt beam="1">  1       21 0.37303606E-01 0.95569123E+02</pdfrwt>
<pdfrwt beam="2">  1        4 0.28579942E-02 0.95569123E+02</pdfrwt>
<totfact> 0.15490820E+05</totfact>
</mgrwt>
</event>
<event>
 6    2  0.8544106E+000  0.9788566E+02  0.7546771E-02  0.1284806E+00
         -3   -1    0    0    0  501 -0.00000000000E+00  0.00000000000E+00  0.30506786648E+02  0.30506786648E+02  0.00000000000E+00 0.  1.
         21   -1    0    0  501  502  0.00000000000E+00 -0.00000000000E+00 -0.21815028635E+03  0.21815028635E+03  0.00000000000E+00 0.  1.
         24    2    1    2    0    0 -0.44553743763E+02  0.34291891522E+02 -0.76974881747E+02  0.12452604180E+03  0.80128850970E+02 0.  0.
        -11    1    3    3    0    0  0.88665161498E+01 -0.89167847669E+01  0.82613812011E+01  0.15045749518E+02  0.00000000000E+00 0.  1.
         12    1    3    3    0    0 -0.53420259913E+02  0.43208676289E+02 -0.85236262948E+02  0.10948029228E+03  0.00000000000E+00 0. -1.
         -4    1    1    2    0  502  0.44553743763E+02 -0.34291891522E+02 -0.11066861796E+03  0.12413103121E+03  0.00000000000E+00 0.  1.
<mgrwt>
<rscale>  1 0.97885661E+02</rscale>
<asrwt>0</asrwt>
<pdfrwt beam="1">  1       21 0.33561583E-01 0.97885661E+02</pdfrwt>
<pdfrwt beam="2">  1       -3 0.46933517E-02 0.97885661E+02</pdfrwt>
<totfact> 0.99023971E+04</totfact>
</mgrwt>
</event>
<event>
 6    2  0.8544106E+000  0.8278370E+02  0.7546771E-02  0.1321332E+00
          2   -1    0    0  502    0 -0.00000000000E+00  0.00000000000E+00  0.18847216030E+04  0.18847216030E+04  0.00000000000E+00 0. -1.
         21   -1    0    0  501  502  0.00000000000E+00 -0.00000000000E+00 -0.59191309984E+01  0.59191309984E+01  0.00000000000E+00 0. -1.
         24    2    1    2    0    0 -0.19972735124E+02 -0.12108120002E+02  0.18565055442E+04  0.18583503375E+04  0.79420554682E+02 0.  0.
        -11    1    3    3    0    0  0.28954372621E+01  0.58362916937E+01  0.12327413673E+02  0.13943133993E+02  0.00000000000E+00 0.  1.
         12    1    3    3    0    0 -0.22868172386E+02 -0.17944411696E+02  0.18441781305E+04  0.18444072035E+04  0.00000000000E+00 0. -1.
          1    1    1    2  501    0  0.19972735124E+02  0.12108120002E+02  0.22296927872E+02  0.32290396573E+02  0.00000000000E+00 0. -1.
<mgrwt>
<rscale>  1 0.82783701E+02</rscale>
<asrwt>0</asrwt>
<pdfrwt beam="1">  1       21 0.91063704E-03 0.82783701E+02</pdfrwt>
<pdfrwt beam="2">  1        2 0.28995669E+00 0.82783701E+02</pdfrwt>
<totfact> 0.47229600E+05</totfact>
</mgrwt>
</event>
<event>
 6    2  0.8544106E+000  0.8647375E+02  0.7546771E-02  0.1311623E+00
         21   -1    0    0  501  502  0.00000000000E+00  0.00000000000E+00  0.10536857739E+03  0.10536857739E+03  0.00000000000E+00 0. -1.
         -1   -1    0    0    0  501 -0.00000000000E+00 -0.00000000000E+00 -0.31968619512E+02  0.31968619512E+02  0.00000000000E+00 0.  1.
         24    2    1    2    0    0 -0.28659440340E+02 -0.27678717527E+01  0.61840531534E+02  0.10631067644E+03  0.81539462529E+02 0.  0.
        -13    1    3    3    0    0 -0.71661565203E+01 -0.19553164748E+02 -0.14413746898E+02  0.25326589794E+02  0.00000000000E+00 0.  1.
         14    1    3    3    0    0 -0.21493283820E+02  0.16785292995E+02  0.76254278432E+02  0.80984086644E+02  0.00000000000E+00 0. -1.
         -2    1    1    2    0  502  0.28659440340E+02  0.27678717527E+01  0.11559426341E+02  0.31026520462E+02  0.00000000000E+00 0.  1.
<mgrwt>
<rscale>  1 0.86473745E+02</rscale>
<asrwt>0</asrwt>
<pdfrwt beam="1">  1       21 0.16210550E-01 0.86473745E+02</pdfrwt>
<pdfrwt beam="2">  1       -1 0.49182492E-02 0.86473745E+02</pdfrwt>
<totfact> 0.50359561E+05</totfact>
</mgrwt>
</event>
<event>
 6    2  0.8544106E+000  0.9706572E+02  0.7546771E-02  0.1286590E+00
         -1   -1    0    0    0  501 -0.00000000000E+00  0.00000000000E+00  0.17775480114E+03  0.17775480114E+03  0.00000000000E+00 0.  1.
         21   -1    0    0  501  502  0.00000000000E+00 -0.00000000000E+00 -0.64923270729E+02  0.64923270729E+02  0.00000000000E+00 0. -1.
         24    2    1    2    0    0 -0.21843432517E+02 -0.17329432350E+02  0.16043312762E+03  0.18751144404E+03  0.92974773137E+02 0.  0.
        -11    1    3    3    0    0  0.25162164201E+02 -0.75656025224E+01  0.12528728605E+03  0.12801279973E+03  0.00000000000E+00 0.  1.
         12    1    3    3    0    0 -0.47005596717E+02 -0.97638298272E+01  0.35145841569E+02  0.59498644314E+02  0.00000000000E+00 0. -1.
         -2    1    1    2    0  502  0.21843432517E+02  0.17329432350E+02 -0.47601597204E+02  0.55166627829E+02  0.00000000000E+00 0.  1.
<mgrwt>
<rscale>  1 0.97065716E+02</rscale>
<asrwt>0</asrwt>
<pdfrwt beam="1">  1       21 0.99881955E-02 0.97065716E+02</pdfrwt>
<pdfrwt beam="2">  1       -1 0.27346892E-01 0.97065716E+02</pdfrwt>
<totfact> 0.86106988E+04</totfact>
</mgrwt>
</event>
<event>
 6    2  0.8544106E+000  0.9307026E+02  0.7546771E-02  0.1295582E+00
          2   -1    0    0  502    0 -0.00000000000E+00  0.00000000000E+00  0.87978615248E+03  0.87978615248E+03  0.00000000000E+00 0. -1.
         21   -1    0    0  501  502  0.00000000000E+00 -0.00000000000E+00 -0.12791571326E+02  0.12791571326E+02  0.00000000000E+00 0. -1.
         24    2    1    2    0    0  0.42023183871E+01  0.48652569010E+02  0.81843547082E+03  0.82371032116E+03  0.79229674603E+02 0.  0.
        -11    1    3    3    0    0  0.13775346702E+02 -0.36180753516E+01  0.27297514693E+02  0.30789689092E+02  0.00000000000E+00 0.  1.
         12    1    3    3    0    0 -0.95730283146E+01  0.52270644361E+02  0.79113795612E+03  0.79292063206E+03  0.00000000000E+00 0. -1.
          1    1    1    2  501    0 -0.42023183871E+01 -0.48652569010E+02  0.48559110338E+02  0.68867402651E+02  0.00000000000E+00 0. -1.
<mgrwt>
<rscale>  1 0.93070260E+02</rscale>
<asrwt>0</asrwt>
<pdfrwt beam="1">  1       21 0.19679347E-02 0.93070260E+02</pdfrwt>
<pdfrwt beam="2">  1        2 0.13535167E+00 0.93070260E+02</pdfrwt>
<totfact> 0.48387037E+05</totfact>
</mgrwt>
</event>
<event>
 6    2  0.8544106E+000  0.8473091E+02  0.7546771E-02  0.1316138E+00
         21   -1    0    0  501  502  0.00000000000E+00  0.00000000000E+00  0.19728056376E+01  0.19728056376E+01  0.00000000000E+00 0.  1.
          2   -1    0    0  502    0 -0.00000000000E+00 -0.00000000000E+00 -0.14594455511E+04  0.14594455511E+04  0.00000000000E+00 0. -1.
         24    2    1    2    0    0  0.18514617213E+02  0.12045876128E+02 -0.10950993763E+04  0.10983724190E+04  0.81801178527E+02 0.  0.
        -11    1    3    3    0    0 -0.39865532098E+01  0.20178254130E+02 -0.69150966436E+02  0.72145067089E+02  0.00000000000E+00 0.  1.
         12    1    3    3    0    0  0.22501170422E+02 -0.81323780014E+01 -0.10259484098E+04  0.10262273519E+04  0.00000000000E+00 0. -1.
          1    1    1    2  501    0 -0.18514617213E+02 -0.12045876128E+02 -0.36237336923E+03  0.36304593774E+03  0.00000000000E+00 0. -1.
<mgrwt>
<rscale>  1 0.84730909E+02</rscale>
<asrwt>0</asrwt>
<pdfrwt beam="1">  1       21 0.30350713E-03 0.84730909E+02</pdfrwt>
<pdfrwt beam="2">  1        2 0.22453114E+00 0.84730909E+02</pdfrwt>
<totfact> 0.41669581E+06</totfact>
</mgrwt>
</event>
<event>
 6    2  0.8544106E+000  0.9423061E+02  0.7546771E-02  0.1292918E+00
          2   -1    0    0  502    0 -0.00000000000E+00  0.00000000000E+00  0.76881091633E+03  0.76881091633E+03  0.00000000000E+00 0. -1.
         21   -1    0    0  501  502  0.00000000000E+00 -0.00000000000E+00 -0.72305415994E+01  0.72305415994E+01  0.00000000000E+00 0.  1.
         24    2    1    2    0    0 -0.49539890725E+02 -0.32360605692E+01  0.58794032072E+03  0.59544372479E+03  0.80092045756E+02 0.  0.
        -11    1    3    3    0    0 -0.20024566871E+02 -0.38141821632E+02  0.18657476168E+03  0.19148348110E+03  0.00000000000E+00 0.  1.
         12    1    3    3    0    0 -0.29515323854E+02  0.34905761063E+02  0.40136555904E+03  0.40396024369E+03  0.00000000000E+00 0. -1.
          1    1    1    2  501    0  0.49539890725E+02  0.32360605692E+01  0.17364005401E+03  0.18059773315E+03  0.00000000000E+00 0. -1.
<mgrwt>
<rscale>  1 0.94230614E+02</rscale>
<asrwt>0</asrwt>
<pdfrwt beam="1">  1       21 0.11123916E-02 0.94230614E+02</pdfrwt>
<pdfrwt beam="2">  1        2 0.11827854E+00 0.94230614E+02</pdfrwt>
<totfact> 0.14129143E+06</totfact>
</mgrwt>
</event>
<event>
 6    2  0.8544106E+000  0.8409611E+02  0.7546771E-02  0.1317813E+00
         21   -1    0    0  501  502  0.00000000000E+00  0.00000000000E+00  0.54935264307E+02  0.54935264307E+02  0.00000000000E+00 0.  1.
          2   -1    0    0  502    0 -0.00000000000E+00 -0.00000000000E+00 -0.77921798850E+02  0.77921798850E+02  0.00000000000E+00 0. -1.
         24    2    1    2    0    0 -0.54535633181E+01  0.24960153575E+02 -0.48226630703E+02  0.96943095491E+02  0.80121190924E+02 0.  0.
        -11    1    3    3    0    0 -0.18433624376E+02 -0.20489106421E+02  0.24199140474E+01  0.27666911168E+02  0.00000000000E+00 0.  1.
         12    1    3    3    0    0  0.12980061058E+02  0.45449259996E+02 -0.50646544751E+02  0.69276184324E+02  0.00000000000E+00 0. -1.
          1    1    1    2  501    0  0.54535633181E+01 -0.24960153575E+02  0.25240096160E+02  0.35913967666E+02  0.00000000000E+00 0. -1.
<mgrwt>
<rscale>  1 0.84096111E+02</rscale>
<asrwt>0</asrwt>
<pdfrwt beam="1">  1       21 0.84515791E-02 0.84096111E+02</pdfrwt>
<pdfrwt beam="2">  1        2 0.11987969E-01 0.84096111E+02</pdfrwt>
<totfact> 0.62997603E+05</totfact>
</mgrwt>
</event>
<event>
 6    2  0.8544106E+000  0.8893604E+02  0.7546771E-02  0.1305449E+00
          2   -1    0    0  502    0 -0.00000000000E+00  0.00000000000E+00  0.23501697707E+03  0.23501697707E+03  0.00000000000E+00 0. -1.
         21   -1    0    0  501  502  0.00000000000E+00 -0.00000000000E+00 -0.96298301349E+02  0.96298301349E+02  0.00000000000E+00 0. -1.
         24    2    1    2    0    0  0.30878861073E+02  0.43142616689E+01  0.22373431278E+03  0.24076266686E+03  0.83291668991E+02 0.  0.
        -13    1    3    3    0    0 -0.21148385663E+02  0.11621695518E+01  0.15878716894E+02  0.26471465853E+02  0.00000000000E+00 0.  1.
         14    1    3    3    0    0  0.52027246736E+02  0.31520921171E+01  0.20785559589E+03  0.21429120101E+03  0.00000000000E+00 0. -1.
          1    1    1    2  501    0 -0.30878861073E+02 -0.43142616689E+01 -0.85015637061E+02  0.90552611557E+02  0.00000000000E+00 0. -1.
<mgrwt>
<rscale>  1 0.88936039E+02</rscale>
<asrwt>0</asrwt>
<pdfrwt beam="1">  1       21 0.14815123E-01 0.88936039E+02</pdfrwt>
<pdfrwt beam="2">  1        2 0.36156458E-01 0.88936039E+02</pdfrwt>
<totfact> 0.69519727E+04</totfact>
</mgrwt>
</event>
<event>
 6    2  0.8544106E+000  0.8385448E+02  0.7546771E-02  0.1318456E+00
         -1   -1    0    0    0  501 -0.00000000000E+00  0.00000000000E+00  0.23213149773E+03  0.23213149773E+03  0.00000000000E+00 0.  1.
         21   -1    0    0  501  502  0.00000000000E+00 -0.00000000000E+00 -0.33508972256E+02  0.33508972256E+02  0.00000000000E+00 0. -1.
         24    2    1    2    0    0  0.20988239848E+02  0.15168352896E+02  0.21782104909E+03  0.23340433420E+03  0.79755806405E+02 0.  0.
        -11    1    3    3    0    0  0.21702655959E+02  0.43286600221E+02  0.17919627370E+03  0.18562338091E+03  0.00000000000E+00 0.  1.
         12    1    3    3    0    0 -0.71441611187E+00 -0.28118247324E+02  0.38624775392E+02  0.47780953287E+02  0.00000000000E+00 0. -1.
         -2    1    1    2    0  502 -0.20988239848E+02 -0.15168352896E+02 -0.19198523615E+02  0.32236135787E+02  0.00000000000E+00 0.  1.
<mgrwt>
<rscale>  1 0.83854480E+02</rscale>
<asrwt>0</asrwt>
<pdfrwt beam="1">  1       21 0.51552266E-02 0.83854480E+02</pdfrwt>
<pdfrwt beam="2">  1       -1 0.35712537E-01 0.83854480E+02</pdfrwt>
<totfact> 0.16775730E+05</totfact>
</mgrwt>
</event>
<event>
 6    2  0.8544106E+000  0.7819178E+02  0.7546771E-02  0.1334263E+00
         21   -1    0    0  501  502  0.00000000000E+00  0.00000000000E+00  0.89516911692E+02  0.89516911692E+02  0.00000000000E+00 0. -1.
         -1   -1    0    0    0  501 -0.00000000000E+00 -0.00000000000E+00 -0.44694261292E+02  0.44694261292E+02  0.00000000000E+00 0.  1.
         24    2    1    2    0    0  0.11990876319E+02  0.16190686723E+02 -0.71031068872E+01  0.78513742869E+02  0.75551533674E+02 0.  0.
        -13    1    3    3    0    0  0.22368182603E+02  0.17529848038E+02 -0.37106102233E+02  0.46738570668E+02  0.00000000000E+00 0.  1.
         14    1    3    3    0    0 -0.10377306283E+02 -0.13391613144E+01  0.30002995346E+02  0.31775172201E+02  0.00000000000E+00 0. -1.
         -2    1    1    2    0  502 -0.11990876319E+02 -0.16190686723E+02  0.51925757287E+02  0.55697430114E+02  0.00000000000E+00 0.  1.
<mgrwt>
<rscale>  1 0.78191775E+02</rscale>
<asrwt>0</asrwt>
<pdfrwt beam="1">  1       21 0.13771832E-01 0.78191775E+02</pdfrwt>
<pdfrwt beam="2">  1       -1 0.68760402E-02 0.78191775E+02</pdfrwt>
<totfact> 0.40714444E+05</totfact>
</mgrwt>
</event>
<event>
 6    2  0.8544106E+000  0.8563794E+02  0.7546771E-02  0.1313773E+00
          2   -1    0    0  502    0 -0.00000000000E+00  0.00000000000E+00  0.62889695822E+01  0.62889695822E+01  0.00000000000E+00 0. -1.
         21   -1    0    0  501  502  0.00000000000E+00 -0.00000000000E+00 -0.49101135594E+03  0.49101135594E+03  0.00000000000E+00 0. -1.
         24    2    1    2    0    0  0.22720258598E+02  0.93135159075E+00 -0.42153025151E+03  0.43014138365E+03  0.82563790035E+02 0.  0.
        -13    1    3    3    0    0 -0.18278898269E+02  0.14696384430E+02 -0.30405301566E+03  0.30495628895E+03  0.00000000000E+00 0.  1.
         14    1    3    3    0    0  0.40999156867E+02 -0.13765032839E+02 -0.11747723586E+03  0.12518509471E+03  0.00000000000E+00 0. -1.
          1    1    1    2  501    0 -0.22720258598E+02 -0.93135159075E+00 -0.63192134843E+02  0.67158941866E+02  0.00000000000E+00 0. -1.
<mgrwt>
<rscale>  1 0.85637941E+02</rscale>
<asrwt>0</asrwt>
<pdfrwt beam="1">  1       21 0.75540220E-01 0.85637941E+02</pdfrwt>
<pdfrwt beam="2">  1        2 0.96753364E-03 0.85637941E+02</pdfrwt>
<totfact> 0.26381512E+05</totfact>
</mgrwt>
</event>
<event>
 6    2  0.8544106E+000  0.8704739E+02  0.7546771E-02  0.1310164E+00
          2   -1    0    0  502    0 -0.00000000000E+00  0.00000000000E+00  0.10253948623E+04  0.10253948623E+04  0.00000000000E+00 0. -1.
         21   -1    0    0  501  502  0.00000000000E+00 -0.00000000000E+00 -0.38869562685E+01  0.38869562685E+01  0.00000000000E+00 0. -1.
         24    2    1    2    0    0  0.12068032981E+02  0.26841926967E+02  0.54898450965E+03  0.55584281871E+03  0.81921430697E+02 0.  0.
        -11    1    3    3    0    0 -0.34950615531E+02  0.10827111128E+02  0.19674998780E+03  0.20012328591E+03  0.00000000000E+00 0.  1.
         12    1    3    3    0    0  0.47018648512E+02  0.16014815838E+02  0.35223452185E+03  0.35571953280E+03  0.00000000000E+00 0. -1.
          1    1    1    2  501    0 -0.12068032981E+02 -0.26841926967E+02  0.47252339633E+03  0.47343899982E+03  0.00000000000E+00 0. -1.
<mgrwt>
<rscale>  1 0.87047385E+02</rscale>
<asrwt>0</asrwt>
<pdfrwt beam="1">  1       21 0.59799409E-03 0.87047385E+02</pdfrwt>
<pdfrwt beam="2">  1        2 0.15775284E+00 0.87047385E+02</pdfrwt>
<totfact> 0.25449703E+06</totfact>
</mgrwt>
</event>
<event>
 6    2  0.8544106E+000  0.8944188E+02  0.7546771E-02  0.1304209E+00
         21   -1    0    0  501  502  0.00000000000E+00  0.00000000000E+00  0.29134713592E+02  0.29134713592E+02  0.00000000000E+00 0. -1.
         -1   -1    0    0    0  501 -0.00000000000E+00 -0.00000000000E+00 -0.13594257833E+03  0.13594257833E+03  0.00000000000E+00 0.  1.
         24    2    1    2    0    0 -0.22251274955E+02 -0.33878918612E+01 -0.11061312918E+03  0.14225017897E+03  0.86563572138E+02 0.  0.
        -13    1    3    3    0    0 -0.27207859903E+02  0.23856987477E+02 -0.10861712654E+03  0.11448625974E+03  0.00000000000E+00 0.  1.
         14    1    3    3    0    0  0.49565849476E+01 -0.27244879338E+02 -0.19960026445E+01  0.27763919231E+02  0.00000000000E+00 0. -1.
         -2    1    1    2    0  502  0.22251274955E+02  0.33878918612E+01  0.38052644415E+01  0.22827112955E+02  0.00000000000E+00 0.  1.
<mgrwt>
<rscale>  1 0.89441875E+02</rscale>
<asrwt>0</asrwt>
<pdfrwt beam="1">  1       21 0.44822635E-02 0.89441875E+02</pdfrwt>
<pdfrwt beam="2">  1       -1 0.20914243E-01 0.89441875E+02</pdfrwt>
<totfact> 0.51267022E+05</totfact>
</mgrwt>
</event>
<event>
 6    2  0.8544106E+000  0.7776173E+02  0.7546771E-02  0.1335526E+00
          2   -1    0    0  502    0 -0.00000000000E+00  0.00000000000E+00  0.73854470241E+03  0.73854470241E+03  0.00000000000E+00 0. -1.
         21   -1    0    0  501  502  0.00000000000E+00 -0.00000000000E+00 -0.34906419068E+01  0.34906419068E+01  0.00000000000E+00 0.  1.
         24    2    1    2    0    0  0.17832904648E+02 -0.14066948217E+02  0.51945417806E+03  0.52524235359E+03  0.74370662069E+02 0.  0.
        -13    1    3    3    0    0  0.11434595932E+02 -0.16039522556E+02  0.30914660072E+02  0.36656956711E+02  0.00000000000E+00 0.  1.
         14    1    3    3    0    0  0.63983087169E+01  0.19725743386E+01  0.48853951799E+03  0.48858539688E+03  0.00000000000E+00 0. -1.
          1    1    1    2  501    0 -0.17832904648E+02  0.14066948217E+02  0.21559988245E+03  0.21679299073E+03  0.00000000000E+00 0. -1.
<mgrwt>
<rscale>  1 0.77761732E+02</rscale>
<asrwt>0</asrwt>
<pdfrwt beam="1">  1       21 0.53702242E-03 0.77761732E+02</pdfrwt>
<pdfrwt beam="2">  1        2 0.11362214E+00 0.77761732E+02</pdfrwt>
<totfact> 0.44829712E+06</totfact>
</mgrwt>
</event>
<event>
 6    2  0.8544106E+000  0.9426008E+02  0.7546771E-02  0.1292851E+00
         21   -1    0    0  501  502  0.00000000000E+00  0.00000000000E+00  0.21348663169E+02  0.21348663169E+02  0.00000000000E+00 0. -1.
          2   -1    0    0  502    0 -0.00000000000E+00 -0.00000000000E+00 -0.27521325876E+03  0.27521325876E+03  0.00000000000E+00 0. -1.
         24    2    1    2    0    0 -0.37804150218E+02 -0.30098602757E+02 -0.21427961672E+03  0.23409552925E+03  0.80931347538E+02 0.  0.
        -11    1    3    3    0    0 -0.61061285708E+01  0.13638678852E+02 -0.20299972440E+01  0.15080426246E+02  0.00000000000E+00 0.  1.
         12    1    3    3    0    0 -0.31698021647E+02 -0.43737281609E+02 -0.21224961947E+03  0.21901510301E+03  0.00000000000E+00 0. -1.
          1    1    1    2  501    0  0.37804150218E+02  0.30098602757E+02 -0.39584978875E+02  0.62466392678E+02  0.00000000000E+00 0. -1.
<mgrwt>
<rscale>  1 0.94260080E+02</rscale>
<asrwt>0</asrwt>
<pdfrwt beam="1">  1       21 0.32844100E-02 0.94260080E+02</pdfrwt>
<pdfrwt beam="2">  1        2 0.42340498E-01 0.94260080E+02</pdfrwt>
<totfact> 0.76470370E+05</totfact>
</mgrwt>
</event>
<event>
 6    2  0.1101797E+001  0.8374040E+02  0.7546771E-02  0.1318760E+00
         21   -1    0    0  501  502  0.00000000000E+00  0.00000000000E+00  0.17187602512E+01  0.17187602512E+01  0.00000000000E+00 0. -1.
         -1   -1    0    0    0  501 -0.00000000000E+00 -0.00000000000E+00 -0.19646576970E+04  0.19646576970E+04  0.00000000000E+00 0.  1.
         24    2    1    2    0    0  0.14772590517E+02 -0.17962249450E+02 -0.11239475924E+04  0.11270628403E+04  0.80446152892E+02 0.  0.
        -11    1    3    3    0    0 -0.91726470546E+01 -0.91605252648E+01 -0.10181602816E+04  0.10182428058E+04  0.00000000000E+00 0.  1.
         12    1    3    3    0    0  0.23945237572E+02 -0.88017241853E+01 -0.10578731088E+03  0.10882003444E+03  0.00000000000E+00 0. -1.
         -2    1    1    2    0  502 -0.14772590517E+02  0.17962249450E+02 -0.83899134432E+03  0.83931361700E+03  0.00000000000E+00 0.  1.
<mgrwt>
<rscale>  1 0.83740405E+02</rscale>
<asrwt>0</asrwt>
<pdfrwt beam="1">  1       21 0.26442591E-03 0.83740405E+02</pdfrwt>
<pdfrwt beam="2">  1       -1 0.30225359E+00 0.83740405E+02</pdfrwt>
<totfact> 0.10430637E+05</totfact>
</mgrwt>
</event>
<event>
 6    2  0.8544106E+000  0.8676104E+02  0.7546771E-02  0.1310890E+00
         21   -1    0    0  501  502  0.00000000000E+00  0.00000000000E+00  0.52337359186E+01  0.52337359186E+01  0.00000000000E+00 0. -1.
          2   -1    0    0  502    0 -0.00000000000E+00 -0.00000000000E+00 -0.93358981571E+03  0.93358981571E+03  0.00000000000E+00 0. -1.
         24    2    1    2    0    0 -0.26872993207E+02  0.10800534865E+02 -0.86284409106E+03  0.86719513559E+03  0.81784279601E+02 0.  0.
        -13    1    3    3    0    0 -0.15327567313E+02 -0.35387480905E+02 -0.33664869224E+03  0.33885033586E+03  0.00000000000E+00 0.  1.
         14    1    3    3    0    0 -0.11545425894E+02  0.46188015770E+02 -0.52619539882E+03  0.52834479972E+03  0.00000000000E+00 0. -1.
          1    1    1    2  501    0  0.26872993207E+02 -0.10800534865E+02 -0.65511988735E+02  0.71628416046E+02  0.00000000000E+00 0. -1.
<mgrwt>
<rscale>  1 0.86761038E+02</rscale>
<asrwt>0</asrwt>
<pdfrwt beam="1">  1       21 0.80519010E-03 0.86761038E+02</pdfrwt>
<pdfrwt beam="2">  1        2 0.14362921E+00 0.86761038E+02</pdfrwt>
<totfact> 0.18206543E+06</totfact>
</mgrwt>
</event>
<event>
 6    2  0.8544106E+000  0.8370682E+02  0.7546771E-02  0.1318849E+00
          4   -1    0    0  502    0 -0.00000000000E+00  0.00000000000E+00  0.33078676976E+02  0.33078676976E+02  0.00000000000E+00 0. -1.
         21   -1    0    0  501  502  0.00000000000E+00 -0.00000000000E+00 -0.96446096472E+02  0.96446096472E+02  0.00000000000E+00 0.  1.
         24    2    1    2    0    0 -0.20101121480E+02 -0.65375974753E+01 -0.27895691378E+02  0.88232658448E+02  0.80994056287E+02 0.  0.
        -11    1    3    3    0    0  0.30826263729E+02 -0.77125170368E+01 -0.17375720593E+02  0.36216807157E+02  0.00000000000E+00 0.  1.
         12    1    3    3    0    0 -0.50927385209E+02  0.11749195615E+01 -0.10519970785E+02  0.52015851291E+02  0.00000000000E+00 0. -1.
          3    1    1    2  501    0  0.20101121480E+02  0.65375974753E+01 -0.35471728119E+02  0.41292115001E+02  0.00000000000E+00 0. -1.
<mgrwt>
<rscale>  1 0.83706824E+02</rscale>
<asrwt>0</asrwt>
<pdfrwt beam="1">  1       21 0.14837861E-01 0.83706824E+02</pdfrwt>
<pdfrwt beam="2">  1        4 0.50890273E-02 0.83706824E+02</pdfrwt>
<totfact> 0.34069775E+05</totfact>
</mgrwt>
</event>
<event>
 6    2  0.8544106E+000  0.1033364E+03  0.7546771E-02  0.1273432E+00
          2   -1    0    0  502    0 -0.00000000000E+00  0.00000000000E+00  0.48494681445E+03  0.48494681445E+03  0.00000000000E+00 0. -1.
         21   -1    0    0  501  502  0.00000000000E+00 -0.00000000000E+00 -0.17367595781E+02  0.17367595781E+02  0.00000000000E+00 0. -1.
         24    2    1    2    0    0  0.42385154658E+02 -0.47252276398E+02  0.38220520681E+03  0.39592831687E+03  0.81542216206E+02 0.  0.
        -11    1    3    3    0    0 -0.23302869800E+02 -0.34856118432E+01  0.68253807821E+02  0.72206339839E+02  0.00000000000E+00 0.  1.
         12    1    3    3    0    0  0.65688024458E+02 -0.43766664555E+02  0.31395139899E+03  0.32372197703E+03  0.00000000000E+00 0. -1.
          1    1    1    2  501    0 -0.42385154658E+02  0.47252276398E+02  0.85374011855E+02  0.10638609336E+03  0.00000000000E+00 0. -1.
<mgrwt>
<rscale>  1 0.10333640E+03</rscale>
<asrwt>0</asrwt>
<pdfrwt beam="1">  1       21 0.26719382E-02 0.10333640E+03</pdfrwt>
<pdfrwt beam="2">  1        2 0.74607192E-01 0.10333640E+03</pdfrwt>
<totfact> 0.59313953E+05</totfact>
</mgrwt>
</event>
<event>
 6    2  0.8544106E+000  0.7656770E+02  0.7546771E-02  0.1339084E+00
          2   -1    0    0  502    0 -0.00000000000E+00  0.00000000000E+00  0.80930455868E+03  0.80930455868E+03  0.00000000000E+00 0. -1.
         21   -1    0    0  501  502  0.00000000000E+00 -0.00000000000E+00 -0.46067544733E+01  0.46067544733E+01  0.00000000000E+00 0.  1.
         24    2    1    2    0    0 -0.15882268109E+01  0.42933737804E+02  0.43059606181E+03  0.43735063814E+03  0.63378102878E+02 0.  0.
        -11    1    3    3    0    0 -0.10047303065E+02  0.37633928055E+02  0.11167275995E+03  0.11827115521E+03  0.00000000000E+00 0.  1.
         12    1    3    3    0    0  0.84590762542E+01  0.52998097487E+01  0.31892330187E+03  0.31907948293E+03  0.00000000000E+00 0. -1.
          1    1    1    2  501    0  0.15882268109E+01 -0.42933737804E+02  0.37410174239E+03  0.37656067502E+03  0.00000000000E+00 0. -1.
<mgrwt>
<rscale>  1 0.76567697E+02</rscale>
<asrwt>0</asrwt>
<pdfrwt beam="1">  1       21 0.70873210E-03 0.76567697E+02</pdfrwt>
<pdfrwt beam="2">  1        2 0.12450828E+00 0.76567697E+02</pdfrwt>
<totfact> 0.26193172E+06</totfact>
</mgrwt>
</event>
<event>
 6    2  0.8544106E+000  0.7769326E+02  0.7546771E-02  0.1335728E+00
         21   -1    0    0  501  502  0.00000000000E+00  0.00000000000E+00  0.16399469060E+01  0.16399469060E+01  0.00000000000E+00 0.  1.
          2   -1    0    0  502    0 -0.00000000000E+00 -0.00000000000E+00 -0.22321777923E+04  0.22321777923E+04  0.00000000000E+00 0. -1.
         24    2    1    2    0    0 -0.28294427614E+02  0.87848923359E+01 -0.19816987423E+04  0.19832211547E+04  0.71822656679E+02 0.  0.
        -11    1    3    3    0    0 -0.49976977955E+02 -0.28582994099E+01 -0.10439270351E+04  0.10451265583E+04  0.00000000000E+00 0.  1.
         12    1    3    3    0    0  0.21682550342E+02  0.11643191746E+02 -0.93777170720E+03  0.93809459636E+03  0.00000000000E+00 0. -1.
          1    1    1    2  501    0  0.28294427614E+02 -0.87848923359E+01 -0.24883910310E+03  0.25059658457E+03  0.00000000000E+00 0. -1.
<mgrwt>
<rscale>  1 0.77693262E+02</rscale>
<asrwt>0</asrwt>
<pdfrwt beam="1">  1       21 0.25229885E-03 0.77693262E+02</pdfrwt>
<pdfrwt beam="2">  1        2 0.34341288E+00 0.77693262E+02</pdfrwt>
<totfact> 0.22372328E+06</totfact>
</mgrwt>
</event>
<event>
 6    2  0.8544106E+000  0.9859105E+02  0.7546771E-02  0.1283287E+00
         21   -1    0    0  501  502  0.00000000000E+00  0.00000000000E+00  0.12913808929E+02  0.12913808929E+02  0.00000000000E+00 0. -1.
          2   -1    0    0  502    0 -0.00000000000E+00 -0.00000000000E+00 -0.16120452896E+04  0.16120452896E+04  0.00000000000E+00 0. -1.
         24    2    1    2    0    0  0.24218577048E+02  0.46699000350E+02 -0.15495086059E+04  0.15526419788E+04  0.83383801849E+02 0.  0.
        -11    1    3    3    0    0  0.87972189257E+01  0.34800815028E+02 -0.21387281524E+03  0.21686417151E+03  0.00000000000E+00 0.  1.
         12    1    3    3    0    0  0.15421358122E+02  0.11898185322E+02 -0.13356357907E+04  0.13357778073E+04  0.00000000000E+00 0. -1.
          1    1    1    2  501    0 -0.24218577048E+02 -0.46699000350E+02 -0.49622874772E+02  0.72317119747E+02  0.00000000000E+00 0. -1.
<mgrwt>
<rscale>  1 0.98591047E+02</rscale>
<asrwt>0</asrwt>
<pdfrwt beam="1">  1       21 0.19867406E-02 0.98591047E+02</pdfrwt>
<pdfrwt beam="2">  1        2 0.24800687E+00 0.98591047E+02</pdfrwt>
<totfact> 0.18988158E+05</totfact>
</mgrwt>
</event>
<event>
 6    2  0.8544106E+000  0.8296609E+02  0.7546771E-02  0.1320839E+00
         21   -1    0    0  501  502  0.00000000000E+00  0.00000000000E+00  0.38390984779E+01  0.38390984779E+01  0.00000000000E+00 0.  1.
          2   -1    0    0  502    0 -0.00000000000E+00 -0.00000000000E+00 -0.87376536342E+03  0.87376536342E+03  0.00000000000E+00 0. -1.
         24    2    1    2    0    0 -0.39787654885E+01  0.24404216589E+02 -0.49857541857E+03  0.50543132011E+03  0.79195801595E+02 0.  0.
        -11    1    3    3    0    0 -0.92223011167E+01 -0.78465805923E+01 -0.98340871456E+01  0.15599004291E+02  0.00000000000E+00 0.  1.
         12    1    3    3    0    0  0.52435356282E+01  0.32250797181E+02 -0.48874133142E+03  0.48983231582E+03  0.00000000000E+00 0. -1.
          1    1    1    2  501    0  0.39787654885E+01 -0.24404216589E+02 -0.37135084638E+03  0.37217314179E+03  0.00000000000E+00 0. -1.
<mgrwt>
<rscale>  1 0.82966086E+02</rscale>
<asrwt>0</asrwt>
<pdfrwt beam="1">  1       21 0.59063014E-03 0.82966086E+02</pdfrwt>
<pdfrwt beam="2">  1        2 0.13442553E+00 0.82966086E+02</pdfrwt>
<totfact> 0.31824025E+06</totfact>
</mgrwt>
</event>
<event>
 6    2  0.8544106E+000  0.9005801E+02  0.7546771E-02  0.1302711E+00
          2   -1    0    0  502    0 -0.00000000000E+00  0.00000000000E+00  0.60238230467E+03  0.60238230467E+03  0.00000000000E+00 0. -1.
         21   -1    0    0  501  502  0.00000000000E+00 -0.00000000000E+00 -0.87925378901E+01  0.87925378901E+01  0.00000000000E+00 0. -1.
         24    2    1    2    0    0  0.10793401681E+02  0.39513944815E+02  0.26160044194E+03  0.27666809949E+03  0.80203470592E+02 0.  0.
        -13    1    3    3    0    0  0.23351129180E+02 -0.13947873717E+02  0.40051245349E+02  0.48414054459E+02  0.00000000000E+00 0.  1.
         14    1    3    3    0    0 -0.12557727499E+02  0.53461818532E+02  0.22154919659E+03  0.22825404503E+03  0.00000000000E+00 0. -1.
          1    1    1    2  501    0 -0.10793401681E+02 -0.39513944815E+02  0.33198932484E+03  0.33450674308E+03  0.00000000000E+00 0. -1.
<mgrwt>
<rscale>  1 0.90058015E+02</rscale>
<asrwt>0</asrwt>
<pdfrwt beam="1">  1       21 0.13526986E-02 0.90058015E+02</pdfrwt>
<pdfrwt beam="2">  1        2 0.92674169E-01 0.90058015E+02</pdfrwt>
<totfact> 0.13720985E+06</totfact>
</mgrwt>
</event>
<event>
 6    2  0.8544106E+000  0.8288324E+02  0.7546771E-02  0.1321063E+00
         21   -1    0    0  501  502  0.00000000000E+00  0.00000000000E+00  0.21816334189E+01  0.21816334189E+01  0.00000000000E+00 0.  1.
          2   -1    0    0  502    0 -0.00000000000E+00 -0.00000000000E+00 -0.12996853849E+04  0.12996853849E+04  0.00000000000E+00 0. -1.
         24    2    1    2    0    0 -0.14113795676E+02 -0.15178534690E+02 -0.11393808177E+04  0.11423914737E+04  0.80249886593E+02 0.  0.
        -11    1    3    3    0    0 -0.27549512910E+02 -0.11002185254E+02 -0.14971789337E+03  0.15262854038E+03  0.00000000000E+00 0.  1.
         12    1    3    3    0    0  0.13435717234E+02 -0.41763494355E+01 -0.98966292431E+03  0.98976293330E+03  0.00000000000E+00 0. -1.
          1    1    1    2  501    0  0.14113795676E+02  0.15178534690E+02 -0.15812293382E+03  0.15947554466E+03  0.00000000000E+00 0. -1.
<mgrwt>
<rscale>  1 0.82883240E+02</rscale>
<asrwt>0</asrwt>
<pdfrwt beam="1">  1       21 0.33563696E-03 0.82883240E+02</pdfrwt>
<pdfrwt beam="2">  1        2 0.19995097E+00 0.82883240E+02</pdfrwt>
<totfact> 0.43210392E+06</totfact>
</mgrwt>
</event>
<event>
 6    2  0.8544106E+000  0.8960049E+02  0.7546771E-02  0.1303822E+00
         21   -1    0    0  501  502  0.00000000000E+00  0.00000000000E+00  0.69267762513E+02  0.69267762513E+02  0.00000000000E+00 0. -1.
          2   -1    0    0  502    0 -0.00000000000E+00 -0.00000000000E+00 -0.26357806101E+03  0.26357806101E+03  0.00000000000E+00 0. -1.
         24    2    1    2    0    0  0.39359390498E+02 -0.12881615985E+02 -0.24877824035E+03  0.26442174632E+03  0.79455329626E+02 0.  0.
        -13    1    3    3    0    0  0.13047551666E+02 -0.27540847897E+01  0.70197366531E+00  0.13353514689E+02  0.00000000000E+00 0.  1.
         14    1    3    3    0    0  0.26311838832E+02 -0.10127531195E+02 -0.24948021401E+03  0.25106823163E+03  0.00000000000E+00 0. -1.
          1    1    1    2  501    0 -0.39359390498E+02  0.12881615985E+02  0.54467941854E+02  0.68424077199E+02  0.00000000000E+00 0. -1.
<mgrwt>
<rscale>  1 0.89600486E+02</rscale>
<asrwt>0</asrwt>
<pdfrwt beam="1">  1       21 0.10656579E-01 0.89600486E+02</pdfrwt>
<pdfrwt beam="2">  1        2 0.40550471E-01 0.89600486E+02</pdfrwt>
<totfact> 0.11010598E+05</totfact>
</mgrwt>
</event>
<event>
 6    2  0.8544106E+000  0.1199241E+03  0.7546771E-02  0.1243222E+00
         21   -1    0    0  501  502  0.00000000000E+00  0.00000000000E+00  0.28785451565E+02  0.28785451565E+02  0.00000000000E+00 0. -1.
          2   -1    0    0  502    0 -0.00000000000E+00 -0.00000000000E+00 -0.57613460388E+03  0.57613460388E+03  0.00000000000E+00 0. -1.
         24    2    1    2    0    0  0.83854464616E+02 -0.31688485183E+02 -0.47446815829E+03  0.48938923436E+03  0.79662150068E+02 0.  0.
        -13    1    3    3    0    0 -0.15582091923E+02 -0.42882773595E+01 -0.83165648855E+02  0.84721402614E+02  0.00000000000E+00 0.  1.
         14    1    3    3    0    0  0.99436556539E+02 -0.27400207823E+02 -0.39130250943E+03  0.40466783175E+03  0.00000000000E+00 0. -1.
          1    1    1    2  501    0 -0.83854464616E+02  0.31688485183E+02 -0.72880994027E+02  0.11553082108E+03  0.00000000000E+00 0. -1.
<mgrwt>
<rscale>  1 0.11992410E+03</rscale>
<asrwt>0</asrwt>
<pdfrwt beam="1">  1       21 0.44285312E-02 0.11992410E+03</pdfrwt>
<pdfrwt beam="2">  1        2 0.88636090E-01 0.11992410E+03</pdfrwt>
<totfact> 0.21575482E+05</totfact>
</mgrwt>
</event>
<event>
 6    2  0.8544106E+000  0.9052301E+02  0.7546771E-02  0.1301590E+00
          2   -1    0    0  502    0 -0.00000000000E+00  0.00000000000E+00  0.15374805865E+03  0.15374805865E+03  0.00000000000E+00 0. -1.
         21   -1    0    0  501  502  0.00000000000E+00 -0.00000000000E+00 -0.27460941577E+02  0.27460941577E+02  0.00000000000E+00 0.  1.
         24    2    1    2    0    0  0.13810709464E+02 -0.36933519197E+02  0.87706498030E+02  0.12604302610E+03  0.81483704473E+02 0.  0.
        -13    1    3    3    0    0  0.11272605187E+02  0.88146399575E+00 -0.13712932273E+02  0.17773382289E+02  0.00000000000E+00 0.  1.
         14    1    3    3    0    0  0.25381042766E+01 -0.37814983193E+02  0.10141943030E+03  0.10826964381E+03  0.00000000000E+00 0. -1.
          1    1    1    2  501    0 -0.13810709464E+02  0.36933519197E+02  0.38580619045E+02  0.55165974133E+02  0.00000000000E+00 0. -1.
<mgrwt>
<rscale>  1 0.90523006E+02</rscale>
<asrwt>0</asrwt>
<pdfrwt beam="1">  1       21 0.42247603E-02 0.90523006E+02</pdfrwt>
<pdfrwt beam="2">  1        2 0.23653547E-01 0.90523006E+02</pdfrwt>
<totfact> 0.93785817E+05</totfact>
</mgrwt>
</event>
<event>
 6    2  0.8544106E+000  0.8666994E+02  0.7546771E-02  0.1311122E+00
          2   -1    0    0  502    0 -0.00000000000E+00  0.00000000000E+00  0.18433302324E+03  0.18433302324E+03  0.00000000000E+00 0. -1.
         21   -1    0    0  501  502  0.00000000000E+00 -0.00000000000E+00 -0.86842242142E+02  0.86842242142E+02  0.00000000000E+00 0. -1.
         24    2    1    2    0    0  0.23129294831E+01  0.30810039468E+02  0.17084946172E+03  0.19157561591E+03  0.80975736268E+02 0.  0.
        -11    1    3    3    0    0 -0.13133043676E+02  0.47195492891E+02  0.55410388776E+02  0.73960817801E+02  0.00000000000E+00 0.  1.
         12    1    3    3    0    0  0.15445973159E+02 -0.16385453423E+02  0.11543907295E+03  0.11761479810E+03  0.00000000000E+00 0. -1.
          1    1    1    2  501    0 -0.23129294831E+01 -0.30810039468E+02 -0.73358680620E+02  0.79599649479E+02  0.00000000000E+00 0. -1.
<mgrwt>
<rscale>  1 0.86669937E+02</rscale>
<asrwt>0</asrwt>
<pdfrwt beam="1">  1       21 0.13360345E-01 0.86669937E+02</pdfrwt>
<pdfrwt beam="2">  1        2 0.28358926E-01 0.86669937E+02</pdfrwt>
<totfact> 0.10800126E+05</totfact>
</mgrwt>
</event>
<event>
 6    2  0.8544106E+000  0.1034714E+03  0.7546771E-02  0.1273161E+00
          2   -1    0    0  502    0 -0.00000000000E+00  0.00000000000E+00  0.24560189096E+02  0.24560189096E+02  0.00000000000E+00 0. -1.
         21   -1    0    0  501  502  0.00000000000E+00 -0.00000000000E+00 -0.29912616151E+03  0.29912616151E+03  0.00000000000E+00 0. -1.
         24    2    1    2    0    0  0.24144940559E+02 -0.61979913808E+02 -0.18704513959E+03  0.21375735512E+03  0.79258026432E+02 0.  0.
        -13    1    3    3    0    0 -0.29081059539E+02 -0.23890655505E+02 -0.77343228464E+02  0.86014222276E+02  0.00000000000E+00 0.  1.
         14    1    3    3    0    0  0.53226000098E+02 -0.38089258303E+02 -0.10970191112E+03  0.12774313284E+03  0.00000000000E+00 0. -1.
          1    1    1    2  501    0 -0.24144940559E+02  0.61979913808E+02 -0.87520832825E+02  0.10992899549E+03  0.00000000000E+00 0. -1.
<mgrwt>
<rscale>  1 0.10347136E+03</rscale>
<asrwt>0</asrwt>
<pdfrwt beam="1">  1       21 0.46019410E-01 0.10347136E+03</pdfrwt>
<pdfrwt beam="2">  1        2 0.37784906E-02 0.10347136E+03</pdfrwt>
<totfact> 0.12049993E+05</totfact>
</mgrwt>
</event>
<event>
 6    2  0.8544106E+000  0.1242866E+03  0.7546771E-02  0.1236188E+00
         -3   -1    0    0    0  501 -0.00000000000E+00  0.00000000000E+00  0.48275906938E+02  0.48275906938E+02  0.00000000000E+00 0.  1.
         21   -1    0    0  501  502  0.00000000000E+00 -0.00000000000E+00 -0.26451723359E+03  0.26451723359E+03  0.00000000000E+00 0.  1.
         24    2    1    2    0    0  0.27220480964E+02 -0.90776754033E+02 -0.15996507760E+03  0.20257340607E+03  0.80410105945E+02 0.  0.
        -11    1    3    3    0    0  0.54847138201E+02 -0.47246189684E+02 -0.85985809218E+02  0.11240093592E+03  0.00000000000E+00 0.  1.
         12    1    3    3    0    0 -0.27626657237E+02 -0.43530564349E+02 -0.73979268385E+02  0.90172470153E+02  0.00000000000E+00 0. -1.
         -4    1    1    2    0  502 -0.27220480964E+02  0.90776754033E+02 -0.56276249048E+02  0.11021973446E+03  0.00000000000E+00 0.  1.
<mgrwt>
<rscale>  1 0.12428660E+03</rscale>
<asrwt>0</asrwt>
<pdfrwt beam="1">  1       21 0.40694958E-01 0.12428660E+03</pdfrwt>
<pdfrwt beam="2">  1       -3 0.74270628E-02 0.12428660E+03</pdfrwt>
<totfact> 0.33458119E+04</totfact>
</mgrwt>
</event>
<event>
 6    2  0.8544106E+000  0.8292130E+02  0.7546771E-02  0.1320960E+00
         21   -1    0    0  501  502  0.00000000000E+00  0.00000000000E+00  0.33337374878E+03  0.33337374878E+03  0.00000000000E+00 0. -1.
          2   -1    0    0  502    0 -0.00000000000E+00 -0.00000000000E+00 -0.13597787235E+03  0.13597787235E+03  0.00000000000E+00 0. -1.
         24    2    1    2    0    0  0.23672793071E+02 -0.79443135313E+01 -0.12280478789E+03  0.14817880367E+03  0.79072300333E+02 0.  0.
        -11    1    3    3    0    0  0.13486263450E+02  0.29616385550E+02 -0.19861223949E+02  0.38124504084E+02  0.00000000000E+00 0.  1.
         12    1    3    3    0    0  0.10186529621E+02 -0.37560699081E+02 -0.10294356394E+03  0.11005429959E+03  0.00000000000E+00 0. -1.
          1    1    1    2  501    0 -0.23672793071E+02  0.79443135313E+01  0.32020066431E+03  0.32117281746E+03  0.00000000000E+00 0. -1.
<mgrwt>
<rscale>  1 0.82921300E+02</rscale>
<asrwt>0</asrwt>
<pdfrwt beam="1">  1       21 0.51288269E-01 0.82921300E+02</pdfrwt>
<pdfrwt beam="2">  1        2 0.20919673E-01 0.82921300E+02</pdfrwt>
<totfact> 0.11883654E+04</totfact>
</mgrwt>
</event>
<event>
 6    2  0.8544106E+000  0.8987181E+02  0.7546771E-02  0.1303162E+00
          2   -1    0    0  502    0 -0.00000000000E+00  0.00000000000E+00  0.46150200418E+03  0.46150200418E+03  0.00000000000E+00 0. -1.
         21   -1    0    0  501  502  0.00000000000E+00 -0.00000000000E+00 -0.11370822577E+02  0.11370822577E+02  0.00000000000E+00 0.  1.
         24    2    1    2    0    0 -0.42309401638E+02  0.11119320934E+02  0.20450381211E+03  0.22338028296E+03  0.78506158252E+02 0.  0.
        -13    1    3    3    0    0 -0.45009687507E+02  0.92359586427E+01  0.46601575807E+02  0.65443729793E+02  0.00000000000E+00 0.  1.
         14    1    3    3    0    0  0.27002858689E+01  0.18833622911E+01  0.15790223630E+03  0.15793655317E+03  0.00000000000E+00 0. -1.
          1    1    1    2  501    0  0.42309401638E+02 -0.11119320934E+02  0.24562736950E+03  0.24949254380E+03  0.00000000000E+00 0. -1.
<mgrwt>
<rscale>  1 0.89871807E+02</rscale>
<asrwt>0</asrwt>
<pdfrwt beam="1">  1       21 0.17493577E-02 0.89871807E+02</pdfrwt>
<pdfrwt beam="2">  1        2 0.71000294E-01 0.89871807E+02</pdfrwt>
<totfact> 0.12204780E+06</totfact>
</mgrwt>
</event>
<event>
 6    2  0.8544106E+000  0.7731456E+02  0.7546771E-02  0.1336850E+00
          2   -1    0    0  502    0 -0.00000000000E+00  0.00000000000E+00  0.67864119617E+03  0.67864119617E+03  0.00000000000E+00 0. -1.
         21   -1    0    0  501  502  0.00000000000E+00 -0.00000000000E+00 -0.36144378348E+01  0.36144378348E+01  0.00000000000E+00 0.  1.
         24    2    1    2    0    0  0.21364302049E+02  0.18724189699E+01  0.50566867123E+03  0.51154505723E+03  0.74280557067E+02 0.  0.
        -11    1    3    3    0    0 -0.98528231229E+01  0.27768079709E+02  0.11266864987E+03  0.11645758472E+03  0.00000000000E+00 0.  1.
         12    1    3    3    0    0  0.31217125172E+02 -0.25895660739E+02  0.39300002136E+03  0.39508747251E+03  0.00000000000E+00 0. -1.
          1    1    1    2  501    0 -0.21364302049E+02 -0.18724189699E+01  0.16935808710E+03  0.17071057677E+03  0.00000000000E+00 0. -1.
<mgrwt>
<rscale>  1 0.77314556E+02</rscale>
<asrwt>0</asrwt>
<pdfrwt beam="1">  1       21 0.55606790E-03 0.77314556E+02</pdfrwt>
<pdfrwt beam="2">  1        2 0.10440624E+00 0.77314556E+02</pdfrwt>
<totfact> 0.46857282E+06</totfact>
</mgrwt>
</event>
<event>
 6    2  0.8544106E+000  0.8373840E+02  0.7546771E-02  0.1318765E+00
         21   -1    0    0  501  502  0.00000000000E+00  0.00000000000E+00  0.31272141196E+02  0.31272141196E+02  0.00000000000E+00 0. -1.
         -1   -1    0    0    0  501 -0.00000000000E+00 -0.00000000000E+00 -0.15703517694E+03  0.15703517694E+03  0.00000000000E+00 0.  1.
         24    2    1    2    0    0  0.34373344598E+02  0.63008119561E+01 -0.12836615503E+03  0.15326444040E+03  0.76097909863E+02 0.  0.
        -13    1    3    3    0    0  0.10295663202E+02  0.24887514793E+01 -0.12845072854E+03  0.12888671083E+03  0.00000000000E+00 0.  1.
         14    1    3    3    0    0  0.24077681396E+02  0.38120604767E+01  0.84573518357E-01  0.24377729574E+02  0.00000000000E+00 0. -1.
         -2    1    1    2    0  502 -0.34373344598E+02 -0.63008119561E+01  0.26031192769E+01  0.35042877738E+02  0.00000000000E+00 0.  1.
<mgrwt>
<rscale>  1 0.83738396E+02</rscale>
<asrwt>0</asrwt>
<pdfrwt beam="1">  1       21 0.48110986E-02 0.83738396E+02</pdfrwt>
<pdfrwt beam="2">  1       -1 0.24159258E-01 0.83738396E+02</pdfrwt>
<totfact> 0.35919788E+05</totfact>
</mgrwt>
</event>
<event>
 6    2  0.8544106E+000  0.1103850E+03  0.7546771E-02  0.1259859E+00
          2   -1    0    0  502    0 -0.00000000000E+00  0.00000000000E+00  0.71955293047E+02  0.71955293047E+02  0.00000000000E+00 0. -1.
         21   -1    0    0  501  502  0.00000000000E+00 -0.00000000000E+00 -0.20289591824E+03  0.20289591824E+03  0.00000000000E+00 0. -1.
         24    2    1    2    0    0  0.13747688708E+02  0.74082590157E+02 -0.15975542054E+03  0.19418200068E+03  0.80669857384E+02 0.  0.
        -11    1    3    3    0    0  0.44301145359E+01 -0.17502214648E+02 -0.21393165242E+02  0.27993230458E+02  0.00000000000E+00 0.  1.
         12    1    3    3    0    0  0.93175741723E+01  0.91584804806E+02 -0.13836225529E+03  0.16618877023E+03  0.00000000000E+00 0. -1.
          1    1    1    2  501    0 -0.13747688708E+02 -0.74082590157E+02  0.28814795339E+02  0.80669210605E+02  0.00000000000E+00 0. -1.
<mgrwt>
<rscale>  1 0.11038503E+03</rscale>
<asrwt>0</asrwt>
<pdfrwt beam="1">  1       21 0.31214757E-01 0.11038503E+03</pdfrwt>
<pdfrwt beam="2">  1        2 0.11070045E-01 0.11038503E+03</pdfrwt>
<totfact> 0.66598360E+04</totfact>
</mgrwt>
</event>
<event>
 6    2  0.8544106E+000  0.9107874E+02  0.7546771E-02  0.1300260E+00
         21   -1    0    0  501  502  0.00000000000E+00  0.00000000000E+00  0.89615934539E+01  0.89615934539E+01  0.00000000000E+00 0.  1.
          2   -1    0    0  502    0 -0.00000000000E+00 -0.00000000000E+00 -0.62573245168E+03  0.62573245168E+03  0.00000000000E+00 0. -1.
         24    2    1    2    0    0 -0.36722393564E+02  0.20100406185E+02 -0.53636251828E+03  0.54404051983E+03  0.80887425964E+02 0.  0.
        -13    1    3    3    0    0 -0.31473490495E+02 -0.86410136101E+01 -0.47454815866E+03  0.47566921553E+03  0.00000000000E+00 0.  1.
         14    1    3    3    0    0 -0.52489030686E+01  0.28741419796E+02 -0.61814359625E+02  0.68371304296E+02  0.00000000000E+00 0. -1.
          1    1    1    2  501    0  0.36722393564E+02 -0.20100406185E+02 -0.80408339947E+02  0.90653525309E+02  0.00000000000E+00 0. -1.
<mgrwt>
<rscale>  1 0.91078736E+02</rscale>
<asrwt>0</asrwt>
<pdfrwt beam="1">  1       21 0.13787063E-02 0.91078736E+02</pdfrwt>
<pdfrwt beam="2">  1        2 0.96266555E-01 0.91078736E+02</pdfrwt>
<totfact> 0.12771429E+06</totfact>
</mgrwt>
</event>
<event>
 6    2  0.8544106E+000  0.8508700E+02  0.7546771E-02  0.1315205E+00
          4   -1    0    0  502    0 -0.00000000000E+00  0.00000000000E+00  0.21535221241E+03  0.21535221241E+03  0.00000000000E+00 0. -1.
         21   -1    0    0  501  502  0.00000000000E+00 -0.00000000000E+00 -0.17601674048E+02  0.17601674048E+02  0.00000000000E+00 0.  1.
         24    2    1    2    0    0  0.24725501312E+02  0.59974510229E+01  0.18677885477E+03  0.20524652869E+03  0.81194070692E+02 0.  0.
        -11    1    3    3    0    0  0.31451198367E+01  0.36555425354E+02  0.42264298675E+02  0.55968400407E+02  0.00000000000E+00 0.  1.
         12    1    3    3    0    0  0.21580381475E+02 -0.30557974331E+02  0.14451455609E+03  0.14927812828E+03  0.00000000000E+00 0. -1.
          3    1    1    2  501    0 -0.24725501312E+02 -0.59974510229E+01  0.10971683598E+02  0.27707357775E+02  0.00000000000E+00 0. -1.
<mgrwt>
<rscale>  1 0.85086996E+02</rscale>
<asrwt>0</asrwt>
<pdfrwt beam="1">  1       21 0.27079500E-02 0.85086996E+02</pdfrwt>
<pdfrwt beam="2">  1        4 0.33131108E-01 0.85086996E+02</pdfrwt>
<totfact> 0.24149756E+05</totfact>
</mgrwt>
</event>
<event>
 6    2  0.8544106E+000  0.1195737E+03  0.7546771E-02  0.1243802E+00
         21   -1    0    0  501  502  0.00000000000E+00  0.00000000000E+00  0.40153640929E+01  0.40153640929E+01  0.00000000000E+00 0. -1.
          2   -1    0    0  502    0 -0.00000000000E+00 -0.00000000000E+00 -0.26566586419E+04  0.26566586419E+04  0.00000000000E+00 0. -1.
         24    2    1    2    0    0  0.78530476983E+02 -0.29846994876E+02 -0.17732265390E+04  0.17772535629E+04  0.85088125085E+02 0.  0.
        -13    1    3    3    0    0  0.67650279175E+01  0.25037316087E+02 -0.24770494627E+03  0.24905897536E+03  0.00000000000E+00 0.  1.
         14    1    3    3    0    0  0.71765449066E+02 -0.54884310962E+02 -0.15255215928E+04  0.15281945875E+04  0.00000000000E+00 0. -1.
          1    1    1    2  501    0 -0.78530476983E+02  0.29846994876E+02 -0.87941673878E+03  0.88342044314E+03  0.00000000000E+00 0. -1.
<mgrwt>
<rscale>  1 0.11957369E+03</rscale>
<asrwt>0</asrwt>
<pdfrwt beam="1">  1       21 0.61774701E-03 0.11957369E+03</pdfrwt>
<pdfrwt beam="2">  1        2 0.40871758E+00 0.11957369E+03</pdfrwt>
<totfact> 0.34691339E+05</totfact>
</mgrwt>
</event>
<event>
 6    2  0.8544106E+000  0.8199754E+02  0.7546771E-02  0.1323476E+00
         21   -1    0    0  501  502  0.00000000000E+00  0.00000000000E+00  0.31846171047E+03  0.31846171047E+03  0.00000000000E+00 0. -1.
          2   -1    0    0  502    0 -0.00000000000E+00 -0.00000000000E+00 -0.30693001359E+02  0.30693001359E+02  0.00000000000E+00 0. -1.
         24    2    1    2    0    0 -0.28628458119E+01 -0.26367163398E+02  0.25964020826E+02  0.86010040593E+02  0.77589777121E+02 0.  0.
        -11    1    3    3    0    0 -0.18735255929E+02 -0.19910664701E+01  0.46653572409E+02  0.50314311870E+02  0.00000000000E+00 0.  1.
         12    1    3    3    0    0  0.15872410117E+02 -0.24376096928E+02 -0.20689551583E+02  0.35695728723E+02  0.00000000000E+00 0. -1.
          1    1    1    2  501    0  0.28628458119E+01  0.26367163398E+02  0.26180468829E+03  0.26314467124E+03  0.00000000000E+00 0. -1.
<mgrwt>
<rscale>  1 0.81997541E+02</rscale>
<asrwt>0</asrwt>
<pdfrwt beam="1">  1       21 0.48994107E-01 0.81997541E+02</pdfrwt>
<pdfrwt beam="2">  1        2 0.47220004E-02 0.81997541E+02</pdfrwt>
<totfact> 0.78438798E+04</totfact>
</mgrwt>
</event>
<event>
 6    2  0.8544106E+000  0.8465385E+02  0.7546771E-02  0.1316340E+00
          2   -1    0    0  502    0 -0.00000000000E+00  0.00000000000E+00  0.94292664492E+03  0.94292664492E+03  0.00000000000E+00 0. -1.
         21   -1    0    0  501  502  0.00000000000E+00 -0.00000000000E+00 -0.89909378134E+01  0.89909378134E+01  0.00000000000E+00 0. -1.
         24    2    1    2    0    0  0.12103307601E+02  0.17670839023E+02  0.92474318085E+03  0.92860983412E+03  0.81899480314E+02 0.  0.
        -11    1    3    3    0    0 -0.29019348613E+02 -0.22365486205E+01  0.16908433769E+03  0.17157108729E+03  0.00000000000E+00 0.  1.
         12    1    3    3    0    0  0.41122656213E+02  0.19907387644E+02  0.75565884317E+03  0.75703874682E+03  0.00000000000E+00 0. -1.
          1    1    1    2  501    0 -0.12103307601E+02 -0.17670839023E+02  0.91925262522E+01  0.23307748616E+02  0.00000000000E+00 0. -1.
<mgrwt>
<rscale>  1 0.84653845E+02</rscale>
<asrwt>0</asrwt>
<pdfrwt beam="1">  1       21 0.13832220E-02 0.84653845E+02</pdfrwt>
<pdfrwt beam="2">  1        2 0.14506556E+00 0.84653845E+02</pdfrwt>
<totfact> 0.76952121E+05</totfact>
</mgrwt>
</event>
<event>
 6    2  0.8544106E+000  0.8415575E+02  0.7546771E-02  0.1317655E+00
         21   -1    0    0  501  502  0.00000000000E+00  0.00000000000E+00  0.10757891968E+03  0.10757891968E+03  0.00000000000E+00 0.  1.
          2   -1    0    0  502    0 -0.00000000000E+00 -0.00000000000E+00 -0.30171224915E+02  0.30171224915E+02  0.00000000000E+00 0. -1.
         24    2    1    2    0    0  0.10807078132E+02  0.24632257552E+02  0.70983989836E+02  0.11009503594E+03  0.79741137909E+02 0.  0.
        -13    1    3    3    0    0 -0.32886746084E+02  0.15990834742E+02  0.46864714857E+02  0.59443640218E+02  0.00000000000E+00 0.  1.
         14    1    3    3    0    0  0.43693824216E+02  0.86414228100E+01  0.24119274979E+02  0.50651395719E+02  0.00000000000E+00 0. -1.
          1    1    1    2  501    0 -0.10807078132E+02 -0.24632257552E+02  0.64237049274E+01  0.27655108657E+02  0.00000000000E+00 0. -1.
<mgrwt>
<rscale>  1 0.84155749E+02</rscale>
<asrwt>0</asrwt>
<pdfrwt beam="1">  1       21 0.16550603E-01 0.84155749E+02</pdfrwt>
<pdfrwt beam="2">  1        2 0.46417269E-02 0.84155749E+02</pdfrwt>
<totfact> 0.63170284E+05</totfact>
</mgrwt>
</event>
<event>
 6    2  0.8544106E+000  0.8769115E+02  0.7546771E-02  0.1308541E+00
          2   -1    0    0  502    0 -0.00000000000E+00  0.00000000000E+00  0.58681168964E+03  0.58681168964E+03  0.00000000000E+00 0. -1.
         21   -1    0    0  501  502  0.00000000000E+00 -0.00000000000E+00 -0.62381554200E+01  0.62381554200E+01  0.00000000000E+00 0.  1.
         24    2    1    2    0    0  0.19558153350E+02 -0.26359111868E+02  0.44519549441E+03  0.45374967347E+03  0.81316749778E+02 0.  0.
        -13    1    3    3    0    0  0.50029653883E+02 -0.12050813321E+02  0.31980945565E+03  0.32392325679E+03  0.00000000000E+00 0.  1.
         14    1    3    3    0    0 -0.30471500533E+02 -0.14308298548E+02  0.12538603876E+03  0.12982641668E+03  0.00000000000E+00 0. -1.
          1    1    1    2  501    0 -0.19558153350E+02  0.26359111868E+02  0.13537803981E+03  0.13930017159E+03  0.00000000000E+00 0. -1.
<mgrwt>
<rscale>  1 0.87691151E+02</rscale>
<asrwt>0</asrwt>
<pdfrwt beam="1">  1       21 0.95971668E-03 0.87691151E+02</pdfrwt>
<pdfrwt beam="2">  1        2 0.90278678E-01 0.87691151E+02</pdfrwt>
<totfact> 0.24134282E+06</totfact>
</mgrwt>
</event>
<event>
 6    2  0.8544106E+000  0.8708969E+02  0.7546771E-02  0.1310056E+00
         -1   -1    0    0    0  501 -0.00000000000E+00  0.00000000000E+00  0.92036070096E+01  0.92036070096E+01  0.00000000000E+00 0.  1.
         21   -1    0    0  501  502  0.00000000000E+00 -0.00000000000E+00 -0.44896459619E+03  0.44896459619E+03  0.00000000000E+00 0. -1.
         24    2    1    2    0    0 -0.13639106244E+02  0.33893411986E+02 -0.24520672002E+03  0.26021327842E+03  0.79055841840E+02 0.  0.
        -11    1    3    3    0    0 -0.13717989377E+02  0.27700923058E+02 -0.24562483900E+02  0.39482147689E+02  0.00000000000E+00 0.  1.
         12    1    3    3    0    0  0.78883132974E-01  0.61924889280E+01 -0.22064423612E+03  0.22073113073E+03  0.00000000000E+00 0. -1.
         -2    1    1    2    0  502  0.13639106244E+02 -0.33893411986E+02 -0.19455426916E+03  0.19795492478E+03  0.00000000000E+00 0.  1.
<mgrwt>
<rscale>  1 0.87089694E+02</rscale>
<asrwt>0</asrwt>
<pdfrwt beam="1">  1       21 0.69071476E-01 0.87089694E+02</pdfrwt>
<pdfrwt beam="2">  1       -1 0.14159396E-02 0.87089694E+02</pdfrwt>
<totfact> 0.17949395E+05</totfact>
</mgrwt>
</event>
<event>
 6    2  0.8544106E+000  0.1036829E+03  0.7546771E-02  0.1272736E+00
         21   -1    0    0  501  502  0.00000000000E+00  0.00000000000E+00  0.71046980104E+02  0.71046980104E+02  0.00000000000E+00 0.  1.
         -3   -1    0    0    0  501 -0.00000000000E+00 -0.00000000000E+00 -0.34339007294E+03  0.34339007294E+03  0.00000000000E+00 0.  1.
         24    2    1    2    0    0 -0.64113209151E+02 -0.13515616931E+02 -0.31806595829E+03  0.33453864308E+03  0.80355301015E+02 0.  0.
        -13    1    3    3    0    0 -0.11106686752E+02  0.71122037434E+01 -0.22555919892E+03  0.22594444926E+03  0.00000000000E+00 0.  1.
         14    1    3    3    0    0 -0.53006522399E+02 -0.20627820675E+02 -0.92506759372E+02  0.10859419382E+03  0.00000000000E+00 0. -1.
         -4    1    1    2    0  502  0.64113209151E+02  0.13515616931E+02  0.45722865459E+02  0.79898409962E+02  0.00000000000E+00 0.  1.
<mgrwt>
<rscale>  1 0.10368293E+03</rscale>
<asrwt>0</asrwt>
<pdfrwt beam="1">  1       21 0.10930305E-01 0.10368293E+03</pdfrwt>
<pdfrwt beam="2">  1       -3 0.52829241E-01 0.10368293E+03</pdfrwt>
<totfact> 0.11778114E+04</totfact>
</mgrwt>
</event>
<event>
 6    2  0.8544106E+000  0.8964530E+02  0.7546771E-02  0.1303713E+00
          2   -1    0    0  502    0 -0.00000000000E+00  0.00000000000E+00  0.17278820152E+04  0.17278820152E+04  0.00000000000E+00 0. -1.
         21   -1    0    0  501  502  0.00000000000E+00 -0.00000000000E+00 -0.24900411365E+01  0.24900411365E+01  0.00000000000E+00 0.  1.
         24    2    1    2    0    0  0.37657680573E+02 -0.96134235048E+01  0.10295065183E+04  0.10334021242E+04  0.80782177332E+02 0.  0.
        -13    1    3    3    0    0 -0.49848124577E+01 -0.33927639996E+02  0.24855117302E+03  0.25090559723E+03  0.00000000000E+00 0.  1.
         14    1    3    3    0    0  0.42642493031E+02  0.24314216491E+02  0.78095534528E+03  0.78249652693E+03  0.00000000000E+00 0. -1.
          1    1    1    2  501    0 -0.37657680573E+02  0.96134235048E+01  0.69588545574E+03  0.69696993215E+03  0.00000000000E+00 0. -1.
<mgrwt>
<rscale>  1 0.89645295E+02</rscale>
<asrwt>0</asrwt>
<pdfrwt beam="1">  1       21 0.38308463E-03 0.89645295E+02</pdfrwt>
<pdfrwt beam="2">  1        2 0.26582704E+00 0.89645295E+02</pdfrwt>
<totfact> 0.21521486E+06</totfact>
</mgrwt>
</event>
<event>
 6    2  0.8544106E+000  0.8292057E+02  0.7546771E-02  0.1320962E+00
          2   -1    0    0  502    0 -0.00000000000E+00  0.00000000000E+00  0.93914652690E+02  0.93914652690E+02  0.00000000000E+00 0. -1.
         21   -1    0    0  501  502  0.00000000000E+00 -0.00000000000E+00 -0.32404961985E+02  0.32404961985E+02  0.00000000000E+00 0. -1.
         24    2    1    2    0    0  0.17552215111E+02 -0.12696664236E+02  0.63675661971E+02  0.10454860254E+03  0.80040832248E+02 0.  0.
        -13    1    3    3    0    0  0.11356660443E+02  0.33983189251E+02  0.27291648428E+02  0.45040703392E+02  0.00000000000E+00 0.  1.
         14    1    3    3    0    0  0.61955546675E+01 -0.46679853487E+02  0.36384013543E+02  0.59507899145E+02  0.00000000000E+00 0. -1.
          1    1    1    2  501    0 -0.17552215111E+02  0.12696664236E+02 -0.21659712647E+01  0.21771012138E+02  0.00000000000E+00 0. -1.
<mgrwt>
<rscale>  1 0.82920567E+02</rscale>
<asrwt>0</asrwt>
<pdfrwt beam="1">  1       21 0.49853788E-02 0.82920567E+02</pdfrwt>
<pdfrwt beam="2">  1        2 0.14448408E-01 0.82920567E+02</pdfrwt>
<totfact> 0.12296410E+06</totfact>
</mgrwt>
</event>
<event>
 6    2  0.8544106E+000  0.8331186E+02  0.7546771E-02  0.1319907E+00
         -1   -1    0    0    0  501 -0.00000000000E+00  0.00000000000E+00  0.36182480177E+03  0.36182480177E+03  0.00000000000E+00 0.  1.
         21   -1    0    0  501  502  0.00000000000E+00 -0.00000000000E+00 -0.75982535140E+01  0.75982535140E+01  0.00000000000E+00 0. -1.
         24    2    1    2    0    0  0.21018322284E+02 -0.44542095129E+01  0.27604088077E+03  0.28833909600E+03  0.80493829379E+02 0.  0.
        -13    1    3    3    0    0 -0.30400509773E+02  0.55323058763E+01  0.98563266501E+02  0.10329334396E+03  0.00000000000E+00 0.  1.
         14    1    3    3    0    0  0.51418832056E+02 -0.99865153892E+01  0.17747761427E+03  0.18504575204E+03  0.00000000000E+00 0. -1.
         -2    1    1    2    0  502 -0.21018322284E+02  0.44542095129E+01  0.78185667483E+02  0.81083959288E+02  0.00000000000E+00 0.  1.
<mgrwt>
<rscale>  1 0.83311862E+02</rscale>
<asrwt>0</asrwt>
<pdfrwt beam="1">  1       21 0.11689624E-02 0.83311862E+02</pdfrwt>
<pdfrwt beam="2">  1       -1 0.55665341E-01 0.83311862E+02</pdfrwt>
<totfact> 0.83627168E+05</totfact>
</mgrwt>
</event>
<event>
 6    2  0.8544106E+000  0.8779017E+02  0.7546771E-02  0.1308293E+00
          2   -1    0    0  502    0 -0.00000000000E+00  0.00000000000E+00  0.12498381367E+04  0.12498381367E+04  0.00000000000E+00 0. -1.
         21   -1    0    0  501  502  0.00000000000E+00 -0.00000000000E+00 -0.29562547251E+01  0.29562547251E+01  0.00000000000E+00 0. -1.
         24    2    1    2    0    0  0.20484375480E+02  0.26834742949E+02  0.89014993488E+03  0.89446856882E+03  0.81039502533E+02 0.  0.
        -11    1    3    3    0    0  0.40786230621E+02 -0.68254853640E+01  0.27811956250E+03  0.28117715929E+03  0.00000000000E+00 0.  1.
         12    1    3    3    0    0 -0.20301855141E+02  0.33660228313E+02  0.61203037238E+03  0.61329140953E+03  0.00000000000E+00 0. -1.
          1    1    1    2  501    0 -0.20484375480E+02 -0.26834742949E+02  0.35673194708E+03  0.35832582259E+03  0.00000000000E+00 0. -1.
<mgrwt>
<rscale>  1 0.87790171E+02</rscale>
<asrwt>0</asrwt>
<pdfrwt beam="1">  1       21 0.45480942E-03 0.87790171E+02</pdfrwt>
<pdfrwt beam="2">  1        2 0.19228237E+00 0.87790171E+02</pdfrwt>
<totfact> 0.29101630E+06</totfact>
</mgrwt>
</event>
<event>
 6    2  0.8544106E+000  0.8287515E+02  0.7546771E-02  0.1321085E+00
         21   -1    0    0  501  502  0.00000000000E+00  0.00000000000E+00  0.34911496117E+01  0.34911496117E+01  0.00000000000E+00 0.  1.
          2   -1    0    0  502    0 -0.00000000000E+00 -0.00000000000E+00 -0.84301200931E+03  0.84301200931E+03  0.00000000000E+00 0. -1.
         24    2    1    2    0    0 -0.20882990820E+02 -0.89708587341E+01 -0.56538352791E+03  0.57142525670E+03  0.79697645813E+02 0.  0.
        -13    1    3    3    0    0  0.37391375770E+01 -0.42642324447E+01 -0.18844811645E+00  0.56745344175E+01  0.00000000000E+00 0.  1.
         14    1    3    3    0    0 -0.24622128397E+02 -0.47066262894E+01 -0.56519507979E+03  0.56575072228E+03  0.00000000000E+00 0. -1.
          1    1    1    2  501    0  0.20882990820E+02  0.89708587341E+01 -0.27413733179E+03  0.27507790223E+03  0.00000000000E+00 0. -1.
<mgrwt>
<rscale>  1 0.82875149E+02</rscale>
<asrwt>0</asrwt>
<pdfrwt beam="1">  1       21 0.53709931E-03 0.82875149E+02</pdfrwt>
<pdfrwt beam="2">  1        2 0.12969431E+00 0.82875149E+02</pdfrwt>
<totfact> 0.38500616E+06</totfact>
</mgrwt>
</event>
<event>
 6    2  0.8544106E+000  0.9921464E+02  0.7546771E-02  0.1281956E+00
         21   -1    0    0  501  502  0.00000000000E+00  0.00000000000E+00  0.25754229698E+03  0.25754229698E+03  0.00000000000E+00 0.  1.
         -3   -1    0    0    0  501 -0.00000000000E+00 -0.00000000000E+00 -0.30823862174E+02  0.30823862174E+02  0.00000000000E+00 0.  1.
         24    2    1    2    0    0  0.37332188151E+02  0.49271036042E+02  0.74491787621E+02  0.12406680012E+03  0.77602945852E+02 0.  0.
        -11    1    3    3    0    0  0.40363054924E+02 -0.71784209024E+01  0.20261489831E+02  0.45730010929E+02  0.00000000000E+00 0.  1.
         12    1    3    3    0    0 -0.30308667728E+01  0.56449456945E+02  0.54230297791E+02  0.78336789194E+02  0.00000000000E+00 0. -1.
         -4    1    1    2    0  502 -0.37332188151E+02 -0.49271036042E+02  0.15222664719E+03  0.16429935903E+03  0.00000000000E+00 0.  1.
<mgrwt>
<rscale>  1 0.99214638E+02</rscale>
<asrwt>0</asrwt>
<pdfrwt beam="1">  1       21 0.39621890E-01 0.99214638E+02</pdfrwt>
<pdfrwt beam="2">  1       -3 0.47421328E-02 0.99214638E+02</pdfrwt>
<totfact> 0.70484472E+04</totfact>
</mgrwt>
</event>
<event>
 6    2  0.8544106E+000  0.8428431E+02  0.7546771E-02  0.1317315E+00
          4   -1    0    0  502    0 -0.00000000000E+00  0.00000000000E+00  0.18023704639E+02  0.18023704639E+02  0.00000000000E+00 0. -1.
         21   -1    0    0  501  502  0.00000000000E+00 -0.00000000000E+00 -0.16434784964E+03  0.16434784964E+03  0.00000000000E+00 0.  1.
         24    2    1    2    0    0  0.88715989284E+01 -0.20232221662E+02 -0.98144124868E+02  0.12936813551E+03  0.81337550854E+02 0.  0.
        -13    1    3    3    0    0  0.16081332575E+02  0.15259203207E+02 -0.89404836611E+02  0.92112308348E+02  0.00000000000E+00 0.  1.
         14    1    3    3    0    0 -0.72097336469E+01 -0.35491424868E+02 -0.87392882572E+01  0.37255827164E+02  0.00000000000E+00 0. -1.
          3    1    1    2  501    0 -0.88715989284E+01  0.20232221662E+02 -0.48180020128E+02  0.53003418762E+02  0.00000000000E+00 0. -1.
<mgrwt>
<rscale>  1 0.84284312E+02</rscale>
<asrwt>0</asrwt>
<pdfrwt beam="1">  1       21 0.25284285E-01 0.84284312E+02</pdfrwt>
<pdfrwt beam="2">  1        4 0.27728776E-02 0.84284312E+02</pdfrwt>
<totfact> 0.33449703E+05</totfact>
</mgrwt>
</event>
<event>
 6    2  0.8544106E+000  0.8469982E+02  0.7546771E-02  0.1316219E+00
         21   -1    0    0  501  502  0.00000000000E+00  0.00000000000E+00  0.19703852597E+03  0.19703852597E+03  0.00000000000E+00 0.  1.
          2   -1    0    0  502    0 -0.00000000000E+00 -0.00000000000E+00 -0.15649035801E+02  0.15649035801E+02  0.00000000000E+00 0. -1.
         24    2    1    2    0    0  0.24359433601E+02  0.58457571012E+01  0.15255493694E+03  0.17449088205E+03  0.80910470606E+02 0.  0.
        -11    1    3    3    0    0  0.46709100893E+02  0.95738793881E+01  0.14142545604E+03  0.14924663778E+03  0.00000000000E+00 0.  1.
         12    1    3    3    0    0 -0.22349667293E+02 -0.37281222870E+01  0.11129480903E+02  0.25244244276E+02  0.00000000000E+00 0. -1.
          1    1    1    2  501    0 -0.24359433601E+02 -0.58457571012E+01  0.28834553225E+02  0.38196679713E+02  0.00000000000E+00 0. -1.
<mgrwt>
<rscale>  1 0.84699818E+02</rscale>
<asrwt>0</asrwt>
<pdfrwt beam="1">  1       21 0.30313618E-01 0.84699818E+02</pdfrwt>
<pdfrwt beam="2">  1        2 0.24075441E-02 0.84699818E+02</pdfrwt>
<totfact> 0.49022600E+05</totfact>
</mgrwt>
</event>
<event>
 6    2  0.8544106E+000  0.8562993E+02  0.7546771E-02  0.1313793E+00
         21   -1    0    0  501  502  0.00000000000E+00  0.00000000000E+00  0.57370086379E+01  0.57370086379E+01  0.00000000000E+00 0. -1.
         -1   -1    0    0    0  501 -0.00000000000E+00 -0.00000000000E+00 -0.58414476095E+03  0.58414476095E+03  0.00000000000E+00 0.  1.
         24    2    1    2    0    0  0.17254338069E+02 -0.20365628311E+02 -0.49360581982E+03  0.50097823337E+03  0.81363468126E+02 0.  0.
        -11    1    3    3    0    0 -0.23356909640E+02  0.85926015709E+01 -0.30070824983E+03  0.30173635768E+03  0.00000000000E+00 0.  1.
         12    1    3    3    0    0  0.40611247709E+02 -0.28958229881E+02 -0.19289756999E+03  0.19924187569E+03  0.00000000000E+00 0. -1.
         -2    1    1    2    0  502 -0.17254338069E+02  0.20365628311E+02 -0.84801932487E+02  0.88903536219E+02  0.00000000000E+00 0.  1.
<mgrwt>
<rscale>  1 0.85629930E+02</rscale>
<asrwt>0</asrwt>
<pdfrwt beam="1">  1       21 0.88261667E-03 0.85629930E+02</pdfrwt>
<pdfrwt beam="2">  1       -1 0.89868429E-01 0.85629930E+02</pdfrwt>
<totfact> 0.50888251E+05</totfact>
</mgrwt>
</event>
<event>
 6    2  0.8544106E+000  0.8956858E+02  0.7546771E-02  0.1303900E+00
         -3   -1    0    0    0  501 -0.00000000000E+00  0.00000000000E+00  0.74864573772E+02  0.74864573772E+02  0.00000000000E+00 0.  1.
         21   -1    0    0  501  502  0.00000000000E+00 -0.00000000000E+00 -0.66341324764E+02  0.66341324764E+02  0.00000000000E+00 0. -1.
         24    2    1    2    0    0  0.32009993613E+02  0.23441864888E+02 -0.20700135843E+02  0.91929464587E+02  0.80301744158E+02 0.  0.
        -11    1    3    3    0    0 -0.17785228769E+01  0.12550784225E+02  0.28538763688E+02  0.31227333557E+02  0.00000000000E+00 0.  1.
         12    1    3    3    0    0  0.33788516490E+02  0.10891080663E+02 -0.49238899531E+02  0.60702131030E+02  0.00000000000E+00 0. -1.
         -4    1    1    2    0  502 -0.32009993613E+02 -0.23441864888E+02  0.29223384851E+02  0.49276433948E+02  0.00000000000E+00 0.  1.
<mgrwt>
<rscale>  1 0.89568582E+02</rscale>
<asrwt>0</asrwt>
<pdfrwt beam="1">  1       21 0.10206358E-01 0.89568582E+02</pdfrwt>
<pdfrwt beam="2">  1       -3 0.11517627E-01 0.89568582E+02</pdfrwt>
<totfact> 0.20328602E+05</totfact>
</mgrwt>
</event>
<event>
 6    2  0.8544106E+000  0.9588525E+02  0.7546771E-02  0.1289195E+00
          2   -1    0    0  502    0 -0.00000000000E+00  0.00000000000E+00  0.75583311987E+03  0.75583311987E+03  0.00000000000E+00 0. -1.
         21   -1    0    0  501  502  0.00000000000E+00 -0.00000000000E+00 -0.63235484373E+01  0.63235484373E+01  0.00000000000E+00 0.  1.
         24    2    1    2    0    0  0.51147887376E+01  0.39717845834E+02  0.58737166106E+03  0.59514657783E+03  0.87122399782E+02 0.  0.
        -11    1    3    3    0    0  0.24462329097E+02  0.40533460713E+02  0.14885080317E+03  0.15619836295E+03  0.00000000000E+00 0.  1.
         12    1    3    3    0    0 -0.19347540360E+02 -0.81561487920E+00  0.43852085789E+03  0.43894821488E+03  0.00000000000E+00 0. -1.
          1    1    1    2  501    0 -0.51147887376E+01 -0.39717845834E+02  0.16213791037E+03  0.16701009048E+03  0.00000000000E+00 0. -1.
<mgrwt>
<rscale>  1 0.95885249E+02</rscale>
<asrwt>0</asrwt>
<pdfrwt beam="1">  1       21 0.97285420E-03 0.95885249E+02</pdfrwt>
<pdfrwt beam="2">  1        2 0.11628195E+00 0.95885249E+02</pdfrwt>
<totfact> 0.17820501E+06</totfact>
</mgrwt>
</event>
<event>
 6    2  0.8544106E+000  0.1163790E+03  0.7546771E-02  0.1249193E+00
         21   -1    0    0  501  502  0.00000000000E+00  0.00000000000E+00  0.59856863701E+03  0.59856863701E+03  0.00000000000E+00 0. -1.
          2   -1    0    0  502    0 -0.00000000000E+00 -0.00000000000E+00 -0.57172484918E+02  0.57172484918E+02  0.00000000000E+00 0. -1.
         24    2    1    2    0    0 -0.58398063182E+02  0.18146507334E+02  0.56498641307E+01  0.11651601627E+03  0.99017329644E+02 0.  0.
        -11    1    3    3    0    0  0.22711448484E+02  0.23145292765E+02  0.12967556018E+02  0.34923802464E+02  0.00000000000E+00 0.  1.
         12    1    3    3    0    0 -0.81109511666E+02 -0.49987854315E+01 -0.73176918874E+01  0.81592213802E+02  0.00000000000E+00 0. -1.
          1    1    1    2  501    0  0.58398063182E+02 -0.18146507334E+02  0.53574628796E+03  0.53922510566E+03  0.00000000000E+00 0. -1.
<mgrwt>
<rscale>  1 0.11637895E+03</rscale>
<asrwt>0</asrwt>
<pdfrwt beam="1">  1       21 0.92087478E-01 0.11637895E+03</pdfrwt>
<pdfrwt beam="2">  1        2 0.87957673E-02 0.11637895E+03</pdfrwt>
<totfact> 0.92132583E+03</totfact>
</mgrwt>
</event>
<event>
 6    2  0.8544106E+000  0.8496091E+02  0.7546771E-02  0.1315535E+00
          2   -1    0    0  502    0 -0.00000000000E+00  0.00000000000E+00  0.14408016018E+04  0.14408016018E+04  0.00000000000E+00 0. -1.
         21   -1    0    0  501  502  0.00000000000E+00 -0.00000000000E+00 -0.90440370807E+01  0.90440370807E+01  0.00000000000E+00 0. -1.
         24    2    1    2    0    0 -0.25885781222E+02  0.15995271007E+00  0.14179766344E+04  0.14205196556E+04  0.80921301232E+02 0.  0.
        -13    1    3    3    0    0 -0.94396345075E+01 -0.24569410238E+02  0.15682436651E+03  0.15901774917E+03  0.00000000000E+00 0.  1.
         14    1    3    3    0    0 -0.16446146714E+02  0.24729362948E+02  0.12611522679E+04  0.12615019064E+04  0.00000000000E+00 0. -1.
          1    1    1    2  501    0  0.25885781222E+02 -0.15995271007E+00  0.13780930305E+02  0.29325983264E+02  0.00000000000E+00 0. -1.
<mgrwt>
<rscale>  1 0.84960910E+02</rscale>
<asrwt>0</asrwt>
<pdfrwt beam="1">  1       21 0.13913915E-02 0.84960910E+02</pdfrwt>
<pdfrwt beam="2">  1        2 0.22166160E+00 0.84960910E+02</pdfrwt>
<totfact> 0.40715628E+05</totfact>
</mgrwt>
</event>
<event>
 6    2  0.8544106E+000  0.1115463E+03  0.7546771E-02  0.1257733E+00
          2   -1    0    0  502    0 -0.00000000000E+00  0.00000000000E+00  0.58941722371E+03  0.58941722371E+03  0.00000000000E+00 0. -1.
         21   -1    0    0  501  502  0.00000000000E+00 -0.00000000000E+00 -0.73177524854E+02  0.73177524854E+02  0.00000000000E+00 0. -1.
         24    2    1    2    0    0 -0.48711007016E+02  0.49753139037E+01  0.57522156854E+03  0.58593721857E+03  0.10022502305E+03 0.  0.
        -11    1    3    3    0    0  0.29606302209E+02 -0.10618365309E+02  0.14581790220E+03  0.14917152347E+03  0.00000000000E+00 0.  1.
         12    1    3    3    0    0 -0.78317309225E+02  0.15593679212E+02  0.42940366633E+03  0.43676569510E+03  0.00000000000E+00 0. -1.
          1    1    1    2  501    0  0.48711007016E+02 -0.49753139037E+01 -0.58981869682E+02  0.76657529990E+02  0.00000000000E+00 0. -1.
<mgrwt>
<rscale>  1 0.11154627E+03</rscale>
<asrwt>0</asrwt>
<pdfrwt beam="1">  1       21 0.11258081E-01 0.11154627E+03</pdfrwt>
<pdfrwt beam="2">  1        2 0.90679570E-01 0.11154627E+03</pdfrwt>
<totfact> 0.42644839E+04</totfact>
</mgrwt>
</event>
<event>
 6    2  0.8544106E+000  0.8959310E+02  0.7546771E-02  0.1303840E+00
          2   -1    0    0  502    0 -0.00000000000E+00  0.00000000000E+00  0.11675183502E+04  0.11675183502E+04  0.00000000000E+00 0. -1.
         21   -1    0    0  501  502  0.00000000000E+00 -0.00000000000E+00 -0.35552409138E+01  0.35552409138E+01  0.00000000000E+00 0. -1.
         24    2    1    2    0    0 -0.18244303305E+02  0.34697763055E+02  0.79323317506E+03  0.79827676509E+03  0.80561369765E+02 0.  0.
        -13    1    3    3    0    0  0.23074329937E+02  0.33481792657E+02  0.55469811143E+03  0.55618652444E+03  0.00000000000E+00 0.  1.
         14    1    3    3    0    0 -0.41318633242E+02  0.12159703973E+01  0.23853506363E+03  0.24209024065E+03  0.00000000000E+00 0. -1.
          1    1    1    2  501    0  0.18244303305E+02 -0.34697763055E+02  0.37072993422E+03  0.37279682602E+03  0.00000000000E+00 0. -1.
<mgrwt>
<rscale>  1 0.89593101E+02</rscale>
<asrwt>0</asrwt>
<pdfrwt beam="1">  1       21 0.54696107E-03 0.89593101E+02</pdfrwt>
<pdfrwt beam="2">  1        2 0.17961790E+00 0.89593101E+02</pdfrwt>
<totfact> 0.24354478E+06</totfact>
</mgrwt>
</event>
<event>
 6    2  0.8544106E+000  0.8432697E+02  0.7546771E-02  0.1317202E+00
         21   -1    0    0  501  502  0.00000000000E+00  0.00000000000E+00  0.17939962552E+03  0.17939962552E+03  0.00000000000E+00 0.  1.
         -1   -1    0    0    0  501 -0.00000000000E+00 -0.00000000000E+00 -0.29557579698E+02  0.29557579698E+02  0.00000000000E+00 0.  1.
         24    2    1    2    0    0 -0.81105216706E+01 -0.27110486704E+02  0.36067537861E+02  0.91716437084E+02  0.79437261364E+02 0.  0.
        -13    1    3    3    0    0 -0.13079743489E+02 -0.54726151260E+02  0.23954672371E+02  0.61154375558E+02  0.00000000000E+00 0.  1.
         14    1    3    3    0    0  0.49692218183E+01  0.27615664556E+02  0.12112865490E+02  0.30562061526E+02  0.00000000000E+00 0. -1.
         -2    1    1    2    0  502  0.81105216706E+01  0.27110486704E+02  0.11377450796E+03  0.11724076813E+03  0.00000000000E+00 0.  1.
<mgrwt>
<rscale>  1 0.84326968E+02</rscale>
<asrwt>0</asrwt>
<pdfrwt beam="1">  1       21 0.27599942E-01 0.84326968E+02</pdfrwt>
<pdfrwt beam="2">  1       -1 0.45473201E-02 0.84326968E+02</pdfrwt>
<totfact> 0.21172130E+05</totfact>
</mgrwt>
</event>
<event>
 6    2  0.8544106E+000  0.9351205E+02  0.7546771E-02  0.1294563E+00
          4   -1    0    0  502    0 -0.00000000000E+00  0.00000000000E+00  0.59193848692E+01  0.59193848692E+01  0.00000000000E+00 0. -1.
         21   -1    0    0  501  502  0.00000000000E+00 -0.00000000000E+00 -0.80062031302E+03  0.80062031302E+03  0.00000000000E+00 0.  1.
         24    2    1    2    0    0 -0.19718407244E+02  0.26585485182E+02 -0.70005094613E+03  0.70626895089E+03  0.87457991123E+02 0.  0.
        -11    1    3    3    0    0  0.13827735268E+02  0.34412384677E+02 -0.58493532014E+03  0.58610984229E+03  0.00000000000E+00 0.  1.
         12    1    3    3    0    0 -0.33546142512E+02 -0.78268994952E+01 -0.11511562599E+03  0.12015910860E+03  0.00000000000E+00 0. -1.
          3    1    1    2  501    0  0.19718407244E+02 -0.26585485182E+02 -0.94649982019E+02  0.10027074699E+03  0.00000000000E+00 0. -1.
<mgrwt>
<rscale>  1 0.93512052E+02</rscale>
<asrwt>0</asrwt>
<pdfrwt beam="1">  1       21 0.12317236E+00 0.93512052E+02</pdfrwt>
<pdfrwt beam="2">  1        4 0.91067453E-03 0.93512052E+02</pdfrwt>
<totfact> 0.66169062E+04</totfact>
</mgrwt>
</event>
<event>
 6    2  0.8544106E+000  0.8330779E+02  0.7546771E-02  0.1319918E+00
          2   -1    0    0  502    0 -0.00000000000E+00  0.00000000000E+00  0.65374962778E+03  0.65374962778E+03  0.00000000000E+00 0. -1.
         21   -1    0    0  501  502  0.00000000000E+00 -0.00000000000E+00 -0.41333829940E+01  0.41333829940E+01  0.00000000000E+00 0.  1.
         24    2    1    2    0    0  0.19732646199E+02 -0.54643132380E+01  0.50525295775E+03  0.51207493593E+03  0.80752415753E+02 0.  0.
        -11    1    3    3    0    0  0.53739110364E+01 -0.16438192799E+02  0.19815046873E+02  0.26300744950E+02  0.00000000000E+00 0.  1.
         12    1    3    3    0    0  0.14358735163E+02  0.10973879561E+02  0.48543791088E+03  0.48577419098E+03  0.00000000000E+00 0. -1.
          1    1    1    2  501    0 -0.19732646199E+02  0.54643132380E+01  0.14436328704E+03  0.14580807484E+03  0.00000000000E+00 0. -1.
<mgrwt>
<rscale>  1 0.83307795E+02</rscale>
<asrwt>0</asrwt>
<pdfrwt beam="1">  1       21 0.63590559E-03 0.83307795E+02</pdfrwt>
<pdfrwt beam="2">  1        2 0.10057678E+00 0.83307795E+02</pdfrwt>
<totfact> 0.40188882E+06</totfact>
</mgrwt>
</event>
<event>
 6    2  0.8544106E+000  0.8527317E+02  0.7546771E-02  0.1314720E+00
         21   -1    0    0  501  502  0.00000000000E+00  0.00000000000E+00  0.22313476422E+02  0.22313476422E+02  0.00000000000E+00 0.  1.
         -3   -1    0    0    0  501 -0.00000000000E+00 -0.00000000000E+00 -0.26658952215E+03  0.26658952215E+03  0.00000000000E+00 0.  1.
         24    2    1    2    0    0 -0.20076997072E+02  0.19902677802E+02 -0.24621787193E+03  0.26056621887E+03  0.80450677820E+02 0.  0.
        -11    1    3    3    0    0 -0.34782779624E+02  0.27739758957E+02 -0.23774539037E+03  0.24187229404E+03  0.00000000000E+00 0.  1.
         12    1    3    3    0    0  0.14705782552E+02 -0.78370811553E+01 -0.84724815661E+01  0.18693924826E+02  0.00000000000E+00 0. -1.
         -4    1    1    2    0  502  0.20076997072E+02 -0.19902677802E+02  0.19418262007E+01  0.28336779706E+02  0.00000000000E+00 0.  1.
<mgrwt>
<rscale>  1 0.85273173E+02</rscale>
<asrwt>0</asrwt>
<pdfrwt beam="1">  1       21 0.34328424E-02 0.85273173E+02</pdfrwt>
<pdfrwt beam="2">  1       -3 0.41013774E-01 0.85273173E+02</pdfrwt>
<totfact> 0.13329806E+05</totfact>
</mgrwt>
</event>
<event>
 6    2  0.8544106E+000  0.6859099E+02  0.7546771E-02  0.1364951E+00
         -3   -1    0    0    0  501 -0.00000000000E+00  0.00000000000E+00  0.10519601292E+04  0.10519601292E+04  0.00000000000E+00 0.  1.
         21   -1    0    0  501  502  0.00000000000E+00 -0.00000000000E+00 -0.23688430095E+01  0.23688430095E+01  0.00000000000E+00 0.  1.
         24    2    1    2    0    0 -0.23907409720E+02 -0.20114180783E+02  0.71665395186E+03  0.71992889282E+03  0.61062095320E+02 0.  0.
        -13    1    3    3    0    0 -0.36140042218E+02  0.49422215358E+00  0.58471769191E+03  0.58583370178E+03  0.00000000000E+00 0.  1.
         14    1    3    3    0    0  0.12232632498E+02 -0.20608402936E+02  0.13193625995E+03  0.13409519103E+03  0.00000000000E+00 0. -1.
         -4    1    1    2    0  502  0.23907409720E+02  0.20114180783E+02  0.33293733434E+03  0.33440007940E+03  0.00000000000E+00 0.  1.
<mgrwt>
<rscale>  1 0.68590991E+02</rscale>
<asrwt>0</asrwt>
<pdfrwt beam="1">  1       21 0.36443823E-03 0.68590991E+02</pdfrwt>
<pdfrwt beam="2">  1       -3 0.16183965E+00 0.68590991E+02</pdfrwt>
<totfact> 0.22008663E+05</totfact>
</mgrwt>
</event>
<event>
 6    2  0.8544106E+000  0.1480936E+03  0.7546771E-02  0.1202835E+00
          2   -1    0    0  502    0 -0.00000000000E+00  0.00000000000E+00  0.89873127498E+03  0.89873127498E+03  0.00000000000E+00 0. -1.
         21   -1    0    0  501  502  0.00000000000E+00 -0.00000000000E+00 -0.20247819714E+02  0.20247819714E+02  0.00000000000E+00 0. -1.
         24    2    1    2    0    0  0.33827381232E+02  0.11473209978E+03  0.42853122291E+03  0.45339907167E+03  0.87315306435E+02 0.  0.
        -11    1    3    3    0    0 -0.53222352245E+01  0.83544321379E+02  0.16352631224E+03  0.18370855891E+03  0.00000000000E+00 0.  1.
         12    1    3    3    0    0  0.39149616457E+02  0.31187778399E+02  0.26500491068E+03  0.26969051276E+03  0.00000000000E+00 0. -1.
          1    1    1    2  501    0 -0.33827381232E+02 -0.11473209978E+03  0.44995223236E+03  0.46558002303E+03  0.00000000000E+00 0. -1.
<mgrwt>
<rscale>  1 0.14809358E+03</rscale>
<asrwt>0</asrwt>
<pdfrwt beam="1">  1       21 0.31150499E-02 0.14809358E+03</pdfrwt>
<pdfrwt beam="2">  1        2 0.13826632E+00 0.14809358E+03</pdfrwt>
<totfact> 0.22815653E+05</totfact>
</mgrwt>
</event>
<event>
 6    2  0.8544106E+000  0.8241441E+02  0.7546771E-02  0.1322336E+00
          2   -1    0    0  502    0 -0.00000000000E+00  0.00000000000E+00  0.86600174006E+03  0.86600174006E+03  0.00000000000E+00 0. -1.
         21   -1    0    0  501  502  0.00000000000E+00 -0.00000000000E+00 -0.45326586039E+01  0.45326586039E+01  0.00000000000E+00 0. -1.
         24    2    1    2    0    0 -0.13284115913E+02  0.18546886977E+02  0.81066177531E+03  0.81484025974E+03  0.79193940428E+02 0.  0.
        -11    1    3    3    0    0 -0.44662345849E+02  0.14409594817E+02  0.59769246827E+03  0.59953202432E+03  0.00000000000E+00 0.  1.
         12    1    3    3    0    0  0.31378229937E+02  0.41372921598E+01  0.21296930704E+03  0.21530823542E+03  0.00000000000E+00 0. -1.
          1    1    1    2  501    0  0.13284115913E+02 -0.18546886977E+02  0.50807306148E+02  0.55694138921E+02  0.00000000000E+00 0. -1.
<mgrwt>
<rscale>  1 0.82414410E+02</rscale>
<asrwt>0</asrwt>
<pdfrwt beam="1">  1       21 0.69733278E-03 0.82414410E+02</pdfrwt>
<pdfrwt beam="2">  1        2 0.13323091E+00 0.82414410E+02</pdfrwt>
<totfact> 0.24904040E+06</totfact>
</mgrwt>
</event>
<event>
 6    2  0.8544106E+000  0.9572996E+02  0.7546771E-02  0.1289540E+00
         21   -1    0    0  501  502  0.00000000000E+00  0.00000000000E+00  0.42689238766E+03  0.42689238766E+03  0.00000000000E+00 0. -1.
          2   -1    0    0  502    0 -0.00000000000E+00 -0.00000000000E+00 -0.32861518342E+02  0.32861518342E+02  0.00000000000E+00 0. -1.
         24    2    1    2    0    0 -0.21739615928E+02  0.48549703420E+02  0.43395814796E+02  0.10510672067E+03  0.79589832177E+02 0.  0.
        -13    1    3    3    0    0  0.25018841569E+02  0.16734446039E+02  0.37733665839E+02  0.48268143276E+02  0.00000000000E+00 0.  1.
         14    1    3    3    0    0 -0.46758457497E+02  0.31815257381E+02  0.56621489574E+01  0.56838577397E+02  0.00000000000E+00 0. -1.
          1    1    1    2  501    0  0.21739615928E+02 -0.48549703420E+02  0.35063505453E+03  0.35464718533E+03  0.00000000000E+00 0. -1.
<mgrwt>
<rscale>  1 0.95729964E+02</rscale>
<asrwt>0</asrwt>
<pdfrwt beam="1">  1       21 0.65675748E-01 0.95729964E+02</pdfrwt>
<pdfrwt beam="2">  1        2 0.50556185E-02 0.95729964E+02</pdfrwt>
<totfact> 0.39229257E+04</totfact>
</mgrwt>
</event>
<event>
 6    2  0.8544106E+000  0.8364998E+02  0.7546771E-02  0.1319001E+00
          2   -1    0    0  502    0 -0.00000000000E+00  0.00000000000E+00  0.63782688466E+03  0.63782688466E+03  0.00000000000E+00 0. -1.
         21   -1    0    0  501  502  0.00000000000E+00 -0.00000000000E+00 -0.50832092981E+01  0.50832092981E+01  0.00000000000E+00 0. -1.
         24    2    1    2    0    0 -0.22383363052E+02  0.10090822335E+02  0.55804703956E+03  0.56428168283E+03  0.79965489903E+02 0.  0.
        -13    1    3    3    0    0  0.20580502906E+02  0.29166714558E+02  0.28361860444E+03  0.28585620008E+03  0.00000000000E+00 0.  1.
         14    1    3    3    0    0 -0.42963865958E+02 -0.19075892223E+02  0.27442843512E+03  0.27842548275E+03  0.00000000000E+00 0. -1.
          1    1    1    2  501    0  0.22383363052E+02 -0.10090822335E+02  0.74696635805E+02  0.78628411134E+02  0.00000000000E+00 0. -1.
<mgrwt>
<rscale>  1 0.83649980E+02</rscale>
<asrwt>0</asrwt>
<pdfrwt beam="1">  1       21 0.78203270E-03 0.83649980E+02</pdfrwt>
<pdfrwt beam="2">  1        2 0.98127150E-01 0.83649980E+02</pdfrwt>
<totfact> 0.30045766E+06</totfact>
</mgrwt>
</event>
<event>
 6    2  0.8544106E+000  0.8612475E+02  0.7546771E-02  0.1312517E+00
         21   -1    0    0  501  502  0.00000000000E+00  0.00000000000E+00  0.33950888528E+01  0.33950888528E+01  0.00000000000E+00 0.  1.
          2   -1    0    0  502    0 -0.00000000000E+00 -0.00000000000E+00 -0.10977185663E+04  0.10977185663E+04  0.00000000000E+00 0. -1.
         24    2    1    2    0    0 -0.27044892828E+02 -0.13910712206E+02 -0.63933109405E+03  0.64510597639E+03  0.80576291869E+02 0.  0.
        -13    1    3    3    0    0  0.11962002317E+02  0.17957824503E+02 -0.63293159745E+02  0.66870000978E+02  0.00000000000E+00 0.  1.
         14    1    3    3    0    0 -0.39006895145E+02 -0.31868536709E+02 -0.57603793431E+03  0.57823597541E+03  0.00000000000E+00 0. -1.
          1    1    1    2  501    0  0.27044892828E+02  0.13910712206E+02 -0.45499238340E+03  0.45600767877E+03  0.00000000000E+00 0. -1.
<mgrwt>
<rscale>  1 0.86124752E+02</rscale>
<asrwt>0</asrwt>
<pdfrwt beam="1">  1       21 0.52232078E-03 0.86124752E+02</pdfrwt>
<pdfrwt beam="2">  1        2 0.16887997E+00 0.86124752E+02</pdfrwt>
<totfact> 0.28462272E+06</totfact>
</mgrwt>
</event>
<event>
 6    2  0.8544106E+000  0.8452761E+02  0.7546771E-02  0.1316673E+00
         21   -1    0    0  501  502  0.00000000000E+00  0.00000000000E+00  0.64753940384E+02  0.64753940384E+02  0.00000000000E+00 0.  1.
          4   -1    0    0  502    0 -0.00000000000E+00 -0.00000000000E+00 -0.47408633505E+02  0.47408633505E+02  0.00000000000E+00 0. -1.
         24    2    1    2    0    0  0.17839750096E+02  0.17749111561E+02  0.19988798275E+02  0.86858904363E+02  0.80694668759E+02 0.  0.
        -11    1    3    3    0    0 -0.50721357595E+01 -0.30382809942E+02  0.31920027922E+01  0.30968218918E+02  0.00000000000E+00 0.  1.
         12    1    3    3    0    0  0.22911885855E+02  0.48131921503E+02  0.16796795483E+02  0.55890685445E+02  0.00000000000E+00 0. -1.
          3    1    1    2  501    0 -0.17839750096E+02 -0.17749111561E+02 -0.26434913962E+01  0.25303669525E+02  0.00000000000E+00 0. -1.
<mgrwt>
<rscale>  1 0.84527612E+02</rscale>
<asrwt>0</asrwt>
<pdfrwt beam="1">  1       21 0.99621447E-02 0.84527612E+02</pdfrwt>
<pdfrwt beam="2">  1        4 0.72936359E-02 0.84527612E+02</pdfrwt>
<totfact> 0.38455645E+05</totfact>
</mgrwt>
</event>
<event>
 6    2  0.8544106E+000  0.8271895E+02  0.7546771E-02  0.1321508E+00
          2   -1    0    0  502    0 -0.00000000000E+00  0.00000000000E+00  0.67519745457E+03  0.67519745457E+03  0.00000000000E+00 0. -1.
         21   -1    0    0  501  502  0.00000000000E+00 -0.00000000000E+00 -0.67402109783E+01  0.67402109783E+01  0.00000000000E+00 0. -1.
         24    2    1    2    0    0 -0.20707754852E+02 -0.13228206149E+02  0.63532798878E+03  0.64069031323E+03  0.78984983309E+02 0.  0.
        -13    1    3    3    0    0 -0.57605085425E+01  0.25547411466E+02  0.88711199572E+02  0.92496111382E+02  0.00000000000E+00 0.  1.
         14    1    3    3    0    0 -0.14947246309E+02 -0.38775617616E+02  0.54661678921E+03  0.54819420185E+03  0.00000000000E+00 0. -1.
          1    1    1    2  501    0  0.20707754852E+02  0.13228206149E+02  0.33129254805E+02  0.41247352313E+02  0.00000000000E+00 0. -1.
<mgrwt>
<rscale>  1 0.82718947E+02</rscale>
<asrwt>0</asrwt>
<pdfrwt beam="1">  1       21 0.10369561E-02 0.82718947E+02</pdfrwt>
<pdfrwt beam="2">  1        2 0.10387648E+00 0.82718947E+02</pdfrwt>
<totfact> 0.18134323E+06</totfact>
</mgrwt>
</event>
<event>
 6    2  0.8544106E+000  0.8836083E+02  0.7546771E-02  0.1306870E+00
         21   -1    0    0  501  502  0.00000000000E+00  0.00000000000E+00  0.16796574336E+02  0.16796574336E+02  0.00000000000E+00 0.  1.
          2   -1    0    0  502    0 -0.00000000000E+00 -0.00000000000E+00 -0.32985338672E+03  0.32985338672E+03  0.00000000000E+00 0. -1.
         24    2    1    2    0    0  0.33010828063E+02 -0.12392018550E+02 -0.11267590054E+03  0.14319041538E+03  0.81020735634E+02 0.  0.
        -11    1    3    3    0    0  0.15561954591E+02 -0.35902225872E+02 -0.16166782808E+02  0.42338033961E+02  0.00000000000E+00 0.  1.
         12    1    3    3    0    0  0.17448873472E+02  0.23510207323E+02 -0.96509117730E+02  0.10085238142E+03  0.00000000000E+00 0. -1.
          1    1    1    2  501    0 -0.33010828063E+02  0.12392018550E+02 -0.20038091185E+03  0.20345954567E+03  0.00000000000E+00 0. -1.
<mgrwt>
<rscale>  1 0.88360831E+02</rscale>
<asrwt>0</asrwt>
<pdfrwt beam="1">  1       21 0.25840886E-02 0.88360831E+02</pdfrwt>
<pdfrwt beam="2">  1        2 0.50746670E-01 0.88360831E+02</pdfrwt>
<totfact> 0.92832143E+05</totfact>
</mgrwt>
</event>
<event>
 6    2  0.8544106E+000  0.8393279E+02  0.7546771E-02  0.1318247E+00
         21   -1    0    0  501  502  0.00000000000E+00  0.00000000000E+00  0.38615058457E+01  0.38615058457E+01  0.00000000000E+00 0.  1.
          2   -1    0    0  502    0 -0.00000000000E+00 -0.00000000000E+00 -0.72318918597E+03  0.72318918597E+03  0.00000000000E+00 0. -1.
         24    2    1    2    0    0  0.10975159603E+02  0.17934610181E+02 -0.60655291941E+03  0.61233255452E+03  0.81256439182E+02 0.  0.
        -11    1    3    3    0    0  0.10169448189E+02 -0.32191332590E+02 -0.23476705445E+03  0.23718193318E+03  0.00000000000E+00 0.  1.
         12    1    3    3    0    0  0.80571141436E+00  0.50125942770E+02 -0.37178586496E+03  0.37515062134E+03  0.00000000000E+00 0. -1.
          1    1    1    2  501    0 -0.10975159603E+02 -0.17934610181E+02 -0.11277476072E+03  0.11471813730E+03  0.00000000000E+00 0. -1.
<mgrwt>
<rscale>  1 0.83932790E+02</rscale>
<asrwt>0</asrwt>
<pdfrwt beam="1">  1       21 0.59407759E-03 0.83932790E+02</pdfrwt>
<pdfrwt beam="2">  1        2 0.11125992E+00 0.83932790E+02</pdfrwt>
<totfact> 0.39744208E+06</totfact>
</mgrwt>
</event>
<event>
 6    2  0.8544106E+000  0.9576169E+02  0.7546771E-02  0.1289470E+00
          4   -1    0    0  502    0 -0.00000000000E+00  0.00000000000E+00  0.52574109440E+03  0.52574109440E+03  0.00000000000E+00 0. -1.
         21   -1    0    0  501  502  0.00000000000E+00 -0.00000000000E+00 -0.84313837913E+02  0.84313837913E+02  0.00000000000E+00 0. -1.
         24    2    1    2    0    0  0.30326451338E+02  0.42461089239E+02  0.51278771962E+03  0.52165270695E+03  0.80297344450E+02 0.  0.
        -13    1    3    3    0    0 -0.11527246279E+02  0.50653638053E+02  0.24062353346E+03  0.24616732787E+03  0.00000000000E+00 0.  1.
         14    1    3    3    0    0  0.41853697616E+02 -0.81925488142E+01  0.27216418616E+03  0.27548537908E+03  0.00000000000E+00 0. -1.
          3    1    1    2  501    0 -0.30326451338E+02 -0.42461089239E+02 -0.71360463134E+02  0.88402225361E+02  0.00000000000E+00 0. -1.
<mgrwt>
<rscale>  1 0.95761690E+02</rscale>
<asrwt>0</asrwt>
<pdfrwt beam="1">  1       21 0.12971360E-01 0.95761690E+02</pdfrwt>
<pdfrwt beam="2">  1        4 0.80883243E-01 0.95761690E+02</pdfrwt>
<totfact> 0.28560302E+03</totfact>
</mgrwt>
</event>
<event>
 6    2  0.8544106E+000  0.9120171E+02  0.7546771E-02  0.1299967E+00
         21   -1    0    0  501  502  0.00000000000E+00  0.00000000000E+00  0.12487958537E+02  0.12487958537E+02  0.00000000000E+00 0. -1.
          2   -1    0    0  502    0 -0.00000000000E+00 -0.00000000000E+00 -0.33932839208E+03  0.33932839208E+03  0.00000000000E+00 0. -1.
         24    2    1    2    0    0  0.23442093215E+02  0.20881400975E+02 -0.28670510520E+03  0.30086137812E+03  0.85628189611E+02 0.  0.
        -13    1    3    3    0    0  0.73758054648E+01  0.49554203341E+02 -0.10665456381E+03  0.11783555303E+03  0.00000000000E+00 0.  1.
         14    1    3    3    0    0  0.16066287751E+02 -0.28672802366E+02 -0.18005054138E+03  0.18302582509E+03  0.00000000000E+00 0. -1.
          1    1    1    2  501    0 -0.23442093215E+02 -0.20881400975E+02 -0.40135328351E+02  0.50954972503E+02  0.00000000000E+00 0. -1.
<mgrwt>
<rscale>  1 0.91201708E+02</rscale>
<asrwt>0</asrwt>
<pdfrwt beam="1">  1       21 0.19212244E-02 0.91201708E+02</pdfrwt>
<pdfrwt beam="2">  1        2 0.52204367E-01 0.91201708E+02</pdfrwt>
<totfact> 0.14557122E+06</totfact>
</mgrwt>
</event>
<event>
 6    2  0.8544106E+000  0.8443291E+02  0.7546771E-02  0.1316922E+00
         -1   -1    0    0    0  501 -0.00000000000E+00  0.00000000000E+00  0.78176129346E+01  0.78176129346E+01  0.00000000000E+00 0.  1.
         21   -1    0    0  501  502  0.00000000000E+00 -0.00000000000E+00 -0.40892367382E+03  0.40892367382E+03  0.00000000000E+00 0. -1.
         24    2    1    2    0    0  0.18232170432E+02  0.94103642900E+01 -0.36975976606E+03  0.37927720803E+03  0.81902069244E+02 0.  0.
        -13    1    3    3    0    0 -0.23906645899E+02 -0.19520760687E+02 -0.18589430659E+03  0.18843906453E+03  0.00000000000E+00 0.  1.
         14    1    3    3    0    0  0.42138816331E+02  0.28931124977E+02 -0.18386545946E+03  0.19083814351E+03  0.00000000000E+00 0. -1.
         -2    1    1    2    0  502 -0.18232170432E+02 -0.94103642900E+01 -0.31346294827E+02  0.37464078717E+02  0.00000000000E+00 0.  1.
<mgrwt>
<rscale>  1 0.84432908E+02</rscale>
<asrwt>0</asrwt>
<pdfrwt beam="1">  1       21 0.62911362E-01 0.84432908E+02</pdfrwt>
<pdfrwt beam="2">  1       -1 0.12027092E-02 0.84432908E+02</pdfrwt>
<totfact> 0.27516091E+05</totfact>
</mgrwt>
</event>
<event>
 6    2  0.8544106E+000  0.9569385E+02  0.7546771E-02  0.1289621E+00
         21   -1    0    0  501  502  0.00000000000E+00  0.00000000000E+00  0.15477123767E+01  0.15477123767E+01  0.00000000000E+00 0.  1.
          2   -1    0    0  502    0 -0.00000000000E+00 -0.00000000000E+00 -0.48105406301E+04  0.48105406301E+04  0.00000000000E+00 0. -1.
         24    2    1    2    0    0 -0.52484538773E+02 -0.24318821587E+02 -0.18019875096E+04  0.18045266130E+04  0.76231755320E+02 0.  0.
        -13    1    3    3    0    0 -0.61594805903E+02  0.58937764171E+00 -0.87778033330E+03  0.87993896437E+03  0.00000000000E+00 0.  1.
         14    1    3    3    0    0  0.91102671292E+01 -0.24908199229E+02 -0.92420717629E+03  0.92458764867E+03  0.00000000000E+00 0. -1.
          1    1    1    2  501    0  0.52484538773E+02  0.24318821587E+02 -0.30070054082E+04  0.30075617295E+04  0.00000000000E+00 0. -1.
<mgrwt>
<rscale>  1 0.95693847E+02</rscale>
<asrwt>0</asrwt>
<pdfrwt beam="1">  1       21 0.23811413E-03 0.95693847E+02</pdfrwt>
<pdfrwt beam="2">  1        2 0.74006908E+00 0.95693847E+02</pdfrwt>
<totfact> 0.42599521E+04</totfact>
</mgrwt>
</event>
<event>
 6    2  0.8544106E+000  0.1706642E+03  0.7546771E-02  0.1177157E+00
          2   -1    0    0  502    0 -0.00000000000E+00  0.00000000000E+00  0.97181648320E+03  0.97181648320E+03  0.00000000000E+00 0. -1.
         21   -1    0    0  501  502  0.00000000000E+00 -0.00000000000E+00 -0.41017490140E+02  0.41017490140E+02  0.00000000000E+00 0. -1.
         24    2    1    2    0    0 -0.14835924467E+03  0.11196882859E+02  0.78919721392E+03  0.80743947604E+03  0.83608787496E+02 0.  0.
        -11    1    3    3    0    0 -0.30732430786E+02  0.22222304035E+02  0.80794044977E+02  0.89252399420E+02  0.00000000000E+00 0.  1.
         12    1    3    3    0    0 -0.11762681388E+03 -0.11025421176E+02  0.70840316895E+03  0.71818707662E+03  0.00000000000E+00 0. -1.
          1    1    1    2  501    0  0.14835924467E+03 -0.11196882859E+02  0.14160177914E+03  0.20539449729E+03  0.00000000000E+00 0. -1.
<mgrwt>
<rscale>  1 0.17066419E+03</rscale>
<asrwt>0</asrwt>
<pdfrwt beam="1">  1       21 0.63103838E-02 0.17066419E+03</pdfrwt>
<pdfrwt beam="2">  1        2 0.14951021E+00 0.17066419E+03</pdfrwt>
<totfact> 0.62916494E+04</totfact>
</mgrwt>
</event>
<event>
 6    2  0.8544106E+000  0.8437535E+02  0.7546771E-02  0.1317074E+00
         -1   -1    0    0    0  501 -0.00000000000E+00  0.00000000000E+00  0.35621088623E+03  0.35621088623E+03  0.00000000000E+00 0.  1.
         21   -1    0    0  501  502  0.00000000000E+00 -0.00000000000E+00 -0.18677063585E+02  0.18677063585E+02  0.00000000000E+00 0.  1.
         24    2    1    2    0    0 -0.79417986328E+01 -0.24376382752E+02  0.33886931683E+03  0.34921571293E+03  0.80386068872E+02 0.  0.
        -11    1    3    3    0    0  0.14160227696E+02 -0.33146964781E+02  0.30872308108E+03  0.31082016362E+03  0.00000000000E+00 0.  1.
         12    1    3    3    0    0 -0.22102026329E+02  0.87705820289E+01  0.30146235750E+02  0.38395549311E+02  0.00000000000E+00 0. -1.
         -2    1    1    2    0  502  0.79417986328E+01  0.24376382752E+02 -0.13354941893E+01  0.25672236878E+02  0.00000000000E+00 0.  1.
<mgrwt>
<rscale>  1 0.84375353E+02</rscale>
<asrwt>0</asrwt>
<pdfrwt beam="1">  1       21 0.28733947E-02 0.84375353E+02</pdfrwt>
<pdfrwt beam="2">  1       -1 0.54801670E-01 0.84375353E+02</pdfrwt>
<totfact> 0.20581426E+05</totfact>
</mgrwt>
</event>
<event>
 6    2  0.8544106E+000  0.8347952E+02  0.7546771E-02  0.1319457E+00
         -3   -1    0    0    0  501 -0.00000000000E+00  0.00000000000E+00  0.85793315503E+02  0.85793315503E+02  0.00000000000E+00 0.  1.
         21   -1    0    0  501  502  0.00000000000E+00 -0.00000000000E+00 -0.38365037091E+02  0.38365037091E+02  0.00000000000E+00 0.  1.
         24    2    1    2    0    0 -0.19263709697E+02  0.91394767567E+01  0.56693170600E+02  0.10091058337E+03  0.80710654170E+02 0.  0.
        -13    1    3    3    0    0 -0.39342109311E+02  0.88174379942E+01  0.67109015787E+02  0.78289008026E+02  0.00000000000E+00 0.  1.
         14    1    3    3    0    0  0.20078399614E+02  0.32203876255E+00 -0.10415845187E+02  0.22621575343E+02  0.00000000000E+00 0. -1.
         -4    1    1    2    0  502  0.19263709697E+02 -0.91394767567E+01 -0.92648921882E+01  0.23247769225E+02  0.00000000000E+00 0.  1.
<mgrwt>
<rscale>  1 0.83479520E+02</rscale>
<asrwt>0</asrwt>
<pdfrwt beam="1">  1       21 0.59023135E-02 0.83479520E+02</pdfrwt>
<pdfrwt beam="2">  1       -3 0.13198971E-01 0.83479520E+02</pdfrwt>
<totfact> 0.40722182E+05</totfact>
</mgrwt>
</event>
<event>
 6    2  0.8544106E+000  0.8606802E+02  0.7546771E-02  0.1312663E+00
          2   -1    0    0  502    0 -0.00000000000E+00  0.00000000000E+00  0.11435269485E+04  0.11435269485E+04  0.00000000000E+00 0. -1.
         21   -1    0    0  501  502  0.00000000000E+00 -0.00000000000E+00 -0.90334718878E+01  0.90334718878E+01  0.00000000000E+00 0. -1.
         24    2    1    2    0    0 -0.21176018488E+02  0.17929448573E+02  0.11157758493E+04  0.11190904569E+04  0.81472792601E+02 0.  0.
        -13    1    3    3    0    0 -0.41817802315E+02  0.14390802787E+02  0.32027020302E+03  0.32330918134E+03  0.00000000000E+00 0.  1.
         14    1    3    3    0    0  0.20641783827E+02  0.35386457853E+01  0.79550564629E+03  0.79578127556E+03  0.00000000000E+00 0. -1.
          1    1    1    2  501    0  0.21176018488E+02 -0.17929448573E+02  0.18717627336E+02  0.33469963523E+02  0.00000000000E+00 0. -1.
<mgrwt>
<rscale>  1 0.86068024E+02</rscale>
<asrwt>0</asrwt>
<pdfrwt beam="1">  1       21 0.13897658E-02 0.86068024E+02</pdfrwt>
<pdfrwt beam="2">  1        2 0.17592711E+00 0.86068024E+02</pdfrwt>
<totfact> 0.58655967E+05</totfact>
</mgrwt>
</event>
<event>
 6    2  0.8544106E+000  0.9823858E+02  0.7546771E-02  0.1284044E+00
         21   -1    0    0  501  502  0.00000000000E+00  0.00000000000E+00  0.39346353170E+01  0.39346353170E+01  0.00000000000E+00 0. -1.
          2   -1    0    0  502    0 -0.00000000000E+00 -0.00000000000E+00 -0.17211853663E+04  0.17211853663E+04  0.00000000000E+00 0. -1.
         24    2    1    2    0    0 -0.42248303338E+02  0.36693189274E+02 -0.13567690561E+04  0.13603209511E+04  0.80743478705E+02 0.  0.
        -11    1    3    3    0    0 -0.12843853846E+02  0.40880527192E+02 -0.29099179025E+03  0.29412991021E+03  0.00000000000E+00 0.  1.
         12    1    3    3    0    0 -0.29404449493E+02 -0.41873379182E+01 -0.10657772658E+04  0.10661910409E+04  0.00000000000E+00 0. -1.
          1    1    1    2  501    0  0.42248303338E+02 -0.36693189274E+02 -0.36048167493E+03  0.36479905049E+03  0.00000000000E+00 0. -1.
<mgrwt>
<rscale>  1 0.98238580E+02</rscale>
<asrwt>0</asrwt>
<pdfrwt beam="1">  1       21 0.60532963E-03 0.98238580E+02</pdfrwt>
<pdfrwt beam="2">  1        2 0.26479726E+00 0.98238580E+02</pdfrwt>
<totfact> 0.10822314E+06</totfact>
</mgrwt>
</event>
<event>
 6    2  0.8544106E+000  0.8351202E+02  0.7546771E-02  0.1319370E+00
         21   -1    0    0  501  502  0.00000000000E+00  0.00000000000E+00  0.27056502249E+01  0.27056502249E+01  0.00000000000E+00 0.  1.
          2   -1    0    0  502    0 -0.00000000000E+00 -0.00000000000E+00 -0.13007217256E+04  0.13007217256E+04  0.00000000000E+00 0. -1.
         24    2    1    2    0    0  0.18805902792E+02 -0.12016762051E+02 -0.12000108262E+04  0.12029132305E+04  0.80474794179E+02 0.  0.
        -11    1    3    3    0    0 -0.18211668733E+02  0.11895367046E+01 -0.74022022434E+02  0.76238701988E+02  0.00000000000E+00 0.  1.
         12    1    3    3    0    0  0.37017571526E+02 -0.13206298755E+02 -0.11259888038E+04  0.11266745285E+04  0.00000000000E+00 0. -1.
          1    1    1    2  501    0 -0.18805902792E+02  0.12016762051E+02 -0.98005249163E+02  0.10051414534E+03  0.00000000000E+00 0. -1.
<mgrwt>
<rscale>  1 0.83512017E+02</rscale>
<asrwt>0</asrwt>
<pdfrwt beam="1">  1       21 0.41625321E-03 0.83512017E+02</pdfrwt>
<pdfrwt beam="2">  1        2 0.20011136E+00 0.83512017E+02</pdfrwt>
<totfact> 0.31149839E+06</totfact>
</mgrwt>
</event>
<event>
 6    2  0.8544106E+000  0.8325871E+02  0.7546771E-02  0.1320050E+00
         -1   -1    0    0    0  501 -0.00000000000E+00  0.00000000000E+00  0.45454486028E+01  0.45454486028E+01  0.00000000000E+00 0.  1.
         21   -1    0    0  501  502  0.00000000000E+00 -0.00000000000E+00 -0.91451158461E+03  0.91451158461E+03  0.00000000000E+00 0. -1.
         24    2    1    2    0    0  0.74746434018E+01  0.21893357587E+02 -0.40033633267E+03  0.40890242346E+03  0.79980142892E+02 0.  0.
        -13    1    3    3    0    0  0.36242701070E+02 -0.99421248304E+01 -0.13560622361E+03  0.14071754371E+03  0.00000000000E+00 0.  1.
         14    1    3    3    0    0 -0.28768057668E+02  0.31835482417E+02 -0.26473010906E+03  0.26818487975E+03  0.00000000000E+00 0. -1.
         -2    1    1    2    0  502 -0.74746434018E+01 -0.21893357587E+02 -0.50962980334E+03  0.51015460976E+03  0.00000000000E+00 0.  1.
<mgrwt>
<rscale>  1 0.83258709E+02</rscale>
<asrwt>0</asrwt>
<pdfrwt beam="1">  1       21 0.14069394E+00 0.83258709E+02</pdfrwt>
<pdfrwt beam="2">  1       -1 0.69930054E-03 0.83258709E+02</pdfrwt>
<totfact> 0.93636956E+04</totfact>
</mgrwt>
</event>
<event>
 6    2  0.8544106E+000  0.8339017E+02  0.7546771E-02  0.1319697E+00
          2   -1    0    0  502    0 -0.00000000000E+00  0.00000000000E+00  0.34010609363E+03  0.34010609363E+03  0.00000000000E+00 0. -1.
         21   -1    0    0  501  502  0.00000000000E+00 -0.00000000000E+00 -0.12034039981E+02  0.12034039981E+02  0.00000000000E+00 0. -1.
         24    2    1    2    0    0  0.83532272297E+01 -0.19667699759E+02  0.31755969306E+03  0.32832617670E+03  0.80605985053E+02 0.  0.
        -11    1    3    3    0    0 -0.34124221982E+02 -0.22099331996E+02  0.14417153141E+03  0.14979410359E+03  0.00000000000E+00 0.  1.
         12    1    3    3    0    0  0.42477449211E+02  0.24316322368E+01  0.17338816166E+03  0.17853207311E+03  0.00000000000E+00 0. -1.
          1    1    1    2  501    0 -0.83532272297E+01  0.19667699759E+02  0.10512360589E+02  0.23813956919E+02  0.00000000000E+00 0. -1.
<mgrwt>
<rscale>  1 0.83390165E+02</rscale>
<asrwt>0</asrwt>
<pdfrwt beam="1">  1       21 0.18513910E-02 0.83390165E+02</pdfrwt>
<pdfrwt beam="2">  1        2 0.52324007E-01 0.83390165E+02</pdfrwt>
<totfact> 0.15248686E+06</totfact>
</mgrwt>
</event>
<event>
 6    2  0.8544106E+000  0.8515882E+02  0.7546771E-02  0.1315018E+00
         21   -1    0    0  501  502  0.00000000000E+00  0.00000000000E+00  0.73482802858E+01  0.73482802858E+01  0.00000000000E+00 0. -1.
          2   -1    0    0  502    0 -0.00000000000E+00 -0.00000000000E+00 -0.63433348918E+03  0.63433348918E+03  0.00000000000E+00 0. -1.
         24    2    1    2    0    0  0.42569836539E+02 -0.53723735727E-01 -0.51272732543E+03  0.51975122447E+03  0.73755211518E+02 0.  0.
        -11    1    3    3    0    0 -0.19584551908E+02 -0.38075563062E+01 -0.74626093249E+02  0.77247044941E+02  0.00000000000E+00 0.  1.
         12    1    3    3    0    0  0.62154388447E+02  0.37538325704E+01 -0.43810123219E+03  0.44250417953E+03  0.00000000000E+00 0. -1.
          1    1    1    2  501    0 -0.42569836539E+02  0.53723735727E-01 -0.11425788346E+03  0.12193054499E+03  0.00000000000E+00 0. -1.
<mgrwt>
<rscale>  1 0.85158823E+02</rscale>
<asrwt>0</asrwt>
<pdfrwt beam="1">  1       21 0.11305045E-02 0.85158823E+02</pdfrwt>
<pdfrwt beam="2">  1        2 0.97589779E-01 0.85158823E+02</pdfrwt>
<totfact> 0.17064771E+06</totfact>
</mgrwt>
</event>
<event>
 6    2  0.8544106E+000  0.8224720E+02  0.7546771E-02  0.1322793E+00
         -1   -1    0    0    0  501 -0.00000000000E+00  0.00000000000E+00  0.20338661798E+03  0.20338661798E+03  0.00000000000E+00 0.  1.
         21   -1    0    0  501  502  0.00000000000E+00 -0.00000000000E+00 -0.17010809966E+02  0.17010809966E+02  0.00000000000E+00 0. -1.
         24    2    1    2    0    0  0.60934180370E+01 -0.26738591086E+02  0.16894767407E+03  0.18790401555E+03  0.77540444205E+02 0.  0.
        -11    1    3    3    0    0  0.40793880352E+02 -0.61426005510E+01  0.97098927949E+02  0.10549916599E+03  0.00000000000E+00 0.  1.
         12    1    3    3    0    0 -0.34700462315E+02 -0.20595990535E+02  0.71848746125E+02  0.82404849559E+02  0.00000000000E+00 0. -1.
         -2    1    1    2    0  502 -0.60934180370E+01  0.26738591086E+02  0.17428133942E+02  0.32493412400E+02  0.00000000000E+00 0.  1.
<mgrwt>
<rscale>  1 0.82247204E+02</rscale>
<asrwt>0</asrwt>
<pdfrwt beam="1">  1       21 0.26170478E-02 0.82247204E+02</pdfrwt>
<pdfrwt beam="2">  1       -1 0.31290247E-01 0.82247204E+02</pdfrwt>
<totfact> 0.63446496E+05</totfact>
</mgrwt>
</event>
<event>
 6    2  0.8544106E+000  0.7884316E+02  0.7546771E-02  0.1332367E+00
         21   -1    0    0  501  502  0.00000000000E+00  0.00000000000E+00  0.31101810949E+02  0.31101810949E+02  0.00000000000E+00 0. -1.
          4   -1    0    0  502    0 -0.00000000000E+00 -0.00000000000E+00 -0.20558443988E+03  0.20558443988E+03  0.00000000000E+00 0. -1.
         24    2    1    2    0    0  0.51064594794E+02  0.39131798598E+01 -0.31666165750E+02  0.84964637425E+02  0.59944455468E+02 0.  0.
        -11    1    3    3    0    0  0.26387320047E+01  0.19448566789E+02  0.72536835946E+01  0.20924282125E+02  0.00000000000E+00 0.  1.
         12    1    3    3    0    0  0.48425862790E+02 -0.15535386929E+02 -0.38919849345E+02  0.64040355300E+02  0.00000000000E+00 0. -1.
          3    1    1    2  501    0 -0.51064594794E+02 -0.39131798598E+01 -0.14281646318E+03  0.15172161340E+03  0.00000000000E+00 0. -1.
<mgrwt>
<rscale>  1 0.78843158E+02</rscale>
<asrwt>0</asrwt>
<pdfrwt beam="1">  1       21 0.47848941E-02 0.78843158E+02</pdfrwt>
<pdfrwt beam="2">  1        4 0.31628375E-01 0.78843158E+02</pdfrwt>
<totfact> 0.10246573E+05</totfact>
</mgrwt>
</event>
<event>
 6    2  0.8544106E+000  0.8710798E+02  0.7546771E-02  0.1310010E+00
         -3   -1    0    0    0  501 -0.00000000000E+00  0.00000000000E+00  0.56384438721E+02  0.56384438721E+02  0.00000000000E+00 0.  1.
         21   -1    0    0  501  502  0.00000000000E+00 -0.00000000000E+00 -0.13777814699E+03  0.13777814699E+03  0.00000000000E+00 0.  1.
         24    2    1    2    0    0 -0.25997095337E+02  0.31594936287E+02  0.15962114021E+02  0.88558394986E+02  0.76900658473E+02 0.  0.
        -11    1    3    3    0    0 -0.29183032885E+02  0.12141460592E+02  0.44066290661E+02  0.54230088017E+02  0.00000000000E+00 0.  1.
         12    1    3    3    0    0  0.31859375480E+01  0.19453475696E+02 -0.28104176641E+02  0.34328306969E+02  0.00000000000E+00 0. -1.
         -4    1    1    2    0  502  0.25997095337E+02 -0.31594936287E+02 -0.97355822293E+02  0.10560419073E+03  0.00000000000E+00 0.  1.
<mgrwt>
<rscale>  1 0.87107980E+02</rscale>
<asrwt>0</asrwt>
<pdfrwt beam="1">  1       21 0.21196638E-01 0.87107980E+02</pdfrwt>
<pdfrwt beam="2">  1       -3 0.86745290E-02 0.87107980E+02</pdfrwt>
<totfact> 0.87472976E+04</totfact>
</mgrwt>
</event>
<event>
 6    2  0.8544106E+000  0.8249871E+02  0.7546771E-02  0.1322106E+00
         -1   -1    0    0    0  501 -0.00000000000E+00  0.00000000000E+00  0.23277549175E+02  0.23277549175E+02  0.00000000000E+00 0.  1.
         21   -1    0    0  501  502  0.00000000000E+00 -0.00000000000E+00 -0.11847520706E+03  0.11847520706E+03  0.00000000000E+00 0. -1.
         24    2    1    2    0    0  0.17407330902E+02  0.13090990627E+02 -0.68017743450E+02  0.10692264063E+03  0.79571656069E+02 0.  0.
        -11    1    3    3    0    0 -0.14137611751E+02 -0.20377044542E+02  0.17165793144E-01  0.24801135154E+02  0.00000000000E+00 0.  1.
         12    1    3    3    0    0  0.31544942653E+02  0.33468035169E+02 -0.68034909244E+02  0.82121505471E+02  0.00000000000E+00 0. -1.
         -2    1    1    2    0  502 -0.17407330902E+02 -0.13090990627E+02 -0.27179914433E+02  0.34830115609E+02  0.00000000000E+00 0.  1.
<mgrwt>
<rscale>  1 0.82498713E+02</rscale>
<asrwt>0</asrwt>
<pdfrwt beam="1">  1       21 0.18226955E-01 0.82498713E+02</pdfrwt>
<pdfrwt beam="2">  1       -1 0.35811615E-02 0.82498713E+02</pdfrwt>
<totfact> 0.64265969E+05</totfact>
</mgrwt>
</event>
<event>
 6    2  0.8544106E+000  0.8346478E+02  0.7546771E-02  0.1319497E+00
         -3   -1    0    0    0  501 -0.00000000000E+00  0.00000000000E+00  0.41936355828E+02  0.41936355828E+02  0.00000000000E+00 0.  1.
         21   -1    0    0  501  502  0.00000000000E+00 -0.00000000000E+00 -0.70838266786E+02  0.70838266786E+02  0.00000000000E+00 0. -1.
         24    2    1    2    0    0  0.61729385667E+01  0.22405603235E+02 -0.31876309359E+02  0.89344657341E+02  0.80163910023E+02 0.  0.
        -13    1    3    3    0    0  0.14709459230E-01 -0.29943259876E+02 -0.56537801170E+01  0.30472352354E+02  0.00000000000E+00 0.  1.
         14    1    3    3    0    0  0.61582291075E+01  0.52348863111E+02 -0.26222529242E+02  0.58872304988E+02  0.00000000000E+00 0. -1.
         -4    1    1    2    0  502 -0.61729385667E+01 -0.22405603235E+02  0.29743984003E+01  0.23429965273E+02  0.00000000000E+00 0.  1.
<mgrwt>
<rscale>  1 0.83464775E+02</rscale>
<asrwt>0</asrwt>
<pdfrwt beam="1">  1       21 0.10898195E-01 0.83464775E+02</pdfrwt>
<pdfrwt beam="2">  1       -3 0.64517471E-02 0.83464775E+02</pdfrwt>
<totfact> 0.45801786E+05</totfact>
</mgrwt>
</event>
<event>
 6    2  0.8544106E+000  0.8312195E+02  0.7546771E-02  0.1320418E+00
          2   -1    0    0  502    0 -0.00000000000E+00  0.00000000000E+00  0.11865888589E+04  0.11865888589E+04  0.00000000000E+00 0. -1.
         21   -1    0    0  501  502  0.00000000000E+00 -0.00000000000E+00 -0.23974243838E+01  0.23974243838E+01  0.00000000000E+00 0.  1.
         24    2    1    2    0    0  0.16566530600E+02 -0.15883573634E+02  0.97618696487E+03  0.97971947454E+03  0.79890678869E+02 0.  0.
        -13    1    3    3    0    0 -0.12709722303E+02 -0.41416105276E+02  0.58795764310E+03  0.58955154218E+03  0.00000000000E+00 0.  1.
         14    1    3    3    0    0  0.29276252902E+02  0.25532531642E+02  0.38822932177E+03  0.39016793236E+03  0.00000000000E+00 0. -1.
          1    1    1    2  501    0 -0.16566530600E+02  0.15883573634E+02  0.20800446960E+03  0.20926680869E+03  0.00000000000E+00 0. -1.
<mgrwt>
<rscale>  1 0.83121949E+02</rscale>
<asrwt>0</asrwt>
<pdfrwt beam="1">  1       21 0.36883547E-03 0.83121949E+02</pdfrwt>
<pdfrwt beam="2">  1        2 0.18255166E+00 0.83121949E+02</pdfrwt>
<totfact> 0.43057721E+06</totfact>
</mgrwt>
</event>
<event>
 6    2  0.8544106E+000  0.8806095E+02  0.7546771E-02  0.1307617E+00
         21   -1    0    0  501  502  0.00000000000E+00  0.00000000000E+00  0.86888854965E+01  0.86888854965E+01  0.00000000000E+00 0.  1.
         -1   -1    0    0    0  501 -0.00000000000E+00 -0.00000000000E+00 -0.53671355682E+03  0.53671355682E+03  0.00000000000E+00 0.  1.
         24    2    1    2    0    0  0.29374255745E+02 -0.57085295374E+01 -0.48539645986E+03  0.49331982888E+03  0.82820867601E+02 0.  0.
        -11    1    3    3    0    0 -0.31037570509E+00 -0.39811310652E+02 -0.29241537229E+03  0.29511317616E+03  0.00000000000E+00 0.  1.
         12    1    3    3    0    0  0.29684631450E+02  0.34102781115E+02 -0.19298108757E+03  0.19820665272E+03  0.00000000000E+00 0. -1.
         -2    1    1    2    0  502 -0.29374255745E+02  0.57085295374E+01 -0.42628211467E+02  0.52082613442E+02  0.00000000000E+00 0.  1.
<mgrwt>
<rscale>  1 0.88060947E+02</rscale>
<asrwt>0</asrwt>
<pdfrwt beam="1">  1       21 0.13367510E-02 0.88060947E+02</pdfrwt>
<pdfrwt beam="2">  1       -1 0.82571352E-01 0.88060947E+02</pdfrwt>
<totfact> 0.31748080E+05</totfact>
</mgrwt>
</event>
<event>
 6    2  0.8544106E+000  0.8265919E+02  0.7546771E-02  0.1321670E+00
         21   -1    0    0  501  502  0.00000000000E+00  0.00000000000E+00  0.24962850919E+01  0.24962850919E+01  0.00000000000E+00 0.  1.
          2   -1    0    0  502    0 -0.00000000000E+00 -0.00000000000E+00 -0.10877951753E+04  0.10877951753E+04  0.00000000000E+00 0. -1.
         24    2    1    2    0    0  0.17043375711E+02  0.12810228335E+02 -0.89117371044E+03  0.89499895151E+03  0.79862146341E+02 0.  0.
        -11    1    3    3    0    0 -0.16191625124E+02 -0.20397946357E+02 -0.14304265510E+03  0.14539410620E+03  0.00000000000E+00 0.  1.
         12    1    3    3    0    0  0.33235000835E+02  0.33208174692E+02 -0.74813105534E+03  0.74960484531E+03  0.00000000000E+00 0. -1.
          1    1    1    2  501    0 -0.17043375711E+02 -0.12810228335E+02 -0.19412517980E+03  0.19529250891E+03  0.00000000000E+00 0. -1.
<mgrwt>
<rscale>  1 0.82659186E+02</rscale>
<asrwt>0</asrwt>
<pdfrwt beam="1">  1       21 0.38404372E-03 0.82659186E+02</pdfrwt>
<pdfrwt beam="2">  1        2 0.16735317E+00 0.82659186E+02</pdfrwt>
<totfact> 0.45882156E+06</totfact>
</mgrwt>
</event>
<event>
 6    2  0.8544106E+000  0.8390206E+02  0.7546771E-02  0.1318329E+00
         21   -1    0    0  501  502  0.00000000000E+00  0.00000000000E+00  0.50481236324E+02  0.50481236324E+02  0.00000000000E+00 0. -1.
         -1   -1    0    0    0  501 -0.00000000000E+00 -0.00000000000E+00 -0.62814369385E+02  0.62814369385E+02  0.00000000000E+00 0.  1.
         24    2    1    2    0    0  0.23403102054E+02  0.54032598456E+01  0.44086956848E+01  0.84017811521E+02  0.80390644060E+02 0.  0.
        -11    1    3    3    0    0  0.32670331721E+02  0.32952702888E+02 -0.15345038565E+02  0.48874343074E+02  0.00000000000E+00 0.  1.
         12    1    3    3    0    0 -0.92672296669E+01 -0.27549443043E+02  0.19753734250E+02  0.35143468447E+02  0.00000000000E+00 0. -1.
         -2    1    1    2    0  502 -0.23403102054E+02 -0.54032598456E+01 -0.16741828746E+02  0.29277794188E+02  0.00000000000E+00 0.  1.
<mgrwt>
<rscale>  1 0.83902062E+02</rscale>
<asrwt>0</asrwt>
<pdfrwt beam="1">  1       21 0.77663441E-02 0.83902062E+02</pdfrwt>
<pdfrwt beam="2">  1       -1 0.96637491E-02 0.83902062E+02</pdfrwt>
<totfact> 0.66685500E+05</totfact>
</mgrwt>
</event>
<event>
 6    2  0.8544106E+000  0.8633008E+02  0.7546771E-02  0.1311990E+00
          2   -1    0    0  502    0 -0.00000000000E+00  0.00000000000E+00  0.25760193287E+04  0.25760193287E+04  0.00000000000E+00 0. -1.
         21   -1    0    0  501  502  0.00000000000E+00 -0.00000000000E+00 -0.13886196976E+01  0.13886196976E+01  0.00000000000E+00 0. -1.
         24    2    1    2    0    0  0.23211840724E+02 -0.22967753755E+02  0.19802764594E+04  0.19821573446E+04  0.79916055734E+02 0.  0.
        -13    1    3    3    0    0 -0.25712532899E+02 -0.13204090909E+02  0.11633032675E+04  0.11636623112E+04  0.00000000000E+00 0.  1.
         14    1    3    3    0    0  0.48924373623E+02 -0.97636628460E+01  0.81697319190E+03  0.81849503342E+03  0.00000000000E+00 0. -1.
          1    1    1    2  501    0 -0.23211840724E+02  0.22967753755E+02  0.59435424961E+03  0.59525060377E+03  0.00000000000E+00 0. -1.
<mgrwt>
<rscale>  1 0.86330083E+02</rscale>
<asrwt>0</asrwt>
<pdfrwt beam="1">  1       21 0.21363586E-03 0.86330083E+02</pdfrwt>
<pdfrwt beam="2">  1        2 0.39630684E+00 0.86330083E+02</pdfrwt>
<totfact> 0.19187936E+06</totfact>
</mgrwt>
</event>
<event>
 6    2  0.8544106E+000  0.8756853E+02  0.7546771E-02  0.1308849E+00
          2   -1    0    0  502    0 -0.00000000000E+00  0.00000000000E+00  0.22497527663E+04  0.22497527663E+04  0.00000000000E+00 0. -1.
         21   -1    0    0  501  502  0.00000000000E+00 -0.00000000000E+00 -0.17885316949E+01  0.17885316949E+01  0.00000000000E+00 0.  1.
         24    2    1    2    0    0 -0.14462418325E+02 -0.36355194062E+02  0.14985178726E+04  0.15010743026E+04  0.78341468559E+02 0.  0.
        -11    1    3    3    0    0 -0.12415679429E+02 -0.48591954370E+02  0.50611201983E+03  0.50859090018E+03  0.00000000000E+00 0.  1.
         12    1    3    3    0    0 -0.20467388955E+01  0.12236760307E+02  0.99240585275E+03  0.99248340238E+03  0.00000000000E+00 0. -1.
          1    1    1    2  501    0  0.14462418325E+02  0.36355194062E+02  0.74944636201E+03  0.75046699542E+03  0.00000000000E+00 0. -1.
<mgrwt>
<rscale>  1 0.87568530E+02</rscale>
<asrwt>0</asrwt>
<pdfrwt beam="1">  1       21 0.27516052E-03 0.87568530E+02</pdfrwt>
<pdfrwt beam="2">  1        2 0.34611355E+00 0.87568530E+02</pdfrwt>
<totfact> 0.19378298E+06</totfact>
</mgrwt>
</event>
<event>
 6    2  0.8544106E+000  0.1029406E+03  0.7546771E-02  0.1274231E+00
          2   -1    0    0  502    0 -0.00000000000E+00  0.00000000000E+00  0.53338015778E+02  0.53338015778E+02  0.00000000000E+00 0. -1.
         21   -1    0    0  501  502  0.00000000000E+00 -0.00000000000E+00 -0.12715134687E+03  0.12715134687E+03  0.00000000000E+00 0. -1.
         24    2    1    2    0    0 -0.57691108892E+02  0.20255733535E+02 -0.38661409657E+02  0.10996123799E+03  0.82814313246E+02 0.  0.
        -13    1    3    3    0    0 -0.51609113355E+02 -0.18649099532E+02 -0.43850360624E+02  0.70243459635E+02  0.00000000000E+00 0.  1.
         14    1    3    3    0    0 -0.60819955373E+01  0.38904833067E+02  0.51889509676E+01  0.39717778360E+02  0.00000000000E+00 0. -1.
          1    1    1    2  501    0  0.57691108892E+02 -0.20255733535E+02 -0.35151921432E+02  0.70528124650E+02  0.00000000000E+00 0. -1.
<mgrwt>
<rscale>  1 0.10294061E+03</rscale>
<asrwt>0</asrwt>
<pdfrwt beam="1">  1       21 0.19561746E-01 0.10294061E+03</pdfrwt>
<pdfrwt beam="2">  1        2 0.82058486E-02 0.10294061E+03</pdfrwt>
<totfact> 0.23038866E+05</totfact>
</mgrwt>
</event>
<event>
 6    2  0.8544106E+000  0.9033612E+02  0.7546771E-02  0.1302040E+00
          2   -1    0    0  502    0 -0.00000000000E+00  0.00000000000E+00  0.15540726510E+04  0.15540726510E+04  0.00000000000E+00 0. -1.
         21   -1    0    0  501  502  0.00000000000E+00 -0.00000000000E+00 -0.28606023436E+01  0.28606023436E+01  0.00000000000E+00 0. -1.
         24    2    1    2    0    0 -0.20854129742E+02  0.37040157948E+02  0.98942674584E+03  0.99354209749E+03  0.79710388800E+02 0.  0.
        -11    1    3    3    0    0 -0.97092495840E+01 -0.25172817377E+02  0.27025412649E+03  0.27159755733E+03  0.00000000000E+00 0.  1.
         12    1    3    3    0    0 -0.11144880158E+02  0.62212975325E+02  0.71917261935E+03  0.72194454017E+03  0.00000000000E+00 0. -1.
          1    1    1    2  501    0  0.20854129742E+02 -0.37040157948E+02  0.56178530279E+03  0.56339115583E+03  0.00000000000E+00 0. -1.
<mgrwt>
<rscale>  1 0.90336117E+02</rscale>
<asrwt>0</asrwt>
<pdfrwt beam="1">  1       21 0.44009391E-03 0.90336117E+02</pdfrwt>
<pdfrwt beam="2">  1        2 0.23908743E+00 0.90336117E+02</pdfrwt>
<totfact> 0.21328065E+06</totfact>
</mgrwt>
</event>
<event>
 6    2  0.8544106E+000  0.8406086E+02  0.7546771E-02  0.1317907E+00
         21   -1    0    0  501  502  0.00000000000E+00  0.00000000000E+00  0.34008573838E+02  0.34008573838E+02  0.00000000000E+00 0.  1.
          4   -1    0    0  502    0 -0.00000000000E+00 -0.00000000000E+00 -0.11130863005E+03  0.11130863005E+03  0.00000000000E+00 0. -1.
         24    2    1    2    0    0  0.28007666050E+02 -0.68589825233E+01 -0.80394422987E+02  0.11631634003E+03  0.78960450305E+02 0.  0.
        -13    1    3    3    0    0  0.54130549160E+02  0.17923255592E+01 -0.39536794297E+02  0.67055849011E+02  0.00000000000E+00 0.  1.
         14    1    3    3    0    0 -0.26122883110E+02 -0.86513080825E+01 -0.40857628690E+02  0.49260491022E+02  0.00000000000E+00 0. -1.
          3    1    1    2  501    0 -0.28007666050E+02  0.68589825233E+01  0.30943667722E+01  0.29000863859E+02  0.00000000000E+00 0. -1.
<mgrwt>
<rscale>  1 0.84060857E+02</rscale>
<asrwt>0</asrwt>
<pdfrwt beam="1">  1       21 0.52320882E-02 0.84060857E+02</pdfrwt>
<pdfrwt beam="2">  1        4 0.17124405E-01 0.84060857E+02</pdfrwt>
<totfact> 0.27173937E+05</totfact>
</mgrwt>
</event>
<event>
 6    2  0.8544106E+000  0.7745432E+02  0.7546771E-02  0.1336435E+00
         -1   -1    0    0    0  501 -0.00000000000E+00  0.00000000000E+00  0.18381009938E+03  0.18381009938E+03  0.00000000000E+00 0.  1.
         21   -1    0    0  501  502  0.00000000000E+00 -0.00000000000E+00 -0.21753579677E+02  0.21753579677E+02  0.00000000000E+00 0.  1.
         24    2    1    2    0    0 -0.19667065583E+02 -0.88739747534E+01  0.16641011354E+03  0.18355243929E+03  0.74388380723E+02 0.  0.
        -11    1    3    3    0    0 -0.40854162743E+02  0.12887528443E+02  0.66292805894E+02  0.78929633954E+02  0.00000000000E+00 0.  1.
         12    1    3    3    0    0  0.21187097160E+02 -0.21761503197E+02  0.10011730764E+03  0.10462280534E+03  0.00000000000E+00 0. -1.
         -2    1    1    2    0  502  0.19667065583E+02  0.88739747534E+01 -0.43535938352E+01  0.22011239762E+02  0.00000000000E+00 0.  1.
<mgrwt>
<rscale>  1 0.77454323E+02</rscale>
<asrwt>0</asrwt>
<pdfrwt beam="1">  1       21 0.33467047E-02 0.77454323E+02</pdfrwt>
<pdfrwt beam="2">  1       -1 0.28278476E-01 0.77454323E+02</pdfrwt>
<totfact> 0.50023745E+05</totfact>
</mgrwt>
</event>
<event>
 6    2  0.8544106E+000  0.8842007E+02  0.7546771E-02  0.1306723E+00
          2   -1    0    0  502    0 -0.00000000000E+00  0.00000000000E+00  0.31806751105E+03  0.31806751105E+03  0.00000000000E+00 0. -1.
         21   -1    0    0  501  502  0.00000000000E+00 -0.00000000000E+00 -0.13709028747E+02  0.13709028747E+02  0.00000000000E+00 0. -1.
         24    2    1    2    0    0 -0.29677805307E+02 -0.18650782895E+02  0.26351909068E+03  0.27795758646E+03  0.81175642192E+02 0.  0.
        -13    1    3    3    0    0  0.24513767777E+02  0.32932410874E+01  0.40973414709E+02  0.47860118684E+02  0.00000000000E+00 0.  1.
         14    1    3    3    0    0 -0.54191573085E+02 -0.21944023983E+02  0.22254567597E+03  0.23009746777E+03  0.00000000000E+00 0. -1.
          1    1    1    2  501    0  0.29677805307E+02  0.18650782895E+02  0.40839391620E+02  0.53818953338E+02  0.00000000000E+00 0. -1.
<mgrwt>
<rscale>  1 0.88420070E+02</rscale>
<asrwt>0</asrwt>
<pdfrwt beam="1">  1       21 0.21090816E-02 0.88420070E+02</pdfrwt>
<pdfrwt beam="2">  1        2 0.48933458E-01 0.88420070E+02</pdfrwt>
<totfact> 0.13369274E+06</totfact>
</mgrwt>
</event>
<event>
 6    2  0.8544106E+000  0.8808059E+02  0.7546771E-02  0.1307568E+00
         -1   -1    0    0    0  501 -0.00000000000E+00  0.00000000000E+00  0.10184089248E+03  0.10184089248E+03  0.00000000000E+00 0.  1.
         21   -1    0    0  501  502  0.00000000000E+00 -0.00000000000E+00 -0.42121329270E+02  0.42121329270E+02  0.00000000000E+00 0. -1.
         24    2    1    2    0    0 -0.22005904137E+02  0.29104614978E+02  0.20579932687E+02  0.90452885112E+02  0.80167651617E+02 0.  0.
        -11    1    3    3    0    0  0.42887023559E+01  0.12733697514E+02  0.47531637424E+02  0.49394297004E+02  0.00000000000E+00 0.  1.
         12    1    3    3    0    0 -0.26294606493E+02  0.16370917465E+02 -0.26951704737E+02  0.41058588109E+02  0.00000000000E+00 0. -1.
         -2    1    1    2    0  502  0.22005904137E+02 -0.29104614978E+02  0.39139630525E+02  0.53509336639E+02  0.00000000000E+00 0.  1.
<mgrwt>
<rscale>  1 0.88080593E+02</rscale>
<asrwt>0</asrwt>
<pdfrwt beam="1">  1       21 0.64802045E-02 0.88080593E+02</pdfrwt>
<pdfrwt beam="2">  1       -1 0.15667830E-01 0.88080593E+02</pdfrwt>
<totfact> 0.43561766E+05</totfact>
</mgrwt>
</event>
<event>
 6    2  0.8544106E+000  0.8397037E+02  0.7546771E-02  0.1318147E+00
         21   -1    0    0  501  502  0.00000000000E+00  0.00000000000E+00  0.17855888081E+03  0.17855888081E+03  0.00000000000E+00 0.  1.
         -1   -1    0    0    0  501 -0.00000000000E+00 -0.00000000000E+00 -0.17523343937E+02  0.17523343937E+02  0.00000000000E+00 0.  1.
         24    2    1    2    0    0 -0.17673532043E+02 -0.16646188555E+02  0.10114982239E+03  0.13146219590E+03  0.80383910420E+02 0.  0.
        -11    1    3    3    0    0 -0.30512314122E+02 -0.21427226828E+01  0.22353242153E+01  0.30669027502E+02  0.00000000000E+00 0.  1.
         12    1    3    3    0    0  0.12838782079E+02 -0.14503465872E+02  0.98914498174E+02  0.10079316840E+03  0.00000000000E+00 0. -1.
         -2    1    1    2    0  502  0.17673532043E+02  0.16646188555E+02  0.59885714488E+02  0.64620028846E+02  0.00000000000E+00 0.  1.
<mgrwt>
<rscale>  1 0.83970366E+02</rscale>
<asrwt>0</asrwt>
<pdfrwt beam="1">  1       21 0.27470596E-01 0.83970366E+02</pdfrwt>
<pdfrwt beam="2">  1       -1 0.26958992E-02 0.83970366E+02</pdfrwt>
<totfact> 0.45415971E+05</totfact>
</mgrwt>
</event>
<event>
 6    2  0.8544106E+000  0.8772952E+02  0.7546771E-02  0.1308445E+00
         -1   -1    0    0    0  501 -0.00000000000E+00  0.00000000000E+00  0.56172962065E+02  0.56172962065E+02  0.00000000000E+00 0.  1.
         21   -1    0    0  501  502  0.00000000000E+00 -0.00000000000E+00 -0.76176642407E+02  0.76176642407E+02  0.00000000000E+00 0. -1.
         24    2    1    2    0    0  0.50972183463E+01  0.37157700569E+02 -0.31354014405E+02  0.93164065944E+02  0.79308212799E+02 0.  0.
        -11    1    3    3    0    0  0.13567680017E+02 -0.21013779979E+02  0.28132012543E+01  0.25170915584E+02  0.00000000000E+00 0.  1.
         12    1    3    3    0    0 -0.84704616703E+01  0.58171480547E+02 -0.34167215659E+02  0.67993150360E+02  0.00000000000E+00 0. -1.
         -2    1    1    2    0  502 -0.50972183463E+01 -0.37157700569E+02  0.11350334063E+02  0.39185538529E+02  0.00000000000E+00 0.  1.
<mgrwt>
<rscale>  1 0.87729522E+02</rscale>
<asrwt>0</asrwt>
<pdfrwt beam="1">  1       21 0.11719483E-01 0.87729522E+02</pdfrwt>
<pdfrwt beam="2">  1       -1 0.86419942E-02 0.87729522E+02</pdfrwt>
<totfact> 0.38970370E+05</totfact>
</mgrwt>
</event>
<event>
 6    2  0.8544106E+000  0.9189537E+02  0.7546771E-02  0.1298326E+00
          2   -1    0    0  502    0 -0.00000000000E+00  0.00000000000E+00  0.34385999002E+03  0.34385999002E+03  0.00000000000E+00 0. -1.
         21   -1    0    0  501  502  0.00000000000E+00 -0.00000000000E+00 -0.13548454212E+02  0.13548454212E+02  0.00000000000E+00 0.  1.
         24    2    1    2    0    0  0.21163318976E+02  0.32178003655E+02  0.17823057815E+03  0.20052655339E+03  0.83435302124E+02 0.  0.
        -13    1    3    3    0    0 -0.18420123434E+01 -0.24879914852E+02  0.24603745728E+02  0.35039227680E+02  0.00000000000E+00 0.  1.
         14    1    3    3    0    0  0.23005331319E+02  0.57057918507E+02  0.15362683242E+03  0.16548732571E+03  0.00000000000E+00 0. -1.
          1    1    1    2  501    0 -0.21163318976E+02 -0.32178003655E+02  0.15208095766E+03  0.15688189084E+03  0.00000000000E+00 0. -1.
<mgrwt>
<rscale>  1 0.91895373E+02</rscale>
<asrwt>0</asrwt>
<pdfrwt beam="1">  1       21 0.20843778E-02 0.91895373E+02</pdfrwt>
<pdfrwt beam="2">  1        2 0.52901530E-01 0.91895373E+02</pdfrwt>
<totfact> 0.12610811E+06</totfact>
</mgrwt>
</event>
<event>
 6    2  0.8544106E+000  0.1282710E+03  0.7546771E-02  0.1230044E+00
          2   -1    0    0  502    0 -0.00000000000E+00  0.00000000000E+00  0.60941359833E+03  0.60941359833E+03  0.00000000000E+00 0. -1.
         21   -1    0    0  501  502  0.00000000000E+00 -0.00000000000E+00 -0.53703635250E+02  0.53703635250E+02  0.00000000000E+00 0. -1.
         24    2    1    2    0    0 -0.82832841707E+02 -0.55147364160E+02  0.54855108407E+03  0.56334869652E+03  0.80937942866E+02 0.  0.
        -11    1    3    3    0    0 -0.41856142429E+02  0.14517008364E+02  0.13866017855E+03  0.14556553612E+03  0.00000000000E+00 0.  1.
         12    1    3    3    0    0 -0.40976699278E+02 -0.69664372524E+02  0.40989090552E+03  0.41778316040E+03  0.00000000000E+00 0. -1.
          1    1    1    2  501    0  0.82832841707E+02  0.55147364160E+02  0.71588790113E+01  0.99768537064E+02  0.00000000000E+00 0. -1.
<mgrwt>
<rscale>  1 0.12827105E+03</rscale>
<asrwt>0</asrwt>
<pdfrwt beam="1">  1       21 0.82620982E-02 0.12827105E+03</pdfrwt>
<pdfrwt beam="2">  1        2 0.93755933E-01 0.12827105E+03</pdfrwt>
<totfact> 0.70478148E+04</totfact>
</mgrwt>
</event>
<event>
 6    2  0.8544106E+000  0.8380736E+02  0.7546771E-02  0.1318581E+00
         -3   -1    0    0    0  501 -0.00000000000E+00  0.00000000000E+00  0.87218086254E+03  0.87218086254E+03  0.00000000000E+00 0.  1.
         21   -1    0    0  501  502  0.00000000000E+00 -0.00000000000E+00 -0.64118980600E+01  0.64118980600E+01  0.00000000000E+00 0. -1.
         24    2    1    2    0    0  0.28627364588E+02  0.17399047775E+01  0.82201869941E+03  0.82627986577E+03  0.78747197565E+02 0.  0.
        -11    1    3    3    0    0 -0.13362119945E+02 -0.45054439255E+01  0.60411442294E+03  0.60427897637E+03  0.00000000000E+00 0.  1.
         12    1    3    3    0    0  0.41989484533E+02  0.62453487030E+01  0.21790427647E+03  0.22200088940E+03  0.00000000000E+00 0. -1.
         -4    1    1    2    0  502 -0.28627364588E+02 -0.17399047775E+01  0.43750265070E+02  0.52312894831E+02  0.00000000000E+00 0.  1.
<mgrwt>
<rscale>  1 0.83807365E+02</rscale>
<asrwt>0</asrwt>
<pdfrwt beam="1">  1       21 0.98644655E-03 0.83807365E+02</pdfrwt>
<pdfrwt beam="2">  1       -3 0.13418158E+00 0.83807365E+02</pdfrwt>
<totfact> 0.77891055E+04</totfact>
</mgrwt>
</event>
<event>
 6    2  0.8544106E+000  0.8266645E+02  0.7546771E-02  0.1321650E+00
         21   -1    0    0  501  502  0.00000000000E+00  0.00000000000E+00  0.97781353159E+01  0.97781353159E+01  0.00000000000E+00 0. -1.
          2   -1    0    0  502    0 -0.00000000000E+00 -0.00000000000E+00 -0.66896197904E+03  0.66896197904E+03  0.00000000000E+00 0. -1.
         24    2    1    2    0    0  0.15824473487E+02  0.24689829895E+02 -0.63601918139E+03  0.64136895914E+03  0.77289979880E+02 0.  0.
        -13    1    3    3    0    0  0.17435534713E+02  0.45724345784E+02 -0.24830041316E+03  0.25307668570E+03  0.00000000000E+00 0.  1.
         14    1    3    3    0    0 -0.16110612261E+01 -0.21034515889E+02 -0.38771876822E+03  0.38829227343E+03  0.00000000000E+00 0. -1.
          1    1    1    2  501    0 -0.15824473487E+02 -0.24689829895E+02 -0.23164662341E+02  0.37371155224E+02  0.00000000000E+00 0. -1.
<mgrwt>
<rscale>  1 0.82666454E+02</rscale>
<asrwt>0</asrwt>
<pdfrwt beam="1">  1       21 0.15043279E-02 0.82666454E+02</pdfrwt>
<pdfrwt beam="2">  1        2 0.10291727E+00 0.82666454E+02</pdfrwt>
<totfact> 0.10217072E+06</totfact>
</mgrwt>
</event>
<event>
 6    2  0.8544106E+000  0.8664195E+02  0.7546771E-02  0.1311194E+00
          2   -1    0    0  502    0 -0.00000000000E+00  0.00000000000E+00  0.27242933747E+03  0.27242933747E+03  0.00000000000E+00 0. -1.
         21   -1    0    0  501  502  0.00000000000E+00 -0.00000000000E+00 -0.18297027821E+02  0.18297027821E+02  0.00000000000E+00 0. -1.
         24    2    1    2    0    0  0.16170134349E+02  0.17838067125E+02  0.25208986537E+03  0.26656355373E+03  0.83229550467E+02 0.  0.
        -13    1    3    3    0    0  0.24676111865E+01 -0.16135290507E+02  0.54360701770E+01  0.17204289107E+02  0.00000000000E+00 0.  1.
         14    1    3    3    0    0  0.13702523163E+02  0.33973357632E+02  0.24665379520E+03  0.24935926462E+03  0.00000000000E+00 0. -1.
          1    1    1    2  501    0 -0.16170134349E+02 -0.17838067125E+02  0.20424442717E+01  0.24162811555E+02  0.00000000000E+00 0. -1.
<mgrwt>
<rscale>  1 0.86641953E+02</rscale>
<asrwt>0</asrwt>
<pdfrwt beam="1">  1       21 0.28149275E-02 0.86641953E+02</pdfrwt>
<pdfrwt beam="2">  1        2 0.41912203E-01 0.86641953E+02</pdfrwt>
<totfact> 0.98494351E+05</totfact>
</mgrwt>
</event>
<event>
 6    2  0.8544106E+000  0.1266604E+03  0.7546771E-02  0.1232497E+00
          2   -1    0    0  502    0 -0.00000000000E+00  0.00000000000E+00  0.36878421587E+03  0.36878421587E+03  0.00000000000E+00 0. -1.
         21   -1    0    0  501  502  0.00000000000E+00 -0.00000000000E+00 -0.49359682291E+02  0.49359682291E+02  0.00000000000E+00 0. -1.
         24    2    1    2    0    0  0.46452106893E+02  0.88143658710E+02  0.28643458415E+03  0.31318943390E+03  0.78203246093E+02 0.  0.
        -11    1    3    3    0    0 -0.16372364476E+01 -0.12905973601E+02  0.16757870249E+02  0.21214874806E+02  0.00000000000E+00 0.  1.
         12    1    3    3    0    0  0.48089343340E+02  0.10104963231E+03  0.26967671391E+03  0.29197455909E+03  0.00000000000E+00 0. -1.
          1    1    1    2  501    0 -0.46452106893E+02 -0.88143658710E+02  0.32989949421E+02  0.10495446426E+03  0.00000000000E+00 0. -1.
<mgrwt>
<rscale>  1 0.12666037E+03</rscale>
<asrwt>0</asrwt>
<pdfrwt beam="1">  1       21 0.75937975E-02 0.12666037E+03</pdfrwt>
<pdfrwt beam="2">  1        2 0.56736031E-01 0.12666037E+03</pdfrwt>
<totfact> 0.14092450E+05</totfact>
</mgrwt>
</event>
<event>
 6    2  0.8544106E+000  0.8336343E+02  0.7546771E-02  0.1319769E+00
          2   -1    0    0  502    0 -0.00000000000E+00  0.00000000000E+00  0.63261245196E+03  0.63261245196E+03  0.00000000000E+00 0. -1.
         21   -1    0    0  501  502  0.00000000000E+00 -0.00000000000E+00 -0.53984871796E+01  0.53984871796E+01  0.00000000000E+00 0. -1.
         24    2    1    2    0    0  0.17497893477E+02  0.12958691262E+02  0.58069615772E+03  0.58664937443E+03  0.80469602815E+02 0.  0.
        -11    1    3    3    0    0 -0.47236905984E+01 -0.25209223611E+02  0.80038936442E+02  0.84047900359E+02  0.00000000000E+00 0.  1.
         12    1    3    3    0    0  0.22221584076E+02  0.38167914873E+02  0.50065722127E+03  0.50260147407E+03  0.00000000000E+00 0. -1.
          1    1    1    2  501    0 -0.17497893477E+02 -0.12958691262E+02  0.46517807065E+02  0.51361564710E+02  0.00000000000E+00 0. -1.
<mgrwt>
<rscale>  1 0.83363427E+02</rscale>
<asrwt>0</asrwt>
<pdfrwt beam="1">  1       21 0.83053699E-03 0.83363427E+02</pdfrwt>
<pdfrwt beam="2">  1        2 0.97324934E-01 0.83363427E+02</pdfrwt>
<totfact> 0.27614025E+06</totfact>
</mgrwt>
</event>
<event>
 6    2  0.8544106E+000  0.9284154E+02  0.7546771E-02  0.1296113E+00
         21   -1    0    0  501  502  0.00000000000E+00  0.00000000000E+00  0.44934243863E+03  0.44934243863E+03  0.00000000000E+00 0. -1.
          2   -1    0    0  502    0 -0.00000000000E+00 -0.00000000000E+00 -0.11641103887E+03  0.11641103887E+03  0.00000000000E+00 0. -1.
         24    2    1    2    0    0 -0.35267286726E+02  0.28327738727E+02 -0.96521262233E+02  0.13392500324E+03  0.81075952879E+02 0.  0.
        -11    1    3    3    0    0 -0.12980491043E+02 -0.27373754071E+02 -0.18475376922E+02  0.35484575692E+02  0.00000000000E+00 0.  1.
         12    1    3    3    0    0 -0.22286795682E+02  0.55701492797E+02 -0.78045885312E+02  0.98440427548E+02  0.00000000000E+00 0. -1.
          1    1    1    2  501    0  0.35267286726E+02 -0.28327738727E+02  0.42945266199E+03  0.43182847427E+03  0.00000000000E+00 0. -1.
<mgrwt>
<rscale>  1 0.92841545E+02</rscale>
<asrwt>0</asrwt>
<pdfrwt beam="1">  1       21 0.69129605E-01 0.92841545E+02</pdfrwt>
<pdfrwt beam="2">  1        2 0.17909391E-01 0.92841545E+02</pdfrwt>
<totfact> 0.75413955E+03</totfact>
</mgrwt>
</event>
<event>
 6    2  0.8544106E+000  0.8564803E+02  0.7546771E-02  0.1313747E+00
          2   -1    0    0  502    0 -0.00000000000E+00  0.00000000000E+00  0.24177645154E+03  0.24177645154E+03  0.00000000000E+00 0. -1.
         21   -1    0    0  501  502  0.00000000000E+00 -0.00000000000E+00 -0.15165359133E+02  0.15165359133E+02  0.00000000000E+00 0. -1.
         24    2    1    2    0    0 -0.27653331938E+02 -0.87031550263E+01  0.20009070638E+03  0.21765081234E+03  0.80592392066E+02 0.  0.
        -11    1    3    3    0    0 -0.11856431443E+02  0.21144587030E+02  0.12943145523E+02  0.27480784983E+02  0.00000000000E+00 0.  1.
         12    1    3    3    0    0 -0.15796900495E+02 -0.29847742056E+02  0.18714756086E+03  0.19017002736E+03  0.00000000000E+00 0. -1.
          1    1    1    2  501    0  0.27653331938E+02  0.87031550263E+01  0.26520386023E+02  0.39290998327E+02  0.00000000000E+00 0. -1.
<mgrwt>
<rscale>  1 0.85648032E+02</rscale>
<asrwt>0</asrwt>
<pdfrwt beam="1">  1       21 0.23331323E-02 0.85648032E+02</pdfrwt>
<pdfrwt beam="2">  1        2 0.37196374E-01 0.85648032E+02</pdfrwt>
<totfact> 0.15089103E+06</totfact>
</mgrwt>
</event>
<event>
 6    2  0.8544106E+000  0.1046824E+03  0.7546771E-02  0.1270747E+00
         21   -1    0    0  501  502  0.00000000000E+00  0.00000000000E+00  0.51773143525E+02  0.51773143525E+02  0.00000000000E+00 0.  1.
          2   -1    0    0  502    0 -0.00000000000E+00 -0.00000000000E+00 -0.14435717362E+03  0.14435717362E+03  0.00000000000E+00 0. -1.
         24    2    1    2    0    0 -0.45172608448E+02  0.50760926172E+02 -0.50759069026E+02  0.11633956863E+03  0.79631501064E+02 0.  0.
        -11    1    3    3    0    0 -0.50224938080E+02  0.54400432446E+02 -0.66432373470E+02  0.99474678689E+02  0.00000000000E+00 0.  1.
         12    1    3    3    0    0  0.50523296319E+01 -0.36395062746E+01  0.15673304444E+02  0.16864889944E+02  0.00000000000E+00 0. -1.
          1    1    1    2  501    0  0.45172608448E+02 -0.50760926172E+02 -0.41824961074E+02  0.79790748516E+02  0.00000000000E+00 0. -1.
<mgrwt>
<rscale>  1 0.10468243E+03</rscale>
<asrwt>0</asrwt>
<pdfrwt beam="1">  1       21 0.79650990E-02 0.10468243E+03</pdfrwt>
<pdfrwt beam="2">  1        2 0.22208796E-01 0.10468243E+03</pdfrwt>
<totfact> 0.35074516E+05</totfact>
</mgrwt>
</event>
<event>
 6    2  0.8544106E+000  0.8567989E+02  0.7546771E-02  0.1313664E+00
         21   -1    0    0  501  502  0.00000000000E+00  0.00000000000E+00  0.13250399349E+02  0.13250399349E+02  0.00000000000E+00 0.  1.
          2   -1    0    0  502    0 -0.00000000000E+00 -0.00000000000E+00 -0.40730258954E+03  0.40730258954E+03  0.00000000000E+00 0. -1.
         24    2    1    2    0    0  0.11970561145E+01  0.30955461118E+02 -0.13662278106E+03  0.16126632475E+03  0.79883475616E+02 0.  0.
        -11    1    3    3    0    0 -0.15939463720E+02  0.43469993140E+02 -0.36604882197E+02  0.59022234860E+02  0.00000000000E+00 0.  1.
         12    1    3    3    0    0  0.17136519834E+02 -0.12514532022E+02 -0.10001789887E+03  0.10224408989E+03  0.00000000000E+00 0. -1.
          1    1    1    2  501    0 -0.11970561145E+01 -0.30955461118E+02 -0.25742940913E+03  0.25928666414E+03  0.00000000000E+00 0. -1.
<mgrwt>
<rscale>  1 0.85679888E+02</rscale>
<asrwt>0</asrwt>
<pdfrwt beam="1">  1       21 0.20385230E-02 0.85679888E+02</pdfrwt>
<pdfrwt beam="2">  1        2 0.62661935E-01 0.85679888E+02</pdfrwt>
<totfact> 0.10861067E+06</totfact>
</mgrwt>
</event>
<event>
 6    2  0.8544106E+000  0.8477968E+02  0.7546771E-02  0.1316010E+00
         -3   -1    0    0    0  501 -0.00000000000E+00  0.00000000000E+00  0.45277970664E+03  0.45277970664E+03  0.00000000000E+00 0.  1.
         21   -1    0    0  501  502  0.00000000000E+00 -0.00000000000E+00 -0.12657866877E+02  0.12657866877E+02  0.00000000000E+00 0.  1.
         24    2    1    2    0    0 -0.28280646253E+02  0.90095006933E+01  0.42249456297E+03  0.43091675454E+03  0.79414278032E+02 0.  0.
        -13    1    3    3    0    0 -0.23445325624E+02  0.43212455902E+02  0.28088341974E+03  0.28515345891E+03  0.00000000000E+00 0.  1.
         14    1    3    3    0    0 -0.48353206297E+01 -0.34202955209E+02  0.14161114322E+03  0.14576329564E+03  0.00000000000E+00 0. -1.
         -4    1    1    2    0  502  0.28280646253E+02 -0.90095006933E+01  0.17627276795E+02  0.34520818971E+02  0.00000000000E+00 0.  1.
<mgrwt>
<rscale>  1 0.84779677E+02</rscale>
<asrwt>0</asrwt>
<pdfrwt beam="1">  1       21 0.19473645E-02 0.84779677E+02</pdfrwt>
<pdfrwt beam="2">  1       -3 0.69658404E-01 0.84779677E+02</pdfrwt>
<totfact> 0.11530749E+05</totfact>
</mgrwt>
</event>
<event>
 6    2  0.8544106E+000  0.9916855E+02  0.7546771E-02  0.1282054E+00
         21   -1    0    0  501  502  0.00000000000E+00  0.00000000000E+00  0.32240894237E+01  0.32240894237E+01  0.00000000000E+00 0.  1.
          2   -1    0    0  502    0 -0.00000000000E+00 -0.00000000000E+00 -0.16148315697E+04  0.16148315697E+04  0.00000000000E+00 0. -1.
         24    2    1    2    0    0 -0.14029785874E+02  0.20994361136E+02 -0.15136824975E+04  0.15169275209E+04  0.95899959820E+02 0.  0.
        -11    1    3    3    0    0 -0.12646333015E+01  0.39688073579E+02 -0.25772249592E+03  0.26076354689E+03  0.00000000000E+00 0.  1.
         12    1    3    3    0    0 -0.12765152572E+02 -0.18693712443E+02 -0.12559600016E+04  0.12561639740E+04  0.00000000000E+00 0. -1.
          1    1    1    2  501    0  0.14029785874E+02 -0.20994361136E+02 -0.97924982704E+02  0.10112813817E+03  0.00000000000E+00 0. -1.
<mgrwt>
<rscale>  1 0.99168545E+02</rscale>
<asrwt>0</asrwt>
<pdfrwt beam="1">  1       21 0.49601300E-03 0.99168545E+02</pdfrwt>
<pdfrwt beam="2">  1        2 0.24843600E+00 0.99168545E+02</pdfrwt>
<totfact> 0.16652934E+06</totfact>
</mgrwt>
</event>
<event>
 6    2  0.8544106E+000  0.8935733E+02  0.7546771E-02  0.1304416E+00
         21   -1    0    0  501  502  0.00000000000E+00  0.00000000000E+00  0.70035715860E+01  0.70035715860E+01  0.00000000000E+00 0. -1.
          2   -1    0    0  502    0 -0.00000000000E+00 -0.00000000000E+00 -0.62650853224E+03  0.62650853224E+03  0.00000000000E+00 0. -1.
         24    2    1    2    0    0 -0.34318710207E+02 -0.17372770585E+02 -0.50142735564E+03  0.50932712956E+03  0.80654478436E+02 0.  0.
        -11    1    3    3    0    0 -0.15061703854E+02 -0.44324108228E+02 -0.39754010912E+03  0.40028692191E+03  0.00000000000E+00 0.  1.
         12    1    3    3    0    0 -0.19257006354E+02  0.26951337643E+02 -0.10388724653E+03  0.10904020765E+03  0.00000000000E+00 0. -1.
          1    1    1    2  501    0  0.34318710207E+02  0.17372770585E+02 -0.11807760502E+03  0.12418497427E+03  0.00000000000E+00 0. -1.
<mgrwt>
<rscale>  1 0.89357327E+02</rscale>
<asrwt>0</asrwt>
<pdfrwt beam="1">  1       21 0.10774724E-02 0.89357327E+02</pdfrwt>
<pdfrwt beam="2">  1        2 0.96385943E-01 0.89357327E+02</pdfrwt>
<totfact> 0.18755886E+06</totfact>
</mgrwt>
</event>
<event>
 6    2  0.8544106E+000  0.8540764E+02  0.7546771E-02  0.1314370E+00
         21   -1    0    0  501  502  0.00000000000E+00  0.00000000000E+00  0.64929471217E+02  0.64929471217E+02  0.00000000000E+00 0.  1.
         -3   -1    0    0    0  501 -0.00000000000E+00 -0.00000000000E+00 -0.73105555185E+02  0.73105555185E+02  0.00000000000E+00 0.  1.
         24    2    1    2    0    0  0.27092031249E+02 -0.11164831633E+02 -0.40399577662E+02  0.94480633186E+02  0.80223640838E+02 0.  0.
        -11    1    3    3    0    0  0.50968694863E+02 -0.18236767729E+02 -0.97734125057E+01  0.55008246157E+02  0.00000000000E+00 0.  1.
         12    1    3    3    0    0 -0.23876663615E+02  0.70719360964E+01 -0.30626165156E+02  0.39472387028E+02  0.00000000000E+00 0. -1.
         -4    1    1    2    0  502 -0.27092031249E+02  0.11164831633E+02  0.32223493694E+02  0.43554393216E+02  0.00000000000E+00 0.  1.
<mgrwt>
<rscale>  1 0.85407635E+02</rscale>
<asrwt>0</asrwt>
<pdfrwt beam="1">  1       21 0.99891495E-02 0.85407635E+02</pdfrwt>
<pdfrwt beam="2">  1       -3 0.11247008E-01 0.85407635E+02</pdfrwt>
<totfact> 0.21782294E+05</totfact>
</mgrwt>
</event>
<event>
 6    2  0.8544106E+000  0.1039139E+03  0.7546771E-02  0.1272274E+00
         21   -1    0    0  501  502  0.00000000000E+00  0.00000000000E+00  0.23128467898E+03  0.23128467898E+03  0.00000000000E+00 0.  1.
          2   -1    0    0  502    0 -0.00000000000E+00 -0.00000000000E+00 -0.31417717426E+02  0.31417717426E+02  0.00000000000E+00 0. -1.
         24    2    1    2    0    0  0.65969143547E+02  0.52812288893E+01  0.13068951773E+03  0.16696662455E+03  0.80114195932E+02 0.  0.
        -11    1    3    3    0    0  0.33340866218E+02  0.16966038252E+01  0.12991197839E+03  0.13413282206E+03  0.00000000000E+00 0.  1.
         12    1    3    3    0    0  0.32628277328E+02  0.35846250641E+01  0.77753933714E+00  0.32833802486E+02  0.00000000000E+00 0. -1.
          1    1    1    2  501    0 -0.65969143547E+02 -0.52812288893E+01  0.69177443821E+02  0.95735771854E+02  0.00000000000E+00 0. -1.
<mgrwt>
<rscale>  1 0.10391392E+03</rscale>
<asrwt>0</asrwt>
<pdfrwt beam="1">  1       21 0.35582257E-01 0.10391392E+03</pdfrwt>
<pdfrwt beam="2">  1        2 0.48334951E-02 0.10391392E+03</pdfrwt>
<totfact> 0.14571850E+05</totfact>
</mgrwt>
</event>
<event>
 6    2  0.8544106E+000  0.9468664E+02  0.7546771E-02  0.1291883E+00
          4   -1    0    0  502    0 -0.00000000000E+00  0.00000000000E+00  0.39134223619E+03  0.39134223619E+03  0.00000000000E+00 0. -1.
         21   -1    0    0  501  502  0.00000000000E+00 -0.00000000000E+00 -0.13312900851E+02  0.13312900851E+02  0.00000000000E+00 0.  1.
         24    2    1    2    0    0  0.32942816251E+02 -0.37176929232E+02  0.24764642673E+03  0.26513074467E+03  0.80611450096E+02 0.  0.
        -11    1    3    3    0    0  0.44117599462E+01 -0.52217090268E+02  0.89361243706E+02  0.10359305005E+03  0.00000000000E+00 0.  1.
         12    1    3    3    0    0  0.28531056305E+02  0.15040161036E+02  0.15828518302E+03  0.16153769462E+03  0.00000000000E+00 0. -1.
          3    1    1    2  501    0 -0.32942816251E+02  0.37176929232E+02  0.13038290861E+03  0.13952439238E+03  0.00000000000E+00 0. -1.
<mgrwt>
<rscale>  1 0.94686636E+02</rscale>
<asrwt>0</asrwt>
<pdfrwt beam="1">  1       21 0.20481389E-02 0.94686636E+02</pdfrwt>
<pdfrwt beam="2">  1        4 0.60206489E-01 0.94686636E+02</pdfrwt>
<totfact> 0.11798514E+05</totfact>
</mgrwt>
</event>
<event>
 6    2  0.8544106E+000  0.9641833E+02  0.7546771E-02  0.1288013E+00
         21   -1    0    0  501  502  0.00000000000E+00  0.00000000000E+00  0.27039370275E+02  0.27039370275E+02  0.00000000000E+00 0.  1.
          2   -1    0    0  502    0 -0.00000000000E+00 -0.00000000000E+00 -0.22153901223E+03  0.22153901223E+03  0.00000000000E+00 0. -1.
         24    2    1    2    0    0 -0.48025489768E+02  0.17705024626E+02 -0.16015410220E+03  0.18693804129E+03  0.81710337559E+02 0.  0.
        -11    1    3    3    0    0 -0.42281417518E+02  0.38939711450E+02 -0.55165553746E+02  0.79669678769E+02  0.00000000000E+00 0.  1.
         12    1    3    3    0    0 -0.57440722501E+01 -0.21234686824E+02 -0.10498854846E+03  0.10726836252E+03  0.00000000000E+00 0. -1.
          1    1    1    2  501    0  0.48025489768E+02 -0.17705024626E+02 -0.34345539752E+02  0.61640341217E+02  0.00000000000E+00 0. -1.
<mgrwt>
<rscale>  1 0.96418332E+02</rscale>
<asrwt>0</asrwt>
<pdfrwt beam="1">  1       21 0.41599030E-02 0.96418332E+02</pdfrwt>
<pdfrwt beam="2">  1        2 0.34082926E-01 0.96418332E+02</pdfrwt>
<totfact> 0.65327223E+05</totfact>
</mgrwt>
</event>
<event>
 6    2  0.8544106E+000  0.9523976E+02  0.7546771E-02  0.1290637E+00
          2   -1    0    0  502    0 -0.00000000000E+00  0.00000000000E+00  0.10438095096E+04  0.10438095096E+04  0.00000000000E+00 0. -1.
         21   -1    0    0  501  502  0.00000000000E+00 -0.00000000000E+00 -0.42186435174E+01  0.42186435174E+01  0.00000000000E+00 0.  1.
         24    2    1    2    0    0  0.41162798831E+01 -0.30813270498E+02  0.89958581735E+03  0.90461331752E+03  0.90023386175E+02 0.  0.
        -11    1    3    3    0    0  0.86260469576E+01 -0.22177056309E+02  0.54463777849E+02  0.59435121017E+02  0.00000000000E+00 0.  1.
         12    1    3    3    0    0 -0.45097670745E+01 -0.86362141882E+01  0.84512203950E+03  0.84517819651E+03  0.00000000000E+00 0. -1.
          1    1    1    2  501    0 -0.41162798831E+01  0.30813270498E+02  0.14000504874E+03  0.14341483560E+03  0.00000000000E+00 0. -1.
<mgrwt>
<rscale>  1 0.95239758E+02</rscale>
<asrwt>0</asrwt>
<pdfrwt beam="1">  1       21 0.64902291E-03 0.95239758E+02</pdfrwt>
<pdfrwt beam="2">  1        2 0.16058587E+00 0.95239758E+02</pdfrwt>
<totfact> 0.22081548E+06</totfact>
</mgrwt>
</event>
<event>
 6    2  0.8544106E+000  0.8489827E+02  0.7546771E-02  0.1315699E+00
         21   -1    0    0  501  502  0.00000000000E+00  0.00000000000E+00  0.45864621498E+01  0.45864621498E+01  0.00000000000E+00 0.  1.
          2   -1    0    0  502    0 -0.00000000000E+00 -0.00000000000E+00 -0.81147775003E+03  0.81147775003E+03  0.00000000000E+00 0. -1.
         24    2    1    2    0    0  0.22176733642E+02 -0.16601932406E+02 -0.43916319584E+03  0.44729411938E+03  0.80251386087E+02 0.  0.
        -13    1    3    3    0    0 -0.76939966977E+01 -0.23226287504E+02 -0.39517566466E+02  0.46478985314E+02  0.00000000000E+00 0.  1.
         14    1    3    3    0    0  0.29870730340E+02  0.66243550985E+01 -0.39964562938E+03  0.40081513406E+03  0.00000000000E+00 0. -1.
          1    1    1    2  501    0 -0.22176733642E+02  0.16601932406E+02 -0.36772809203E+03  0.36877009280E+03  0.00000000000E+00 0. -1.
<mgrwt>
<rscale>  1 0.84898272E+02</rscale>
<asrwt>0</asrwt>
<pdfrwt beam="1">  1       21 0.70560995E-03 0.84898272E+02</pdfrwt>
<pdfrwt beam="2">  1        2 0.12484266E+00 0.84898272E+02</pdfrwt>
<totfact> 0.26594194E+06</totfact>
</mgrwt>
</event>
<event>
 6    2  0.8544106E+000  0.8864023E+02  0.7546771E-02  0.1306178E+00
         -3   -1    0    0    0  501 -0.00000000000E+00  0.00000000000E+00  0.41961556399E+02  0.41961556399E+02  0.00000000000E+00 0.  1.
         21   -1    0    0  501  502  0.00000000000E+00 -0.00000000000E+00 -0.31332304038E+03  0.31332304038E+03  0.00000000000E+00 0.  1.
         24    2    1    2    0    0  0.25222290311E+02  0.13373592425E+02 -0.64883339950E+01  0.88877385002E+02  0.83917067298E+02 0.  0.
        -11    1    3    3    0    0  0.23800338274E+02 -0.68722555295E+00  0.36525744000E+02  0.43601127918E+02  0.00000000000E+00 0.  1.
         12    1    3    3    0    0  0.14219520373E+01  0.14060817978E+02 -0.43014077995E+02  0.45276257085E+02  0.00000000000E+00 0. -1.
         -4    1    1    2    0  502 -0.25222290311E+02 -0.13373592425E+02 -0.26487314998E+03  0.26640721177E+03  0.00000000000E+00 0.  1.
<mgrwt>
<rscale>  1 0.88640234E+02</rscale>
<asrwt>0</asrwt>
<pdfrwt beam="1">  1       21 0.48203547E-01 0.88640234E+02</pdfrwt>
<pdfrwt beam="2">  1       -3 0.64556238E-02 0.88640234E+02</pdfrwt>
<totfact> 0.28916646E+04</totfact>
</mgrwt>
</event>
<event>
 6    2  0.8544106E+000  0.8887348E+02  0.7546771E-02  0.1305603E+00
          4   -1    0    0  502    0 -0.00000000000E+00  0.00000000000E+00  0.16534785876E+03  0.16534785876E+03  0.00000000000E+00 0. -1.
         21   -1    0    0  501  502  0.00000000000E+00 -0.00000000000E+00 -0.29434305019E+02  0.29434305019E+02  0.00000000000E+00 0.  1.
         24    2    1    2    0    0  0.30084922463E+02  0.12225548797E+02  0.13581371528E+03  0.16230791905E+03  0.82728040734E+02 0.  0.
        -13    1    3    3    0    0  0.65122459140E+01  0.16769928422E+02 -0.56229965627E+01  0.18848287362E+02  0.00000000000E+00 0.  1.
         14    1    3    3    0    0  0.23572676549E+02 -0.45443796254E+01  0.14143671184E+03  0.14345963169E+03  0.00000000000E+00 0. -1.
          3    1    1    2  501    0 -0.30084922463E+02 -0.12225548797E+02  0.99838456830E-01  0.32474244729E+02  0.00000000000E+00 0. -1.
<mgrwt>
<rscale>  1 0.88873479E+02</rscale>
<asrwt>0</asrwt>
<pdfrwt beam="1">  1       21 0.45283547E-02 0.88873479E+02</pdfrwt>
<pdfrwt beam="2">  1        4 0.25438132E-01 0.88873479E+02</pdfrwt>
<totfact> 0.17191225E+05</totfact>
</mgrwt>
</event>
<event>
 6    2  0.8544106E+000  0.9279000E+02  0.7546771E-02  0.1296233E+00
         21   -1    0    0  501  502  0.00000000000E+00  0.00000000000E+00  0.38220568810E+01  0.38220568810E+01  0.00000000000E+00 0. -1.
         -3   -1    0    0    0  501 -0.00000000000E+00 -0.00000000000E+00 -0.12481992761E+04  0.12481992761E+04  0.00000000000E+00 0.  1.
         24    2    1    2    0    0  0.76444247284E+01  0.44688551002E+02 -0.84386249581E+03  0.84894869996E+03  0.80959740091E+02 0.  0.
        -13    1    3    3    0    0  0.13775176482E+02 -0.20735429613E+02 -0.15845828540E+03  0.16040181339E+03  0.00000000000E+00 0.  1.
         14    1    3    3    0    0 -0.61307517537E+01  0.65423980615E+02 -0.68540421041E+03  0.68854688657E+03  0.00000000000E+00 0. -1.
         -4    1    1    2    0  502 -0.76444247284E+01 -0.44688551002E+02 -0.40051472343E+03  0.40307263304E+03  0.00000000000E+00 0.  1.
<mgrwt>
<rscale>  1 0.92789996E+02</rscale>
<asrwt>0</asrwt>
<pdfrwt beam="1">  1       21 0.58800800E-03 0.92789996E+02</pdfrwt>
<pdfrwt beam="2">  1       -3 0.19203090E+00 0.92789996E+02</pdfrwt>
<totfact> 0.71415400E+04</totfact>
</mgrwt>
</event>
<event>
 6    2  0.8544106E+000  0.8385787E+02  0.7546771E-02  0.1318447E+00
         21   -1    0    0  501  502  0.00000000000E+00  0.00000000000E+00  0.15320580315E+02  0.15320580315E+02  0.00000000000E+00 0. -1.
         -1   -1    0    0    0  501 -0.00000000000E+00 -0.00000000000E+00 -0.21017446798E+03  0.21017446798E+03  0.00000000000E+00 0.  1.
         24    2    1    2    0    0  0.25383530137E+02  0.20223244098E+01 -0.11975443792E+03  0.14619598934E+03  0.79898238409E+02 0.  0.
        -11    1    3    3    0    0  0.26041898563E+02 -0.26202486142E+02 -0.11045852936E+03  0.11647247516E+03  0.00000000000E+00 0.  1.
         12    1    3    3    0    0 -0.65836842599E+00  0.28224810551E+02 -0.92959085568E+01  0.29723514186E+02  0.00000000000E+00 0. -1.
         -2    1    1    2    0  502 -0.25383530137E+02 -0.20223244098E+01 -0.75099449746E+02  0.79299058950E+02  0.00000000000E+00 0.  1.
<mgrwt>
<rscale>  1 0.83857867E+02</rscale>
<asrwt>0</asrwt>
<pdfrwt beam="1">  1       21 0.23570123E-02 0.83857867E+02</pdfrwt>
<pdfrwt beam="2">  1       -1 0.32334535E-01 0.83857867E+02</pdfrwt>
<totfact> 0.71241663E+05</totfact>
</mgrwt>
</event>
<event>
 6    2  0.8544106E+000  0.8505315E+02  0.7546771E-02  0.1315294E+00
         -1   -1    0    0    0  501 -0.00000000000E+00  0.00000000000E+00  0.14516308831E+02  0.14516308831E+02  0.00000000000E+00 0.  1.
         21   -1    0    0  501  502  0.00000000000E+00 -0.00000000000E+00 -0.27522124694E+03  0.27522124694E+03  0.00000000000E+00 0. -1.
         24    2    1    2    0    0 -0.57001581577E+01  0.26411427901E+02 -0.12386160446E+03  0.15025224009E+03  0.80647276863E+02 0.  0.
        -13    1    3    3    0    0  0.41929685375E+01 -0.10116384678E+02  0.76797307453E+01  0.13375368721E+02  0.00000000000E+00 0.  1.
         14    1    3    3    0    0 -0.98931266952E+01  0.36527812579E+02 -0.13154133521E+03  0.13687687137E+03  0.00000000000E+00 0. -1.
         -2    1    1    2    0  502  0.57001581577E+01 -0.26411427901E+02 -0.13684333365E+03  0.13948531568E+03  0.00000000000E+00 0.  1.
<mgrwt>
<rscale>  1 0.85053152E+02</rscale>
<asrwt>0</asrwt>
<pdfrwt beam="1">  1       21 0.42341731E-01 0.85053152E+02</pdfrwt>
<pdfrwt beam="2">  1       -1 0.22332783E-02 0.85053152E+02</pdfrwt>
<totfact> 0.25757466E+05</totfact>
</mgrwt>
</event>
<event>
 6    2  0.8544106E+000  0.9813107E+02  0.7546771E-02  0.1284276E+00
          2   -1    0    0  502    0 -0.00000000000E+00  0.00000000000E+00  0.72648522544E+03  0.72648522544E+03  0.00000000000E+00 0. -1.
         21   -1    0    0  501  502  0.00000000000E+00 -0.00000000000E+00 -0.20903512427E+02  0.20903512427E+02  0.00000000000E+00 0. -1.
         24    2    1    2    0    0 -0.27428528430E+02  0.50319154651E+02  0.67564018045E+03  0.68272934668E+03  0.79657804908E+02 0.  0.
        -13    1    3    3    0    0  0.95714662918E+01 -0.14797184660E+02  0.24435361917E+03  0.24498828715E+03  0.00000000000E+00 0.  1.
         14    1    3    3    0    0 -0.36999994722E+02  0.65116339311E+02  0.43128656128E+03  0.43774105953E+03  0.00000000000E+00 0. -1.
          1    1    1    2  501    0  0.27428528430E+02 -0.50319154651E+02  0.29941532564E+02  0.64659391189E+02  0.00000000000E+00 0. -1.
<mgrwt>
<rscale>  1 0.98131072E+02</rscale>
<asrwt>0</asrwt>
<pdfrwt beam="1">  1       21 0.32159256E-02 0.98131072E+02</pdfrwt>
<pdfrwt beam="2">  1        2 0.11176694E+00 0.98131072E+02</pdfrwt>
<totfact> 0.27742084E+05</totfact>
</mgrwt>
</event>
<event>
 6    2  0.8544106E+000  0.1147588E+03  0.7546771E-02  0.1252003E+00
          2   -1    0    0  502    0 -0.00000000000E+00  0.00000000000E+00  0.80854882877E+03  0.80854882877E+03  0.00000000000E+00 0. -1.
         21   -1    0    0  501  502  0.00000000000E+00 -0.00000000000E+00 -0.12076527428E+02  0.12076527428E+02  0.00000000000E+00 0. -1.
         24    2    1    2    0    0  0.82064109097E+02 -0.49614589223E+01  0.43060410477E+03  0.44563379451E+03  0.80065283892E+02 0.  0.
        -13    1    3    3    0    0  0.21237017225E+02 -0.35214715518E+02  0.10006251224E+03  0.10818314770E+03  0.00000000000E+00 0.  1.
         14    1    3    3    0    0  0.60827091872E+02  0.30253256596E+02  0.33054159253E+03  0.33745064681E+03  0.00000000000E+00 0. -1.
          1    1    1    2  501    0 -0.82064109097E+02  0.49614589223E+01  0.36586819657E+03  0.37499156169E+03  0.00000000000E+00 0. -1.
<mgrwt>
<rscale>  1 0.11475881E+03</rscale>
<asrwt>0</asrwt>
<pdfrwt beam="1">  1       21 0.18579279E-02 0.11475881E+03</pdfrwt>
<pdfrwt beam="2">  1        2 0.12439209E+00 0.11475881E+03</pdfrwt>
<totfact> 0.59772928E+05</totfact>
</mgrwt>
</event>
<event>
 6    2  0.8544106E+000  0.9581127E+02  0.7546771E-02  0.1289359E+00
         21   -1    0    0  501  502  0.00000000000E+00  0.00000000000E+00  0.15254749901E+02  0.15254749901E+02  0.00000000000E+00 0. -1.
          2   -1    0    0  502    0 -0.00000000000E+00 -0.00000000000E+00 -0.33910190986E+03  0.33910190986E+03  0.00000000000E+00 0. -1.
         24    2    1    2    0    0  0.45180483358E+02 -0.13782735753E+02 -0.23384953599E+03  0.25271605665E+03  0.83358022549E+02 0.  0.
        -13    1    3    3    0    0 -0.24381338771E+00  0.20994958993E+02 -0.13269544364E+02  0.24838046536E+02  0.00000000000E+00 0.  1.
         14    1    3    3    0    0  0.45424296745E+02 -0.34777694746E+02 -0.22057999163E+03  0.22787801011E+03  0.00000000000E+00 0. -1.
          1    1    1    2  501    0 -0.45180483358E+02  0.13782735753E+02 -0.89997623971E+02  0.10164060312E+03  0.00000000000E+00 0. -1.
<mgrwt>
<rscale>  1 0.95811272E+02</rscale>
<asrwt>0</asrwt>
<pdfrwt beam="1">  1       21 0.23468849E-02 0.95811272E+02</pdfrwt>
<pdfrwt beam="2">  1        2 0.52169519E-01 0.95811272E+02</pdfrwt>
<totfact> 0.10619453E+06</totfact>
</mgrwt>
</event>
<event>
 6    2  0.8544106E+000  0.9049049E+02  0.7546771E-02  0.1301668E+00
         21   -1    0    0  501  502  0.00000000000E+00  0.00000000000E+00  0.17254111149E+01  0.17254111149E+01  0.00000000000E+00 0.  1.
          2   -1    0    0  502    0 -0.00000000000E+00 -0.00000000000E+00 -0.20135720849E+04  0.20135720849E+04  0.00000000000E+00 0. -1.
         24    2    1    2    0    0 -0.18493744832E+02 -0.16519015024E+02 -0.17288157262E+04  0.17311823543E+04  0.87026618121E+02 0.  0.
        -11    1    3    3    0    0  0.11065311151E+02 -0.24551665884E+02 -0.17458254063E+03  0.17664735747E+03  0.00000000000E+00 0.  1.
         12    1    3    3    0    0 -0.29559055983E+02  0.80326508600E+01 -0.15542331855E+04  0.15545349968E+04  0.00000000000E+00 0. -1.
          1    1    1    2  501    0  0.18493744832E+02  0.16519015024E+02 -0.28303094762E+03  0.28411514174E+03  0.00000000000E+00 0. -1.
<mgrwt>
<rscale>  1 0.90490490E+02</rscale>
<asrwt>0</asrwt>
<pdfrwt beam="1">  1       21 0.26544786E-03 0.90490490E+02</pdfrwt>
<pdfrwt beam="2">  1        2 0.30978033E+00 0.90490490E+02</pdfrwt>
<totfact> 0.26992509E+06</totfact>
</mgrwt>
</event>
<event>
 6    2  0.8544106E+000  0.8936565E+02  0.7546771E-02  0.1304395E+00
         21   -1    0    0  501  502  0.00000000000E+00  0.00000000000E+00  0.10955771929E+02  0.10955771929E+02  0.00000000000E+00 0. -1.
          2   -1    0    0  502    0 -0.00000000000E+00 -0.00000000000E+00 -0.30379471700E+03  0.30379471700E+03  0.00000000000E+00 0. -1.
         24    2    1    2    0    0 -0.18455884047E+02 -0.96361492043E+01 -0.19191858902E+03  0.21170490051E+03  0.86906530599E+02 0.  0.
        -11    1    3    3    0    0  0.30139806653E+02  0.16076896581E+02 -0.66327865858E+02  0.74607374555E+02  0.00000000000E+00 0.  1.
         12    1    3    3    0    0 -0.48595690701E+02 -0.25713045786E+02 -0.12559072316E+03  0.13709752596E+03  0.00000000000E+00 0. -1.
          1    1    1    2  501    0  0.18455884047E+02  0.96361492043E+01 -0.10092035605E+03  0.10304558841E+03  0.00000000000E+00 0. -1.
<mgrwt>
<rscale>  1 0.89365654E+02</rscale>
<asrwt>0</asrwt>
<pdfrwt beam="1">  1       21 0.16855034E-02 0.89365654E+02</pdfrwt>
<pdfrwt beam="2">  1        2 0.46737648E-01 0.89365654E+02</pdfrwt>
<totfact> 0.20082723E+06</totfact>
</mgrwt>
</event>
<event>
 6    2  0.8544106E+000  0.8679416E+02  0.7546771E-02  0.1310806E+00
          2   -1    0    0  502    0 -0.00000000000E+00  0.00000000000E+00  0.20334254751E+03  0.20334254751E+03  0.00000000000E+00 0. -1.
         21   -1    0    0  501  502  0.00000000000E+00 -0.00000000000E+00 -0.21632369164E+02  0.21632369164E+02  0.00000000000E+00 0.  1.
         24    2    1    2    0    0  0.90412090009E+01  0.23969616307E+02  0.17935079192E+03  0.19924841924E+03  0.82927317819E+02 0.  0.
        -11    1    3    3    0    0 -0.88066940961E+01  0.45976573705E+02  0.57497871880E+02  0.74144510662E+02  0.00000000000E+00 0.  1.
         12    1    3    3    0    0  0.17847903097E+02 -0.22006957399E+02  0.12185292004E+03  0.12510390858E+03  0.00000000000E+00 0. -1.
          1    1    1    2  501    0 -0.90412090009E+01 -0.23969616307E+02  0.23593864278E+01  0.25726497437E+02  0.00000000000E+00 0. -1.
<mgrwt>
<rscale>  1 0.86794159E+02</rscale>
<asrwt>0</asrwt>
<pdfrwt beam="1">  1       21 0.33280569E-02 0.86794159E+02</pdfrwt>
<pdfrwt beam="2">  1        2 0.31283468E-01 0.86794159E+02</pdfrwt>
<totfact> 0.10212056E+06</totfact>
</mgrwt>
</event>
<event>
 6    2  0.8544106E+000  0.8317682E+02  0.7546771E-02  0.1320270E+00
         -3   -1    0    0    0  501 -0.00000000000E+00  0.00000000000E+00  0.72615085198E+01  0.72615085198E+01  0.00000000000E+00 0.  1.
         21   -1    0    0  501  502  0.00000000000E+00 -0.00000000000E+00 -0.38211904151E+03  0.38211904151E+03  0.00000000000E+00 0. -1.
         24    2    1    2    0    0  0.16428269850E+02  0.13418290745E+02 -0.27541594064E+03  0.28770179677E+03  0.80426643130E+02 0.  0.
        -13    1    3    3    0    0  0.42029456251E+02  0.13419583522E+02 -0.86931538420E+02  0.97486680048E+02  0.00000000000E+00 0.  1.
         14    1    3    3    0    0 -0.25601186401E+02 -0.12927766340E-02 -0.18848440222E+03  0.19021511672E+03  0.00000000000E+00 0. -1.
         -4    1    1    2    0  502 -0.16428269850E+02 -0.13418290745E+02 -0.99441592349E+02  0.10167875327E+03  0.00000000000E+00 0.  1.
<mgrwt>
<rscale>  1 0.83176821E+02</rscale>
<asrwt>0</asrwt>
<pdfrwt beam="1">  1       21 0.58787545E-01 0.83176821E+02</pdfrwt>
<pdfrwt beam="2">  1       -3 0.11171552E-02 0.83176821E+02</pdfrwt>
<totfact> 0.27770187E+05</totfact>
</mgrwt>
</event>
<event>
 6    2  0.8544106E+000  0.8870170E+02  0.7546771E-02  0.1306027E+00
          2   -1    0    0  502    0 -0.00000000000E+00  0.00000000000E+00  0.95236519941E+02  0.95236519941E+02  0.00000000000E+00 0. -1.
         21   -1    0    0  501  502  0.00000000000E+00 -0.00000000000E+00 -0.60159114330E+02  0.60159114330E+02  0.00000000000E+00 0. -1.
         24    2    1    2    0    0  0.39641596183E+02 -0.30287594857E+01 -0.16551753941E+02  0.90232764107E+02  0.79292885103E+02 0.  0.
        -13    1    3    3    0    0 -0.21185151696E+02 -0.72695217112E-01 -0.20137162907E+02  0.29228774639E+02  0.00000000000E+00 0.  1.
         14    1    3    3    0    0  0.60826747879E+02 -0.29560642686E+01  0.35854089664E+01  0.61003989467E+02  0.00000000000E+00 0. -1.
          1    1    1    2  501    0 -0.39641596183E+02  0.30287594857E+01  0.51629159552E+02  0.65162870164E+02  0.00000000000E+00 0. -1.
<mgrwt>
<rscale>  1 0.88701698E+02</rscale>
<asrwt>0</asrwt>
<pdfrwt beam="1">  1       21 0.92552483E-02 0.88701698E+02</pdfrwt>
<pdfrwt beam="2">  1        2 0.14651772E-01 0.88701698E+02</pdfrwt>
<totfact> 0.42830446E+05</totfact>
</mgrwt>
</event>
<event>
 6    2  0.8544106E+000  0.8507434E+02  0.7546771E-02  0.1315238E+00
         21   -1    0    0  501  502  0.00000000000E+00  0.00000000000E+00  0.74118123995E+02  0.74118123995E+02  0.00000000000E+00 0.  1.
          4   -1    0    0  502    0 -0.00000000000E+00 -0.00000000000E+00 -0.16444411392E+03  0.16444411392E+03  0.00000000000E+00 0. -1.
         24    2    1    2    0    0  0.30914640765E+02 -0.40114257529E+01 -0.14931046326E+03  0.17184661273E+03  0.79157042120E+02 0.  0.
        -13    1    3    3    0    0  0.55897189419E+02  0.48378411772E+01 -0.80630667344E+02  0.98230367038E+02  0.00000000000E+00 0.  1.
         14    1    3    3    0    0 -0.24982548654E+02 -0.88492669301E+01 -0.68679795914E+02  0.73616245688E+02  0.00000000000E+00 0. -1.
          3    1    1    2  501    0 -0.30914640765E+02  0.40114257529E+01  0.58984473331E+02  0.66715625189E+02  0.00000000000E+00 0. -1.
<mgrwt>
<rscale>  1 0.85074343E+02</rscale>
<asrwt>0</asrwt>
<pdfrwt beam="1">  1       21 0.11402789E-01 0.85074343E+02</pdfrwt>
<pdfrwt beam="2">  1        4 0.25299094E-01 0.85074343E+02</pdfrwt>
<totfact> 0.35959127E+04</totfact>
</mgrwt>
</event>
<event>
 6    2  0.8544106E+000  0.1443975E+03  0.7546771E-02  0.1207531E+00
          2   -1    0    0  502    0 -0.00000000000E+00  0.00000000000E+00  0.19552033509E+03  0.19552033509E+03  0.00000000000E+00 0. -1.
         21   -1    0    0  501  502  0.00000000000E+00 -0.00000000000E+00 -0.14046969440E+03  0.14046969440E+03  0.00000000000E+00 0. -1.
         24    2    1    2    0    0 -0.60064787586E+02 -0.10315457118E+03  0.13062145720E+03  0.19471160732E+03  0.81252696458E+02 0.  0.
        -13    1    3    3    0    0 -0.85821276788E+01  0.65358993927E+01 -0.57993924651E+01  0.12247605861E+02  0.00000000000E+00 0.  1.
         14    1    3    3    0    0 -0.51482659907E+02 -0.10969047058E+03  0.13642084966E+03  0.18246400146E+03  0.00000000000E+00 0. -1.
          1    1    1    2  501    0  0.60064787586E+02  0.10315457118E+03 -0.75570816505E+02  0.14127842217E+03  0.00000000000E+00 0. -1.
<mgrwt>
<rscale>  1 0.14439752E+03</rscale>
<asrwt>0</asrwt>
<pdfrwt beam="1">  1       21 0.21610722E-01 0.14439752E+03</pdfrwt>
<pdfrwt beam="2">  1        2 0.30080052E-01 0.14439752E+03</pdfrwt>
<totfact> 0.42940524E+04</totfact>
</mgrwt>
</event>
<event>
 6    2  0.8544106E+000  0.8342317E+02  0.7546771E-02  0.1319608E+00
         21   -1    0    0  501  502  0.00000000000E+00  0.00000000000E+00  0.39983927582E+01  0.39983927582E+01  0.00000000000E+00 0.  1.
          2   -1    0    0  502    0 -0.00000000000E+00 -0.00000000000E+00 -0.77722812194E+03  0.77722812194E+03  0.00000000000E+00 0. -1.
         24    2    1    2    0    0  0.10193600781E+02 -0.18078656474E+02 -0.70476275993E+03  0.70968300909E+03  0.80800236907E+02 0.  0.
        -11    1    3    3    0    0  0.39144746870E+02 -0.11442419980E+02 -0.20380043292E+03  0.20784094073E+03  0.00000000000E+00 0.  1.
         12    1    3    3    0    0 -0.28951146090E+02 -0.66362364935E+01 -0.50096232701E+03  0.50184206836E+03  0.00000000000E+00 0. -1.
          1    1    1    2  501    0 -0.10193600781E+02  0.18078656474E+02 -0.68466969247E+02  0.71543505608E+02  0.00000000000E+00 0. -1.
<mgrwt>
<rscale>  1 0.83423172E+02</rscale>
<asrwt>0</asrwt>
<pdfrwt beam="1">  1       21 0.61513707E-03 0.83423172E+02</pdfrwt>
<pdfrwt beam="2">  1        2 0.11957361E+00 0.83423172E+02</pdfrwt>
<totfact> 0.34553495E+06</totfact>
</mgrwt>
</event>
<event>
 6    2  0.8544106E+000  0.8878054E+02  0.7546771E-02  0.1305832E+00
         -1   -1    0    0    0  501 -0.00000000000E+00  0.00000000000E+00  0.10647489661E+03  0.10647489661E+03  0.00000000000E+00 0.  1.
         21   -1    0    0  501  502  0.00000000000E+00 -0.00000000000E+00 -0.38187133062E+02  0.38187133062E+02  0.00000000000E+00 0.  1.
         24    2    1    2    0    0  0.17852935370E+02 -0.26345123880E+02  0.69600559560E+02  0.11281055738E+03  0.82880583448E+02 0.  0.
        -13    1    3    3    0    0  0.26231518758E+01 -0.55255783283E+02  0.50836826728E+02  0.75129657684E+02  0.00000000000E+00 0.  1.
         14    1    3    3    0    0  0.15229783494E+02  0.28910659403E+02  0.18763732833E+02  0.37680899700E+02  0.00000000000E+00 0. -1.
         -2    1    1    2    0  502 -0.17852935370E+02  0.26345123880E+02 -0.13127960113E+01  0.31851472288E+02  0.00000000000E+00 0.  1.
<mgrwt>
<rscale>  1 0.88780538E+02</rscale>
<asrwt>0</asrwt>
<pdfrwt beam="1">  1       21 0.58749436E-02 0.88780538E+02</pdfrwt>
<pdfrwt beam="2">  1       -1 0.16380753E-01 0.88780538E+02</pdfrwt>
<totfact> 0.47974594E+05</totfact>
</mgrwt>
</event>
<event>
 6    2  0.8544106E+000  0.8866541E+02  0.7546771E-02  0.1306116E+00
         -3   -1    0    0    0  501 -0.00000000000E+00  0.00000000000E+00  0.26060614789E+03  0.26060614789E+03  0.00000000000E+00 0.  1.
         21   -1    0    0  501  502  0.00000000000E+00 -0.00000000000E+00 -0.15176523996E+02  0.15176523996E+02  0.00000000000E+00 0. -1.
         24    2    1    2    0    0  0.15562071736E+02  0.33220536728E+02  0.16289681461E+03  0.18546408717E+03  0.80720339950E+02 0.  0.
        -13    1    3    3    0    0 -0.19149034204E+02  0.15656993105E+02  0.83655363149E+01  0.26111475292E+02  0.00000000000E+00 0.  1.
         14    1    3    3    0    0  0.34711105941E+02  0.17563543622E+02  0.15453127830E+03  0.15935261188E+03  0.00000000000E+00 0. -1.
         -4    1    1    2    0  502 -0.15562071736E+02 -0.33220536728E+02  0.82532809285E+02  0.90318584719E+02  0.00000000000E+00 0.  1.
<mgrwt>
<rscale>  1 0.88665413E+02</rscale>
<asrwt>0</asrwt>
<pdfrwt beam="1">  1       21 0.23348500E-02 0.88665413E+02</pdfrwt>
<pdfrwt beam="2">  1       -3 0.40093250E-01 0.88665413E+02</pdfrwt>
<totfact> 0.26156639E+05</totfact>
</mgrwt>
</event>
<event>
 6    2  0.8544106E+000  0.9153327E+02  0.7546771E-02  0.1299181E+00
         21   -1    0    0  501  502  0.00000000000E+00  0.00000000000E+00  0.80751210022E+01  0.80751210022E+01  0.00000000000E+00 0.  1.
          2   -1    0    0  502    0 -0.00000000000E+00 -0.00000000000E+00 -0.80211098859E+03  0.80211098859E+03  0.00000000000E+00 0. -1.
         24    2    1    2    0    0  0.84798348897E+00 -0.42726694606E+02 -0.28451988597E+03  0.29888108807E+03  0.80944732915E+02 0.  0.
        -11    1    3    3    0    0 -0.16988566460E+02  0.10126429896E+02 -0.18519567838E+02  0.27094840204E+02  0.00000000000E+00 0.  1.
         12    1    3    3    0    0  0.17836549949E+02 -0.52853124501E+02 -0.26600031813E+03  0.27178624787E+03  0.00000000000E+00 0. -1.
          1    1    1    2  501    0 -0.84798348897E+00  0.42726694606E+02 -0.50951598162E+03  0.51130502152E+03  0.00000000000E+00 0. -1.
<mgrwt>
<rscale>  1 0.91533269E+02</rscale>
<asrwt>0</asrwt>
<pdfrwt beam="1">  1       21 0.12423270E-02 0.91533269E+02</pdfrwt>
<pdfrwt beam="2">  1        2 0.12340162E+00 0.91533269E+02</pdfrwt>
<totfact> 0.11251953E+06</totfact>
</mgrwt>
</event>
<event>
 6    2  0.8544106E+000  0.9057104E+02  0.7546771E-02  0.1301475E+00
         21   -1    0    0  501  502  0.00000000000E+00  0.00000000000E+00  0.43935727046E+02  0.43935727046E+02  0.00000000000E+00 0. -1.
          4   -1    0    0  502    0 -0.00000000000E+00 -0.00000000000E+00 -0.14753110316E+03  0.14753110316E+03  0.00000000000E+00 0. -1.
         24    2    1    2    0    0 -0.35509192668E+02  0.22497783769E+02 -0.11643488778E+03  0.14751337644E+03  0.80225059032E+02 0.  0.
        -13    1    3    3    0    0 -0.40421868681E+01  0.54030057989E+01  0.12224531352E+02  0.13963198528E+02  0.00000000000E+00 0.  1.
         14    1    3    3    0    0 -0.31467005800E+02  0.17094777970E+02 -0.12865941913E+03  0.13355017791E+03  0.00000000000E+00 0. -1.
          3    1    1    2  501    0  0.35509192668E+02 -0.22497783769E+02  0.12839511667E+02  0.43953453770E+02  0.00000000000E+00 0. -1.
<mgrwt>
<rscale>  1 0.90571039E+02</rscale>
<asrwt>0</asrwt>
<pdfrwt beam="1">  1       21 0.67593426E-02 0.90571039E+02</pdfrwt>
<pdfrwt beam="2">  1        4 0.22697093E-01 0.90571039E+02</pdfrwt>
<totfact> 0.10862252E+05</totfact>
</mgrwt>
</event>
<event>
 6    2  0.8544106E+000  0.8509521E+02  0.7546771E-02  0.1315184E+00
         21   -1    0    0  501  502  0.00000000000E+00  0.00000000000E+00  0.75054944173E+01  0.75054944173E+01  0.00000000000E+00 0.  1.
         -3   -1    0    0    0  501 -0.00000000000E+00 -0.00000000000E+00 -0.67869433000E+03  0.67869433000E+03  0.00000000000E+00 0.  1.
         24    2    1    2    0    0 -0.23381121254E+02  0.16335286488E+02 -0.63214943807E+03  0.63785116389E+03  0.80172793512E+02 0.  0.
        -13    1    3    3    0    0 -0.43175561795E+02 -0.12668751050E+02 -0.45744826875E+03  0.45965589844E+03  0.00000000000E+00 0.  1.
         14    1    3    3    0    0  0.19794440541E+02  0.29004037538E+02 -0.17470116932E+03  0.17819526546E+03  0.00000000000E+00 0. -1.
         -4    1    1    2    0  502  0.23381121254E+02 -0.16335286488E+02 -0.39039397514E+02  0.48348660519E+02  0.00000000000E+00 0.  1.
<mgrwt>
<rscale>  1 0.85095213E+02</rscale>
<asrwt>0</asrwt>
<pdfrwt beam="1">  1       21 0.11546913E-02 0.85095213E+02</pdfrwt>
<pdfrwt beam="2">  1       -3 0.10441453E+00 0.85095213E+02</pdfrwt>
<totfact> 0.10929177E+05</totfact>
</mgrwt>
</event>
<event>
 6    2  0.8544106E+000  0.8516042E+02  0.7546771E-02  0.1315014E+00
          2   -1    0    0  502    0 -0.00000000000E+00  0.00000000000E+00  0.38995090663E+01  0.38995090663E+01  0.00000000000E+00 0. -1.
         21   -1    0    0  501  502  0.00000000000E+00 -0.00000000000E+00 -0.90094761192E+03  0.90094761192E+03  0.00000000000E+00 0.  1.
         24    2    1    2    0    0 -0.58414846060E+01  0.25215112732E+02 -0.79577650933E+03  0.80032027991E+03  0.81131823390E+02 0.  0.
        -11    1    3    3    0    0 -0.20579623921E+02 -0.14335913278E+02 -0.57491871046E+03  0.57546551848E+03  0.00000000000E+00 0.  1.
         12    1    3    3    0    0  0.14738139315E+02  0.39551026010E+02 -0.22085779888E+03  0.22485476142E+03  0.00000000000E+00 0. -1.
          1    1    1    2  501    0  0.58414846060E+01 -0.25215112732E+02 -0.10127159352E+03  0.10452684108E+03  0.00000000000E+00 0. -1.
<mgrwt>
<rscale>  1 0.85160423E+02</rscale>
<asrwt>0</asrwt>
<pdfrwt beam="1">  1       21 0.13860738E+00 0.85160423E+02</pdfrwt>
<pdfrwt beam="2">  1        2 0.59992423E-03 0.85160423E+02</pdfrwt>
<totfact> 0.12393379E+05</totfact>
</mgrwt>
</event>
<event>
 6    2  0.8544106E+000  0.9299767E+02  0.7546771E-02  0.1295751E+00
          2   -1    0    0  502    0 -0.00000000000E+00  0.00000000000E+00  0.19145043997E+04  0.19145043997E+04  0.00000000000E+00 0. -1.
         21   -1    0    0  501  502  0.00000000000E+00 -0.00000000000E+00 -0.34217388467E+01  0.34217388467E+01  0.00000000000E+00 0.  1.
         24    2    1    2    0    0  0.32713704668E+02 -0.12202626682E+02  0.67789055414E+03  0.68423984834E+03  0.86194408753E+02 0.  0.
        -13    1    3    3    0    0  0.61839651124E+02 -0.10647937896E+02  0.50841254044E+03  0.51227027272E+03  0.00000000000E+00 0.  1.
         14    1    3    3    0    0 -0.29125946456E+02 -0.15546887858E+01  0.16947801369E+03  0.17196957562E+03  0.00000000000E+00 0. -1.
          1    1    1    2  501    0 -0.32713704668E+02  0.12202626682E+02  0.12331921067E+04  0.12336862902E+04  0.00000000000E+00 0. -1.
<mgrwt>
<rscale>  1 0.92997670E+02</rscale>
<asrwt>0</asrwt>
<pdfrwt beam="1">  1       21 0.52642289E-03 0.92997670E+02</pdfrwt>
<pdfrwt beam="2">  1        2 0.29453828E+00 0.92997670E+02</pdfrwt>
<totfact> 0.10697221E+06</totfact>
</mgrwt>
</event>
<event>
 6    2  0.8544106E+000  0.9207793E+02  0.7546771E-02  0.1297896E+00
          2   -1    0    0  502    0 -0.00000000000E+00  0.00000000000E+00  0.14863370758E+04  0.14863370758E+04  0.00000000000E+00 0. -1.
         21   -1    0    0  501  502  0.00000000000E+00 -0.00000000000E+00 -0.31198457291E+01  0.31198457291E+01  0.00000000000E+00 0.  1.
         24    2    1    2    0    0 -0.24427547612E+02 -0.18035915363E+02  0.13344255634E+04  0.13375985685E+04  0.86927249877E+02 0.  0.
        -13    1    3    3    0    0 -0.23730469736E+02  0.22287317364E+00  0.91148050626E+02  0.94186793125E+02  0.00000000000E+00 0.  1.
         14    1    3    3    0    0 -0.69707787626E+00 -0.18258788536E+02  0.12432775128E+04  0.12434117754E+04  0.00000000000E+00 0. -1.
          1    1    1    2  501    0  0.24427547612E+02  0.18035915363E+02  0.14879166663E+03  0.15185835303E+03  0.00000000000E+00 0. -1.
<mgrwt>
<rscale>  1 0.92077935E+02</rscale>
<asrwt>0</asrwt>
<pdfrwt beam="1">  1       21 0.47997745E-03 0.92077935E+02</pdfrwt>
<pdfrwt beam="2">  1        2 0.22866668E+00 0.92077935E+02</pdfrwt>
<totfact> 0.20254489E+06</totfact>
</mgrwt>
</event>
<event>
 6    2  0.8544106E+000  0.8845879E+02  0.7546771E-02  0.1306627E+00
         21   -1    0    0  501  502  0.00000000000E+00  0.00000000000E+00  0.40650557703E+02  0.40650557703E+02  0.00000000000E+00 0. -1.
          2   -1    0    0  502    0 -0.00000000000E+00 -0.00000000000E+00 -0.32897893792E+03  0.32897893792E+03  0.00000000000E+00 0. -1.
         24    2    1    2    0    0 -0.10742811621E+02 -0.32979786837E+02 -0.31416367133E+03  0.32637979495E+03  0.81374958250E+02 0.  0.
        -13    1    3    3    0    0  0.34831249432E+02 -0.58659951349E+01 -0.13354795129E+03  0.13814007793E+03  0.00000000000E+00 0.  1.
         14    1    3    3    0    0 -0.45574061053E+02 -0.27113791702E+02 -0.18061572004E+03  0.18823971702E+03  0.00000000000E+00 0. -1.
          1    1    1    2  501    0  0.10742811621E+02  0.32979786837E+02  0.25835291111E+02  0.43249700670E+02  0.00000000000E+00 0. -1.
<mgrwt>
<rscale>  1 0.88458794E+02</rscale>
<asrwt>0</asrwt>
<pdfrwt beam="1">  1       21 0.62539318E-02 0.88458794E+02</pdfrwt>
<pdfrwt beam="2">  1        2 0.50612146E-01 0.88458794E+02</pdfrwt>
<totfact> 0.21717813E+05</totfact>
</mgrwt>
</event>
<event>
 6    2  0.8544106E+000  0.9639389E+02  0.7546771E-02  0.1288067E+00
         21   -1    0    0  501  502  0.00000000000E+00  0.00000000000E+00  0.97340260988E+02  0.97340260988E+02  0.00000000000E+00 0.  1.
          4   -1    0    0  502    0 -0.00000000000E+00 -0.00000000000E+00 -0.57802154169E+02  0.57802154169E+02  0.00000000000E+00 0. -1.
         24    2    1    2    0    0  0.39880521004E+02  0.35610692818E+02  0.21986663185E+02  0.98869592479E+02  0.80207266257E+02 0.  0.
        -13    1    3    3    0    0  0.46772815746E+02 -0.82222344812E+00  0.36209157986E+02  0.59156364546E+02  0.00000000000E+00 0.  1.
         14    1    3    3    0    0 -0.68922947427E+01  0.36432916266E+02 -0.14222494802E+02  0.39713227933E+02  0.00000000000E+00 0. -1.
          3    1    1    2  501    0 -0.39880521004E+02 -0.35610692818E+02  0.17551443635E+02  0.56272822678E+02  0.00000000000E+00 0. -1.
<mgrwt>
<rscale>  1 0.96393895E+02</rscale>
<asrwt>0</asrwt>
<pdfrwt beam="1">  1       21 0.14975425E-01 0.96393895E+02</pdfrwt>
<pdfrwt beam="2">  1        4 0.88926391E-02 0.96393895E+02</pdfrwt>
<totfact> 0.13894410E+05</totfact>
</mgrwt>
</event>
<event>
 6    2  0.8544106E+000  0.8578779E+02  0.7546771E-02  0.1313385E+00
          4   -1    0    0  502    0 -0.00000000000E+00  0.00000000000E+00  0.41086080092E+01  0.41086080092E+01  0.00000000000E+00 0. -1.
         21   -1    0    0  501  502  0.00000000000E+00 -0.00000000000E+00 -0.81704353308E+03  0.81704353308E+03  0.00000000000E+00 0.  1.
         24    2    1    2    0    0  0.32878742115E+01 -0.28730019648E+02 -0.65469245189E+03  0.66028914204E+03  0.80767074876E+02 0.  0.
        -11    1    3    3    0    0 -0.18250579491E+02 -0.30978618106E+02 -0.60519062806E+03  0.60625774611E+03  0.00000000000E+00 0.  1.
         12    1    3    3    0    0  0.21538453703E+02  0.22485984583E+01 -0.49501823838E+02  0.54031395930E+02  0.00000000000E+00 0. -1.
          3    1    1    2  501    0 -0.32878742115E+01  0.28730019648E+02 -0.15824247318E+03  0.16086299905E+03  0.00000000000E+00 0. -1.
<mgrwt>
<rscale>  1 0.85787788E+02</rscale>
<asrwt>0</asrwt>
<pdfrwt beam="1">  1       21 0.12569904E+00 0.85787788E+02</pdfrwt>
<pdfrwt beam="2">  1        4 0.63209338E-03 0.85787788E+02</pdfrwt>
<totfact> 0.10705395E+05</totfact>
</mgrwt>
</event>
<event>
 6    2  0.8544106E+000  0.1009811E+03  0.7546771E-02  0.1278246E+00
         21   -1    0    0  501  502  0.00000000000E+00  0.00000000000E+00  0.24739802383E+02  0.24739802383E+02  0.00000000000E+00 0.  1.
          4   -1    0    0  502    0 -0.00000000000E+00 -0.00000000000E+00 -0.26899374834E+03  0.26899374834E+03  0.00000000000E+00 0. -1.
         24    2    1    2    0    0 -0.61892195917E+02  0.56265321901E+01 -0.15373672046E+03  0.18393523611E+03  0.79592022749E+02 0.  0.
        -13    1    3    3    0    0 -0.27373396589E+02  0.22401937077E+02 -0.12402779077E+02  0.37483043559E+02  0.00000000000E+00 0.  1.
         14    1    3    3    0    0 -0.34518799328E+02 -0.16775404886E+02 -0.14133394138E+03  0.14645219255E+03  0.00000000000E+00 0. -1.
          3    1    1    2  501    0  0.61892195917E+02 -0.56265321901E+01 -0.90517225498E+02  0.10979831461E+03  0.00000000000E+00 0. -1.
<mgrwt>
<rscale>  1 0.10098115E+03</rscale>
<asrwt>0</asrwt>
<pdfrwt beam="1">  1       21 0.38061233E-02 0.10098115E+03</pdfrwt>
<pdfrwt beam="2">  1        4 0.41383655E-01 0.10098115E+03</pdfrwt>
<totfact> 0.93036843E+04</totfact>
</mgrwt>
</event>
<event>
 6    2  0.8544106E+000  0.8404425E+02  0.7546771E-02  0.1317951E+00
          2   -1    0    0  502    0 -0.00000000000E+00  0.00000000000E+00  0.39930244216E+03  0.39930244216E+03  0.00000000000E+00 0. -1.
         21   -1    0    0  501  502  0.00000000000E+00 -0.00000000000E+00 -0.99900315291E+01  0.99900315291E+01  0.00000000000E+00 0.  1.
         24    2    1    2    0    0 -0.88515311352E+01  0.29568883015E+02  0.34629417707E+03  0.35634687080E+03  0.78171393827E+02 0.  0.
        -13    1    3    3    0    0  0.28068358004E+02 -0.40210623020E+01  0.69045754225E+02  0.74641260972E+02  0.00000000000E+00 0.  1.
         14    1    3    3    0    0 -0.36919889139E+02  0.33589945317E+02  0.27724842285E+03  0.28170560983E+03  0.00000000000E+00 0. -1.
          1    1    1    2  501    0  0.88515311352E+01 -0.29568883015E+02  0.43018233562E+02  0.52945602887E+02  0.00000000000E+00 0. -1.
<mgrwt>
<rscale>  1 0.84044246E+02</rscale>
<asrwt>0</asrwt>
<pdfrwt beam="1">  1       21 0.15369282E-02 0.84044246E+02</pdfrwt>
<pdfrwt beam="2">  1        2 0.61431133E-01 0.84044246E+02</pdfrwt>
<totfact> 0.17340215E+06</totfact>
</mgrwt>
</event>
<event>
 6    2  0.8544106E+000  0.1052536E+03  0.7546771E-02  0.1269621E+00
          2   -1    0    0  502    0 -0.00000000000E+00  0.00000000000E+00  0.11865344236E+04  0.11865344236E+04  0.00000000000E+00 0. -1.
         21   -1    0    0  501  502  0.00000000000E+00 -0.00000000000E+00 -0.62371358012E+01  0.62371358012E+01  0.00000000000E+00 0.  1.
         24    2    1    2    0    0 -0.29247302712E+02 -0.60041883900E+02  0.71490531976E+03  0.72261188817E+03  0.81350428172E+02 0.  0.
        -13    1    3    3    0    0 -0.30272706791E+02 -0.76094163670E+02  0.66850705760E+03  0.67350459878E+03  0.00000000000E+00 0.  1.
         14    1    3    3    0    0  0.10254040795E+01  0.16052279770E+02  0.46398262158E+02  0.49107289383E+02  0.00000000000E+00 0. -1.
          1    1    1    2  501    0  0.29247302712E+02  0.60041883900E+02  0.46539196804E+03  0.47015967123E+03  0.00000000000E+00 0. -1.
<mgrwt>
<rscale>  1 0.10525362E+03</rscale>
<asrwt>0</asrwt>
<pdfrwt beam="1">  1       21 0.95956030E-03 0.10525362E+03</pdfrwt>
<pdfrwt beam="2">  1        2 0.18254358E+00 0.10525362E+03</pdfrwt>
<totfact> 0.10073150E+06</totfact>
</mgrwt>
</event>
<event>
 6    2  0.8544106E+000  0.8494277E+02  0.7546771E-02  0.1315582E+00
          2   -1    0    0  502    0 -0.00000000000E+00  0.00000000000E+00  0.54916840392E+02  0.54916840392E+02  0.00000000000E+00 0. -1.
         21   -1    0    0  501  502  0.00000000000E+00 -0.00000000000E+00 -0.57857153859E+02  0.57857153859E+02  0.00000000000E+00 0. -1.
         24    2    1    2    0    0  0.25731966128E+02 -0.50547890933E+01 -0.10228281497E+02  0.85556362988E+02  0.80793493127E+02 0.  0.
        -13    1    3    3    0    0  0.37778197479E+01  0.71772925066E+01 -0.43280870943E+02  0.44034296172E+02  0.00000000000E+00 0.  1.
         14    1    3    3    0    0  0.21954146380E+02 -0.12232081600E+02  0.33052589446E+02  0.41522066816E+02  0.00000000000E+00 0. -1.
          1    1    1    2  501    0 -0.25731966128E+02  0.50547890933E+01  0.72879680294E+01  0.27217631263E+02  0.00000000000E+00 0. -1.
<mgrwt>
<rscale>  1 0.84942766E+02</rscale>
<asrwt>0</asrwt>
<pdfrwt beam="1">  1       21 0.89011006E-02 0.84942766E+02</pdfrwt>
<pdfrwt beam="2">  1        2 0.84487447E-02 0.84942766E+02</pdfrwt>
<totfact> 0.88065425E+05</totfact>
</mgrwt>
</event>
<event>
 6    2  0.8544106E+000  0.8397364E+02  0.7546771E-02  0.1318139E+00
          2   -1    0    0  502    0 -0.00000000000E+00  0.00000000000E+00  0.40567076928E+02  0.40567076928E+02  0.00000000000E+00 0. -1.
         21   -1    0    0  501  502  0.00000000000E+00 -0.00000000000E+00 -0.31360990032E+03  0.31360990032E+03  0.00000000000E+00 0.  1.
         24    2    1    2    0    0 -0.49786434394E+01  0.19987342297E+02 -0.30489351758E+03  0.31624615254E+03  0.81408176462E+02 0.  0.
        -11    1    3    3    0    0 -0.14318982959E+02  0.42652040874E+02 -0.26927118461E+03  0.27300403060E+03  0.00000000000E+00 0.  1.
         12    1    3    3    0    0  0.93403395195E+01 -0.22664698577E+02 -0.35622332969E+02  0.43242121943E+02  0.00000000000E+00 0. -1.
          1    1    1    2  501    0  0.49786434394E+01 -0.19987342297E+02  0.31850694187E+02  0.37930824704E+02  0.00000000000E+00 0. -1.
<mgrwt>
<rscale>  1 0.83973638E+02</rscale>
<asrwt>0</asrwt>
<pdfrwt beam="1">  1       21 0.48247677E-01 0.83973638E+02</pdfrwt>
<pdfrwt beam="2">  1        2 0.62410888E-02 0.83973638E+02</pdfrwt>
<totfact> 0.56712512E+04</totfact>
</mgrwt>
</event>
<event>
 6    2  0.8544106E+000  0.8346677E+02  0.7546771E-02  0.1319491E+00
          2   -1    0    0  502    0 -0.00000000000E+00  0.00000000000E+00  0.52278287644E+02  0.52278287644E+02  0.00000000000E+00 0. -1.
         21   -1    0    0  501  502  0.00000000000E+00 -0.00000000000E+00 -0.59612281252E+02  0.59612281252E+02  0.00000000000E+00 0. -1.
         24    2    1    2    0    0  0.16621993510E+02 -0.12582602696E+02  0.10923692331E+02  0.84178556074E+02  0.80821344271E+02 0.  0.
        -11    1    3    3    0    0 -0.24899745138E+02 -0.22465870623E+02 -0.12136985283E+02  0.35665376243E+02  0.00000000000E+00 0.  1.
         12    1    3    3    0    0  0.41521738648E+02  0.98832679275E+01  0.23060677614E+02  0.48513179831E+02  0.00000000000E+00 0. -1.
          1    1    1    2  501    0 -0.16621993510E+02  0.12582602696E+02 -0.18257685939E+02  0.27712012823E+02  0.00000000000E+00 0. -1.
<mgrwt>
<rscale>  1 0.83466773E+02</rscale>
<asrwt>0</asrwt>
<pdfrwt beam="1">  1       21 0.91711202E-02 0.83466773E+02</pdfrwt>
<pdfrwt beam="2">  1        2 0.80428135E-02 0.83466773E+02</pdfrwt>
<totfact> 0.88716328E+05</totfact>
</mgrwt>
</event>
<event>
 6    2  0.8544106E+000  0.9236407E+02  0.7546771E-02  0.1297226E+00
          2   -1    0    0  502    0 -0.00000000000E+00  0.00000000000E+00  0.95213574178E+03  0.95213574178E+03  0.00000000000E+00 0. -1.
         21   -1    0    0  501  502  0.00000000000E+00 -0.00000000000E+00 -0.51378288171E+01  0.51378288171E+01  0.00000000000E+00 0.  1.
         24    2    1    2    0    0  0.66399744616E+01  0.44210853848E+02  0.72137251590E+03  0.72726159556E+03  0.80823467061E+02 0.  0.
        -11    1    3    3    0    0  0.29630633349E+02  0.50050109794E+02  0.32382382730E+03  0.32900586476E+03  0.00000000000E+00 0.  1.
         12    1    3    3    0    0 -0.22990658887E+02 -0.58392559468E+01  0.39754868860E+03  0.39825573080E+03  0.00000000000E+00 0. -1.
          1    1    1    2  501    0 -0.66399744616E+01 -0.44210853848E+02  0.22562539707E+03  0.23001197504E+03  0.00000000000E+00 0. -1.
<mgrwt>
<rscale>  1 0.92364071E+02</rscale>
<asrwt>0</asrwt>
<pdfrwt beam="1">  1       21 0.79043596E-03 0.92364071E+02</pdfrwt>
<pdfrwt beam="2">  1        2 0.14648228E+00 0.92364071E+02</pdfrwt>
<totfact> 0.18369817E+06</totfact>
</mgrwt>
</event>
<event>
 6    2  0.8544106E+000  0.8928223E+02  0.7546771E-02  0.1304599E+00
         -1   -1    0    0    0  501 -0.00000000000E+00  0.00000000000E+00  0.36521787802E+03  0.36521787802E+03  0.00000000000E+00 0.  1.
         21   -1    0    0  501  502  0.00000000000E+00 -0.00000000000E+00 -0.11254538220E+02  0.11254538220E+02  0.00000000000E+00 0. -1.
         24    2    1    2    0    0 -0.25730098896E+02 -0.29005896079E+02  0.25547146774E+03  0.27062333095E+03  0.80423481798E+02 0.  0.
        -11    1    3    3    0    0  0.92667692348E+01 -0.53170946502E+01  0.20285793661E+03  0.20313908278E+03  0.00000000000E+00 0.  1.
         12    1    3    3    0    0 -0.34996868131E+02 -0.23688801428E+02  0.52613531138E+02  0.67484248169E+02  0.00000000000E+00 0. -1.
         -2    1    1    2    0  502  0.25730098896E+02  0.29005896079E+02  0.98491872054E+02  0.10584908529E+03  0.00000000000E+00 0.  1.
<mgrwt>
<rscale>  1 0.89282229E+02</rscale>
<asrwt>0</asrwt>
<pdfrwt beam="1">  1       21 0.17314677E-02 0.89282229E+02</pdfrwt>
<pdfrwt beam="2">  1       -1 0.56187357E-01 0.89282229E+02</pdfrwt>
<totfact> 0.44550665E+05</totfact>
</mgrwt>
</event>
<event>
 6    2  0.8544106E+000  0.8281776E+02  0.7546771E-02  0.1321240E+00
         21   -1    0    0  501  502  0.00000000000E+00  0.00000000000E+00  0.12908704029E+03  0.12908704029E+03  0.00000000000E+00 0. -1.
         -3   -1    0    0    0  501 -0.00000000000E+00 -0.00000000000E+00 -0.21625472027E+02  0.21625472027E+02  0.00000000000E+00 0.  1.
         24    2    1    2    0    0 -0.19226103057E+02  0.59457740943E+01  0.71090246850E+02  0.10914487719E+03  0.80335457628E+02 0.  0.
        -13    1    3    3    0    0 -0.19150194405E+02  0.29994375859E+02  0.16126561204E+01  0.35622930658E+02  0.00000000000E+00 0.  1.
         14    1    3    3    0    0 -0.75908651876E-01 -0.24048601764E+02  0.69477590729E+02  0.73521946536E+02  0.00000000000E+00 0. -1.
         -4    1    1    2    0  502  0.19226103057E+02 -0.59457740943E+01  0.36371321415E+02  0.41567635124E+02  0.00000000000E+00 0.  1.
<mgrwt>
<rscale>  1 0.82817758E+02</rscale>
<asrwt>0</asrwt>
<pdfrwt beam="1">  1       21 0.19859544E-01 0.82817758E+02</pdfrwt>
<pdfrwt beam="2">  1       -3 0.33269958E-02 0.82817758E+02</pdfrwt>
<totfact> 0.44144048E+05</totfact>
</mgrwt>
</event>
<event>
 6    2  0.8544106E+000  0.8535630E+02  0.7546771E-02  0.1314503E+00
          2   -1    0    0  502    0 -0.00000000000E+00  0.00000000000E+00  0.31480768502E+04  0.31480768502E+04  0.00000000000E+00 0. -1.
         21   -1    0    0  501  502  0.00000000000E+00 -0.00000000000E+00 -0.10778437493E+01  0.10778437493E+01  0.00000000000E+00 0.  1.
         24    2    1    2    0    0 -0.12432375112E+02 -0.28301691158E+02  0.23953626039E+04  0.23968829137E+04  0.79562229104E+02 0.  0.
        -13    1    3    3    0    0 -0.70071189701E+01  0.44361147258E+01  0.26057278933E+02  0.27345211931E+02  0.00000000000E+00 0.  1.
         14    1    3    3    0    0 -0.54252561424E+01 -0.32737805884E+02  0.23693053249E+04  0.23695377018E+04  0.00000000000E+00 0. -1.
          1    1    1    2  501    0  0.12432375112E+02  0.28301691158E+02  0.75163640255E+03  0.75227178022E+03  0.00000000000E+00 0. -1.
<mgrwt>
<rscale>  1 0.85356300E+02</rscale>
<asrwt>0</asrwt>
<pdfrwt beam="1">  1       21 0.16582464E-03 0.85356300E+02</pdfrwt>
<pdfrwt beam="2">  1        2 0.48431215E+00 0.85356300E+02</pdfrwt>
<totfact> 0.13487058E+06</totfact>
</mgrwt>
</event>
<event>
 6    2  0.8544106E+000  0.9724666E+02  0.7546771E-02  0.1286195E+00
         21   -1    0    0  501  502  0.00000000000E+00  0.00000000000E+00  0.16190020786E+02  0.16190020786E+02  0.00000000000E+00 0.  1.
          2   -1    0    0  502    0 -0.00000000000E+00 -0.00000000000E+00 -0.37609112086E+03  0.37609112086E+03  0.00000000000E+00 0. -1.
         24    2    1    2    0    0 -0.53686940175E+02  0.17160854803E+02 -0.25978367139E+03  0.27738866143E+03  0.79247278114E+02 0.  0.
        -11    1    3    3    0    0 -0.64591373803E+02  0.21299389154E+02 -0.12674929674E+03  0.14384399109E+03  0.00000000000E+00 0.  1.
         12    1    3    3    0    0  0.10904433629E+02 -0.41385343512E+01 -0.13303437465E+03  0.13354467034E+03  0.00000000000E+00 0. -1.
          1    1    1    2  501    0  0.53686940175E+02 -0.17160854803E+02 -0.10011742869E+03  0.11489248021E+03  0.00000000000E+00 0. -1.
<mgrwt>
<rscale>  1 0.97246664E+02</rscale>
<asrwt>0</asrwt>
<pdfrwt beam="1">  1       21 0.24907723E-02 0.97246664E+02</pdfrwt>
<pdfrwt beam="2">  1        2 0.57860175E-01 0.97246664E+02</pdfrwt>
<totfact> 0.86652398E+05</totfact>
</mgrwt>
</event>
<event>
 6    2  0.8544106E+000  0.8205444E+02  0.7546771E-02  0.1323320E+00
          2   -1    0    0  502    0 -0.00000000000E+00  0.00000000000E+00  0.61501231432E+03  0.61501231432E+03  0.00000000000E+00 0. -1.
         21   -1    0    0  501  502  0.00000000000E+00 -0.00000000000E+00 -0.42581208397E+01  0.42581208397E+01  0.00000000000E+00 0.  1.
         24    2    1    2    0    0 -0.19464050079E+02 -0.55777974266E+01  0.48227405696E+03  0.48920465737E+03  0.79517103282E+02 0.  0.
        -11    1    3    3    0    0 -0.39263609860E+02 -0.23409774711E+02  0.17836181169E+03  0.18412654475E+03  0.00000000000E+00 0.  1.
         12    1    3    3    0    0  0.19799559781E+02  0.17831977285E+02  0.30391224527E+03  0.30507811263E+03  0.00000000000E+00 0. -1.
          1    1    1    2  501    0  0.19464050079E+02  0.55777974266E+01  0.12848013653E+03  0.13006577779E+03  0.00000000000E+00 0. -1.
<mgrwt>
<rscale>  1 0.82054438E+02</rscale>
<asrwt>0</asrwt>
<pdfrwt beam="1">  1       21 0.65509600E-03 0.82054438E+02</pdfrwt>
<pdfrwt beam="2">  1        2 0.94617209E-01 0.82054438E+02</pdfrwt>
<totfact> 0.41052988E+06</totfact>
</mgrwt>
</event>
<event>
 6    2  0.8544106E+000  0.9337192E+02  0.7546771E-02  0.1294886E+00
          2   -1    0    0  502    0 -0.00000000000E+00  0.00000000000E+00  0.66293948681E+03  0.66293948681E+03  0.00000000000E+00 0. -1.
         21   -1    0    0  501  502  0.00000000000E+00 -0.00000000000E+00 -0.84238016524E+01  0.84238016524E+01  0.00000000000E+00 0. -1.
         24    2    1    2    0    0  0.59408177839E+01  0.41884017456E+02  0.29643859241E+03  0.31079600128E+03  0.83239120061E+02 0.  0.
        -13    1    3    3    0    0  0.42113857590E+02  0.84462086557E+01  0.11397613954E+03  0.12180096808E+03  0.00000000000E+00 0.  1.
         14    1    3    3    0    0 -0.36173039806E+02  0.33437808800E+02  0.18246245287E+03  0.18899503320E+03  0.00000000000E+00 0. -1.
          1    1    1    2  501    0 -0.59408177839E+01 -0.41884017456E+02  0.35807709275E+03  0.36056728718E+03  0.00000000000E+00 0. -1.
<mgrwt>
<rscale>  1 0.93371919E+02</rscale>
<asrwt>0</asrwt>
<pdfrwt beam="1">  1       21 0.12959700E-02 0.93371919E+02</pdfrwt>
<pdfrwt beam="2">  1        2 0.10199065E+00 0.93371919E+02</pdfrwt>
<totfact> 0.13214990E+06</totfact>
</mgrwt>
</event>
<event>
 6    2  0.8544106E+000  0.8469046E+02  0.7546771E-02  0.1316244E+00
         21   -1    0    0  501  502  0.00000000000E+00  0.00000000000E+00  0.29687596239E+01  0.29687596239E+01  0.00000000000E+00 0. -1.
         -1   -1    0    0    0  501 -0.00000000000E+00 -0.00000000000E+00 -0.10370096642E+04  0.10370096642E+04  0.00000000000E+00 0.  1.
         24    2    1    2    0    0 -0.22451673269E+02  0.11177979370E+02 -0.72741725087E+03  0.73233075218E+03  0.80891587145E+02 0.  0.
        -11    1    3    3    0    0 -0.32837832801E+02 -0.11063044393E+02 -0.65402689970E+03  0.65494419590E+03  0.00000000000E+00 0.  1.
         12    1    3    3    0    0  0.10386159533E+02  0.22241023763E+02 -0.73390351171E+02  0.77386556279E+02  0.00000000000E+00 0. -1.
         -2    1    1    2    0  502  0.22451673269E+02 -0.11177979370E+02 -0.30662365369E+03  0.30764767163E+03  0.00000000000E+00 0.  1.
<mgrwt>
<rscale>  1 0.84690458E+02</rscale>
<asrwt>0</asrwt>
<pdfrwt beam="1">  1       21 0.45673242E-03 0.84690458E+02</pdfrwt>
<pdfrwt beam="2">  1       -1 0.15953989E+00 0.84690458E+02</pdfrwt>
<totfact> 0.36685897E+05</totfact>
</mgrwt>
</event>
<event>
 6    2  0.8544106E+000  0.1265382E+03  0.7546771E-02  0.1232685E+00
          2   -1    0    0  502    0 -0.00000000000E+00  0.00000000000E+00  0.39697987034E+03  0.39697987034E+03  0.00000000000E+00 0. -1.
         21   -1    0    0  501  502  0.00000000000E+00 -0.00000000000E+00 -0.32570595897E+02  0.32570595897E+02  0.00000000000E+00 0. -1.
         24    2    1    2    0    0 -0.63512706099E+02 -0.75223282615E+02  0.23554741831E+03  0.26738455105E+03  0.79495319251E+02 0.  0.
        -13    1    3    3    0    0  0.62151179707E+01 -0.68264194858E+01 -0.29254540063E+01  0.96843159557E+01  0.00000000000E+00 0.  1.
         14    1    3    3    0    0 -0.69727824070E+02 -0.68396863130E+02  0.23847287232E+03  0.25770023509E+03  0.00000000000E+00 0. -1.
          1    1    1    2  501    0  0.63512706099E+02  0.75223282615E+02  0.12886185613E+03  0.16216591519E+03  0.00000000000E+00 0. -1.
<mgrwt>
<rscale>  1 0.12653818E+03</rscale>
<asrwt>0</asrwt>
<pdfrwt beam="1">  1       21 0.50108612E-02 0.12653818E+03</pdfrwt>
<pdfrwt beam="2">  1        2 0.61073823E-01 0.12653818E+03</pdfrwt>
<totfact> 0.26393403E+05</totfact>
</mgrwt>
</event>
<event>
 6    2  0.8544106E+000  0.9020183E+02  0.7546771E-02  0.1302364E+00
         21   -1    0    0  501  502  0.00000000000E+00  0.00000000000E+00  0.14718962636E+03  0.14718962636E+03  0.00000000000E+00 0. -1.
          4   -1    0    0  502    0 -0.00000000000E+00 -0.00000000000E+00 -0.81766222303E+02  0.81766222303E+02  0.00000000000E+00 0. -1.
         24    2    1    2    0    0  0.44313259981E+01  0.42921173390E+02 -0.51817936782E+02  0.10402628540E+03  0.79211777575E+02 0.  0.
        -13    1    3    3    0    0  0.18212641206E+02  0.81869695032E+00  0.15168492004E+02  0.23716106639E+02  0.00000000000E+00 0.  1.
         14    1    3    3    0    0 -0.13781315208E+02  0.42102476440E+02 -0.66986428786E+02  0.80310178762E+02  0.00000000000E+00 0. -1.
          3    1    1    2  501    0 -0.44313259981E+01 -0.42921173390E+02  0.11724134084E+03  0.12492956326E+03  0.00000000000E+00 0. -1.
<mgrwt>
<rscale>  1 0.90201826E+02</rscale>
<asrwt>0</asrwt>
<pdfrwt beam="1">  1       21 0.22644558E-01 0.90201826E+02</pdfrwt>
<pdfrwt beam="2">  1        4 0.12579419E-01 0.90201826E+02</pdfrwt>
<totfact> 0.36227296E+04</totfact>
</mgrwt>
</event>
<event>
 6    2  0.8544106E+000  0.8471470E+02  0.7546771E-02  0.1316180E+00
         21   -1    0    0  501  502  0.00000000000E+00  0.00000000000E+00  0.40708862044E+01  0.40708862044E+01  0.00000000000E+00 0.  1.
          2   -1    0    0  502    0 -0.00000000000E+00 -0.00000000000E+00 -0.83645782677E+03  0.83645782677E+03  0.00000000000E+00 0. -1.
         24    2    1    2    0    0 -0.20924254808E+02  0.24126947169E+02 -0.59273051614E+03  0.59875374366E+03  0.78464302477E+02 0.  0.
        -11    1    3    3    0    0 -0.22267798788E+01 -0.20831343083E+02 -0.55520791823E+02  0.59341905328E+02  0.00000000000E+00 0.  1.
         12    1    3    3    0    0 -0.18697474929E+02  0.44958290253E+02 -0.53720972432E+03  0.53941183833E+03  0.00000000000E+00 0. -1.
          1    1    1    2  501    0  0.20924254808E+02 -0.24126947169E+02 -0.23965642442E+03  0.24177496931E+03  0.00000000000E+00 0. -1.
<mgrwt>
<rscale>  1 0.84714702E+02</rscale>
<asrwt>0</asrwt>
<pdfrwt beam="1">  1       21 0.62629049E-03 0.84714702E+02</pdfrwt>
<pdfrwt beam="2">  1        2 0.12868576E+00 0.84714702E+02</pdfrwt>
<totfact> 0.30783859E+06</totfact>
</mgrwt>
</event>
<event>
 6    2  0.8544106E+000  0.9025967E+02  0.7546771E-02  0.1302224E+00
         21   -1    0    0  501  502  0.00000000000E+00  0.00000000000E+00  0.11779772889E+03  0.11779772889E+03  0.00000000000E+00 0. -1.
          2   -1    0    0  502    0 -0.00000000000E+00 -0.00000000000E+00 -0.50422404404E+02  0.50422404404E+02  0.00000000000E+00 0. -1.
         24    2    1    2    0    0 -0.30486920487E+02 -0.26500339616E+02  0.85151708180E+02  0.12408715087E+03  0.80716090610E+02 0.  0.
        -13    1    3    3    0    0 -0.24842470466E+02  0.24595939638E+02  0.52876874410E+02  0.63388267312E+02  0.00000000000E+00 0.  1.
         14    1    3    3    0    0 -0.56444500207E+01 -0.51096279254E+02  0.32274833770E+02  0.60698883553E+02  0.00000000000E+00 0. -1.
          1    1    1    2  501    0  0.30486920487E+02  0.26500339616E+02 -0.17776383696E+02  0.44132982426E+02  0.00000000000E+00 0. -1.
<mgrwt>
<rscale>  1 0.90259668E+02</rscale>
<asrwt>0</asrwt>
<pdfrwt beam="1">  1       21 0.18122727E-01 0.90259668E+02</pdfrwt>
<pdfrwt beam="2">  1        2 0.77572930E-02 0.90259668E+02</pdfrwt>
<totfact> 0.28127710E+05</totfact>
</mgrwt>
</event>
<event>
 6    2  0.8544106E+000  0.8420878E+02  0.7546771E-02  0.1317515E+00
         21   -1    0    0  501  502  0.00000000000E+00  0.00000000000E+00  0.24680794216E+02  0.24680794216E+02  0.00000000000E+00 0.  1.
          4   -1    0    0  502    0 -0.00000000000E+00 -0.00000000000E+00 -0.17715665060E+03  0.17715665060E+03  0.00000000000E+00 0. -1.
         24    2    1    2    0    0  0.35472495088E+01 -0.44190120727E+02 -0.12120313432E+03  0.14758495276E+03  0.71594474387E+02 0.  0.
        -11    1    3    3    0    0 -0.49890306646E+00 -0.63825282196E+02 -0.86375630686E+02  0.10739955832E+03  0.00000000000E+00 0.  1.
         12    1    3    3    0    0  0.40461525753E+01  0.19635161468E+02 -0.34827503636E+02  0.40185394437E+02  0.00000000000E+00 0. -1.
          3    1    1    2  501    0 -0.35472495088E+01  0.44190120727E+02 -0.31272722062E+02  0.54252492055E+02  0.00000000000E+00 0. -1.
<mgrwt>
<rscale>  1 0.84208779E+02</rscale>
<asrwt>0</asrwt>
<pdfrwt beam="1">  1       21 0.37970452E-02 0.84208779E+02</pdfrwt>
<pdfrwt beam="2">  1        4 0.27254870E-01 0.84208779E+02</pdfrwt>
<totfact> 0.20032095E+05</totfact>
</mgrwt>
</event>
<event>
 6    2  0.8544106E+000  0.1014183E+03  0.7546771E-02  0.1277341E+00
          2   -1    0    0  502    0 -0.00000000000E+00  0.00000000000E+00  0.16662640793E+03  0.16662640793E+03  0.00000000000E+00 0. -1.
         21   -1    0    0  501  502  0.00000000000E+00 -0.00000000000E+00 -0.67022648051E+02  0.67022648051E+02  0.00000000000E+00 0. -1.
         24    2    1    2    0    0 -0.62128247869E+02 -0.56925268575E+01  0.12948399606E+03  0.16447425884E+03  0.79958442575E+02 0.  0.
        -13    1    3    3    0    0  0.62105900446E+01 -0.23266120950E+02  0.10785021925E+02  0.26385611812E+02  0.00000000000E+00 0.  1.
         14    1    3    3    0    0 -0.68338837914E+02  0.17573594092E+02  0.11869897414E+03  0.13808864703E+03  0.00000000000E+00 0. -1.
          1    1    1    2  501    0  0.62128247869E+02  0.56925268575E+01 -0.29880236183E+02  0.69174797142E+02  0.00000000000E+00 0. -1.
<mgrwt>
<rscale>  1 0.10141832E+03</rscale>
<asrwt>0</asrwt>
<pdfrwt beam="1">  1       21 0.10311177E-01 0.10141832E+03</pdfrwt>
<pdfrwt beam="2">  1        2 0.25634832E-01 0.10141832E+03</pdfrwt>
<totfact> 0.19135762E+05</totfact>
</mgrwt>
</event>
<event>
 6    2  0.8544106E+000  0.8163696E+02  0.7546771E-02  0.1324469E+00
          2   -1    0    0  502    0 -0.00000000000E+00  0.00000000000E+00  0.11123688393E+04  0.11123688393E+04  0.00000000000E+00 0. -1.
         21   -1    0    0  501  502  0.00000000000E+00 -0.00000000000E+00 -0.26314055252E+01  0.26314055252E+01  0.00000000000E+00 0.  1.
         24    2    1    2    0    0 -0.14879419735E+02 -0.13720682482E+02  0.10059861480E+04  0.10092931799E+04  0.79088171796E+02 0.  0.
        -11    1    3    3    0    0 -0.36968433183E+02  0.19006323917E+02  0.57602494992E+03  0.57752285524E+03  0.00000000000E+00 0.  1.
         12    1    3    3    0    0  0.22089013448E+02 -0.32727006399E+02  0.42996119804E+03  0.43177032469E+03  0.00000000000E+00 0. -1.
          1    1    1    2  501    0  0.14879419735E+02  0.13720682482E+02  0.10375128584E+03  0.10570706491E+03  0.00000000000E+00 0. -1.
<mgrwt>
<rscale>  1 0.81636960E+02</rscale>
<asrwt>0</asrwt>
<pdfrwt beam="1">  1       21 0.40483251E-03 0.81636960E+02</pdfrwt>
<pdfrwt beam="2">  1        2 0.17113329E+00 0.81636960E+02</pdfrwt>
<totfact> 0.40973741E+06</totfact>
</mgrwt>
</event>
<event>
 6    2  0.8544106E+000  0.8593460E+02  0.7546771E-02  0.1313006E+00
          2   -1    0    0  502    0 -0.00000000000E+00  0.00000000000E+00  0.20659489961E+03  0.20659489961E+03  0.00000000000E+00 0. -1.
         21   -1    0    0  501  502  0.00000000000E+00 -0.00000000000E+00 -0.14766542874E+02  0.14766542874E+02  0.00000000000E+00 0.  1.
         24    2    1    2    0    0 -0.21922294319E+02 -0.10934875073E+02  0.15150362590E+03  0.17417836927E+03  0.82368666245E+02 0.  0.
        -11    1    3    3    0    0 -0.58105136560E+01  0.16045518207E+02 -0.22799746108E+01  0.17216823392E+02  0.00000000000E+00 0.  1.
         12    1    3    3    0    0 -0.16111780663E+02 -0.26980393281E+02  0.15378360051E+03  0.15696154587E+03  0.00000000000E+00 0. -1.
          1    1    1    2  501    0  0.21922294319E+02  0.10934875073E+02  0.40324730837E+02  0.47183073216E+02  0.00000000000E+00 0. -1.
<mgrwt>
<rscale>  1 0.85934601E+02</rscale>
<asrwt>0</asrwt>
<pdfrwt beam="1">  1       21 0.22717760E-02 0.85934601E+02</pdfrwt>
<pdfrwt beam="2">  1        2 0.31783829E-01 0.85934601E+02</pdfrwt>
<totfact> 0.18602717E+06</totfact>
</mgrwt>
</event>
<event>
 6    2  0.8544106E+000  0.8015433E+02  0.7546771E-02  0.1328614E+00
         21   -1    0    0  501  502  0.00000000000E+00  0.00000000000E+00  0.55457407704E+02  0.55457407704E+02  0.00000000000E+00 0. -1.
         -3   -1    0    0    0  501 -0.00000000000E+00 -0.00000000000E+00 -0.69647042189E+02  0.69647042189E+02  0.00000000000E+00 0.  1.
         24    2    1    2    0    0  0.20289307739E+02  0.16115328467E+02 -0.39081508878E+02  0.89174445289E+02  0.75850890148E+02 0.  0.
        -13    1    3    3    0    0 -0.55376749269E+01  0.65873201204E+01 -0.56135630495E+02  0.56791439857E+02  0.00000000000E+00 0.  1.
         14    1    3    3    0    0  0.25826982666E+02  0.95280083470E+01  0.17054121617E+02  0.32383005432E+02  0.00000000000E+00 0. -1.
         -4    1    1    2    0  502 -0.20289307739E+02 -0.16115328467E+02  0.24891874392E+02  0.35930004605E+02  0.00000000000E+00 0.  1.
<mgrwt>
<rscale>  1 0.80154335E+02</rscale>
<asrwt>0</asrwt>
<pdfrwt beam="1">  1       21 0.85319089E-02 0.80154335E+02</pdfrwt>
<pdfrwt beam="2">  1       -3 0.10714930E-01 0.80154335E+02</pdfrwt>
<totfact> 0.30616969E+05</totfact>
</mgrwt>
</event>
<event>
 6    2  0.8544106E+000  0.9362930E+02  0.7546771E-02  0.1294293E+00
          2   -1    0    0  502    0 -0.00000000000E+00  0.00000000000E+00  0.25039819516E+03  0.25039819516E+03  0.00000000000E+00 0. -1.
         21   -1    0    0  501  502  0.00000000000E+00 -0.00000000000E+00 -0.72477154201E+02  0.72477154201E+02  0.00000000000E+00 0.  1.
         24    2    1    2    0    0 -0.31666913009E+02 -0.38690412837E+02  0.23142447543E+03  0.24964722004E+03  0.79162524072E+02 0.  0.
        -11    1    3    3    0    0 -0.18355428550E+02  0.79311422341E+01  0.88735723101E+01  0.21876129912E+02  0.00000000000E+00 0.  1.
         12    1    3    3    0    0 -0.13311484459E+02 -0.46621555071E+02  0.22255090312E+03  0.22777109012E+03  0.00000000000E+00 0. -1.
          1    1    1    2  501    0  0.31666913009E+02  0.38690412837E+02 -0.53503434469E+02  0.73228129329E+02  0.00000000000E+00 0. -1.
<mgrwt>
<rscale>  1 0.93629304E+02</rscale>
<asrwt>0</asrwt>
<pdfrwt beam="1">  1       21 0.11150332E-01 0.93629304E+02</pdfrwt>
<pdfrwt beam="2">  1        2 0.38522799E-01 0.93629304E+02</pdfrwt>
<totfact> 0.10758006E+05</totfact>
</mgrwt>
</event>
<event>
 6    2  0.8544106E+000  0.1499592E+03  0.7546771E-02  0.1200523E+00
         21   -1    0    0  501  502  0.00000000000E+00  0.00000000000E+00  0.28315821775E+02  0.28315821775E+02  0.00000000000E+00 0. -1.
          2   -1    0    0  502    0 -0.00000000000E+00 -0.00000000000E+00 -0.13239338134E+04  0.13239338134E+04  0.00000000000E+00 0. -1.
         24    2    1    2    0    0  0.98789596761E+02  0.78026004330E+02 -0.20288716761E+03  0.25229141073E+03  0.81488105668E+02 0.  0.
        -13    1    3    3    0    0 -0.72219709061E+01  0.60680926170E+01  0.29073676671E+01  0.98707344473E+01  0.00000000000E+00 0.  1.
         14    1    3    3    0    0  0.10601156767E+03  0.71957911713E+02 -0.20579453528E+03  0.24242067628E+03  0.00000000000E+00 0. -1.
          1    1    1    2  501    0 -0.98789596761E+02 -0.78026004330E+02 -0.10927308240E+04  0.10999582244E+04  0.00000000000E+00 0. -1.
<mgrwt>
<rscale>  1 0.14995917E+03</rscale>
<asrwt>0</asrwt>
<pdfrwt beam="1">  1       21 0.43562787E-02 0.14995917E+03</pdfrwt>
<pdfrwt beam="2">  1        2 0.20368220E+00 0.14995917E+03</pdfrwt>
<totfact> 0.74328610E+04</totfact>
</mgrwt>
</event>
<event>
 6    2  0.8544106E+000  0.8665755E+02  0.7546771E-02  0.1311154E+00
          2   -1    0    0  502    0 -0.00000000000E+00  0.00000000000E+00  0.15138716778E+04  0.15138716778E+04  0.00000000000E+00 0. -1.
         21   -1    0    0  501  502  0.00000000000E+00 -0.00000000000E+00 -0.25969252770E+01  0.25969252770E+01  0.00000000000E+00 0.  1.
         24    2    1    2    0    0  0.32577745899E+02 -0.58114403516E+01  0.12673701756E+04  0.12703293640E+04  0.80090253385E+02 0.  0.
        -11    1    3    3    0    0  0.52745289510E+02 -0.20242478842E+02  0.64640687868E+03  0.64887107835E+03  0.00000000000E+00 0.  1.
         12    1    3    3    0    0 -0.20167543611E+02  0.14431038490E+02  0.62096329692E+03  0.62145828566E+03  0.00000000000E+00 0. -1.
          1    1    1    2  501    0 -0.32577745899E+02  0.58114403516E+01  0.24390457693E+03  0.24613923908E+03  0.00000000000E+00 0. -1.
<mgrwt>
<rscale>  1 0.86657550E+02</rscale>
<asrwt>0</asrwt>
<pdfrwt beam="1">  1       21 0.39952817E-03 0.86657550E+02</pdfrwt>
<pdfrwt beam="2">  1        2 0.23290263E+00 0.86657550E+02</pdfrwt>
<totfact> 0.25818058E+06</totfact>
</mgrwt>
</event>
<event>
 6    2  0.8544106E+000  0.9018962E+02  0.7546771E-02  0.1302393E+00
         -1   -1    0    0    0  501 -0.00000000000E+00  0.00000000000E+00  0.43331551832E+02  0.43331551832E+02  0.00000000000E+00 0.  1.
         21   -1    0    0  501  502  0.00000000000E+00 -0.00000000000E+00 -0.10897799547E+03  0.10897799547E+03  0.00000000000E+00 0. -1.
         24    2    1    2    0    0 -0.27704979231E+02  0.30660703231E+02 -0.64661384495E+02  0.11097415159E+03  0.80165597856E+02 0.  0.
        -13    1    3    3    0    0 -0.15737504746E+02  0.17222771250E+02  0.16026293014E+02  0.28304327813E+02  0.00000000000E+00 0.  1.
         14    1    3    3    0    0 -0.11967474485E+02  0.13437931981E+02 -0.80687677509E+02  0.82669823777E+02  0.00000000000E+00 0. -1.
         -2    1    1    2    0  502  0.27704979231E+02 -0.30660703231E+02 -0.98505914052E+00  0.41335395708E+02  0.00000000000E+00 0.  1.
<mgrwt>
<rscale>  1 0.90189621E+02</rscale>
<asrwt>0</asrwt>
<pdfrwt beam="1">  1       21 0.16765845E-01 0.90189621E+02</pdfrwt>
<pdfrwt beam="2">  1       -1 0.66663927E-02 0.90189621E+02</pdfrwt>
<totfact> 0.30449068E+05</totfact>
</mgrwt>
</event>
<event>
 6    2  0.8544106E+000  0.8278980E+02  0.7546771E-02  0.1321316E+00
          2   -1    0    0  502    0 -0.00000000000E+00  0.00000000000E+00  0.47512252893E+03  0.47512252893E+03  0.00000000000E+00 0. -1.
         21   -1    0    0  501  502  0.00000000000E+00 -0.00000000000E+00 -0.88384374538E+01  0.88384374538E+01  0.00000000000E+00 0. -1.
         24    2    1    2    0    0 -0.17552641420E+02 -0.10055436449E+02  0.45118633426E+03  0.45871914996E+03  0.80280404221E+02 0.  0.
        -13    1    3    3    0    0 -0.14430918968E+02 -0.27036261245E+01  0.10716801384E+02  0.18177206837E+02  0.00000000000E+00 0.  1.
         14    1    3    3    0    0 -0.31217224520E+01 -0.73518103245E+01  0.44046953287E+03  0.44054194313E+03  0.00000000000E+00 0. -1.
          1    1    1    2  501    0  0.17552641420E+02  0.10055436449E+02  0.15097757218E+02  0.25241816417E+02  0.00000000000E+00 0. -1.
<mgrwt>
<rscale>  1 0.82789796E+02</rscale>
<asrwt>0</asrwt>
<pdfrwt beam="1">  1       21 0.13597600E-02 0.82789796E+02</pdfrwt>
<pdfrwt beam="2">  1        2 0.73095754E-01 0.82789796E+02</pdfrwt>
<totfact> 0.17473417E+06</totfact>
</mgrwt>
</event>
<event>
 6    2  0.8544106E+000  0.9583822E+02  0.7546771E-02  0.1289299E+00
          2   -1    0    0  502    0 -0.00000000000E+00  0.00000000000E+00  0.74417421064E+02  0.74417421064E+02  0.00000000000E+00 0. -1.
         21   -1    0    0  501  502  0.00000000000E+00 -0.00000000000E+00 -0.15596812306E+03  0.15596812306E+03  0.00000000000E+00 0. -1.
         24    2    1    2    0    0  0.46988042105E+02 -0.13095784034E+01  0.37095498048E+02  0.10276692526E+03  0.83518703624E+02 0.  0.
        -11    1    3    3    0    0 -0.18122536700E+02 -0.46132228795E+01 -0.11050663306E+02  0.21721540490E+02  0.00000000000E+00 0.  1.
         12    1    3    3    0    0  0.65110578804E+02  0.33036444761E+01  0.48146161354E+02  0.81045384768E+02  0.00000000000E+00 0. -1.
          1    1    1    2  501    0 -0.46988042105E+02  0.13095784034E+01 -0.11864620004E+03  0.12761861886E+03  0.00000000000E+00 0. -1.
<mgrwt>
<rscale>  1 0.95838223E+02</rscale>
<asrwt>0</asrwt>
<pdfrwt beam="1">  1       21 0.23995096E-01 0.95838223E+02</pdfrwt>
<pdfrwt beam="2">  1        2 0.11448834E-01 0.95838223E+02</pdfrwt>
<totfact> 0.10476354E+05</totfact>
</mgrwt>
</event>
<event>
 6    2  0.8544106E+000  0.8473774E+02  0.7546771E-02  0.1316120E+00
         21   -1    0    0  501  502  0.00000000000E+00  0.00000000000E+00  0.46045767423E+03  0.46045767423E+03  0.00000000000E+00 0. -1.
         -3   -1    0    0    0  501 -0.00000000000E+00 -0.00000000000E+00 -0.83047046736E+01  0.83047046736E+01  0.00000000000E+00 0.  1.
         24    2    1    2    0    0  0.69490083950E+01 -0.25992938251E+02  0.23236627794E+03  0.24733493849E+03  0.80352741815E+02 0.  0.
        -13    1    3    3    0    0 -0.33635065073E+02 -0.23147899374E+02  0.82592386494E+02  0.92133843698E+02  0.00000000000E+00 0.  1.
         14    1    3    3    0    0  0.40584073468E+02 -0.28450388773E+01  0.14977389144E+03  0.15520109479E+03  0.00000000000E+00 0. -1.
         -4    1    1    2    0  502 -0.69490083950E+01  0.25992938251E+02  0.21978669162E+03  0.22142744042E+03  0.00000000000E+00 0.  1.
<mgrwt>
<rscale>  1 0.84737741E+02</rscale>
<asrwt>0</asrwt>
<pdfrwt beam="1">  1       21 0.70839622E-01 0.84737741E+02</pdfrwt>
<pdfrwt beam="2">  1       -3 0.12776472E-02 0.84737741E+02</pdfrwt>
<totfact> 0.15354993E+05</totfact>
</mgrwt>
</event>
<event>
 6    2  0.8544106E+000  0.8380345E+02  0.7546771E-02  0.1318592E+00
          2   -1    0    0  502    0 -0.00000000000E+00  0.00000000000E+00  0.20318794821E+04  0.20318794821E+04  0.00000000000E+00 0. -1.
         21   -1    0    0  501  502  0.00000000000E+00 -0.00000000000E+00 -0.18111946520E+01  0.18111946520E+01  0.00000000000E+00 0.  1.
         24    2    1    2    0    0 -0.16926906239E+02  0.20263858287E+02  0.18259050095E+04  0.18278271585E+04  0.79535358931E+02 0.  0.
        -13    1    3    3    0    0  0.13770997996E+02  0.10158903655E+02  0.89494042191E+02  0.91115461349E+02  0.00000000000E+00 0.  1.
         14    1    3    3    0    0 -0.30697904235E+02  0.10104954631E+02  0.17364109674E+04  0.17367116971E+04  0.00000000000E+00 0. -1.
          1    1    1    2  501    0  0.16926906239E+02 -0.20263858287E+02  0.20416327786E+03  0.20586351822E+03  0.00000000000E+00 0. -1.
<mgrwt>
<rscale>  1 0.83803445E+02</rscale>
<asrwt>0</asrwt>
<pdfrwt beam="1">  1       21 0.27864696E-03 0.83803445E+02</pdfrwt>
<pdfrwt beam="2">  1        2 0.31259502E+00 0.83803445E+02</pdfrwt>
<totfact> 0.24430830E+06</totfact>
</mgrwt>
</event>
<event>
 6    2  0.8544106E+000  0.8619957E+02  0.7546771E-02  0.1312325E+00
         21   -1    0    0  501  502  0.00000000000E+00  0.00000000000E+00  0.48277433864E+02  0.48277433864E+02  0.00000000000E+00 0. -1.
         -3   -1    0    0    0  501 -0.00000000000E+00 -0.00000000000E+00 -0.96724894523E+02  0.96724894523E+02  0.00000000000E+00 0.  1.
         24    2    1    2    0    0  0.32652778179E+02  0.53193920840E+00 -0.65405593477E+02  0.10820470413E+03  0.79773927169E+02 0.  0.
        -13    1    3    3    0    0  0.30384075799E+02 -0.35114609216E+02 -0.52830776243E+02  0.70337179080E+02  0.00000000000E+00 0.  1.
         14    1    3    3    0    0  0.22687023799E+01  0.35646548424E+02 -0.12574817234E+02  0.37867525052E+02  0.00000000000E+00 0. -1.
         -4    1    1    2    0  502 -0.32652778179E+02 -0.53193920840E+00  0.16958132819E+02  0.36797624255E+02  0.00000000000E+00 0.  1.
<mgrwt>
<rscale>  1 0.86199573E+02</rscale>
<asrwt>0</asrwt>
<pdfrwt beam="1">  1       21 0.74272977E-02 0.86199573E+02</pdfrwt>
<pdfrwt beam="2">  1       -3 0.14880753E-01 0.86199573E+02</pdfrwt>
<totfact> 0.22714337E+05</totfact>
</mgrwt>
</event>
<event>
 6    2  0.8544106E+000  0.9574082E+02  0.7546771E-02  0.1289516E+00
          2   -1    0    0  502    0 -0.00000000000E+00  0.00000000000E+00  0.19076604337E+04  0.19076604337E+04  0.00000000000E+00 0. -1.
         21   -1    0    0  501  502  0.00000000000E+00 -0.00000000000E+00 -0.33119306447E+01  0.33119306447E+01  0.00000000000E+00 0.  1.
         24    2    1    2    0    0  0.55390425243E+02  0.23172072979E+01  0.89590541968E+03  0.90100656242E+03  0.78056619490E+02 0.  0.
        -13    1    3    3    0    0  0.69993246257E+02 -0.92424706275E+01  0.53740673753E+03  0.54202442688E+03  0.00000000000E+00 0.  1.
         14    1    3    3    0    0 -0.14602821014E+02  0.11559677925E+02  0.35849868215E+03  0.35898213554E+03  0.00000000000E+00 0. -1.
          1    1    1    2  501    0 -0.55390425243E+02 -0.23172072979E+01  0.10084430833E+04  0.10099658019E+04  0.00000000000E+00 0. -1.
<mgrwt>
<rscale>  1 0.95740819E+02</rscale>
<asrwt>0</asrwt>
<pdfrwt beam="1">  1       21 0.50952931E-03 0.95740819E+02</pdfrwt>
<pdfrwt beam="2">  1        2 0.29348534E+00 0.95740819E+02</pdfrwt>
<totfact> 0.11352758E+06</totfact>
</mgrwt>
</event>
<event>
 6    2  0.8544106E+000  0.8623177E+02  0.7546771E-02  0.1312242E+00
         21   -1    0    0  501  502  0.00000000000E+00  0.00000000000E+00  0.28426748986E+02  0.28426748986E+02  0.00000000000E+00 0. -1.
          2   -1    0    0  502    0 -0.00000000000E+00 -0.00000000000E+00 -0.12414301577E+03  0.12414301577E+03  0.00000000000E+00 0. -1.
         24    2    1    2    0    0 -0.24258949168E+02  0.89656862770E+01 -0.92578217842E+02  0.12651736570E+03  0.82262003745E+02 0.  0.
        -13    1    3    3    0    0  0.26401436862E+02 -0.14414226003E+02 -0.27056362498E+02  0.40458034199E+02  0.00000000000E+00 0.  1.
         14    1    3    3    0    0 -0.50660386030E+02  0.23379912280E+02 -0.65521855344E+02  0.86059331502E+02  0.00000000000E+00 0. -1.
          1    1    1    2  501    0  0.24258949168E+02 -0.89656862770E+01 -0.31380489373E+01  0.26052399050E+02  0.00000000000E+00 0. -1.
<mgrwt>
<rscale>  1 0.86231766E+02</rscale>
<asrwt>0</asrwt>
<pdfrwt beam="1">  1       21 0.43733461E-02 0.86231766E+02</pdfrwt>
<pdfrwt beam="2">  1        2 0.19098925E-01 0.86231766E+02</pdfrwt>
<totfact> 0.11165414E+06</totfact>
</mgrwt>
</event>
<event>
 6    2  0.8544106E+000  0.9294478E+02  0.7546771E-02  0.1295873E+00
         21   -1    0    0  501  502  0.00000000000E+00  0.00000000000E+00  0.57700204916E+01  0.57700204916E+01  0.00000000000E+00 0.  1.
          2   -1    0    0  502    0 -0.00000000000E+00 -0.00000000000E+00 -0.21398207304E+04  0.21398207304E+04  0.00000000000E+00 0. -1.
         24    2    1    2    0    0 -0.45929757795E+02 -0.54112013875E+01 -0.38982830583E+03  0.40075533783E+03  0.80622013302E+02 0.  0.
        -13    1    3    3    0    0 -0.10829977098E+02  0.32817425432E+02 -0.88826812888E+02  0.95312509691E+02  0.00000000000E+00 0.  1.
         14    1    3    3    0    0 -0.35099780696E+02 -0.38228626819E+02 -0.30100149294E+03  0.30544282814E+03  0.00000000000E+00 0. -1.
          1    1    1    2  501    0  0.45929757795E+02  0.54112013875E+01 -0.17442224040E+04  0.17448354130E+04  0.00000000000E+00 0. -1.
<mgrwt>
<rscale>  1 0.92944784E+02</rscale>
<asrwt>0</asrwt>
<pdfrwt beam="1">  1       21 0.88769507E-03 0.92944784E+02</pdfrwt>
<pdfrwt beam="2">  1        2 0.32920334E+00 0.92944784E+02</pdfrwt>
<totfact> 0.36703623E+05</totfact>
</mgrwt>
</event>
<event>
 6    2  0.8544106E+000  0.7965583E+02  0.7546771E-02  0.1330031E+00
         21   -1    0    0  501  502  0.00000000000E+00  0.00000000000E+00  0.80906642256E+01  0.80906642256E+01  0.00000000000E+00 0. -1.
          2   -1    0    0  502    0 -0.00000000000E+00 -0.00000000000E+00 -0.39945276721E+03  0.39945276721E+03  0.00000000000E+00 0. -1.
         24    2    1    2    0    0  0.13271089908E+00  0.33971640511E+02 -0.28084014056E+03  0.29191819998E+03  0.72048323770E+02 0.  0.
        -11    1    3    3    0    0 -0.24129520210E+02 -0.57807065452E+01 -0.43740217193E+02  0.50287741188E+02  0.00000000000E+00 0.  1.
         12    1    3    3    0    0  0.24262231109E+02  0.39752347056E+02 -0.23709992336E+03  0.24163045879E+03  0.00000000000E+00 0. -1.
          1    1    1    2  501    0 -0.13271089908E+00 -0.33971640511E+02 -0.11052196243E+03  0.11562523146E+03  0.00000000000E+00 0. -1.
<mgrwt>
<rscale>  1 0.79655828E+02</rscale>
<asrwt>0</asrwt>
<pdfrwt beam="1">  1       21 0.12447177E-02 0.79655828E+02</pdfrwt>
<pdfrwt beam="2">  1        2 0.61454267E-01 0.79655828E+02</pdfrwt>
<totfact> 0.24006657E+06</totfact>
</mgrwt>
</event>
<event>
 6    2  0.8544106E+000  0.9615004E+02  0.7546771E-02  0.1288607E+00
          2   -1    0    0  502    0 -0.00000000000E+00  0.00000000000E+00  0.66034532513E+02  0.66034532513E+02  0.00000000000E+00 0. -1.
         21   -1    0    0  501  502  0.00000000000E+00 -0.00000000000E+00 -0.90752261140E+02  0.90752261140E+02  0.00000000000E+00 0. -1.
         24    2    1    2    0    0  0.85477060324E+01  0.52081380694E+02  0.48840367930E+01  0.96274001540E+02  0.80369745948E+02 0.  0.
        -13    1    3    3    0    0 -0.14536476764E+02  0.11941181234E+02 -0.31969489387E+02  0.37093789475E+02  0.00000000000E+00 0.  1.
         14    1    3    3    0    0  0.23084182796E+02  0.40140199460E+02  0.36853526180E+02  0.59180212064E+02  0.00000000000E+00 0. -1.
          1    1    1    2  501    0 -0.85477060324E+01 -0.52081380694E+02 -0.29601765419E+02  0.60512792113E+02  0.00000000000E+00 0. -1.
<mgrwt>
<rscale>  1 0.96150037E+02</rscale>
<asrwt>0</asrwt>
<pdfrwt beam="1">  1       21 0.13961886E-01 0.96150037E+02</pdfrwt>
<pdfrwt beam="2">  1        2 0.10159159E-01 0.96150037E+02</pdfrwt>
<totfact> 0.32421433E+05</totfact>
</mgrwt>
</event>
<event>
 6    2  0.8544106E+000  0.8291484E+02  0.7546771E-02  0.1320977E+00
         21   -1    0    0  501  502  0.00000000000E+00  0.00000000000E+00  0.16695403156E+01  0.16695403156E+01  0.00000000000E+00 0. -1.
          2   -1    0    0  502    0 -0.00000000000E+00 -0.00000000000E+00 -0.19096155677E+04  0.19096155677E+04  0.00000000000E+00 0. -1.
         24    2    1    2    0    0 -0.16743112801E+02 -0.12514541418E+02 -0.17498303767E+04  0.17517937146E+04  0.80236686239E+02 0.  0.
        -11    1    3    3    0    0  0.28806070226E+02 -0.17340467146E+02 -0.10004353370E+04  0.10010001724E+04  0.00000000000E+00 0.  1.
         12    1    3    3    0    0 -0.45549183028E+02  0.48259257285E+01 -0.74939503962E+03  0.75079354222E+03  0.00000000000E+00 0. -1.
          1    1    1    2  501    0  0.16743112801E+02  0.12514541418E+02 -0.15811565075E+03  0.15949139345E+03  0.00000000000E+00 0. -1.
<mgrwt>
<rscale>  1 0.82914844E+02</rscale>
<asrwt>0</asrwt>
<pdfrwt beam="1">  1       21 0.25685156E-03 0.82914844E+02</pdfrwt>
<pdfrwt beam="2">  1        2 0.29378792E+00 0.82914844E+02</pdfrwt>
<totfact> 0.31768266E+06</totfact>
</mgrwt>
</event>
<event>
 6    2  0.8544106E+000  0.1002678E+03  0.7546771E-02  0.1279734E+00
          4   -1    0    0  502    0 -0.00000000000E+00  0.00000000000E+00  0.51272392629E+03  0.51272392629E+03  0.00000000000E+00 0. -1.
         21   -1    0    0  501  502  0.00000000000E+00 -0.00000000000E+00 -0.16629497088E+02  0.16629497088E+02  0.00000000000E+00 0. -1.
         24    2    1    2    0    0 -0.39868490252E+02 -0.51682448232E+02  0.40537995083E+03  0.41759614820E+03  0.76112196666E+02 0.  0.
        -11    1    3    3    0    0 -0.45616854530E+02 -0.16189662816E+02  0.11188155837E+03  0.12190359183E+03  0.00000000000E+00 0.  1.
         12    1    3    3    0    0  0.57483642785E+01 -0.35492785416E+02  0.29349839247E+03  0.29569255636E+03  0.00000000000E+00 0. -1.
          3    1    1    2  501    0  0.39868490252E+02  0.51682448232E+02  0.90714478371E+02  0.11175727518E+03  0.00000000000E+00 0. -1.
<mgrwt>
<rscale>  1 0.10026783E+03</rscale>
<asrwt>0</asrwt>
<pdfrwt beam="1">  1       21 0.25583846E-02 0.10026783E+03</pdfrwt>
<pdfrwt beam="2">  1        4 0.78880592E-01 0.10026783E+03</pdfrwt>
<totfact> 0.46722976E+04</totfact>
</mgrwt>
</event>
<event>
 6    2  0.8544106E+000  0.8479983E+02  0.7546771E-02  0.1315957E+00
         21   -1    0    0  501  502  0.00000000000E+00  0.00000000000E+00  0.47451341623E+01  0.47451341623E+01  0.00000000000E+00 0.  1.
          2   -1    0    0  502    0 -0.00000000000E+00 -0.00000000000E+00 -0.13058735109E+04  0.13058735109E+04  0.00000000000E+00 0. -1.
         24    2    1    2    0    0 -0.25653055541E+02 -0.13902902389E+02 -0.12398662649E+04  0.12427627957E+04  0.79621865384E+02 0.  0.
        -13    1    3    3    0    0  0.11503919154E+02  0.11912790184E+02 -0.66726053432E+02  0.68750424962E+02  0.00000000000E+00 0.  1.
         14    1    3    3    0    0 -0.37156974695E+02 -0.25815692574E+02 -0.11731402115E+04  0.11740123707E+04  0.00000000000E+00 0. -1.
          1    1    1    2  501    0  0.25653055541E+02  0.13902902389E+02 -0.61262111839E+02  0.67855849419E+02  0.00000000000E+00 0. -1.
<mgrwt>
<rscale>  1 0.84799831E+02</rscale>
<asrwt>0</asrwt>
<pdfrwt beam="1">  1       21 0.73001906E-03 0.84799831E+02</pdfrwt>
<pdfrwt beam="2">  1        2 0.20090405E+00 0.84799831E+02</pdfrwt>
<totfact> 0.13094282E+06</totfact>
</mgrwt>
</event>
<event>
 6    2  0.8544106E+000  0.8550268E+02  0.7546771E-02  0.1314123E+00
         -3   -1    0    0    0  501 -0.00000000000E+00  0.00000000000E+00  0.25277539147E+03  0.25277539147E+03  0.00000000000E+00 0.  1.
         21   -1    0    0  501  502  0.00000000000E+00 -0.00000000000E+00 -0.43341866013E+02  0.43341866013E+02  0.00000000000E+00 0. -1.
         24    2    1    2    0    0 -0.23671195755E+02 -0.17683592892E+02  0.23929295514E+03  0.25410987115E+03  0.80235112422E+02 0.  0.
        -11    1    3    3    0    0  0.18778665865E+02 -0.22870695077E+02  0.17092845077E+03  0.17347115688E+03  0.00000000000E+00 0.  1.
         12    1    3    3    0    0 -0.42449861620E+02  0.51871021843E+01  0.68364504371E+02  0.80638714266E+02  0.00000000000E+00 0. -1.
         -4    1    1    2    0  502  0.23671195755E+02  0.17683592892E+02 -0.29859429684E+02  0.42007386340E+02  0.00000000000E+00 0.  1.
<mgrwt>
<rscale>  1 0.85502680E+02</rscale>
<asrwt>0</asrwt>
<pdfrwt beam="1">  1       21 0.66679796E-02 0.85502680E+02</pdfrwt>
<pdfrwt beam="2">  1       -3 0.38888521E-01 0.85502680E+02</pdfrwt>
<totfact> 0.49061571E+04</totfact>
</mgrwt>
</event>
<event>
 6    2  0.8544106E+000  0.8372709E+02  0.7546771E-02  0.1318795E+00
         -1   -1    0    0    0  501 -0.00000000000E+00  0.00000000000E+00  0.45903602814E+02  0.45903602814E+02  0.00000000000E+00 0.  1.
         21   -1    0    0  501  502  0.00000000000E+00 -0.00000000000E+00 -0.71047508520E+02  0.71047508520E+02  0.00000000000E+00 0. -1.
         24    2    1    2    0    0  0.73914329303E+01 -0.19890658537E+02  0.41962281556E+00  0.83728143853E+02  0.80993545496E+02 0.  0.
        -13    1    3    3    0    0 -0.68295332833E+01 -0.35531650646E+02  0.30253701846E+02  0.47163833579E+02  0.00000000000E+00 0.  1.
         14    1    3    3    0    0  0.14220966214E+02  0.15640992109E+02 -0.29834079031E+02  0.36564310274E+02  0.00000000000E+00 0. -1.
         -2    1    1    2    0  502 -0.73914329303E+01  0.19890658537E+02 -0.25563528522E+02  0.33222967481E+02  0.00000000000E+00 0.  1.
<mgrwt>
<rscale>  1 0.83727092E+02</rscale>
<asrwt>0</asrwt>
<pdfrwt beam="1">  1       21 0.10930386E-01 0.83727092E+02</pdfrwt>
<pdfrwt beam="2">  1       -1 0.70620927E-02 0.83727092E+02</pdfrwt>
<totfact> 0.59127980E+05</totfact>
</mgrwt>
</event>
<event>
 6    2  0.8544106E+000  0.8487395E+02  0.7546771E-02  0.1315762E+00
          2   -1    0    0  502    0 -0.00000000000E+00  0.00000000000E+00  0.11312883276E+04  0.11312883276E+04  0.00000000000E+00 0. -1.
         21   -1    0    0  501  502  0.00000000000E+00 -0.00000000000E+00 -0.25289548727E+01  0.25289548727E+01  0.00000000000E+00 0.  1.
         24    2    1    2    0    0 -0.30633368508E+00  0.22019803437E+02  0.91349547126E+03  0.91742986866E+03  0.81967202613E+02 0.  0.
        -11    1    3    3    0    0  0.89848780911E+01  0.17970419681E+02  0.50149468201E+02  0.54024375782E+02  0.00000000000E+00 0.  1.
         12    1    3    3    0    0 -0.92912117761E+01  0.40493837565E+01  0.86334600306E+03  0.86340549288E+03  0.00000000000E+00 0. -1.
          1    1    1    2  501    0  0.30633368508E+00 -0.22019803437E+02  0.21526390145E+03  0.21638741380E+03  0.00000000000E+00 0. -1.
<mgrwt>
<rscale>  1 0.84873953E+02</rscale>
<asrwt>0</asrwt>
<pdfrwt beam="1">  1       21 0.38907088E-03 0.84873953E+02</pdfrwt>
<pdfrwt beam="2">  1        2 0.17404395E+00 0.84873953E+02</pdfrwt>
<totfact> 0.42670055E+06</totfact>
</mgrwt>
</event>
<event>
 6    2  0.8544106E+000  0.9015222E+02  0.7546771E-02  0.1302484E+00
          2   -1    0    0  502    0 -0.00000000000E+00  0.00000000000E+00  0.36865257249E+03  0.36865257249E+03  0.00000000000E+00 0. -1.
         21   -1    0    0  501  502  0.00000000000E+00 -0.00000000000E+00 -0.13307461814E+02  0.13307461814E+02  0.00000000000E+00 0.  1.
         24    2    1    2    0    0  0.21649916951E+02  0.41120685094E+02  0.19162932556E+03  0.21177634548E+03  0.77251488288E+02 0.  0.
        -11    1    3    3    0    0  0.40998550945E+02  0.33942547828E+02  0.18079707028E+03  0.18846898513E+03  0.00000000000E+00 0.  1.
         12    1    3    3    0    0 -0.19348633994E+02  0.71781372660E+01  0.10832255278E+02  0.23307360350E+02  0.00000000000E+00 0. -1.
          1    1    1    2  501    0 -0.21649916951E+02 -0.41120685094E+02  0.16371578511E+03  0.17018368882E+03  0.00000000000E+00 0. -1.
<mgrwt>
<rscale>  1 0.90152216E+02</rscale>
<asrwt>0</asrwt>
<pdfrwt beam="1">  1       21 0.20473021E-02 0.90152216E+02</pdfrwt>
<pdfrwt beam="2">  1        2 0.56715773E-01 0.90152216E+02</pdfrwt>
<totfact> 0.12041056E+06</totfact>
</mgrwt>
</event>
<event>
 6    2  0.8544106E+000  0.8594918E+02  0.7546771E-02  0.1312969E+00
         21   -1    0    0  501  502  0.00000000000E+00  0.00000000000E+00  0.17440624960E+02  0.17440624960E+02  0.00000000000E+00 0.  1.
          2   -1    0    0  502    0 -0.00000000000E+00 -0.00000000000E+00 -0.50795155151E+03  0.50795155151E+03  0.00000000000E+00 0. -1.
         24    2    1    2    0    0 -0.62811489965E+01 -0.30041804795E+02 -0.92757413204E+02  0.12645631665E+03  0.80282622336E+02 0.  0.
        -13    1    3    3    0    0  0.30977289918E+02 -0.35613879314E+02 -0.41546976746E+02  0.62881572556E+02  0.00000000000E+00 0.  1.
         14    1    3    3    0    0 -0.37258438914E+02  0.55720745187E+01 -0.51210436458E+02  0.63574744097E+02  0.00000000000E+00 0. -1.
          1    1    1    2  501    0  0.62811489965E+01  0.30041804795E+02 -0.39775351334E+03  0.39893585981E+03  0.00000000000E+00 0. -1.
<mgrwt>
<rscale>  1 0.85949185E+02</rscale>
<asrwt>0</asrwt>
<pdfrwt beam="1">  1       21 0.26831731E-02 0.85949185E+02</pdfrwt>
<pdfrwt beam="2">  1        2 0.78146390E-01 0.85949185E+02</pdfrwt>
<totfact> 0.55217280E+05</totfact>
</mgrwt>
</event>
<event>
 6    2  0.8544106E+000  0.8687733E+02  0.7546771E-02  0.1310595E+00
         -3   -1    0    0    0  501 -0.00000000000E+00  0.00000000000E+00  0.30089779292E+04  0.30089779292E+04  0.00000000000E+00 0.  1.
         21   -1    0    0  501  502  0.00000000000E+00 -0.00000000000E+00 -0.13882683827E+02  0.13882683827E+02  0.00000000000E+00 0.  1.
         24    2    1    2    0    0  0.11514161180E+02 -0.23262431260E+02  0.29956393477E+04  0.29968988592E+04  0.82909312373E+02 0.  0.
        -13    1    3    3    0    0 -0.15614546553E+02 -0.37249573472E+02  0.24967674848E+04  0.24970941548E+04  0.00000000000E+00 0.  1.
         14    1    3    3    0    0  0.27128707733E+02  0.13987142211E+02  0.49887186289E+03  0.49980470437E+03  0.00000000000E+00 0. -1.
         -4    1    1    2    0  502 -0.11514161180E+02  0.23262431260E+02 -0.54410231673E+00  0.25961753853E+02  0.00000000000E+00 0.  1.
<mgrwt>
<rscale>  1 0.86877331E+02</rscale>
<asrwt>0</asrwt>
<pdfrwt beam="1">  1       21 0.21357999E-02 0.86877331E+02</pdfrwt>
<pdfrwt beam="2">  1       -3 0.46291916E+00 0.86877331E+02</pdfrwt>
<totfact> 0.35345773E+02</totfact>
</mgrwt>
</event>
<event>
 6    2  0.8544106E+000  0.8499385E+02  0.7546771E-02  0.1315449E+00
         21   -1    0    0  501  502  0.00000000000E+00  0.00000000000E+00  0.78527913055E+01  0.78527913055E+01  0.00000000000E+00 0.  1.
          2   -1    0    0  502    0 -0.00000000000E+00 -0.00000000000E+00 -0.46279053051E+03  0.46279053051E+03  0.00000000000E+00 0. -1.
         24    2    1    2    0    0  0.44853982138E-01 -0.30270244301E+02 -0.38768198364E+03  0.39688949914E+03  0.79420805781E+02 0.  0.
        -11    1    3    3    0    0  0.10671955203E+02 -0.55822846029E+02 -0.24006479849E+03  0.24670060445E+03  0.00000000000E+00 0.  1.
         12    1    3    3    0    0 -0.10627101221E+02  0.25552601727E+02 -0.14761718515E+03  0.15018889469E+03  0.00000000000E+00 0. -1.
          1    1    1    2  501    0 -0.44853982138E-01  0.30270244301E+02 -0.67255755568E+02  0.73753822673E+02  0.00000000000E+00 0. -1.
<mgrwt>
<rscale>  1 0.84993847E+02</rscale>
<asrwt>0</asrwt>
<pdfrwt beam="1">  1       21 0.12081216E-02 0.84993847E+02</pdfrwt>
<pdfrwt beam="2">  1        2 0.71198549E-01 0.84993847E+02</pdfrwt>
<totfact> 0.21708856E+06</totfact>
</mgrwt>
</event>
<event>
 6    2  0.8544106E+000  0.8253529E+02  0.7546771E-02  0.1322007E+00
          2   -1    0    0  502    0 -0.00000000000E+00  0.00000000000E+00  0.15333099690E+04  0.15333099690E+04  0.00000000000E+00 0. -1.
         21   -1    0    0  501  502  0.00000000000E+00 -0.00000000000E+00 -0.19855116777E+01  0.19855116777E+01  0.00000000000E+00 0.  1.
         24    2    1    2    0    0 -0.20242329298E+02 -0.79782910092E+01  0.95481236826E+03  0.95837296088E+03  0.79615755522E+02 0.  0.
        -11    1    3    3    0    0  0.96520992838E+01 -0.22924605666E+02  0.10509099586E+03  0.10799452753E+03  0.00000000000E+00 0.  1.
         12    1    3    3    0    0 -0.29894428582E+02  0.14946314656E+02  0.84972137241E+03  0.85037843335E+03  0.00000000000E+00 0. -1.
          1    1    1    2  501    0  0.20242329298E+02  0.79782910092E+01  0.57651208909E+03  0.57692251983E+03  0.00000000000E+00 0. -1.
<mgrwt>
<rscale>  1 0.82535287E+02</rscale>
<asrwt>0</asrwt>
<pdfrwt beam="1">  1       21 0.30546456E-03 0.82535287E+02</pdfrwt>
<pdfrwt beam="2">  1        2 0.23589290E+00 0.82535287E+02</pdfrwt>
<totfact> 0.37746891E+06</totfact>
</mgrwt>
</event>
<event>
 6    2  0.8544106E+000  0.9846416E+02  0.7546771E-02  0.1283559E+00
         21   -1    0    0  501  502  0.00000000000E+00  0.00000000000E+00  0.10767260673E+02  0.10767260673E+02  0.00000000000E+00 0. -1.
          2   -1    0    0  502    0 -0.00000000000E+00 -0.00000000000E+00 -0.11705435538E+04  0.11705435538E+04  0.00000000000E+00 0. -1.
         24    2    1    2    0    0 -0.54926439496E+02 -0.10998293756E+02 -0.10762202770E+04  0.10807151682E+04  0.80977243028E+02 0.  0.
        -11    1    3    3    0    0  0.87562885616E-01 -0.27407262688E+02 -0.13545915940E+03  0.13820401435E+03  0.00000000000E+00 0.  1.
         12    1    3    3    0    0 -0.55014002382E+02  0.16408968932E+02 -0.94076111760E+03  0.94251115384E+03  0.00000000000E+00 0. -1.
          1    1    1    2  501    0  0.54926439496E+02  0.10998293756E+02 -0.83556016112E+02  0.10059564628E+03  0.00000000000E+00 0. -1.
<mgrwt>
<rscale>  1 0.98464156E+02</rscale>
<asrwt>0</asrwt>
<pdfrwt beam="1">  1       21 0.16565016E-02 0.98464156E+02</pdfrwt>
<pdfrwt beam="2">  1        2 0.18008363E+00 0.98464156E+02</pdfrwt>
<totfact> 0.43234660E+05</totfact>
</mgrwt>
</event>
<event>
 6    2  0.8544106E+000  0.9202220E+02  0.7546771E-02  0.1298027E+00
          2   -1    0    0  502    0 -0.00000000000E+00  0.00000000000E+00  0.15025388108E+04  0.15025388108E+04  0.00000000000E+00 0. -1.
         21   -1    0    0  501  502  0.00000000000E+00 -0.00000000000E+00 -0.52231714275E+01  0.52231714275E+01  0.00000000000E+00 0. -1.
         24    2    1    2    0    0  0.30392216965E+02 -0.33561611086E+02  0.13613285336E+04  0.13644352174E+04  0.80112529507E+02 0.  0.
        -13    1    3    3    0    0  0.55235517040E+02 -0.25744770949E+02  0.11306517755E+04  0.11322928919E+04  0.00000000000E+00 0.  1.
         14    1    3    3    0    0 -0.24843300075E+02 -0.78168401361E+01  0.23067675811E+03  0.23214232548E+03  0.00000000000E+00 0. -1.
          1    1    1    2  501    0 -0.30392216965E+02  0.33561611086E+02  0.13598710572E+03  0.14332676482E+03  0.00000000000E+00 0. -1.
<mgrwt>
<rscale>  1 0.92022204E+02</rscale>
<asrwt>0</asrwt>
<pdfrwt beam="1">  1       21 0.80356603E-03 0.92022204E+02</pdfrwt>
<pdfrwt beam="2">  1        2 0.23115947E+00 0.92022204E+02</pdfrwt>
<totfact> 0.89757645E+05</totfact>
</mgrwt>
</event>
<event>
 6    2  0.8544106E+000  0.9842191E+02  0.7546771E-02  0.1283650E+00
          2   -1    0    0  502    0 -0.00000000000E+00  0.00000000000E+00  0.24617549600E+03  0.24617549600E+03  0.00000000000E+00 0. -1.
         21   -1    0    0  501  502  0.00000000000E+00 -0.00000000000E+00 -0.29640342991E+02  0.29640342991E+02  0.00000000000E+00 0. -1.
         24    2    1    2    0    0 -0.28267718250E+02  0.52048425823E+02  0.18290652411E+03  0.20770572808E+03  0.78605154997E+02 0.  0.
        -11    1    3    3    0    0 -0.24660081201E+02  0.38307035639E+02  0.30927562935E+02  0.55064169234E+02  0.00000000000E+00 0.  1.
         12    1    3    3    0    0 -0.36076370491E+01  0.13741390184E+02  0.15197896117E+03  0.15264155885E+03  0.00000000000E+00 0. -1.
          1    1    1    2  501    0  0.28267718250E+02 -0.52048425823E+02  0.33628628899E+02  0.68110110904E+02  0.00000000000E+00 0. -1.
<mgrwt>
<rscale>  1 0.98421913E+02</rscale>
<asrwt>0</asrwt>
<pdfrwt beam="1">  1       21 0.45600529E-02 0.98421913E+02</pdfrwt>
<pdfrwt beam="2">  1        2 0.37873152E-01 0.98421913E+02</pdfrwt>
<totfact> 0.50274166E+05</totfact>
</mgrwt>
</event>
<event>
 6    2  0.8544106E+000  0.8638825E+02  0.7546771E-02  0.1311842E+00
          2   -1    0    0  502    0 -0.00000000000E+00  0.00000000000E+00  0.11551746217E+04  0.11551746217E+04  0.00000000000E+00 0. -1.
         21   -1    0    0  501  502  0.00000000000E+00 -0.00000000000E+00 -0.35677644831E+01  0.35677644831E+01  0.00000000000E+00 0.  1.
         24    2    1    2    0    0  0.31556200300E+02  0.39509059427E+01  0.59625382561E+03  0.60247950485E+03  0.80321390510E+02 0.  0.
        -13    1    3    3    0    0  0.16198929865E+02  0.26486386997E+02  0.84896481669E+02  0.90395501131E+02  0.00000000000E+00 0.  1.
         14    1    3    3    0    0  0.15357270435E+02 -0.22535481055E+02  0.51135734394E+03  0.51208400372E+03  0.00000000000E+00 0. -1.
          1    1    1    2  501    0 -0.31556200300E+02 -0.39509059427E+01  0.55535303164E+03  0.55626288137E+03  0.00000000000E+00 0. -1.
<mgrwt>
<rscale>  1 0.86388247E+02</rscale>
<asrwt>0</asrwt>
<pdfrwt beam="1">  1       21 0.54888776E-03 0.86388247E+02</pdfrwt>
<pdfrwt beam="2">  1        2 0.17771887E+00 0.86388247E+02</pdfrwt>
<totfact> 0.24517946E+06</totfact>
</mgrwt>
</event>
<event>
 6    2  0.8544106E+000  0.8387701E+02  0.7546771E-02  0.1318396E+00
         -1   -1    0    0    0  501 -0.00000000000E+00  0.00000000000E+00  0.85611701123E+02  0.85611701123E+02  0.00000000000E+00 0.  1.
         21   -1    0    0  501  502  0.00000000000E+00 -0.00000000000E+00 -0.82586291714E+02  0.82586291714E+02  0.00000000000E+00 0.  1.
         24    2    1    2    0    0  0.14977155654E+02 -0.13845422679E+02  0.62966656873E+02  0.10488161211E+03  0.81359337267E+02 0.  0.
        -11    1    3    3    0    0  0.39597831244E+02 -0.27113287379E+02  0.59888397322E+02  0.76744633203E+02  0.00000000000E+00 0.  1.
         12    1    3    3    0    0 -0.24620675590E+02  0.13267864699E+02  0.30782595510E+01  0.28136978908E+02  0.00000000000E+00 0. -1.
         -2    1    1    2    0  502 -0.14977155654E+02  0.13845422679E+02 -0.59941247464E+02  0.63316380725E+02  0.00000000000E+00 0.  1.
<mgrwt>
<rscale>  1 0.83877009E+02</rscale>
<asrwt>0</asrwt>
<pdfrwt beam="1">  1       21 0.12705583E-01 0.83877009E+02</pdfrwt>
<pdfrwt beam="2">  1       -1 0.13171031E-01 0.83877009E+02</pdfrwt>
<totfact> 0.17798812E+05</totfact>
</mgrwt>
</event>
<event>
 6    2  0.8544106E+000  0.1283110E+03  0.7546771E-02  0.1229984E+00
          2   -1    0    0  502    0 -0.00000000000E+00  0.00000000000E+00  0.19390214153E+03  0.19390214153E+03  0.00000000000E+00 0. -1.
         21   -1    0    0  501  502  0.00000000000E+00 -0.00000000000E+00 -0.69275629881E+02  0.69275629881E+02  0.00000000000E+00 0.  1.
         24    2    1    2    0    0  0.90713433428E+02  0.38265710850E+02  0.43117665206E+02  0.13536195205E+03  0.82283250893E+02 0.  0.
        -13    1    3    3    0    0  0.64371105105E+02  0.59440826421E+02  0.10245741514E+02  0.88214659990E+02  0.00000000000E+00 0.  1.
         14    1    3    3    0    0  0.26342328324E+02 -0.21175115571E+02  0.32871923692E+02  0.47147292055E+02  0.00000000000E+00 0. -1.
          1    1    1    2  501    0 -0.90713433428E+02 -0.38265710850E+02  0.81508846439E+02  0.12781581936E+03  0.00000000000E+00 0. -1.
<mgrwt>
<rscale>  1 0.12831105E+03</rscale>
<asrwt>0</asrwt>
<pdfrwt beam="1">  1       21 0.10657789E-01 0.12831105E+03</pdfrwt>
<pdfrwt beam="2">  1        2 0.29831098E-01 0.12831105E+03</pdfrwt>
<totfact> 0.15510133E+05</totfact>
</mgrwt>
</event>
<event>
 6    2  0.8544106E+000  0.8245777E+02  0.7546771E-02  0.1322218E+00
          2   -1    0    0  502    0 -0.00000000000E+00  0.00000000000E+00  0.24042981534E+03  0.24042981534E+03  0.00000000000E+00 0. -1.
         21   -1    0    0  501  502  0.00000000000E+00 -0.00000000000E+00 -0.16379662452E+02  0.16379662452E+02  0.00000000000E+00 0. -1.
         24    2    1    2    0    0  0.28061231586E+02  0.10698364753E+01  0.20958238060E+03  0.22522002223E+03  0.77528748763E+02 0.  0.
        -11    1    3    3    0    0 -0.94551444464E+01  0.30947002099E+02  0.60457257585E+02  0.68572565141E+02  0.00000000000E+00 0.  1.
         12    1    3    3    0    0  0.37516376032E+02 -0.29877165624E+02  0.14912512302E+03  0.15664745709E+03  0.00000000000E+00 0. -1.
          1    1    1    2  501    0 -0.28061231586E+02 -0.10698364753E+01  0.14467772291E+02  0.31589455570E+02  0.00000000000E+00 0. -1.
<mgrwt>
<rscale>  1 0.82457772E+02</rscale>
<asrwt>0</asrwt>
<pdfrwt beam="1">  1       21 0.25199482E-02 0.82457772E+02</pdfrwt>
<pdfrwt beam="2">  1        2 0.36989200E-01 0.82457772E+02</pdfrwt>
<totfact> 0.13349382E+06</totfact>
</mgrwt>
</event>
<event>
 6    2  0.8544106E+000  0.8263365E+02  0.7546771E-02  0.1321739E+00
          2   -1    0    0  502    0 -0.00000000000E+00  0.00000000000E+00  0.79866086964E+03  0.79866086964E+03  0.00000000000E+00 0. -1.
         21   -1    0    0  501  502  0.00000000000E+00 -0.00000000000E+00 -0.96648634464E+01  0.96648634464E+01  0.00000000000E+00 0. -1.
         24    2    1    2    0    0 -0.30726413402E+02 -0.75038202514E+01  0.76278346568E+03  0.76724633339E+03  0.76340688989E+02 0.  0.
        -11    1    3    3    0    0  0.15458268623E+02  0.10696018711E+01  0.39372537755E+02  0.42311923217E+02  0.00000000000E+00 0.  1.
         12    1    3    3    0    0 -0.46184682026E+02 -0.85734221225E+01  0.72341092792E+03  0.72493441018E+03  0.00000000000E+00 0. -1.
          1    1    1    2  501    0  0.30726413402E+02  0.75038202514E+01  0.26212540518E+02  0.41079399696E+02  0.00000000000E+00 0. -1.
<mgrwt>
<rscale>  1 0.82633653E+02</rscale>
<asrwt>0</asrwt>
<pdfrwt beam="1">  1       21 0.14869027E-02 0.82633653E+02</pdfrwt>
<pdfrwt beam="2">  1        2 0.12287085E+00 0.82633653E+02</pdfrwt>
<totfact> 0.84448706E+05</totfact>
</mgrwt>
</event>
<event>
 6    2  0.8544106E+000  0.8537526E+02  0.7546771E-02  0.1314454E+00
         -3   -1    0    0    0  501 -0.00000000000E+00  0.00000000000E+00  0.30548595077E+03  0.30548595077E+03  0.00000000000E+00 0.  1.
         21   -1    0    0  501  502  0.00000000000E+00 -0.00000000000E+00 -0.99093259988E+01  0.99093259988E+01  0.00000000000E+00 0. -1.
         24    2    1    2    0    0 -0.23549154307E+02 -0.70043070797E+01  0.23485172113E+03  0.24988850683E+03  0.81763756880E+02 0.  0.
        -13    1    3    3    0    0 -0.15716018284E+02 -0.31705335573E+02  0.21321002379E+03  0.21612666606E+03  0.00000000000E+00 0.  1.
         14    1    3    3    0    0 -0.78331360229E+01  0.24701028493E+02  0.21641697340E+02  0.33761840772E+02  0.00000000000E+00 0. -1.
         -4    1    1    2    0  502  0.23549154307E+02  0.70043070797E+01  0.60724903636E+02  0.65506769939E+02  0.00000000000E+00 0.  1.
<mgrwt>
<rscale>  1 0.85375259E+02</rscale>
<asrwt>0</asrwt>
<pdfrwt beam="1">  1       21 0.15245119E-02 0.85375259E+02</pdfrwt>
<pdfrwt beam="2">  1       -3 0.46997831E-01 0.85375259E+02</pdfrwt>
<totfact> 0.37734358E+05</totfact>
</mgrwt>
</event>
<event>
 6    2  0.8544106E+000  0.8835155E+02  0.7546771E-02  0.1306893E+00
         -1   -1    0    0    0  501 -0.00000000000E+00  0.00000000000E+00  0.11414909004E+03  0.11414909004E+03  0.00000000000E+00 0.  1.
         21   -1    0    0  501  502  0.00000000000E+00 -0.00000000000E+00 -0.43066897932E+02  0.43066897932E+02  0.00000000000E+00 0. -1.
         24    2    1    2    0    0  0.36194026175E+02  0.21846076003E+02  0.73419173173E+02  0.11487546308E+03  0.77580528876E+02 0.  0.
        -13    1    3    3    0    0 -0.48365239291E+01  0.18562603297E+02  0.71106894683E+02  0.73648847081E+02  0.00000000000E+00 0.  1.
         14    1    3    3    0    0  0.41030550105E+02  0.32834727060E+01  0.23122784906E+01  0.41226615999E+02  0.00000000000E+00 0. -1.
         -2    1    1    2    0  502 -0.36194026175E+02 -0.21846076003E+02 -0.23369810667E+01  0.42340524891E+02  0.00000000000E+00 0.  1.
<mgrwt>
<rscale>  1 0.88351554E+02</rscale>
<asrwt>0</asrwt>
<pdfrwt beam="1">  1       21 0.66256766E-02 0.88351554E+02</pdfrwt>
<pdfrwt beam="2">  1       -1 0.17561398E-01 0.88351554E+02</pdfrwt>
<totfact> 0.35124912E+05</totfact>
</mgrwt>
</event>
<event>
 6    2  0.8544106E+000  0.8495061E+02  0.7546771E-02  0.1315562E+00
         21   -1    0    0  501  502  0.00000000000E+00  0.00000000000E+00  0.30896198388E+02  0.30896198388E+02  0.00000000000E+00 0. -1.
          4   -1    0    0  502    0 -0.00000000000E+00 -0.00000000000E+00 -0.12292039526E+03  0.12292039526E+03  0.00000000000E+00 0. -1.
         24    2    1    2    0    0 -0.93693626087E+01  0.22755543951E+02 -0.96756006383E+02  0.12875686984E+03  0.81308099369E+02 0.  0.
        -13    1    3    3    0    0  0.69216521437E+01 -0.16729963873E+02  0.46748438156E+01  0.18699067471E+02  0.00000000000E+00 0.  1.
         14    1    3    3    0    0 -0.16291014752E+02  0.39485507824E+02 -0.10143085020E+03  0.11005780237E+03  0.00000000000E+00 0. -1.
          3    1    1    2  501    0  0.93693626087E+01 -0.22755543951E+02  0.47318095115E+01  0.25059723810E+02  0.00000000000E+00 0. -1.
<mgrwt>
<rscale>  1 0.84950614E+02</rscale>
<asrwt>0</asrwt>
<pdfrwt beam="1">  1       21 0.47532613E-02 0.84950614E+02</pdfrwt>
<pdfrwt beam="2">  1        4 0.18910830E-01 0.84950614E+02</pdfrwt>
<totfact> 0.26821022E+05</totfact>
</mgrwt>
</event>
<event>
 6    2  0.8544106E+000  0.8159343E+02  0.7546771E-02  0.1324589E+00
          2   -1    0    0  502    0 -0.00000000000E+00  0.00000000000E+00  0.25281387495E+04  0.25281387495E+04  0.00000000000E+00 0. -1.
         21   -1    0    0  501  502  0.00000000000E+00 -0.00000000000E+00 -0.11752792981E+01  0.11752792981E+01  0.00000000000E+00 0.  1.
         24    2    1    2    0    0  0.18849225055E+00 -0.27393063580E+02  0.18650530720E+04  0.18668370174E+04  0.76857481584E+02 0.  0.
        -11    1    3    3    0    0 -0.15758847542E+02 -0.35040666224E+02  0.44002815002E+03  0.44170234591E+03  0.00000000000E+00 0.  1.
         12    1    3    3    0    0  0.15947339792E+02  0.76476026444E+01  0.14250249220E+04  0.14251346715E+04  0.00000000000E+00 0. -1.
          1    1    1    2  501    0 -0.18849225055E+00  0.27393063580E+02  0.66191039816E+03  0.66247701141E+03  0.00000000000E+00 0. -1.
<mgrwt>
<rscale>  1 0.81593431E+02</rscale>
<asrwt>0</asrwt>
<pdfrwt beam="1">  1       21 0.18081422E-03 0.81593431E+02</pdfrwt>
<pdfrwt beam="2">  1        2 0.38894007E+00 0.81593431E+02</pdfrwt>
<totfact> 0.26015951E+06</totfact>
</mgrwt>
</event>
<event>
 6    2  0.8544106E+000  0.9951955E+02  0.7546771E-02  0.1281310E+00
         21   -1    0    0  501  502  0.00000000000E+00  0.00000000000E+00  0.29468622402E+02  0.29468622402E+02  0.00000000000E+00 0. -1.
          2   -1    0    0  502    0 -0.00000000000E+00 -0.00000000000E+00 -0.41072427131E+03  0.41072427131E+03  0.00000000000E+00 0. -1.
         24    2    1    2    0    0 -0.59864592627E+01 -0.60227909525E+02 -0.36385059765E+03  0.37721532160E+03  0.78999383905E+02 0.  0.
        -13    1    3    3    0    0  0.33582865508E+02 -0.22962255079E+02 -0.10262380300E+03  0.11039347334E+03  0.00000000000E+00 0.  1.
         14    1    3    3    0    0 -0.39569324770E+02 -0.37265654447E+02 -0.26122679465E+03  0.26682184826E+03  0.00000000000E+00 0. -1.
          1    1    1    2  501    0  0.59864592627E+01  0.60227909525E+02 -0.17405051258E+02  0.62977572116E+02  0.00000000000E+00 0. -1.
<mgrwt>
<rscale>  1 0.99519553E+02</rscale>
<asrwt>0</asrwt>
<pdfrwt beam="1">  1       21 0.45336344E-02 0.99519553E+02</pdfrwt>
<pdfrwt beam="2">  1        2 0.63188347E-01 0.99519553E+02</pdfrwt>
<totfact> 0.29667257E+05</totfact>
</mgrwt>
</event>
<event>
 6    2  0.8544106E+000  0.8484388E+02  0.7546771E-02  0.1315841E+00
         21   -1    0    0  501  502  0.00000000000E+00  0.00000000000E+00  0.13488526199E+01  0.13488526199E+01  0.00000000000E+00 0.  1.
          2   -1    0    0  502    0 -0.00000000000E+00 -0.00000000000E+00 -0.22377439953E+04  0.22377439953E+04  0.00000000000E+00 0. -1.
         24    2    1    2    0    0  0.16815767726E+01 -0.23075094158E+02 -0.15638147104E+04  0.15661145975E+04  0.81628403909E+02 0.  0.
        -11    1    3    3    0    0 -0.17011514751E+02 -0.29364733152E+02 -0.26676443629E+03  0.26891437979E+03  0.00000000000E+00 0.  1.
         12    1    3    3    0    0  0.18693091524E+02  0.62896389938E+01 -0.12970502741E+04  0.12972002177E+04  0.00000000000E+00 0. -1.
          1    1    1    2  501    0 -0.16815767726E+01  0.23075094158E+02 -0.67258043230E+03  0.67297825045E+03  0.00000000000E+00 0. -1.
<mgrwt>
<rscale>  1 0.84843880E+02</rscale>
<asrwt>0</asrwt>
<pdfrwt beam="1">  1       21 0.20751582E-03 0.84843880E+02</pdfrwt>
<pdfrwt beam="2">  1        2 0.34426826E+00 0.84843880E+02</pdfrwt>
<totfact> 0.29972976E+06</totfact>
</mgrwt>
</event>
<event>
 6    2  0.8544106E+000  0.8277105E+02  0.7546771E-02  0.1321367E+00
         -1   -1    0    0    0  501 -0.00000000000E+00  0.00000000000E+00  0.19502231463E+02  0.19502231463E+02  0.00000000000E+00 0.  1.
         21   -1    0    0  501  502  0.00000000000E+00 -0.00000000000E+00 -0.15989542645E+03  0.15989542645E+03  0.00000000000E+00 0. -1.
         24    2    1    2    0    0 -0.20148421350E+02 -0.86016910960E+01 -0.79835072671E+02  0.11499863501E+03  0.79819165949E+02 0.  0.
        -11    1    3    3    0    0  0.27569028832E+02  0.25175102708E+01 -0.51315950361E+02  0.58307083361E+02  0.00000000000E+00 0.  1.
         12    1    3    3    0    0 -0.47717450181E+02 -0.11119201367E+02 -0.28519122310E+02  0.56691551647E+02  0.00000000000E+00 0. -1.
         -2    1    1    2    0  502  0.20148421350E+02  0.86016910960E+01 -0.60558122314E+02  0.64399022902E+02  0.00000000000E+00 0.  1.
<mgrwt>
<rscale>  1 0.82771053E+02</rscale>
<asrwt>0</asrwt>
<pdfrwt beam="1">  1       21 0.24599295E-01 0.82771053E+02</pdfrwt>
<pdfrwt beam="2">  1       -1 0.30003434E-02 0.82771053E+02</pdfrwt>
<totfact> 0.47832712E+05</totfact>
</mgrwt>
</event>
<event>
 6    2  0.8544106E+000  0.9522831E+02  0.7546771E-02  0.1290663E+00
         -3   -1    0    0    0  501 -0.00000000000E+00  0.00000000000E+00  0.32453444211E+04  0.32453444211E+04  0.00000000000E+00 0.  1.
         21   -1    0    0  501  502  0.00000000000E+00 -0.00000000000E+00 -0.82830658144E+01  0.82830658144E+01  0.00000000000E+00 0.  1.
         24    2    1    2    0    0 -0.25410149705E+02 -0.25447344103E+01  0.32231317624E+04  0.32245382287E+04  0.91740283515E+02 0.  0.
        -13    1    3    3    0    0 -0.30317571152E+02 -0.25064781447E+02  0.29923144081E+04  0.29925729591E+04  0.00000000000E+00 0.  1.
         14    1    3    3    0    0  0.49074214470E+01  0.22520047037E+02  0.23081735425E+03  0.23196526966E+03  0.00000000000E+00 0. -1.
         -4    1    1    2    0  502  0.25410149705E+02  0.25447344103E+01  0.13929592878E+02  0.29089258138E+02  0.00000000000E+00 0.  1.
<mgrwt>
<rscale>  1 0.95228310E+02</rscale>
<asrwt>0</asrwt>
<pdfrwt beam="1">  1       21 0.12743204E-02 0.95228310E+02</pdfrwt>
<pdfrwt beam="2">  1       -3 0.49928274E+00 0.95228310E+02</pdfrwt>
<totfact> 0.52299646E+02</totfact>
</mgrwt>
</event>
<event>
 6    2  0.8544106E+000  0.8749973E+02  0.7546771E-02  0.1309022E+00
         21   -1    0    0  501  502  0.00000000000E+00  0.00000000000E+00  0.53743002521E+02  0.53743002521E+02  0.00000000000E+00 0. -1.
         -1   -1    0    0    0  501 -0.00000000000E+00 -0.00000000000E+00 -0.77359641884E+02  0.77359641884E+02  0.00000000000E+00 0.  1.
         24    2    1    2    0    0 -0.13132300654E+02 -0.36678191817E+02 -0.42669461727E+01  0.87603705315E+02  0.78348294684E+02 0.  0.
        -13    1    3    3    0    0  0.28837844478E+02  0.37336661005E+01 -0.39027489228E+01  0.29339273778E+02  0.00000000000E+00 0.  1.
         14    1    3    3    0    0 -0.41970145131E+02 -0.40411857918E+02 -0.36419724991E+00  0.58264431537E+02  0.00000000000E+00 0. -1.
         -2    1    1    2    0  502  0.13132300654E+02  0.36678191817E+02 -0.19349693190E+02  0.43498939090E+02  0.00000000000E+00 0.  1.
<mgrwt>
<rscale>  1 0.87499728E+02</rscale>
<asrwt>0</asrwt>
<pdfrwt beam="1">  1       21 0.82681542E-02 0.87499728E+02</pdfrwt>
<pdfrwt beam="2">  1       -1 0.11901483E-01 0.87499728E+02</pdfrwt>
<totfact> 0.43936868E+05</totfact>
</mgrwt>
</event>
<event>
 6    2  0.8544106E+000  0.8751448E+02  0.7546771E-02  0.1308985E+00
         21   -1    0    0  501  502  0.00000000000E+00  0.00000000000E+00  0.12833199943E+01  0.12833199943E+01  0.00000000000E+00 0. -1.
          2   -1    0    0  502    0 -0.00000000000E+00 -0.00000000000E+00 -0.38699352405E+04  0.38699352405E+04  0.00000000000E+00 0. -1.
         24    2    1    2    0    0  0.26364653023E+00  0.31739792719E+02 -0.35294452618E+04  0.35305300792E+04  0.81555505035E+02 0.  0.
        -13    1    3    3    0    0  0.89639797187E+00 -0.21411276969E+02 -0.35887242889E+03  0.35951170569E+03  0.00000000000E+00 0.  1.
         14    1    3    3    0    0 -0.63275144165E+00  0.53151069689E+02 -0.31705728329E+04  0.31710183735E+04  0.00000000000E+00 0. -1.
          1    1    1    2  501    0 -0.26364653023E+00 -0.31739792719E+02 -0.33920665873E+03  0.34068848128E+03  0.00000000000E+00 0. -1.
<mgrwt>
<rscale>  1 0.87514481E+02</rscale>
<asrwt>0</asrwt>
<pdfrwt beam="1">  1       21 0.19743928E-03 0.87514481E+02</pdfrwt>
<pdfrwt beam="2">  1        2 0.59535828E+00 0.87514481E+02</pdfrwt>
<totfact> 0.35823317E+05</totfact>
</mgrwt>
</event>
<event>
 6    2  0.8544106E+000  0.1201815E+03  0.7546771E-02  0.1242798E+00
          4   -1    0    0  502    0 -0.00000000000E+00  0.00000000000E+00  0.36140222446E+02  0.36140222446E+02  0.00000000000E+00 0. -1.
         21   -1    0    0  501  502  0.00000000000E+00 -0.00000000000E+00 -0.30665602425E+03  0.30665602425E+03  0.00000000000E+00 0. -1.
         24    2    1    2    0    0 -0.71459267367E+02 -0.54233056363E+02 -0.16816790462E+03  0.20669796106E+03  0.79974693916E+02 0.  0.
        -11    1    3    3    0    0 -0.11738891276E+02 -0.51655203657E+02 -0.11534337343E+03  0.12692578709E+03  0.00000000000E+00 0.  1.
         12    1    3    3    0    0 -0.59720376091E+02 -0.25778527063E+01 -0.52824531190E+02  0.79772173973E+02  0.00000000000E+00 0. -1.
          3    1    1    2  501    0  0.71459267367E+02  0.54233056363E+02 -0.10234789718E+03  0.13609828563E+03  0.00000000000E+00 0. -1.
<mgrwt>
<rscale>  1 0.12018154E+03</rscale>
<asrwt>0</asrwt>
<pdfrwt beam="1">  1       21 0.47177852E-01 0.12018154E+03</pdfrwt>
<pdfrwt beam="2">  1        4 0.55600340E-02 0.12018154E+03</pdfrwt>
<totfact> 0.34839621E+04</totfact>
</mgrwt>
</event>
<event>
 6    2  0.8544106E+000  0.7228442E+02  0.7546771E-02  0.1352493E+00
         -1   -1    0    0    0  501 -0.00000000000E+00  0.00000000000E+00  0.18593067403E+02  0.18593067403E+02  0.00000000000E+00 0.  1.
         21   -1    0    0  501  502  0.00000000000E+00 -0.00000000000E+00 -0.12563487503E+03  0.12563487503E+03  0.00000000000E+00 0.  1.
         24    2    1    2    0    0 -0.12480751106E+02 -0.16726392500E+02 -0.64650659088E+02  0.96978065939E+02  0.69206186128E+02 0.  0.
        -13    1    3    3    0    0 -0.25052829152E+02 -0.33663113635E+01  0.42889953920E+01  0.25639262513E+02  0.00000000000E+00 0.  1.
         14    1    3    3    0    0  0.12572078046E+02 -0.13360081137E+02 -0.68939654480E+02  0.71338803426E+02  0.00000000000E+00 0. -1.
         -2    1    1    2    0  502  0.12480751106E+02  0.16726392500E+02 -0.42391148539E+02  0.47249876494E+02  0.00000000000E+00 0.  1.
<mgrwt>
<rscale>  1 0.72284421E+02</rscale>
<asrwt>0</asrwt>
<pdfrwt beam="1">  1       21 0.19328443E-01 0.72284421E+02</pdfrwt>
<pdfrwt beam="2">  1       -1 0.28604719E-02 0.72284421E+02</pdfrwt>
<totfact> 0.78477325E+05</totfact>
</mgrwt>
</event>
<event>
 6    2  0.8544106E+000  0.8864652E+02  0.7546771E-02  0.1306163E+00
          2   -1    0    0  502    0 -0.00000000000E+00  0.00000000000E+00  0.32006969627E+03  0.32006969627E+03  0.00000000000E+00 0. -1.
         21   -1    0    0  501  502  0.00000000000E+00 -0.00000000000E+00 -0.17059298510E+02  0.17059298510E+02  0.00000000000E+00 0. -1.
         24    2    1    2    0    0 -0.35346701201E+02 -0.17500539416E+02  0.27450817250E+03  0.28846653481E+03  0.79388580855E+02 0.  0.
        -13    1    3    3    0    0  0.62506029741E+01  0.22600357199E+02  0.35294745381E+02  0.42374110428E+02  0.00000000000E+00 0.  1.
         14    1    3    3    0    0 -0.41597304175E+02 -0.40100896615E+02  0.23921342712E+03  0.24609242439E+03  0.00000000000E+00 0. -1.
          1    1    1    2  501    0  0.35346701201E+02  0.17500539416E+02  0.28502225259E+02  0.48662459970E+02  0.00000000000E+00 0. -1.
<mgrwt>
<rscale>  1 0.88646517E+02</rscale>
<asrwt>0</asrwt>
<pdfrwt beam="1">  1       21 0.26245077E-02 0.88646517E+02</pdfrwt>
<pdfrwt beam="2">  1        2 0.49241487E-01 0.88646517E+02</pdfrwt>
<totfact> 0.93456572E+05</totfact>
</mgrwt>
</event>
<event>
 6    2  0.8544106E+000  0.8838281E+02  0.7546771E-02  0.1306816E+00
         21   -1    0    0  501  502  0.00000000000E+00  0.00000000000E+00  0.24458711454E+03  0.24458711454E+03  0.00000000000E+00 0. -1.
         -3   -1    0    0    0  501 -0.00000000000E+00 -0.00000000000E+00 -0.22411140683E+02  0.22411140683E+02  0.00000000000E+00 0.  1.
         24    2    1    2    0    0  0.20214598971E+02  0.30178580348E+02  0.21136592581E+03  0.22910057901E+03  0.80573841812E+02 0.  0.
        -11    1    3    3    0    0  0.26845420721E+02 -0.12848317320E+02  0.28797057123E+02  0.41412876870E+02  0.00000000000E+00 0.  1.
         12    1    3    3    0    0 -0.66308217502E+01  0.43026897668E+02  0.18256886869E+03  0.18768770214E+03  0.00000000000E+00 0. -1.
         -4    1    1    2    0  502 -0.20214598971E+02 -0.30178580348E+02  0.10810048039E+02  0.37897676208E+02  0.00000000000E+00 0.  1.
<mgrwt>
<rscale>  1 0.88382808E+02</rscale>
<asrwt>0</asrwt>
<pdfrwt beam="1">  1       21 0.37628785E-01 0.88382808E+02</pdfrwt>
<pdfrwt beam="2">  1       -3 0.34478680E-02 0.88382808E+02</pdfrwt>
<totfact> 0.12622795E+05</totfact>
</mgrwt>
</event>
<event>
 6    2  0.8544106E+000  0.8384717E+02  0.7546771E-02  0.1318475E+00
          2   -1    0    0  502    0 -0.00000000000E+00  0.00000000000E+00  0.18522735460E+03  0.18522735460E+03  0.00000000000E+00 0. -1.
         21   -1    0    0  501  502  0.00000000000E+00 -0.00000000000E+00 -0.51925456379E+02  0.51925456379E+02  0.00000000000E+00 0. -1.
         24    2    1    2    0    0  0.87176647110E+01 -0.25617590912E+02  0.17117395384E+03  0.19060658407E+03  0.79360498844E+02 0.  0.
        -13    1    3    3    0    0 -0.19998877367E+01 -0.30672175694E+02  0.15394177636E+02  0.34376774396E+02  0.00000000000E+00 0.  1.
         14    1    3    3    0    0  0.10717552448E+02  0.50545847818E+01  0.15577977620E+03  0.15622980968E+03  0.00000000000E+00 0. -1.
          1    1    1    2  501    0 -0.87176647110E+01  0.25617590912E+02 -0.37872055620E+02  0.46546226905E+02  0.00000000000E+00 0. -1.
<mgrwt>
<rscale>  1 0.83847167E+02</rscale>
<asrwt>0</asrwt>
<pdfrwt beam="1">  1       21 0.79885319E-02 0.83847167E+02</pdfrwt>
<pdfrwt beam="2">  1        2 0.28496516E-01 0.83847167E+02</pdfrwt>
<totfact> 0.26160279E+05</totfact>
</mgrwt>
</event>
<event>
 6    2  0.8544106E+000  0.1099123E+03  0.7546771E-02  0.1260732E+00
          2   -1    0    0  502    0 -0.00000000000E+00  0.00000000000E+00  0.13841371125E+04  0.13841371125E+04  0.00000000000E+00 0. -1.
         21   -1    0    0  501  502  0.00000000000E+00 -0.00000000000E+00 -0.10636675013E+02  0.10636675013E+02  0.00000000000E+00 0. -1.
         24    2    1    2    0    0  0.41483138530E+02 -0.59705996523E+02  0.12198433839E+04  0.12247851204E+04  0.82432113290E+02 0.  0.
        -11    1    3    3    0    0 -0.14418038535E+02 -0.38570777244E+02  0.27636363980E+03  0.27941447009E+03  0.00000000000E+00 0.  1.
         12    1    3    3    0    0  0.55901177065E+02 -0.21135219279E+02  0.94347974405E+03  0.94537065034E+03  0.00000000000E+00 0. -1.
          1    1    1    2  501    0 -0.41483138530E+02  0.59705996523E+02  0.15365705360E+03  0.16998866704E+03  0.00000000000E+00 0. -1.
<mgrwt>
<rscale>  1 0.10991228E+03</rscale>
<asrwt>0</asrwt>
<pdfrwt beam="1">  1       21 0.16364126E-02 0.10991228E+03</pdfrwt>
<pdfrwt beam="2">  1        2 0.21294403E+00 0.10991228E+03</pdfrwt>
<totfact> 0.34024158E+05</totfact>
</mgrwt>
</event>
<event>
 6    2  0.8544106E+000  0.8433063E+02  0.7546771E-02  0.1317192E+00
          2   -1    0    0  502    0 -0.00000000000E+00  0.00000000000E+00  0.10880574757E+04  0.10880574757E+04  0.00000000000E+00 0. -1.
         21   -1    0    0  501  502  0.00000000000E+00 -0.00000000000E+00 -0.42666313703E+01  0.42666313703E+01  0.00000000000E+00 0. -1.
         24    2    1    2    0    0 -0.23460407945E+02  0.81576115203E+01  0.10255053206E+04  0.10289668688E+04  0.80589807709E+02 0.  0.
        -11    1    3    3    0    0 -0.46539018395E+02 -0.13416341249E+02  0.45093253579E+03  0.45352621785E+03  0.00000000000E+00 0.  1.
         12    1    3    3    0    0  0.23078610449E+02  0.21573952769E+02  0.57457278485E+03  0.57544065097E+03  0.00000000000E+00 0. -1.
          1    1    1    2  501    0  0.23460407945E+02 -0.81576115203E+01  0.58285523695E+02  0.63357238253E+02  0.00000000000E+00 0. -1.
<mgrwt>
<rscale>  1 0.84330626E+02</rscale>
<asrwt>0</asrwt>
<pdfrwt beam="1">  1       21 0.65640569E-03 0.84330626E+02</pdfrwt>
<pdfrwt beam="2">  1        2 0.16739324E+00 0.84330626E+02</pdfrwt>
<totfact> 0.20243588E+06</totfact>
</mgrwt>
</event>
<event>
 6    2  0.8544106E+000  0.8823010E+02  0.7546771E-02  0.1307195E+00
          2   -1    0    0  502    0 -0.00000000000E+00  0.00000000000E+00  0.84651719974E+02  0.84651719974E+02  0.00000000000E+00 0. -1.
         21   -1    0    0  501  502  0.00000000000E+00 -0.00000000000E+00 -0.97162816529E+02  0.97162816529E+02  0.00000000000E+00 0. -1.
         24    2    1    2    0    0  0.26147039375E+02 -0.27708381477E+02  0.55233183575E+02  0.10409253471E+03  0.79580959674E+02 0.  0.
        -13    1    3    3    0    0 -0.85494650775E+01  0.14350895556E+02 -0.96898044217E+01  0.19311495698E+02  0.00000000000E+00 0.  1.
         14    1    3    3    0    0  0.34696504453E+02 -0.42059277032E+02  0.64922987997E+02  0.84781039013E+02  0.00000000000E+00 0. -1.
          1    1    1    2  501    0 -0.26147039375E+02  0.27708381477E+02 -0.67744280130E+02  0.77722001792E+02  0.00000000000E+00 0. -1.
<mgrwt>
<rscale>  1 0.88230104E+02</rscale>
<asrwt>0</asrwt>
<pdfrwt beam="1">  1       21 0.14948126E-01 0.88230104E+02</pdfrwt>
<pdfrwt beam="2">  1        2 0.13023342E-01 0.88230104E+02</pdfrwt>
<totfact> 0.21207915E+05</totfact>
</mgrwt>
</event>
<event>
 6    2  0.8544106E+000  0.8626467E+02  0.7546771E-02  0.1312158E+00
         -3   -1    0    0    0  501 -0.00000000000E+00  0.00000000000E+00  0.88331904612E+02  0.88331904612E+02  0.00000000000E+00 0.  1.
         21   -1    0    0  501  502  0.00000000000E+00 -0.00000000000E+00 -0.39483512136E+02  0.39483512136E+02  0.00000000000E+00 0. -1.
         24    2    1    2    0    0 -0.16664306037E+02 -0.11536558038E+02  0.59620395815E+02  0.10486269745E+03  0.83849880460E+02 0.  0.
        -13    1    3    3    0    0 -0.18857080883E+02  0.11930948308E+02  0.73974000205E+02  0.77266355766E+02  0.00000000000E+00 0.  1.
         14    1    3    3    0    0  0.21927748454E+01 -0.23467506345E+02 -0.14353604390E+02  0.27596341688E+02  0.00000000000E+00 0. -1.
         -4    1    1    2    0  502  0.16664306037E+02  0.11536558038E+02 -0.10772003339E+02  0.22952719294E+02  0.00000000000E+00 0.  1.
<mgrwt>
<rscale>  1 0.86264672E+02</rscale>
<asrwt>0</asrwt>
<pdfrwt beam="1">  1       21 0.60743865E-02 0.86264672E+02</pdfrwt>
<pdfrwt beam="2">  1       -3 0.13589524E-01 0.86264672E+02</pdfrwt>
<totfact> 0.37171345E+05</totfact>
</mgrwt>
</event>
<event>
 6    2  0.8544106E+000  0.8790411E+02  0.7546771E-02  0.1308008E+00
         21   -1    0    0  501  502  0.00000000000E+00  0.00000000000E+00  0.36153085550E+02  0.36153085550E+02  0.00000000000E+00 0.  1.
         -1   -1    0    0    0  501 -0.00000000000E+00 -0.00000000000E+00 -0.96157162342E+02  0.96157162342E+02  0.00000000000E+00 0.  1.
         24    2    1    2    0    0  0.76491823978E+01 -0.28748963517E+02 -0.48644793064E+02  0.10046615548E+03  0.82717105911E+02 0.  0.
        -11    1    3    3    0    0 -0.30766075442E+02  0.90256067181E+01 -0.28653742493E+02  0.43000580619E+02  0.00000000000E+00 0.  1.
         12    1    3    3    0    0  0.38415257840E+02 -0.37774570235E+02 -0.19991050571E+02  0.57465574862E+02  0.00000000000E+00 0. -1.
         -2    1    1    2    0  502 -0.76491823978E+01  0.28748963517E+02 -0.11359283728E+02  0.31844092411E+02  0.00000000000E+00 0.  1.
<mgrwt>
<rscale>  1 0.87904110E+02</rscale>
<asrwt>0</asrwt>
<pdfrwt beam="1">  1       21 0.55620131E-02 0.87904110E+02</pdfrwt>
<pdfrwt beam="2">  1       -1 0.14793410E-01 0.87904110E+02</pdfrwt>
<totfact> 0.61531403E+05</totfact>
</mgrwt>
</event>
<event>
 6    2  0.8544106E+000  0.8781725E+02  0.7546771E-02  0.1308225E+00
         21   -1    0    0  501  502  0.00000000000E+00  0.00000000000E+00  0.36435533199E+01  0.36435533199E+01  0.00000000000E+00 0.  1.
         -1   -1    0    0    0  501 -0.00000000000E+00 -0.00000000000E+00 -0.13164447629E+04  0.13164447629E+04  0.00000000000E+00 0.  1.
         24    2    1    2    0    0  0.29408815120E+02  0.14234723675E+01 -0.12091956907E+04  0.12123803396E+04  0.82734302503E+02 0.  0.
        -11    1    3    3    0    0  0.41596728352E+02 -0.91628219991E+01 -0.11561073978E+04  0.11568917669E+04  0.00000000000E+00 0.  1.
         12    1    3    3    0    0 -0.12187913232E+02  0.10586294367E+02 -0.53088292886E+02  0.55488572688E+02  0.00000000000E+00 0. -1.
         -2    1    1    2    0  502 -0.29408815120E+02 -0.14234723675E+01 -0.10360551883E+03  0.10770797655E+03  0.00000000000E+00 0.  1.
<mgrwt>
<rscale>  1 0.87817251E+02</rscale>
<asrwt>0</asrwt>
<pdfrwt beam="1">  1       21 0.56054746E-03 0.87817251E+02</pdfrwt>
<pdfrwt beam="2">  1       -1 0.20252968E+00 0.87817251E+02</pdfrwt>
<totfact> 0.13731908E+05</totfact>
</mgrwt>
</event>
<event>
 6    2  0.8544106E+000  0.9210974E+02  0.7546771E-02  0.1297822E+00
         21   -1    0    0  501  502  0.00000000000E+00  0.00000000000E+00  0.61055213229E+01  0.61055213229E+01  0.00000000000E+00 0.  1.
          2   -1    0    0  502    0 -0.00000000000E+00 -0.00000000000E+00 -0.12446622586E+04  0.12446622586E+04  0.00000000000E+00 0. -1.
         24    2    1    2    0    0 -0.26563706453E+02 -0.30886047443E+02 -0.11453427831E+04  0.11490405973E+04  0.82611288919E+02 0.  0.
        -11    1    3    3    0    0 -0.19986424410E+02 -0.40645210034E+02 -0.28173180440E+03  0.28534943467E+03  0.00000000000E+00 0.  1.
         12    1    3    3    0    0 -0.65772820437E+01  0.97591625908E+01 -0.86361097872E+03  0.86369116267E+03  0.00000000000E+00 0. -1.
          1    1    1    2  501    0  0.26563706453E+02  0.30886047443E+02 -0.93213954156E+02  0.10172718258E+03  0.00000000000E+00 0. -1.
<mgrwt>
<rscale>  1 0.92109736E+02</rscale>
<asrwt>0</asrwt>
<pdfrwt beam="1">  1       21 0.93931162E-03 0.92109736E+02</pdfrwt>
<pdfrwt beam="2">  1        2 0.19148637E+00 0.92109736E+02</pdfrwt>
<totfact> 0.95986150E+05</totfact>
</mgrwt>
</event>
<event>
 6    2  0.8544106E+000  0.8791610E+02  0.7546771E-02  0.1307978E+00
         21   -1    0    0  501  502  0.00000000000E+00  0.00000000000E+00  0.30818641454E+02  0.30818641454E+02  0.00000000000E+00 0.  1.
         -3   -1    0    0    0  501 -0.00000000000E+00 -0.00000000000E+00 -0.13412964688E+03  0.13412964688E+03  0.00000000000E+00 0.  1.
         24    2    1    2    0    0 -0.18380793700E+01  0.37335120331E+02 -0.88485130602E+02  0.12473515229E+03  0.79573551725E+02 0.  0.
        -11    1    3    3    0    0  0.12934551548E+01  0.48906651868E+02 -0.97932018914E+02  0.10947243467E+03  0.00000000000E+00 0.  1.
         12    1    3    3    0    0 -0.31315345248E+01 -0.11571531537E+02  0.94468883118E+01  0.15262717628E+02  0.00000000000E+00 0. -1.
         -4    1    1    2    0  502  0.18380793700E+01 -0.37335120331E+02 -0.14825874823E+02  0.40213136040E+02  0.00000000000E+00 0.  1.
<mgrwt>
<rscale>  1 0.87916096E+02</rscale>
<asrwt>0</asrwt>
<pdfrwt beam="1">  1       21 0.47413294E-02 0.87916096E+02</pdfrwt>
<pdfrwt beam="2">  1       -3 0.20635330E-01 0.87916096E+02</pdfrwt>
<totfact> 0.27588829E+05</totfact>
</mgrwt>
</event>
<event>
 6    2  0.8544106E+000  0.1034244E+03  0.7546771E-02  0.1273255E+00
          2   -1    0    0  502    0 -0.00000000000E+00  0.00000000000E+00  0.15614398525E+04  0.15614398525E+04  0.00000000000E+00 0. -1.
         21   -1    0    0  501  502  0.00000000000E+00 -0.00000000000E+00 -0.25361181411E+02  0.25361181411E+02  0.00000000000E+00 0. -1.
         24    2    1    2    0    0  0.18576338664E+02  0.61883102577E+02  0.15154523188E+04  0.15189774012E+04  0.80759000988E+02 0.  0.
        -13    1    3    3    0    0 -0.17359152398E+02  0.52595636197E+02  0.54308729887E+03  0.54590425471E+03  0.00000000000E+00 0.  1.
         14    1    3    3    0    0  0.35935491062E+02  0.92874663799E+01  0.97236501991E+03  0.97307314653E+03  0.00000000000E+00 0. -1.
          1    1    1    2  501    0 -0.18576338664E+02 -0.61883102577E+02  0.20626352347E+02  0.67823632709E+02  0.00000000000E+00 0. -1.
<mgrwt>
<rscale>  1 0.10342444E+03</rscale>
<asrwt>0</asrwt>
<pdfrwt beam="1">  1       21 0.39017214E-02 0.10342444E+03</pdfrwt>
<pdfrwt beam="2">  1        2 0.24022144E+00 0.10342444E+03</pdfrwt>
<totfact> 0.67270851E+04</totfact>
</mgrwt>
</event>
<event>
 6    2  0.8544106E+000  0.1026351E+03  0.7546771E-02  0.1274850E+00
         21   -1    0    0  501  502  0.00000000000E+00  0.00000000000E+00  0.52699268943E+01  0.52699268943E+01  0.00000000000E+00 0. -1.
          2   -1    0    0  502    0 -0.00000000000E+00 -0.00000000000E+00 -0.13185892036E+04  0.13185892036E+04  0.00000000000E+00 0. -1.
         24    2    1    2    0    0  0.50223881682E+02 -0.26678218475E+02 -0.64389517334E+03  0.65202373712E+03  0.85438831198E+02 0.  0.
        -11    1    3    3    0    0  0.52352453298E+01 -0.11550801548E+02 -0.94748534805E+01  0.15830402981E+02  0.00000000000E+00 0.  1.
         12    1    3    3    0    0  0.44988636352E+02 -0.15127416926E+02 -0.63442031986E+03  0.63619333414E+03  0.00000000000E+00 0. -1.
          1    1    1    2  501    0 -0.50223881682E+02  0.26678218475E+02 -0.66942410333E+03  0.67183539334E+03  0.00000000000E+00 0. -1.
<mgrwt>
<rscale>  1 0.10263508E+03</rscale>
<asrwt>0</asrwt>
<pdfrwt beam="1">  1       21 0.81075844E-03 0.10263508E+03</pdfrwt>
<pdfrwt beam="2">  1        2 0.20285976E+00 0.10263508E+03</pdfrwt>
<totfact> 0.11106658E+06</totfact>
</mgrwt>
</event>
<event>
 6    2  0.8544106E+000  0.9786458E+02  0.7546771E-02  0.1284852E+00
          2   -1    0    0  502    0 -0.00000000000E+00  0.00000000000E+00  0.36729298605E+04  0.36729298605E+04  0.00000000000E+00 0. -1.
         21   -1    0    0  501  502  0.00000000000E+00 -0.00000000000E+00 -0.24447049927E+01  0.24447049927E+01  0.00000000000E+00 0. -1.
         24    2    1    2    0    0 -0.30798493772E+02  0.45020020273E+02  0.32359055212E+04  0.32373850588E+04  0.81253474825E+02 0.  0.
        -13    1    3    3    0    0 -0.39226643273E+02  0.17417270982E+02  0.69957608722E+03  0.70089142717E+03  0.00000000000E+00 0.  1.
         14    1    3    3    0    0  0.84281495006E+01  0.27602749291E+02  0.25363294340E+04  0.25364936316E+04  0.00000000000E+00 0. -1.
          1    1    1    2  501    0  0.30798493772E+02 -0.45020020273E+02  0.43457963426E+03  0.43798950667E+03  0.00000000000E+00 0. -1.
<mgrwt>
<rscale>  1 0.97864583E+02</rscale>
<asrwt>0</asrwt>
<pdfrwt beam="1">  1       21 0.37611140E-03 0.97864583E+02</pdfrwt>
<pdfrwt beam="2">  1        2 0.56506172E+00 0.97864583E+02</pdfrwt>
<totfact> 0.18442362E+05</totfact>
</mgrwt>
</event>
<event>
 6    2  0.8544106E+000  0.9913123E+02  0.7546771E-02  0.1282134E+00
         21   -1    0    0  501  502  0.00000000000E+00  0.00000000000E+00  0.31293064228E+02  0.31293064228E+02  0.00000000000E+00 0. -1.
          2   -1    0    0  502    0 -0.00000000000E+00 -0.00000000000E+00 -0.36121963875E+03  0.36121963875E+03  0.00000000000E+00 0. -1.
         24    2    1    2    0    0 -0.44802265467E+01 -0.58737681920E+02 -0.31708676893E+03  0.33222134112E+03  0.79729622817E+02 0.  0.
        -13    1    3    3    0    0 -0.73334373960E+01  0.22693625158E+01  0.15099530931E+01  0.78236352556E+01  0.00000000000E+00 0.  1.
         14    1    3    3    0    0  0.28532108493E+01 -0.61007044435E+02 -0.31859672203E+03  0.32439770586E+03  0.00000000000E+00 0. -1.
          1    1    1    2  501    0  0.44802265467E+01  0.58737681920E+02 -0.12839805586E+02  0.60291361858E+02  0.00000000000E+00 0. -1.
<mgrwt>
<rscale>  1 0.99131228E+02</rscale>
<asrwt>0</asrwt>
<pdfrwt beam="1">  1       21 0.48143176E-02 0.99131228E+02</pdfrwt>
<pdfrwt beam="2">  1        2 0.55572252E-01 0.99131228E+02</pdfrwt>
<totfact> 0.30732209E+05</totfact>
</mgrwt>
</event>
<event>
 6    2  0.8544106E+000  0.8854935E+02  0.7546771E-02  0.1306403E+00
         21   -1    0    0  501  502  0.00000000000E+00  0.00000000000E+00  0.28215423129E+02  0.28215423129E+02  0.00000000000E+00 0. -1.
         -1   -1    0    0    0  501 -0.00000000000E+00 -0.00000000000E+00 -0.14082042401E+03  0.14082042401E+03  0.00000000000E+00 0.  1.
         24    2    1    2    0    0  0.11512933665E+02  0.31736547610E+02 -0.98490548067E+02  0.13244385520E+03  0.81861044614E+02 0.  0.
        -11    1    3    3    0    0  0.41457298803E+02  0.13017064577E+02 -0.83399204307E+02  0.94040304515E+02  0.00000000000E+00 0.  1.
         12    1    3    3    0    0 -0.29944365138E+02  0.18719483034E+02 -0.15091343759E+02  0.38403550682E+02  0.00000000000E+00 0. -1.
         -2    1    1    2    0  502 -0.11512933665E+02 -0.31736547610E+02 -0.14114452810E+02  0.36591991937E+02  0.00000000000E+00 0.  1.
<mgrwt>
<rscale>  1 0.88549346E+02</rscale>
<asrwt>0</asrwt>
<pdfrwt beam="1">  1       21 0.43408345E-02 0.88549346E+02</pdfrwt>
<pdfrwt beam="2">  1       -1 0.21664680E-01 0.88549346E+02</pdfrwt>
<totfact> 0.51041861E+05</totfact>
</mgrwt>
</event>
<event>
 6    2  0.8544106E+000  0.1108424E+03  0.7546771E-02  0.1259018E+00
         -1   -1    0    0    0  501 -0.00000000000E+00  0.00000000000E+00  0.29681628361E+03  0.29681628361E+03  0.00000000000E+00 0.  1.
         21   -1    0    0  501  502  0.00000000000E+00 -0.00000000000E+00 -0.37769342173E+02  0.37769342173E+02  0.00000000000E+00 0.  1.
         24    2    1    2    0    0  0.48171161411E+02  0.24444344672E+02  0.25772635754E+03  0.28055109313E+03  0.96788706501E+02 0.  0.
        -13    1    3    3    0    0  0.71416254254E+02  0.40012037431E+02  0.20740828168E+03  0.22297856359E+03  0.00000000000E+00 0.  1.
         14    1    3    3    0    0 -0.23245092843E+02 -0.15567692759E+02  0.50318075854E+02  0.57572529533E+02  0.00000000000E+00 0. -1.
         -2    1    1    2    0  502 -0.48171161411E+02 -0.24444344672E+02  0.13205839046E+01  0.54034532662E+02  0.00000000000E+00 0.  1.
<mgrwt>
<rscale>  1 0.11084241E+03</rscale>
<asrwt>0</asrwt>
<pdfrwt beam="1">  1       21 0.58106682E-02 0.11084241E+03</pdfrwt>
<pdfrwt beam="2">  1       -1 0.45664042E-01 0.11084241E+03</pdfrwt>
<totfact> 0.91185386E+04</totfact>
</mgrwt>
</event>
<event>
 6    2  0.8544106E+000  0.9587875E+02  0.7546771E-02  0.1289209E+00
         21   -1    0    0  501  502  0.00000000000E+00  0.00000000000E+00  0.68638040805E+01  0.68638040805E+01  0.00000000000E+00 0. -1.
          2   -1    0    0  502    0 -0.00000000000E+00 -0.00000000000E+00 -0.10169979677E+04  0.10169979677E+04  0.00000000000E+00 0. -1.
         24    2    1    2    0    0 -0.88596853868E+01 -0.50356410082E+02 -0.85854259528E+03  0.86387969262E+03  0.81107788444E+02 0.  0.
        -11    1    3    3    0    0  0.32449497754E+02 -0.91987860787E+01 -0.20666796460E+03  0.20940208968E+03  0.00000000000E+00 0.  1.
         12    1    3    3    0    0 -0.41309183141E+02 -0.41157624004E+02 -0.65187463068E+03  0.65447760294E+03  0.00000000000E+00 0. -1.
          1    1    1    2  501    0  0.88596853868E+01  0.50356410082E+02 -0.15159156834E+03  0.15998207917E+03  0.00000000000E+00 0. -1.
<mgrwt>
<rscale>  1 0.95878754E+02</rscale>
<asrwt>0</asrwt>
<pdfrwt beam="1">  1       21 0.10559698E-02 0.95878754E+02</pdfrwt>
<pdfrwt beam="2">  1        2 0.15646124E+00 0.95878754E+02</pdfrwt>
<totfact> 0.10735731E+06</totfact>
</mgrwt>
</event>
<event>
 6    2  0.8544106E+000  0.8533857E+02  0.7546771E-02  0.1314550E+00
         21   -1    0    0  501  502  0.00000000000E+00  0.00000000000E+00  0.12382097872E+02  0.12382097872E+02  0.00000000000E+00 0.  1.
          2   -1    0    0  502    0 -0.00000000000E+00 -0.00000000000E+00 -0.25676186392E+03  0.25676186392E+03  0.00000000000E+00 0. -1.
         24    2    1    2    0    0 -0.24968580199E+01 -0.27315814105E+02 -0.18435493994E+03  0.20314875174E+03  0.80810169249E+02 0.  0.
        -11    1    3    3    0    0  0.60057007255E+01 -0.48017964312E+02 -0.61420709106E+02  0.78193969364E+02  0.00000000000E+00 0.  1.
         12    1    3    3    0    0 -0.85025587454E+01  0.20702150207E+02 -0.12293423083E+03  0.12495478238E+03  0.00000000000E+00 0. -1.
          1    1    1    2  501    0  0.24968580199E+01  0.27315814105E+02 -0.60024826112E+02  0.65995210054E+02  0.00000000000E+00 0. -1.
<mgrwt>
<rscale>  1 0.85338570E+02</rscale>
<asrwt>0</asrwt>
<pdfrwt beam="1">  1       21 0.19049382E-02 0.85338570E+02</pdfrwt>
<pdfrwt beam="2">  1        2 0.39501823E-01 0.85338570E+02</pdfrwt>
<totfact> 0.19589304E+06</totfact>
</mgrwt>
</event>
<event>
 6    2  0.8544106E+000  0.1098446E+03  0.7546771E-02  0.1260858E+00
          2   -1    0    0  502    0 -0.00000000000E+00  0.00000000000E+00  0.14022968246E+04  0.14022968246E+04  0.00000000000E+00 0. -1.
         21   -1    0    0  501  502  0.00000000000E+00 -0.00000000000E+00 -0.62485491247E+01  0.62485491247E+01  0.00000000000E+00 0.  1.
         24    2    1    2    0    0 -0.41458359621E+02 -0.62207971798E+02  0.94219515404E+03  0.94857658873E+03  0.80481109848E+02 0.  0.
        -11    1    3    3    0    0  0.61551737913E+01  0.10325096990E+02  0.30828301468E+02  0.33088940201E+02  0.00000000000E+00 0.  1.
         12    1    3    3    0    0 -0.47613533412E+02 -0.72533068787E+02  0.91136685258E+03  0.91548764853E+03  0.00000000000E+00 0. -1.
          1    1    1    2  501    0  0.41458359621E+02  0.62207971798E+02  0.45385312141E+03  0.45996878497E+03  0.00000000000E+00 0. -1.
<mgrwt>
<rscale>  1 0.10984460E+03</rscale>
<asrwt>0</asrwt>
<pdfrwt beam="1">  1       21 0.96131636E-03 0.10984460E+03</pdfrwt>
<pdfrwt beam="2">  1        2 0.21573772E+00 0.10984460E+03</pdfrwt>
<totfact> 0.77209422E+05</totfact>
</mgrwt>
</event>
<event>
 6    2  0.8544106E+000  0.8313625E+02  0.7546771E-02  0.1320380E+00
          2   -1    0    0  502    0 -0.00000000000E+00  0.00000000000E+00  0.11688711899E+04  0.11688711899E+04  0.00000000000E+00 0. -1.
         21   -1    0    0  501  502  0.00000000000E+00 -0.00000000000E+00 -0.26837835984E+01  0.26837835984E+01  0.00000000000E+00 0.  1.
         24    2    1    2    0    0  0.39474545053E+01  0.19808219930E+02  0.10723834904E+04  0.10756012211E+04  0.80645447654E+02 0.  0.
        -11    1    3    3    0    0  0.39289107503E+02  0.11591844438E+02  0.36574782290E+03  0.36803461084E+03  0.00000000000E+00 0.  1.
         12    1    3    3    0    0 -0.35341652998E+02  0.82163754918E+01  0.70663566753E+03  0.70756661021E+03  0.00000000000E+00 0. -1.
          1    1    1    2  501    0 -0.39474545053E+01 -0.19808219930E+02  0.93803915851E+02  0.95953752417E+02  0.00000000000E+00 0. -1.
<mgrwt>
<rscale>  1 0.83136251E+02</rscale>
<asrwt>0</asrwt>
<pdfrwt beam="1">  1       21 0.41289072E-03 0.83136251E+02</pdfrwt>
<pdfrwt beam="2">  1        2 0.17982593E+00 0.83136251E+02</pdfrwt>
<totfact> 0.37088182E+06</totfact>
</mgrwt>
</event>
<event>
 6    2  0.8544106E+000  0.8068100E+02  0.7546771E-02  0.1327130E+00
         21   -1    0    0  501  502  0.00000000000E+00  0.00000000000E+00  0.95053415497E+01  0.95053415497E+01  0.00000000000E+00 0. -1.
          4   -1    0    0  502    0 -0.00000000000E+00 -0.00000000000E+00 -0.93596468411E+03  0.93596468411E+03  0.00000000000E+00 0. -1.
         24    2    1    2    0    0  0.19181105210E+02 -0.60261148990E+01 -0.92114838027E+03  0.92467494984E+03  0.78135750698E+02 0.  0.
        -13    1    3    3    0    0  0.29101926647E+02 -0.22944317662E+02 -0.20923883319E+03  0.21249530150E+03  0.00000000000E+00 0.  1.
         14    1    3    3    0    0 -0.99208214373E+01  0.16918202763E+02 -0.71190954708E+03  0.71217964834E+03  0.00000000000E+00 0. -1.
          3    1    1    2  501    0 -0.19181105210E+02  0.60261148990E+01 -0.53109622941E+01  0.20795075819E+02  0.00000000000E+00 0. -1.
<mgrwt>
<rscale>  1 0.80681004E+02</rscale>
<asrwt>0</asrwt>
<pdfrwt beam="1">  1       21 0.14623601E-02 0.80681004E+02</pdfrwt>
<pdfrwt beam="2">  1        4 0.14399458E+00 0.80681004E+02</pdfrwt>
<totfact> 0.27354152E+04</totfact>
</mgrwt>
</event>
<event>
 6    2  0.8544106E+000  0.1077550E+03  0.7546771E-02  0.1264785E+00
          4   -1    0    0  502    0 -0.00000000000E+00  0.00000000000E+00  0.13608334663E+04  0.13608334663E+04  0.00000000000E+00 0. -1.
         21   -1    0    0  501  502  0.00000000000E+00 -0.00000000000E+00 -0.15661950311E+02  0.15661950311E+02  0.00000000000E+00 0. -1.
         24    2    1    2    0    0 -0.63291963917E+02 -0.34877786234E+02  0.12608404692E+04  0.12654366119E+04  0.79929951247E+02 0.  0.
        -13    1    3    3    0    0 -0.18146181260E+02 -0.18222339658E+02  0.89848702069E+02  0.93456550441E+02  0.00000000000E+00 0.  1.
         14    1    3    3    0    0 -0.45145782657E+02 -0.16655446576E+02  0.11709917672E+04  0.11719800614E+04  0.00000000000E+00 0. -1.
          3    1    1    2  501    0  0.63291963917E+02  0.34877786234E+02  0.84331046810E+02  0.11105880481E+03  0.00000000000E+00 0. -1.
<mgrwt>
<rscale>  1 0.10775495E+03</rscale>
<asrwt>0</asrwt>
<pdfrwt beam="1">  1       21 0.24095319E-02 0.10775495E+03</pdfrwt>
<pdfrwt beam="2">  1        4 0.20935890E+00 0.10775495E+03</pdfrwt>
<totfact> 0.46977585E+03</totfact>
</mgrwt>
</event>
<event>
 6    2  0.8544106E+000  0.8236718E+02  0.7546771E-02  0.1322465E+00
         21   -1    0    0  501  502  0.00000000000E+00  0.00000000000E+00  0.91934931935E+01  0.91934931935E+01  0.00000000000E+00 0. -1.
          2   -1    0    0  502    0 -0.00000000000E+00 -0.00000000000E+00 -0.80389575759E+03  0.80389575759E+03  0.00000000000E+00 0. -1.
         24    2    1    2    0    0  0.22498946278E+02 -0.20878917644E+02 -0.76800455145E+03  0.77240879279E+03  0.76434418647E+02 0.  0.
        -13    1    3    3    0    0  0.32255639425E+02 -0.40190539855E+01 -0.12652876166E+03  0.13063730936E+03  0.00000000000E+00 0.  1.
         14    1    3    3    0    0 -0.97566931467E+01 -0.16859863659E+02 -0.64147578979E+03  0.64177148344E+03  0.00000000000E+00 0. -1.
          1    1    1    2  501    0 -0.22498946278E+02  0.20878917644E+02 -0.26697712949E+02  0.40680457990E+02  0.00000000000E+00 0. -1.
<mgrwt>
<rscale>  1 0.82367179E+02</rscale>
<asrwt>0</asrwt>
<pdfrwt beam="1">  1       21 0.14143834E-02 0.82367179E+02</pdfrwt>
<pdfrwt beam="2">  1        2 0.12367629E+00 0.82367179E+02</pdfrwt>
<totfact> 0.90634433E+05</totfact>
</mgrwt>
</event>
<event>
 6    2  0.8544106E+000  0.1134319E+03  0.7546771E-02  0.1254343E+00
          4   -1    0    0  502    0 -0.00000000000E+00  0.00000000000E+00  0.10165847182E+03  0.10165847182E+03  0.00000000000E+00 0. -1.
         21   -1    0    0  501  502  0.00000000000E+00 -0.00000000000E+00 -0.11443856505E+03  0.11443856505E+03  0.00000000000E+00 0. -1.
         24    2    1    2    0    0 -0.80416416444E+02  0.55748900578E+01  0.39392003380E+02  0.12007721028E+03  0.79805557867E+02 0.  0.
        -13    1    3    3    0    0 -0.38248098417E+02  0.24563590242E+02 -0.15751486806E+02  0.48108173263E+02  0.00000000000E+00 0.  1.
         14    1    3    3    0    0 -0.42168318027E+02 -0.18988700184E+02  0.55143490186E+02  0.71969037022E+02  0.00000000000E+00 0. -1.
          3    1    1    2  501    0  0.80416416444E+02 -0.55748900578E+01 -0.52172096606E+02  0.96019826584E+02  0.00000000000E+00 0. -1.
<mgrwt>
<rscale>  1 0.11343195E+03</rscale>
<asrwt>0</asrwt>
<pdfrwt beam="1">  1       21 0.17605933E-01 0.11343195E+03</pdfrwt>
<pdfrwt beam="2">  1        4 0.15639765E-01 0.11343195E+03</pdfrwt>
<totfact> 0.40691017E+04</totfact>
</mgrwt>
</event>
<event>
 6    2  0.8544106E+000  0.8604414E+02  0.7546771E-02  0.1312724E+00
         21   -1    0    0  501  502  0.00000000000E+00  0.00000000000E+00  0.45059386459E+01  0.45059386459E+01  0.00000000000E+00 0.  1.
          2   -1    0    0  502    0 -0.00000000000E+00 -0.00000000000E+00 -0.82067421673E+03  0.82067421673E+03  0.00000000000E+00 0. -1.
         24    2    1    2    0    0 -0.11777692750E+02 -0.28713193344E+02 -0.68538981418E+03  0.69076970884E+03  0.80252300540E+02 0.  0.
        -13    1    3    3    0    0  0.55117690832E+00 -0.14821450337E+01  0.21008669004E+01  0.26294850481E+01  0.00000000000E+00 0.  1.
         14    1    3    3    0    0 -0.12328869659E+02 -0.27231048311E+02 -0.68749068108E+03  0.68814022379E+03  0.00000000000E+00 0. -1.
          1    1    1    2  501    0  0.11777692750E+02  0.28713193344E+02 -0.13077846390E+03  0.13441044654E+03  0.00000000000E+00 0. -1.
<mgrwt>
<rscale>  1 0.86044136E+02</rscale>
<asrwt>0</asrwt>
<pdfrwt beam="1">  1       21 0.69322079E-03 0.86044136E+02</pdfrwt>
<pdfrwt beam="2">  1        2 0.12625767E+00 0.86044136E+02</pdfrwt>
<totfact> 0.26996692E+06</totfact>
</mgrwt>
</event>
<event>
 6    2  0.8544106E+000  0.1862959E+03  0.7546771E-02  0.1161845E+00
         21   -1    0    0  501  502  0.00000000000E+00  0.00000000000E+00  0.20476695806E+04  0.20476695806E+04  0.00000000000E+00 0.  1.
         -1   -1    0    0    0  501 -0.00000000000E+00 -0.00000000000E+00 -0.15830363808E+02  0.15830363808E+02  0.00000000000E+00 0.  1.
         24    2    1    2    0    0  0.28937589199E+01 -0.16764721277E+03  0.87845470033E+03  0.89799155551E+03  0.81192434594E+02 0.  0.
        -11    1    3    3    0    0  0.30096675507E+00 -0.17501733621E+03  0.78809899543E+03  0.80729869636E+03  0.00000000000E+00 0.  1.
         12    1    3    3    0    0  0.25927921648E+01  0.73701234430E+01  0.90355704904E+02  0.90692859142E+02  0.00000000000E+00 0. -1.
         -2    1    1    2    0  502 -0.28937589199E+01  0.16764721277E+03  0.11533845164E+04  0.11655083889E+04  0.00000000000E+00 0.  1.
<mgrwt>
<rscale>  1 0.18629593E+03</rscale>
<asrwt>0</asrwt>
<pdfrwt beam="1">  1       21 0.31502588E+00 0.18629593E+03</pdfrwt>
<pdfrwt beam="2">  1       -1 0.24354422E-02 0.18629593E+03</pdfrwt>
<totfact> 0.12642674E+03</totfact>
</mgrwt>
</event>
<event>
 6    2  0.8544106E+000  0.1723296E+03  0.7546771E-02  0.1175440E+00
          2   -1    0    0  502    0 -0.00000000000E+00  0.00000000000E+00  0.36745460105E+03  0.36745460105E+03  0.00000000000E+00 0. -1.
         21   -1    0    0  501  502  0.00000000000E+00 -0.00000000000E+00 -0.73461788867E+02  0.73461788867E+02  0.00000000000E+00 0. -1.
         24    2    1    2    0    0 -0.15249840129E+03  0.89929818437E+01  0.18770527941E+03  0.25481513861E+03  0.79754917254E+02 0.  0.
        -11    1    3    3    0    0 -0.69917300894E+02  0.11250294208E+02  0.14601028723E+03  0.16227754638E+03  0.00000000000E+00 0.  1.
         12    1    3    3    0    0 -0.82581100392E+02 -0.22573123647E+01  0.41694992187E+02  0.92537592223E+02  0.00000000000E+00 0. -1.
          1    1    1    2  501    0  0.15249840129E+03 -0.89929818437E+01  0.10628753277E+03  0.18610125131E+03  0.00000000000E+00 0. -1.
<mgrwt>
<rscale>  1 0.17232958E+03</rscale>
<asrwt>0</asrwt>
<pdfrwt beam="1">  1       21 0.11301814E-01 0.17232958E+03</pdfrwt>
<pdfrwt beam="2">  1        2 0.56531476E-01 0.17232958E+03</pdfrwt>
<totfact> 0.71180095E+04</totfact>
</mgrwt>
</event>
<event>
 6    2  0.8544106E+000  0.9604756E+02  0.7546771E-02  0.1288834E+00
         21   -1    0    0  501  502  0.00000000000E+00  0.00000000000E+00  0.12804299726E+01  0.12804299726E+01  0.00000000000E+00 0.  1.
          2   -1    0    0  502    0 -0.00000000000E+00 -0.00000000000E+00 -0.34029955756E+04  0.34029955756E+04  0.00000000000E+00 0. -1.
         24    2    1    2    0    0  0.14668452398E+02  0.23366132260E+02 -0.30371982697E+04  0.30387165816E+04  0.91999967825E+02 0.  0.
        -11    1    3    3    0    0  0.47922545686E+02  0.36626018328E+01 -0.10027609895E+04  0.10039121412E+04  0.00000000000E+00 0.  1.
         12    1    3    3    0    0 -0.33254093288E+02  0.19703530427E+02 -0.20344372802E+04  0.20348044404E+04  0.00000000000E+00 0. -1.
          1    1    1    2  501    0 -0.14668452398E+02 -0.23366132260E+02 -0.36451687597E+03  0.36555942404E+03  0.00000000000E+00 0. -1.
<mgrwt>
<rscale>  1 0.96047560E+02</rscale>
<asrwt>0</asrwt>
<pdfrwt beam="1">  1       21 0.19698780E-03 0.96047560E+02</pdfrwt>
<pdfrwt beam="2">  1        2 0.52354158E+00 0.96047560E+02</pdfrwt>
<totfact> 0.73265667E+05</totfact>
</mgrwt>
</event>
<event>
 6    2  0.8544106E+000  0.9028794E+02  0.7546771E-02  0.1302156E+00
          2   -1    0    0  502    0 -0.00000000000E+00  0.00000000000E+00  0.11128466337E+03  0.11128466337E+03  0.00000000000E+00 0. -1.
         21   -1    0    0  501  502  0.00000000000E+00 -0.00000000000E+00 -0.39832508702E+02  0.39832508702E+02  0.00000000000E+00 0. -1.
         24    2    1    2    0    0 -0.41232602311E+02  0.48542123155E+01  0.58673535060E+02  0.10767774310E+03  0.80176192049E+02 0.  0.
        -11    1    3    3    0    0  0.17940486700E+02  0.16140345749E+02  0.80512494803E+00  0.24145808127E+02  0.00000000000E+00 0.  1.
         12    1    3    3    0    0 -0.59173089011E+02 -0.11286133433E+02  0.57868410112E+02  0.83531934970E+02  0.00000000000E+00 0. -1.
          1    1    1    2  501    0  0.41232602311E+02 -0.48542123155E+01  0.12778619608E+02  0.43439428974E+02  0.00000000000E+00 0. -1.
<mgrwt>
<rscale>  1 0.90287943E+02</rscale>
<asrwt>0</asrwt>
<pdfrwt beam="1">  1       21 0.61280783E-02 0.90287943E+02</pdfrwt>
<pdfrwt beam="2">  1        2 0.17120717E-01 0.90287943E+02</pdfrwt>
<totfact> 0.72375746E+05</totfact>
</mgrwt>
</event>
<event>
 6    2  0.8544106E+000  0.8377106E+02  0.7546771E-02  0.1318678E+00
         -3   -1    0    0    0  501 -0.00000000000E+00  0.00000000000E+00  0.32236620090E+02  0.32236620090E+02  0.00000000000E+00 0.  1.
         21   -1    0    0  501  502  0.00000000000E+00 -0.00000000000E+00 -0.99962245654E+02  0.99962245654E+02  0.00000000000E+00 0. -1.
         24    2    1    2    0    0  0.12992422112E+02 -0.16608948701E+02 -0.72259339956E+02  0.11063002768E+03  0.81073612255E+02 0.  0.
        -11    1    3    3    0    0  0.31369289622E+02 -0.34121508439E+02 -0.16214390026E+02  0.49104135400E+02  0.00000000000E+00 0.  1.
         12    1    3    3    0    0 -0.18376867510E+02  0.17512559738E+02 -0.56044949930E+02  0.61525892279E+02  0.00000000000E+00 0. -1.
         -4    1    1    2    0  502 -0.12992422112E+02  0.16608948701E+02  0.45337143918E+01  0.21568838065E+02  0.00000000000E+00 0.  1.
<mgrwt>
<rscale>  1 0.83771062E+02</rscale>
<asrwt>0</asrwt>
<pdfrwt beam="1">  1       21 0.15378807E-01 0.83771062E+02</pdfrwt>
<pdfrwt beam="2">  1       -3 0.49594801E-02 0.83771062E+02</pdfrwt>
<totfact> 0.37809606E+05</totfact>
</mgrwt>
</event>
<event>
 6    2  0.8544106E+000  0.8999295E+02  0.7546771E-02  0.1302869E+00
         21   -1    0    0  501  502  0.00000000000E+00  0.00000000000E+00  0.98332864421E+01  0.98332864421E+01  0.00000000000E+00 0. -1.
         -1   -1    0    0    0  501 -0.00000000000E+00 -0.00000000000E+00 -0.42662396062E+03  0.42662396062E+03  0.00000000000E+00 0.  1.
         24    2    1    2    0    0 -0.22485572307E+02  0.32190187276E+02 -0.27661570544E+03  0.29088653923E+03  0.80974817622E+02 0.  0.
        -13    1    3    3    0    0  0.46900890446E+01  0.37648588617E+02 -0.24859145123E+03  0.25146992421E+03  0.00000000000E+00 0.  1.
         14    1    3    3    0    0 -0.27175661352E+02 -0.54584013412E+01 -0.28024254215E+02  0.39416615017E+02  0.00000000000E+00 0. -1.
         -2    1    1    2    0  502  0.22485572307E+02 -0.32190187276E+02 -0.14017496874E+03  0.14557070784E+03  0.00000000000E+00 0.  1.
<mgrwt>
<rscale>  1 0.89992945E+02</rscale>
<asrwt>0</asrwt>
<pdfrwt beam="1">  1       21 0.15128132E-02 0.89992945E+02</pdfrwt>
<pdfrwt beam="2">  1       -1 0.65634459E-01 0.89992945E+02</pdfrwt>
<totfact> 0.41214820E+05</totfact>
</mgrwt>
</event>
<event>
 6    2  0.8544106E+000  0.8486792E+02  0.7546771E-02  0.1315778E+00
          4   -1    0    0  502    0 -0.00000000000E+00  0.00000000000E+00  0.14827504085E+03  0.14827504085E+03  0.00000000000E+00 0. -1.
         21   -1    0    0  501  502  0.00000000000E+00 -0.00000000000E+00 -0.25039136524E+02  0.25039136524E+02  0.00000000000E+00 0.  1.
         24    2    1    2    0    0 -0.88206059781E+01 -0.23674079357E+02  0.56496478733E+02  0.10195301110E+03  0.81020363121E+02 0.  0.
        -11    1    3    3    0    0 -0.31703639795E+02 -0.42237217803E+02  0.23765761706E+02  0.57912993132E+02  0.00000000000E+00 0.  1.
         12    1    3    3    0    0  0.22883033817E+02  0.18563138446E+02  0.32730717027E+02  0.44040017970E+02  0.00000000000E+00 0. -1.
          3    1    1    2  501    0  0.88206059781E+01  0.23674079357E+02  0.66739425596E+02  0.71361166274E+02  0.00000000000E+00 0. -1.
<mgrwt>
<rscale>  1 0.84867923E+02</rscale>
<asrwt>0</asrwt>
<pdfrwt beam="1">  1       21 0.38521750E-02 0.84867923E+02</pdfrwt>
<pdfrwt beam="2">  1        4 0.22811544E-01 0.84867923E+02</pdfrwt>
<totfact> 0.27120223E+05</totfact>
</mgrwt>
</event>
<event>
 6    2  0.8544106E+000  0.8728671E+02  0.7546771E-02  0.1309559E+00
          2   -1    0    0  502    0 -0.00000000000E+00  0.00000000000E+00  0.10185554619E+04  0.10185554619E+04  0.00000000000E+00 0. -1.
         21   -1    0    0  501  502  0.00000000000E+00 -0.00000000000E+00 -0.96380562198E+01  0.96380562198E+01  0.00000000000E+00 0. -1.
         24    2    1    2    0    0  0.19358135332E+02 -0.27439573416E+02  0.97999486781E+03  0.98387443883E+03  0.80568622065E+02 0.  0.
        -13    1    3    3    0    0  0.63041758190E+01 -0.26363809635E+02  0.95236180843E+02  0.99018802421E+02  0.00000000000E+00 0.  1.
         14    1    3    3    0    0  0.13053959512E+02 -0.10757637809E+01  0.88475868697E+03  0.88485563641E+03  0.00000000000E+00 0. -1.
          1    1    1    2  501    0 -0.19358135332E+02  0.27439573416E+02  0.28922537895E+02  0.44319079312E+02  0.00000000000E+00 0. -1.
<mgrwt>
<rscale>  1 0.87286714E+02</rscale>
<asrwt>0</asrwt>
<pdfrwt beam="1">  1       21 0.14827787E-02 0.87286714E+02</pdfrwt>
<pdfrwt beam="2">  1        2 0.15670076E+00 0.87286714E+02</pdfrwt>
<totfact> 0.62353865E+05</totfact>
</mgrwt>
</event>
<event>
 6    2  0.8544106E+000  0.8528287E+02  0.7546771E-02  0.1314694E+00
          4   -1    0    0  502    0 -0.00000000000E+00  0.00000000000E+00  0.69537081271E+03  0.69537081271E+03  0.00000000000E+00 0. -1.
         21   -1    0    0  501  502  0.00000000000E+00 -0.00000000000E+00 -0.54927747039E+01  0.54927747039E+01  0.00000000000E+00 0. -1.
         24    2    1    2    0    0  0.28541997970E+02  0.77207573714E+01  0.37378515133E+03  0.38339080315E+03  0.79993204968E+02 0.  0.
        -13    1    3    3    0    0 -0.11705754155E+02  0.23263697121E+02  0.46685587695E+02  0.53458099317E+02  0.00000000000E+00 0.  1.
         14    1    3    3    0    0  0.40247752125E+02 -0.15542939750E+02  0.32709956364E+03  0.32993270383E+03  0.00000000000E+00 0. -1.
          3    1    1    2  501    0 -0.28541997970E+02 -0.77207573714E+01  0.31609288667E+03  0.31747278426E+03  0.00000000000E+00 0. -1.
<mgrwt>
<rscale>  1 0.85282874E+02</rscale>
<asrwt>0</asrwt>
<pdfrwt beam="1">  1       21 0.84504282E-03 0.85282874E+02</pdfrwt>
<pdfrwt beam="2">  1        4 0.10698006E+00 0.85282874E+02</pdfrwt>
<totfact> 0.13247677E+05</totfact>
</mgrwt>
</event>
<event>
 6    2  0.8544106E+000  0.8470741E+02  0.7546771E-02  0.1316199E+00
         -1   -1    0    0    0  501 -0.00000000000E+00  0.00000000000E+00  0.30531880301E+02  0.30531880301E+02  0.00000000000E+00 0.  1.
         21   -1    0    0  501  502  0.00000000000E+00 -0.00000000000E+00 -0.25882683558E+03  0.25882683558E+03  0.00000000000E+00 0.  1.
         24    2    1    2    0    0  0.23948950668E+02 -0.53990260401E+01 -0.30477133592E+02  0.90023339450E+02  0.81071846244E+02 0.  0.
        -13    1    3    3    0    0  0.14719750675E+02  0.37732358959E+02 -0.16750759946E+02  0.43829099139E+02  0.00000000000E+00 0.  1.
         14    1    3    3    0    0  0.92291999930E+01 -0.43131384999E+02 -0.13726373647E+02  0.46194240312E+02  0.00000000000E+00 0. -1.
         -2    1    1    2    0  502 -0.23948950668E+02  0.53990260401E+01 -0.19781782168E+03  0.19933537643E+03  0.00000000000E+00 0.  1.
<mgrwt>
<rscale>  1 0.84707414E+02</rscale>
<asrwt>0</asrwt>
<pdfrwt beam="1">  1       21 0.39819511E-01 0.84707414E+02</pdfrwt>
<pdfrwt beam="2">  1       -1 0.46972126E-02 0.84707414E+02</pdfrwt>
<totfact> 0.99615154E+04</totfact>
</mgrwt>
</event>
<event>
 6    2  0.8544106E+000  0.9681317E+02  0.7546771E-02  0.1287144E+00
         21   -1    0    0  501  502  0.00000000000E+00  0.00000000000E+00  0.98479182014E+01  0.98479182014E+01  0.00000000000E+00 0. -1.
          2   -1    0    0  502    0 -0.00000000000E+00 -0.00000000000E+00 -0.65275345655E+03  0.65275345655E+03  0.00000000000E+00 0. -1.
         24    2    1    2    0    0 -0.37279673725E+01  0.44855143167E+02 -0.26698931510E+03  0.28400014851E+03  0.85714108334E+02 0.  0.
        -13    1    3    3    0    0 -0.15043043984E+02 -0.22236013399E+02 -0.52307797167E+02  0.58794890157E+02  0.00000000000E+00 0.  1.
         14    1    3    3    0    0  0.11315076611E+02  0.67091156566E+02 -0.21468151793E+03  0.22520525835E+03  0.00000000000E+00 0. -1.
          1    1    1    2  501    0  0.37279673725E+01 -0.44855143167E+02 -0.37591622325E+03  0.37860122624E+03  0.00000000000E+00 0. -1.
<mgrwt>
<rscale>  1 0.96813170E+02</rscale>
<asrwt>0</asrwt>
<pdfrwt beam="1">  1       21 0.15150644E-02 0.96813170E+02</pdfrwt>
<pdfrwt beam="2">  1        2 0.10042361E+00 0.96813170E+02</pdfrwt>
<totfact> 0.10541398E+06</totfact>
</mgrwt>
</event>
<event>
 6    2  0.8544106E+000  0.8495941E+02  0.7546771E-02  0.1315539E+00
         -1   -1    0    0    0  501 -0.00000000000E+00  0.00000000000E+00  0.79541953386E+03  0.79541953386E+03  0.00000000000E+00 0.  1.
         21   -1    0    0  501  502  0.00000000000E+00 -0.00000000000E+00 -0.41646386721E+01  0.41646386721E+01  0.00000000000E+00 0. -1.
         24    2    1    2    0    0 -0.25568060497E+02 -0.72961500097E+01  0.50496683985E+03  0.51206406862E+03  0.80691644576E+02 0.  0.
        -13    1    3    3    0    0 -0.31077026770E+02 -0.28454260480E+02  0.46139036395E+03  0.46331036518E+03  0.00000000000E+00 0.  1.
         14    1    3    3    0    0  0.55089662726E+01  0.21158110470E+02  0.43576475897E+02  0.48753703445E+02  0.00000000000E+00 0. -1.
         -2    1    1    2    0  502  0.25568060497E+02  0.72961500097E+01  0.28628805533E+03  0.28752010390E+03  0.00000000000E+00 0.  1.
<mgrwt>
<rscale>  1 0.84959408E+02</rscale>
<asrwt>0</asrwt>
<pdfrwt beam="1">  1       21 0.64071427E-03 0.84959408E+02</pdfrwt>
<pdfrwt beam="2">  1       -1 0.12237212E+00 0.84959408E+02</pdfrwt>
<totfact> 0.42163772E+05</totfact>
</mgrwt>
</event>
<event>
 6    2  0.8544106E+000  0.8237233E+02  0.7546771E-02  0.1322451E+00
          2   -1    0    0  502    0 -0.00000000000E+00  0.00000000000E+00  0.42485374462E+04  0.42485374462E+04  0.00000000000E+00 0. -1.
         21   -1    0    0  501  502  0.00000000000E+00 -0.00000000000E+00 -0.10072485215E+01  0.10072485215E+01  0.00000000000E+00 0. -1.
         24    2    1    2    0    0 -0.15384026311E+02 -0.14119690695E+02  0.40633045266E+04  0.40641393771E+04  0.79681656547E+02 0.  0.
        -11    1    3    3    0    0  0.47467527159E+01 -0.16759748887E+02  0.19371481165E+03  0.19449639867E+03  0.00000000000E+00 0.  1.
         12    1    3    3    0    0 -0.20130779027E+02  0.26400581921E+01  0.38695897150E+04  0.38696429784E+04  0.00000000000E+00 0. -1.
          1    1    1    2  501    0  0.15384026311E+02  0.14119690695E+02  0.18422567101E+03  0.18540531759E+03  0.00000000000E+00 0. -1.
<mgrwt>
<rscale>  1 0.82372327E+02</rscale>
<asrwt>0</asrwt>
<pdfrwt beam="1">  1       21 0.15496471E-03 0.82372327E+02</pdfrwt>
<pdfrwt beam="2">  1        2 0.65360680E+00 0.82372327E+02</pdfrwt>
<totfact> 0.26685985E+05</totfact>
</mgrwt>
</event>
<event>
 6    2  0.8544106E+000  0.1203470E+03  0.7546771E-02  0.1242526E+00
         21   -1    0    0  501  502  0.00000000000E+00  0.00000000000E+00  0.35430070566E+02  0.35430070566E+02  0.00000000000E+00 0.  1.
          2   -1    0    0  502    0 -0.00000000000E+00 -0.00000000000E+00 -0.32032965322E+03  0.32032965322E+03  0.00000000000E+00 0. -1.
         24    2    1    2    0    0 -0.86682492157E+02 -0.31250857434E+02 -0.14830502146E+03  0.19099156944E+03  0.77414014700E+02 0.  0.
        -11    1    3    3    0    0 -0.76220671006E+02 -0.14848316770E+02 -0.15246102780E+03  0.17109771535E+03  0.00000000000E+00 0.  1.
         12    1    3    3    0    0 -0.10461821151E+02 -0.16402540664E+02  0.41560063426E+01  0.19893854095E+02  0.00000000000E+00 0. -1.
          1    1    1    2  501    0  0.86682492157E+02  0.31250857434E+02 -0.13659456119E+03  0.16476815434E+03  0.00000000000E+00 0. -1.
<mgrwt>
<rscale>  1 0.12034700E+03</rscale>
<asrwt>0</asrwt>
<pdfrwt beam="1">  1       21 0.54507802E-02 0.12034700E+03</pdfrwt>
<pdfrwt beam="2">  1        2 0.49281484E-01 0.12034700E+03</pdfrwt>
<totfact> 0.28677291E+05</totfact>
</mgrwt>
</event>
<event>
 6    2  0.8544106E+000  0.9778233E+02  0.7546771E-02  0.1285030E+00
         21   -1    0    0  501  502  0.00000000000E+00  0.00000000000E+00  0.15367690902E+02  0.15367690902E+02  0.00000000000E+00 0.  1.
         -1   -1    0    0    0  501 -0.00000000000E+00 -0.00000000000E+00 -0.58861851089E+03  0.58861851089E+03  0.00000000000E+00 0.  1.
         24    2    1    2    0    0 -0.14451108573E+02 -0.52307473382E+02 -0.51568643262E+03  0.52487510899E+03  0.81341729422E+02 0.  0.
        -13    1    3    3    0    0 -0.47420570344E+02 -0.36391960439E+02 -0.36100125709E+03  0.36591664747E+03  0.00000000000E+00 0.  1.
         14    1    3    3    0    0  0.32969461771E+02 -0.15915512942E+02 -0.15468517553E+03  0.15895846152E+03  0.00000000000E+00 0. -1.
         -2    1    1    2    0  502  0.14451108573E+02  0.52307473382E+02 -0.57564387375E+02  0.79111092803E+02  0.00000000000E+00 0.  1.
<mgrwt>
<rscale>  1 0.97782326E+02</rscale>
<asrwt>0</asrwt>
<pdfrwt beam="1">  1       21 0.23642599E-02 0.97782326E+02</pdfrwt>
<pdfrwt beam="2">  1       -1 0.90556701E-01 0.97782326E+02</pdfrwt>
<totfact> 0.10645376E+05</totfact>
</mgrwt>
</event>
<event>
 6    2  0.8544106E+000  0.1085275E+03  0.7546771E-02  0.1263321E+00
         21   -1    0    0  501  502  0.00000000000E+00  0.00000000000E+00  0.30802705629E+02  0.30802705629E+02  0.00000000000E+00 0. -1.
          2   -1    0    0  502    0 -0.00000000000E+00 -0.00000000000E+00 -0.33976535926E+03  0.33976535926E+03  0.00000000000E+00 0. -1.
         24    2    1    2    0    0  0.30702630708E+02 -0.66899664698E+02 -0.26112654475E+03  0.28278133479E+03  0.79749572180E+02 0.  0.
        -13    1    3    3    0    0 -0.61688382326E+01 -0.32655671749E+01  0.37227199903E+01  0.79105712967E+01  0.00000000000E+00 0.  1.
         14    1    3    3    0    0  0.36871468941E+02 -0.63634097523E+02 -0.26484926474E+03  0.27487076349E+03  0.00000000000E+00 0. -1.
          1    1    1    2  501    0 -0.30702630708E+02  0.66899664698E+02 -0.47836108888E+02  0.87786730106E+02  0.00000000000E+00 0. -1.
<mgrwt>
<rscale>  1 0.10852747E+03</rscale>
<asrwt>0</asrwt>
<pdfrwt beam="1">  1       21 0.47388781E-02 0.10852747E+03</pdfrwt>
<pdfrwt beam="2">  1        2 0.52271590E-01 0.10852747E+03</pdfrwt>
<totfact> 0.33857777E+05</totfact>
</mgrwt>
</event>
<event>
 6    2  0.8544106E+000  0.8518522E+02  0.7546771E-02  0.1314949E+00
         -1   -1    0    0    0  501 -0.00000000000E+00  0.00000000000E+00  0.56925973949E+02  0.56925973949E+02  0.00000000000E+00 0.  1.
         21   -1    0    0  501  502  0.00000000000E+00 -0.00000000000E+00 -0.11663133088E+03  0.11663133088E+03  0.00000000000E+00 0.  1.
         24    2    1    2    0    0 -0.15741831702E+02 -0.23038431077E+02  0.21361521538E+02  0.87822753121E+02  0.80485693086E+02 0.  0.
        -11    1    3    3    0    0 -0.45138120778E+02 -0.30426217857E+02  0.17962318323E+02  0.57322330378E+02  0.00000000000E+00 0.  1.
         12    1    3    3    0    0  0.29396289077E+02  0.73877867799E+01  0.33992032147E+01  0.30500422742E+02  0.00000000000E+00 0. -1.
         -2    1    1    2    0  502  0.15741831702E+02  0.23038431077E+02 -0.81066878469E+02  0.85734551707E+02  0.00000000000E+00 0.  1.
<mgrwt>
<rscale>  1 0.85185218E+02</rscale>
<asrwt>0</asrwt>
<pdfrwt beam="1">  1       21 0.17943282E-01 0.85185218E+02</pdfrwt>
<pdfrwt beam="2">  1       -1 0.87578422E-02 0.85185218E+02</pdfrwt>
<totfact> 0.17858218E+05</totfact>
</mgrwt>
</event>
<event>
 6    2  0.1450641E+001  0.1061743E+03  0.7546771E-02  0.1267823E+00
         21   -1    0    0  501  502  0.00000000000E+00  0.00000000000E+00  0.25380231859E+02  0.25380231859E+02  0.00000000000E+00 0. -1.
         -1   -1    0    0    0  501 -0.00000000000E+00 -0.00000000000E+00 -0.24384224206E+03  0.24384224206E+03  0.00000000000E+00 0.  1.
         24    2    1    2    0    0  0.27501804519E+02  0.52655883450E+00 -0.94156635692E+02  0.14191005250E+03  0.10254932686E+03 0.  0.
        -11    1    3    3    0    0 -0.23366992275E+01  0.31597750152E+02 -0.93611540803E+02  0.98828126308E+02  0.00000000000E+00 0.  1.
         12    1    3    3    0    0  0.29838503747E+02 -0.31071191318E+02 -0.54509488821E+00  0.43081926190E+02  0.00000000000E+00 0. -1.
         -2    1    1    2    0  502 -0.27501804519E+02 -0.52655883450E+00 -0.12430537451E+03  0.12731242142E+03  0.00000000000E+00 0.  1.
<mgrwt>
<rscale>  1 0.10617434E+03</rscale>
<asrwt>0</asrwt>
<pdfrwt beam="1">  1       21 0.39046509E-02 0.10617434E+03</pdfrwt>
<pdfrwt beam="2">  1       -1 0.37514193E-01 0.10617434E+03</pdfrwt>
<totfact> 0.24910018E+05</totfact>
</mgrwt>
</event>
<event>
 6    2  0.8544106E+000  0.7250141E+02  0.7546771E-02  0.1351788E+00
         21   -1    0    0  501  502  0.00000000000E+00  0.00000000000E+00  0.51886807502E+02  0.51886807502E+02  0.00000000000E+00 0.  1.
         -3   -1    0    0    0  501 -0.00000000000E+00 -0.00000000000E+00 -0.10500129923E+03  0.10500129923E+03  0.00000000000E+00 0.  1.
         24    2    1    2    0    0  0.20829408500E+02 -0.15662198409E+02 -0.87569257102E+02  0.11368741722E+03  0.67655637800E+02 0.  0.
        -11    1    3    3    0    0  0.31913065061E+02 -0.35122120157E+02 -0.72657748966E+02  0.86782230501E+02  0.00000000000E+00 0.  1.
         12    1    3    3    0    0 -0.11083656561E+02  0.19459921749E+02 -0.14911508136E+02  0.26905186714E+02  0.00000000000E+00 0. -1.
         -4    1    1    2    0  502 -0.20829408500E+02  0.15662198409E+02  0.34454765376E+02  0.43200689515E+02  0.00000000000E+00 0.  1.
<mgrwt>
<rscale>  1 0.72501407E+02</rscale>
<asrwt>0</asrwt>
<pdfrwt beam="1">  1       21 0.79825859E-02 0.72501407E+02</pdfrwt>
<pdfrwt beam="2">  1       -3 0.16154046E-01 0.72501407E+02</pdfrwt>
<totfact> 0.17007402E+05</totfact>
</mgrwt>
</event>
<event>
 6    2  0.8544106E+000  0.8193816E+02  0.7546771E-02  0.1323639E+00
         21   -1    0    0  501  502  0.00000000000E+00  0.00000000000E+00  0.69701091963E+03  0.69701091963E+03  0.00000000000E+00 0.  1.
         -3   -1    0    0    0  501 -0.00000000000E+00 -0.00000000000E+00 -0.37769424335E+01  0.37769424335E+01  0.00000000000E+00 0.  1.
         24    2    1    2    0    0  0.19502517281E+02 -0.51606964793E+01  0.52648341588E+03  0.53282140509E+03  0.79415877243E+02 0.  0.
        -11    1    3    3    0    0  0.73323939754E+01 -0.22399900341E+02  0.44328564968E+02  0.50204991872E+02  0.00000000000E+00 0.  1.
         12    1    3    3    0    0  0.12170123306E+02  0.17239203862E+02  0.48215485091E+03  0.48261641322E+03  0.00000000000E+00 0. -1.
         -4    1    1    2    0  502 -0.19502517281E+02  0.51606964793E+01  0.16675056132E+03  0.16796645697E+03  0.00000000000E+00 0.  1.
<mgrwt>
<rscale>  1 0.81938163E+02</rscale>
<asrwt>0</asrwt>
<pdfrwt beam="1">  1       21 0.10723235E+00 0.81938163E+02</pdfrwt>
<pdfrwt beam="2">  1       -3 0.58106862E-03 0.81938163E+02</pdfrwt>
<totfact> 0.19246224E+05</totfact>
</mgrwt>
</event>
<event>
 6    2  0.8544106E+000  0.7957681E+02  0.7546771E-02  0.1330257E+00
         21   -1    0    0  501  502  0.00000000000E+00  0.00000000000E+00  0.69264760278E+01  0.69264760278E+01  0.00000000000E+00 0.  1.
          2   -1    0    0  502    0 -0.00000000000E+00 -0.00000000000E+00 -0.69225613058E+03  0.69225613058E+03  0.00000000000E+00 0. -1.
         24    2    1    2    0    0  0.11631839939E+02 -0.25511339489E+02 -0.64599522264E+03  0.65087809671E+03  0.74473760185E+02 0.  0.
        -13    1    3    3    0    0 -0.17774871852E+01 -0.39237859618E+02 -0.16929208527E+03  0.17378889269E+03  0.00000000000E+00 0.  1.
         14    1    3    3    0    0  0.13409327124E+02  0.13726520129E+02 -0.47670313737E+03  0.47708920402E+03  0.00000000000E+00 0. -1.
          1    1    1    2  501    0 -0.11631839939E+02  0.25511339489E+02 -0.39334431911E+02  0.48304509899E+02  0.00000000000E+00 0. -1.
<mgrwt>
<rscale>  1 0.79576813E+02</rscale>
<asrwt>0</asrwt>
<pdfrwt beam="1">  1       21 0.10656121E-02 0.79576813E+02</pdfrwt>
<pdfrwt beam="2">  1        2 0.10650090E+00 0.79576813E+02</pdfrwt>
<totfact> 0.16816280E+06</totfact>
</mgrwt>
</event>
<event>
 6    2  0.8544106E+000  0.1079113E+03  0.7546771E-02  0.1264487E+00
         21   -1    0    0  501  502  0.00000000000E+00  0.00000000000E+00  0.14671914112E+02  0.14671914112E+02  0.00000000000E+00 0.  1.
          2   -1    0    0  502    0 -0.00000000000E+00 -0.00000000000E+00 -0.55080477035E+03  0.55080477035E+03  0.00000000000E+00 0. -1.
         24    2    1    2    0    0 -0.67547226599E+01  0.71552630810E+02 -0.32481822031E+03  0.34227435336E+03  0.80495040002E+02 0.  0.
        -11    1    3    3    0    0 -0.17217589975E+02  0.66699194851E+02 -0.13007117371E+03  0.14718606670E+03  0.00000000000E+00 0.  1.
         12    1    3    3    0    0  0.10462867315E+02  0.48534359588E+01 -0.19474704660E+03  0.19508828666E+03  0.00000000000E+00 0. -1.
          1    1    1    2  501    0  0.67547226599E+01 -0.71552630810E+02 -0.21131463593E+03  0.22320233111E+03  0.00000000000E+00 0. -1.
<mgrwt>
<rscale>  1 0.10791134E+03</rscale>
<asrwt>0</asrwt>
<pdfrwt beam="1">  1       21 0.22572174E-02 0.10791134E+03</pdfrwt>
<pdfrwt beam="2">  1        2 0.84739202E-01 0.10791134E+03</pdfrwt>
<totfact> 0.68035147E+05</totfact>
</mgrwt>
</event>
<event>
 6    2  0.8544106E+000  0.9189055E+02  0.7546771E-02  0.1298337E+00
         21   -1    0    0  501  502  0.00000000000E+00  0.00000000000E+00  0.46018676732E+01  0.46018676732E+01  0.00000000000E+00 0.  1.
          2   -1    0    0  502    0 -0.00000000000E+00 -0.00000000000E+00 -0.13067206545E+04  0.13067206545E+04  0.00000000000E+00 0. -1.
         24    2    1    2    0    0 -0.26764275353E+02 -0.36609106179E+02 -0.53262084165E+03  0.54048943990E+03  0.79920714440E+02 0.  0.
        -11    1    3    3    0    0 -0.42499250233E+02 -0.44526660420E+02 -0.25552290995E+03  0.26283220364E+03  0.00000000000E+00 0.  1.
         12    1    3    3    0    0  0.15734974880E+02  0.79175542402E+01 -0.27709793170E+03  0.27765723626E+03  0.00000000000E+00 0. -1.
          1    1    1    2  501    0  0.26764275353E+02  0.36609106179E+02 -0.76949794522E+03  0.77083308231E+03  0.00000000000E+00 0. -1.
<mgrwt>
<rscale>  1 0.91890553E+02</rscale>
<asrwt>0</asrwt>
<pdfrwt beam="1">  1       21 0.70797985E-03 0.91890553E+02</pdfrwt>
<pdfrwt beam="2">  1        2 0.20103389E+00 0.91890553E+02</pdfrwt>
<totfact> 0.13801178E+06</totfact>
</mgrwt>
</event>
<event>
 6    2  0.8544106E+000  0.8550404E+02  0.7546771E-02  0.1314120E+00
         21   -1    0    0  501  502  0.00000000000E+00  0.00000000000E+00  0.12042178380E+02  0.12042178380E+02  0.00000000000E+00 0. -1.
          2   -1    0    0  502    0 -0.00000000000E+00 -0.00000000000E+00 -0.44834727600E+03  0.44834727600E+03  0.00000000000E+00 0. -1.
         24    2    1    2    0    0 -0.22561422890E+02 -0.29977662772E+02 -0.39679690127E+03  0.40590481759E+03  0.76832688427E+02 0.  0.
        -13    1    3    3    0    0  0.10036222368E+02  0.21978119482E+02 -0.11458855924E+03  0.11710807574E+03  0.00000000000E+00 0.  1.
         14    1    3    3    0    0 -0.32597645258E+02 -0.51955782253E+02 -0.28220834204E+03  0.28879674185E+03  0.00000000000E+00 0. -1.
          1    1    1    2  501    0  0.22561422890E+02  0.29977662772E+02 -0.39508196347E+02  0.54484636795E+02  0.00000000000E+00 0. -1.
<mgrwt>
<rscale>  1 0.85504035E+02</rscale>
<asrwt>0</asrwt>
<pdfrwt beam="1">  1       21 0.18526427E-02 0.85504035E+02</pdfrwt>
<pdfrwt beam="2">  1        2 0.68976511E-01 0.85504035E+02</pdfrwt>
<totfact> 0.11428291E+06</totfact>
</mgrwt>
</event>
<event>
 6    2  0.8544106E+000  0.1114993E+03  0.7546771E-02  0.1257818E+00
         21   -1    0    0  501  502  0.00000000000E+00  0.00000000000E+00  0.15782149193E+03  0.15782149193E+03  0.00000000000E+00 0. -1.
          2   -1    0    0  502    0 -0.00000000000E+00 -0.00000000000E+00 -0.59233303354E+02  0.59233303354E+02  0.00000000000E+00 0. -1.
         24    2    1    2    0    0 -0.74099043920E+02  0.22719150054E+02  0.35179498435E+02  0.11691743925E+03  0.80157734504E+02 0.  0.
        -11    1    3    3    0    0  0.98391176867E+01 -0.14654124339E+02 -0.20695711281E+01  0.17771739410E+02  0.00000000000E+00 0.  1.
         12    1    3    3    0    0 -0.83938161607E+02  0.37373274393E+02  0.37249069563E+02  0.99145699837E+02  0.00000000000E+00 0. -1.
          1    1    1    2  501    0  0.74099043920E+02 -0.22719150054E+02  0.63408690142E+02  0.10013735604E+03  0.00000000000E+00 0. -1.
<mgrwt>
<rscale>  1 0.11149928E+03</rscale>
<asrwt>0</asrwt>
<pdfrwt beam="1">  1       21 0.24280229E-01 0.11149928E+03</pdfrwt>
<pdfrwt beam="2">  1        2 0.91128160E-02 0.11149928E+03</pdfrwt>
<totfact> 0.13620342E+05</totfact>
</mgrwt>
</event>
<event>
 6    2  0.8544106E+000  0.9135338E+02  0.7546771E-02  0.1299607E+00
         21   -1    0    0  501  502  0.00000000000E+00  0.00000000000E+00  0.16804849991E+01  0.16804849991E+01  0.00000000000E+00 0.  1.
          2   -1    0    0  502    0 -0.00000000000E+00 -0.00000000000E+00 -0.27291519014E+04  0.27291519014E+04  0.00000000000E+00 0. -1.
         24    2    1    2    0    0 -0.26177903640E+02  0.35249385426E+02 -0.17741110143E+04  0.17764614637E+04  0.80110168616E+02 0.  0.
        -11    1    3    3    0    0 -0.10892940599E+02  0.17925287123E+02 -0.99303852116E+02  0.10149496105E+03  0.00000000000E+00 0.  1.
         12    1    3    3    0    0 -0.15284963041E+02  0.17324098303E+02 -0.16748071622E+04  0.16749665027E+04  0.00000000000E+00 0. -1.
          1    1    1    2  501    0  0.26177903640E+02 -0.35249385426E+02 -0.95336040207E+03  0.95437092267E+03  0.00000000000E+00 0. -1.
<mgrwt>
<rscale>  1 0.91353385E+02</rscale>
<asrwt>0</asrwt>
<pdfrwt beam="1">  1       21 0.25853429E-03 0.91353385E+02</pdfrwt>
<pdfrwt beam="2">  1        2 0.41987255E+00 0.91353385E+02</pdfrwt>
<totfact> 0.11950393E+06</totfact>
</mgrwt>
</event>
<event>
 6    2  0.8544106E+000  0.8456172E+02  0.7546771E-02  0.1316583E+00
          2   -1    0    0  502    0 -0.00000000000E+00  0.00000000000E+00  0.29330758929E+03  0.29330758929E+03  0.00000000000E+00 0. -1.
         21   -1    0    0  501  502  0.00000000000E+00 -0.00000000000E+00 -0.18140375006E+02  0.18140375006E+02  0.00000000000E+00 0.  1.
         24    2    1    2    0    0 -0.24793180159E+02 -0.12337308875E+02  0.87260880752E+02  0.12151191939E+03  0.79898524842E+02 0.  0.
        -13    1    3    3    0    0 -0.38681860941E+02  0.11445940676E+01  0.74780653628E+01  0.39414691715E+02  0.00000000000E+00 0.  1.
         14    1    3    3    0    0  0.13888680782E+02 -0.13481902943E+02  0.79782815389E+02  0.82097227677E+02  0.00000000000E+00 0. -1.
          1    1    1    2  501    0  0.24793180159E+02  0.12337308875E+02  0.18790633353E+03  0.18993604490E+03  0.00000000000E+00 0. -1.
<mgrwt>
<rscale>  1 0.84561724E+02</rscale>
<asrwt>0</asrwt>
<pdfrwt beam="1">  1       21 0.27908271E-02 0.84561724E+02</pdfrwt>
<pdfrwt beam="2">  1        2 0.45124241E-01 0.84561724E+02</pdfrwt>
<totfact> 0.92233484E+05</totfact>
</mgrwt>
</event>
<event>
 6    2  0.8544106E+000  0.8227281E+02  0.7546771E-02  0.1322723E+00
         21   -1    0    0  501  502  0.00000000000E+00  0.00000000000E+00  0.59916499935E+02  0.59916499935E+02  0.00000000000E+00 0.  1.
         -3   -1    0    0    0  501 -0.00000000000E+00 -0.00000000000E+00 -0.70417036965E+02  0.70417036965E+02  0.00000000000E+00 0.  1.
         24    2    1    2    0    0  0.25171452228E+02  0.26939236723E+01  0.25669723539E+02  0.86184392155E+02  0.78281259013E+02 0.  0.
        -13    1    3    3    0    0  0.40495714853E+02  0.18342209509E+02 -0.88252849250E+01  0.45323561479E+02  0.00000000000E+00 0.  1.
         14    1    3    3    0    0 -0.15324262625E+02 -0.15648285837E+02  0.34495008464E+02  0.40860830676E+02  0.00000000000E+00 0. -1.
         -4    1    1    2    0  502 -0.25171452228E+02 -0.26939236723E+01 -0.36170260569E+02  0.44149144744E+02  0.00000000000E+00 0.  1.
<mgrwt>
<rscale>  1 0.82272807E+02</rscale>
<asrwt>0</asrwt>
<pdfrwt beam="1">  1       21 0.92179231E-02 0.82272807E+02</pdfrwt>
<pdfrwt beam="2">  1       -3 0.10833390E-01 0.82272807E+02</pdfrwt>
<totfact> 0.26451309E+05</totfact>
</mgrwt>
</event>
<event>
 6    2  0.8544106E+000  0.8675419E+02  0.7546771E-02  0.1310908E+00
         -1   -1    0    0    0  501 -0.00000000000E+00  0.00000000000E+00  0.43075635118E+01  0.43075635118E+01  0.00000000000E+00 0.  1.
         21   -1    0    0  501  502  0.00000000000E+00 -0.00000000000E+00 -0.81932424052E+03  0.81932424052E+03  0.00000000000E+00 0. -1.
         24    2    1    2    0    0 -0.14660737389E+02  0.23553865078E+02 -0.69802524697E+03  0.70339571759E+03  0.82198347507E+02 0.  0.
        -11    1    3    3    0    0 -0.28591476088E+01 -0.20755946751E+02 -0.56936670650E+02  0.60669337521E+02  0.00000000000E+00 0.  1.
         12    1    3    3    0    0 -0.11801589781E+02  0.44309811829E+02 -0.64108857632E+03  0.64272638007E+03  0.00000000000E+00 0. -1.
         -2    1    1    2    0  502  0.14660737389E+02 -0.23553865078E+02 -0.11699143004E+03  0.12023608644E+03  0.00000000000E+00 0.  1.
<mgrwt>
<rscale>  1 0.86754194E+02</rscale>
<asrwt>0</asrwt>
<pdfrwt beam="1">  1       21 0.12604992E+00 0.86754194E+02</pdfrwt>
<pdfrwt beam="2">  1       -1 0.66270189E-03 0.86754194E+02</pdfrwt>
<totfact> 0.13262753E+05</totfact>
</mgrwt>
</event>
<event>
 6    2  0.8544106E+000  0.8319695E+02  0.7546771E-02  0.1320216E+00
         21   -1    0    0  501  502  0.00000000000E+00  0.00000000000E+00  0.49673794702E+02  0.49673794702E+02  0.00000000000E+00 0.  1.
          2   -1    0    0  502    0 -0.00000000000E+00 -0.00000000000E+00 -0.54865710922E+02  0.54865710922E+02  0.00000000000E+00 0. -1.
         24    2    1    2    0    0 -0.16040944288E+02  0.13816860627E+02 -0.53356653582E+01  0.83367869054E+02  0.80458155177E+02 0.  0.
        -13    1    3    3    0    0  0.85554424127E+01 -0.17691112191E+02  0.25990502430E+02  0.32583389357E+02  0.00000000000E+00 0.  1.
         14    1    3    3    0    0 -0.24596386701E+02  0.31507972818E+02 -0.31326167788E+02  0.50784479697E+02  0.00000000000E+00 0. -1.
          1    1    1    2  501    0  0.16040944288E+02 -0.13816860627E+02  0.14374913810E+00  0.21171636570E+02  0.00000000000E+00 0. -1.
<mgrwt>
<rscale>  1 0.83196949E+02</rscale>
<asrwt>0</asrwt>
<pdfrwt beam="1">  1       21 0.76421223E-02 0.83196949E+02</pdfrwt>
<pdfrwt beam="2">  1        2 0.84408786E-02 0.83196949E+02</pdfrwt>
<totfact> 0.11411362E+06</totfact>
</mgrwt>
</event>
<event>
 6    2  0.8544106E+000  0.9521120E+02  0.7546771E-02  0.1290701E+00
          2   -1    0    0  502    0 -0.00000000000E+00  0.00000000000E+00  0.11702039673E+04  0.11702039673E+04  0.00000000000E+00 0. -1.
         21   -1    0    0  501  502  0.00000000000E+00 -0.00000000000E+00 -0.74275256407E+01  0.74275256407E+01  0.00000000000E+00 0.  1.
         24    2    1    2    0    0 -0.48835184836E+02 -0.10120989559E+02  0.10501428806E+04  0.10544502087E+04  0.81104027490E+02 0.  0.
        -13    1    3    3    0    0  0.93838788028E+01 -0.27355803270E+02  0.19244504601E+03  0.19460599396E+03  0.00000000000E+00 0.  1.
         14    1    3    3    0    0 -0.58219063638E+02  0.17234813712E+02  0.85769783459E+03  0.85984421475E+03  0.00000000000E+00 0. -1.
          1    1    1    2  501    0  0.48835184836E+02  0.10120989559E+02  0.11263356110E+03  0.12318128426E+03  0.00000000000E+00 0. -1.
<mgrwt>
<rscale>  1 0.95211202E+02</rscale>
<asrwt>0</asrwt>
<pdfrwt beam="1">  1       21 0.11426972E-02 0.95211202E+02</pdfrwt>
<pdfrwt beam="2">  1        2 0.18003123E+00 0.95211202E+02</pdfrwt>
<totfact> 0.77670640E+05</totfact>
</mgrwt>
</event>
<event>
 6    2  0.8544106E+000  0.6890558E+02  0.7546771E-02  0.1363855E+00
          2   -1    0    0  502    0 -0.00000000000E+00  0.00000000000E+00  0.66228668415E+01  0.66228668415E+01  0.00000000000E+00 0. -1.
         21   -1    0    0  501  502  0.00000000000E+00 -0.00000000000E+00 -0.45144404435E+03  0.45144404435E+03  0.00000000000E+00 0. -1.
         24    2    1    2    0    0 -0.80804554439E+01  0.19446198775E+02 -0.18536962821E+03  0.19776217662E+03  0.65608924939E+02 0.  0.
        -13    1    3    3    0    0  0.58153222026E+01 -0.14851750167E+02 -0.13115785548E+03  0.13212409133E+03  0.00000000000E+00 0.  1.
         14    1    3    3    0    0 -0.13895777647E+02  0.34297948942E+02 -0.54211772725E+02  0.65638085286E+02  0.00000000000E+00 0. -1.
          1    1    1    2  501    0  0.80804554439E+01 -0.19446198775E+02 -0.25945154930E+03  0.26030473457E+03  0.00000000000E+00 0. -1.
<mgrwt>
<rscale>  1 0.68905584E+02</rscale>
<asrwt>0</asrwt>
<pdfrwt beam="1">  1       21 0.69452930E-01 0.68905584E+02</pdfrwt>
<pdfrwt beam="2">  1        2 0.10189026E-02 0.68905584E+02</pdfrwt>
<totfact> 0.28903709E+05</totfact>
</mgrwt>
</event>
<event>
 6    2  0.8544106E+000  0.9626981E+02  0.7546771E-02  0.1288341E+00
         21   -1    0    0  501  502  0.00000000000E+00  0.00000000000E+00  0.16972531267E+02  0.16972531267E+02  0.00000000000E+00 0.  1.
          2   -1    0    0  502    0 -0.00000000000E+00 -0.00000000000E+00 -0.34606945914E+03  0.34606945914E+03  0.00000000000E+00 0. -1.
         24    2    1    2    0    0  0.32571071695E+02  0.33550924385E+02 -0.15237871160E+03  0.18024191600E+03  0.84150682100E+02 0.  0.
        -13    1    3    3    0    0  0.22765767464E+02  0.10895625334E+02  0.63787108372E+00  0.25246815624E+02  0.00000000000E+00 0.  1.
         14    1    3    3    0    0  0.98053042308E+01  0.22655299051E+02 -0.15301658268E+03  0.15499510038E+03  0.00000000000E+00 0. -1.
          1    1    1    2  501    0 -0.32571071695E+02 -0.33550924385E+02 -0.17671821628E+03  0.18280007441E+03  0.00000000000E+00 0. -1.
<mgrwt>
<rscale>  1 0.96269811E+02</rscale>
<asrwt>0</asrwt>
<pdfrwt beam="1">  1       21 0.26111587E-02 0.96269811E+02</pdfrwt>
<pdfrwt beam="2">  1        2 0.53241455E-01 0.96269811E+02</pdfrwt>
<totfact> 0.87534809E+05</totfact>
</mgrwt>
</event>
<event>
 6    2  0.8544106E+000  0.1248515E+03  0.7546771E-02  0.1235302E+00
          2   -1    0    0  502    0 -0.00000000000E+00  0.00000000000E+00  0.30849371496E+03  0.30849371496E+03  0.00000000000E+00 0. -1.
         21   -1    0    0  501  502  0.00000000000E+00 -0.00000000000E+00 -0.38116709051E+02  0.38116709051E+02  0.00000000000E+00 0. -1.
         24    2    1    2    0    0  0.86601764962E+02 -0.31068212998E+02  0.15344112099E+03  0.19781828465E+03  0.84396662128E+02 0.  0.
        -11    1    3    3    0    0 -0.12286894796E+02  0.74100259737E+01  0.46834832673E+01  0.15093418571E+02  0.00000000000E+00 0.  1.
         12    1    3    3    0    0  0.98888659758E+02 -0.38478238972E+02  0.14875763772E+03  0.18272486608E+03  0.00000000000E+00 0. -1.
          1    1    1    2  501    0 -0.86601764962E+02  0.31068212998E+02  0.11693588492E+03  0.14879213936E+03  0.00000000000E+00 0. -1.
<mgrwt>
<rscale>  1 0.12485150E+03</rscale>
<asrwt>0</asrwt>
<pdfrwt beam="1">  1       21 0.58641093E-02 0.12485150E+03</pdfrwt>
<pdfrwt beam="2">  1        2 0.47460570E-01 0.12485150E+03</pdfrwt>
<totfact> 0.26433320E+05</totfact>
</mgrwt>
</event>
<event>
 6    2  0.8544106E+000  0.1283921E+03  0.7546771E-02  0.1229861E+00
         -3   -1    0    0    0  501 -0.00000000000E+00  0.00000000000E+00  0.98223394721E+02  0.98223394721E+02  0.00000000000E+00 0.  1.
         21   -1    0    0  501  502  0.00000000000E+00 -0.00000000000E+00 -0.15251939333E+03  0.15251939333E+03  0.00000000000E+00 0.  1.
         24    2    1    2    0    0 -0.90392148013E+02 -0.42446625289E+02  0.14894261386E+02  0.12925308273E+03  0.80697360258E+02 0.  0.
        -11    1    3    3    0    0 -0.82045130613E+02 -0.11182088420E+00  0.23305585610E+02  0.85291068007E+02  0.00000000000E+00 0.  1.
         12    1    3    3    0    0 -0.83470173999E+01 -0.42334804404E+02 -0.84113242238E+01  0.43962014724E+02  0.00000000000E+00 0. -1.
         -4    1    1    2    0  502  0.90392148013E+02  0.42446625289E+02 -0.69190259999E+02  0.12148970532E+03  0.00000000000E+00 0.  1.
<mgrwt>
<rscale>  1 0.12839206E+03</rscale>
<asrwt>0</asrwt>
<pdfrwt beam="1">  1       21 0.23464522E-01 0.12839206E+03</pdfrwt>
<pdfrwt beam="2">  1       -3 0.15111292E-01 0.12839206E+03</pdfrwt>
<totfact> 0.29980483E+04</totfact>
</mgrwt>
</event>
<event>
 6    2  0.8544106E+000  0.7891709E+02  0.7546771E-02  0.1332153E+00
          4   -1    0    0  502    0 -0.00000000000E+00  0.00000000000E+00  0.18805334371E+02  0.18805334371E+02  0.00000000000E+00 0. -1.
         21   -1    0    0  501  502  0.00000000000E+00 -0.00000000000E+00 -0.36829261646E+03  0.36829261646E+03  0.00000000000E+00 0. -1.
         24    2    1    2    0    0  0.28691060232E+02 -0.10786115491E+02 -0.68664889354E+02  0.10460771474E+03  0.72721315504E+02 0.  0.
        -11    1    3    3    0    0 -0.99100329837E+01 -0.34996730229E+01 -0.64219956451E+02  0.65074259670E+02  0.00000000000E+00 0.  1.
         12    1    3    3    0    0  0.38601093216E+02 -0.72864424678E+01 -0.44449329029E+01  0.39533455071E+02  0.00000000000E+00 0. -1.
          3    1    1    2  501    0 -0.28691060232E+02  0.10786115491E+02 -0.28082239274E+03  0.28249023609E+03  0.00000000000E+00 0. -1.
<mgrwt>
<rscale>  1 0.78917089E+02</rscale>
<asrwt>0</asrwt>
<pdfrwt beam="1">  1       21 0.56660403E-01 0.78917089E+02</pdfrwt>
<pdfrwt beam="2">  1        4 0.28931283E-02 0.78917089E+02</pdfrwt>
<totfact> 0.63583193E+04</totfact>
</mgrwt>
</event>
<event>
 6    2  0.8544106E+000  0.8533326E+02  0.7546771E-02  0.1314563E+00
          2   -1    0    0  502    0 -0.00000000000E+00  0.00000000000E+00  0.51914306180E+03  0.51914306180E+03  0.00000000000E+00 0. -1.
         21   -1    0    0  501  502  0.00000000000E+00 -0.00000000000E+00 -0.99373030828E+01  0.99373030828E+01  0.00000000000E+00 0. -1.
         24    2    1    2    0    0  0.29887545894E+02 -0.12508818706E+02  0.47240149476E+03  0.48004680709E+03  0.78943199803E+02 0.  0.
        -13    1    3    3    0    0  0.94674353615E+01  0.16117461010E+02  0.24745969091E+02  0.31012382494E+02  0.00000000000E+00 0.  1.
         14    1    3    3    0    0  0.20420110532E+02 -0.28626279715E+02  0.44765552567E+03  0.44903442459E+03  0.00000000000E+00 0. -1.
          1    1    1    2  501    0 -0.29887545894E+02  0.12508818706E+02  0.36804263956E+02  0.49033557798E+02  0.00000000000E+00 0. -1.
<mgrwt>
<rscale>  1 0.85333257E+02</rscale>
<asrwt>0</asrwt>
<pdfrwt beam="1">  1       21 0.15288163E-02 0.85333257E+02</pdfrwt>
<pdfrwt beam="2">  1        2 0.79868142E-01 0.85333257E+02</pdfrwt>
<totfact> 0.13245271E+06</totfact>
</mgrwt>
</event>
<event>
 6    2  0.8544106E+000  0.9368507E+02  0.7546771E-02  0.1294165E+00
          2   -1    0    0  502    0 -0.00000000000E+00  0.00000000000E+00  0.14660591500E+03  0.14660591500E+03  0.00000000000E+00 0. -1.
         21   -1    0    0  501  502  0.00000000000E+00 -0.00000000000E+00 -0.37060706977E+02  0.37060706977E+02  0.00000000000E+00 0.  1.
         24    2    1    2    0    0 -0.45815428001E+02  0.11883316010E+02  0.45828498989E+02  0.10429354309E+03  0.80849398068E+02 0.  0.
        -13    1    3    3    0    0 -0.32065489267E+02  0.38188775564E+02  0.20705613196E+00  0.49866031056E+02  0.00000000000E+00 0.  1.
         14    1    3    3    0    0 -0.13749938733E+02 -0.26305459554E+02  0.45621442857E+02  0.54427512031E+02  0.00000000000E+00 0. -1.
          1    1    1    2  501    0  0.45815428001E+02 -0.11883316010E+02  0.63716709030E+02  0.79373078886E+02  0.00000000000E+00 0. -1.
<mgrwt>
<rscale>  1 0.93685067E+02</rscale>
<asrwt>0</asrwt>
<pdfrwt beam="1">  1       21 0.57016473E-02 0.93685067E+02</pdfrwt>
<pdfrwt beam="2">  1        2 0.22554756E-01 0.93685067E+02</pdfrwt>
<totfact> 0.60212661E+05</totfact>
</mgrwt>
</event>
<event>
 6    2  0.8544106E+000  0.8881509E+02  0.7546771E-02  0.1305747E+00
          2   -1    0    0  502    0 -0.00000000000E+00  0.00000000000E+00  0.18408193463E+02  0.18408193463E+02  0.00000000000E+00 0. -1.
         21   -1    0    0  501  502  0.00000000000E+00 -0.00000000000E+00 -0.22121980649E+03  0.22121980649E+03  0.00000000000E+00 0.  1.
         24    2    1    2    0    0  0.38008415610E+02  0.72143627261E+01 -0.13629334683E+03  0.16267758459E+03  0.79946441141E+02 0.  0.
        -13    1    3    3    0    0 -0.18277244587E+01 -0.22794541834E+02 -0.95633398555E+02  0.98329439301E+02  0.00000000000E+00 0.  1.
         14    1    3    3    0    0  0.39836140068E+02  0.30008904560E+02 -0.40659948279E+02  0.64348145292E+02  0.00000000000E+00 0. -1.
          1    1    1    2  501    0 -0.38008415610E+02 -0.72143627261E+01 -0.66518266194E+02  0.76950415361E+02  0.00000000000E+00 0. -1.
<mgrwt>
<rscale>  1 0.88815090E+02</rscale>
<asrwt>0</asrwt>
<pdfrwt beam="1">  1       21 0.34033813E-01 0.88815090E+02</pdfrwt>
<pdfrwt beam="2">  1        2 0.28320300E-02 0.88815090E+02</pdfrwt>
<totfact> 0.31744209E+05</totfact>
</mgrwt>
</event>
<event>
 6    2  0.8544106E+000  0.1025782E+03  0.7546771E-02  0.1274966E+00
         -1   -1    0    0    0  501 -0.00000000000E+00  0.00000000000E+00  0.15312748047E+03  0.15312748047E+03  0.00000000000E+00 0.  1.
         21   -1    0    0  501  502  0.00000000000E+00 -0.00000000000E+00 -0.52489281176E+02  0.52489281176E+02  0.00000000000E+00 0.  1.
         24    2    1    2    0    0  0.19806082752E+02 -0.62732894722E+02  0.25403428385E+02  0.10567694101E+03  0.78705684003E+02 0.  0.
        -13    1    3    3    0    0 -0.19557655460E+02 -0.47559584138E+02  0.35263298612E+02  0.62353156773E+02  0.00000000000E+00 0.  1.
         14    1    3    3    0    0  0.39363738213E+02 -0.15173310584E+02 -0.98598702272E+01  0.43323784242E+02  0.00000000000E+00 0. -1.
         -2    1    1    2    0  502 -0.19806082752E+02  0.62732894722E+02  0.75234770914E+02  0.99939820635E+02  0.00000000000E+00 0.  1.
<mgrwt>
<rscale>  1 0.10257817E+03</rscale>
<asrwt>0</asrwt>
<pdfrwt beam="1">  1       21 0.80752741E-02 0.10257817E+03</pdfrwt>
<pdfrwt beam="2">  1       -1 0.23558074E-01 0.10257817E+03</pdfrwt>
<totfact> 0.15907083E+05</totfact>
</mgrwt>
</event>
<event>
 6    2  0.8544106E+000  0.9249755E+02  0.7546771E-02  0.1296914E+00
         21   -1    0    0  501  502  0.00000000000E+00  0.00000000000E+00  0.37777296820E+01  0.37777296820E+01  0.00000000000E+00 0.  1.
          2   -1    0    0  502    0 -0.00000000000E+00 -0.00000000000E+00 -0.15255264407E+04  0.15255264407E+04  0.00000000000E+00 0. -1.
         24    2    1    2    0    0  0.31679356083E+02  0.31032012251E+02 -0.12925085461E+04  0.12958140837E+04  0.81174073941E+02 0.  0.
        -13    1    3    3    0    0  0.14898745474E+02  0.28928437726E+02 -0.16496021224E+03  0.16813892692E+03  0.00000000000E+00 0.  1.
         14    1    3    3    0    0  0.16780610608E+02  0.21035745246E+01 -0.11275483339E+04  0.11276751567E+04  0.00000000000E+00 0. -1.
          1    1    1    2  501    0 -0.31679356083E+02 -0.31032012251E+02 -0.22924016488E+03  0.23349008669E+03  0.00000000000E+00 0. -1.
<mgrwt>
<rscale>  1 0.92497555E+02</rscale>
<asrwt>0</asrwt>
<pdfrwt beam="1">  1       21 0.58118961E-03 0.92497555E+02</pdfrwt>
<pdfrwt beam="2">  1        2 0.23469620E+00 0.92497555E+02</pdfrwt>
<totfact> 0.14422779E+06</totfact>
</mgrwt>
</event>
<event>
 6    2  0.8544106E+000  0.8345735E+02  0.7546771E-02  0.1319517E+00
          4   -1    0    0  502    0 -0.00000000000E+00  0.00000000000E+00  0.63168487698E+03  0.63168487698E+03  0.00000000000E+00 0. -1.
         21   -1    0    0  501  502  0.00000000000E+00 -0.00000000000E+00 -0.52986272842E+01  0.52986272842E+01  0.00000000000E+00 0.  1.
         24    2    1    2    0    0 -0.22126418247E+02  0.12241120701E+02  0.55523966208E+03  0.56147681350E+03  0.79534309156E+02 0.  0.
        -11    1    3    3    0    0  0.11013939496E+02 -0.26663074964E+02  0.12912024519E+03  0.13230368153E+03  0.00000000000E+00 0.  1.
         12    1    3    3    0    0 -0.33140357743E+02  0.38904195665E+02  0.42611941690E+03  0.42917313197E+03  0.00000000000E+00 0. -1.
          3    1    1    2  501    0  0.22126418247E+02 -0.12241120701E+02  0.71146587610E+02  0.75506690756E+02  0.00000000000E+00 0. -1.
<mgrwt>
<rscale>  1 0.83457353E+02</rscale>
<asrwt>0</asrwt>
<pdfrwt beam="1">  1       21 0.81517393E-03 0.83457353E+02</pdfrwt>
<pdfrwt beam="2">  1        4 0.97182229E-01 0.83457353E+02</pdfrwt>
<totfact> 0.17391801E+05</totfact>
</mgrwt>
</event>
<event>
 6    2  0.8544106E+000  0.9292568E+02  0.7546771E-02  0.1295918E+00
         21   -1    0    0  501  502  0.00000000000E+00  0.00000000000E+00  0.10819014617E+04  0.10819014617E+04  0.00000000000E+00 0.  1.
         -3   -1    0    0    0  501 -0.00000000000E+00 -0.00000000000E+00 -0.16473978936E+02  0.16473978936E+02  0.00000000000E+00 0.  1.
         24    2    1    2    0    0 -0.35954092894E+02  0.31239726594E+02  0.12011791988E+03  0.15186670481E+03  0.79790751595E+02 0.  0.
        -13    1    3    3    0    0  0.83450727404E+01  0.37453655406E+02  0.22486800033E+02  0.44475529429E+02  0.00000000000E+00 0.  1.
         14    1    3    3    0    0 -0.44299165635E+02 -0.62139288111E+01  0.97631119848E+02  0.10739117538E+03  0.00000000000E+00 0. -1.
         -4    1    1    2    0  502  0.35954092894E+02 -0.31239726594E+02  0.94530956286E+03  0.94650873580E+03  0.00000000000E+00 0.  1.
<mgrwt>
<rscale>  1 0.92925677E+02</rscale>
<asrwt>0</asrwt>
<pdfrwt beam="1">  1       21 0.16644632E+00 0.92925677E+02</pdfrwt>
<pdfrwt beam="2">  1       -3 0.25344592E-02 0.92925677E+02</pdfrwt>
<totfact> 0.73168101E+03</totfact>
</mgrwt>
</event>
<event>
 6    2  0.8544106E+000  0.8355920E+02  0.7546771E-02  0.1319244E+00
         21   -1    0    0  501  502  0.00000000000E+00  0.00000000000E+00  0.85108651688E+03  0.85108651688E+03  0.00000000000E+00 0. -1.
          2   -1    0    0  502    0 -0.00000000000E+00 -0.00000000000E+00 -0.69969895621E+01  0.69969895621E+01  0.00000000000E+00 0. -1.
         24    2    1    2    0    0  0.15820630602E+02  0.14617853839E+02  0.24982402207E+03  0.26342775331E+03  0.80735154723E+02 0.  0.
        -13    1    3    3    0    0  0.25638455318E+02 -0.28226964929E+02  0.91812194777E+02  0.99416150851E+02  0.00000000000E+00 0.  1.
         14    1    3    3    0    0 -0.98178247159E+01  0.42844818768E+02  0.15801182729E+03  0.16401160246E+03  0.00000000000E+00 0. -1.
          1    1    1    2  501    0 -0.15820630602E+02 -0.14617853839E+02  0.59426550525E+03  0.59465575313E+03  0.00000000000E+00 0. -1.
<mgrwt>
<rscale>  1 0.83559196E+02</rscale>
<asrwt>0</asrwt>
<pdfrwt beam="1">  1       21 0.13093631E+00 0.83559196E+02</pdfrwt>
<pdfrwt beam="2">  1        2 0.10764606E-02 0.83559196E+02</pdfrwt>
<totfact> 0.63994565E+04</totfact>
</mgrwt>
</event>
<event>
 6    2  0.8544106E+000  0.9126463E+02  0.7546771E-02  0.1299818E+00
          4   -1    0    0  502    0 -0.00000000000E+00  0.00000000000E+00  0.31819216205E+03  0.31819216205E+03  0.00000000000E+00 0. -1.
         21   -1    0    0  501  502  0.00000000000E+00 -0.00000000000E+00 -0.14151497585E+02  0.14151497585E+02  0.00000000000E+00 0.  1.
         24    2    1    2    0    0 -0.32225019734E+02  0.72819907683E+01  0.15665803696E+03  0.18130353855E+03  0.85074986105E+02 0.  0.
        -13    1    3    3    0    0 -0.43416976520E+01 -0.36641327049E+02  0.45561011532E+02  0.58628004897E+02  0.00000000000E+00 0.  1.
         14    1    3    3    0    0 -0.27883322082E+02  0.43923317818E+02  0.11109702542E+03  0.12267553365E+03  0.00000000000E+00 0. -1.
          3    1    1    2  501    0  0.32225019734E+02 -0.72819907683E+01  0.14738262751E+03  0.15104012109E+03  0.00000000000E+00 0. -1.
<mgrwt>
<rscale>  1 0.91264629E+02</rscale>
<asrwt>0</asrwt>
<pdfrwt beam="1">  1       21 0.21771537E-02 0.91264629E+02</pdfrwt>
<pdfrwt beam="2">  1        4 0.48952635E-01 0.91264629E+02</pdfrwt>
<totfact> 0.16236689E+05</totfact>
</mgrwt>
</event>
<event>
 6    2  0.8544106E+000  0.9042710E+02  0.7546771E-02  0.1301821E+00
         21   -1    0    0  501  502  0.00000000000E+00  0.00000000000E+00  0.25176539954E+01  0.25176539954E+01  0.00000000000E+00 0. -1.
          2   -1    0    0  502    0 -0.00000000000E+00 -0.00000000000E+00 -0.18332372154E+04  0.18332372154E+04  0.00000000000E+00 0. -1.
         24    2    1    2    0    0 -0.40674574757E+02  0.15515920302E+02 -0.13709012552E+04  0.13738803848E+04  0.79258408826E+02 0.  0.
        -13    1    3    3    0    0 -0.26889843002E+02 -0.29949266093E+02 -0.79716569226E+03  0.79818115933E+03  0.00000000000E+00 0.  1.
         14    1    3    3    0    0 -0.13784731755E+02  0.45465186395E+02 -0.57373556292E+03  0.57569922544E+03  0.00000000000E+00 0. -1.
          1    1    1    2  501    0  0.40674574757E+02 -0.15515920302E+02 -0.45981830618E+03  0.46187448459E+03  0.00000000000E+00 0. -1.
<mgrwt>
<rscale>  1 0.90427099E+02</rscale>
<asrwt>0</asrwt>
<pdfrwt beam="1">  1       21 0.38732992E-03 0.90427099E+02</pdfrwt>
<pdfrwt beam="2">  1        2 0.28203756E+00 0.90427099E+02</pdfrwt>
<totfact> 0.18751152E+06</totfact>
</mgrwt>
</event>
<event>
 6    2  0.8544106E+000  0.8606442E+02  0.7546771E-02  0.1312672E+00
          2   -1    0    0  502    0 -0.00000000000E+00  0.00000000000E+00  0.10429697344E+04  0.10429697344E+04  0.00000000000E+00 0. -1.
         21   -1    0    0  501  502  0.00000000000E+00 -0.00000000000E+00 -0.33220925078E+01  0.33220925078E+01  0.00000000000E+00 0.  1.
         24    2    1    2    0    0  0.21377569231E+02 -0.20540388950E+02  0.84926547539E+03  0.85361521347E+03  0.80797134425E+02 0.  0.
        -13    1    3    3    0    0  0.50806446405E+02 -0.15269544539E+02  0.64434506543E+03  0.64652534160E+03  0.00000000000E+00 0.  1.
         14    1    3    3    0    0 -0.29428877174E+02 -0.52708444106E+01  0.20492040996E+03  0.20708987187E+03  0.00000000000E+00 0. -1.
          1    1    1    2  501    0 -0.21377569231E+02  0.20540388950E+02  0.19038216654E+03  0.19267661347E+03  0.00000000000E+00 0. -1.
<mgrwt>
<rscale>  1 0.86064423E+02</rscale>
<asrwt>0</asrwt>
<pdfrwt beam="1">  1       21 0.51109199E-03 0.86064423E+02</pdfrwt>
<pdfrwt beam="2">  1        2 0.16045662E+00 0.86064423E+02</pdfrwt>
<totfact> 0.31603173E+06</totfact>
</mgrwt>
</event>
<event>
 6    2  0.8544106E+000  0.9383857E+02  0.7546771E-02  0.1293814E+00
         21   -1    0    0  501  502  0.00000000000E+00  0.00000000000E+00  0.26292686655E+01  0.26292686655E+01  0.00000000000E+00 0.  1.
          2   -1    0    0  502    0 -0.00000000000E+00 -0.00000000000E+00 -0.21196233108E+04  0.21196233108E+04  0.00000000000E+00 0. -1.
         24    2    1    2    0    0  0.37182951207E+02  0.28994404576E+02 -0.17027320378E+04  0.17053158270E+04  0.81132174643E+02 0.  0.
        -13    1    3    3    0    0  0.62413353541E+02  0.26766480522E+02 -0.11495023941E+04  0.11515066762E+04  0.00000000000E+00 0.  1.
         14    1    3    3    0    0 -0.25230402334E+02  0.22279240544E+01 -0.55322964368E+03  0.55380915078E+03  0.00000000000E+00 0. -1.
          1    1    1    2  501    0 -0.37182951207E+02 -0.28994404576E+02 -0.41426200433E+03  0.41693675250E+03  0.00000000000E+00 0. -1.
<mgrwt>
<rscale>  1 0.93838569E+02</rscale>
<asrwt>0</asrwt>
<pdfrwt beam="1">  1       21 0.40450341E-03 0.93838569E+02</pdfrwt>
<pdfrwt beam="2">  1        2 0.32609546E+00 0.93838569E+02</pdfrwt>
<totfact> 0.12624088E+06</totfact>
</mgrwt>
</event>
<event>
 6    2  0.8544106E+000  0.8727945E+02  0.7546771E-02  0.1309577E+00
         21   -1    0    0  501  502  0.00000000000E+00  0.00000000000E+00  0.25253750345E+02  0.25253750345E+02  0.00000000000E+00 0. -1.
          2   -1    0    0  502    0 -0.00000000000E+00 -0.00000000000E+00 -0.47762475034E+03  0.47762475034E+03  0.00000000000E+00 0. -1.
         24    2    1    2    0    0  0.33501849255E+02  0.52159274012E+01 -0.45993210122E+03  0.46814019252E+03  0.80424637527E+02 0.  0.
        -13    1    3    3    0    0 -0.14400645253E+02 -0.83330261469E+01 -0.23030754159E+02  0.28411855723E+02  0.00000000000E+00 0.  1.
         14    1    3    3    0    0  0.47902494508E+02  0.13548953548E+02 -0.43690134706E+03  0.43972833680E+03  0.00000000000E+00 0. -1.
          1    1    1    2  501    0 -0.33501849255E+02 -0.52159274012E+01  0.75611012251E+01  0.34738308161E+02  0.00000000000E+00 0. -1.
<mgrwt>
<rscale>  1 0.87279448E+02</rscale>
<asrwt>0</asrwt>
<pdfrwt beam="1">  1       21 0.38851923E-02 0.87279448E+02</pdfrwt>
<pdfrwt beam="2">  1        2 0.73480731E-01 0.87279448E+02</pdfrwt>
<totfact> 0.32319842E+05</totfact>
</mgrwt>
</event>
<event>
 6    2  0.8544106E+000  0.8362015E+02  0.7546771E-02  0.1319081E+00
         21   -1    0    0  501  502  0.00000000000E+00  0.00000000000E+00  0.30082843281E+01  0.30082843281E+01  0.00000000000E+00 0. -1.
          2   -1    0    0  502    0 -0.00000000000E+00 -0.00000000000E+00 -0.19173915533E+04  0.19173915533E+04  0.00000000000E+00 0. -1.
         24    2    1    2    0    0 -0.92881693507E+01 -0.21983632366E+02 -0.18474105819E+04  0.18493020811E+04  0.80142239330E+02 0.  0.
        -11    1    3    3    0    0 -0.82437907575E+01  0.10365657917E+02 -0.54033540768E+02  0.55632998104E+02  0.00000000000E+00 0.  1.
         12    1    3    3    0    0 -0.10443785932E+01 -0.32349290283E+02 -0.17933770412E+04  0.17936690830E+04  0.00000000000E+00 0. -1.
          1    1    1    2  501    0  0.92881693507E+01  0.21983632366E+02 -0.66972686972E+02  0.71097756520E+02  0.00000000000E+00 0. -1.
<mgrwt>
<rscale>  1 0.83620145E+02</rscale>
<asrwt>0</asrwt>
<pdfrwt beam="1">  1       21 0.46281243E-03 0.83620145E+02</pdfrwt>
<pdfrwt beam="2">  1        2 0.29498366E+00 0.83620145E+02</pdfrwt>
<totfact> 0.12909758E+06</totfact>
</mgrwt>
</event>
<event>
 6    2  0.8544106E+000  0.9586003E+02  0.7546771E-02  0.1289251E+00
         21   -1    0    0  501  502  0.00000000000E+00  0.00000000000E+00  0.10940701511E+02  0.10940701511E+02  0.00000000000E+00 0. -1.
          2   -1    0    0  502    0 -0.00000000000E+00 -0.00000000000E+00 -0.85576238747E+03  0.85576238747E+03  0.00000000000E+00 0. -1.
         24    2    1    2    0    0  0.41652899159E+02 -0.29371945939E+02 -0.77135200316E+03  0.77728569969E+03  0.81187874418E+02 0.  0.
        -11    1    3    3    0    0 -0.13504424542E+02  0.10547409215E+02 -0.52706039225E+02  0.55421511114E+02  0.00000000000E+00 0.  1.
         12    1    3    3    0    0  0.55157323701E+02 -0.39919355154E+02 -0.71864596393E+03  0.72186418858E+03  0.00000000000E+00 0. -1.
          1    1    1    2  501    0 -0.41652899159E+02  0.29371945939E+02 -0.73469682804E+02  0.89417389292E+02  0.00000000000E+00 0. -1.
<mgrwt>
<rscale>  1 0.95860034E+02</rscale>
<asrwt>0</asrwt>
<pdfrwt beam="1">  1       21 0.16831844E-02 0.95860034E+02</pdfrwt>
<pdfrwt beam="2">  1        2 0.13165579E+00 0.95860034E+02</pdfrwt>
<totfact> 0.64432057E+05</totfact>
</mgrwt>
</event>
<event>
 6    2  0.8544106E+000  0.8865151E+02  0.7546771E-02  0.1306150E+00
         21   -1    0    0  501  502  0.00000000000E+00  0.00000000000E+00  0.24644419359E+03  0.24644419359E+03  0.00000000000E+00 0.  1.
          4   -1    0    0  502    0 -0.00000000000E+00 -0.00000000000E+00 -0.16188103172E+02  0.16188103172E+02  0.00000000000E+00 0. -1.
         24    2    1    2    0    0  0.36131019133E+02 -0.37153020992E+01  0.17974502926E+03  0.20041797917E+03  0.80869257573E+02 0.  0.
        -13    1    3    3    0    0  0.87016541601E+01 -0.15349162268E+02  0.16713670184E+03  0.16806544163E+03  0.00000000000E+00 0.  1.
         14    1    3    3    0    0  0.27429364973E+02  0.11633860169E+02  0.12608327411E+02  0.32352537541E+02  0.00000000000E+00 0. -1.
          3    1    1    2  501    0 -0.36131019133E+02  0.37153020992E+01  0.50511061167E+02  0.62214317592E+02  0.00000000000E+00 0. -1.
<mgrwt>
<rscale>  1 0.88651513E+02</rscale>
<asrwt>0</asrwt>
<pdfrwt beam="1">  1       21 0.37914489E-01 0.88651513E+02</pdfrwt>
<pdfrwt beam="2">  1        4 0.24904776E-02 0.88651513E+02</pdfrwt>
<totfact> 0.18337609E+05</totfact>
</mgrwt>
</event>
<event>
 6    2  0.8544106E+000  0.8397866E+02  0.7546771E-02  0.1318125E+00
          2   -1    0    0  502    0 -0.00000000000E+00  0.00000000000E+00  0.64670341696E+03  0.64670341696E+03  0.00000000000E+00 0. -1.
         21   -1    0    0  501  502  0.00000000000E+00 -0.00000000000E+00 -0.50959729501E+02  0.50959729501E+02  0.00000000000E+00 0. -1.
         24    2    1    2    0    0  0.42678689324E+01  0.26682301344E+02  0.64017529812E+03  0.64565999332E+03  0.79512607467E+02 0.  0.
        -11    1    3    3    0    0  0.33648578279E+01 -0.21869727604E+02  0.69846457358E+02  0.73267556661E+02  0.00000000000E+00 0.  1.
         12    1    3    3    0    0  0.90301110451E+00  0.48552028948E+02  0.57032884076E+03  0.57239243666E+03  0.00000000000E+00 0. -1.
          1    1    1    2  501    0 -0.42678689324E+01 -0.26682301344E+02 -0.44431610661E+02  0.52003153137E+02  0.00000000000E+00 0. -1.
<mgrwt>
<rscale>  1 0.83978656E+02</rscale>
<asrwt>0</asrwt>
<pdfrwt beam="1">  1       21 0.78399588E-02 0.83978656E+02</pdfrwt>
<pdfrwt beam="2">  1        2 0.99492828E-01 0.83978656E+02</pdfrwt>
<totfact> 0.71514068E+04</totfact>
</mgrwt>
</event>
<event>
 6    2  0.8544106E+000  0.1246009E+03  0.7546771E-02  0.1235694E+00
          2   -1    0    0  502    0 -0.00000000000E+00  0.00000000000E+00  0.18232184778E+04  0.18232184778E+04  0.00000000000E+00 0. -1.
         21   -1    0    0  501  502  0.00000000000E+00 -0.00000000000E+00 -0.65933807822E+01  0.65933807822E+01  0.00000000000E+00 0.  1.
         24    2    1    2    0    0  0.70589252488E+02  0.62453389701E+02  0.97705095355E+03  0.98496393686E+03  0.81499218633E+02 0.  0.
        -13    1    3    3    0    0  0.22034967888E+02 -0.46981389792E+01  0.58594540304E+02  0.62776846633E+02  0.00000000000E+00 0.  1.
         14    1    3    3    0    0  0.48554284601E+02  0.67151528680E+02  0.91845641325E+03  0.92218709023E+03  0.00000000000E+00 0. -1.
          1    1    1    2  501    0 -0.70589252488E+02 -0.62453389701E+02  0.83957414350E+03  0.84484792175E+03  0.00000000000E+00 0. -1.
<mgrwt>
<rscale>  1 0.12460093E+03</rscale>
<asrwt>0</asrwt>
<pdfrwt beam="1">  1       21 0.10143677E-02 0.12460093E+03</pdfrwt>
<pdfrwt beam="2">  1        2 0.28049475E+00 0.12460093E+03</pdfrwt>
<totfact> 0.43362887E+05</totfact>
</mgrwt>
</event>
<event>
 6    2  0.8544106E+000  0.9072894E+02  0.7546771E-02  0.1301096E+00
          2   -1    0    0  502    0 -0.00000000000E+00  0.00000000000E+00  0.76053780235E+03  0.76053780235E+03  0.00000000000E+00 0. -1.
         21   -1    0    0  501  502  0.00000000000E+00 -0.00000000000E+00 -0.61154954989E+01  0.61154954989E+01  0.00000000000E+00 0. -1.
         24    2    1    2    0    0 -0.32743302711E+02 -0.22046571277E+02  0.61836105822E+03  0.62498171087E+03  0.81691893257E+02 0.  0.
        -11    1    3    3    0    0 -0.10943358027E+02  0.29160788446E+02  0.14171033090E+03  0.14509282047E+03  0.00000000000E+00 0.  1.
         12    1    3    3    0    0 -0.21799944684E+02 -0.51207359723E+02  0.47665072732E+03  0.47988889040E+03  0.00000000000E+00 0. -1.
          1    1    1    2  501    0  0.32743302711E+02  0.22046571277E+02  0.13606124863E+03  0.14167158697E+03  0.00000000000E+00 0. -1.
<mgrwt>
<rscale>  1 0.90728940E+02</rscale>
<asrwt>0</asrwt>
<pdfrwt beam="1">  1       21 0.94084607E-03 0.90728940E+02</pdfrwt>
<pdfrwt beam="2">  1        2 0.11700574E+00 0.90728940E+02</pdfrwt>
<totfact> 0.18536645E+06</totfact>
</mgrwt>
</event>
<event>
 6    2  0.8544106E+000  0.8367337E+02  0.7546771E-02  0.1318939E+00
          2   -1    0    0  502    0 -0.00000000000E+00  0.00000000000E+00  0.13267993092E+04  0.13267993092E+04  0.00000000000E+00 0. -1.
         21   -1    0    0  501  502  0.00000000000E+00 -0.00000000000E+00 -0.28420587491E+01  0.28420587491E+01  0.00000000000E+00 0.  1.
         24    2    1    2    0    0  0.11811319941E+00 -0.24268797750E+02  0.12209498297E+04  0.12238135964E+04  0.80076486363E+02 0.  0.
        -11    1    3    3    0    0 -0.14183907584E+02 -0.46904812140E+02  0.10074904968E+04  0.10086814888E+04  0.00000000000E+00 0.  1.
         12    1    3    3    0    0  0.14302020783E+02  0.22636014390E+02  0.21345933284E+03  0.21513210761E+03  0.00000000000E+00 0. -1.
          1    1    1    2  501    0 -0.11811319941E+00  0.24268797750E+02  0.10300742076E+03  0.10582777153E+03  0.00000000000E+00 0. -1.
<mgrwt>
<rscale>  1 0.83673366E+02</rscale>
<asrwt>0</asrwt>
<pdfrwt beam="1">  1       21 0.43724087E-03 0.83673366E+02</pdfrwt>
<pdfrwt beam="2">  1        2 0.20412248E+00 0.83673366E+02</pdfrwt>
<totfact> 0.28009540E+06</totfact>
</mgrwt>
</event>
<event>
 6    2  0.8544106E+000  0.8583464E+02  0.7546771E-02  0.1313264E+00
          4   -1    0    0  502    0 -0.00000000000E+00  0.00000000000E+00  0.40685721686E+02  0.40685721686E+02  0.00000000000E+00 0. -1.
         21   -1    0    0  501  502  0.00000000000E+00 -0.00000000000E+00 -0.81467881573E+02  0.81467881573E+02  0.00000000000E+00 0.  1.
         24    2    1    2    0    0  0.47289396533E+01  0.28827690053E+02 -0.32593874373E+02  0.91814740333E+02  0.80710515496E+02 0.  0.
        -13    1    3    3    0    0  0.24918490245E+02  0.39567702972E+02 -0.45761153062E+02  0.65426427414E+02  0.00000000000E+00 0.  1.
         14    1    3    3    0    0 -0.20189550592E+02 -0.10740012919E+02  0.13167278689E+02  0.26388312919E+02  0.00000000000E+00 0. -1.
          3    1    1    2  501    0 -0.47289396533E+01 -0.28827690053E+02 -0.81882855143E+01  0.30338862927E+02  0.00000000000E+00 0. -1.
<mgrwt>
<rscale>  1 0.85834643E+02</rscale>
<asrwt>0</asrwt>
<pdfrwt beam="1">  1       21 0.12533520E-01 0.85834643E+02</pdfrwt>
<pdfrwt beam="2">  1        4 0.62593418E-02 0.85834643E+02</pdfrwt>
<totfact> 0.33122562E+05</totfact>
</mgrwt>
</event>
<event>
 6    2  0.8544106E+000  0.8249783E+02  0.7546771E-02  0.1322109E+00
          2   -1    0    0  502    0 -0.00000000000E+00  0.00000000000E+00  0.11200676372E+04  0.11200676372E+04  0.00000000000E+00 0. -1.
         21   -1    0    0  501  502  0.00000000000E+00 -0.00000000000E+00 -0.23992262414E+01  0.23992262414E+01  0.00000000000E+00 0.  1.
         24    2    1    2    0    0 -0.10533648962E+02  0.17335441468E+02  0.83238694080E+03  0.83646512830E+03  0.79965094550E+02 0.  0.
        -13    1    3    3    0    0 -0.10838742146E+02  0.41860311637E+02  0.26145199612E+03  0.26500360431E+03  0.00000000000E+00 0.  1.
         14    1    3    3    0    0  0.30509318441E+00 -0.24524870168E+02  0.57093494468E+03  0.57146152399E+03  0.00000000000E+00 0. -1.
          1    1    1    2  501    0  0.10533648962E+02 -0.17335441468E+02  0.28528147015E+03  0.28600173514E+03  0.00000000000E+00 0. -1.
<mgrwt>
<rscale>  1 0.82497828E+02</rscale>
<asrwt>0</asrwt>
<pdfrwt beam="1">  1       21 0.36911262E-03 0.82497828E+02</pdfrwt>
<pdfrwt beam="2">  1        2 0.17231768E+00 0.82497828E+02</pdfrwt>
<totfact> 0.46738869E+06</totfact>
</mgrwt>
</event>
<event>
 6    2  0.8544106E+000  0.8710124E+02  0.7546771E-02  0.1310027E+00
         -1   -1    0    0    0  501 -0.00000000000E+00  0.00000000000E+00  0.37748958288E+02  0.37748958288E+02  0.00000000000E+00 0.  1.
         21   -1    0    0  501  502  0.00000000000E+00 -0.00000000000E+00 -0.13482549061E+03  0.13482549061E+03  0.00000000000E+00 0.  1.
         24    2    1    2    0    0 -0.32710569692E+02 -0.46702288783E+01 -0.20948633864E+02  0.89584995768E+02  0.80590531694E+02 0.  0.
        -13    1    3    3    0    0 -0.58545274508E+02  0.42229279637E+01 -0.20764294115E+02  0.62261851867E+02  0.00000000000E+00 0.  1.
         14    1    3    3    0    0  0.25834704815E+02 -0.88931568420E+01 -0.18433974900E+00  0.27323143901E+02  0.00000000000E+00 0. -1.
         -2    1    1    2    0  502  0.32710569692E+02  0.46702288783E+01 -0.76127898462E+02  0.82989453135E+02  0.00000000000E+00 0.  1.
<mgrwt>
<rscale>  1 0.87101241E+02</rscale>
<asrwt>0</asrwt>
<pdfrwt beam="1">  1       21 0.20742383E-01 0.87101241E+02</pdfrwt>
<pdfrwt beam="2">  1       -1 0.58075320E-02 0.87101241E+02</pdfrwt>
<totfact> 0.25260140E+05</totfact>
</mgrwt>
</event>
<event>
 6    2  0.8544106E+000  0.9248056E+02  0.7546771E-02  0.1296953E+00
          2   -1    0    0  502    0 -0.00000000000E+00  0.00000000000E+00  0.12485078174E+04  0.12485078174E+04  0.00000000000E+00 0. -1.
         21   -1    0    0  501  502  0.00000000000E+00 -0.00000000000E+00 -0.71390548556E+01  0.71390548556E+01  0.00000000000E+00 0.  1.
         24    2    1    2    0    0  0.47785418535E+01  0.47273934945E+02  0.11394461622E+04  0.11431929891E+04  0.79340999974E+02 0.  0.
        -11    1    3    3    0    0  0.41446192528E+01  0.60644591954E+02  0.51076649191E+03  0.51437083282E+03  0.00000000000E+00 0.  1.
         12    1    3    3    0    0  0.63392260069E+00 -0.13370657009E+02  0.62867967029E+03  0.62882215623E+03  0.00000000000E+00 0. -1.
          1    1    1    2  501    0 -0.47785418535E+01 -0.47273934945E+02  0.10192260038E+03  0.11245388324E+03  0.00000000000E+00 0. -1.
<mgrwt>
<rscale>  1 0.92480558E+02</rscale>
<asrwt>0</asrwt>
<pdfrwt beam="1">  1       21 0.10983171E-02 0.92480558E+02</pdfrwt>
<pdfrwt beam="2">  1        2 0.19207795E+00 0.92480558E+02</pdfrwt>
<totfact> 0.74816649E+05</totfact>
</mgrwt>
</event>
<event>
 6    2  0.8544106E+000  0.8302036E+02  0.7546771E-02  0.1320692E+00
          4   -1    0    0  502    0 -0.00000000000E+00  0.00000000000E+00  0.14075430299E+02  0.14075430299E+02  0.00000000000E+00 0. -1.
         21   -1    0    0  501  502  0.00000000000E+00 -0.00000000000E+00 -0.23021023661E+03  0.23021023661E+03  0.00000000000E+00 0. -1.
         24    2    1    2    0    0  0.20682860983E+02 -0.58666564872E+01 -0.12093793744E+03  0.14669139331E+03  0.80188414137E+02 0.  0.
        -11    1    3    3    0    0 -0.23437782060E+02 -0.14300668968E+02 -0.84507859067E+02  0.88856159072E+02  0.00000000000E+00 0.  1.
         12    1    3    3    0    0  0.44120643042E+02  0.84340124810E+01 -0.36430078371E+02  0.57835234236E+02  0.00000000000E+00 0. -1.
          3    1    1    2  501    0 -0.20682860983E+02  0.58666564872E+01 -0.95196868872E+02  0.97594273601E+02  0.00000000000E+00 0. -1.
<mgrwt>
<rscale>  1 0.83020360E+02</rscale>
<asrwt>0</asrwt>
<pdfrwt beam="1">  1       21 0.35416961E-01 0.83020360E+02</pdfrwt>
<pdfrwt beam="2">  1        4 0.21654507E-02 0.83020360E+02</pdfrwt>
<totfact> 0.25665172E+05</totfact>
</mgrwt>
</event>
<event>
 6    2  0.8544106E+000  0.1092068E+03  0.7546771E-02  0.1262046E+00
         21   -1    0    0  501  502  0.00000000000E+00  0.00000000000E+00  0.62138681708E+03  0.62138681708E+03  0.00000000000E+00 0.  1.
         -1   -1    0    0    0  501 -0.00000000000E+00 -0.00000000000E+00 -0.16576866159E+02  0.16576866159E+02  0.00000000000E+00 0.  1.
         24    2    1    2    0    0 -0.25763627796E+02 -0.69532879943E+02  0.21480126871E+03  0.24096827003E+03  0.80171916594E+02 0.  0.
        -11    1    3    3    0    0 -0.36880079746E+02 -0.59413147203E+02  0.83964687779E+02  0.10927090709E+03  0.00000000000E+00 0.  1.
         12    1    3    3    0    0  0.11116451950E+02 -0.10119732739E+02  0.13083658093E+03  0.13169736294E+03  0.00000000000E+00 0. -1.
         -2    1    1    2    0  502  0.25763627796E+02  0.69532879943E+02  0.39000868221E+03  0.39699541321E+03  0.00000000000E+00 0.  1.
<mgrwt>
<rscale>  1 0.10920679E+03</rscale>
<asrwt>0</asrwt>
<pdfrwt beam="1">  1       21 0.95597954E-01 0.10920679E+03</pdfrwt>
<pdfrwt beam="2">  1       -1 0.25502876E-02 0.10920679E+03</pdfrwt>
<totfact> 0.38037399E+04</totfact>
</mgrwt>
</event>
<event>
 6    2  0.8544106E+000  0.8463299E+02  0.7546771E-02  0.1316395E+00
          2   -1    0    0  502    0 -0.00000000000E+00  0.00000000000E+00  0.31577674778E+03  0.31577674778E+03  0.00000000000E+00 0. -1.
         21   -1    0    0  501  502  0.00000000000E+00 -0.00000000000E+00 -0.43808031035E+02  0.43808031035E+02  0.00000000000E+00 0. -1.
         24    2    1    2    0    0  0.12955731525E+02  0.25693106330E+02  0.30456471588E+03  0.31610506112E+03  0.79591185531E+02 0.  0.
        -13    1    3    3    0    0  0.30944251428E+02  0.58321306559E+01  0.43675911533E+02  0.53843715442E+02  0.00000000000E+00 0.  1.
         14    1    3    3    0    0 -0.17988519902E+02  0.19860975674E+02  0.26088880434E+03  0.26226134567E+03  0.00000000000E+00 0. -1.
          1    1    1    2  501    0 -0.12955731525E+02 -0.25693106330E+02 -0.32595999128E+02  0.43479717701E+02  0.00000000000E+00 0. -1.
<mgrwt>
<rscale>  1 0.84632993E+02</rscale>
<asrwt>0</asrwt>
<pdfrwt beam="1">  1       21 0.67396973E-02 0.84632993E+02</pdfrwt>
<pdfrwt beam="2">  1        2 0.48581037E-01 0.84632993E+02</pdfrwt>
<totfact> 0.19924813E+05</totfact>
</mgrwt>
</event>
<event>
 6    2  0.8544106E+000  0.8695225E+02  0.7546771E-02  0.1310405E+00
         21   -1    0    0  501  502  0.00000000000E+00  0.00000000000E+00  0.12287641424E+02  0.12287641424E+02  0.00000000000E+00 0.  1.
          2   -1    0    0  502    0 -0.00000000000E+00 -0.00000000000E+00 -0.29135724937E+03  0.29135724937E+03  0.00000000000E+00 0. -1.
         24    2    1    2    0    0 -0.69659894842E+01  0.19368828950E+02 -0.26450271593E+03  0.27842841032E+03  0.84480864070E+02 0.  0.
        -11    1    3    3    0    0  0.21347230285E+02 -0.11486157169E+02 -0.23320099271E+02  0.33637227552E+02  0.00000000000E+00 0.  1.
         12    1    3    3    0    0 -0.28313219769E+02  0.30854986120E+02 -0.24118261666E+03  0.24479118277E+03  0.00000000000E+00 0. -1.
          1    1    1    2  501    0  0.69659894842E+01 -0.19368828950E+02 -0.14566892008E+02  0.25216480467E+02  0.00000000000E+00 0. -1.
<mgrwt>
<rscale>  1 0.86952245E+02</rscale>
<asrwt>0</asrwt>
<pdfrwt beam="1">  1       21 0.18904065E-02 0.86952245E+02</pdfrwt>
<pdfrwt beam="2">  1        2 0.44824189E-01 0.86952245E+02</pdfrwt>
<totfact> 0.17417797E+06</totfact>
</mgrwt>
</event>
<event>
 6    2  0.8544106E+000  0.8410000E+02  0.7546771E-02  0.1317803E+00
         21   -1    0    0  501  502  0.00000000000E+00  0.00000000000E+00  0.77346178166E+02  0.77346178166E+02  0.00000000000E+00 0. -1.
          2   -1    0    0  502    0 -0.00000000000E+00 -0.00000000000E+00 -0.19753980466E+03  0.19753980466E+03  0.00000000000E+00 0. -1.
         24    2    1    2    0    0 -0.24339110779E+02 -0.92725533468E+01 -0.18599095427E+03  0.20412115470E+03  0.79965230991E+02 0.  0.
        -13    1    3    3    0    0 -0.14109525958E+02  0.30351809875E+02 -0.38296308295E+02  0.50861756895E+02  0.00000000000E+00 0.  1.
         14    1    3    3    0    0 -0.10229584821E+02 -0.39624363222E+02 -0.14769464597E+03  0.15325939780E+03  0.00000000000E+00 0. -1.
          1    1    1    2  501    0  0.24339110779E+02  0.92725533468E+01  0.65797327768E+02  0.70764828132E+02  0.00000000000E+00 0. -1.
<mgrwt>
<rscale>  1 0.84100004E+02</rscale>
<asrwt>0</asrwt>
<pdfrwt beam="1">  1       21 0.11899412E-01 0.84100004E+02</pdfrwt>
<pdfrwt beam="2">  1        2 0.30390738E-01 0.84100004E+02</pdfrwt>
<totfact> 0.12276510E+05</totfact>
</mgrwt>
</event>
<event>
 6    2  0.8544106E+000  0.9258235E+02  0.7546771E-02  0.1296716E+00
          4   -1    0    0  502    0 -0.00000000000E+00  0.00000000000E+00  0.83905770119E+02  0.83905770119E+02  0.00000000000E+00 0. -1.
         21   -1    0    0  501  502  0.00000000000E+00 -0.00000000000E+00 -0.16646150624E+03  0.16646150624E+03  0.00000000000E+00 0. -1.
         24    2    1    2    0    0 -0.38467677996E+02 -0.25585724598E+02  0.53329242468E+02  0.10684334470E+03  0.80231543984E+02 0.  0.
        -11    1    3    3    0    0  0.22389389104E+02 -0.21797466875E+02  0.22592609210E+02  0.38559568171E+02  0.00000000000E+00 0.  1.
         12    1    3    3    0    0 -0.60857067100E+02 -0.37882577240E+01  0.30736633258E+02  0.68283776525E+02  0.00000000000E+00 0. -1.
          3    1    1    2  501    0  0.38467677996E+02  0.25585724598E+02 -0.13588497859E+03  0.14352393166E+03  0.00000000000E+00 0. -1.
<mgrwt>
<rscale>  1 0.92582354E+02</rscale>
<asrwt>0</asrwt>
<pdfrwt beam="1">  1       21 0.25609462E-01 0.92582354E+02</pdfrwt>
<pdfrwt beam="2">  1        4 0.12908580E-01 0.92582354E+02</pdfrwt>
<totfact> 0.27651561E+04</totfact>
</mgrwt>
</event>
<event>
 6    2  0.8544106E+000  0.1037517E+03  0.7546771E-02  0.1272599E+00
          2   -1    0    0  502    0 -0.00000000000E+00  0.00000000000E+00  0.68324239228E+03  0.68324239228E+03  0.00000000000E+00 0. -1.
         21   -1    0    0  501  502  0.00000000000E+00 -0.00000000000E+00 -0.10705137800E+02  0.10705137800E+02  0.00000000000E+00 0. -1.
         24    2    1    2    0    0 -0.59561521610E+02 -0.30481789355E+02  0.38577879735E+03  0.39948679063E+03  0.79295025492E+02 0.  0.
        -13    1    3    3    0    0 -0.19009743365E+02 -0.18946771394E+02  0.32147930081E+03  0.32259772370E+03  0.00000000000E+00 0.  1.
         14    1    3    3    0    0 -0.40551778245E+02 -0.11535017961E+02  0.64299496536E+02  0.76889066928E+02  0.00000000000E+00 0. -1.
          1    1    1    2  501    0  0.59561521610E+02  0.30481789355E+02  0.28675845713E+03  0.29446073945E+03  0.00000000000E+00 0. -1.
<mgrwt>
<rscale>  1 0.10375170E+03</rscale>
<asrwt>0</asrwt>
<pdfrwt beam="1">  1       21 0.16469448E-02 0.10375170E+03</pdfrwt>
<pdfrwt beam="2">  1        2 0.10511418E+00 0.10375170E+03</pdfrwt>
<totfact> 0.88078494E+05</totfact>
</mgrwt>
</event>
<event>
 6    2  0.8544106E+000  0.8339747E+02  0.7546771E-02  0.1319677E+00
          2   -1    0    0  502    0 -0.00000000000E+00  0.00000000000E+00  0.82971398130E+02  0.82971398130E+02  0.00000000000E+00 0. -1.
         21   -1    0    0  501  502  0.00000000000E+00 -0.00000000000E+00 -0.80674392177E+02  0.80674392177E+02  0.00000000000E+00 0. -1.
         24    2    1    2    0    0 -0.12002971087E+02  0.29567069410E+02  0.56509021579E+02  0.10073930776E+03  0.77050994148E+02 0.  0.
        -13    1    3    3    0    0 -0.15104701708E+02 -0.20342473969E+02  0.74152609856E-01  0.25337201098E+02  0.00000000000E+00 0.  1.
         14    1    3    3    0    0  0.31017306212E+01  0.49909543379E+02  0.56434868969E+02  0.75402106660E+02  0.00000000000E+00 0. -1.
          1    1    1    2  501    0  0.12002971087E+02 -0.29567069410E+02 -0.54212015627E+02  0.62906482549E+02  0.00000000000E+00 0. -1.
<mgrwt>
<rscale>  1 0.83397474E+02</rscale>
<asrwt>0</asrwt>
<pdfrwt beam="1">  1       21 0.12411445E-01 0.83397474E+02</pdfrwt>
<pdfrwt beam="2">  1        2 0.12764830E-01 0.83397474E+02</pdfrwt>
<totfact> 0.30042699E+05</totfact>
</mgrwt>
</event>
<event>
 6    2  0.8544106E+000  0.8724368E+02  0.7546771E-02  0.1309667E+00
         21   -1    0    0  501  502  0.00000000000E+00  0.00000000000E+00  0.32935629481E+01  0.32935629481E+01  0.00000000000E+00 0. -1.
          2   -1    0    0  502    0 -0.00000000000E+00 -0.00000000000E+00 -0.21986701869E+04  0.21986701869E+04  0.00000000000E+00 0. -1.
         24    2    1    2    0    0  0.13296071983E+02  0.25395039129E+02 -0.21119238427E+04  0.21137250948E+04  0.82400033772E+02 0.  0.
        -11    1    3    3    0    0  0.44351158599E+02  0.14438087632E+02 -0.77938468923E+03  0.78077908364E+03  0.00000000000E+00 0.  1.
         12    1    3    3    0    0 -0.31055086616E+02  0.10956951497E+02 -0.13325391535E+04  0.13329460112E+04  0.00000000000E+00 0. -1.
          1    1    1    2  501    0 -0.13296071983E+02 -0.25395039129E+02 -0.83452781262E+02  0.88238655038E+02  0.00000000000E+00 0. -1.
<mgrwt>
<rscale>  1 0.87243677E+02</rscale>
<asrwt>0</asrwt>
<pdfrwt beam="1">  1       21 0.50670093E-03 0.87243677E+02</pdfrwt>
<pdfrwt beam="2">  1        2 0.33825766E+00 0.87243677E+02</pdfrwt>
<totfact> 0.81321260E+05</totfact>
</mgrwt>
</event>
<event>
 6    2  0.8544106E+000  0.8498248E+02  0.7546771E-02  0.1315478E+00
         21   -1    0    0  501  502  0.00000000000E+00  0.00000000000E+00  0.10983788058E+02  0.10983788058E+02  0.00000000000E+00 0.  1.
          2   -1    0    0  502    0 -0.00000000000E+00 -0.00000000000E+00 -0.32909216461E+03  0.32909216461E+03  0.00000000000E+00 0. -1.
         24    2    1    2    0    0  0.42133071301E+01  0.27121491465E+02 -0.28316317440E+03  0.29564066928E+03  0.80428196181E+02 0.  0.
        -13    1    3    3    0    0  0.20418308603E+02 -0.72554368127E+01 -0.19187454139E+02  0.28943169935E+02  0.00000000000E+00 0.  1.
         14    1    3    3    0    0 -0.16205001473E+02  0.34376928278E+02 -0.26397572026E+03  0.26669749934E+03  0.00000000000E+00 0. -1.
          1    1    1    2  501    0 -0.42133071301E+01 -0.27121491465E+02 -0.34945202158E+02  0.44435283392E+02  0.00000000000E+00 0. -1.
<mgrwt>
<rscale>  1 0.84982481E+02</rscale>
<asrwt>0</asrwt>
<pdfrwt beam="1">  1       21 0.16898133E-02 0.84982481E+02</pdfrwt>
<pdfrwt beam="2">  1        2 0.50629571E-01 0.84982481E+02</pdfrwt>
<totfact> 0.18287745E+06</totfact>
</mgrwt>
</event>
<event>
 6    2  0.8544106E+000  0.8403053E+02  0.7546771E-02  0.1317987E+00
          2   -1    0    0  502    0 -0.00000000000E+00  0.00000000000E+00  0.26776595444E+04  0.26776595444E+04  0.00000000000E+00 0. -1.
         21   -1    0    0  501  502  0.00000000000E+00 -0.00000000000E+00 -0.11853261770E+01  0.11853261770E+01  0.00000000000E+00 0.  1.
         24    2    1    2    0    0 -0.24933607014E+02  0.10099070768E+02  0.18039853875E+04  0.18059414191E+04  0.79608131870E+02 0.  0.
        -11    1    3    3    0    0 -0.34749521900E+00 -0.11075336489E+02  0.36192415141E+02  0.37850690152E+02  0.00000000000E+00 0.  1.
         12    1    3    3    0    0 -0.24586111795E+02  0.21174407257E+02  0.17677929724E+04  0.17680907289E+04  0.00000000000E+00 0. -1.
          1    1    1    2  501    0  0.24933607014E+02 -0.10099070768E+02  0.87248883071E+03  0.87290345153E+03  0.00000000000E+00 0. -1.
<mgrwt>
<rscale>  1 0.84030534E+02</rscale>
<asrwt>0</asrwt>
<pdfrwt beam="1">  1       21 0.18236002E-03 0.84030534E+02</pdfrwt>
<pdfrwt beam="2">  1        2 0.41194278E+00 0.84030534E+02</pdfrwt>
<totfact> 0.21436085E+06</totfact>
</mgrwt>
</event>
<event>
 6    2  0.8544106E+000  0.1504802E+03  0.7546771E-02  0.1199884E+00
          2   -1    0    0  502    0 -0.00000000000E+00  0.00000000000E+00  0.60717658935E+03  0.60717658935E+03  0.00000000000E+00 0. -1.
         21   -1    0    0  501  502  0.00000000000E+00 -0.00000000000E+00 -0.34492059198E+02  0.34492059198E+02  0.00000000000E+00 0.  1.
         24    2    1    2    0    0 -0.40377562550E+02  0.12121297740E+03  0.21987019267E+03  0.26643420160E+03  0.79506909802E+02 0.  0.
        -11    1    3    3    0    0 -0.62207476627E+02  0.73589401478E+02  0.12241409472E+03  0.15578953991E+03  0.00000000000E+00 0.  1.
         12    1    3    3    0    0  0.21829914077E+02  0.47623575925E+02  0.97456097952E+02  0.11064466169E+03  0.00000000000E+00 0. -1.
          1    1    1    2  501    0  0.40377562550E+02 -0.12121297740E+03  0.35281433748E+03  0.37523444695E+03  0.00000000000E+00 0. -1.
<mgrwt>
<rscale>  1 0.15048017E+03</rscale>
<asrwt>0</asrwt>
<pdfrwt beam="1">  1       21 0.53064711E-02 0.15048017E+03</pdfrwt>
<pdfrwt beam="2">  1        2 0.93411775E-01 0.15048017E+03</pdfrwt>
<totfact> 0.15131051E+05</totfact>
</mgrwt>
</event>
<event>
 6    2  0.8544106E+000  0.8358209E+02  0.7546771E-02  0.1319183E+00
          2   -1    0    0  502    0 -0.00000000000E+00  0.00000000000E+00  0.18966905033E+04  0.18966905033E+04  0.00000000000E+00 0. -1.
         21   -1    0    0  501  502  0.00000000000E+00 -0.00000000000E+00 -0.15810189138E+01  0.15810189138E+01  0.00000000000E+00 0. -1.
         24    2    1    2    0    0 -0.20440934261E+02 -0.12132784204E+02  0.16122171529E+04  0.16143822701E+04  0.80130703827E+02 0.  0.
        -13    1    3    3    0    0  0.29360362232E+02  0.67715663460E+01  0.53223600775E+03  0.53308822246E+03  0.00000000000E+00 0.  1.
         14    1    3    3    0    0 -0.49801296493E+02 -0.18904350550E+02  0.10799811452E+04  0.10812940477E+04  0.00000000000E+00 0. -1.
          1    1    1    2  501    0  0.20440934261E+02  0.12132784204E+02  0.28289233141E+03  0.28388925203E+03  0.00000000000E+00 0. -1.
<mgrwt>
<rscale>  1 0.83582091E+02</rscale>
<asrwt>0</asrwt>
<pdfrwt beam="1">  1       21 0.24323520E-03 0.83582091E+02</pdfrwt>
<pdfrwt beam="2">  1        2 0.29179672E+00 0.83582091E+02</pdfrwt>
<totfact> 0.35018988E+06</totfact>
</mgrwt>
</event>
<event>
 6    2  0.8544106E+000  0.9253283E+02  0.7546771E-02  0.1296831E+00
         21   -1    0    0  501  502  0.00000000000E+00  0.00000000000E+00  0.20229345088E+01  0.20229345088E+01  0.00000000000E+00 0. -1.
          2   -1    0    0  502    0 -0.00000000000E+00 -0.00000000000E+00 -0.29049260194E+04  0.29049260194E+04  0.00000000000E+00 0. -1.
         24    2    1    2    0    0 -0.21287451379E+02  0.42124018439E+02 -0.24140465900E+04  0.24158193772E+04  0.79591055237E+02 0.  0.
        -13    1    3    3    0    0 -0.23044689903E+01 -0.20525636376E+02 -0.27639213113E+03  0.27716280861E+03  0.00000000000E+00 0.  1.
         14    1    3    3    0    0 -0.18982982389E+02  0.62649654815E+02 -0.21376544589E+04  0.21386565686E+04  0.00000000000E+00 0. -1.
          1    1    1    2  501    0  0.21287451379E+02 -0.42124018439E+02 -0.48885649489E+03  0.49112957670E+03  0.00000000000E+00 0. -1.
<mgrwt>
<rscale>  1 0.92532830E+02</rscale>
<asrwt>0</asrwt>
<pdfrwt beam="1">  1       21 0.31122166E-03 0.92532830E+02</pdfrwt>
<pdfrwt beam="2">  1        2 0.44691031E+00 0.92532830E+02</pdfrwt>
<totfact> 0.72270718E+05</totfact>
</mgrwt>
</event>
<event>
 6    2  0.8544106E+000  0.8636152E+02  0.7546771E-02  0.1311910E+00
         21   -1    0    0  501  502  0.00000000000E+00  0.00000000000E+00  0.27181127514E+02  0.27181127514E+02  0.00000000000E+00 0.  1.
          2   -1    0    0  502    0 -0.00000000000E+00 -0.00000000000E+00 -0.17353862853E+03  0.17353862853E+03  0.00000000000E+00 0. -1.
         24    2    1    2    0    0 -0.30815304573E+02  0.38220690780E+01 -0.50689345369E+02  0.10013850922E+03  0.80586103559E+02 0.  0.
        -11    1    3    3    0    0 -0.17768276483E+01 -0.12193106333E+02  0.19181003844E+02  0.22797803995E+02  0.00000000000E+00 0.  1.
         12    1    3    3    0    0 -0.29038476925E+02  0.16015175411E+02 -0.69870349213E+02  0.77340705225E+02  0.00000000000E+00 0. -1.
          1    1    1    2  501    0  0.30815304573E+02 -0.38220690780E+01 -0.95668155648E+02  0.10058124683E+03  0.00000000000E+00 0. -1.
<mgrwt>
<rscale>  1 0.86361515E+02</rscale>
<asrwt>0</asrwt>
<pdfrwt beam="1">  1       21 0.41817120E-02 0.86361515E+02</pdfrwt>
<pdfrwt beam="2">  1        2 0.26698250E-01 0.86361515E+02</pdfrwt>
<totfact> 0.83187619E+05</totfact>
</mgrwt>
</event>
<event>
 6    2  0.8544106E+000  0.1021941E+03  0.7546771E-02  0.1275749E+00
         21   -1    0    0  501  502  0.00000000000E+00  0.00000000000E+00  0.10151246757E+03  0.10151246757E+03  0.00000000000E+00 0.  1.
         -1   -1    0    0    0  501 -0.00000000000E+00 -0.00000000000E+00 -0.65595481297E+02  0.65595481297E+02  0.00000000000E+00 0.  1.
         24    2    1    2    0    0  0.41383898345E+02 -0.40733086908E+02  0.37929283693E+02  0.10900579097E+03  0.84094116872E+02 0.  0.
        -13    1    3    3    0    0  0.64390790045E+02 -0.36590451735E+02  0.42202820190E+02  0.85241498302E+02  0.00000000000E+00 0.  1.
         14    1    3    3    0    0 -0.23006891700E+02 -0.41426351729E+01 -0.42735364969E+01  0.23764292669E+02  0.00000000000E+00 0. -1.
         -2    1    1    2    0  502 -0.41383898345E+02  0.40733086908E+02 -0.20122974207E+01  0.58102157896E+02  0.00000000000E+00 0.  1.
<mgrwt>
<rscale>  1 0.10219409E+03</rscale>
<asrwt>0</asrwt>
<pdfrwt beam="1">  1       21 0.15617303E-01 0.10219409E+03</pdfrwt>
<pdfrwt beam="2">  1       -1 0.10091612E-01 0.10219409E+03</pdfrwt>
<totfact> 0.18796265E+05</totfact>
</mgrwt>
</event>
<event>
 6    2  0.8544106E+000  0.9878091E+02  0.7546771E-02  0.1282881E+00
         -3   -1    0    0    0  501 -0.00000000000E+00  0.00000000000E+00  0.33082436527E+03  0.33082436527E+03  0.00000000000E+00 0.  1.
         21   -1    0    0  501  502  0.00000000000E+00 -0.00000000000E+00 -0.19558770780E+02  0.19558770780E+02  0.00000000000E+00 0. -1.
         24    2    1    2    0    0 -0.47642332672E+02  0.30365789528E+02  0.15089863896E+03  0.18035539284E+03  0.81029596133E+02 0.  0.
        -13    1    3    3    0    0 -0.24029176931E+02 -0.17901389725E+02  0.10655254092E+03  0.11068561368E+03  0.00000000000E+00 0.  1.
         14    1    3    3    0    0 -0.23613155742E+02  0.48267179253E+02  0.44346098039E+02  0.69669779162E+02  0.00000000000E+00 0. -1.
         -4    1    1    2    0  502  0.47642332672E+02 -0.30365789528E+02  0.16036695553E+03  0.17002774321E+03  0.00000000000E+00 0.  1.
<mgrwt>
<rscale>  1 0.98780912E+02</rscale>
<asrwt>0</asrwt>
<pdfrwt beam="1">  1       21 0.30090419E-02 0.98780912E+02</pdfrwt>
<pdfrwt beam="2">  1       -3 0.50896052E-01 0.98780912E+02</pdfrwt>
<totfact> 0.11079228E+05</totfact>
</mgrwt>
</event>
<event>
 6    2  0.8544106E+000  0.8327076E+02  0.7546771E-02  0.1320018E+00
          2   -1    0    0  502    0 -0.00000000000E+00  0.00000000000E+00  0.44078505658E+01  0.44078505658E+01  0.00000000000E+00 0. -1.
         21   -1    0    0  501  502  0.00000000000E+00 -0.00000000000E+00 -0.73421592827E+03  0.73421592827E+03  0.00000000000E+00 0.  1.
         24    2    1    2    0    0 -0.15249264216E+02 -0.17333141154E+02 -0.43400804988E+03  0.44192420974E+03  0.80006511931E+02 0.  0.
        -13    1    3    3    0    0 -0.34683396328E+02 -0.32408891907E+02 -0.37504065719E+03  0.37803276154E+03  0.00000000000E+00 0.  1.
         14    1    3    3    0    0  0.19434132112E+02  0.15075750753E+02 -0.58967392688E+02  0.63891448192E+02  0.00000000000E+00 0. -1.
          1    1    1    2  501    0  0.15249264216E+02  0.17333141154E+02 -0.29580002782E+03  0.29669956910E+03  0.00000000000E+00 0. -1.
<mgrwt>
<rscale>  1 0.83270762E+02</rscale>
<asrwt>0</asrwt>
<pdfrwt beam="1">  1       21 0.11295615E+00 0.83270762E+02</pdfrwt>
<pdfrwt beam="2">  1        2 0.67813173E-03 0.83270762E+02</pdfrwt>
<totfact> 0.17179067E+05</totfact>
</mgrwt>
</event>
<event>
 6    2  0.8544106E+000  0.9010925E+02  0.7546771E-02  0.1302587E+00
          2   -1    0    0  502    0 -0.00000000000E+00  0.00000000000E+00  0.10768732013E+04  0.10768732013E+04  0.00000000000E+00 0. -1.
         21   -1    0    0  501  502  0.00000000000E+00 -0.00000000000E+00 -0.60772157787E+01  0.60772157787E+01  0.00000000000E+00 0. -1.
         24    2    1    2    0    0  0.90666658147E+01 -0.39531271452E+02  0.97179703240E+03  0.97596575196E+03  0.80465837261E+02 0.  0.
        -11    1    3    3    0    0  0.23370921610E+02  0.15933427382E+02  0.19256666971E+03  0.19463297863E+03  0.00000000000E+00 0.  1.
         12    1    3    3    0    0 -0.14304255795E+02 -0.55464698834E+02  0.77923036269E+03  0.78133277333E+03  0.00000000000E+00 0. -1.
          1    1    1    2  501    0 -0.90666658147E+01  0.39531271452E+02  0.98998953135E+02  0.10698466513E+03  0.00000000000E+00 0. -1.
<mgrwt>
<rscale>  1 0.90109249E+02</rscale>
<asrwt>0</asrwt>
<pdfrwt beam="1">  1       21 0.93495713E-03 0.90109249E+02</pdfrwt>
<pdfrwt beam="2">  1        2 0.16567265E+00 0.90109249E+02</pdfrwt>
<totfact> 0.11939721E+06</totfact>
</mgrwt>
</event>
<event>
 6    2  0.8544106E+000  0.7818465E+02  0.7546771E-02  0.1334284E+00
         21   -1    0    0  501  502  0.00000000000E+00  0.00000000000E+00  0.62746002364E+01  0.62746002364E+01  0.00000000000E+00 0. -1.
          2   -1    0    0  502    0 -0.00000000000E+00 -0.00000000000E+00 -0.92075373284E+03  0.92075373284E+03  0.00000000000E+00 0. -1.
         24    2    1    2    0    0 -0.16860126740E+02 -0.20092842918E+02 -0.88116899739E+03  0.88463079402E+03  0.73653605162E+02 0.  0.
        -13    1    3    3    0    0 -0.31847451035E+02 -0.68459008570E+01 -0.16512313513E+03  0.16830560374E+03  0.00000000000E+00 0.  1.
         14    1    3    3    0    0  0.14987324295E+02 -0.13246942061E+02 -0.71604586226E+03  0.71632519028E+03  0.00000000000E+00 0. -1.
          1    1    1    2  501    0  0.16860126740E+02  0.20092842918E+02 -0.33310135210E+02  0.42397539055E+02  0.00000000000E+00 0. -1.
<mgrwt>
<rscale>  1 0.78184652E+02</rscale>
<asrwt>0</asrwt>
<pdfrwt beam="1">  1       21 0.96532379E-03 0.78184652E+02</pdfrwt>
<pdfrwt beam="2">  1        2 0.14165432E+00 0.78184652E+02</pdfrwt>
<totfact> 0.13845488E+06</totfact>
</mgrwt>
</event>
<event>
 6    2  0.8544106E+000  0.7954419E+02  0.7546771E-02  0.1330350E+00
         21   -1    0    0  501  502  0.00000000000E+00  0.00000000000E+00  0.19221037342E+03  0.19221037342E+03  0.00000000000E+00 0.  1.
         -3   -1    0    0    0  501 -0.00000000000E+00 -0.00000000000E+00 -0.27942162788E+02  0.27942162788E+02  0.00000000000E+00 0.  1.
         24    2    1    2    0    0 -0.27856553885E+02  0.16413519696E+02  0.35002967655E+02  0.86905043679E+02  0.72676596295E+02 0.  0.
        -11    1    3    3    0    0 -0.36144318159E+02 -0.73903169352E+01 -0.73520346922E+01  0.37617561507E+02  0.00000000000E+00 0.  1.
         12    1    3    3    0    0  0.82877642742E+01  0.23803836631E+02  0.42355002347E+02  0.49287482172E+02  0.00000000000E+00 0. -1.
         -4    1    1    2    0  502  0.27856553885E+02 -0.16413519696E+02  0.12926524298E+03  0.13324749253E+03  0.00000000000E+00 0.  1.
<mgrwt>
<rscale>  1 0.79544194E+02</rscale>
<asrwt>0</asrwt>
<pdfrwt beam="1">  1       21 0.29570826E-01 0.79544194E+02</pdfrwt>
<pdfrwt beam="2">  1       -3 0.42987944E-02 0.79544194E+02</pdfrwt>
<totfact> 0.14088057E+05</totfact>
</mgrwt>
</event>
<event>
 6    2  0.8544106E+000  0.8270400E+02  0.7546771E-02  0.1321548E+00
         21   -1    0    0  501  502  0.00000000000E+00  0.00000000000E+00  0.59720272935E+02  0.59720272935E+02  0.00000000000E+00 0.  1.
          2   -1    0    0  502    0 -0.00000000000E+00 -0.00000000000E+00 -0.45911739136E+02  0.45911739136E+02  0.00000000000E+00 0. -1.
         24    2    1    2    0    0  0.11252929895E+02 -0.16735666425E+02  0.30166875569E+01  0.82758995060E+02  0.80207480309E+02 0.  0.
        -13    1    3    3    0    0  0.22117840211E+02 -0.25970252806E+02  0.34302587030E+02  0.48376857725E+02  0.00000000000E+00 0.  1.
         14    1    3    3    0    0 -0.10864910317E+02  0.92345863806E+01 -0.31285899473E+02  0.34382137334E+02  0.00000000000E+00 0. -1.
          1    1    1    2  501    0 -0.11252929895E+02  0.16735666425E+02  0.10791846242E+02  0.22873017012E+02  0.00000000000E+00 0. -1.
<mgrwt>
<rscale>  1 0.82703995E+02</rscale>
<asrwt>0</asrwt>
<pdfrwt beam="1">  1       21 0.91877343E-02 0.82703995E+02</pdfrwt>
<pdfrwt beam="2">  1        2 0.70633444E-02 0.82703995E+02</pdfrwt>
<totfact> 0.10382528E+06</totfact>
</mgrwt>
</event>
<event>
 6    2  0.8544106E+000  0.9049618E+02  0.7546771E-02  0.1301655E+00
         21   -1    0    0  501  502  0.00000000000E+00  0.00000000000E+00  0.21915084443E+03  0.21915084443E+03  0.00000000000E+00 0.  1.
         -1   -1    0    0    0  501 -0.00000000000E+00 -0.00000000000E+00 -0.91393772591E+02  0.91393772591E+02  0.00000000000E+00 0.  1.
         24    2    1    2    0    0  0.36337921776E+02 -0.94052896714E+01 -0.66748981230E+02  0.11244992069E+03  0.82344727432E+02 0.  0.
        -13    1    3    3    0    0  0.12079239632E+02 -0.97417162616E+01 -0.82222767948E+02  0.83674324824E+02  0.00000000000E+00 0.  1.
         14    1    3    3    0    0  0.24258682145E+02  0.33642659022E+00  0.15473786718E+02  0.28775595869E+02  0.00000000000E+00 0. -1.
         -2    1    1    2    0  502 -0.36337921776E+02  0.94052896714E+01  0.19450605307E+03  0.19809469632E+03  0.00000000000E+00 0.  1.
<mgrwt>
<rscale>  1 0.90496178E+02</rscale>
<asrwt>0</asrwt>
<pdfrwt beam="1">  1       21 0.33715514E-01 0.90496178E+02</pdfrwt>
<pdfrwt beam="2">  1       -1 0.14060580E-01 0.90496178E+02</pdfrwt>
<totfact> 0.26866747E+04</totfact>
</mgrwt>
</event>
<event>
 6    2  0.8544106E+000  0.9838878E+02  0.7546771E-02  0.1283721E+00
          4   -1    0    0  502    0 -0.00000000000E+00  0.00000000000E+00  0.33255116628E+03  0.33255116628E+03  0.00000000000E+00 0. -1.
         21   -1    0    0  501  502  0.00000000000E+00 -0.00000000000E+00 -0.17948161476E+02  0.17948161476E+02  0.00000000000E+00 0.  1.
         24    2    1    2    0    0  0.14644195419E+02  0.53966724941E+02  0.19175303581E+03  0.21552164537E+03  0.80953647359E+02 0.  0.
        -11    1    3    3    0    0  0.14408414898E+02  0.54567040102E+02  0.55124336719E+02  0.78891424021E+02  0.00000000000E+00 0.  1.
         12    1    3    3    0    0  0.23578052114E+00 -0.60031516142E+00  0.13662869909E+03  0.13663022135E+03  0.00000000000E+00 0. -1.
          3    1    1    2  501    0 -0.14644195419E+02 -0.53966724941E+02  0.12284996899E+03  0.13497768239E+03  0.00000000000E+00 0. -1.
<mgrwt>
<rscale>  1 0.98388784E+02</rscale>
<asrwt>0</asrwt>
<pdfrwt beam="1">  1       21 0.27612558E-02 0.98388784E+02</pdfrwt>
<pdfrwt beam="2">  1        4 0.51161714E-01 0.98388784E+02</pdfrwt>
<totfact> 0.10250636E+05</totfact>
</mgrwt>
</event>
<event>
 6    2  0.8544106E+000  0.9026373E+02  0.7546771E-02  0.1302214E+00
         21   -1    0    0  501  502  0.00000000000E+00  0.00000000000E+00  0.69260896564E+01  0.69260896564E+01  0.00000000000E+00 0. -1.
          2   -1    0    0  502    0 -0.00000000000E+00 -0.00000000000E+00 -0.98017574323E+03  0.98017574323E+03  0.00000000000E+00 0. -1.
         24    2    1    2    0    0  0.37430674404E+02  0.17516705050E+02 -0.88570919815E+03  0.89029676237E+03  0.80247436434E+02 0.  0.
        -13    1    3    3    0    0  0.28270620267E+02 -0.26060889319E+02 -0.24064303786E+03  0.24369544434E+03  0.00000000000E+00 0.  1.
         14    1    3    3    0    0  0.91600541375E+01  0.43577594369E+02 -0.64506616030E+03  0.64660131803E+03  0.00000000000E+00 0. -1.
          1    1    1    2  501    0 -0.37430674404E+02 -0.17516705050E+02 -0.87540455421E+02  0.96805070515E+02  0.00000000000E+00 0. -1.
<mgrwt>
<rscale>  1 0.90263732E+02</rscale>
<asrwt>0</asrwt>
<pdfrwt beam="1">  1       21 0.10655517E-02 0.90263732E+02</pdfrwt>
<pdfrwt beam="2">  1        2 0.15079635E+00 0.90263732E+02</pdfrwt>
<totfact> 0.11072956E+06</totfact>
</mgrwt>
</event>
<event>
 6    2  0.8544106E+000  0.7086778E+02  0.7546771E-02  0.1357167E+00
         21   -1    0    0  501  502  0.00000000000E+00  0.00000000000E+00  0.83246472422E+03  0.83246472422E+03  0.00000000000E+00 0.  1.
          2   -1    0    0  502    0 -0.00000000000E+00 -0.00000000000E+00 -0.26787693109E+01  0.26787693109E+01  0.00000000000E+00 0. -1.
         24    2    1    2    0    0  0.15600021741E+02  0.16576530210E+02  0.67149398809E+03  0.67522323593E+03  0.67112593936E+02 0.  0.
        -13    1    3    3    0    0 -0.42076539741E+01  0.17780748583E+02  0.61629096248E+03  0.61656176479E+03  0.00000000000E+00 0.  1.
         14    1    3    3    0    0  0.19807675715E+02 -0.12042183733E+01  0.55203025614E+02  0.58661471138E+02  0.00000000000E+00 0. -1.
          1    1    1    2  501    0 -0.15600021741E+02 -0.16576530210E+02  0.15829196682E+03  0.15992025760E+03  0.00000000000E+00 0. -1.
<mgrwt>
<rscale>  1 0.70867780E+02</rscale>
<asrwt>0</asrwt>
<pdfrwt beam="1">  1       21 0.12807129E+00 0.70867780E+02</pdfrwt>
<pdfrwt beam="2">  1        2 0.41211902E-03 0.70867780E+02</pdfrwt>
<totfact> 0.24859851E+05</totfact>
</mgrwt>
</event>
<event>
 6    2  0.8544106E+000  0.8750061E+02  0.7546771E-02  0.1309020E+00
          2   -1    0    0  502    0 -0.00000000000E+00  0.00000000000E+00  0.16223201780E+04  0.16223201780E+04  0.00000000000E+00 0. -1.
         21   -1    0    0  501  502  0.00000000000E+00 -0.00000000000E+00 -0.26271073773E+01  0.26271073773E+01  0.00000000000E+00 0.  1.
         24    2    1    2    0    0 -0.15248508489E+02 -0.35487043749E+02  0.12975513734E+04  0.13004983366E+04  0.78514390739E+02 0.  0.
        -11    1    3    3    0    0  0.18150865709E+02 -0.45704278365E+02  0.92735096865E+03  0.92865394741E+03  0.00000000000E+00 0.  1.
         12    1    3    3    0    0 -0.33399374198E+02  0.10217234616E+02  0.37020040479E+03  0.37184438921E+03  0.00000000000E+00 0. -1.
          1    1    1    2  501    0  0.15248508489E+02  0.35487043749E+02  0.32214169717E+03  0.32444894874E+03  0.00000000000E+00 0. -1.
<mgrwt>
<rscale>  1 0.87500611E+02</rscale>
<asrwt>0</asrwt>
<pdfrwt beam="1">  1       21 0.40417166E-03 0.87500611E+02</pdfrwt>
<pdfrwt beam="2">  1        2 0.24958692E+00 0.87500611E+02</pdfrwt>
<totfact> 0.22372931E+06</totfact>
</mgrwt>
</event>
<event>
 6    2  0.8544106E+000  0.8162048E+02  0.7546771E-02  0.1324515E+00
         21   -1    0    0  501  502  0.00000000000E+00  0.00000000000E+00  0.10659107714E+02  0.10659107714E+02  0.00000000000E+00 0. -1.
          2   -1    0    0  502    0 -0.00000000000E+00 -0.00000000000E+00 -0.24271775002E+03  0.24271775002E+03  0.00000000000E+00 0. -1.
         24    2    1    2    0    0 -0.18119510209E+02  0.86662542539E+01 -0.18408513101E+03  0.20136841227E+03  0.79110564342E+02 0.  0.
        -11    1    3    3    0    0  0.91126997702E+01 -0.23650338969E+02 -0.21054712916E+02  0.32949670202E+02  0.00000000000E+00 0.  1.
         12    1    3    3    0    0 -0.27232209979E+02  0.32316593223E+02 -0.16303041809E+03  0.16841874207E+03  0.00000000000E+00 0. -1.
          1    1    1    2  501    0  0.18119510209E+02 -0.86662542539E+01 -0.47973511295E+02  0.52008445458E+02  0.00000000000E+00 0. -1.
<mgrwt>
<rscale>  1 0.81620475E+02</rscale>
<asrwt>0</asrwt>
<pdfrwt beam="1">  1       21 0.16398627E-02 0.81620475E+02</pdfrwt>
<pdfrwt beam="2">  1        2 0.37341193E-01 0.81620475E+02</pdfrwt>
<totfact> 0.26215253E+06</totfact>
</mgrwt>
</event>
<event>
 6    2  0.8544106E+000  0.8782056E+02  0.7546771E-02  0.1308217E+00
          2   -1    0    0  502    0 -0.00000000000E+00  0.00000000000E+00  0.11866655032E+03  0.11866655032E+03  0.00000000000E+00 0. -1.
         21   -1    0    0  501  502  0.00000000000E+00 -0.00000000000E+00 -0.29311409106E+02  0.29311409106E+02  0.00000000000E+00 0. -1.
         24    2    1    2    0    0  0.18428352920E+02 -0.10614492406E+02  0.91227503103E+02  0.12662901614E+03  0.85206682643E+02 0.  0.
        -13    1    3    3    0    0  0.98857260080E+01 -0.14707152719E+02 -0.12996262286E+02  0.21975685501E+02  0.00000000000E+00 0.  1.
         14    1    3    3    0    0  0.85426269125E+01  0.40926603130E+01  0.10422376539E+03  0.10465333064E+03  0.00000000000E+00 0. -1.
          1    1    1    2  501    0 -0.18428352920E+02  0.10614492406E+02 -0.18723618844E+01  0.21348943286E+02  0.00000000000E+00 0. -1.
<mgrwt>
<rscale>  1 0.87820558E+02</rscale>
<asrwt>0</asrwt>
<pdfrwt beam="1">  1       21 0.45094476E-02 0.87820558E+02</pdfrwt>
<pdfrwt beam="2">  1        2 0.18256392E-01 0.87820558E+02</pdfrwt>
<totfact> 0.11190020E+06</totfact>
</mgrwt>
</event>
<event>
 6    2  0.8544106E+000  0.9446618E+02  0.7546771E-02  0.1292383E+00
          2   -1    0    0  502    0 -0.00000000000E+00  0.00000000000E+00  0.39304993106E+03  0.39304993106E+03  0.00000000000E+00 0. -1.
         21   -1    0    0  501  502  0.00000000000E+00 -0.00000000000E+00 -0.20252274117E+02  0.20252274117E+02  0.00000000000E+00 0. -1.
         24    2    1    2    0    0 -0.90363756596E+01 -0.48285815391E+02  0.34317111042E+03  0.35593576628E+03  0.80688801200E+02 0.  0.
        -11    1    3    3    0    0 -0.42218814872E+02 -0.40423293856E+02  0.18047453323E+03  0.18970379058E+03  0.00000000000E+00 0.  1.
         12    1    3    3    0    0  0.33182439212E+02 -0.78625215343E+01  0.16269657719E+03  0.16623197570E+03  0.00000000000E+00 0. -1.
          1    1    1    2  501    0  0.90363756596E+01  0.48285815391E+02  0.29626546529E+02  0.57366438902E+02  0.00000000000E+00 0. -1.
<mgrwt>
<rscale>  1 0.94466178E+02</rscale>
<asrwt>0</asrwt>
<pdfrwt beam="1">  1       21 0.31157348E-02 0.94466178E+02</pdfrwt>
<pdfrwt beam="2">  1        2 0.60469214E-01 0.94466178E+02</pdfrwt>
<totfact> 0.57376785E+05</totfact>
</mgrwt>
</event>
<event>
 6    2  0.8544106E+000  0.8568577E+02  0.7546771E-02  0.1313649E+00
         21   -1    0    0  501  502  0.00000000000E+00  0.00000000000E+00  0.21028440599E+01  0.21028440599E+01  0.00000000000E+00 0.  1.
          2   -1    0    0  502    0 -0.00000000000E+00 -0.00000000000E+00 -0.18111475510E+04  0.18111475510E+04  0.00000000000E+00 0. -1.
         24    2    1    2    0    0 -0.11137456241E+02  0.29702496120E+02 -0.15322315897E+04  0.15346255880E+04  0.79597548981E+02 0.  0.
        -11    1    3    3    0    0 -0.32647733280E+02  0.45039398633E+02 -0.12242046019E+04  0.12254678002E+04  0.00000000000E+00 0.  1.
         12    1    3    3    0    0  0.21510277039E+02 -0.15336902513E+02 -0.30802698777E+03  0.30915778786E+03  0.00000000000E+00 0. -1.
          1    1    1    2  501    0  0.11137456241E+02 -0.29702496120E+02 -0.27681311722E+03  0.27862480699E+03  0.00000000000E+00 0. -1.
<mgrwt>
<rscale>  1 0.85685769E+02</rscale>
<asrwt>0</asrwt>
<pdfrwt beam="1">  1       21 0.32351300E-03 0.85685769E+02</pdfrwt>
<pdfrwt beam="2">  1        2 0.27863935E+00 0.85685769E+02</pdfrwt>
<totfact> 0.25182052E+06</totfact>
</mgrwt>
</event>
<event>
 6    2  0.8544106E+000  0.7999492E+02  0.7546771E-02  0.1329066E+00
         21   -1    0    0  501  502  0.00000000000E+00  0.00000000000E+00  0.10819265774E+02  0.10819265774E+02  0.00000000000E+00 0.  1.
          2   -1    0    0  502    0 -0.00000000000E+00 -0.00000000000E+00 -0.42381508938E+03  0.42381508938E+03  0.00000000000E+00 0. -1.
         24    2    1    2    0    0  0.44791980316E+02  0.31371369682E+02 -0.22243138420E+03  0.23637873757E+03  0.58384095123E+02 0.  0.
        -11    1    3    3    0    0  0.56613702888E+02  0.16306936063E+02 -0.14277535498E+03  0.15445332469E+03  0.00000000000E+00 0.  1.
         12    1    3    3    0    0 -0.11821722572E+02  0.15064433619E+02 -0.79656029223E+02  0.81925412886E+02  0.00000000000E+00 0. -1.
          1    1    1    2  501    0 -0.44791980316E+02 -0.31371369682E+02 -0.19056443940E+03  0.19825561758E+03  0.00000000000E+00 0. -1.
<mgrwt>
<rscale>  1 0.79994918E+02</rscale>
<asrwt>0</asrwt>
<pdfrwt beam="1">  1       21 0.16645025E-02 0.79994918E+02</pdfrwt>
<pdfrwt beam="2">  1        2 0.65202319E-01 0.79994918E+02</pdfrwt>
<totfact> 0.14275284E+06</totfact>
</mgrwt>
</event>
<event>
 6    2  0.8544106E+000  0.8473483E+02  0.7546771E-02  0.1316127E+00
         21   -1    0    0  501  502  0.00000000000E+00  0.00000000000E+00  0.86357472924E+02  0.86357472924E+02  0.00000000000E+00 0.  1.
          2   -1    0    0  502    0 -0.00000000000E+00 -0.00000000000E+00 -0.36116620687E+02  0.36116620687E+02  0.00000000000E+00 0. -1.
         24    2    1    2    0    0 -0.82914013614E+01  0.23532051228E+02  0.28555089991E+02  0.89416915032E+02  0.80978310416E+02 0.  0.
        -11    1    3    3    0    0  0.17826230485E+02 -0.24351102689E+02  0.10931313049E+02  0.32097418907E+02  0.00000000000E+00 0.  1.
         12    1    3    3    0    0 -0.26117631846E+02  0.47883153917E+02  0.17623776942E+02  0.57319496125E+02  0.00000000000E+00 0. -1.
          1    1    1    2  501    0  0.82914013614E+01 -0.23532051228E+02  0.21685762245E+02  0.33057178580E+02  0.00000000000E+00 0. -1.
<mgrwt>
<rscale>  1 0.84734831E+02</rscale>
<asrwt>0</asrwt>
<pdfrwt beam="1">  1       21 0.13285765E-01 0.84734831E+02</pdfrwt>
<pdfrwt beam="2">  1        2 0.55564032E-02 0.84734831E+02</pdfrwt>
<totfact> 0.74192853E+05</totfact>
</mgrwt>
</event>
<event>
 6    2  0.8544106E+000  0.1086607E+03  0.7546771E-02  0.1263070E+00
         21   -1    0    0  501  502  0.00000000000E+00  0.00000000000E+00  0.37891095034E+02  0.37891095034E+02  0.00000000000E+00 0.  1.
         -3   -1    0    0    0  501 -0.00000000000E+00 -0.00000000000E+00 -0.33869180973E+03  0.33869180973E+03  0.00000000000E+00 0.  1.
         24    2    1    2    0    0  0.66733087113E+02 -0.31651277932E+02 -0.27924751600E+03  0.29964365156E+03  0.79699651302E+02 0.  0.
        -11    1    3    3    0    0  0.84739210350E+02 -0.24215842018E+02 -0.24307845295E+03  0.25856193661E+03  0.00000000000E+00 0.  1.
         12    1    3    3    0    0 -0.18006123237E+02 -0.74354359149E+01 -0.36169063048E+02  0.41081714948E+02  0.00000000000E+00 0. -1.
         -4    1    1    2    0  502 -0.66733087113E+02  0.31651277932E+02 -0.21553198703E+02  0.76939253211E+02  0.00000000000E+00 0.  1.
<mgrwt>
<rscale>  1 0.10866068E+03</rscale>
<asrwt>0</asrwt>
<pdfrwt beam="1">  1       21 0.58293990E-02 0.10866068E+03</pdfrwt>
<pdfrwt beam="2">  1       -3 0.52106435E-01 0.10866068E+03</pdfrwt>
<totfact> 0.35764267E+04</totfact>
</mgrwt>
</event>
<event>
 6    2  0.9218962E+000  0.8385511E+02  0.7546771E-02  0.1318454E+00
         -1   -1    0    0    0  501 -0.00000000000E+00  0.00000000000E+00  0.16077544982E+04  0.16077544982E+04  0.00000000000E+00 0.  1.
         21   -1    0    0  501  502  0.00000000000E+00 -0.00000000000E+00 -0.19917028419E+01  0.19917028419E+01  0.00000000000E+00 0. -1.
         24    2    1    2    0    0 -0.16174529785E+02  0.16888041340E+02  0.99192341200E+03  0.99546156839E+03  0.80528612981E+02 0.  0.
        -13    1    3    3    0    0 -0.24402801710E+02  0.20913215067E+02  0.97949588435E+03  0.98002298277E+03  0.00000000000E+00 0.  1.
         14    1    3    3    0    0  0.82282719252E+01 -0.40251737269E+01  0.12427527647E+02  0.15438585616E+02  0.00000000000E+00 0. -1.
         -2    1    1    2    0  502  0.16174529785E+02 -0.16888041340E+02  0.61383938335E+03  0.61428463265E+03  0.00000000000E+00 0.  1.
<mgrwt>
<rscale>  1 0.83855106E+02</rscale>
<asrwt>0</asrwt>
<pdfrwt beam="1">  1       21 0.30641711E-03 0.83855106E+02</pdfrwt>
<pdfrwt beam="2">  1       -1 0.24734581E+00 0.83855106E+02</pdfrwt>
<totfact> 0.17982157E+05</totfact>
</mgrwt>
</event>
<event>
 6    2  0.8544106E+000  0.8814117E+02  0.7546771E-02  0.1307417E+00
          2   -1    0    0  502    0 -0.00000000000E+00  0.00000000000E+00  0.23798003147E+03  0.23798003147E+03  0.00000000000E+00 0. -1.
         21   -1    0    0  501  502  0.00000000000E+00 -0.00000000000E+00 -0.34089288520E+02  0.34089288520E+02  0.00000000000E+00 0. -1.
         24    2    1    2    0    0  0.30750870412E+02 -0.23309171481E+02  0.21462375222E+03  0.23201771584E+03  0.79246021612E+02 0.  0.
        -13    1    3    3    0    0  0.19222298004E+02  0.20134446627E+02  0.25924115136E+02  0.38038827888E+02  0.00000000000E+00 0.  1.
         14    1    3    3    0    0  0.11528572407E+02 -0.43443618107E+02  0.18869963709E+03  0.19397888796E+03  0.00000000000E+00 0. -1.
          1    1    1    2  501    0 -0.30750870412E+02  0.23309171481E+02 -0.10733009277E+02  0.40051604142E+02  0.00000000000E+00 0. -1.
<mgrwt>
<rscale>  1 0.88141168E+02</rscale>
<asrwt>0</asrwt>
<pdfrwt beam="1">  1       21 0.52445061E-02 0.88141168E+02</pdfrwt>
<pdfrwt beam="2">  1        2 0.36612311E-01 0.88141168E+02</pdfrwt>
<totfact> 0.40912098E+05</totfact>
</mgrwt>
</event>
<event>
 6    2  0.8544106E+000  0.9388392E+02  0.7546771E-02  0.1293710E+00
         21   -1    0    0  501  502  0.00000000000E+00  0.00000000000E+00  0.36209515640E+01  0.36209515640E+01  0.00000000000E+00 0. -1.
          2   -1    0    0  502    0 -0.00000000000E+00 -0.00000000000E+00 -0.24304361245E+04  0.24304361245E+04  0.00000000000E+00 0. -1.
         24    2    1    2    0    0 -0.12468375973E+02  0.41452632639E+02 -0.22522172296E+04  0.22541731608E+04  0.83309113746E+02 0.  0.
        -11    1    3    3    0    0 -0.14964295253E+02 -0.23610272612E+02 -0.54779949197E+03  0.54851222275E+03  0.00000000000E+00 0.  1.
         12    1    3    3    0    0  0.24959192800E+01  0.65062905251E+02 -0.17044177376E+04  0.17056609380E+04  0.00000000000E+00 0. -1.
          1    1    1    2  501    0  0.12468375973E+02 -0.41452632639E+02 -0.17459794336E+03  0.17988391528E+03  0.00000000000E+00 0. -1.
<mgrwt>
<rscale>  1 0.93883915E+02</rscale>
<asrwt>0</asrwt>
<pdfrwt beam="1">  1       21 0.55707315E-03 0.93883915E+02</pdfrwt>
<pdfrwt beam="2">  1        2 0.37391078E+00 0.93883915E+02</pdfrwt>
<totfact> 0.53560040E+05</totfact>
</mgrwt>
</event>
<event>
 6    2  0.8544106E+000  0.8617219E+02  0.7546771E-02  0.1312395E+00
          4   -1    0    0  502    0 -0.00000000000E+00  0.00000000000E+00  0.41062401821E+02  0.41062401821E+02  0.00000000000E+00 0. -1.
         21   -1    0    0  501  502  0.00000000000E+00 -0.00000000000E+00 -0.10821148850E+03  0.10821148850E+03  0.00000000000E+00 0.  1.
         24    2    1    2    0    0 -0.23599075564E+02  0.16402122070E+02 -0.80192175857E+02  0.11771334293E+03  0.81238538023E+02 0.  0.
        -13    1    3    3    0    0 -0.29999220709E+02  0.80616864373E+01 -0.94775092969E+02  0.99735962815E+02  0.00000000000E+00 0.  1.
         14    1    3    3    0    0  0.64001451449E+01  0.83404356323E+01  0.14582917113E+02  0.17977380118E+02  0.00000000000E+00 0. -1.
          3    1    1    2  501    0  0.23599075564E+02 -0.16402122070E+02  0.13043089181E+02  0.31560547385E+02  0.00000000000E+00 0. -1.
<mgrwt>
<rscale>  1 0.86172188E+02</rscale>
<asrwt>0</asrwt>
<pdfrwt beam="1">  1       21 0.16647921E-01 0.86172188E+02</pdfrwt>
<pdfrwt beam="2">  1        4 0.63172927E-02 0.86172188E+02</pdfrwt>
<totfact> 0.19716209E+05</totfact>
</mgrwt>
</event>
<event>
 6    2  0.8544106E+000  0.8806505E+02  0.7546771E-02  0.1307606E+00
         21   -1    0    0  501  502  0.00000000000E+00  0.00000000000E+00  0.25650033611E+04  0.25650033611E+04  0.00000000000E+00 0.  1.
         -1   -1    0    0    0  501 -0.00000000000E+00 -0.00000000000E+00 -0.28447651783E+01  0.28447651783E+01  0.00000000000E+00 0.  1.
         24    2    1    2    0    0  0.13358403979E+02  0.34951100304E+02  0.72789849848E+03  0.73320643607E+03  0.79720934774E+02 0.  0.
        -11    1    3    3    0    0  0.15255195045E+02  0.46397071419E+02  0.22796203005E+03  0.23313536059E+03  0.00000000000E+00 0.  1.
         12    1    3    3    0    0 -0.18967910652E+01 -0.11445971115E+02  0.49993646843E+03  0.50007107548E+03  0.00000000000E+00 0. -1.
         -2    1    1    2    0  502 -0.13358403979E+02 -0.34951100304E+02  0.18342600974E+04  0.18346416902E+04  0.00000000000E+00 0.  1.
<mgrwt>
<rscale>  1 0.88065054E+02</rscale>
<asrwt>0</asrwt>
<pdfrwt beam="1">  1       21 0.39461405E+00 0.88065054E+02</pdfrwt>
<pdfrwt beam="2">  1       -1 0.43765823E-03 0.88065054E+02</pdfrwt>
<totfact> 0.56423650E+03</totfact>
</mgrwt>
</event>
<event>
 6    2  0.8544106E+000  0.8828824E+02  0.7546771E-02  0.1307051E+00
          4   -1    0    0  502    0 -0.00000000000E+00  0.00000000000E+00  0.43048206670E+02  0.43048206670E+02  0.00000000000E+00 0. -1.
         21   -1    0    0  501  502  0.00000000000E+00 -0.00000000000E+00 -0.11509251435E+03  0.11509251435E+03  0.00000000000E+00 0. -1.
         24    2    1    2    0    0  0.24522629277E+02 -0.39667880480E+02 -0.24685135156E+02  0.91674253457E+02  0.74966077401E+02 0.  0.
        -13    1    3    3    0    0  0.37450080135E+02 -0.46089178949E+02 -0.39237008079E+02  0.71177691177E+02  0.00000000000E+00 0.  1.
         14    1    3    3    0    0 -0.12927450858E+02  0.64212984700E+01  0.14551872923E+02  0.20496562280E+02  0.00000000000E+00 0. -1.
          3    1    1    2  501    0 -0.24522629277E+02  0.39667880480E+02 -0.47359172527E+02  0.66466467567E+02  0.00000000000E+00 0. -1.
<mgrwt>
<rscale>  1 0.88288237E+02</rscale>
<asrwt>0</asrwt>
<pdfrwt beam="1">  1       21 0.17706541E-01 0.88288237E+02</pdfrwt>
<pdfrwt beam="2">  1        4 0.66228010E-02 0.88288237E+02</pdfrwt>
<totfact> 0.16415394E+05</totfact>
</mgrwt>
</event>
<event>
 6    2  0.8544106E+000  0.8525592E+02  0.7546771E-02  0.1314765E+00
         21   -1    0    0  501  502  0.00000000000E+00  0.00000000000E+00  0.23967695416E+01  0.23967695416E+01  0.00000000000E+00 0.  1.
          2   -1    0    0  502    0 -0.00000000000E+00 -0.00000000000E+00 -0.23922041276E+04  0.23922041276E+04  0.00000000000E+00 0. -1.
         24    2    1    2    0    0 -0.84424347794E+01  0.19365991540E+02 -0.23223139660E+04  0.23238783809E+04  0.82596950013E+02 0.  0.
        -13    1    3    3    0    0  0.86880288205E+01  0.34683339354E+01 -0.29551610505E+02  0.30996917081E+02  0.00000000000E+00 0.  1.
         14    1    3    3    0    0 -0.17130463600E+02  0.15897657605E+02 -0.22927623555E+04  0.22928814638E+04  0.00000000000E+00 0. -1.
          1    1    1    2  501    0  0.84424347794E+01 -0.19365991540E+02 -0.67493392026E+02  0.70722516220E+02  0.00000000000E+00 0. -1.
<mgrwt>
<rscale>  1 0.85255923E+02</rscale>
<asrwt>0</asrwt>
<pdfrwt beam="1">  1       21 0.36873342E-03 0.85255923E+02</pdfrwt>
<pdfrwt beam="2">  1        2 0.36803176E+00 0.85255923E+02</pdfrwt>
<totfact> 0.10501389E+06</totfact>
</mgrwt>
</event>
<event>
 6    2  0.8544106E+000  0.9324158E+02  0.7546771E-02  0.1295186E+00
         21   -1    0    0  501  502  0.00000000000E+00  0.00000000000E+00  0.47006012511E+01  0.47006012511E+01  0.00000000000E+00 0. -1.
          2   -1    0    0  502    0 -0.00000000000E+00 -0.00000000000E+00 -0.11818688563E+04  0.11818688563E+04  0.00000000000E+00 0. -1.
         24    2    1    2    0    0 -0.34181872680E+02 -0.31599792594E+02 -0.95713588660E+03  0.96166683312E+03  0.80790130527E+02 0.  0.
        -13    1    3    3    0    0 -0.11485870338E+02 -0.33494739078E+02 -0.89129652543E+03  0.89199961827E+03  0.00000000000E+00 0.  1.
         14    1    3    3    0    0 -0.22696002342E+02  0.18949464840E+01 -0.65839361178E+02  0.69667214849E+02  0.00000000000E+00 0. -1.
          1    1    1    2  501    0  0.34181872680E+02  0.31599792594E+02 -0.22003236849E+03  0.22490262448E+03  0.00000000000E+00 0. -1.
<mgrwt>
<rscale>  1 0.93241581E+02</rscale>
<asrwt>0</asrwt>
<pdfrwt beam="1">  1       21 0.72316889E-03 0.93241581E+02</pdfrwt>
<pdfrwt beam="2">  1        2 0.18182611E+00 0.93241581E+02</pdfrwt>
<totfact> 0.15601921E+06</totfact>
</mgrwt>
</event>
<event>
 6    2  0.8544106E+000  0.9716429E+02  0.7546771E-02  0.1286375E+00
         21   -1    0    0  501  502  0.00000000000E+00  0.00000000000E+00  0.10070507453E+03  0.10070507453E+03  0.00000000000E+00 0. -1.
         -1   -1    0    0    0  501 -0.00000000000E+00 -0.00000000000E+00 -0.96191143966E+02  0.96191143966E+02  0.00000000000E+00 0.  1.
         24    2    1    2    0    0 -0.17645340855E+02 -0.52568625304E+02  0.63393699203E+02  0.11601577849E+03  0.79787726745E+02 0.  0.
        -13    1    3    3    0    0  0.17169147719E+02  0.80866696838E+01  0.36400474340E+02  0.41050802577E+02  0.00000000000E+00 0.  1.
         14    1    3    3    0    0 -0.34814488574E+02 -0.60655294988E+02  0.26993224862E+02  0.74964975911E+02  0.00000000000E+00 0. -1.
         -2    1    1    2    0  502  0.17645340855E+02  0.52568625304E+02 -0.58879768642E+02  0.80880440006E+02  0.00000000000E+00 0.  1.
<mgrwt>
<rscale>  1 0.97164293E+02</rscale>
<asrwt>0</asrwt>
<pdfrwt beam="1">  1       21 0.15493088E-01 0.97164293E+02</pdfrwt>
<pdfrwt beam="2">  1       -1 0.14798638E-01 0.97164293E+02</pdfrwt>
<totfact> 0.10567749E+05</totfact>
</mgrwt>
</event>
<event>
 6    2  0.8544106E+000  0.8390584E+02  0.7546771E-02  0.1318319E+00
          2   -1    0    0  502    0 -0.00000000000E+00  0.00000000000E+00  0.24364551440E+03  0.24364551440E+03  0.00000000000E+00 0. -1.
         21   -1    0    0  501  502  0.00000000000E+00 -0.00000000000E+00 -0.15719004748E+02  0.15719004748E+02  0.00000000000E+00 0. -1.
         24    2    1    2    0    0 -0.69084756067E+01  0.26172338660E+02  0.21189926546E+03  0.22790675536E+03  0.79419595132E+02 0.  0.
        -11    1    3    3    0    0 -0.90113936783E+01 -0.16858869566E+02  0.10218838419E+02  0.21676054938E+02  0.00000000000E+00 0.  1.
         12    1    3    3    0    0  0.21029180716E+01  0.43031208226E+02  0.20168042704E+03  0.20623070042E+03  0.00000000000E+00 0. -1.
          1    1    1    2  501    0  0.69084756067E+01 -0.26172338660E+02  0.16027244195E+02  0.31457763789E+02  0.00000000000E+00 0. -1.
<mgrwt>
<rscale>  1 0.83905843E+02</rscale>
<asrwt>0</asrwt>
<pdfrwt beam="1">  1       21 0.24183086E-02 0.83905843E+02</pdfrwt>
<pdfrwt beam="2">  1        2 0.37483923E-01 0.83905843E+02</pdfrwt>
<totfact> 0.14094804E+06</totfact>
</mgrwt>
</event>
<event>
 6    2  0.8544106E+000  0.8367396E+02  0.7546771E-02  0.1318937E+00
          2   -1    0    0  502    0 -0.00000000000E+00  0.00000000000E+00  0.55921399764E+03  0.55921399764E+03  0.00000000000E+00 0. -1.
         21   -1    0    0  501  502  0.00000000000E+00 -0.00000000000E+00 -0.82353749132E+01  0.82353749132E+01  0.00000000000E+00 0. -1.
         24    2    1    2    0    0 -0.22141980105E+02  0.21000942685E+01  0.53100103877E+03  0.53755319321E+03  0.80663837439E+02 0.  0.
        -13    1    3    3    0    0  0.11953906072E+02  0.23905086825E+02  0.72504712498E+02  0.77274073148E+02  0.00000000000E+00 0.  1.
         14    1    3    3    0    0 -0.34095886178E+02 -0.21804992556E+02  0.45849632627E+03  0.46027912006E+03  0.00000000000E+00 0. -1.
          1    1    1    2  501    0  0.22141980105E+02 -0.21000942685E+01  0.19977583957E+02  0.29896179349E+02  0.00000000000E+00 0. -1.
<mgrwt>
<rscale>  1 0.83673965E+02</rscale>
<asrwt>0</asrwt>
<pdfrwt beam="1">  1       21 0.12669812E-02 0.83673965E+02</pdfrwt>
<pdfrwt beam="2">  1        2 0.86032893E-01 0.83673965E+02</pdfrwt>
<totfact> 0.16389769E+06</totfact>
</mgrwt>
</event>
<event>
 6    2  0.8987605E+000  0.8366131E+02  0.7546771E-02  0.1318971E+00
         21   -1    0    0  501  502  0.00000000000E+00  0.00000000000E+00  0.11709615073E+02  0.11709615073E+02  0.00000000000E+00 0.  1.
         -3   -1    0    0    0  501 -0.00000000000E+00 -0.00000000000E+00 -0.46196980539E+03  0.46196980539E+03  0.00000000000E+00 0.  1.
         24    2    1    2    0    0  0.24094305351E+02 -0.39595444210E+01 -0.43880373357E+03  0.44670788096E+03  0.80018752591E+02 0.  0.
        -11    1    3    3    0    0  0.35124445726E+02  0.46074187855E+01 -0.42687021209E+03  0.42833763898E+03  0.00000000000E+00 0.  1.
         12    1    3    3    0    0 -0.11030140376E+02 -0.85669632064E+01 -0.11933521485E+02  0.18370241977E+02  0.00000000000E+00 0. -1.
         -4    1    1    2    0  502 -0.24094305351E+02  0.39595444210E+01 -0.11456456745E+02  0.26971539509E+02  0.00000000000E+00 0.  1.
<mgrwt>
<rscale>  1 0.83661307E+02</rscale>
<asrwt>0</asrwt>
<pdfrwt beam="1">  1       21 0.18014795E-02 0.83661307E+02</pdfrwt>
<pdfrwt beam="2">  1       -3 0.71072269E-01 0.83661307E+02</pdfrwt>
<totfact> 0.12490010E+05</totfact>
</mgrwt>
</event>
<event>
 6    2  0.8544106E+000  0.7785339E+02  0.7546771E-02  0.1335256E+00
          2   -1    0    0  502    0 -0.00000000000E+00  0.00000000000E+00  0.14028747583E+04  0.14028747583E+04  0.00000000000E+00 0. -1.
         21   -1    0    0  501  502  0.00000000000E+00 -0.00000000000E+00 -0.23967945604E+01  0.23967945604E+01  0.00000000000E+00 0. -1.
         24    2    1    2    0    0  0.63660976394E+01 -0.29085987639E+02  0.12078067638E+04  0.12103133184E+04  0.71934889132E+02 0.  0.
        -13    1    3    3    0    0  0.43008921932E+01  0.23725497129E+02  0.29875097154E+03  0.29972243807E+03  0.00000000000E+00 0.  1.
         14    1    3    3    0    0  0.20652054462E+01 -0.52811484768E+02  0.90905579224E+03  0.91059088036E+03  0.00000000000E+00 0. -1.
          1    1    1    2  501    0 -0.63660976394E+01  0.29085987639E+02  0.19267119998E+03  0.19495823444E+03  0.00000000000E+00 0. -1.
<mgrwt>
<rscale>  1 0.77853389E+02</rscale>
<asrwt>0</asrwt>
<pdfrwt beam="1">  1       21 0.36873875E-03 0.77853389E+02</pdfrwt>
<pdfrwt beam="2">  1        2 0.21582623E+00 0.77853389E+02</pdfrwt>
<totfact> 0.32903666E+06</totfact>
</mgrwt>
</event>
<event>
 6    2  0.8544106E+000  0.8200788E+02  0.7546771E-02  0.1323448E+00
         21   -1    0    0  501  502  0.00000000000E+00  0.00000000000E+00  0.23746675916E+01  0.23746675916E+01  0.00000000000E+00 0. -1.
          2   -1    0    0  502    0 -0.00000000000E+00 -0.00000000000E+00 -0.14413618754E+04  0.14413618754E+04  0.00000000000E+00 0. -1.
         24    2    1    2    0    0 -0.10832926633E+02 -0.21076855227E+02 -0.13117714171E+04  0.13143323563E+04  0.78509273270E+02 0.  0.
        -13    1    3    3    0    0  0.11600447758E+02  0.50741506644E+01 -0.37208349127E+02  0.39303672066E+02  0.00000000000E+00 0.  1.
         14    1    3    3    0    0 -0.22433374390E+02 -0.26151005891E+02 -0.12745630680E+04  0.12750286843E+04  0.00000000000E+00 0. -1.
          1    1    1    2  501    0  0.10832926633E+02  0.21076855227E+02 -0.12721579064E+03  0.12940418662E+03  0.00000000000E+00 0. -1.
<mgrwt>
<rscale>  1 0.82007878E+02</rscale>
<asrwt>0</asrwt>
<pdfrwt beam="1">  1       21 0.36533395E-03 0.82007878E+02</pdfrwt>
<pdfrwt beam="2">  1        2 0.22174770E+00 0.82007878E+02</pdfrwt>
<totfact> 0.32048050E+06</totfact>
</mgrwt>
</event>
<event>
 6    2  0.8544106E+000  0.8451756E+02  0.7546771E-02  0.1316699E+00
         -1   -1    0    0    0  501 -0.00000000000E+00  0.00000000000E+00  0.88930699463E+03  0.88930699463E+03  0.00000000000E+00 0.  1.
         21   -1    0    0  501  502  0.00000000000E+00 -0.00000000000E+00 -0.39823174516E+01  0.39823174516E+01  0.00000000000E+00 0. -1.
         24    2    1    2    0    0 -0.72242169146E+01 -0.25430001424E+02  0.78512127083E+03  0.78965728553E+03  0.80276674108E+02 0.  0.
        -11    1    3    3    0    0  0.32840079404E+02  0.41964158795E+01  0.39088079449E+03  0.39228035411E+03  0.00000000000E+00 0.  1.
         12    1    3    3    0    0 -0.40064296318E+02 -0.29626417303E+02  0.39424047634E+03  0.39737693142E+03  0.00000000000E+00 0. -1.
         -2    1    1    2    0  502  0.72242169146E+01  0.25430001424E+02  0.10020340635E+03  0.10363202655E+03  0.00000000000E+00 0.  1.
<mgrwt>
<rscale>  1 0.84517564E+02</rscale>
<asrwt>0</asrwt>
<pdfrwt beam="1">  1       21 0.61266493E-03 0.84517564E+02</pdfrwt>
<pdfrwt beam="2">  1       -1 0.13681630E+00 0.84517564E+02</pdfrwt>
<totfact> 0.34561167E+05</totfact>
</mgrwt>
</event>
<event>
 6    2  0.8544106E+000  0.8744791E+02  0.7546771E-02  0.1309152E+00
         21   -1    0    0  501  502  0.00000000000E+00  0.00000000000E+00  0.21663757553E+02  0.21663757553E+02  0.00000000000E+00 0. -1.
          2   -1    0    0  502    0 -0.00000000000E+00 -0.00000000000E+00 -0.10224269974E+04  0.10224269974E+04  0.00000000000E+00 0. -1.
         24    2    1    2    0    0  0.31726004832E+02  0.10148907704E+02 -0.10064990323E+04  0.10102907694E+04  0.80855407595E+02 0.  0.
        -13    1    3    3    0    0 -0.86293983804E+01  0.34921968691E+02 -0.28887022023E+03  0.29110138191E+03  0.00000000000E+00 0.  1.
         14    1    3    3    0    0  0.40355403212E+02 -0.24773060988E+02 -0.71762881209E+03  0.71918938748E+03  0.00000000000E+00 0. -1.
          1    1    1    2  501    0 -0.31726004832E+02 -0.10148907704E+02  0.57357924571E+01  0.33799985581E+02  0.00000000000E+00 0. -1.
<mgrwt>
<rscale>  1 0.87447908E+02</rscale>
<asrwt>0</asrwt>
<pdfrwt beam="1">  1       21 0.33328867E-02 0.87447908E+02</pdfrwt>
<pdfrwt beam="2">  1        2 0.15729642E+00 0.87447908E+02</pdfrwt>
<totfact> 0.16903804E+05</totfact>
</mgrwt>
</event>
<event>
 6    2  0.8544106E+000  0.8433024E+02  0.7546771E-02  0.1317193E+00
         -1   -1    0    0    0  501 -0.00000000000E+00  0.00000000000E+00  0.48115293813E+03  0.48115293813E+03  0.00000000000E+00 0.  1.
         21   -1    0    0  501  502  0.00000000000E+00 -0.00000000000E+00 -0.69441150772E+01  0.69441150772E+01  0.00000000000E+00 0.  1.
         24    2    1    2    0    0 -0.89699264712E+01 -0.18982889737E+02  0.43961607348E+03  0.44763141338E+03  0.81674846180E+02 0.  0.
        -13    1    3    3    0    0 -0.42621404672E+02 -0.97080892202E+00  0.29493485453E+03  0.29800015943E+03  0.00000000000E+00 0.  1.
         14    1    3    3    0    0  0.33651478201E+02 -0.18012080815E+02  0.14468121895E+03  0.14963125395E+03  0.00000000000E+00 0. -1.
         -2    1    1    2    0  502  0.89699264712E+01  0.18982889737E+02  0.34592749573E+02  0.40465639828E+02  0.00000000000E+00 0.  1.
<mgrwt>
<rscale>  1 0.84330245E+02</rscale>
<asrwt>0</asrwt>
<pdfrwt beam="1">  1       21 0.10683258E-02 0.84330245E+02</pdfrwt>
<pdfrwt beam="2">  1       -1 0.74023503E-01 0.84330245E+02</pdfrwt>
<totfact> 0.55976818E+05</totfact>
</mgrwt>
</event>
<event>
 6    2  0.8544106E+000  0.8661121E+02  0.7546771E-02  0.1311272E+00
          2   -1    0    0  502    0 -0.00000000000E+00  0.00000000000E+00  0.28865781132E+03  0.28865781132E+03  0.00000000000E+00 0. -1.
         21   -1    0    0  501  502  0.00000000000E+00 -0.00000000000E+00 -0.17976264078E+02  0.17976264078E+02  0.00000000000E+00 0.  1.
         24    2    1    2    0    0 -0.18438181206E+02 -0.25915783233E+02  0.96899350096E+02  0.12996532776E+03  0.80559965395E+02 0.  0.
        -13    1    3    3    0    0 -0.20193714570E+02 -0.48945992743E+02  0.33912711148E+02  0.62877406842E+02  0.00000000000E+00 0.  1.
         14    1    3    3    0    0  0.17555333637E+01  0.23030209510E+02  0.62986638948E+02  0.67087920920E+02  0.00000000000E+00 0. -1.
          1    1    1    2  501    0  0.18438181206E+02  0.25915783233E+02  0.17378219715E+03  0.17666874764E+03  0.00000000000E+00 0. -1.
<mgrwt>
<rscale>  1 0.86611214E+02</rscale>
<asrwt>0</asrwt>
<pdfrwt beam="1">  1       21 0.27655793E-02 0.86611214E+02</pdfrwt>
<pdfrwt beam="2">  1        2 0.44408891E-01 0.86611214E+02</pdfrwt>
<totfact> 0.95411236E+05</totfact>
</mgrwt>
</event>
<event>
 6    2  0.8544106E+000  0.9503373E+02  0.7546771E-02  0.1291100E+00
         21   -1    0    0  501  502  0.00000000000E+00  0.00000000000E+00  0.26186563416E+03  0.26186563416E+03  0.00000000000E+00 0.  1.
          2   -1    0    0  502    0 -0.00000000000E+00 -0.00000000000E+00 -0.27650174677E+02  0.27650174677E+02  0.00000000000E+00 0. -1.
         24    2    1    2    0    0 -0.36148777901E+02 -0.14597999370E+02  0.23172025791E+03  0.25045096837E+03  0.86669336579E+02 0.  0.
        -11    1    3    3    0    0  0.18577455223E+02 -0.29429396411E+02  0.12306264808E+03  0.12788911825E+03  0.00000000000E+00 0.  1.
         12    1    3    3    0    0 -0.54726233123E+02  0.14831397041E+02  0.10865760984E+03  0.12256185012E+03  0.00000000000E+00 0. -1.
          1    1    1    2  501    0  0.36148777901E+02  0.14597999370E+02  0.24952015688E+01  0.39064840460E+02  0.00000000000E+00 0. -1.
<mgrwt>
<rscale>  1 0.95033729E+02</rscale>
<asrwt>0</asrwt>
<pdfrwt beam="1">  1       21 0.40287019E-01 0.95033729E+02</pdfrwt>
<pdfrwt beam="2">  1        2 0.42538732E-02 0.95033729E+02</pdfrwt>
<totfact> 0.13404935E+05</totfact>
</mgrwt>
</event>
<event>
 6    2  0.8544106E+000  0.8597654E+02  0.7546771E-02  0.1312898E+00
         21   -1    0    0  501  502  0.00000000000E+00  0.00000000000E+00  0.29587320277E+01  0.29587320277E+01  0.00000000000E+00 0. -1.
          2   -1    0    0  502    0 -0.00000000000E+00 -0.00000000000E+00 -0.19858988515E+04  0.19858988515E+04  0.00000000000E+00 0. -1.
         24    2    1    2    0    0  0.11020398912E+02 -0.24556533881E+02 -0.18936028337E+04  0.18955536544E+04  0.81654715969E+02 0.  0.
        -13    1    3    3    0    0  0.26290054317E+02 -0.33323371309E+02 -0.48851452892E+03  0.49035503362E+03  0.00000000000E+00 0.  1.
         14    1    3    3    0    0 -0.15269655405E+02  0.87668374276E+01 -0.14050883048E+04  0.14051986208E+04  0.00000000000E+00 0. -1.
          1    1    1    2  501    0 -0.11020398912E+02  0.24556533881E+02 -0.89337285836E+02  0.93303929119E+02  0.00000000000E+00 0. -1.
<mgrwt>
<rscale>  1 0.85976539E+02</rscale>
<asrwt>0</asrwt>
<pdfrwt beam="1">  1       21 0.45519140E-03 0.85976539E+02</pdfrwt>
<pdfrwt beam="2">  1        2 0.30552165E+00 0.85976539E+02</pdfrwt>
<totfact> 0.12256069E+06</totfact>
</mgrwt>
</event>
<event>
 6    2  0.8544106E+000  0.8723538E+02  0.7546771E-02  0.1309688E+00
          2   -1    0    0  502    0 -0.00000000000E+00  0.00000000000E+00  0.96483395090E+03  0.96483395090E+03  0.00000000000E+00 0. -1.
         21   -1    0    0  501  502  0.00000000000E+00 -0.00000000000E+00 -0.41091480148E+01  0.41091480148E+01  0.00000000000E+00 0. -1.
         24    2    1    2    0    0 -0.29595458040E+02 -0.15092711522E+02  0.80506875626E+03  0.80978127582E+03  0.80661832957E+02 0.  0.
        -13    1    3    3    0    0 -0.17763128974E+02 -0.86987449796E+01  0.40277303808E+02  0.44871573598E+02  0.00000000000E+00 0.  1.
         14    1    3    3    0    0 -0.11832329066E+02 -0.63939665428E+01  0.76479145245E+03  0.76490970222E+03  0.00000000000E+00 0. -1.
          1    1    1    2  501    0  0.29595458040E+02  0.15092711522E+02  0.15565604663E+03  0.15916182309E+03  0.00000000000E+00 0. -1.
<mgrwt>
<rscale>  1 0.87235385E+02</rscale>
<asrwt>0</asrwt>
<pdfrwt beam="1">  1       21 0.63217739E-03 0.87235385E+02</pdfrwt>
<pdfrwt beam="2">  1        2 0.14843581E+00 0.87235385E+02</pdfrwt>
<totfact> 0.25359177E+06</totfact>
</mgrwt>
</event>
<event>
 6    2  0.8544106E+000  0.8461668E+02  0.7546771E-02  0.1316438E+00
         21   -1    0    0  501  502  0.00000000000E+00  0.00000000000E+00  0.25647909605E+02  0.25647909605E+02  0.00000000000E+00 0. -1.
          2   -1    0    0  502    0 -0.00000000000E+00 -0.00000000000E+00 -0.14586854561E+03  0.14586854561E+03  0.00000000000E+00 0. -1.
         24    2    1    2    0    0  0.25809917335E+02 -0.26078535470E+01 -0.11837687684E+03  0.14550968338E+03  0.80542102372E+02 0.  0.
        -11    1    3    3    0    0  0.90480803581E+01  0.12191603799E+02  0.80060776382E+01  0.17163922644E+02  0.00000000000E+00 0.  1.
         12    1    3    3    0    0  0.16761836977E+02 -0.14799457346E+02 -0.12638295448E+03  0.12834576074E+03  0.00000000000E+00 0. -1.
          1    1    1    2  501    0 -0.25809917335E+02  0.26078535470E+01 -0.18437591571E+01  0.26006771826E+02  0.00000000000E+00 0. -1.
<mgrwt>
<rscale>  1 0.84616683E+02</rscale>
<asrwt>0</asrwt>
<pdfrwt beam="1">  1       21 0.39458322E-02 0.84616683E+02</pdfrwt>
<pdfrwt beam="2">  1        2 0.22441315E-01 0.84616683E+02</pdfrwt>
<totfact> 0.11034534E+06</totfact>
</mgrwt>
</event>
<event>
 6    2  0.8544106E+000  0.9620305E+02  0.7546771E-02  0.1288489E+00
          2   -1    0    0  502    0 -0.00000000000E+00  0.00000000000E+00  0.20197249073E+04  0.20197249073E+04  0.00000000000E+00 0. -1.
         21   -1    0    0  501  502  0.00000000000E+00 -0.00000000000E+00 -0.28084639629E+01  0.28084639629E+01  0.00000000000E+00 0.  1.
         24    2    1    2    0    0  0.46314328979E+00  0.53489975361E+02  0.11847694777E+04  0.11886688952E+04  0.79960210347E+02 0.  0.
        -13    1    3    3    0    0 -0.17385559411E+02  0.16171968213E+02  0.88820537296E+02  0.91939534899E+02  0.00000000000E+00 0.  1.
         14    1    3    3    0    0  0.17848702701E+02  0.37318007149E+02  0.10959489404E+04  0.10967293603E+04  0.00000000000E+00 0. -1.
          1    1    1    2  501    0 -0.46314328979E+00 -0.53489975361E+02  0.83214696563E+03  0.83386447603E+03  0.00000000000E+00 0. -1.
<mgrwt>
<rscale>  1 0.96203052E+02</rscale>
<asrwt>0</asrwt>
<pdfrwt beam="1">  1       21 0.43207299E-03 0.96203052E+02</pdfrwt>
<pdfrwt beam="2">  1        2 0.31072575E+00 0.96203052E+02</pdfrwt>
<totfact> 0.12838172E+06</totfact>
</mgrwt>
</event>
<event>
 6    2  0.8544106E+000  0.1002860E+03  0.7546771E-02  0.1279696E+00
         21   -1    0    0  501  502  0.00000000000E+00  0.00000000000E+00  0.99995860969E+01  0.99995860969E+01  0.00000000000E+00 0. -1.
          2   -1    0    0  502    0 -0.00000000000E+00 -0.00000000000E+00 -0.64486875137E+03  0.64486875137E+03  0.00000000000E+00 0. -1.
         24    2    1    2    0    0  0.35397867307E+02 -0.47840433130E+02 -0.36593365988E+03  0.37942683349E+03  0.80719034231E+02 0.  0.
        -11    1    3    3    0    0  0.15834836088E+02  0.18043654441E+02 -0.42873069278E+02  0.49136702869E+02  0.00000000000E+00 0.  1.
         12    1    3    3    0    0  0.19563031219E+02 -0.65884087572E+02 -0.32306059060E+03  0.33029013062E+03  0.00000000000E+00 0. -1.
          1    1    1    2  501    0 -0.35397867307E+02  0.47840433130E+02 -0.26893550539E+03  0.27544150397E+03  0.00000000000E+00 0. -1.
<mgrwt>
<rscale>  1 0.10028598E+03</rscale>
<asrwt>0</asrwt>
<pdfrwt beam="1">  1       21 0.15383978E-02 0.10028598E+03</pdfrwt>
<pdfrwt beam="2">  1        2 0.99210583E-01 0.10028598E+03</pdfrwt>
<totfact> 0.10464975E+06</totfact>
</mgrwt>
</event>
<event>
 6    2  0.8544106E+000  0.1052926E+03  0.7546771E-02  0.1269544E+00
         21   -1    0    0  501  502  0.00000000000E+00  0.00000000000E+00  0.51589754591E+02  0.51589754591E+02  0.00000000000E+00 0.  1.
         -3   -1    0    0    0  501 -0.00000000000E+00 -0.00000000000E+00 -0.20139503023E+03  0.20139503023E+03  0.00000000000E+00 0.  1.
         24    2    1    2    0    0  0.60964766467E+02  0.68219087139E+02 -0.46830267816E+02  0.11523719378E+03  0.52115163312E+02 0.  0.
        -11    1    3    3    0    0  0.63917775293E+02  0.71210263172E+02 -0.51733941204E+02  0.10877860200E+03  0.00000000000E+00 0.  1.
         12    1    3    3    0    0 -0.29530088262E+01 -0.29911760339E+01  0.49036733880E+01  0.64585917884E+01  0.00000000000E+00 0. -1.
         -4    1    1    2    0  502 -0.60964766467E+02 -0.68219087139E+02 -0.10297500782E+03  0.13774759104E+03  0.00000000000E+00 0.  1.
<mgrwt>
<rscale>  1 0.10529262E+03</rscale>
<asrwt>0</asrwt>
<pdfrwt beam="1">  1       21 0.79368853E-02 0.10529262E+03</pdfrwt>
<pdfrwt beam="2">  1       -3 0.30983851E-01 0.10529262E+03</pdfrwt>
<totfact> 0.57202831E+04</totfact>
</mgrwt>
</event>
<event>
 6    2  0.8544106E+000  0.8797955E+02  0.7546771E-02  0.1307820E+00
         21   -1    0    0  501  502  0.00000000000E+00  0.00000000000E+00  0.84259811597E+00  0.84259811597E+00  0.00000000000E+00 0. -1.
          2   -1    0    0  502    0 -0.00000000000E+00 -0.00000000000E+00 -0.50436479263E+04  0.50436479263E+04  0.00000000000E+00 0. -1.
         24    2    1    2    0    0  0.33743757358E+02 -0.14164725946E+02 -0.41548393974E+04  0.41557707853E+04  0.80007002148E+02 0.  0.
        -13    1    3    3    0    0 -0.21490982154E+02 -0.12838399612E+02 -0.62817026197E+03  0.62866888331E+03  0.00000000000E+00 0.  1.
         14    1    3    3    0    0  0.55234739512E+02 -0.13263263335E+01 -0.35266691355E+04  0.35271019019E+04  0.00000000000E+00 0. -1.
          1    1    1    2  501    0 -0.33743757358E+02  0.14164725946E+02 -0.88796593071E+03  0.88871973914E+03  0.00000000000E+00 0. -1.
<mgrwt>
<rscale>  1 0.87979549E+02</rscale>
<asrwt>0</asrwt>
<pdfrwt beam="1">  1       21 0.12963146E-03 0.87979549E+02</pdfrwt>
<pdfrwt beam="2">  1        2 0.77593998E+00 0.87979549E+02</pdfrwt>
<totfact> 0.58543966E+04</totfact>
</mgrwt>
</event>
<event>
 6    2  0.8544106E+000  0.1250293E+03  0.7546771E-02  0.1235023E+00
         -1   -1    0    0    0  501 -0.00000000000E+00  0.00000000000E+00  0.21031777440E+03  0.21031777440E+03  0.00000000000E+00 0.  1.
         21   -1    0    0  501  502  0.00000000000E+00 -0.00000000000E+00 -0.60611212237E+02  0.60611212237E+02  0.00000000000E+00 0.  1.
         24    2    1    2    0    0 -0.94803065550E+02 -0.87060903233E+00  0.53930770466E+02  0.13616481680E+03  0.81510429594E+02 0.  0.
        -11    1    3    3    0    0 -0.10092599433E+03 -0.21019096878E+02  0.38449743977E+02  0.11002836714E+03  0.00000000000E+00 0.  1.
         12    1    3    3    0    0  0.61229287778E+01  0.20148487846E+02  0.15481026489E+02  0.26136449652E+02  0.00000000000E+00 0. -1.
         -2    1    1    2    0  502  0.94803065550E+02  0.87060903233E+00  0.95775791700E+02  0.13476416984E+03  0.00000000000E+00 0.  1.
<mgrwt>
<rscale>  1 0.12502931E+03</rscale>
<asrwt>0</asrwt>
<pdfrwt beam="1">  1       21 0.93248020E-02 0.12502931E+03</pdfrwt>
<pdfrwt beam="2">  1       -1 0.32356580E-01 0.12502931E+03</pdfrwt>
<totfact> 0.74221743E+04</totfact>
</mgrwt>
</event>
<event>
 6    2  0.8544106E+000  0.8522417E+02  0.7546771E-02  0.1314847E+00
         21   -1    0    0  501  502  0.00000000000E+00  0.00000000000E+00  0.40917851178E+02  0.40917851178E+02  0.00000000000E+00 0. -1.
          2   -1    0    0  502    0 -0.00000000000E+00 -0.00000000000E+00 -0.78487781981E+02  0.78487781981E+02  0.00000000000E+00 0. -1.
         24    2    1    2    0    0 -0.21204106124E+02 -0.59018475344E+01 -0.44744005048E+02  0.96255832682E+02  0.82332942476E+02 0.  0.
        -11    1    3    3    0    0  0.46446221753E+01  0.24648266422E+02  0.11202508732E+02  0.27470088363E+02  0.00000000000E+00 0.  1.
         12    1    3    3    0    0 -0.25848728299E+02 -0.30550113956E+02 -0.55946513780E+02  0.68785744319E+02  0.00000000000E+00 0. -1.
          1    1    1    2  501    0  0.21204106124E+02  0.59018475344E+01  0.71740742446E+01  0.23149800476E+02  0.00000000000E+00 0. -1.
<mgrwt>
<rscale>  1 0.85224171E+02</rscale>
<asrwt>0</asrwt>
<pdfrwt beam="1">  1       21 0.62950541E-02 0.85224171E+02</pdfrwt>
<pdfrwt beam="2">  1        2 0.12075043E-01 0.85224171E+02</pdfrwt>
<totfact> 0.10308913E+06</totfact>
</mgrwt>
</event>
<event>
 6    2  0.8544106E+000  0.8336761E+02  0.7546771E-02  0.1319757E+00
         21   -1    0    0  501  502  0.00000000000E+00  0.00000000000E+00  0.38765197152E+01  0.38765197152E+01  0.00000000000E+00 0. -1.
          2   -1    0    0  502    0 -0.00000000000E+00 -0.00000000000E+00 -0.13184489042E+04  0.13184489042E+04  0.00000000000E+00 0. -1.
         24    2    1    2    0    0 -0.16354496486E+02 -0.13015153190E+02 -0.12736386287E+04  0.12763641779E+04  0.80704984177E+02 0.  0.
        -13    1    3    3    0    0 -0.49818464835E+01 -0.70484679023E+01 -0.12672841360E+02  0.15332990650E+02  0.00000000000E+00 0.  1.
         14    1    3    3    0    0 -0.11372650003E+02 -0.59666852874E+01 -0.12609657873E+04  0.12610311873E+04  0.00000000000E+00 0. -1.
          1    1    1    2  501    0  0.16354496486E+02  0.13015153190E+02 -0.40933755776E+02  0.45961245956E+02  0.00000000000E+00 0. -1.
<mgrwt>
<rscale>  1 0.83367609E+02</rscale>
<asrwt>0</asrwt>
<pdfrwt beam="1">  1       21 0.59638650E-03 0.83367609E+02</pdfrwt>
<pdfrwt beam="2">  1        2 0.20283868E+00 0.83367609E+02</pdfrwt>
<totfact> 0.17587953E+06</totfact>
</mgrwt>
</event>
<event>
 6    2  0.8544106E+000  0.8675581E+02  0.7546771E-02  0.1310904E+00
         -1   -1    0    0    0  501 -0.00000000000E+00  0.00000000000E+00  0.59972981100E+03  0.59972981100E+03  0.00000000000E+00 0.  1.
         21   -1    0    0  501  502  0.00000000000E+00 -0.00000000000E+00 -0.70073770786E+01  0.70073770786E+01  0.00000000000E+00 0. -1.
         24    2    1    2    0    0  0.15359161539E+02  0.25511196486E+02  0.53287230707E+03  0.53988838350E+03  0.81485250250E+02 0.  0.
        -11    1    3    3    0    0 -0.16333773822E+02  0.11886991648E+01  0.41701756993E+03  0.41733902143E+03  0.00000000000E+00 0.  1.
         12    1    3    3    0    0  0.31692935361E+02  0.24322497321E+02  0.11585473714E+03  0.12254936208E+03  0.00000000000E+00 0. -1.
         -2    1    1    2    0  502 -0.15359161539E+02 -0.25511196486E+02  0.59850126851E+02  0.66848804577E+02  0.00000000000E+00 0.  1.
<mgrwt>
<rscale>  1 0.86755812E+02</rscale>
<asrwt>0</asrwt>
<pdfrwt beam="1">  1       21 0.10780585E-02 0.86755812E+02</pdfrwt>
<pdfrwt beam="2">  1       -1 0.92266084E-01 0.86755812E+02</pdfrwt>
<totfact> 0.35286152E+05</totfact>
</mgrwt>
</event>
<event>
 6    2  0.8544106E+000  0.9202751E+02  0.7546771E-02  0.1298015E+00
         -1   -1    0    0    0  501 -0.00000000000E+00  0.00000000000E+00  0.72706782704E+01  0.72706782704E+01  0.00000000000E+00 0.  1.
         21   -1    0    0  501  502  0.00000000000E+00 -0.00000000000E+00 -0.91528782355E+03  0.91528782355E+03  0.00000000000E+00 0.  1.
         24    2    1    2    0    0  0.40377458806E+02  0.19611376909E+02 -0.32392147439E+03  0.33674052835E+03  0.80337516650E+02 0.  0.
        -11    1    3    3    0    0  0.43638646398E+02 -0.21985638353E+02 -0.20389561131E+03  0.20966907274E+03  0.00000000000E+00 0.  1.
         12    1    3    3    0    0 -0.32611875925E+01  0.41597015262E+02 -0.12002586308E+03  0.12707145561E+03  0.00000000000E+00 0. -1.
         -2    1    1    2    0  502 -0.40377458806E+02 -0.19611376909E+02 -0.58409567089E+03  0.58581797347E+03  0.00000000000E+00 0.  1.
<mgrwt>
<rscale>  1 0.92027506E+02</rscale>
<asrwt>0</asrwt>
<pdfrwt beam="1">  1       21 0.14081359E+00 0.92027506E+02</pdfrwt>
<pdfrwt beam="2">  1       -1 0.11185653E-02 0.92027506E+02</pdfrwt>
<totfact> 0.48430737E+04</totfact>
</mgrwt>
</event>
<event>
 6    2  0.8544106E+000  0.1402559E+03  0.7546771E-02  0.1212985E+00
         21   -1    0    0  501  502  0.00000000000E+00  0.00000000000E+00  0.13512893850E+03  0.13512893850E+03  0.00000000000E+00 0. -1.
         -3   -1    0    0    0  501 -0.00000000000E+00 -0.00000000000E+00 -0.12100400339E+03  0.12100400339E+03  0.00000000000E+00 0.  1.
         24    2    1    2    0    0 -0.63036526809E+02 -0.96691159916E+02  0.10574190258E+02  0.14065397452E+03  0.79680254327E+02 0.  0.
        -13    1    3    3    0    0 -0.32000795695E+02 -0.20750692110E+01  0.24166436318E+02  0.40154370642E+02  0.00000000000E+00 0.  1.
         14    1    3    3    0    0 -0.31035731115E+02 -0.94616090704E+02 -0.13592246060E+02  0.10049960387E+03  0.00000000000E+00 0. -1.
         -4    1    1    2    0  502  0.63036526809E+02  0.96691159916E+02  0.35507448504E+01  0.11547896738E+03  0.00000000000E+00 0.  1.
<mgrwt>
<rscale>  1 0.14025593E+03</rscale>
<asrwt>0</asrwt>
<pdfrwt beam="1">  1       21 0.20789068E-01 0.14025593E+03</pdfrwt>
<pdfrwt beam="2">  1       -3 0.18616000E-01 0.14025593E+03</pdfrwt>
<totfact> 0.26394621E+04</totfact>
</mgrwt>
</event>
<event>
 6    2  0.8544106E+000  0.8750885E+02  0.7546771E-02  0.1308999E+00
          2   -1    0    0  502    0 -0.00000000000E+00  0.00000000000E+00  0.25754902758E+03  0.25754902758E+03  0.00000000000E+00 0. -1.
         21   -1    0    0  501  502  0.00000000000E+00 -0.00000000000E+00 -0.22848051181E+02  0.22848051181E+02  0.00000000000E+00 0. -1.
         24    2    1    2    0    0 -0.23840739301E+02  0.24504659847E+02  0.22975072303E+03  0.24585197472E+03  0.80553954203E+02 0.  0.
        -11    1    3    3    0    0 -0.21488649757E+02  0.43405827495E+01  0.82510916729E+01  0.23423988575E+02  0.00000000000E+00 0.  1.
         12    1    3    3    0    0 -0.23520895436E+01  0.20164077097E+02  0.22149963136E+03  0.22242798615E+03  0.00000000000E+00 0. -1.
          1    1    1    2  501    0  0.23840739301E+02 -0.24504659847E+02  0.49502533688E+01  0.34545104038E+02  0.00000000000E+00 0. -1.
<mgrwt>
<rscale>  1 0.87508850E+02</rscale>
<asrwt>0</asrwt>
<pdfrwt beam="1">  1       21 0.35150850E-02 0.87508850E+02</pdfrwt>
<pdfrwt beam="2">  1        2 0.39622925E-01 0.87508850E+02</pdfrwt>
<totfact> 0.72839942E+05</totfact>
</mgrwt>
</event>
<event>
 6    2  0.8544106E+000  0.8610576E+02  0.7546771E-02  0.1312566E+00
          2   -1    0    0  502    0 -0.00000000000E+00  0.00000000000E+00  0.63281623932E+03  0.63281623932E+03  0.00000000000E+00 0. -1.
         21   -1    0    0  501  502  0.00000000000E+00 -0.00000000000E+00 -0.39059258947E+02  0.39059258947E+02  0.00000000000E+00 0. -1.
         24    2    1    2    0    0  0.99603163588E+00 -0.20365254292E+02  0.62699609448E+03  0.63288095546E+03  0.83656832578E+02 0.  0.
        -11    1    3    3    0    0  0.12400513838E+02 -0.51326212470E+02  0.35932690359E+03  0.36318587042E+03  0.00000000000E+00 0.  1.
         12    1    3    3    0    0 -0.11404482202E+02  0.30960958178E+02  0.26766919088E+03  0.26969508504E+03  0.00000000000E+00 0. -1.
          1    1    1    2  501    0 -0.99603163588E+00  0.20365254292E+02 -0.33239114109E+02  0.38994542800E+02  0.00000000000E+00 0. -1.
<mgrwt>
<rscale>  1 0.86105756E+02</rscale>
<asrwt>0</asrwt>
<pdfrwt beam="1">  1       21 0.60091172E-02 0.86105756E+02</pdfrwt>
<pdfrwt beam="2">  1        2 0.97356337E-01 0.86105756E+02</pdfrwt>
<totfact> 0.11498274E+05</totfact>
</mgrwt>
</event>
<event>
 6    2  0.8544106E+000  0.8123802E+02  0.7546771E-02  0.1325574E+00
         21   -1    0    0  501  502  0.00000000000E+00  0.00000000000E+00  0.37493517276E+02  0.37493517276E+02  0.00000000000E+00 0. -1.
          2   -1    0    0  502    0 -0.00000000000E+00 -0.00000000000E+00 -0.44513200640E+03  0.44513200640E+03  0.00000000000E+00 0. -1.
         24    2    1    2    0    0  0.16296934293E+02  0.14446679981E+02 -0.43788344638E+03  0.44535550798E+03  0.78264418800E+02 0.  0.
        -11    1    3    3    0    0 -0.10793843164E+02 -0.15897661526E+02 -0.31199166795E+02  0.36641925453E+02  0.00000000000E+00 0.  1.
         12    1    3    3    0    0  0.27090777458E+02  0.30344341508E+02 -0.40668427958E+03  0.40871358253E+03  0.00000000000E+00 0. -1.
          1    1    1    2  501    0 -0.16296934293E+02 -0.14446679981E+02  0.30244957258E+02  0.37270015688E+02  0.00000000000E+00 0. -1.
<mgrwt>
<rscale>  1 0.81238020E+02</rscale>
<asrwt>0</asrwt>
<pdfrwt beam="1">  1       21 0.57682336E-02 0.81238020E+02</pdfrwt>
<pdfrwt beam="2">  1        2 0.68481845E-01 0.81238020E+02</pdfrwt>
<totfact> 0.18019528E+05</totfact>
</mgrwt>
</event>
<event>
 6    2  0.8544106E+000  0.8660826E+02  0.7546771E-02  0.1311280E+00
          2   -1    0    0  502    0 -0.00000000000E+00  0.00000000000E+00  0.26508628111E+03  0.26508628111E+03  0.00000000000E+00 0. -1.
         21   -1    0    0  501  502  0.00000000000E+00 -0.00000000000E+00 -0.13900947160E+02  0.13900947160E+02  0.00000000000E+00 0.  1.
         24    2    1    2    0    0  0.20167444527E+02  0.26463761794E+02  0.16026172436E+03  0.18216698613E+03  0.79962078722E+02 0.  0.
        -13    1    3    3    0    0 -0.17392471503E+02  0.97375484625E+01  0.36706282611E+01  0.20267990203E+02  0.00000000000E+00 0.  1.
         14    1    3    3    0    0  0.37559916030E+02  0.16726213332E+02  0.15659109609E+03  0.16189899592E+03  0.00000000000E+00 0. -1.
          1    1    1    2  501    0 -0.20167444527E+02 -0.26463761794E+02  0.90923609590E+02  0.96820242140E+02  0.00000000000E+00 0. -1.
<mgrwt>
<rscale>  1 0.86608259E+02</rscale>
<asrwt>0</asrwt>
<pdfrwt beam="1">  1       21 0.21386074E-02 0.86608259E+02</pdfrwt>
<pdfrwt beam="2">  1        2 0.40782501E-01 0.86608259E+02</pdfrwt>
<totfact> 0.15775988E+06</totfact>
</mgrwt>
</event>
<event>
 6    2  0.8544106E+000  0.1042208E+03  0.7546771E-02  0.1271662E+00
          2   -1    0    0  502    0 -0.00000000000E+00  0.00000000000E+00  0.16778854934E+03  0.16778854934E+03  0.00000000000E+00 0. -1.
         21   -1    0    0  501  502  0.00000000000E+00 -0.00000000000E+00 -0.45185630502E+02  0.45185630502E+02  0.00000000000E+00 0.  1.
         24    2    1    2    0    0 -0.62361644819E+02 -0.92680463511E+01  0.10401387602E+03  0.14724424799E+03  0.82988618108E+02 0.  0.
        -13    1    3    3    0    0 -0.65066147098E+02 -0.10993344296E+01  0.28165181588E+02  0.70909022615E+02  0.00000000000E+00 0.  1.
         14    1    3    3    0    0  0.27045022786E+01 -0.81687119215E+01  0.75848694429E+02  0.76335225379E+02  0.00000000000E+00 0. -1.
          1    1    1    2  501    0  0.62361644819E+02  0.92680463511E+01  0.18589042820E+02  0.65729931848E+02  0.00000000000E+00 0. -1.
<mgrwt>
<rscale>  1 0.10422083E+03</rscale>
<asrwt>0</asrwt>
<pdfrwt beam="1">  1       21 0.69516355E-02 0.10422083E+03</pdfrwt>
<pdfrwt beam="2">  1        2 0.25813623E-01 0.10422083E+03</pdfrwt>
<totfact> 0.37492909E+05</totfact>
</mgrwt>
</event>
<event>
 6    2  0.8544106E+000  0.9502132E+02  0.7546771E-02  0.1291128E+00
          2   -1    0    0  502    0 -0.00000000000E+00  0.00000000000E+00  0.42268182983E+03  0.42268182983E+03  0.00000000000E+00 0. -1.
         21   -1    0    0  501  502  0.00000000000E+00 -0.00000000000E+00 -0.12147712571E+02  0.12147712571E+02  0.00000000000E+00 0.  1.
         24    2    1    2    0    0 -0.88664172981E+01  0.44245567565E+02  0.31775808885E+03  0.33166135422E+03  0.83622767533E+02 0.  0.
        -13    1    3    3    0    0 -0.37198954780E+02  0.48425955327E+02  0.15864529345E+03  0.16999166015E+03  0.00000000000E+00 0.  1.
         14    1    3    3    0    0  0.28332537481E+02 -0.41803877620E+01  0.15911279540E+03  0.16166969408E+03  0.00000000000E+00 0. -1.
          1    1    1    2  501    0  0.88664172981E+01 -0.44245567565E+02  0.92776028405E+02  0.10316818818E+03  0.00000000000E+00 0. -1.
<mgrwt>
<rscale>  1 0.95021318E+02</rscale>
<asrwt>0</asrwt>
<pdfrwt beam="1">  1       21 0.18688792E-02 0.95021318E+02</pdfrwt>
<pdfrwt beam="2">  1        2 0.65027963E-01 0.95021318E+02</pdfrwt>
<totfact> 0.12127527E+06</totfact>
</mgrwt>
</event>
<event>
 6    2  0.8544106E+000  0.9117439E+02  0.7546771E-02  0.1300032E+00
         21   -1    0    0  501  502  0.00000000000E+00  0.00000000000E+00  0.35073672327E+03  0.35073672327E+03  0.00000000000E+00 0. -1.
         -3   -1    0    0    0  501 -0.00000000000E+00 -0.00000000000E+00 -0.14882893104E+02  0.14882893104E+02  0.00000000000E+00 0.  1.
         24    2    1    2    0    0 -0.67927299572E+00  0.47082719222E+02  0.26754541498E+03  0.28265406059E+03  0.78073843444E+02 0.  0.
        -11    1    3    3    0    0 -0.22228175894E+02  0.16365309379E+02  0.25056476806E+02  0.37279246030E+02  0.00000000000E+00 0.  1.
         12    1    3    3    0    0  0.21548902898E+02  0.30717409842E+02  0.24248893818E+03  0.24537481456E+03  0.00000000000E+00 0. -1.
         -4    1    1    2    0  502  0.67927299572E+00 -0.47082719222E+02  0.68308415178E+02  0.82965555776E+02  0.00000000000E+00 0.  1.
<mgrwt>
<rscale>  1 0.91174387E+02</rscale>
<asrwt>0</asrwt>
<pdfrwt beam="1">  1       21 0.53959490E-01 0.91174387E+02</pdfrwt>
<pdfrwt beam="2">  1       -3 0.22896761E-02 0.91174387E+02</pdfrwt>
<totfact> 0.11466389E+05</totfact>
</mgrwt>
</event>
<event>
 6    2  0.8544106E+000  0.8290243E+02  0.7546771E-02  0.1321011E+00
         21   -1    0    0  501  502  0.00000000000E+00  0.00000000000E+00  0.16388272366E+03  0.16388272366E+03  0.00000000000E+00 0.  1.
         -1   -1    0    0    0  501 -0.00000000000E+00 -0.00000000000E+00 -0.33994172692E+02  0.33994172692E+02  0.00000000000E+00 0.  1.
         24    2    1    2    0    0 -0.38450011790E+02  0.21050211660E+02  0.28917415194E+02  0.87801081220E+02  0.70365461303E+02 0.  0.
        -11    1    3    3    0    0 -0.39462087621E+02  0.36595627003E+02 -0.12666479312E+01  0.53834010366E+02  0.00000000000E+00 0.  1.
         12    1    3    3    0    0  0.10120758305E+01 -0.15545415342E+02  0.30184063126E+02  0.33967070854E+02  0.00000000000E+00 0. -1.
         -2    1    1    2    0  502  0.38450011790E+02 -0.21050211660E+02  0.10097113577E+03  0.11007581513E+03  0.00000000000E+00 0.  1.
<mgrwt>
<rscale>  1 0.82902430E+02</rscale>
<asrwt>0</asrwt>
<pdfrwt beam="1">  1       21 0.25212726E-01 0.82902430E+02</pdfrwt>
<pdfrwt beam="2">  1       -1 0.52298728E-02 0.82902430E+02</pdfrwt>
<totfact> 0.20431747E+05</totfact>
</mgrwt>
</event>
<event>
 6    2  0.8544106E+000  0.1057402E+03  0.7546771E-02  0.1268668E+00
         -3   -1    0    0    0  501 -0.00000000000E+00  0.00000000000E+00  0.35668177542E+02  0.35668177542E+02  0.00000000000E+00 0.  1.
         21   -1    0    0  501  502  0.00000000000E+00 -0.00000000000E+00 -0.43975935669E+03  0.43975935669E+03  0.00000000000E+00 0.  1.
         24    2    1    2    0    0 -0.68318525076E+02  0.15158966100E+02 -0.54611189019E+02  0.11900997206E+03  0.79270274144E+02 0.  0.
        -11    1    3    3    0    0 -0.47581780209E+02  0.24857242096E+02  0.61926405047E+01  0.54039403114E+02  0.00000000000E+00 0.  1.
         12    1    3    3    0    0 -0.20736744867E+02 -0.96982759958E+01 -0.60803829524E+02  0.64970568950E+02  0.00000000000E+00 0. -1.
         -4    1    1    2    0  502  0.68318525076E+02 -0.15158966100E+02 -0.34947999013E+03  0.35641756217E+03  0.00000000000E+00 0.  1.
<mgrwt>
<rscale>  1 0.10574021E+03</rscale>
<asrwt>0</asrwt>
<pdfrwt beam="1">  1       21 0.67655291E-01 0.10574021E+03</pdfrwt>
<pdfrwt beam="2">  1       -3 0.54874115E-02 0.10574021E+03</pdfrwt>
<totfact> 0.18682178E+04</totfact>
</mgrwt>
</event>
<event>
 6    2  0.8544106E+000  0.1002670E+03  0.7546771E-02  0.1279736E+00
          2   -1    0    0  502    0 -0.00000000000E+00  0.00000000000E+00  0.85659338964E+03  0.85659338964E+03  0.00000000000E+00 0. -1.
         21   -1    0    0  501  502  0.00000000000E+00 -0.00000000000E+00 -0.63371742232E+01  0.63371742232E+01  0.00000000000E+00 0. -1.
         24    2    1    2    0    0  0.43446046367E+01 -0.46393988039E+02  0.61223402648E+03  0.62039017519E+03  0.88781690489E+02 0.  0.
        -13    1    3    3    0    0 -0.33186438117E+02  0.51569155357E+00  0.12006187598E+03  0.12456508210E+03  0.00000000000E+00 0.  1.
         14    1    3    3    0    0  0.37531042754E+02 -0.46909679593E+02  0.49217215050E+03  0.49582509309E+03  0.00000000000E+00 0. -1.
          1    1    1    2  501    0 -0.43446046367E+01  0.46393988039E+02  0.23802218893E+03  0.24254038868E+03  0.00000000000E+00 0. -1.
<mgrwt>
<rscale>  1 0.10026698E+03</rscale>
<asrwt>0</asrwt>
<pdfrwt beam="1">  1       21 0.97495056E-03 0.10026698E+03</pdfrwt>
<pdfrwt beam="2">  1        2 0.13178351E+00 0.10026698E+03</pdfrwt>
<totfact> 0.15291692E+06</totfact>
</mgrwt>
</event>
<event>
 6    2  0.8544106E+000  0.8627109E+02  0.7546771E-02  0.1312142E+00
         -1   -1    0    0    0  501 -0.00000000000E+00  0.00000000000E+00  0.77473666415E+03  0.77473666415E+03  0.00000000000E+00 0.  1.
         21   -1    0    0  501  502  0.00000000000E+00 -0.00000000000E+00 -0.77681929543E+01  0.77681929543E+01  0.00000000000E+00 0.  1.
         24    2    1    2    0    0 -0.30971114557E+01 -0.30482842614E+02  0.72721248601E+03  0.73231188796E+03  0.80646795653E+02 0.  0.
        -11    1    3    3    0    0  0.23823642819E+02 -0.62002774076E+01  0.58609635669E+03  0.58661311673E+03  0.00000000000E+00 0.  1.
         12    1    3    3    0    0 -0.26920754275E+02 -0.24282565206E+02  0.14111612932E+03  0.14569877123E+03  0.00000000000E+00 0. -1.
         -2    1    1    2    0  502  0.30971114557E+01  0.30482842614E+02  0.39755985186E+02  0.50192969142E+02  0.00000000000E+00 0.  1.
<mgrwt>
<rscale>  1 0.86271093E+02</rscale>
<asrwt>0</asrwt>
<pdfrwt beam="1">  1       21 0.11951072E-02 0.86271093E+02</pdfrwt>
<pdfrwt beam="2">  1       -1 0.11919020E+00 0.86271093E+02</pdfrwt>
<totfact> 0.17032301E+05</totfact>
</mgrwt>
</event>
<event>
 6    2  0.8544106E+000  0.8383610E+02  0.7546771E-02  0.1318505E+00
         21   -1    0    0  501  502  0.00000000000E+00  0.00000000000E+00  0.50127944869E+01  0.50127944869E+01  0.00000000000E+00 0.  1.
          2   -1    0    0  502    0 -0.00000000000E+00 -0.00000000000E+00 -0.56540635608E+03  0.56540635608E+03  0.00000000000E+00 0. -1.
         24    2    1    2    0    0 -0.16199645617E+02 -0.15728345271E+02 -0.44917531302E+03  0.45693211087E+03  0.80738359880E+02 0.  0.
        -13    1    3    3    0    0 -0.47276098493E+02 -0.19321306935E+02 -0.31820385979E+03  0.32227633915E+03  0.00000000000E+00 0.  1.
         14    1    3    3    0    0  0.31076452877E+02  0.35929616636E+01 -0.13097145323E+03  0.13465577172E+03  0.00000000000E+00 0. -1.
          1    1    1    2  501    0  0.16199645617E+02  0.15728345271E+02 -0.11121824857E+03  0.11348703969E+03  0.00000000000E+00 0. -1.
<mgrwt>
<rscale>  1 0.83836103E+02</rscale>
<asrwt>0</asrwt>
<pdfrwt beam="1">  1       21 0.77119872E-03 0.83836103E+02</pdfrwt>
<pdfrwt beam="2">  1        2 0.86985642E-01 0.83836103E+02</pdfrwt>
<totfact> 0.35129284E+06</totfact>
</mgrwt>
</event>
<event>
 6    2  0.8544106E+000  0.8436538E+02  0.7546771E-02  0.1317101E+00
         -3   -1    0    0    0  501 -0.00000000000E+00  0.00000000000E+00  0.15509785506E+03  0.15509785506E+03  0.00000000000E+00 0.  1.
         21   -1    0    0  501  502  0.00000000000E+00 -0.00000000000E+00 -0.57665156852E+02  0.57665156852E+02  0.00000000000E+00 0.  1.
         24    2    1    2    0    0 -0.10470069093E+02  0.17061922995E+02  0.14128543862E+03  0.16455726117E+03  0.81955997180E+02 0.  0.
        -13    1    3    3    0    0  0.25275428898E+02  0.19001716726E+02  0.11724894780E+03  0.12143816659E+03  0.00000000000E+00 0.  1.
         14    1    3    3    0    0 -0.35745497992E+02 -0.19397937318E+01  0.24036490826E+02  0.43119094582E+02  0.00000000000E+00 0. -1.
         -4    1    1    2    0  502  0.10470069093E+02 -0.17061922995E+02 -0.43852740413E+02  0.48205750744E+02  0.00000000000E+00 0.  1.
<mgrwt>
<rscale>  1 0.84365378E+02</rscale>
<asrwt>0</asrwt>
<pdfrwt beam="1">  1       21 0.88715626E-02 0.84365378E+02</pdfrwt>
<pdfrwt beam="2">  1       -3 0.23861208E-01 0.84365378E+02</pdfrwt>
<totfact> 0.73813908E+04</totfact>
</mgrwt>
</event>
<event>
 6    2  0.8544106E+000  0.8303676E+02  0.7546771E-02  0.1320648E+00
         21   -1    0    0  501  502  0.00000000000E+00  0.00000000000E+00  0.55720423438E+01  0.55720423438E+01  0.00000000000E+00 0. -1.
         -3   -1    0    0    0  501 -0.00000000000E+00 -0.00000000000E+00 -0.50852896465E+03  0.50852896465E+03  0.00000000000E+00 0.  1.
         24    2    1    2    0    0  0.14870889742E+02  0.17739184096E+02 -0.37724090199E+03  0.38627166850E+03  0.79745104815E+02 0.  0.
        -13    1    3    3    0    0 -0.16876635414E+02  0.35600427438E+02 -0.27345882479E+03  0.27628235577E+03  0.00000000000E+00 0.  1.
         14    1    3    3    0    0  0.31747525156E+02 -0.17861243342E+02 -0.10378207720E+03  0.10998931273E+03  0.00000000000E+00 0. -1.
         -4    1    1    2    0  502 -0.14870889742E+02 -0.17739184096E+02 -0.12571602032E+03  0.12782933849E+03  0.00000000000E+00 0.  1.
<mgrwt>
<rscale>  1 0.83036761E+02</rscale>
<asrwt>0</asrwt>
<pdfrwt beam="1">  1       21 0.85723687E-03 0.83036761E+02</pdfrwt>
<pdfrwt beam="2">  1       -3 0.78235263E-01 0.83036761E+02</pdfrwt>
<totfact> 0.32683015E+05</totfact>
</mgrwt>
</event>
<event>
 6    2  0.8544106E+000  0.8349318E+02  0.7546771E-02  0.1319421E+00
         -3   -1    0    0    0  501 -0.00000000000E+00  0.00000000000E+00  0.42020130745E+02  0.42020130745E+02  0.00000000000E+00 0.  1.
         21   -1    0    0  501  502  0.00000000000E+00 -0.00000000000E+00 -0.74274117226E+02  0.74274117226E+02  0.00000000000E+00 0. -1.
         24    2    1    2    0    0 -0.59849326192E+01  0.22767359657E+02 -0.10337798160E+02  0.84130737671E+02  0.80105797956E+02 0.  0.
        -13    1    3    3    0    0 -0.64476135391E+01  0.56245221975E+00  0.33963109656E+02  0.34574280764E+02  0.00000000000E+00 0.  1.
         14    1    3    3    0    0  0.46268091986E+00  0.22204907438E+02 -0.44300907815E+02  0.49556456907E+02  0.00000000000E+00 0. -1.
         -4    1    1    2    0  502  0.59849326192E+01 -0.22767359657E+02 -0.21916188322E+02  0.32163510300E+02  0.00000000000E+00 0.  1.
<mgrwt>
<rscale>  1 0.83493179E+02</rscale>
<asrwt>0</asrwt>
<pdfrwt beam="1">  1       21 0.11426787E-01 0.83493179E+02</pdfrwt>
<pdfrwt beam="2">  1       -3 0.64646356E-02 0.83493179E+02</pdfrwt>
<totfact> 0.42044143E+05</totfact>
</mgrwt>
</event>
<event>
 6    2  0.8544106E+000  0.8958736E+02  0.7546771E-02  0.1303854E+00
          2   -1    0    0  502    0 -0.00000000000E+00  0.00000000000E+00  0.99341265081E+02  0.99341265081E+02  0.00000000000E+00 0. -1.
         21   -1    0    0  501  502  0.00000000000E+00 -0.00000000000E+00 -0.53714234611E+02  0.53714234611E+02  0.00000000000E+00 0.  1.
         24    2    1    2    0    0  0.23828513675E+02  0.40290675376E+02  0.28322997579E+01  0.89632116285E+02  0.76385586085E+02 0.  0.
        -13    1    3    3    0    0 -0.25046874809E+02  0.25384708145E+02 -0.98248854286E+01  0.36989967816E+02  0.00000000000E+00 0.  1.
         14    1    3    3    0    0  0.48875388484E+02  0.14905967230E+02  0.12657185186E+02  0.52642148469E+02  0.00000000000E+00 0. -1.
          1    1    1    2  501    0 -0.23828513675E+02 -0.40290675376E+02  0.42794730712E+02  0.63423383408E+02  0.00000000000E+00 0. -1.
<mgrwt>
<rscale>  1 0.89587356E+02</rscale>
<asrwt>0</asrwt>
<pdfrwt beam="1">  1       21 0.82637284E-02 0.89587356E+02</pdfrwt>
<pdfrwt beam="2">  1        2 0.15283272E-01 0.89587356E+02</pdfrwt>
<totfact> 0.49597958E+05</totfact>
</mgrwt>
</event>
<event>
 6    2  0.8544106E+000  0.1379493E+03  0.7546771E-02  0.1216115E+00
         -3   -1    0    0    0  501 -0.00000000000E+00  0.00000000000E+00  0.17716666192E+03  0.17716666192E+03  0.00000000000E+00 0.  1.
         21   -1    0    0  501  502  0.00000000000E+00 -0.00000000000E+00 -0.17593368666E+03  0.17593368666E+03  0.00000000000E+00 0.  1.
         24    2    1    2    0    0 -0.11128106342E+03 -0.47157449219E+01  0.12530839711E+03  0.18636575819E+03  0.81389729778E+02 0.  0.
        -11    1    3    3    0    0 -0.49281997290E+02 -0.18589197658E+02  0.10855992342E+03  0.12066287954E+03  0.00000000000E+00 0.  1.
         12    1    3    3    0    0 -0.61999066128E+02  0.13873452736E+02  0.16748473692E+02  0.65702878648E+02  0.00000000000E+00 0. -1.
         -4    1    1    2    0  502  0.11128106342E+03  0.47157449219E+01 -0.12407542185E+03  0.16673459039E+03  0.00000000000E+00 0.  1.
<mgrwt>
<rscale>  1 0.13794927E+03</rscale>
<asrwt>0</asrwt>
<pdfrwt beam="1">  1       21 0.27066721E-01 0.13794927E+03</pdfrwt>
<pdfrwt beam="2">  1       -3 0.27256410E-01 0.13794927E+03</pdfrwt>
<totfact> 0.81179106E+03</totfact>
</mgrwt>
</event>
<event>
 6    2  0.8544106E+000  0.1078746E+03  0.7546771E-02  0.1264557E+00
         21   -1    0    0  501  502  0.00000000000E+00  0.00000000000E+00  0.29107115548E+02  0.29107115548E+02  0.00000000000E+00 0. -1.
         -1   -1    0    0    0  501 -0.00000000000E+00 -0.00000000000E+00 -0.26257713938E+03  0.26257713938E+03  0.00000000000E+00 0.  1.
         24    2    1    2    0    0  0.32214671847E+02 -0.28242480494E+02 -0.22278823223E+03  0.24753084670E+03  0.99002529564E+02 0.  0.
        -13    1    3    3    0    0  0.63465251976E+02  0.23373702992E+01 -0.14496711900E+03  0.15826802298E+03  0.00000000000E+00 0.  1.
         14    1    3    3    0    0 -0.31250580129E+02 -0.30579850793E+02 -0.77821113232E+02  0.89262823715E+02  0.00000000000E+00 0. -1.
         -2    1    1    2    0  502 -0.32214671847E+02  0.28242480494E+02 -0.10681791603E+02  0.44153408232E+02  0.00000000000E+00 0.  1.
<mgrwt>
<rscale>  1 0.10787457E+03</rscale>
<asrwt>0</asrwt>
<pdfrwt beam="1">  1       21 0.44780178E-02 0.10787457E+03</pdfrwt>
<pdfrwt beam="2">  1       -1 0.40396483E-01 0.10787457E+03</pdfrwt>
<totfact> 0.17481076E+05</totfact>
</mgrwt>
</event>
<event>
 6    2  0.8544106E+000  0.1224853E+03  0.7546771E-02  0.1239053E+00
         21   -1    0    0  501  502  0.00000000000E+00  0.00000000000E+00  0.10141617199E+03  0.10141617199E+03  0.00000000000E+00 0. -1.
          2   -1    0    0  502    0 -0.00000000000E+00 -0.00000000000E+00 -0.11275937947E+03  0.11275937947E+03  0.00000000000E+00 0. -1.
         24    2    1    2    0    0 -0.84757923978E+02  0.17812407019E+02 -0.28797218201E+02  0.12582494303E+03  0.86610905728E+02 0.  0.
        -11    1    3    3    0    0 -0.14148648750E+01 -0.60892510593E+01  0.23671014828E+02  0.24482601252E+02  0.00000000000E+00 0.  1.
         12    1    3    3    0    0 -0.83343059103E+02  0.23901658078E+02 -0.52468233029E+02  0.10134234178E+03  0.00000000000E+00 0. -1.
          1    1    1    2  501    0  0.84757923978E+02 -0.17812407019E+02  0.17454010717E+02  0.88350608436E+02  0.00000000000E+00 0. -1.
<mgrwt>
<rscale>  1 0.12248525E+03</rscale>
<asrwt>0</asrwt>
<pdfrwt beam="1">  1       21 0.15602488E-01 0.12248525E+03</pdfrwt>
<pdfrwt beam="2">  1        2 0.17347597E-01 0.12248525E+03</pdfrwt>
<totfact> 0.14349917E+05</totfact>
</mgrwt>
</event>
<event>
 6    2  0.8544106E+000  0.8674523E+02  0.7546771E-02  0.1310931E+00
         21   -1    0    0  501  502  0.00000000000E+00  0.00000000000E+00  0.12780222930E+03  0.12780222930E+03  0.00000000000E+00 0. -1.
          4   -1    0    0  502    0 -0.00000000000E+00 -0.00000000000E+00 -0.34459091654E+02  0.34459091654E+02  0.00000000000E+00 0. -1.
         24    2    1    2    0    0  0.19352013927E+02 -0.24378009325E+02  0.97902501017E+02  0.13080380077E+03  0.80968801461E+02 0.  0.
        -13    1    3    3    0    0 -0.14053246300E+02 -0.11558016758E+02  0.92911704773E+02  0.94676641083E+02  0.00000000000E+00 0.  1.
         14    1    3    3    0    0  0.33405260226E+02 -0.12819992567E+02  0.49907962432E+01  0.36127159691E+02  0.00000000000E+00 0. -1.
          3    1    1    2  501    0 -0.19352013927E+02  0.24378009325E+02 -0.45593633689E+01  0.31457520182E+02  0.00000000000E+00 0. -1.
<mgrwt>
<rscale>  1 0.86745228E+02</rscale>
<asrwt>0</asrwt>
<pdfrwt beam="1">  1       21 0.19661881E-01 0.86745228E+02</pdfrwt>
<pdfrwt beam="2">  1        4 0.53013988E-02 0.86745228E+02</pdfrwt>
<totfact> 0.19349747E+05</totfact>
</mgrwt>
</event>
<event>
 6    2  0.8544106E+000  0.9555804E+02  0.7546771E-02  0.1289924E+00
          4   -1    0    0  502    0 -0.00000000000E+00  0.00000000000E+00  0.49514702111E+02  0.49514702111E+02  0.00000000000E+00 0. -1.
         21   -1    0    0  501  502  0.00000000000E+00 -0.00000000000E+00 -0.13429918974E+03  0.13429918974E+03  0.00000000000E+00 0.  1.
         24    2    1    2    0    0  0.19933729399E+02 -0.46179422844E+02 -0.92420626483E+02  0.13293950459E+03  0.81249289350E+02 0.  0.
        -13    1    3    3    0    0 -0.21785383209E+02 -0.81773512184E+01 -0.67223713359E+02  0.71137188814E+02  0.00000000000E+00 0.  1.
         14    1    3    3    0    0  0.41719112608E+02 -0.38002071626E+02 -0.25196913124E+02  0.61802315779E+02  0.00000000000E+00 0. -1.
          3    1    1    2  501    0 -0.19933729399E+02  0.46179422844E+02  0.76361388557E+01  0.50874387255E+02  0.00000000000E+00 0. -1.
<mgrwt>
<rscale>  1 0.95558044E+02</rscale>
<asrwt>0</asrwt>
<pdfrwt beam="1">  1       21 0.20661414E-01 0.95558044E+02</pdfrwt>
<pdfrwt beam="2">  1        4 0.76176464E-02 0.95558044E+02</pdfrwt>
<totfact> 0.99901432E+04</totfact>
</mgrwt>
</event>
<event>
 6    2  0.8544106E+000  0.1102454E+03  0.7546771E-02  0.1260116E+00
         21   -1    0    0  501  502  0.00000000000E+00  0.00000000000E+00  0.29323224707E+02  0.29323224707E+02  0.00000000000E+00 0. -1.
          2   -1    0    0  502    0 -0.00000000000E+00 -0.00000000000E+00 -0.30658277963E+03  0.30658277963E+03  0.00000000000E+00 0. -1.
         24    2    1    2    0    0  0.43475628562E+02  0.60917281199E+02 -0.19980292473E+03  0.22820003891E+03  0.80950624456E+02 0.  0.
        -11    1    3    3    0    0 -0.19325009640E+02  0.16883789473E+02 -0.19400976590E+02  0.32170114038E+02  0.00000000000E+00 0.  1.
         12    1    3    3    0    0  0.62800638202E+02  0.44033491725E+02 -0.18040194814E+03  0.19602992487E+03  0.00000000000E+00 0. -1.
          1    1    1    2  501    0 -0.43475628562E+02 -0.60917281199E+02 -0.77456630187E+02  0.10770596542E+03  0.00000000000E+00 0. -1.
<mgrwt>
<rscale>  1 0.11024540E+03</rscale>
<asrwt>0</asrwt>
<pdfrwt beam="1">  1       21 0.45112657E-02 0.11024540E+03</pdfrwt>
<pdfrwt beam="2">  1        2 0.47166578E-01 0.11024540E+03</pdfrwt>
<totfact> 0.40994040E+05</totfact>
</mgrwt>
</event>
<event>
 6    2  0.8544106E+000  0.8712683E+02  0.7546771E-02  0.1309963E+00
         21   -1    0    0  501  502  0.00000000000E+00  0.00000000000E+00  0.13511611835E+04  0.13511611835E+04  0.00000000000E+00 0.  1.
         -1   -1    0    0    0  501 -0.00000000000E+00 -0.00000000000E+00 -0.30466536087E+01  0.30466536087E+01  0.00000000000E+00 0.  1.
         24    2    1    2    0    0 -0.39071019641E+02  0.96770406665E+01  0.99470879843E+03  0.99851724021E+03  0.77271570663E+02 0.  0.
        -13    1    3    3    0    0 -0.59475551920E+02  0.19909781016E+02  0.63678484069E+03  0.63986613756E+03  0.00000000000E+00 0.  1.
         14    1    3    3    0    0  0.20404532278E+02 -0.10232740349E+02  0.35792395774E+03  0.35865110265E+03  0.00000000000E+00 0. -1.
         -2    1    1    2    0  502  0.39071019641E+02 -0.96770406665E+01  0.35340573149E+03  0.35569059693E+03  0.00000000000E+00 0.  1.
<mgrwt>
<rscale>  1 0.87126835E+02</rscale>
<asrwt>0</asrwt>
<pdfrwt beam="1">  1       21 0.20787047E+00 0.87126835E+02</pdfrwt>
<pdfrwt beam="2">  1       -1 0.46871702E-03 0.87126835E+02</pdfrwt>
<totfact> 0.57935484E+04</totfact>
</mgrwt>
</event>
<event>
 6    2  0.8544106E+000  0.1008144E+03  0.7546771E-02  0.1278593E+00
         21   -1    0    0  501  502  0.00000000000E+00  0.00000000000E+00  0.55616835054E+03  0.55616835054E+03  0.00000000000E+00 0. -1.
          2   -1    0    0  502    0 -0.00000000000E+00 -0.00000000000E+00 -0.31460759235E+02  0.31460759235E+02  0.00000000000E+00 0. -1.
         24    2    1    2    0    0 -0.15359746902E+02  0.63324559825E+02  0.57823867588E+02  0.11622022868E+03  0.76926069640E+02 0.  0.
        -13    1    3    3    0    0  0.11738529792E+02  0.42906069775E+02  0.67588680581E+02  0.80913247666E+02  0.00000000000E+00 0.  1.
         14    1    3    3    0    0 -0.27098276693E+02  0.20418490050E+02 -0.97648129932E+01  0.35306981016E+02  0.00000000000E+00 0. -1.
          1    1    1    2  501    0  0.15359746902E+02 -0.63324559825E+02  0.46688372371E+03  0.47140888109E+03  0.00000000000E+00 0. -1.
<mgrwt>
<rscale>  1 0.10081439E+03</rscale>
<asrwt>0</asrwt>
<pdfrwt beam="1">  1       21 0.85564354E-01 0.10081439E+03</pdfrwt>
<pdfrwt beam="2">  1        2 0.48401172E-02 0.10081439E+03</pdfrwt>
<totfact> 0.23268300E+04</totfact>
</mgrwt>
</event>
<event>
 6    2  0.8544106E+000  0.8406941E+02  0.7546771E-02  0.1317884E+00
          2   -1    0    0  502    0 -0.00000000000E+00  0.00000000000E+00  0.96461645150E+03  0.96461645150E+03  0.00000000000E+00 0. -1.
         21   -1    0    0  501  502  0.00000000000E+00 -0.00000000000E+00 -0.83884735637E+01  0.83884735637E+01  0.00000000000E+00 0. -1.
         24    2    1    2    0    0  0.14659096255E+02 -0.17542246349E+02  0.94270021247E+03  0.94644141723E+03  0.80901459511E+02 0.  0.
        -13    1    3    3    0    0  0.21548712254E+02 -0.43244570974E+02  0.37246755358E+03  0.37558822983E+03  0.00000000000E+00 0.  1.
         14    1    3    3    0    0 -0.68896159991E+01  0.25702324625E+02  0.57023265889E+03  0.57085318740E+03  0.00000000000E+00 0. -1.
          1    1    1    2  501    0 -0.14659096255E+02  0.17542246349E+02  0.13527765473E+02  0.26563507839E+02  0.00000000000E+00 0. -1.
<mgrwt>
<rscale>  1 0.84069410E+02</rscale>
<asrwt>0</asrwt>
<pdfrwt beam="1">  1       21 0.12905352E-02 0.84069410E+02</pdfrwt>
<pdfrwt beam="2">  1        2 0.14840244E+00 0.84069410E+02</pdfrwt>
<totfact> 0.83261341E+05</totfact>
</mgrwt>
</event>
<event>
 6    2  0.8544106E+000  0.9569367E+02  0.7546771E-02  0.1289621E+00
         -3   -1    0    0    0  501 -0.00000000000E+00  0.00000000000E+00  0.18327349668E+03  0.18327349668E+03  0.00000000000E+00 0.  1.
         21   -1    0    0  501  502  0.00000000000E+00 -0.00000000000E+00 -0.31770655236E+02  0.31770655236E+02  0.00000000000E+00 0.  1.
         24    2    1    2    0    0 -0.22544810965E+02 -0.46867083733E+02  0.12266539201E+03  0.15557659329E+03  0.80327367339E+02 0.  0.
        -13    1    3    3    0    0 -0.33657462463E+02 -0.65680462390E+02  0.96535030943E+02  0.12151444407E+03  0.00000000000E+00 0.  1.
         14    1    3    3    0    0  0.11112651498E+02  0.18813378657E+02  0.26130361070E+02  0.34062149220E+02  0.00000000000E+00 0. -1.
         -4    1    1    2    0  502  0.22544810965E+02  0.46867083733E+02  0.28837449431E+02  0.59467558624E+02  0.00000000000E+00 0.  1.
<mgrwt>
<rscale>  1 0.95693667E+02</rscale>
<asrwt>0</asrwt>
<pdfrwt beam="1">  1       21 0.48877933E-02 0.95693667E+02</pdfrwt>
<pdfrwt beam="2">  1       -3 0.28195922E-01 0.95693667E+02</pdfrwt>
<totfact> 0.15229766E+05</totfact>
</mgrwt>
</event>
<event>
 6    2  0.8544106E+000  0.8365707E+02  0.7546771E-02  0.1318982E+00
         21   -1    0    0  501  502  0.00000000000E+00  0.00000000000E+00  0.10859881643E+03  0.10859881643E+03  0.00000000000E+00 0.  1.
         -1   -1    0    0    0  501 -0.00000000000E+00 -0.00000000000E+00 -0.76742887345E+02  0.76742887345E+02  0.00000000000E+00 0.  1.
         24    2    1    2    0    0 -0.21143110178E+02  0.17243285126E+02 -0.51090009950E+02  0.98023946174E+02  0.79083139271E+02 0.  0.
        -11    1    3    3    0    0 -0.31250975164E+02  0.43567797943E+02 -0.42879908706E+02  0.68654665078E+02  0.00000000000E+00 0.  1.
         12    1    3    3    0    0  0.10107864986E+02 -0.26324512817E+02 -0.82101012443E+01  0.29369281096E+02  0.00000000000E+00 0. -1.
         -2    1    1    2    0  502  0.21143110178E+02 -0.17243285126E+02  0.82945939031E+02  0.87317757597E+02  0.00000000000E+00 0.  1.
<mgrwt>
<rscale>  1 0.83657067E+02</rscale>
<asrwt>0</asrwt>
<pdfrwt beam="1">  1       21 0.16707510E-01 0.83657067E+02</pdfrwt>
<pdfrwt beam="2">  1       -1 0.11806598E-01 0.83657067E+02</pdfrwt>
<totfact> 0.12925026E+05</totfact>
</mgrwt>
</event>
<event>
 6    2  0.8544106E+000  0.8739486E+02  0.7546771E-02  0.1309286E+00
          2   -1    0    0  502    0 -0.00000000000E+00  0.00000000000E+00  0.48341932760E+03  0.48341932760E+03  0.00000000000E+00 0. -1.
         21   -1    0    0  501  502  0.00000000000E+00 -0.00000000000E+00 -0.13636511097E+02  0.13636511097E+02  0.00000000000E+00 0. -1.
         24    2    1    2    0    0  0.35488160381E+02  0.97578668018E+00  0.44562616329E+03  0.45411511698E+03  0.79859253542E+02 0.  0.
        -13    1    3    3    0    0 -0.28134047242E+01  0.26865446995E+02  0.30259127448E+03  0.30379458007E+03  0.00000000000E+00 0.  1.
         14    1    3    3    0    0  0.38301565105E+02 -0.25889660315E+02  0.14303488881E+03  0.15032053691E+03  0.00000000000E+00 0. -1.
          1    1    1    2  501    0 -0.35488160381E+02 -0.97578668018E+00  0.24156653210E+02  0.42940721712E+02  0.00000000000E+00 0. -1.
<mgrwt>
<rscale>  1 0.87394863E+02</rscale>
<asrwt>0</asrwt>
<pdfrwt beam="1">  1       21 0.20979252E-02 0.87394863E+02</pdfrwt>
<pdfrwt beam="2">  1        2 0.74372191E-01 0.87394863E+02</pdfrwt>
<totfact> 0.86649682E+05</totfact>
</mgrwt>
</event>
<event>
 6    2  0.8544106E+000  0.8333389E+02  0.7546771E-02  0.1319848E+00
          2   -1    0    0  502    0 -0.00000000000E+00  0.00000000000E+00  0.80277602115E+02  0.80277602115E+02  0.00000000000E+00 0. -1.
         21   -1    0    0  501  502  0.00000000000E+00 -0.00000000000E+00 -0.99968008010E+02  0.99968008010E+02  0.00000000000E+00 0. -1.
         24    2    1    2    0    0  0.15235735390E+02  0.16804533729E+02  0.56545223049E+02  0.10070699619E+03  0.80187385819E+02 0.  0.
        -13    1    3    3    0    0 -0.25735084526E+02 -0.15726429077E+02  0.13882023072E+02  0.33201290813E+02  0.00000000000E+00 0.  1.
         14    1    3    3    0    0  0.40970819916E+02  0.32530962806E+02  0.42663199977E+02  0.67505705373E+02  0.00000000000E+00 0. -1.
          1    1    1    2  501    0 -0.15235735390E+02 -0.16804533729E+02 -0.76235628945E+02  0.79538613939E+02  0.00000000000E+00 0. -1.
<mgrwt>
<rscale>  1 0.83333888E+02</rscale>
<asrwt>0</asrwt>
<pdfrwt beam="1">  1       21 0.15379694E-01 0.83333888E+02</pdfrwt>
<pdfrwt beam="2">  1        2 0.12350400E-01 0.83333888E+02</pdfrwt>
<totfact> 0.21369165E+05</totfact>
</mgrwt>
</event>
<event>
 6    2  0.8544106E+000  0.8602731E+02  0.7546771E-02  0.1312768E+00
         -1   -1    0    0    0  501 -0.00000000000E+00  0.00000000000E+00  0.45583895946E+02  0.45583895946E+02  0.00000000000E+00 0.  1.
         21   -1    0    0  501  502  0.00000000000E+00 -0.00000000000E+00 -0.11253009122E+03  0.11253009122E+03  0.00000000000E+00 0.  1.
         24    2    1    2    0    0  0.69266893565E+01 -0.28201958315E+02 -0.97373471165E+00  0.86032817428E+02  0.80977577372E+02 0.  0.
        -13    1    3    3    0    0 -0.25883851357E+02 -0.39848046119E+02 -0.12889727252E+02  0.49233988353E+02  0.00000000000E+00 0.  1.
         14    1    3    3    0    0  0.32810540713E+02  0.11646087804E+02  0.11915992540E+02  0.36798829075E+02  0.00000000000E+00 0. -1.
         -2    1    1    2    0  502 -0.69266893565E+01  0.28201958315E+02 -0.65972460563E+02  0.72081169739E+02  0.00000000000E+00 0.  1.
<mgrwt>
<rscale>  1 0.86027307E+02</rscale>
<asrwt>0</asrwt>
<pdfrwt beam="1">  1       21 0.17312321E-01 0.86027307E+02</pdfrwt>
<pdfrwt beam="2">  1       -1 0.70129072E-02 0.86027307E+02</pdfrwt>
<totfact> 0.26541584E+05</totfact>
</mgrwt>
</event>
<event>
 6    2  0.8544106E+000  0.8749855E+02  0.7546771E-02  0.1309025E+00
         21   -1    0    0  501  502  0.00000000000E+00  0.00000000000E+00  0.15836916676E+03  0.15836916676E+03  0.00000000000E+00 0. -1.
          4   -1    0    0  502    0 -0.00000000000E+00 -0.00000000000E+00 -0.89512259894E+02  0.89512259894E+02  0.00000000000E+00 0. -1.
         24    2    1    2    0    0 -0.17826461112E+02 -0.12177444970E+02 -0.67072419669E+02  0.11024838304E+03  0.84793417205E+02 0.  0.
        -13    1    3    3    0    0  0.24134099761E+02 -0.25337131829E+01  0.63945151949E+01  0.25095105067E+02  0.00000000000E+00 0.  1.
         14    1    3    3    0    0 -0.41960560872E+02 -0.96437317872E+01 -0.73466934864E+02  0.85153277975E+02  0.00000000000E+00 0. -1.
          3    1    1    2  501    0  0.17826461112E+02  0.12177444970E+02  0.13592932654E+03  0.13763304362E+03  0.00000000000E+00 0. -1.
<mgrwt>
<rscale>  1 0.87498551E+02</rscale>
<asrwt>0</asrwt>
<pdfrwt beam="1">  1       21 0.24364487E-01 0.87498551E+02</pdfrwt>
<pdfrwt beam="2">  1        4 0.13771117E-01 0.87498551E+02</pdfrwt>
<totfact> 0.26978245E+04</totfact>
</mgrwt>
</event>
<event>
 6    2  0.8544106E+000  0.8492436E+02  0.7546771E-02  0.1315630E+00
          2   -1    0    0  502    0 -0.00000000000E+00  0.00000000000E+00  0.21061223382E+04  0.21061223382E+04  0.00000000000E+00 0. -1.
         21   -1    0    0  501  502  0.00000000000E+00 -0.00000000000E+00 -0.19473545525E+01  0.19473545525E+01  0.00000000000E+00 0. -1.
         24    2    1    2    0    0  0.16359215608E+02  0.21510428202E+02  0.19245858268E+04  0.19264586036E+04  0.80509776388E+02 0.  0.
        -13    1    3    3    0    0  0.36020230894E+02  0.34862798598E+02  0.77095619860E+03  0.77258419083E+03  0.00000000000E+00 0.  1.
         14    1    3    3    0    0 -0.19661015286E+02 -0.13352370396E+02  0.11536296282E+04  0.11538744128E+04  0.00000000000E+00 0. -1.
          1    1    1    2  501    0 -0.16359215608E+02 -0.21510428202E+02  0.17958915686E+03  0.18161108920E+03  0.00000000000E+00 0. -1.
<mgrwt>
<rscale>  1 0.84924358E+02</rscale>
<asrwt>0</asrwt>
<pdfrwt beam="1">  1       21 0.29959469E-03 0.84924358E+02</pdfrwt>
<pdfrwt beam="2">  1        2 0.32401700E+00 0.84924358E+02</pdfrwt>
<totfact> 0.20114792E+06</totfact>
</mgrwt>
</event>
<event>
 6    2  0.8544106E+000  0.8550514E+02  0.7546771E-02  0.1314117E+00
         -1   -1    0    0    0  501 -0.00000000000E+00  0.00000000000E+00  0.35361836839E+03  0.35361836839E+03  0.00000000000E+00 0.  1.
         21   -1    0    0  501  502  0.00000000000E+00 -0.00000000000E+00 -0.97665433552E+01  0.97665433552E+01  0.00000000000E+00 0.  1.
         24    2    1    2    0    0  0.19188195353E+02  0.21793991197E+02  0.28815181780E+03  0.30057045720E+03  0.80423657900E+02 0.  0.
        -11    1    3    3    0    0  0.47430266787E+02  0.21583739573E+02  0.23120533064E+03  0.23700504834E+03  0.00000000000E+00 0.  1.
         12    1    3    3    0    0 -0.28242071434E+02  0.21025162397E+00  0.56946487161E+02  0.63565408869E+02  0.00000000000E+00 0. -1.
         -2    1    1    2    0  502 -0.19188195353E+02 -0.21793991197E+02  0.55700007238E+02  0.62814454543E+02  0.00000000000E+00 0.  1.
<mgrwt>
<rscale>  1 0.85505144E+02</rscale>
<asrwt>0</asrwt>
<pdfrwt beam="1">  1       21 0.15025454E-02 0.85505144E+02</pdfrwt>
<pdfrwt beam="2">  1       -1 0.54402816E-01 0.85505144E+02</pdfrwt>
<totfact> 0.58930291E+05</totfact>
</mgrwt>
</event>
<event>
 6    2  0.8544106E+000  0.8340959E+02  0.7546771E-02  0.1319645E+00
         -3   -1    0    0    0  501 -0.00000000000E+00  0.00000000000E+00  0.58118396198E+01  0.58118396198E+01  0.00000000000E+00 0.  1.
         21   -1    0    0  501  502  0.00000000000E+00 -0.00000000000E+00 -0.62057343346E+03  0.62057343346E+03  0.00000000000E+00 0. -1.
         24    2    1    2    0    0  0.24343213247E+02 -0.39400868711E+01 -0.32344079375E+03  0.33402261321E+03  0.79680880795E+02 0.  0.
        -11    1    3    3    0    0  0.95603897356E+01 -0.41501584160E+02 -0.14858700503E+03  0.15456998610E+03  0.00000000000E+00 0.  1.
         12    1    3    3    0    0  0.14782823511E+02  0.37561497289E+02 -0.17485378871E+03  0.17945262711E+03  0.00000000000E+00 0. -1.
         -4    1    1    2    0  502 -0.24343213247E+02  0.39400868711E+01 -0.29132080009E+03  0.29236265986E+03  0.00000000000E+00 0.  1.
<mgrwt>
<rscale>  1 0.83409586E+02</rscale>
<asrwt>0</asrwt>
<pdfrwt beam="1">  1       21 0.95472818E-01 0.83409586E+02</pdfrwt>
<pdfrwt beam="2">  1       -3 0.89412934E-03 0.83409586E+02</pdfrwt>
<totfact> 0.13413348E+05</totfact>
</mgrwt>
</event>
<event>
 6    2  0.8544106E+000  0.1169710E+03  0.7546771E-02  0.1248179E+00
          2   -1    0    0  502    0 -0.00000000000E+00  0.00000000000E+00  0.45067014181E+03  0.45067014181E+03  0.00000000000E+00 0. -1.
         21   -1    0    0  501  502  0.00000000000E+00 -0.00000000000E+00 -0.24449306797E+02  0.24449306797E+02  0.00000000000E+00 0. -1.
         24    2    1    2    0    0  0.69656001508E+02 -0.49420073205E+02  0.30646065256E+03  0.32802490934E+03  0.79924385495E+02 0.  0.
        -11    1    3    3    0    0  0.16134057101E+02 -0.32635944733E+01  0.33687985794E+01  0.16802013311E+02  0.00000000000E+00 0.  1.
         12    1    3    3    0    0  0.53521944407E+02 -0.46156478732E+02  0.30309185398E+03  0.31122289602E+03  0.00000000000E+00 0. -1.
          1    1    1    2  501    0 -0.69656001508E+02  0.49420073205E+02  0.11976018245E+03  0.14709453927E+03  0.00000000000E+00 0. -1.
<mgrwt>
<rscale>  1 0.11697098E+03</rscale>
<asrwt>0</asrwt>
<pdfrwt beam="1">  1       21 0.37614322E-02 0.11697098E+03</pdfrwt>
<pdfrwt beam="2">  1        2 0.69333862E-01 0.11697098E+03</pdfrwt>
<totfact> 0.36983869E+05</totfact>
</mgrwt>
</event>
<event>
 6    2  0.8544106E+000  0.8384995E+02  0.7546771E-02  0.1318468E+00
         21   -1    0    0  501  502  0.00000000000E+00  0.00000000000E+00  0.44421501503E+01  0.44421501503E+01  0.00000000000E+00 0.  1.
         -1   -1    0    0    0  501 -0.00000000000E+00 -0.00000000000E+00 -0.81414260531E+03  0.81414260531E+03  0.00000000000E+00 0.  1.
         24    2    1    2    0    0  0.55087370355E+01  0.26278177293E+02 -0.72236755904E+03  0.72721778369E+03  0.79435041247E+02 0.  0.
        -13    1    3    3    0    0 -0.36905414229E+02  0.10310256233E+02 -0.30540740190E+03  0.30780187153E+03  0.00000000000E+00 0.  1.
         14    1    3    3    0    0  0.42414151265E+02  0.15967921061E+02 -0.41696015714E+03  0.41941591216E+03  0.00000000000E+00 0. -1.
         -2    1    1    2    0  502 -0.55087370355E+01 -0.26278177293E+02 -0.87332896118E+02  0.91366971767E+02  0.00000000000E+00 0.  1.
<mgrwt>
<rscale>  1 0.83849953E+02</rscale>
<asrwt>0</asrwt>
<pdfrwt beam="1">  1       21 0.68340842E-03 0.83849953E+02</pdfrwt>
<pdfrwt beam="2">  1       -1 0.12525258E+00 0.83849953E+02</pdfrwt>
<totfact> 0.36091185E+05</totfact>
</mgrwt>
</event>
<event>
 6    2  0.8544106E+000  0.8945673E+02  0.7546771E-02  0.1304173E+00
         21   -1    0    0  501  502  0.00000000000E+00  0.00000000000E+00  0.10597596490E+03  0.10597596490E+03  0.00000000000E+00 0. -1.
         -1   -1    0    0    0  501 -0.00000000000E+00 -0.00000000000E+00 -0.42235548100E+02  0.42235548100E+02  0.00000000000E+00 0.  1.
         24    2    1    2    0    0 -0.40604021594E+02 -0.61694511077E+01  0.58312962724E+02  0.10678439683E+03  0.79471737666E+02 0.  0.
        -11    1    3    3    0    0 -0.14472653410E+02  0.24443373690E+02 -0.77332057638E+01  0.29440426040E+02  0.00000000000E+00 0.  1.
         12    1    3    3    0    0 -0.26131368185E+02 -0.30612824797E+02  0.66046168488E+02  0.77343970788E+02  0.00000000000E+00 0. -1.
         -2    1    1    2    0  502  0.40604021594E+02  0.61694511077E+01  0.54274540753E+01  0.41427116172E+02  0.00000000000E+00 0.  1.
<mgrwt>
<rscale>  1 0.89456726E+02</rscale>
<asrwt>0</asrwt>
<pdfrwt beam="1">  1       21 0.16303995E-01 0.89456726E+02</pdfrwt>
<pdfrwt beam="2">  1       -1 0.64977767E-02 0.89456726E+02</pdfrwt>
<totfact> 0.33228080E+05</totfact>
</mgrwt>
</event>
<event>
 6    2  0.8544106E+000  0.8368012E+02  0.7546771E-02  0.1318921E+00
          2   -1    0    0  502    0 -0.00000000000E+00  0.00000000000E+00  0.73459025954E+03  0.73459025954E+03  0.00000000000E+00 0. -1.
         21   -1    0    0  501  502  0.00000000000E+00 -0.00000000000E+00 -0.38000017858E+01  0.38000017858E+01  0.00000000000E+00 0. -1.
         24    2    1    2    0    0 -0.11460533124E+02  0.18416175097E+02  0.60155371376E+03  0.60734605647E+03  0.80819938364E+02 0.  0.
        -13    1    3    3    0    0  0.31854130583E+01  0.23808090767E+02  0.48988413474E+02  0.54560394949E+02  0.00000000000E+00 0.  1.
         14    1    3    3    0    0 -0.14645946182E+02 -0.53919156698E+01  0.55256530029E+03  0.55278566152E+03  0.00000000000E+00 0. -1.
          1    1    1    2  501    0  0.11460533124E+02 -0.18416175097E+02  0.12923654399E+03  0.13104420486E+03  0.00000000000E+00 0. -1.
<mgrwt>
<rscale>  1 0.83680116E+02</rscale>
<asrwt>0</asrwt>
<pdfrwt beam="1">  1       21 0.58461624E-03 0.83680116E+02</pdfrwt>
<pdfrwt beam="2">  1        2 0.11301377E+00 0.83680116E+02</pdfrwt>
<totfact> 0.39978423E+06</totfact>
</mgrwt>
</event>
<event>
 6    2  0.8544106E+000  0.8761599E+02  0.7546771E-02  0.1308730E+00
          2   -1    0    0  502    0 -0.00000000000E+00  0.00000000000E+00  0.26117285792E+04  0.26117285792E+04  0.00000000000E+00 0. -1.
         21   -1    0    0  501  502  0.00000000000E+00 -0.00000000000E+00 -0.19261328598E+01  0.19261328598E+01  0.00000000000E+00 0.  1.
         24    2    1    2    0    0 -0.16146546285E+02 -0.18600304578E+02  0.24793327542E+04  0.24808803815E+04  0.84082572497E+02 0.  0.
        -13    1    3    3    0    0 -0.34771586931E+02  0.23214835344E+02  0.11503514160E+04  0.11511109296E+04  0.00000000000E+00 0.  1.
         14    1    3    3    0    0  0.18625040646E+02 -0.41815139922E+02  0.13289813382E+04  0.13297694520E+04  0.00000000000E+00 0. -1.
          1    1    1    2  501    0  0.16146546285E+02  0.18600304578E+02  0.13046969216E+03  0.13277433058E+03  0.00000000000E+00 0. -1.
<mgrwt>
<rscale>  1 0.87615988E+02</rscale>
<asrwt>0</asrwt>
<pdfrwt beam="1">  1       21 0.29633022E-03 0.87615988E+02</pdfrwt>
<pdfrwt beam="2">  1        2 0.40180156E+00 0.87615988E+02</pdfrwt>
<totfact> 0.11232186E+06</totfact>
</mgrwt>
</event>
<event>
 6    2  0.9217929E+000  0.9262716E+02  0.7546771E-02  0.1296612E+00
         -1   -1    0    0    0  501 -0.00000000000E+00  0.00000000000E+00  0.27838442615E+03  0.27838442615E+03  0.00000000000E+00 0.  1.
         21   -1    0    0  501  502  0.00000000000E+00 -0.00000000000E+00 -0.13892786950E+02  0.13892786950E+02  0.00000000000E+00 0. -1.
         24    2    1    2    0    0 -0.90023696662E+01 -0.29634565906E+02  0.18319700909E+03  0.20528257510E+03  0.87295712060E+02 0.  0.
        -13    1    3    3    0    0  0.16566334137E+02  0.13773606551E+02  0.13092258201E+03  0.13268337554E+03  0.00000000000E+00 0.  1.
         14    1    3    3    0    0 -0.25568703803E+02 -0.43408172458E+02  0.52274427077E+02  0.72599199558E+02  0.00000000000E+00 0. -1.
         -2    1    1    2    0  502  0.90023696662E+01  0.29634565906E+02  0.81294630114E+02  0.86994638004E+02  0.00000000000E+00 0.  1.
<mgrwt>
<rscale>  1 0.92627164E+02</rscale>
<asrwt>0</asrwt>
<pdfrwt beam="1">  1       21 0.21373520E-02 0.92627164E+02</pdfrwt>
<pdfrwt beam="2">  1       -1 0.42828369E-01 0.92627164E+02</pdfrwt>
<totfact> 0.52081975E+05</totfact>
</mgrwt>
</event>
<event>
 6    2  0.8544106E+000  0.8425304E+02  0.7546771E-02  0.1317398E+00
         21   -1    0    0  501  502  0.00000000000E+00  0.00000000000E+00  0.22244945024E+01  0.22244945024E+01  0.00000000000E+00 0.  1.
          2   -1    0    0  502    0 -0.00000000000E+00 -0.00000000000E+00 -0.13716987877E+04  0.13716987877E+04  0.00000000000E+00 0. -1.
         24    2    1    2    0    0  0.23083860761E+02  0.64997326268E+01 -0.11661431394E+04  0.11691827897E+04  0.80767958291E+02 0.  0.
        -13    1    3    3    0    0 -0.27248421495E+02  0.17910059583E+02 -0.43494694357E+03  0.43616750272E+03  0.00000000000E+00 0.  1.
         14    1    3    3    0    0  0.50332282256E+02 -0.11410326957E+02 -0.73119619582E+03  0.73301528700E+03  0.00000000000E+00 0. -1.
          1    1    1    2  501    0 -0.23083860761E+02 -0.64997326268E+01 -0.20333115379E+03  0.20474049246E+03  0.00000000000E+00 0. -1.
<mgrwt>
<rscale>  1 0.84253037E+02</rscale>
<asrwt>0</asrwt>
<pdfrwt beam="1">  1       21 0.34223065E-03 0.84253037E+02</pdfrwt>
<pdfrwt beam="2">  1        2 0.21103014E+00 0.84253037E+02</pdfrwt>
<totfact> 0.38538071E+06</totfact>
</mgrwt>
</event>
<event>
 6    2  0.8544106E+000  0.8562258E+02  0.7546771E-02  0.1313812E+00
          2   -1    0    0  502    0 -0.00000000000E+00  0.00000000000E+00  0.37064867659E+03  0.37064867659E+03  0.00000000000E+00 0. -1.
         21   -1    0    0  501  502  0.00000000000E+00 -0.00000000000E+00 -0.79542350692E+01  0.79542350692E+01  0.00000000000E+00 0. -1.
         24    2    1    2    0    0  0.16479788767E+02  0.12331494324E+02  0.31919767029E+03  0.33048203991E+03  0.83111833073E+02 0.  0.
        -13    1    3    3    0    0 -0.17189072276E+02 -0.26128632065E+02  0.80269189346E+02  0.86147039285E+02  0.00000000000E+00 0.  1.
         14    1    3    3    0    0  0.33668861043E+02  0.38460126389E+02  0.23892848094E+03  0.24433500063E+03  0.00000000000E+00 0. -1.
          1    1    1    2  501    0 -0.16479788767E+02 -0.12331494324E+02  0.43496771230E+02  0.48120871745E+02  0.00000000000E+00 0. -1.
<mgrwt>
<rscale>  1 0.85622579E+02</rscale>
<asrwt>0</asrwt>
<pdfrwt beam="1">  1       21 0.12237288E-02 0.85622579E+02</pdfrwt>
<pdfrwt beam="2">  1        2 0.57022860E-01 0.85622579E+02</pdfrwt>
<totfact> 0.26910205E+06</totfact>
</mgrwt>
</event>
<event>
 6    2  0.8544106E+000  0.1475349E+03  0.7546771E-02  0.1203535E+00
          2   -1    0    0  502    0 -0.00000000000E+00  0.00000000000E+00  0.84119427902E+03  0.84119427902E+03  0.00000000000E+00 0. -1.
         21   -1    0    0  501  502  0.00000000000E+00 -0.00000000000E+00 -0.24394216744E+02  0.24394216744E+02  0.00000000000E+00 0.  1.
         24    2    1    2    0    0  0.74393485643E+02  0.98075573923E+02  0.29980066116E+03  0.33413615580E+03  0.81322354064E+02 0.  0.
        -11    1    3    3    0    0  0.40712249429E+02  0.91493431547E+02  0.14931818505E+03  0.17979003214E+03  0.00000000000E+00 0.  1.
         12    1    3    3    0    0  0.33681236214E+02  0.65821423753E+01  0.15048247611E+03  0.15434612366E+03  0.00000000000E+00 0. -1.
          1    1    1    2  501    0 -0.74393485643E+02 -0.98075573923E+02  0.51699940111E+03  0.53145233996E+03  0.00000000000E+00 0. -1.
<mgrwt>
<rscale>  1 0.14753486E+03</rscale>
<asrwt>0</asrwt>
<pdfrwt beam="1">  1       21 0.37529571E-02 0.14753486E+03</pdfrwt>
<pdfrwt beam="2">  1        2 0.12941448E+00 0.14753486E+03</pdfrwt>
<totfact> 0.18256556E+05</totfact>
</mgrwt>
</event>
<event>
 6    2  0.8544106E+000  0.8412533E+02  0.7546771E-02  0.1317736E+00
          2   -1    0    0  502    0 -0.00000000000E+00  0.00000000000E+00  0.92695325763E+03  0.92695325763E+03  0.00000000000E+00 0. -1.
         21   -1    0    0  501  502  0.00000000000E+00 -0.00000000000E+00 -0.10159882519E+02  0.10159882519E+02  0.00000000000E+00 0.  1.
         24    2    1    2    0    0 -0.13232250886E+02 -0.24281243035E+02  0.16872973996E+03  0.18853857910E+03  0.79450610019E+02 0.  0.
        -13    1    3    3    0    0  0.24105949624E+02 -0.37442691003E+02  0.88414534384E+02  0.98995867627E+02  0.00000000000E+00 0.  1.
         14    1    3    3    0    0 -0.37338200510E+02  0.13161447968E+02  0.80315205580E+02  0.89542711470E+02  0.00000000000E+00 0. -1.
          1    1    1    2  501    0  0.13232250886E+02  0.24281243035E+02  0.74806363515E+03  0.74857456106E+03  0.00000000000E+00 0. -1.
<mgrwt>
<rscale>  1 0.84125327E+02</rscale>
<asrwt>0</asrwt>
<pdfrwt beam="1">  1       21 0.15630596E-02 0.84125327E+02</pdfrwt>
<pdfrwt beam="2">  1        2 0.14260813E+00 0.84125327E+02</pdfrwt>
<totfact> 0.64834065E+05</totfact>
</mgrwt>
</event>
<event>
 6    2  0.8544106E+000  0.8092722E+02  0.7546771E-02  0.1326441E+00
         21   -1    0    0  501  502  0.00000000000E+00  0.00000000000E+00  0.21054448534E+01  0.21054448534E+01  0.00000000000E+00 0.  1.
          2   -1    0    0  502    0 -0.00000000000E+00 -0.00000000000E+00 -0.12839325211E+04  0.12839325211E+04  0.00000000000E+00 0. -1.
         24    2    1    2    0    0 -0.67958331195E+00  0.22367833814E+02 -0.10601010266E+04  0.10631854970E+04  0.77771669829E+02 0.  0.
        -13    1    3    3    0    0  0.16028701290E+02 -0.21986816256E+02 -0.20870366776E+03  0.21046985602E+03  0.00000000000E+00 0.  1.
         14    1    3    3    0    0 -0.16708284602E+02  0.44354650069E+02 -0.85139735881E+03  0.85271564097E+03  0.00000000000E+00 0. -1.
          1    1    1    2  501    0  0.67958331195E+00 -0.22367833814E+02 -0.22172604968E+03  0.22285246898E+03  0.00000000000E+00 0. -1.
<mgrwt>
<rscale>  1 0.80927217E+02</rscale>
<asrwt>0</asrwt>
<pdfrwt beam="1">  1       21 0.32391427E-03 0.80927217E+02</pdfrwt>
<pdfrwt beam="2">  1        2 0.19752828E+00 0.80927217E+02</pdfrwt>
<totfact> 0.46357799E+06</totfact>
</mgrwt>
</event>
<event>
 6    2  0.8544106E+000  0.9544097E+02  0.7546771E-02  0.1290186E+00
          2   -1    0    0  502    0 -0.00000000000E+00  0.00000000000E+00  0.24878786826E+03  0.24878786826E+03  0.00000000000E+00 0. -1.
         21   -1    0    0  501  502  0.00000000000E+00 -0.00000000000E+00 -0.26047334539E+02  0.26047334539E+02  0.00000000000E+00 0. -1.
         24    2    1    2    0    0  0.43211369032E+02 -0.16504168745E+02  0.20343843471E+03  0.22471354056E+03  0.83482744276E+02 0.  0.
        -11    1    3    3    0    0 -0.15660578683E+02  0.14664359314E+02  0.19159453864E+02  0.28764245708E+02  0.00000000000E+00 0.  1.
         12    1    3    3    0    0  0.58871947715E+02 -0.31168528059E+02  0.18427898085E+03  0.19594929485E+03  0.00000000000E+00 0. -1.
          1    1    1    2  501    0 -0.43211369032E+02  0.16504168745E+02  0.19302099005E+02  0.50121662239E+02  0.00000000000E+00 0. -1.
<mgrwt>
<rscale>  1 0.95440969E+02</rscale>
<asrwt>0</asrwt>
<pdfrwt beam="1">  1       21 0.40072824E-02 0.95440969E+02</pdfrwt>
<pdfrwt beam="2">  1        2 0.38275055E-01 0.95440969E+02</pdfrwt>
<totfact> 0.61408596E+05</totfact>
</mgrwt>
</event>
<event>
 6    2  0.8544106E+000  0.8263606E+02  0.7546771E-02  0.1321733E+00
         -1   -1    0    0    0  501 -0.00000000000E+00  0.00000000000E+00  0.20142100336E+03  0.20142100336E+03  0.00000000000E+00 0.  1.
         21   -1    0    0  501  502  0.00000000000E+00 -0.00000000000E+00 -0.15510710983E+02  0.15510710983E+02  0.00000000000E+00 0.  1.
         24    2    1    2    0    0 -0.76600893760E+01 -0.20068138850E+02  0.17337441153E+03  0.19206093883E+03  0.79795428964E+02 0.  0.
        -11    1    3    3    0    0 -0.67633768744E+01  0.28377724180E+02  0.99704125875E+02  0.10388431649E+03  0.00000000000E+00 0.  1.
         12    1    3    3    0    0 -0.89671250161E+00 -0.48445863030E+02  0.73670285659E+02  0.88176622339E+02  0.00000000000E+00 0. -1.
         -2    1    1    2    0  502  0.76600893760E+01  0.20068138850E+02  0.12535880845E+02  0.24870775514E+02  0.00000000000E+00 0.  1.
<mgrwt>
<rscale>  1 0.82636055E+02</rscale>
<asrwt>0</asrwt>
<pdfrwt beam="1">  1       21 0.23862634E-02 0.82636055E+02</pdfrwt>
<pdfrwt beam="2">  1       -1 0.30987845E-01 0.82636055E+02</pdfrwt>
<totfact> 0.74853365E+05</totfact>
</mgrwt>
</event>
<event>
 6    2  0.8544106E+000  0.1148298E+03  0.7546771E-02  0.1251878E+00
         21   -1    0    0  501  502  0.00000000000E+00  0.00000000000E+00  0.33788806185E+02  0.33788806185E+02  0.00000000000E+00 0.  1.
         -1   -1    0    0    0  501 -0.00000000000E+00 -0.00000000000E+00 -0.47213146268E+03  0.47213146268E+03  0.00000000000E+00 0.  1.
         24    2    1    2    0    0 -0.51649050867E+01  0.81815145828E+02 -0.39861144843E+03  0.41482162329E+03  0.80408320453E+02 0.  0.
        -13    1    3    3    0    0 -0.28139083055E+02  0.79092885035E+02 -0.36126017509E+03  0.37088597515E+03  0.00000000000E+00 0.  1.
         14    1    3    3    0    0  0.22974177969E+02  0.27222607926E+01 -0.37351273337E+02  0.43935648135E+02  0.00000000000E+00 0. -1.
         -2    1    1    2    0  502  0.51649050867E+01 -0.81815145828E+02 -0.39731208065E+02  0.91098645575E+02  0.00000000000E+00 0.  1.
<mgrwt>
<rscale>  1 0.11482984E+03</rscale>
<asrwt>0</asrwt>
<pdfrwt beam="1">  1       21 0.51982778E-02 0.11482984E+03</pdfrwt>
<pdfrwt beam="2">  1       -1 0.72635611E-01 0.11482984E+03</pdfrwt>
<totfact> 0.46097727E+04</totfact>
</mgrwt>
</event>
<event>
 6    2  0.8544106E+000  0.8490673E+02  0.7546771E-02  0.1315677E+00
          2   -1    0    0  502    0 -0.00000000000E+00  0.00000000000E+00  0.60140271322E+03  0.60140271322E+03  0.00000000000E+00 0. -1.
         21   -1    0    0  501  502  0.00000000000E+00 -0.00000000000E+00 -0.86139465600E+01  0.86139465600E+01  0.00000000000E+00 0.  1.
         24    2    1    2    0    0 -0.12319065330E+00 -0.24351887413E+02  0.57118993084E+03  0.57746609442E+03  0.81339556872E+02 0.  0.
        -13    1    3    3    0    0 -0.29914596171E+02 -0.29756201677E+02  0.17085790513E+03  0.17599073370E+03  0.00000000000E+00 0.  1.
         14    1    3    3    0    0  0.29791405518E+02  0.54043142637E+01  0.40033202571E+03  0.40147536072E+03  0.00000000000E+00 0. -1.
          1    1    1    2  501    0  0.12319065330E+00  0.24351887413E+02  0.21598835814E+02  0.32550565357E+02  0.00000000000E+00 0. -1.
<mgrwt>
<rscale>  1 0.84906732E+02</rscale>
<asrwt>0</asrwt>
<pdfrwt beam="1">  1       21 0.13252230E-02 0.84906732E+02</pdfrwt>
<pdfrwt beam="2">  1        2 0.92523461E-01 0.84906732E+02</pdfrwt>
<totfact> 0.14112041E+06</totfact>
</mgrwt>
</event>
<event>
 6    2  0.8544106E+000  0.9439257E+02  0.7546771E-02  0.1292550E+00
         21   -1    0    0  501  502  0.00000000000E+00  0.00000000000E+00  0.10118734009E+03  0.10118734009E+03  0.00000000000E+00 0.  1.
         -1   -1    0    0    0  501 -0.00000000000E+00 -0.00000000000E+00 -0.16296585732E+03  0.16296585732E+03  0.00000000000E+00 0.  1.
         24    2    1    2    0    0  0.44229015499E+02  0.25473292971E+02 -0.14114020809E+03  0.16979551387E+03  0.79403172006E+02 0.  0.
        -13    1    3    3    0    0  0.29172081796E+02  0.54342211063E+02 -0.87666302587E+02  0.10718893072E+03  0.00000000000E+00 0.  1.
         14    1    3    3    0    0  0.15056933703E+02 -0.28868918091E+02 -0.53473905502E+02  0.62606583151E+02  0.00000000000E+00 0. -1.
         -2    1    1    2    0  502 -0.44229015499E+02 -0.25473292971E+02  0.79361690861E+02  0.94357683541E+02  0.00000000000E+00 0.  1.
<mgrwt>
<rscale>  1 0.94392575E+02</rscale>
<asrwt>0</asrwt>
<pdfrwt beam="1">  1       21 0.15567283E-01 0.94392575E+02</pdfrwt>
<pdfrwt beam="2">  1       -1 0.25071670E-01 0.94392575E+02</pdfrwt>
<totfact> 0.45328063E+04</totfact>
</mgrwt>
</event>
<event>
 6    2  0.8544106E+000  0.8428394E+02  0.7546771E-02  0.1317316E+00
         21   -1    0    0  501  502  0.00000000000E+00  0.00000000000E+00  0.36502838669E+01  0.36502838669E+01  0.00000000000E+00 0.  1.
          2   -1    0    0  502    0 -0.00000000000E+00 -0.00000000000E+00 -0.83971698729E+03  0.83971698729E+03  0.00000000000E+00 0. -1.
         24    2    1    2    0    0  0.24774587780E+02  0.87852381197E+01 -0.65589327951E+03  0.66128645587E+03  0.80080097473E+02 0.  0.
        -13    1    3    3    0    0  0.53314156617E+02  0.14067013421E+02 -0.44625139893E+03  0.44964496129E+03  0.00000000000E+00 0.  1.
         14    1    3    3    0    0 -0.28539568838E+02 -0.52817753018E+01 -0.20964188057E+03  0.21164149458E+03  0.00000000000E+00 0. -1.
          1    1    1    2  501    0 -0.24774587780E+02 -0.87852381197E+01 -0.18017342392E+03  0.18208081528E+03  0.00000000000E+00 0. -1.
<mgrwt>
<rscale>  1 0.84283940E+02</rscale>
<asrwt>0</asrwt>
<pdfrwt beam="1">  1       21 0.56158187E-03 0.84283940E+02</pdfrwt>
<pdfrwt beam="2">  1        2 0.12918729E+00 0.84283940E+02</pdfrwt>
<totfact> 0.36204766E+06</totfact>
</mgrwt>
</event>
<event>
 6    2  0.8544106E+000  0.9841658E+02  0.7546771E-02  0.1283661E+00
         21   -1    0    0  501  502  0.00000000000E+00  0.00000000000E+00  0.28366161377E+03  0.28366161377E+03  0.00000000000E+00 0.  1.
         -1   -1    0    0    0  501 -0.00000000000E+00 -0.00000000000E+00 -0.32054016039E+02  0.32054016039E+02  0.00000000000E+00 0.  1.
         24    2    1    2    0    0  0.20088959642E+02  0.58204584364E+02  0.61897363161E+02  0.11626309651E+03  0.76775543648E+02 0.  0.
        -13    1    3    3    0    0  0.37843745985E+02  0.63224517215E+02  0.64122010631E+02  0.97678661614E+02  0.00000000000E+00 0.  1.
         14    1    3    3    0    0 -0.17754786343E+02 -0.50199328511E+01 -0.22246474704E+01  0.18584434893E+02  0.00000000000E+00 0. -1.
         -2    1    1    2    0  502 -0.20088959642E+02 -0.58204584364E+02  0.18971023457E+03  0.19945253330E+03  0.00000000000E+00 0.  1.
<mgrwt>
<rscale>  1 0.98416584E+02</rscale>
<asrwt>0</asrwt>
<pdfrwt beam="1">  1       21 0.43640247E-01 0.98416584E+02</pdfrwt>
<pdfrwt beam="2">  1       -1 0.49313873E-02 0.98416584E+02</pdfrwt>
<totfact> 0.77976646E+04</totfact>
</mgrwt>
</event>
<event>
 6    2  0.8544106E+000  0.9420290E+02  0.7546771E-02  0.1292982E+00
          2   -1    0    0  502    0 -0.00000000000E+00  0.00000000000E+00  0.11878216831E+04  0.11878216831E+04  0.00000000000E+00 0. -1.
         21   -1    0    0  501  502  0.00000000000E+00 -0.00000000000E+00 -0.51440141339E+01  0.51440141339E+01  0.00000000000E+00 0. -1.
         24    2    1    2    0    0 -0.63406249493E+01 -0.54117844397E+02  0.91240847080E+03  0.91725863515E+03  0.76845569532E+02 0.  0.
        -11    1    3    3    0    0  0.12664290733E+02  0.58970453347E+01  0.36362136348E+02  0.38953361385E+02  0.00000000000E+00 0.  1.
         12    1    3    3    0    0 -0.19004915682E+02 -0.60014889732E+02  0.87604633445E+03  0.87830527376E+03  0.00000000000E+00 0. -1.
          1    1    1    2  501    0  0.63406249493E+01  0.54117844397E+02  0.27026919812E+03  0.27570706205E+03  0.00000000000E+00 0. -1.
<mgrwt>
<rscale>  1 0.94202899E+02</rscale>
<asrwt>0</asrwt>
<pdfrwt beam="1">  1       21 0.79138773E-03 0.94202899E+02</pdfrwt>
<pdfrwt beam="2">  1        2 0.18274158E+00 0.94202899E+02</pdfrwt>
<totfact> 0.13475378E+06</totfact>
</mgrwt>
</event>
<event>
 6    2  0.8586314E+000  0.9024738E+02  0.7546771E-02  0.1302254E+00
         21   -1    0    0  501  502  0.00000000000E+00  0.00000000000E+00  0.96704829309E+01  0.96704829309E+01  0.00000000000E+00 0.  1.
         -3   -1    0    0    0  501 -0.00000000000E+00 -0.00000000000E+00 -0.51525319160E+03  0.51525319160E+03  0.00000000000E+00 0.  1.
         24    2    1    2    0    0 -0.22838523733E+02 -0.33867033421E+02 -0.42617350257E+03  0.43562420010E+03  0.80473693263E+02 0.  0.
        -11    1    3    3    0    0 -0.29415374166E+02 -0.39823832146E+02 -0.42346096983E+03  0.42634539380E+03  0.00000000000E+00 0.  1.
         12    1    3    3    0    0  0.65768504324E+01  0.59567987249E+01 -0.27125327408E+01  0.92788063095E+01  0.00000000000E+00 0. -1.
         -4    1    1    2    0  502  0.22838523733E+02  0.33867033421E+02 -0.79409206100E+02  0.89299474425E+02  0.00000000000E+00 0.  1.
<mgrwt>
<rscale>  1 0.90247379E+02</rscale>
<asrwt>0</asrwt>
<pdfrwt beam="1">  1       21 0.14877665E-02 0.90247379E+02</pdfrwt>
<pdfrwt beam="2">  1       -3 0.79269729E-01 0.90247379E+02</pdfrwt>
<totfact> 0.13576252E+05</totfact>
</mgrwt>
</event>
<event>
 6    2  0.8544106E+000  0.8570809E+02  0.7546771E-02  0.1313591E+00
         -3   -1    0    0    0  501 -0.00000000000E+00  0.00000000000E+00  0.27363328675E+02  0.27363328675E+02  0.00000000000E+00 0.  1.
         21   -1    0    0  501  502  0.00000000000E+00 -0.00000000000E+00 -0.18037461588E+03  0.18037461588E+03  0.00000000000E+00 0. -1.
         24    2    1    2    0    0 -0.15551512977E+02 -0.25129596624E+02 -0.47133743792E+02  0.97813423261E+02  0.80452034056E+02 0.  0.
        -13    1    3    3    0    0  0.22717908690E+02  0.12408133364E+02  0.80556143525E+00  0.25898148159E+02  0.00000000000E+00 0.  1.
         14    1    3    3    0    0 -0.38269421667E+02 -0.37537729988E+02 -0.47939305227E+02  0.71915275102E+02  0.00000000000E+00 0. -1.
         -4    1    1    2    0  502  0.15551512977E+02  0.25129596624E+02 -0.10587754341E+03  0.10992452129E+03  0.00000000000E+00 0.  1.
<mgrwt>
<rscale>  1 0.85708086E+02</rscale>
<asrwt>0</asrwt>
<pdfrwt beam="1">  1       21 0.27749941E-01 0.85708086E+02</pdfrwt>
<pdfrwt beam="2">  1       -3 0.42097428E-02 0.85708086E+02</pdfrwt>
<totfact> 0.16590833E+05</totfact>
</mgrwt>
</event>
<event>
 6    2  0.8544106E+000  0.8151086E+02  0.7546771E-02  0.1324818E+00
         21   -1    0    0  501  502  0.00000000000E+00  0.00000000000E+00  0.27698427823E+01  0.27698427823E+01  0.00000000000E+00 0.  1.
          2   -1    0    0  502    0 -0.00000000000E+00 -0.00000000000E+00 -0.15023286721E+04  0.15023286721E+04  0.00000000000E+00 0. -1.
         24    2    1    2    0    0  0.18246554583E+02  0.40891397607E+02 -0.11062681946E+04  0.11092670273E+04  0.68110032053E+02 0.  0.
        -11    1    3    3    0    0  0.30559186560E+01  0.48333134462E+02 -0.41881962377E+03  0.42161037437E+03  0.00000000000E+00 0.  1.
         12    1    3    3    0    0  0.15190635927E+02 -0.74417368551E+01 -0.68744857079E+03  0.68765665296E+03  0.00000000000E+00 0. -1.
          1    1    1    2  501    0 -0.18246554583E+02 -0.40891397607E+02 -0.39329063472E+03  0.39583148752E+03  0.00000000000E+00 0. -1.
<mgrwt>
<rscale>  1 0.81510856E+02</rscale>
<asrwt>0</asrwt>
<pdfrwt beam="1">  1       21 0.42613026E-03 0.81510856E+02</pdfrwt>
<pdfrwt beam="2">  1        2 0.23112716E+00 0.81510856E+02</pdfrwt>
<totfact> 0.23598076E+06</totfact>
</mgrwt>
</event>
<event>
 6    2  0.8544106E+000  0.8573940E+02  0.7546771E-02  0.1313510E+00
         21   -1    0    0  501  502  0.00000000000E+00  0.00000000000E+00  0.55639802326E+02  0.55639802326E+02  0.00000000000E+00 0. -1.
          2   -1    0    0  502    0 -0.00000000000E+00 -0.00000000000E+00 -0.53314634673E+03  0.53314634673E+03  0.00000000000E+00 0. -1.
         24    2    1    2    0    0 -0.26718259679E+02  0.95093094755E+01 -0.52581977223E+03  0.53276418595E+03  0.80913241215E+02 0.  0.
        -13    1    3    3    0    0  0.11078857263E+02 -0.27501074133E+02 -0.12496957353E+03  0.12843848514E+03  0.00000000000E+00 0.  1.
         14    1    3    3    0    0 -0.37797116942E+02  0.37010383609E+02 -0.40085019869E+03  0.40432570081E+03  0.00000000000E+00 0. -1.
          1    1    1    2  501    0  0.26718259679E+02 -0.95093094755E+01  0.48313227823E+02  0.56021963101E+02  0.00000000000E+00 0. -1.
<mgrwt>
<rscale>  1 0.85739402E+02</rscale>
<asrwt>0</asrwt>
<pdfrwt beam="1">  1       21 0.85599699E-02 0.85739402E+02</pdfrwt>
<pdfrwt beam="2">  1        2 0.82022512E-01 0.85739402E+02</pdfrwt>
<totfact> 0.76318998E+04</totfact>
</mgrwt>
</event>
<event>
 6    2  0.8544106E+000  0.8523755E+02  0.7546771E-02  0.1314812E+00
          2   -1    0    0  502    0 -0.00000000000E+00  0.00000000000E+00  0.41798950954E+03  0.41798950954E+03  0.00000000000E+00 0. -1.
         21   -1    0    0  501  502  0.00000000000E+00 -0.00000000000E+00 -0.15339547087E+02  0.15339547087E+02  0.00000000000E+00 0. -1.
         24    2    1    2    0    0 -0.26018936099E+02  0.39402275921E+01  0.39747206526E+03  0.40650889540E+03  0.81073602021E+02 0.  0.
        -13    1    3    3    0    0 -0.20430833550E+02  0.42015068114E+02  0.21208510169E+03  0.21716992257E+03  0.00000000000E+00 0.  1.
         14    1    3    3    0    0 -0.55881025492E+01 -0.38074840521E+02  0.18538696357E+03  0.18933897283E+03  0.00000000000E+00 0. -1.
          1    1    1    2  501    0  0.26018936099E+02 -0.39402275921E+01  0.51778971940E+01  0.26820161233E+02  0.00000000000E+00 0. -1.
<mgrwt>
<rscale>  1 0.85237547E+02</rscale>
<asrwt>0</asrwt>
<pdfrwt beam="1">  1       21 0.23599306E-02 0.85237547E+02</pdfrwt>
<pdfrwt beam="2">  1        2 0.64306070E-01 0.85237547E+02</pdfrwt>
<totfact> 0.83534546E+05</totfact>
</mgrwt>
</event>
<event>
 6    2  0.8544106E+000  0.8270008E+02  0.7546771E-02  0.1321559E+00
         21   -1    0    0  501  502  0.00000000000E+00  0.00000000000E+00  0.59184474873E+01  0.59184474873E+01  0.00000000000E+00 0. -1.
          2   -1    0    0  502    0 -0.00000000000E+00 -0.00000000000E+00 -0.12888686770E+04  0.12888686770E+04  0.00000000000E+00 0. -1.
         24    2    1    2    0    0 -0.11067261098E+02 -0.17715906514E+02 -0.12636305533E+04  0.12663338733E+04  0.80018535020E+02 0.  0.
        -13    1    3    3    0    0 -0.29154056751E+02 -0.31741740940E+02 -0.38492541561E+03  0.38733070202E+03  0.00000000000E+00 0.  1.
         14    1    3    3    0    0  0.18086795653E+02  0.14025834426E+02 -0.87870513767E+03  0.87900317131E+03  0.00000000000E+00 0. -1.
          1    1    1    2  501    0  0.11067261098E+02  0.17715906514E+02 -0.19319676239E+02  0.28453251164E+02  0.00000000000E+00 0. -1.
<mgrwt>
<rscale>  1 0.82700082E+02</rscale>
<asrwt>0</asrwt>
<pdfrwt beam="1">  1       21 0.91053056E-03 0.82700082E+02</pdfrwt>
<pdfrwt beam="2">  1        2 0.19828745E+00 0.82700082E+02</pdfrwt>
<totfact> 0.94720714E+05</totfact>
</mgrwt>
</event>
<event>
 6    2  0.8544106E+000  0.8421351E+02  0.7546771E-02  0.1317502E+00
          2   -1    0    0  502    0 -0.00000000000E+00  0.00000000000E+00  0.10912289790E+03  0.10912289790E+03  0.00000000000E+00 0. -1.
         21   -1    0    0  501  502  0.00000000000E+00 -0.00000000000E+00 -0.28997131797E+02  0.28997131797E+02  0.00000000000E+00 0.  1.
         24    2    1    2    0    0 -0.33332334796E+01 -0.26340628203E+02  0.70665812699E+02  0.10993439758E+03  0.79918555710E+02 0.  0.
        -13    1    3    3    0    0 -0.79186769916E+01 -0.47139603483E+02  0.14632164488E+02  0.49989477887E+02  0.00000000000E+00 0.  1.
         14    1    3    3    0    0  0.45854435121E+01  0.20798975279E+02  0.56033648211E+02  0.59944919691E+02  0.00000000000E+00 0. -1.
          1    1    1    2  501    0  0.33332334796E+01  0.26340628203E+02  0.94599534056E+01  0.28185632120E+02  0.00000000000E+00 0. -1.
<mgrwt>
<rscale>  1 0.84213507E+02</rscale>
<asrwt>0</asrwt>
<pdfrwt beam="1">  1       21 0.44610973E-02 0.84213507E+02</pdfrwt>
<pdfrwt beam="2">  1        2 0.16788138E-01 0.84213507E+02</pdfrwt>
<totfact> 0.12464472E+06</totfact>
</mgrwt>
</event>
<event>
 6    2  0.8544106E+000  0.8659431E+02  0.7546771E-02  0.1311315E+00
          2   -1    0    0  502    0 -0.00000000000E+00  0.00000000000E+00  0.29154339398E+02  0.29154339398E+02  0.00000000000E+00 0. -1.
         21   -1    0    0  501  502  0.00000000000E+00 -0.00000000000E+00 -0.99832067610E+02  0.99832067610E+02  0.00000000000E+00 0.  1.
         24    2    1    2    0    0 -0.11886649662E+01  0.20592054597E+02 -0.51095835256E+02  0.10054530702E+03  0.84101895019E+02 0.  0.
        -13    1    3    3    0    0  0.12418552315E+02  0.43451689548E+02 -0.57547740241E+02  0.73171115702E+02  0.00000000000E+00 0.  1.
         14    1    3    3    0    0 -0.13607217281E+02 -0.22859634951E+02  0.64519049854E+01  0.27374191315E+02  0.00000000000E+00 0. -1.
          1    1    1    2  501    0  0.11886649662E+01 -0.20592054597E+02 -0.19581892956E+02  0.28441099991E+02  0.00000000000E+00 0. -1.
<mgrwt>
<rscale>  1 0.86594309E+02</rscale>
<asrwt>0</asrwt>
<pdfrwt beam="1">  1       21 0.15358780E-01 0.86594309E+02</pdfrwt>
<pdfrwt beam="2">  1        2 0.44852829E-02 0.86594309E+02</pdfrwt>
<totfact> 0.75737121E+05</totfact>
</mgrwt>
</event>
<event>
 6    2  0.8544106E+000  0.9121838E+02  0.7546771E-02  0.1299928E+00
         -1   -1    0    0    0  501 -0.00000000000E+00  0.00000000000E+00  0.89744403892E+02  0.89744403892E+02  0.00000000000E+00 0.  1.
         21   -1    0    0  501  502  0.00000000000E+00 -0.00000000000E+00 -0.22474765253E+03  0.22474765253E+03  0.00000000000E+00 0.  1.
         24    2    1    2    0    0  0.30708725516E+02 -0.12408604846E+02  0.64844805436E+02  0.11191801067E+03  0.84992899833E+02 0.  0.
        -13    1    3    3    0    0  0.49516523104E+02 -0.34091326945E+02  0.55260973071E+02  0.81657086514E+02  0.00000000000E+00 0.  1.
         14    1    3    3    0    0 -0.18807797587E+02  0.21682722098E+02  0.95838323651E+01  0.30260924151E+02  0.00000000000E+00 0. -1.
         -2    1    1    2    0  502 -0.30708725516E+02  0.12408604846E+02 -0.19984805408E+03  0.20257404576E+03  0.00000000000E+00 0.  1.
<mgrwt>
<rscale>  1 0.91218377E+02</rscale>
<asrwt>0</asrwt>
<pdfrwt beam="1">  1       21 0.34576562E-01 0.91218377E+02</pdfrwt>
<pdfrwt beam="2">  1       -1 0.13806831E-01 0.91218377E+02</pdfrwt>
<totfact> 0.26318416E+04</totfact>
</mgrwt>
</event>
<event>
 6    2  0.8544106E+000  0.9794535E+02  0.7546771E-02  0.1284677E+00
          2   -1    0    0  502    0 -0.00000000000E+00  0.00000000000E+00  0.27010983097E+04  0.27010983097E+04  0.00000000000E+00 0. -1.
         21   -1    0    0  501  502  0.00000000000E+00 -0.00000000000E+00 -0.31688846741E+02  0.31688846741E+02  0.00000000000E+00 0. -1.
         24    2    1    2    0    0  0.27867520208E+02 -0.46559732734E+02  0.26762976409E+04  0.26780893102E+04  0.81540685898E+02 0.  0.
        -11    1    3    3    0    0  0.47200613190E+02 -0.28730465166E+02  0.95920528500E+03  0.96079556425E+03  0.00000000000E+00 0.  1.
         12    1    3    3    0    0 -0.19333092982E+02 -0.17829267567E+02  0.17170923559E+04  0.17172937459E+04  0.00000000000E+00 0. -1.
          1    1    1    2  501    0 -0.27867520208E+02  0.46559732734E+02 -0.68881778648E+01  0.54697846293E+02  0.00000000000E+00 0. -1.
<mgrwt>
<rscale>  1 0.97945346E+02</rscale>
<asrwt>0</asrwt>
<pdfrwt beam="1">  1       21 0.48752093E-02 0.97945346E+02</pdfrwt>
<pdfrwt beam="2">  1        2 0.41555341E+00 0.97945346E+02</pdfrwt>
<totfact> 0.12088217E+04</totfact>
</mgrwt>
</event>
<event>
 6    2  0.8544106E+000  0.7724566E+02  0.7546771E-02  0.1337055E+00
         21   -1    0    0  501  502  0.00000000000E+00  0.00000000000E+00  0.10913551471E+01  0.10913551471E+01  0.00000000000E+00 0. -1.
          2   -1    0    0  502    0 -0.00000000000E+00 -0.00000000000E+00 -0.22469877147E+04  0.22469877147E+04  0.00000000000E+00 0. -1.
         24    2    1    2    0    0 -0.96159611333E+01  0.19381121584E+02 -0.16996924804E+04  0.17014468606E+04  0.74153873415E+02 0.  0.
        -13    1    3    3    0    0 -0.17476407805E+01 -0.24108164623E+02 -0.27240638654E+03  0.27347668507E+03  0.00000000000E+00 0.  1.
         14    1    3    3    0    0 -0.78683203527E+01  0.43489286207E+02 -0.14272860938E+04  0.14279701755E+04  0.00000000000E+00 0. -1.
          1    1    1    2  501    0  0.96159611333E+01 -0.19381121584E+02 -0.54620387922E+03  0.54663220931E+03  0.00000000000E+00 0. -1.
<mgrwt>
<rscale>  1 0.77245657E+02</rscale>
<asrwt>0</asrwt>
<pdfrwt beam="1">  1       21 0.16790396E-03 0.77245657E+02</pdfrwt>
<pdfrwt beam="2">  1        2 0.34568389E+00 0.77245657E+02</pdfrwt>
<totfact> 0.40391628E+06</totfact>
</mgrwt>
</event>
<event>
 6    2  0.8544106E+000  0.8200449E+02  0.7546771E-02  0.1323457E+00
          2   -1    0    0  502    0 -0.00000000000E+00  0.00000000000E+00  0.20024138296E+04  0.20024138296E+04  0.00000000000E+00 0. -1.
         21   -1    0    0  501  502  0.00000000000E+00 -0.00000000000E+00 -0.15457731191E+01  0.15457731191E+01  0.00000000000E+00 0.  1.
         24    2    1    2    0    0  0.22404679267E+02  0.92799998142E+01  0.17505249956E+04  0.17524447201E+04  0.78336764822E+02 0.  0.
        -13    1    3    3    0    0  0.43512715906E+02 -0.57464304549E+01  0.58990097683E+03  0.59153152104E+03  0.00000000000E+00 0.  1.
         14    1    3    3    0    0 -0.21108036639E+02  0.15026430269E+02  0.11606240187E+04  0.11609131990E+04  0.00000000000E+00 0. -1.
          1    1    1    2  501    0 -0.22404679267E+02 -0.92799998142E+01  0.25034306087E+03  0.25151488261E+03  0.00000000000E+00 0. -1.
<mgrwt>
<rscale>  1 0.82004492E+02</rscale>
<asrwt>0</asrwt>
<pdfrwt beam="1">  1       21 0.23781285E-03 0.82004492E+02</pdfrwt>
<pdfrwt beam="2">  1        2 0.30806159E+00 0.82004492E+02</pdfrwt>
<totfact> 0.32026781E+06</totfact>
</mgrwt>
</event>
<event>
 6    2  0.8544106E+000  0.9101577E+02  0.7546771E-02  0.1300410E+00
         21   -1    0    0  501  502  0.00000000000E+00  0.00000000000E+00  0.10232454917E+02  0.10232454917E+02  0.00000000000E+00 0. -1.
          2   -1    0    0  502    0 -0.00000000000E+00 -0.00000000000E+00 -0.69122584641E+03  0.69122584641E+03  0.00000000000E+00 0. -1.
         24    2    1    2    0    0 -0.38088844513E+02 -0.13603862450E+02 -0.62917585760E+03  0.63572488541E+03  0.81535544322E+02 0.  0.
        -11    1    3    3    0    0 -0.28112172331E+02 -0.17822990759E+02 -0.82778120610E+02  0.89219787517E+02  0.00000000000E+00 0.  1.
         12    1    3    3    0    0 -0.99766721826E+01  0.42191283085E+01 -0.54639773699E+03  0.54650509789E+03  0.00000000000E+00 0. -1.
          1    1    1    2  501    0  0.38088844513E+02  0.13603862450E+02 -0.51817533890E+02  0.65733415919E+02  0.00000000000E+00 0. -1.
<mgrwt>
<rscale>  1 0.91015769E+02</rscale>
<asrwt>0</asrwt>
<pdfrwt beam="1">  1       21 0.15742235E-02 0.91015769E+02</pdfrwt>
<pdfrwt beam="2">  1        2 0.10634246E+00 0.91015769E+02</pdfrwt>
<totfact> 0.92363433E+05</totfact>
</mgrwt>
</event>
<event>
 6    2  0.8544106E+000  0.8664336E+02  0.7546771E-02  0.1311190E+00
         21   -1    0    0  501  502  0.00000000000E+00  0.00000000000E+00  0.85256671221E+01  0.85256671221E+01  0.00000000000E+00 0.  1.
          2   -1    0    0  502    0 -0.00000000000E+00 -0.00000000000E+00 -0.46271751008E+03  0.46271751008E+03  0.00000000000E+00 0. -1.
         24    2    1    2    0    0  0.28298278581E+02  0.18090242297E+01 -0.40754929957E+03  0.41665753813E+03  0.81871896036E+02 0.  0.
        -13    1    3    3    0    0  0.10848520944E+02  0.36718332369E+02 -0.10819108953E+03  0.11476601497E+03  0.00000000000E+00 0.  1.
         14    1    3    3    0    0  0.17449757637E+02 -0.34909308139E+02 -0.29935821004E+03  0.30189152316E+03  0.00000000000E+00 0. -1.
          1    1    1    2  501    0 -0.28298278581E+02 -0.18090242297E+01 -0.46642543389E+02  0.54585639073E+02  0.00000000000E+00 0. -1.
<mgrwt>
<rscale>  1 0.86643364E+02</rscale>
<asrwt>0</asrwt>
<pdfrwt beam="1">  1       21 0.13116410E-02 0.86643364E+02</pdfrwt>
<pdfrwt beam="2">  1        2 0.71187316E-01 0.86643364E+02</pdfrwt>
<totfact> 0.19123144E+06</totfact>
</mgrwt>
</event>
<event>
 6    2  0.8544106E+000  0.8095822E+02  0.7546771E-02  0.1326354E+00
         21   -1    0    0  501  502  0.00000000000E+00  0.00000000000E+00  0.26974892570E+01  0.26974892570E+01  0.00000000000E+00 0.  1.
          2   -1    0    0  502    0 -0.00000000000E+00 -0.00000000000E+00 -0.10982162743E+04  0.10982162743E+04  0.00000000000E+00 0. -1.
         24    2    1    2    0    0 -0.79442906354E+01  0.18662901574E+02 -0.66378806768E+03  0.66870683630E+03  0.78376134627E+02 0.  0.
        -11    1    3    3    0    0  0.10596105052E+02  0.45812485677E+02 -0.44222660997E+03  0.44471950245E+03  0.00000000000E+00 0.  1.
         12    1    3    3    0    0 -0.18540395687E+02 -0.27149584102E+02 -0.22156145770E+03  0.22398733386E+03  0.00000000000E+00 0. -1.
          1    1    1    2  501    0  0.79442906354E+01 -0.18662901574E+02 -0.43173071732E+03  0.43220692721E+03  0.00000000000E+00 0. -1.
<mgrwt>
<rscale>  1 0.80958225E+02</rscale>
<asrwt>0</asrwt>
<pdfrwt beam="1">  1       21 0.41499804E-03 0.80958225E+02</pdfrwt>
<pdfrwt beam="2">  1        2 0.16895648E+00 0.80958225E+02</pdfrwt>
<totfact> 0.40142574E+06</totfact>
</mgrwt>
</event>
<event>
 6    2  0.8544106E+000  0.8336953E+02  0.7546771E-02  0.1319752E+00
          2   -1    0    0  502    0 -0.00000000000E+00  0.00000000000E+00  0.22619185892E+04  0.22619185892E+04  0.00000000000E+00 0. -1.
         21   -1    0    0  501  502  0.00000000000E+00 -0.00000000000E+00 -0.65808165360E+01  0.65808165360E+01  0.00000000000E+00 0. -1.
         24    2    1    2    0    0  0.15350044115E+02 -0.15140075169E+02  0.22411269201E+04  0.22426770499E+04  0.80533423954E+02 0.  0.
        -11    1    3    3    0    0  0.39196996661E+01  0.50472328203E+01  0.13571235042E+02  0.15000567495E+02  0.00000000000E+00 0.  1.
         12    1    3    3    0    0  0.11430344449E+02 -0.20187307990E+02  0.22275556851E+04  0.22276764824E+04  0.00000000000E+00 0. -1.
          1    1    1    2  501    0 -0.15350044115E+02  0.15140075169E+02  0.14210852546E+02  0.25822355829E+02  0.00000000000E+00 0. -1.
<mgrwt>
<rscale>  1 0.83369527E+02</rscale>
<asrwt>0</asrwt>
<pdfrwt beam="1">  1       21 0.10124351E-02 0.83369527E+02</pdfrwt>
<pdfrwt beam="2">  1        2 0.34798685E+00 0.83369527E+02</pdfrwt>
<totfact> 0.25876656E+05</totfact>
</mgrwt>
</event>
<event>
 6    2  0.8544106E+000  0.8953408E+02  0.7546771E-02  0.1303984E+00
          2   -1    0    0  502    0 -0.00000000000E+00  0.00000000000E+00  0.24139180969E+04  0.24139180969E+04  0.00000000000E+00 0. -1.
         21   -1    0    0  501  502  0.00000000000E+00 -0.00000000000E+00 -0.20093306780E+01  0.20093306780E+01  0.00000000000E+00 0.  1.
         24    2    1    2    0    0 -0.54731258154E+01 -0.24611012127E+02  0.22721092867E+04  0.22738726793E+04  0.85910966072E+02 0.  0.
        -11    1    3    3    0    0 -0.57835968352E+01  0.16970057166E+01  0.10474812650E+02  0.12085177732E+02  0.00000000000E+00 0.  1.
         12    1    3    3    0    0  0.31047101985E+00 -0.26308017844E+02  0.22616344740E+04  0.22617875016E+04  0.00000000000E+00 0. -1.
          1    1    1    2  501    0  0.54731258154E+01  0.24611012127E+02  0.13979947957E+03  0.14205474830E+03  0.00000000000E+00 0. -1.
<mgrwt>
<rscale>  1 0.89534078E+02</rscale>
<asrwt>0</asrwt>
<pdfrwt beam="1">  1       21 0.30912973E-03 0.89534078E+02</pdfrwt>
<pdfrwt beam="2">  1        2 0.37136970E+00 0.89534078E+02</pdfrwt>
<totfact> 0.13396017E+06</totfact>
</mgrwt>
</event>
<event>
 6    2  0.8544106E+000  0.8734487E+02  0.7546771E-02  0.1309412E+00
         -1   -1    0    0    0  501 -0.00000000000E+00  0.00000000000E+00  0.10112642913E+02  0.10112642913E+02  0.00000000000E+00 0.  1.
         21   -1    0    0  501  502  0.00000000000E+00 -0.00000000000E+00 -0.54814320112E+03  0.54814320112E+03  0.00000000000E+00 0.  1.
         24    2    1    2    0    0 -0.25224724659E+02 -0.24927924434E+02 -0.19836105497E+03  0.21674001778E+03  0.79821294329E+02 0.  0.
        -13    1    3    3    0    0 -0.21132055247E+02 -0.50592519267E+02 -0.16828178713E+03  0.17698849298E+03  0.00000000000E+00 0.  1.
         14    1    3    3    0    0 -0.40926694121E+01  0.25664594832E+02 -0.30079267835E+02  0.39751524805E+02  0.00000000000E+00 0. -1.
         -2    1    1    2    0  502  0.25224724659E+02  0.24927924434E+02 -0.33966950324E+03  0.34151582625E+03  0.00000000000E+00 0.  1.
<mgrwt>
<rscale>  1 0.87344875E+02</rscale>
<asrwt>0</asrwt>
<pdfrwt beam="1">  1       21 0.84329726E-01 0.87344875E+02</pdfrwt>
<pdfrwt beam="2">  1       -1 0.15557912E-02 0.87344875E+02</pdfrwt>
<totfact> 0.10149820E+05</totfact>
</mgrwt>
</event>
<event>
 6    2  0.8544106E+000  0.8764062E+02  0.7546771E-02  0.1308668E+00
         21   -1    0    0  501  502  0.00000000000E+00  0.00000000000E+00  0.87135962709E+01  0.87135962709E+01  0.00000000000E+00 0. -1.
         -1   -1    0    0    0  501 -0.00000000000E+00 -0.00000000000E+00 -0.44901255346E+03  0.44901255346E+03  0.00000000000E+00 0.  1.
         24    2    1    2    0    0 -0.40877696203E+01 -0.32454323054E+02 -0.36926061501E+03  0.37951848383E+03  0.81307347943E+02 0.  0.
        -13    1    3    3    0    0  0.33846455125E+01 -0.24623834076E+02 -0.36775096314E+03  0.36858996178E+03  0.00000000000E+00 0.  1.
         14    1    3    3    0    0 -0.74724151328E+01 -0.78304889777E+01 -0.15096518630E+01  0.10928522054E+02  0.00000000000E+00 0. -1.
         -2    1    1    2    0  502  0.40877696203E+01  0.32454323054E+02 -0.71038342179E+02  0.78207665896E+02  0.00000000000E+00 0.  1.
<mgrwt>
<rscale>  1 0.87640617E+02</rscale>
<asrwt>0</asrwt>
<pdfrwt beam="1">  1       21 0.13405530E-02 0.87640617E+02</pdfrwt>
<pdfrwt beam="2">  1       -1 0.69078867E-01 0.87640617E+02</pdfrwt>
<totfact> 0.45072555E+05</totfact>
</mgrwt>
</event>
<event>
 6    2  0.8544106E+000  0.8951700E+02  0.7546771E-02  0.1304026E+00
         21   -1    0    0  501  502  0.00000000000E+00  0.00000000000E+00  0.16750532870E+02  0.16750532870E+02  0.00000000000E+00 0. -1.
          4   -1    0    0  502    0 -0.00000000000E+00 -0.00000000000E+00 -0.55554770290E+03  0.55554770290E+03  0.00000000000E+00 0. -1.
         24    2    1    2    0    0 -0.11808063906E+02  0.35634500853E+02 -0.52456935522E+03  0.53215251696E+03  0.81265274561E+02 0.  0.
        -13    1    3    3    0    0 -0.28235811312E+02  0.39876926379E+02 -0.16252812411E+03  0.16971393998E+03  0.00000000000E+00 0.  1.
         14    1    3    3    0    0  0.16427747406E+02 -0.42424255259E+01 -0.36204123111E+03  0.36243857698E+03  0.00000000000E+00 0. -1.
          3    1    1    2  501    0  0.11808063906E+02 -0.35634500853E+02 -0.14227814808E+02  0.40145718807E+02  0.00000000000E+00 0. -1.
<mgrwt>
<rscale>  1 0.89516998E+02</rscale>
<asrwt>0</asrwt>
<pdfrwt beam="1">  1       21 0.25770052E-02 0.89516998E+02</pdfrwt>
<pdfrwt beam="2">  1        4 0.85468873E-01 0.89516998E+02</pdfrwt>
<totfact> 0.38057730E+04</totfact>
</mgrwt>
</event>
<event>
 6    2  0.8544106E+000  0.8906432E+02  0.7546771E-02  0.1305134E+00
          2   -1    0    0  502    0 -0.00000000000E+00  0.00000000000E+00  0.66589708280E+02  0.66589708280E+02  0.00000000000E+00 0. -1.
         21   -1    0    0  501  502  0.00000000000E+00 -0.00000000000E+00 -0.71868451209E+02  0.71868451209E+02  0.00000000000E+00 0. -1.
         24    2    1    2    0    0 -0.30867101528E+02  0.18647578957E+01  0.27677348953E+02  0.93265690305E+02  0.83523637757E+02 0.  0.
        -11    1    3    3    0    0 -0.28536956699E+01 -0.62789131080E+01 -0.28845339947E+02  0.29658421493E+02  0.00000000000E+00 0.  1.
         12    1    3    3    0    0 -0.28013405858E+02  0.81436710037E+01  0.56522688900E+02  0.63607268812E+02  0.00000000000E+00 0. -1.
          1    1    1    2  501    0  0.30867101528E+02 -0.18647578957E+01 -0.32956091883E+02  0.45192469184E+02  0.00000000000E+00 0. -1.
<mgrwt>
<rscale>  1 0.89064321E+02</rscale>
<asrwt>0</asrwt>
<pdfrwt beam="1">  1       21 0.11056685E-01 0.89064321E+02</pdfrwt>
<pdfrwt beam="2">  1        2 0.10244570E-01 0.89064321E+02</pdfrwt>
<totfact> 0.48079550E+05</totfact>
</mgrwt>
</event>
<event>
 6    2  0.8544106E+000  0.8380565E+02  0.7546771E-02  0.1318586E+00
         21   -1    0    0  501  502  0.00000000000E+00  0.00000000000E+00  0.10476496178E+02  0.10476496178E+02  0.00000000000E+00 0. -1.
          2   -1    0    0  502    0 -0.00000000000E+00 -0.00000000000E+00 -0.27309051302E+03  0.27309051302E+03  0.00000000000E+00 0. -1.
         24    2    1    2    0    0  0.15782011859E+02  0.15614795039E+02 -0.19065905649E+03  0.20826488411E+03  0.80811462134E+02 0.  0.
        -11    1    3    3    0    0  0.17112475336E+02 -0.28794335417E+02 -0.12175874487E+03  0.12628199601E+03  0.00000000000E+00 0.  1.
         12    1    3    3    0    0 -0.13304634766E+01  0.44409130456E+02 -0.68900311620E+02  0.81982888106E+02  0.00000000000E+00 0. -1.
          1    1    1    2  501    0 -0.15782011859E+02 -0.15614795039E+02 -0.71954960358E+02  0.75302125086E+02  0.00000000000E+00 0. -1.
<mgrwt>
<rscale>  1 0.83805645E+02</rscale>
<asrwt>0</asrwt>
<pdfrwt beam="1">  1       21 0.16117689E-02 0.83805645E+02</pdfrwt>
<pdfrwt beam="2">  1        2 0.42013919E-01 0.83805645E+02</pdfrwt>
<totfact> 0.23900311E+06</totfact>
</mgrwt>
</event>
<event>
 6    2  0.8544106E+000  0.8802795E+02  0.7546771E-02  0.1307699E+00
         21   -1    0    0  501  502  0.00000000000E+00  0.00000000000E+00  0.22759237412E+02  0.22759237412E+02  0.00000000000E+00 0.  1.
          2   -1    0    0  502    0 -0.00000000000E+00 -0.00000000000E+00 -0.16942856554E+03  0.16942856554E+03  0.00000000000E+00 0. -1.
         24    2    1    2    0    0  0.14023513593E+02 -0.32239310660E+02 -0.93237670849E+02  0.12822707996E+03  0.80702470133E+02 0.  0.
        -11    1    3    3    0    0  0.22919607909E+02 -0.16697008534E+02  0.46320191559E+01  0.28732457642E+02  0.00000000000E+00 0.  1.
         12    1    3    3    0    0 -0.88960943158E+01 -0.15542302126E+02 -0.97869690005E+02  0.99494622323E+02  0.00000000000E+00 0. -1.
          1    1    1    2  501    0 -0.14023513593E+02  0.32239310660E+02 -0.53431657275E+02  0.63960722983E+02  0.00000000000E+00 0. -1.
<mgrwt>
<rscale>  1 0.88027954E+02</rscale>
<asrwt>0</asrwt>
<pdfrwt beam="1">  1       21 0.35014211E-02 0.88027954E+02</pdfrwt>
<pdfrwt beam="2">  1        2 0.26065933E-01 0.88027954E+02</pdfrwt>
<totfact> 0.11449989E+06</totfact>
</mgrwt>
</event>
<event>
 6    2  0.8544106E+000  0.1056948E+03  0.7546771E-02  0.1268757E+00
          2   -1    0    0  502    0 -0.00000000000E+00  0.00000000000E+00  0.88132817629E+01  0.88132817629E+01  0.00000000000E+00 0. -1.
         21   -1    0    0  501  502  0.00000000000E+00 -0.00000000000E+00 -0.10063297132E+04  0.10063297132E+04  0.00000000000E+00 0.  1.
         24    2    1    2    0    0 -0.69507209279E+02  0.32865679391E+01 -0.40539651573E+03  0.41894835539E+03  0.79557123205E+02 0.  0.
        -13    1    3    3    0    0 -0.23708931027E+02  0.40335145093E+02 -0.17898817479E+03  0.18500217311E+03  0.00000000000E+00 0.  1.
         14    1    3    3    0    0 -0.45798278253E+02 -0.37048577154E+02 -0.22640834093E+03  0.23394618228E+03  0.00000000000E+00 0. -1.
          1    1    1    2  501    0  0.69507209279E+02 -0.32865679391E+01 -0.59211991571E+03  0.59619463957E+03  0.00000000000E+00 0. -1.
<mgrwt>
<rscale>  1 0.10569479E+03</rscale>
<asrwt>0</asrwt>
<pdfrwt beam="1">  1       21 0.15482004E+00 0.10569479E+03</pdfrwt>
<pdfrwt beam="2">  1        2 0.13558888E-02 0.10569479E+03</pdfrwt>
<totfact> 0.30746452E+04</totfact>
</mgrwt>
</event>
<event>
 6    2  0.8544106E+000  0.8323721E+02  0.7546771E-02  0.1320108E+00
          2   -1    0    0  502    0 -0.00000000000E+00  0.00000000000E+00  0.26005977838E+04  0.26005977838E+04  0.00000000000E+00 0. -1.
         21   -1    0    0  501  502  0.00000000000E+00 -0.00000000000E+00 -0.18071283358E+01  0.18071283358E+01  0.00000000000E+00 0.  1.
         24    2    1    2    0    0  0.12194870330E+02 -0.17894720482E+02  0.99721390244E+03  0.10006817676E+04  0.80370995533E+02 0.  0.
        -11    1    3    3    0    0  0.11462577709E+02 -0.34651318267E+02  0.20072279963E+03  0.20401408489E+03  0.00000000000E+00 0.  1.
         12    1    3    3    0    0  0.73229262178E+00  0.16756597785E+02  0.79649110281E+03  0.79666768272E+03  0.00000000000E+00 0. -1.
          1    1    1    2  501    0 -0.12194870330E+02  0.17894720482E+02  0.16015767530E+04  0.16017231445E+04  0.00000000000E+00 0. -1.
<mgrwt>
<rscale>  1 0.83237208E+02</rscale>
<asrwt>0</asrwt>
<pdfrwt beam="1">  1       21 0.27802182E-03 0.83237208E+02</pdfrwt>
<pdfrwt beam="2">  1        2 0.40008897E+00 0.83237208E+02</pdfrwt>
<totfact> 0.12512517E+06</totfact>
</mgrwt>
</event>
<event>
 6    2  0.8544106E+000  0.9099411E+02  0.7546771E-02  0.1300462E+00
         -3   -1    0    0    0  501 -0.00000000000E+00  0.00000000000E+00  0.18420182059E+03  0.18420182059E+03  0.00000000000E+00 0.  1.
         21   -1    0    0  501  502  0.00000000000E+00 -0.00000000000E+00 -0.28401864765E+02  0.28401864765E+02  0.00000000000E+00 0.  1.
         24    2    1    2    0    0 -0.30773337451E+02  0.38430413901E+02  0.74695484953E+02  0.11772571001E+03  0.76524717013E+02 0.  0.
        -13    1    3    3    0    0  0.11259584618E+02  0.39086140137E+02  0.61370494595E+02  0.73626368941E+02  0.00000000000E+00 0.  1.
         14    1    3    3    0    0 -0.42032922068E+02 -0.65572623551E+00  0.13324990358E+02  0.44099341067E+02  0.00000000000E+00 0. -1.
         -4    1    1    2    0  502  0.30773337451E+02 -0.38430413901E+02  0.81104470874E+02  0.94877975348E+02  0.00000000000E+00 0.  1.
<mgrwt>
<rscale>  1 0.90994106E+02</rscale>
<asrwt>0</asrwt>
<pdfrwt beam="1">  1       21 0.43695178E-02 0.90994106E+02</pdfrwt>
<pdfrwt beam="2">  1       -3 0.28338741E-01 0.90994106E+02</pdfrwt>
<totfact> 0.18043403E+05</totfact>
</mgrwt>
</event>
<event>
 6    2  0.8544106E+000  0.8497502E+02  0.7546771E-02  0.1315498E+00
         21   -1    0    0  501  502  0.00000000000E+00  0.00000000000E+00  0.16322703168E+02  0.16322703168E+02  0.00000000000E+00 0.  1.
          2   -1    0    0  502    0 -0.00000000000E+00 -0.00000000000E+00 -0.17659998596E+03  0.17659998596E+03  0.00000000000E+00 0. -1.
         24    2    1    2    0    0 -0.21264785356E+02 -0.60748159596E+01 -0.13265909549E+03  0.15754107307E+03  0.82046691599E+02 0.  0.
        -13    1    3    3    0    0 -0.45420330010E+02 -0.26490965585E+02 -0.92766110605E+02  0.10663174439E+03  0.00000000000E+00 0.  1.
         14    1    3    3    0    0  0.24155544654E+02  0.20416149625E+02 -0.39892984885E+02  0.50909328674E+02  0.00000000000E+00 0. -1.
          1    1    1    2  501    0  0.21264785356E+02  0.60748159596E+01 -0.27618187306E+02  0.35381616063E+02  0.00000000000E+00 0. -1.
<mgrwt>
<rscale>  1 0.84975020E+02</rscale>
<asrwt>0</asrwt>
<pdfrwt beam="1">  1       21 0.25111851E-02 0.84975020E+02</pdfrwt>
<pdfrwt beam="2">  1        2 0.27169229E-01 0.84975020E+02</pdfrwt>
<totfact> 0.18698430E+06</totfact>
</mgrwt>
</event>
<event>
 6    2  0.8544106E+000  0.8301057E+02  0.7546771E-02  0.1320719E+00
         21   -1    0    0  501  502  0.00000000000E+00  0.00000000000E+00  0.14336371210E+01  0.14336371210E+01  0.00000000000E+00 0. -1.
          2   -1    0    0  502    0 -0.00000000000E+00 -0.00000000000E+00 -0.20453304414E+04  0.20453304414E+04  0.00000000000E+00 0. -1.
         24    2    1    2    0    0 -0.22049144948E+02 -0.32251418066E+01 -0.17773417196E+04  0.17792791640E+04  0.79963672075E+02 0.  0.
        -13    1    3    3    0    0  0.20523379099E+02  0.13582117067E+02 -0.24047952612E+03  0.24173556933E+03  0.00000000000E+00 0.  1.
         14    1    3    3    0    0 -0.42572524047E+02 -0.16807258873E+02 -0.15368621935E+04  0.15375435947E+04  0.00000000000E+00 0. -1.
          1    1    1    2  501    0  0.22049144948E+02  0.32251418066E+01 -0.26655508471E+03  0.26748491456E+03  0.00000000000E+00 0. -1.
<mgrwt>
<rscale>  1 0.83010573E+02</rscale>
<asrwt>0</asrwt>
<pdfrwt beam="1">  1       21 0.22055956E-03 0.83010573E+02</pdfrwt>
<pdfrwt beam="2">  1        2 0.31466621E+00 0.83010573E+02</pdfrwt>
<totfact> 0.34158037E+06</totfact>
</mgrwt>
</event>
<event>
 6    2  0.8544106E+000  0.8434029E+02  0.7546771E-02  0.1317167E+00
         21   -1    0    0  501  502  0.00000000000E+00  0.00000000000E+00  0.24405114912E+03  0.24405114912E+03  0.00000000000E+00 0.  1.
         -1   -1    0    0    0  501 -0.00000000000E+00 -0.00000000000E+00 -0.51049275630E+02  0.51049275630E+02  0.00000000000E+00 0.  1.
         24    2    1    2    0    0  0.65710609531E+01 -0.24073969386E+02 -0.14951330840E+02  0.85655276715E+02  0.80563945356E+02 0.  0.
        -11    1    3    3    0    0  0.22013189558E+01 -0.41581271656E+02 -0.38007538885E+02  0.56377486373E+02  0.00000000000E+00 0.  1.
         12    1    3    3    0    0  0.43697419974E+01  0.17507302270E+02  0.23056208045E+02  0.29277790342E+02  0.00000000000E+00 0. -1.
         -2    1    1    2    0  502 -0.65710609531E+01  0.24073969386E+02  0.20795320433E+03  0.20944514803E+03  0.00000000000E+00 0.  1.
<mgrwt>
<rscale>  1 0.84340288E+02</rscale>
<asrwt>0</asrwt>
<pdfrwt beam="1">  1       21 0.37546330E-01 0.84340288E+02</pdfrwt>
<pdfrwt beam="2">  1       -1 0.78537348E-02 0.84340288E+02</pdfrwt>
<totfact> 0.52466540E+04</totfact>
</mgrwt>
</event>
<event>
 6    2  0.8544106E+000  0.8659812E+02  0.7546771E-02  0.1311305E+00
          2   -1    0    0  502    0 -0.00000000000E+00  0.00000000000E+00  0.28102970313E+03  0.28102970313E+03  0.00000000000E+00 0. -1.
         21   -1    0    0  501  502  0.00000000000E+00 -0.00000000000E+00 -0.13378352580E+02  0.13378352580E+02  0.00000000000E+00 0.  1.
         24    2    1    2    0    0  0.28711031099E+02  0.12650510336E+02  0.22768863840E+03  0.24360080149E+03  0.80714780020E+02 0.  0.
        -11    1    3    3    0    0  0.53909834894E+02  0.63623910713E+01  0.19157947042E+03  0.19912168090E+03  0.00000000000E+00 0.  1.
         12    1    3    3    0    0 -0.25198803795E+02  0.62881192651E+01  0.36109167983E+02  0.44479120596E+02  0.00000000000E+00 0. -1.
          1    1    1    2  501    0 -0.28711031099E+02 -0.12650510336E+02  0.39962712152E+02  0.50807254217E+02  0.00000000000E+00 0. -1.
<mgrwt>
<rscale>  1 0.86598120E+02</rscale>
<asrwt>0</asrwt>
<pdfrwt beam="1">  1       21 0.20582083E-02 0.86598120E+02</pdfrwt>
<pdfrwt beam="2">  1        2 0.43235334E-01 0.86598120E+02</pdfrwt>
<totfact> 0.15781304E+06</totfact>
</mgrwt>
</event>
<event>
 6    2  0.8544106E+000  0.9385568E+02  0.7546771E-02  0.1293774E+00
          2   -1    0    0  502    0 -0.00000000000E+00  0.00000000000E+00  0.17859843923E+04  0.17859843923E+04  0.00000000000E+00 0. -1.
         21   -1    0    0  501  502  0.00000000000E+00 -0.00000000000E+00 -0.30052841079E+01  0.30052841079E+01  0.00000000000E+00 0. -1.
         24    2    1    2    0    0  0.45496324590E+02 -0.16506645290E+02  0.95618279374E+03  0.96077803047E+03  0.80414575064E+02 0.  0.
        -11    1    3    3    0    0  0.20087374876E+02  0.10710631724E+02  0.65976815438E+02  0.69793699118E+02  0.00000000000E+00 0.  1.
         12    1    3    3    0    0  0.25408949714E+02 -0.27217277013E+02  0.89020597831E+03  0.89098433135E+03  0.00000000000E+00 0. -1.
          1    1    1    2  501    0 -0.45496324590E+02  0.16506645290E+02  0.82679631442E+03  0.82821164592E+03  0.00000000000E+00 0. -1.
<mgrwt>
<rscale>  1 0.93855681E+02</rscale>
<asrwt>0</asrwt>
<pdfrwt beam="1">  1       21 0.46235283E-03 0.93855681E+02</pdfrwt>
<pdfrwt beam="2">  1        2 0.27476598E+00 0.93855681E+02</pdfrwt>
<totfact> 0.15150000E+06</totfact>
</mgrwt>
</event>
<event>
 6    2  0.8544106E+000  0.8405037E+02  0.7546771E-02  0.1317935E+00
          2   -1    0    0  502    0 -0.00000000000E+00  0.00000000000E+00  0.80808991093E+01  0.80808991093E+01  0.00000000000E+00 0. -1.
         21   -1    0    0  501  502  0.00000000000E+00 -0.00000000000E+00 -0.41220078266E+03  0.41220078266E+03  0.00000000000E+00 0. -1.
         24    2    1    2    0    0 -0.19712085162E+01  0.20994422685E+02 -0.22975425612E+03  0.24464562774E+03  0.81362236440E+02 0.  0.
        -11    1    3    3    0    0 -0.17565213719E+02 -0.27531078064E+02 -0.10194448027E+03  0.10704753173E+03  0.00000000000E+00 0.  1.
         12    1    3    3    0    0  0.15594005203E+02  0.48525500750E+02 -0.12780977585E+03  0.13759809601E+03  0.00000000000E+00 0. -1.
          1    1    1    2  501    0  0.19712085162E+01 -0.20994422685E+02 -0.17436562743E+03  0.17563605404E+03  0.00000000000E+00 0. -1.
<mgrwt>
<rscale>  1 0.84050372E+02</rscale>
<asrwt>0</asrwt>
<pdfrwt beam="1">  1       21 0.63415530E-01 0.84050372E+02</pdfrwt>
<pdfrwt beam="2">  1        2 0.12432148E-02 0.84050372E+02</pdfrwt>
<totfact> 0.27248676E+05</totfact>
</mgrwt>
</event>
<event>
 6    2  0.8544106E+000  0.8339614E+02  0.7546771E-02  0.1319681E+00
         21   -1    0    0  501  502  0.00000000000E+00  0.00000000000E+00  0.16477057819E+01  0.16477057819E+01  0.00000000000E+00 0. -1.
          2   -1    0    0  502    0 -0.00000000000E+00 -0.00000000000E+00 -0.17311988619E+04  0.17311988619E+04  0.00000000000E+00 0. -1.
         24    2    1    2    0    0 -0.21102563524E+02  0.63768721188E+01 -0.12415623294E+04  0.12443600503E+04  0.80429685152E+02 0.  0.
        -13    1    3    3    0    0  0.28087935497E+02 -0.11310959552E+02 -0.54380046603E+03  0.54464283414E+03  0.00000000000E+00 0.  1.
         14    1    3    3    0    0 -0.49190499021E+02  0.17687831671E+02 -0.69776186341E+03  0.69971721617E+03  0.00000000000E+00 0. -1.
          1    1    1    2  501    0  0.21102563524E+02 -0.63768721188E+01 -0.48798882669E+03  0.48848651737E+03  0.00000000000E+00 0. -1.
<mgrwt>
<rscale>  1 0.83396145E+02</rscale>
<asrwt>0</asrwt>
<pdfrwt beam="1">  1       21 0.25349256E-03 0.83396145E+02</pdfrwt>
<pdfrwt beam="2">  1        2 0.26633896E+00 0.83396145E+02</pdfrwt>
<totfact> 0.39799763E+06</totfact>
</mgrwt>
</event>
<event>
 6    2  0.8544106E+000  0.8102031E+02  0.7546771E-02  0.1326181E+00
         21   -1    0    0  501  502  0.00000000000E+00  0.00000000000E+00  0.73055214254E+02  0.73055214254E+02  0.00000000000E+00 0.  1.
          2   -1    0    0  502    0 -0.00000000000E+00 -0.00000000000E+00 -0.37086162588E+02  0.37086162588E+02  0.00000000000E+00 0. -1.
         24    2    1    2    0    0 -0.93136110022E+01  0.18267634994E+02  0.18270773539E+02  0.83054869373E+02  0.78382653201E+02 0.  0.
        -11    1    3    3    0    0 -0.16507500863E+02  0.81945123338E+01  0.47695655466E+02  0.51132408192E+02  0.00000000000E+00 0.  1.
         12    1    3    3    0    0  0.71938898607E+01  0.10073122660E+02 -0.29424881928E+02  0.31922461182E+02  0.00000000000E+00 0. -1.
          1    1    1    2  501    0  0.93136110022E+01 -0.18267634994E+02  0.17698278128E+02  0.27086507469E+02  0.00000000000E+00 0. -1.
<mgrwt>
<rscale>  1 0.81020307E+02</rscale>
<asrwt>0</asrwt>
<pdfrwt beam="1">  1       21 0.11239264E-01 0.81020307E+02</pdfrwt>
<pdfrwt beam="2">  1        2 0.57055635E-02 0.81020307E+02</pdfrwt>
<totfact> 0.95670942E+05</totfact>
</mgrwt>
</event>
<event>
 6    2  0.8544106E+000  0.1294839E+03  0.7546771E-02  0.1228224E+00
         21   -1    0    0  501  502  0.00000000000E+00  0.00000000000E+00  0.11558523140E+02  0.11558523140E+02  0.00000000000E+00 0.  1.
          2   -1    0    0  502    0 -0.00000000000E+00 -0.00000000000E+00 -0.11846120698E+04  0.11846120698E+04  0.00000000000E+00 0. -1.
         24    2    1    2    0    0 -0.61749651327E+02  0.72143446416E+02 -0.50195916244E+03  0.51839085820E+03  0.88024910127E+02 0.  0.
        -11    1    3    3    0    0 -0.34936055065E+02  0.28637364621E+02 -0.69295061611E+02  0.82718995156E+02  0.00000000000E+00 0.  1.
         12    1    3    3    0    0 -0.26813596262E+02  0.43506081795E+02 -0.43266410083E+03  0.43567186304E+03  0.00000000000E+00 0. -1.
          1    1    1    2  501    0  0.61749651327E+02 -0.72143446416E+02 -0.67109438421E+03  0.67777973473E+03  0.00000000000E+00 0. -1.
<mgrwt>
<rscale>  1 0.12948390E+03</rscale>
<asrwt>0</asrwt>
<pdfrwt beam="1">  1       21 0.17782350E-02 0.12948390E+03</pdfrwt>
<pdfrwt beam="2">  1        2 0.18224794E+00 0.12948390E+03</pdfrwt>
<totfact> 0.38365466E+05</totfact>
</mgrwt>
</event>
<event>
 6    2  0.8544106E+000  0.9377578E+02  0.7546771E-02  0.1293957E+00
          2   -1    0    0  502    0 -0.00000000000E+00  0.00000000000E+00  0.24985580732E+03  0.24985580732E+03  0.00000000000E+00 0. -1.
         21   -1    0    0  501  502  0.00000000000E+00 -0.00000000000E+00 -0.24550686429E+02  0.24550686429E+02  0.00000000000E+00 0. -1.
         24    2    1    2    0    0  0.47058890356E+02 -0.46939202926E+01  0.19971292922E+03  0.22063352355E+03  0.80977315143E+02 0.  0.
        -13    1    3    3    0    0 -0.64634421213E+01 -0.29308849844E+02  0.10399524485E+03  0.10823952935E+03  0.00000000000E+00 0.  1.
         14    1    3    3    0    0  0.53522332477E+02  0.24614929552E+02  0.95717684374E+02  0.11239399420E+03  0.00000000000E+00 0. -1.
          1    1    1    2  501    0 -0.47058890356E+02  0.46939202926E+01  0.25592191669E+02  0.53772970196E+02  0.00000000000E+00 0. -1.
<mgrwt>
<rscale>  1 0.93775784E+02</rscale>
<asrwt>0</asrwt>
<pdfrwt beam="1">  1       21 0.37770289E-02 0.93775784E+02</pdfrwt>
<pdfrwt beam="2">  1        2 0.38439353E-01 0.93775784E+02</pdfrwt>
<totfact> 0.67280948E+05</totfact>
</mgrwt>
</event>
<event>
 6    2  0.8544106E+000  0.8751377E+02  0.7546771E-02  0.1308987E+00
         21   -1    0    0  501  502  0.00000000000E+00  0.00000000000E+00  0.60037182317E+02  0.60037182317E+02  0.00000000000E+00 0.  1.
         -1   -1    0    0    0  501 -0.00000000000E+00 -0.00000000000E+00 -0.81130015228E+03  0.81130015228E+03  0.00000000000E+00 0.  1.
         24    2    1    2    0    0  0.36388994765E+02  0.38481228606E+02 -0.79673862096E+03  0.80153046724E+03  0.69668471288E+02 0.  0.
        -11    1    3    3    0    0  0.35996865347E+02  0.57687648283E+02 -0.64747340509E+03  0.65103413841E+03  0.00000000000E+00 0.  1.
         12    1    3    3    0    0  0.39212941750E+00 -0.19206419677E+02 -0.14926521587E+03  0.15049632883E+03  0.00000000000E+00 0. -1.
         -2    1    1    2    0  502 -0.36388994765E+02 -0.38481228606E+02  0.45475651004E+02  0.69806867350E+02  0.00000000000E+00 0.  1.
<mgrwt>
<rscale>  1 0.87513769E+02</rscale>
<asrwt>0</asrwt>
<pdfrwt beam="1">  1       21 0.92364899E-02 0.87513769E+02</pdfrwt>
<pdfrwt beam="2">  1       -1 0.12481540E+00 0.87513769E+02</pdfrwt>
<totfact> 0.53914284E+03</totfact>
</mgrwt>
</event>
<event>
 6    2  0.8544106E+000  0.8754389E+02  0.7546771E-02  0.1308911E+00
         21   -1    0    0  501  502  0.00000000000E+00  0.00000000000E+00  0.10030178261E+03  0.10030178261E+03  0.00000000000E+00 0. -1.
         -3   -1    0    0    0  501 -0.00000000000E+00 -0.00000000000E+00 -0.65041623712E+02  0.65041623712E+02  0.00000000000E+00 0.  1.
         24    2    1    2    0    0  0.14138949315E+02  0.35735161562E+02 -0.27491392759E+02  0.91758972539E+02  0.78657616960E+02 0.  0.
        -13    1    3    3    0    0  0.34659029106E+02 -0.59600822198E+01 -0.28516535903E+02  0.45276524807E+02  0.00000000000E+00 0.  1.
         14    1    3    3    0    0 -0.20520079791E+02  0.41695243782E+02  0.10251431438E+01  0.46482447732E+02  0.00000000000E+00 0. -1.
         -4    1    1    2    0  502 -0.14138949315E+02 -0.35735161562E+02  0.62751551653E+02  0.73584433778E+02  0.00000000000E+00 0.  1.
<mgrwt>
<rscale>  1 0.87543888E+02</rscale>
<asrwt>0</asrwt>
<pdfrwt beam="1">  1       21 0.15431043E-01 0.87543888E+02</pdfrwt>
<pdfrwt beam="2">  1       -3 0.10006404E-01 0.87543888E+02</pdfrwt>
<totfact> 0.12334454E+05</totfact>
</mgrwt>
</event>
<event>
 6    2  0.8544106E+000  0.9282481E+02  0.7546771E-02  0.1296152E+00
          2   -1    0    0  502    0 -0.00000000000E+00  0.00000000000E+00  0.23733507036E+03  0.23733507036E+03  0.00000000000E+00 0. -1.
         21   -1    0    0  501  502  0.00000000000E+00 -0.00000000000E+00 -0.19548686106E+02  0.19548686106E+02  0.00000000000E+00 0.  1.
         24    2    1    2    0    0 -0.38356321293E+02 -0.19370989068E+02  0.13908333506E+03  0.16721429370E+03  0.82280029927E+02 0.  0.
        -11    1    3    3    0    0 -0.55600599551E+02 -0.34655204988E+02  0.12217618370E+03  0.13863415801E+03  0.00000000000E+00 0.  1.
         12    1    3    3    0    0  0.17244278258E+02  0.15284215921E+02  0.16907151361E+02  0.28580135691E+02  0.00000000000E+00 0. -1.
          1    1    1    2  501    0  0.38356321293E+02  0.19370989068E+02  0.78703049186E+02  0.89669462761E+02  0.00000000000E+00 0. -1.
<mgrwt>
<rscale>  1 0.92824813E+02</rscale>
<asrwt>0</asrwt>
<pdfrwt beam="1">  1       21 0.30074903E-02 0.92824813E+02</pdfrwt>
<pdfrwt beam="2">  1        2 0.36513086E-01 0.92824813E+02</pdfrwt>
<totfact> 0.10299061E+06</totfact>
</mgrwt>
</event>
<event>
 6    2  0.8544106E+000  0.8778787E+02  0.7546771E-02  0.1308299E+00
         21   -1    0    0  501  502  0.00000000000E+00  0.00000000000E+00  0.27629254753E+01  0.27629254753E+01  0.00000000000E+00 0.  1.
          2   -1    0    0  502    0 -0.00000000000E+00 -0.00000000000E+00 -0.11680487022E+04  0.11680487022E+04  0.00000000000E+00 0. -1.
         24    2    1    2    0    0  0.29147372760E+00 -0.22992416004E+02 -0.10133793016E+04  0.10171746746E+04  0.84722923012E+02 0.  0.
        -11    1    3    3    0    0  0.23897831487E+02  0.22078847160E+02 -0.25107378462E+03  0.25317311699E+03  0.00000000000E+00 0.  1.
         12    1    3    3    0    0 -0.23606357760E+02 -0.45071263164E+02 -0.76230551698E+03  0.76400155766E+03  0.00000000000E+00 0. -1.
          1    1    1    2  501    0 -0.29147372760E+00  0.22992416004E+02 -0.15190647512E+03  0.15363695303E+03  0.00000000000E+00 0. -1.
<mgrwt>
<rscale>  1 0.87787868E+02</rscale>
<asrwt>0</asrwt>
<pdfrwt beam="1">  1       21 0.42506546E-03 0.87787868E+02</pdfrwt>
<pdfrwt beam="2">  1        2 0.17969980E+00 0.87787868E+02</pdfrwt>
<totfact> 0.35724920E+06</totfact>
</mgrwt>
</event>
<event>
 6    2  0.8544106E+000  0.7879206E+02  0.7546771E-02  0.1332515E+00
          4   -1    0    0  502    0 -0.00000000000E+00  0.00000000000E+00  0.10225971008E+02  0.10225971008E+02  0.00000000000E+00 0. -1.
         21   -1    0    0  501  502  0.00000000000E+00 -0.00000000000E+00 -0.38914479774E+03  0.38914479774E+03  0.00000000000E+00 0. -1.
         24    2    1    2    0    0  0.59224984003E+01 -0.19367244532E+02 -0.14889813767E+03  0.16846021562E+03  0.76144748328E+02 0.  0.
        -13    1    3    3    0    0  0.16845476812E+01  0.14776970676E+02 -0.12657700106E+03  0.12744776875E+03  0.00000000000E+00 0.  1.
         14    1    3    3    0    0  0.42379507192E+01 -0.34144215208E+02 -0.22321136608E+02  0.41012446866E+02  0.00000000000E+00 0. -1.
          3    1    1    2  501    0 -0.59224984003E+01  0.19367244532E+02 -0.23002068906E+03  0.23091055313E+03  0.00000000000E+00 0. -1.
<mgrwt>
<rscale>  1 0.78792061E+02</rscale>
<asrwt>0</asrwt>
<pdfrwt beam="1">  1       21 0.59868423E-01 0.78792061E+02</pdfrwt>
<pdfrwt beam="2">  1        4 0.15732265E-02 0.78792061E+02</pdfrwt>
<totfact> 0.14364272E+05</totfact>
</mgrwt>
</event>
<event>
 6    2  0.8544106E+000  0.8541844E+02  0.7546771E-02  0.1314342E+00
          2   -1    0    0  502    0 -0.00000000000E+00  0.00000000000E+00  0.10648027305E+04  0.10648027305E+04  0.00000000000E+00 0. -1.
         21   -1    0    0  501  502  0.00000000000E+00 -0.00000000000E+00 -0.44960220131E+01  0.44960220131E+01  0.00000000000E+00 0.  1.
         24    2    1    2    0    0  0.34324638032E+02 -0.26754981511E+01  0.45085151345E+03  0.45887187415E+03  0.78172697553E+02 0.  0.
        -11    1    3    3    0    0 -0.41494743276E-01 -0.36896809812E+02  0.20007306576E+03  0.20344681845E+03  0.00000000000E+00 0.  1.
         12    1    3    3    0    0  0.34366132775E+02  0.34221311661E+02  0.25077844769E+03  0.25542505570E+03  0.00000000000E+00 0. -1.
          1    1    1    2  501    0 -0.34324638032E+02  0.26754981511E+01  0.60945519501E+03  0.61042687834E+03  0.00000000000E+00 0. -1.
<mgrwt>
<rscale>  1 0.85418439E+02</rscale>
<asrwt>0</asrwt>
<pdfrwt beam="1">  1       21 0.69169654E-03 0.85418439E+02</pdfrwt>
<pdfrwt beam="2">  1        2 0.16381560E+00 0.85418439E+02</pdfrwt>
<totfact> 0.19269410E+06</totfact>
</mgrwt>
</event>
<event>
 6    2  0.8544106E+000  0.1025583E+03  0.7546771E-02  0.1275006E+00
         21   -1    0    0  501  502  0.00000000000E+00  0.00000000000E+00  0.17019083342E+01  0.17019083342E+01  0.00000000000E+00 0. -1.
          2   -1    0    0  502    0 -0.00000000000E+00 -0.00000000000E+00 -0.46159419155E+04  0.46159419155E+04  0.00000000000E+00 0. -1.
         24    2    1    2    0    0 -0.49302275587E+02 -0.17801190256E+02 -0.39527409119E+04  0.39540711829E+04  0.88151041502E+02 0.  0.
        -13    1    3    3    0    0 -0.23503914458E+02  0.22677936677E+02 -0.53659859810E+03  0.53759164641E+03  0.00000000000E+00 0.  1.
         14    1    3    3    0    0 -0.25798361130E+02 -0.40479126934E+02 -0.34161423138E+04  0.34164795364E+04  0.00000000000E+00 0. -1.
          1    1    1    2  501    0  0.49302275587E+02  0.17801190256E+02 -0.66149909531E+03  0.66357264097E+03  0.00000000000E+00 0. -1.
<mgrwt>
<rscale>  1 0.10255829E+03</rscale>
<asrwt>0</asrwt>
<pdfrwt beam="1">  1       21 0.26183347E-03 0.10255829E+03</pdfrwt>
<pdfrwt beam="2">  1        2 0.71014107E+00 0.10255829E+03</pdfrwt>
<totfact> 0.57319567E+04</totfact>
</mgrwt>
</event>
<event>
 6    2  0.8544106E+000  0.8395227E+02  0.7546771E-02  0.1318195E+00
         -3   -1    0    0    0  501 -0.00000000000E+00  0.00000000000E+00  0.65186280040E+02  0.65186280040E+02  0.00000000000E+00 0.  1.
         21   -1    0    0  501  502  0.00000000000E+00 -0.00000000000E+00 -0.71464514852E+02  0.71464514852E+02  0.00000000000E+00 0. -1.
         24    2    1    2    0    0  0.23582105075E+02  0.42573102528E+01  0.33355477214E+02  0.90335878296E+02  0.80459571693E+02 0.  0.
        -13    1    3    3    0    0 -0.28541723806E+02  0.11241239979E+02  0.17926593626E+02  0.35529681016E+02  0.00000000000E+00 0.  1.
         14    1    3    3    0    0  0.52123828880E+02 -0.69839297263E+01  0.15428883588E+02  0.54806197280E+02  0.00000000000E+00 0. -1.
         -4    1    1    2    0  502 -0.23582105075E+02 -0.42573102528E+01 -0.39633712026E+02  0.46314916596E+02  0.00000000000E+00 0.  1.
<mgrwt>
<rscale>  1 0.83952266E+02</rscale>
<asrwt>0</asrwt>
<pdfrwt beam="1">  1       21 0.10994541E-01 0.83952266E+02</pdfrwt>
<pdfrwt beam="2">  1       -3 0.10028659E-01 0.83952266E+02</pdfrwt>
<totfact> 0.22202782E+05</totfact>
</mgrwt>
</event>
<event>
 6    2  0.8544106E+000  0.9499010E+02  0.7546771E-02  0.1291198E+00
         21   -1    0    0  501  502  0.00000000000E+00  0.00000000000E+00  0.17629394682E+02  0.17629394682E+02  0.00000000000E+00 0.  1.
          2   -1    0    0  502    0 -0.00000000000E+00 -0.00000000000E+00 -0.45867189358E+03  0.45867189358E+03  0.00000000000E+00 0. -1.
         24    2    1    2    0    0 -0.12339501203E+02 -0.48143162529E+02 -0.40208460356E+03  0.41315269369E+03  0.80951173487E+02 0.  0.
        -13    1    3    3    0    0 -0.31439354069E+02 -0.62563131436E+02 -0.32416715407E+03  0.33164276289E+03  0.00000000000E+00 0.  1.
         14    1    3    3    0    0  0.19099852867E+02  0.14419968907E+02 -0.77917449495E+02  0.81509930798E+02  0.00000000000E+00 0. -1.
          1    1    1    2  501    0  0.12339501203E+02  0.48143162529E+02 -0.38957895335E+02  0.63148594578E+02  0.00000000000E+00 0. -1.
<mgrwt>
<rscale>  1 0.94990104E+02</rscale>
<asrwt>0</asrwt>
<pdfrwt beam="1">  1       21 0.27122146E-02 0.94990104E+02</pdfrwt>
<pdfrwt beam="2">  1        2 0.70564905E-01 0.94990104E+02</pdfrwt>
<totfact> 0.61055813E+05</totfact>
</mgrwt>
</event>
<event>
 6    2  0.8544106E+000  0.8241439E+02  0.7546771E-02  0.1322336E+00
         21   -1    0    0  501  502  0.00000000000E+00  0.00000000000E+00  0.20195136826E+02  0.20195136826E+02  0.00000000000E+00 0. -1.
          2   -1    0    0  502    0 -0.00000000000E+00 -0.00000000000E+00 -0.13926701309E+03  0.13926701309E+03  0.00000000000E+00 0. -1.
         24    2    1    2    0    0 -0.10762074237E+02 -0.20756314627E+02 -0.87851295372E+02  0.12045738726E+03  0.79028382290E+02 0.  0.
        -13    1    3    3    0    0 -0.14727960815E+01  0.30339222988E+02 -0.29497865031E+02  0.42341015826E+02  0.00000000000E+00 0.  1.
         14    1    3    3    0    0 -0.92892781558E+01 -0.51095537615E+02 -0.58353430341E+02  0.78116371430E+02  0.00000000000E+00 0. -1.
          1    1    1    2  501    0  0.10762074237E+02  0.20756314627E+02 -0.31220580889E+02  0.39004762656E+02  0.00000000000E+00 0. -1.
<mgrwt>
<rscale>  1 0.82414392E+02</rscale>
<asrwt>0</asrwt>
<pdfrwt beam="1">  1       21 0.31069443E-02 0.82414392E+02</pdfrwt>
<pdfrwt beam="2">  1        2 0.21425693E-01 0.82414392E+02</pdfrwt>
<totfact> 0.17102308E+06</totfact>
</mgrwt>
</event>
<event>
 6    2  0.8544106E+000  0.1307974E+03  0.7546771E-02  0.1226277E+00
          2   -1    0    0  502    0 -0.00000000000E+00  0.00000000000E+00  0.13337588734E+04  0.13337588734E+04  0.00000000000E+00 0. -1.
         21   -1    0    0  501  502  0.00000000000E+00 -0.00000000000E+00 -0.13235740496E+02  0.13235740496E+02  0.00000000000E+00 0.  1.
         24    2    1    2    0    0  0.40152120562E+02  0.95050909088E+02  0.40315699598E+03  0.42384376095E+03  0.80380981527E+02 0.  0.
        -11    1    3    3    0    0  0.28210370378E+02  0.79573848217E+01  0.36586489750E+02  0.46879805912E+02  0.00000000000E+00 0.  1.
         12    1    3    3    0    0  0.11941750184E+02  0.87093524266E+02  0.36657050623E+03  0.37696395504E+03  0.00000000000E+00 0. -1.
          1    1    1    2  501    0 -0.40152120562E+02 -0.95050909088E+02  0.91736613697E+03  0.92315085298E+03  0.00000000000E+00 0. -1.
<mgrwt>
<rscale>  1 0.13079744E+03</rscale>
<asrwt>0</asrwt>
<pdfrwt beam="1">  1       21 0.20362688E-02 0.13079744E+03</pdfrwt>
<pdfrwt beam="2">  1        2 0.20519357E+00 0.13079744E+03</pdfrwt>
<totfact> 0.25596776E+05</totfact>
</mgrwt>
</event>
<event>
 6    2  0.8544106E+000  0.8724775E+02  0.7546771E-02  0.1309657E+00
         21   -1    0    0  501  502  0.00000000000E+00  0.00000000000E+00  0.86311424737E+02  0.86311424737E+02  0.00000000000E+00 0.  1.
         -1   -1    0    0    0  501 -0.00000000000E+00 -0.00000000000E+00 -0.83461450846E+02  0.83461450846E+02  0.00000000000E+00 0.  1.
         24    2    1    2    0    0  0.36808383909E+02 -0.20034234455E+02 -0.51368315468E+02  0.10124659904E+03  0.76524128917E+02 0.  0.
        -13    1    3    3    0    0  0.45047784725E+02  0.13546533944E+02 -0.46824041257E+02  0.66372451591E+02  0.00000000000E+00 0.  1.
         14    1    3    3    0    0 -0.82394008159E+01 -0.33580768399E+02 -0.45442742110E+01  0.34874147447E+02  0.00000000000E+00 0. -1.
         -2    1    1    2    0  502 -0.36808383909E+02  0.20034234455E+02  0.54218289358E+02  0.68526276545E+02  0.00000000000E+00 0.  1.
<mgrwt>
<rscale>  1 0.87247751E+02</rscale>
<asrwt>0</asrwt>
<pdfrwt beam="1">  1       21 0.13278681E-01 0.87247751E+02</pdfrwt>
<pdfrwt beam="2">  1       -1 0.12840223E-01 0.87247751E+02</pdfrwt>
<totfact> 0.17177009E+05</totfact>
</mgrwt>
</event>
<event>
 6    2  0.8544106E+000  0.8765493E+02  0.7546771E-02  0.1308632E+00
         21   -1    0    0  501  502  0.00000000000E+00  0.00000000000E+00  0.13674613407E+02  0.13674613407E+02  0.00000000000E+00 0. -1.
          2   -1    0    0  502    0 -0.00000000000E+00 -0.00000000000E+00 -0.30419646889E+03  0.30419646889E+03  0.00000000000E+00 0. -1.
         24    2    1    2    0    0  0.68755582553E+01  0.38738006212E+02 -0.22463683280E+03  0.24113293897E+03  0.78329312400E+02 0.  0.
        -13    1    3    3    0    0 -0.16989400036E+02 -0.12806058346E+02 -0.12187268276E+03  0.12371574535E+03  0.00000000000E+00 0.  1.
         14    1    3    3    0    0  0.23864958292E+02  0.51544064559E+02 -0.10276415004E+03  0.11741719363E+03  0.00000000000E+00 0. -1.
          1    1    1    2  501    0 -0.68755582553E+01 -0.38738006212E+02 -0.65885022681E+02  0.76738143320E+02  0.00000000000E+00 0. -1.
<mgrwt>
<rscale>  1 0.87654935E+02</rscale>
<asrwt>0</asrwt>
<pdfrwt beam="1">  1       21 0.21037869E-02 0.87654935E+02</pdfrwt>
<pdfrwt beam="2">  1        2 0.46799451E-01 0.87654935E+02</pdfrwt>
<totfact> 0.14048701E+06</totfact>
</mgrwt>
</event>
<event>
 6    2  0.8544106E+000  0.9831036E+02  0.7546771E-02  0.1283890E+00
         21   -1    0    0  501  502  0.00000000000E+00  0.00000000000E+00  0.51913932395E+01  0.51913932395E+01  0.00000000000E+00 0. -1.
          2   -1    0    0  502    0 -0.00000000000E+00 -0.00000000000E+00 -0.16709027583E+04  0.16709027583E+04  0.00000000000E+00 0. -1.
         24    2    1    2    0    0  0.27151878478E+02  0.49603602709E+02 -0.14419673265E+04  0.14453147402E+04  0.80418814011E+02 0.  0.
        -11    1    3    3    0    0  0.27871488844E+02 -0.86699496241E+01 -0.21603018595E+03  0.21799318604E+03  0.00000000000E+00 0.  1.
         12    1    3    3    0    0 -0.71961036581E+00  0.58273552333E+02 -0.12259371405E+04  0.12273215541E+04  0.00000000000E+00 0. -1.
          1    1    1    2  501    0 -0.27151878478E+02 -0.49603602709E+02 -0.22374403863E+03  0.23077941141E+03  0.00000000000E+00 0. -1.
<mgrwt>
<rscale>  1 0.98310363E+02</rscale>
<asrwt>0</asrwt>
<pdfrwt beam="1">  1       21 0.79867548E-03 0.98310363E+02</pdfrwt>
<pdfrwt beam="2">  1        2 0.25706209E+00 0.98310363E+02</pdfrwt>
<totfact> 0.74680487E+05</totfact>
</mgrwt>
</event>
<event>
 6    2  0.8544106E+000  0.8133489E+02  0.7546771E-02  0.1325305E+00
         21   -1    0    0  501  502  0.00000000000E+00  0.00000000000E+00  0.14328002920E+02  0.14328002920E+02  0.00000000000E+00 0. -1.
         -1   -1    0    0    0  501 -0.00000000000E+00 -0.00000000000E+00 -0.19032306354E+03  0.19032306354E+03  0.00000000000E+00 0.  1.
         24    2    1    2    0    0  0.18640212411E+02  0.10612181957E+02 -0.15252484739E+03  0.17285599084E+03  0.78455647174E+02 0.  0.
        -13    1    3    3    0    0  0.11416137293E+02 -0.17891696706E+00 -0.15825189844E+03  0.15866323948E+03  0.00000000000E+00 0.  1.
         14    1    3    3    0    0  0.72240751181E+01  0.10791098924E+02  0.57270510550E+01  0.14192751357E+02  0.00000000000E+00 0. -1.
         -2    1    1    2    0  502 -0.18640212411E+02 -0.10612181957E+02 -0.23470213231E+02  0.31795075620E+02  0.00000000000E+00 0.  1.
<mgrwt>
<rscale>  1 0.81334891E+02</rscale>
<asrwt>0</asrwt>
<pdfrwt beam="1">  1       21 0.22043083E-02 0.81334891E+02</pdfrwt>
<pdfrwt beam="2">  1       -1 0.29280469E-01 0.81334891E+02</pdfrwt>
<totfact> 0.93201781E+05</totfact>
</mgrwt>
</event>
<event>
 6    2  0.8544106E+000  0.9185333E+02  0.7546771E-02  0.1298425E+00
         21   -1    0    0  501  502  0.00000000000E+00  0.00000000000E+00  0.12673701157E+02  0.12673701157E+02  0.00000000000E+00 0. -1.
         -3   -1    0    0    0  501 -0.00000000000E+00 -0.00000000000E+00 -0.38297778895E+03  0.38297778895E+03  0.00000000000E+00 0.  1.
         24    2    1    2    0    0 -0.24887419742E+02  0.17027599432E+02 -0.34260925447E+03  0.35470852250E+03  0.86762387476E+02 0.  0.
        -11    1    3    3    0    0 -0.47732078527E+02  0.32799485774E+02 -0.28416095620E+03  0.29000277002E+03  0.00000000000E+00 0.  1.
         12    1    3    3    0    0  0.22844658785E+02 -0.15771886343E+02 -0.58448298270E+02  0.64705752483E+02  0.00000000000E+00 0. -1.
         -4    1    1    2    0  502  0.24887419742E+02 -0.17027599432E+02 -0.27694833321E+02  0.40942967607E+02  0.00000000000E+00 0.  1.
<mgrwt>
<rscale>  1 0.91853332E+02</rscale>
<asrwt>0</asrwt>
<pdfrwt beam="1">  1       21 0.19498000E-02 0.91853332E+02</pdfrwt>
<pdfrwt beam="2">  1       -3 0.58919664E-01 0.91853332E+02</pdfrwt>
<totfact> 0.16455831E+05</totfact>
</mgrwt>
</event>
<event>
 6    2  0.8544106E+000  0.1911215E+03  0.7546771E-02  0.1157454E+00
          2   -1    0    0  502    0 -0.00000000000E+00  0.00000000000E+00  0.25280729973E+03  0.25280729973E+03  0.00000000000E+00 0. -1.
         21   -1    0    0  501  502  0.00000000000E+00 -0.00000000000E+00 -0.15775318669E+03  0.15775318669E+03  0.00000000000E+00 0. -1.
         24    2    1    2    0    0  0.14983321013E+03  0.84867883035E+02  0.13474613524E+03  0.23384601317E+03  0.82914947303E+02 0.  0.
        -13    1    3    3    0    0  0.37523573205E+01  0.25379971708E+02 -0.11025092204E+01  0.25679538079E+02  0.00000000000E+00 0.  1.
         14    1    3    3    0    0  0.14608085281E+03  0.59487911327E+02  0.13584864446E+03  0.20816647509E+03  0.00000000000E+00 0. -1.
          1    1    1    2  501    0 -0.14983321013E+03 -0.84867883035E+02 -0.39692022207E+02  0.17671447325E+03  0.00000000000E+00 0. -1.
<mgrwt>
<rscale>  1 0.19112152E+03</rscale>
<asrwt>0</asrwt>
<pdfrwt beam="1">  1       21 0.24269721E-01 0.19112152E+03</pdfrwt>
<pdfrwt beam="2">  1        2 0.38893431E-01 0.19112152E+03</pdfrwt>
<totfact> 0.26119350E+04</totfact>
</mgrwt>
</event>
<event>
 6    2  0.8544106E+000  0.8707947E+02  0.7546771E-02  0.1310082E+00
          4   -1    0    0  502    0 -0.00000000000E+00  0.00000000000E+00  0.11970222706E+03  0.11970222706E+03  0.00000000000E+00 0. -1.
         21   -1    0    0  501  502  0.00000000000E+00 -0.00000000000E+00 -0.72953333345E+02  0.72953333345E+02  0.00000000000E+00 0.  1.
         24    2    1    2    0    0 -0.79784370948E+01 -0.34415780092E+02 -0.42332895657E+02  0.96824111623E+02  0.79591036926E+02 0.  0.
        -11    1    3    3    0    0 -0.13894565676E+02 -0.23896806205E+02 -0.65283043545E+02  0.70894231617E+02  0.00000000000E+00 0.  1.
         12    1    3    3    0    0  0.59161285817E+01 -0.10518973888E+02  0.22950147888E+02  0.25929880006E+02  0.00000000000E+00 0. -1.
          3    1    1    2  501    0  0.79784370948E+01  0.34415780092E+02  0.89081789369E+02  0.95831448778E+02  0.00000000000E+00 0. -1.
<mgrwt>
<rscale>  1 0.87079473E+02</rscale>
<asrwt>0</asrwt>
<pdfrwt beam="1">  1       21 0.11223590E-01 0.87079473E+02</pdfrwt>
<pdfrwt beam="2">  1        4 0.18415727E-01 0.87079473E+02</pdfrwt>
<totfact> 0.65637083E+04</totfact>
</mgrwt>
</event>
<event>
 6    2  0.8544106E+000  0.8314418E+02  0.7546771E-02  0.1320358E+00
          2   -1    0    0  502    0 -0.00000000000E+00  0.00000000000E+00  0.15233581942E+04  0.15233581942E+04  0.00000000000E+00 0. -1.
         21   -1    0    0  501  502  0.00000000000E+00 -0.00000000000E+00 -0.18303980390E+01  0.18303980390E+01  0.00000000000E+00 0.  1.
         24    2    1    2    0    0 -0.21491959247E+02  0.42596348225E+01  0.12631893033E+04  0.12659226560E+04  0.80205400048E+02 0.  0.
        -13    1    3    3    0    0 -0.20652660630E+02 -0.27673081061E+02  0.26728965563E+03  0.26951083802E+03  0.00000000000E+00 0.  1.
         14    1    3    3    0    0 -0.83929861628E+00  0.31932715883E+02  0.99589964768E+03  0.99641181798E+03  0.00000000000E+00 0. -1.
          1    1    1    2  501    0  0.21491959247E+02 -0.42596348225E+01  0.25833849286E+03  0.25926593624E+03  0.00000000000E+00 0. -1.
<mgrwt>
<rscale>  1 0.83144182E+02</rscale>
<asrwt>0</asrwt>
<pdfrwt beam="1">  1       21 0.28160092E-03 0.83144182E+02</pdfrwt>
<pdfrwt beam="2">  1        2 0.23436179E+00 0.83144182E+02</pdfrwt>
<totfact> 0.43205691E+06</totfact>
</mgrwt>
</event>
<event>
 6    2  0.8544106E+000  0.8490267E+02  0.7546771E-02  0.1315687E+00
         -1   -1    0    0    0  501 -0.00000000000E+00  0.00000000000E+00  0.54472793206E+03  0.54472793206E+03  0.00000000000E+00 0.  1.
         21   -1    0    0  501  502  0.00000000000E+00 -0.00000000000E+00 -0.54786342405E+01  0.54786342405E+01  0.00000000000E+00 0. -1.
         24    2    1    2    0    0  0.18533080315E+02 -0.13987310581E+02  0.38758751802E+03  0.39677770534E+03  0.81666048073E+02 0.  0.
        -13    1    3    3    0    0  0.92599034224E+01  0.31945523602E+02  0.22929916231E+03  0.23169887381E+03  0.00000000000E+00 0.  1.
         14    1    3    3    0    0  0.92731768923E+01 -0.45932834183E+02  0.15828835571E+03  0.16507883153E+03  0.00000000000E+00 0. -1.
         -2    1    1    2    0  502 -0.18533080315E+02  0.13987310581E+02  0.15166177980E+03  0.15342886096E+03  0.00000000000E+00 0.  1.
<mgrwt>
<rscale>  1 0.84902670E+02</rscale>
<asrwt>0</asrwt>
<pdfrwt beam="1">  1       21 0.84286724E-03 0.84902670E+02</pdfrwt>
<pdfrwt beam="2">  1       -1 0.83804254E-01 0.84902670E+02</pdfrwt>
<totfact> 0.63125853E+05</totfact>
</mgrwt>
</event>
<event>
 6    2  0.8544106E+000  0.8465457E+02  0.7546771E-02  0.1316338E+00
          2   -1    0    0  502    0 -0.00000000000E+00  0.00000000000E+00  0.11199477029E+04  0.11199477029E+04  0.00000000000E+00 0. -1.
         21   -1    0    0  501  502  0.00000000000E+00 -0.00000000000E+00 -0.39177057552E+01  0.39177057552E+01  0.00000000000E+00 0. -1.
         24    2    1    2    0    0  0.65040369403E+01 -0.21741289971E+02  0.10605552810E+04  0.10639285226E+04  0.81556182029E+02 0.  0.
        -11    1    3    3    0    0 -0.14441469865E+01  0.26000447942E+02  0.16279240645E+03  0.16486199213E+03  0.00000000000E+00 0.  1.
         12    1    3    3    0    0  0.79481839269E+01 -0.47741737913E+02  0.89776287457E+03  0.89906653042E+03  0.00000000000E+00 0. -1.
          1    1    1    2  501    0 -0.65040369403E+01  0.21741289971E+02  0.55474716153E+02  0.59936886126E+02  0.00000000000E+00 0. -1.
<mgrwt>
<rscale>  1 0.84654575E+02</rscale>
<asrwt>0</asrwt>
<pdfrwt beam="1">  1       21 0.60272485E-03 0.84654575E+02</pdfrwt>
<pdfrwt beam="2">  1        2 0.17229939E+00 0.84654575E+02</pdfrwt>
<totfact> 0.22164960E+06</totfact>
</mgrwt>
</event>
<event>
 6    2  0.8544106E+000  0.8504876E+02  0.7546771E-02  0.1315305E+00
         -1   -1    0    0    0  501 -0.00000000000E+00  0.00000000000E+00  0.12616642006E+04  0.12616642006E+04  0.00000000000E+00 0.  1.
         21   -1    0    0  501  502  0.00000000000E+00 -0.00000000000E+00 -0.24941718346E+01  0.24941718346E+01  0.00000000000E+00 0. -1.
         24    2    1    2    0    0  0.69503144045E+01  0.25407389148E+02  0.10210095482E+04  0.10245456499E+04  0.80866859312E+02 0.  0.
        -13    1    3    3    0    0  0.31860522280E+01  0.40650089979E+01  0.95609733835E+03  0.95611128831E+03  0.00000000000E+00 0.  1.
         14    1    3    3    0    0  0.37642621764E+01  0.21342380150E+02  0.64912209860E+02  0.68434361611E+02  0.00000000000E+00 0. -1.
         -2    1    1    2    0  502 -0.69503144045E+01 -0.25407389148E+02  0.23816048051E+03  0.23961272247E+03  0.00000000000E+00 0.  1.
<mgrwt>
<rscale>  1 0.85048758E+02</rscale>
<asrwt>0</asrwt>
<pdfrwt beam="1">  1       21 0.38371975E-03 0.85048758E+02</pdfrwt>
<pdfrwt beam="2">  1       -1 0.19410168E+00 0.85048758E+02</pdfrwt>
<totfact> 0.27741378E+05</totfact>
</mgrwt>
</event>
<event>
 6    2  0.8544106E+000  0.8343384E+02  0.7546771E-02  0.1319580E+00
          4   -1    0    0  502    0 -0.00000000000E+00  0.00000000000E+00  0.88412206338E+02  0.88412206338E+02  0.00000000000E+00 0. -1.
         21   -1    0    0  501  502  0.00000000000E+00 -0.00000000000E+00 -0.56089269848E+02  0.56089269848E+02  0.00000000000E+00 0.  1.
         24    2    1    2    0    0 -0.71698148289E+01  0.20794350295E+02  0.64546314184E+02  0.10548664159E+03  0.80482256613E+02 0.  0.
        -13    1    3    3    0    0 -0.10676530340E+02  0.52421400840E+01 -0.17911958114E+02  0.21501315686E+02  0.00000000000E+00 0.  1.
         14    1    3    3    0    0  0.35067155112E+01  0.15552210211E+02  0.82458272298E+02  0.83985325900E+02  0.00000000000E+00 0. -1.
          3    1    1    2  501    0  0.71698148289E+01 -0.20794350295E+02 -0.32223377694E+02  0.39014834600E+02  0.00000000000E+00 0. -1.
<mgrwt>
<rscale>  1 0.83433835E+02</rscale>
<asrwt>0</asrwt>
<pdfrwt beam="1">  1       21 0.86291185E-02 0.83433835E+02</pdfrwt>
<pdfrwt beam="2">  1        4 0.13601878E-01 0.83433835E+02</pdfrwt>
<totfact> 0.17373324E+05</totfact>
</mgrwt>
</event>
<event>
 6    2  0.8544106E+000  0.8520205E+02  0.7546771E-02  0.1314905E+00
          4   -1    0    0  502    0 -0.00000000000E+00  0.00000000000E+00  0.16094564220E+03  0.16094564220E+03  0.00000000000E+00 0. -1.
         21   -1    0    0  501  502  0.00000000000E+00 -0.00000000000E+00 -0.23947355994E+02  0.23947355994E+02  0.00000000000E+00 0.  1.
         24    2    1    2    0    0  0.28100078641E+02  0.61735575203E+01  0.12974976694E+03  0.15522368301E+03  0.80197646548E+02 0.  0.
        -13    1    3    3    0    0  0.35251925604E+02 -0.18040267528E+02  0.23570342362E+02  0.46083734118E+02  0.00000000000E+00 0.  1.
         14    1    3    3    0    0 -0.71518469631E+01  0.24213825049E+02  0.10617942458E+03  0.10913994889E+03  0.00000000000E+00 0. -1.
          3    1    1    2  501    0 -0.28100078641E+02 -0.61735575203E+01  0.72485192565E+01  0.29669315184E+02  0.00000000000E+00 0. -1.
<mgrwt>
<rscale>  1 0.85202052E+02</rscale>
<asrwt>0</asrwt>
<pdfrwt beam="1">  1       21 0.36842087E-02 0.85202052E+02</pdfrwt>
<pdfrwt beam="2">  1        4 0.24760867E-01 0.85202052E+02</pdfrwt>
<totfact> 0.25159382E+05</totfact>
</mgrwt>
</event>
<event>
 6    2  0.8544106E+000  0.8043030E+02  0.7546771E-02  0.1327835E+00
          2   -1    0    0  502    0 -0.00000000000E+00  0.00000000000E+00  0.32417442107E+03  0.32417442107E+03  0.00000000000E+00 0. -1.
         21   -1    0    0  501  502  0.00000000000E+00 -0.00000000000E+00 -0.78863332363E+01  0.78863332363E+01  0.00000000000E+00 0. -1.
         24    2    1    2    0    0  0.17842635522E+02 -0.10462884405E+02  0.25347466798E+03  0.26592939029E+03  0.77725167879E+02 0.  0.
        -13    1    3    3    0    0 -0.29063555125E+02  0.38626048502E+01  0.67422692081E+02  0.73521625119E+02  0.00000000000E+00 0.  1.
         14    1    3    3    0    0  0.46906190647E+02 -0.14325489255E+02  0.18605197590E+03  0.19240776517E+03  0.00000000000E+00 0. -1.
          1    1    1    2  501    0 -0.17842635522E+02  0.10462884405E+02  0.62813419854E+02  0.66131364013E+02  0.00000000000E+00 0. -1.
<mgrwt>
<rscale>  1 0.80430301E+02</rscale>
<asrwt>0</asrwt>
<pdfrwt beam="1">  1       21 0.12132823E-02 0.80430301E+02</pdfrwt>
<pdfrwt beam="2">  1        2 0.49872978E-01 0.80430301E+02</pdfrwt>
<totfact> 0.31109739E+06</totfact>
</mgrwt>
</event>
<event>
 6    2  0.8544106E+000  0.8202977E+02  0.7546771E-02  0.1323388E+00
         21   -1    0    0  501  502  0.00000000000E+00  0.00000000000E+00  0.79766270064E+02  0.79766270064E+02  0.00000000000E+00 0. -1.
         -1   -1    0    0    0  501 -0.00000000000E+00 -0.00000000000E+00 -0.33437813151E+02  0.33437813151E+02  0.00000000000E+00 0.  1.
         24    2    1    2    0    0  0.20537903911E+02  0.52408655269E+01  0.35185187243E+02  0.89257379320E+02  0.79243991527E+02 0.  0.
        -11    1    3    3    0    0  0.13347766515E+02  0.12175208415E+02 -0.23548399396E+02  0.29680392265E+02  0.00000000000E+00 0.  1.
         12    1    3    3    0    0  0.71901373951E+01 -0.69343428879E+01  0.58733586639E+02  0.59576987055E+02  0.00000000000E+00 0. -1.
         -2    1    1    2    0  502 -0.20537903911E+02 -0.52408655269E+01  0.11143269670E+02  0.23946703895E+02  0.00000000000E+00 0.  1.
<mgrwt>
<rscale>  1 0.82029765E+02</rscale>
<asrwt>0</asrwt>
<pdfrwt beam="1">  1       21 0.12271734E-01 0.82029765E+02</pdfrwt>
<pdfrwt beam="2">  1       -1 0.51442790E-02 0.82029765E+02</pdfrwt>
<totfact> 0.76778180E+05</totfact>
</mgrwt>
</event>
<event>
 6    2  0.8544106E+000  0.9108404E+02  0.7546771E-02  0.1300248E+00
         21   -1    0    0  501  502  0.00000000000E+00  0.00000000000E+00  0.90674453820E+01  0.90674453820E+01  0.00000000000E+00 0.  1.
          2   -1    0    0  502    0 -0.00000000000E+00 -0.00000000000E+00 -0.55221601025E+03  0.55221601025E+03  0.00000000000E+00 0. -1.
         24    2    1    2    0    0  0.71649784973E+00 -0.44954775524E+02 -0.42976277788E+03  0.43930894230E+03  0.79213990698E+02 0.  0.
        -11    1    3    3    0    0  0.37980392986E+01 -0.67270943023E+02 -0.28867301254E+03  0.29643197035E+03  0.00000000000E+00 0.  1.
         12    1    3    3    0    0 -0.30815414488E+01  0.22316167498E+02 -0.14108976534E+03  0.14287697195E+03  0.00000000000E+00 0. -1.
          1    1    1    2  501    0 -0.71649784973E+00  0.44954775524E+02 -0.11338578699E+03  0.12197451333E+03  0.00000000000E+00 0. -1.
<mgrwt>
<rscale>  1 0.91084036E+02</rscale>
<asrwt>0</asrwt>
<pdfrwt beam="1">  1       21 0.13949911E-02 0.91084036E+02</pdfrwt>
<pdfrwt beam="2">  1        2 0.84956337E-01 0.91084036E+02</pdfrwt>
<totfact> 0.14409858E+06</totfact>
</mgrwt>
</event>
<event>
 6    2  0.8544106E+000  0.8649665E+02  0.7546771E-02  0.1311564E+00
         -1   -1    0    0    0  501 -0.00000000000E+00  0.00000000000E+00  0.69794205155E+03  0.69794205155E+03  0.00000000000E+00 0.  1.
         21   -1    0    0  501  502  0.00000000000E+00 -0.00000000000E+00 -0.48883295998E+01  0.48883295998E+01  0.00000000000E+00 0.  1.
         24    2    1    2    0    0  0.49762720794E+01  0.25748362204E+02  0.43999297656E+03  0.44841441802E+03  0.82425296010E+02 0.  0.
        -13    1    3    3    0    0 -0.36677194530E+02  0.42252316613E+01  0.25056204160E+03  0.25326745916E+03  0.00000000000E+00 0.  1.
         14    1    3    3    0    0  0.41653466609E+02  0.21523130543E+02  0.18943093497E+03  0.19514695886E+03  0.00000000000E+00 0. -1.
         -2    1    1    2    0  502 -0.49762720794E+01 -0.25748362204E+02  0.25306074539E+03  0.25441596313E+03  0.00000000000E+00 0.  1.
<mgrwt>
<rscale>  1 0.86496652E+02</rscale>
<asrwt>0</asrwt>
<pdfrwt beam="1">  1       21 0.75205126E-03 0.86496652E+02</pdfrwt>
<pdfrwt beam="2">  1       -1 0.10737562E+00 0.86496652E+02</pdfrwt>
<totfact> 0.44449848E+05</totfact>
</mgrwt>
</event>
<event>
 6    2  0.8544106E+000  0.1030142E+03  0.7546771E-02  0.1274082E+00
          2   -1    0    0  502    0 -0.00000000000E+00  0.00000000000E+00  0.76904356322E+03  0.76904356322E+03  0.00000000000E+00 0. -1.
         21   -1    0    0  501  502  0.00000000000E+00 -0.00000000000E+00 -0.89967786077E+01  0.89967786077E+01  0.00000000000E+00 0. -1.
         24    2    1    2    0    0  0.54764093386E+02  0.26906104509E+02  0.41185082149E+03  0.42453861182E+03  0.82999333607E+02 0.  0.
        -11    1    3    3    0    0  0.17222826360E+02 -0.29404432110E+02  0.10829375547E+03  0.11352877982E+03  0.00000000000E+00 0.  1.
         12    1    3    3    0    0  0.37541267026E+02  0.56310536619E+02  0.30355706603E+03  0.31100983200E+03  0.00000000000E+00 0. -1.
          1    1    1    2  501    0 -0.54764093386E+02 -0.26906104509E+02  0.34819596312E+03  0.35350173000E+03  0.00000000000E+00 0. -1.
<mgrwt>
<rscale>  1 0.10301424E+03</rscale>
<asrwt>0</asrwt>
<pdfrwt beam="1">  1       21 0.13841204E-02 0.10301424E+03</pdfrwt>
<pdfrwt beam="2">  1        2 0.11831434E+00 0.10301424E+03</pdfrwt>
<totfact> 0.10083959E+06</totfact>
</mgrwt>
</event>
<event>
 6    2  0.8544106E+000  0.1013824E+03  0.7546771E-02  0.1277416E+00
          2   -1    0    0  502    0 -0.00000000000E+00  0.00000000000E+00  0.38624658179E+04  0.38624658179E+04  0.00000000000E+00 0. -1.
         21   -1    0    0  501  502  0.00000000000E+00 -0.00000000000E+00 -0.17368040570E+01  0.17368040570E+01  0.00000000000E+00 0. -1.
         24    2    1    2    0    0  0.20516305477E+02  0.58263749716E+02  0.25629293620E+04  0.25649337815E+04  0.80391578093E+02 0.  0.
        -13    1    3    3    0    0 -0.26138013510E+02 -0.68333389859E+00  0.62357504921E+03  0.62412298843E+03  0.00000000000E+00 0.  1.
         14    1    3    3    0    0  0.46654318987E+02  0.58947083615E+02  0.19393543128E+04  0.19408107931E+04  0.00000000000E+00 0. -1.
          1    1    1    2  501    0 -0.20516305477E+02 -0.58263749716E+02  0.12977996519E+04  0.12992688404E+04  0.00000000000E+00 0. -1.
<mgrwt>
<rscale>  1 0.10138239E+03</rscale>
<asrwt>0</asrwt>
<pdfrwt beam="1">  1       21 0.26720372E-03 0.10138239E+03</pdfrwt>
<pdfrwt beam="2">  1        2 0.59421864E+00 0.10138239E+03</pdfrwt>
<totfact> 0.22908334E+05</totfact>
</mgrwt>
</event>
<event>
 6    2  0.8544106E+000  0.8342702E+02  0.7546771E-02  0.1319598E+00
          4   -1    0    0  502    0 -0.00000000000E+00  0.00000000000E+00  0.81480013481E+02  0.81480013481E+02  0.00000000000E+00 0. -1.
         21   -1    0    0  501  502  0.00000000000E+00 -0.00000000000E+00 -0.33987228863E+02  0.33987228863E+02  0.00000000000E+00 0.  1.
         24    2    1    2    0    0  0.21239920706E+02  0.44696825899E+01  0.39849599158E+02  0.92455710930E+02  0.80554054128E+02 0.  0.
        -11    1    3    3    0    0  0.15838229622E+02 -0.29875241070E+02 -0.65836153574E+01  0.34448853939E+02  0.00000000000E+00 0.  1.
         12    1    3    3    0    0  0.54016910845E+01  0.34344923660E+02  0.46433214516E+02  0.58006856991E+02  0.00000000000E+00 0. -1.
          3    1    1    2  501    0 -0.21239920706E+02 -0.44696825899E+01  0.76431854597E+01  0.23011531414E+02  0.00000000000E+00 0. -1.
<mgrwt>
<rscale>  1 0.83427022E+02</rscale>
<asrwt>0</asrwt>
<pdfrwt beam="1">  1       21 0.52288044E-02 0.83427022E+02</pdfrwt>
<pdfrwt beam="2">  1        4 0.12535387E-01 0.83427022E+02</pdfrwt>
<totfact> 0.46500920E+05</totfact>
</mgrwt>
</event>
<event>
 6    2  0.8544106E+000  0.1058494E+03  0.7546771E-02  0.1268455E+00
          4   -1    0    0  502    0 -0.00000000000E+00  0.00000000000E+00  0.22461632328E+03  0.22461632328E+03  0.00000000000E+00 0. -1.
         21   -1    0    0  501  502  0.00000000000E+00 -0.00000000000E+00 -0.47289256069E+02  0.47289256069E+02  0.00000000000E+00 0. -1.
         24    2    1    2    0    0 -0.26801851564E+02 -0.58241045608E+02  0.28140117735E+02  0.10952607161E+03  0.84224316528E+02 0.  0.
        -11    1    3    3    0    0  0.24902353572E+01  0.10775919585E+02 -0.18264034930E+02  0.21351737329E+02  0.00000000000E+00 0.  1.
         12    1    3    3    0    0 -0.29292086921E+02 -0.69016965194E+02  0.46404152664E+02  0.88174334277E+02  0.00000000000E+00 0. -1.
          3    1    1    2  501    0  0.26801851564E+02  0.58241045608E+02  0.14918694948E+03  0.16237950774E+03  0.00000000000E+00 0. -1.
<mgrwt>
<rscale>  1 0.10584939E+03</rscale>
<asrwt>0</asrwt>
<pdfrwt beam="1">  1       21 0.72752703E-02 0.10584939E+03</pdfrwt>
<pdfrwt beam="2">  1        4 0.34556357E-01 0.10584939E+03</pdfrwt>
<totfact> 0.44907647E+04</totfact>
</mgrwt>
</event>
<event>
 6    2  0.8544106E+000  0.8909614E+02  0.7546771E-02  0.1305055E+00
          2   -1    0    0  502    0 -0.00000000000E+00  0.00000000000E+00  0.21878819771E+03  0.21878819771E+03  0.00000000000E+00 0. -1.
         21   -1    0    0  501  502  0.00000000000E+00 -0.00000000000E+00 -0.85620588845E+02  0.85620588845E+02  0.00000000000E+00 0. -1.
         24    2    1    2    0    0  0.29299082583E+02  0.28130619588E+02  0.20408383313E+03  0.22268437855E+03  0.79299139394E+02 0.  0.
        -11    1    3    3    0    0  0.43904303503E+02  0.39970948889E+02  0.95261841697E+02  0.11225009178E+03  0.00000000000E+00 0.  1.
         12    1    3    3    0    0 -0.14605220919E+02 -0.11840329301E+02  0.10882199143E+03  0.11043428677E+03  0.00000000000E+00 0. -1.
          1    1    1    2  501    0 -0.29299082583E+02 -0.28130619588E+02 -0.70916224266E+02  0.81724407999E+02  0.00000000000E+00 0. -1.
<mgrwt>
<rscale>  1 0.89096136E+02</rscale>
<asrwt>0</asrwt>
<pdfrwt beam="1">  1       21 0.13172398E-01 0.89096136E+02</pdfrwt>
<pdfrwt beam="2">  1        2 0.33659723E-01 0.89096136E+02</pdfrwt>
<totfact> 0.92375252E+04</totfact>
</mgrwt>
</event>
<event>
 6    2  0.9515084E+000  0.9359288E+02  0.7546771E-02  0.1294377E+00
         21   -1    0    0  501  502  0.00000000000E+00  0.00000000000E+00  0.12132568230E+02  0.12132568230E+02  0.00000000000E+00 0.  1.
         -3   -1    0    0    0  501 -0.00000000000E+00 -0.00000000000E+00 -0.78837510504E+03  0.78837510504E+03  0.00000000000E+00 0.  1.
         24    2    1    2    0    0  0.15419711570E+02  0.44049083116E+02 -0.72571206629E+03  0.73172237194E+03  0.81126673850E+02 0.  0.
        -13    1    3    3    0    0  0.37040732067E+02  0.41869150943E+02 -0.66298930720E+03  0.66534191443E+03  0.00000000000E+00 0.  1.
         14    1    3    3    0    0 -0.21621020497E+02  0.21799321725E+01 -0.62722759086E+02  0.66380457508E+02  0.00000000000E+00 0. -1.
         -4    1    1    2    0  502 -0.15419711570E+02 -0.44049083116E+02 -0.50530470520E+02  0.68785301331E+02  0.00000000000E+00 0.  1.
<mgrwt>
<rscale>  1 0.93592876E+02</rscale>
<asrwt>0</asrwt>
<pdfrwt beam="1">  1       21 0.18665488E-02 0.93592876E+02</pdfrwt>
<pdfrwt beam="2">  1       -3 0.12128849E+00 0.93592876E+02</pdfrwt>
<totfact> 0.36675030E+04</totfact>
</mgrwt>
</event>
<event>
 6    2  0.8544106E+000  0.8788695E+02  0.7546771E-02  0.1308051E+00
          2   -1    0    0  502    0 -0.00000000000E+00  0.00000000000E+00  0.63968425297E+02  0.63968425297E+02  0.00000000000E+00 0. -1.
         21   -1    0    0  501  502  0.00000000000E+00 -0.00000000000E+00 -0.70684271814E+02  0.70684271814E+02  0.00000000000E+00 0.  1.
         24    2    1    2    0    0 -0.28070472983E+02  0.98614614417E+01  0.24792638940E+02  0.91316978228E+02  0.82697736921E+02 0.  0.
        -11    1    3    3    0    0 -0.54153293558E+02 -0.93697153283E+00  0.64028541061E+00  0.54165183321E+02  0.00000000000E+00 0.  1.
         12    1    3    3    0    0  0.26082820575E+02  0.10798432975E+02  0.24152353529E+02  0.37151794907E+02  0.00000000000E+00 0. -1.
          1    1    1    2  501    0  0.28070472983E+02 -0.98614614417E+01 -0.31508485457E+02  0.43335718883E+02  0.00000000000E+00 0. -1.
<mgrwt>
<rscale>  1 0.87886948E+02</rscale>
<asrwt>0</asrwt>
<pdfrwt beam="1">  1       21 0.10874503E-01 0.87886948E+02</pdfrwt>
<pdfrwt beam="2">  1        2 0.98412962E-02 0.87886948E+02</pdfrwt>
<totfact> 0.51889457E+05</totfact>
</mgrwt>
</event>
<event>
 6    2  0.8544106E+000  0.8287623E+02  0.7546771E-02  0.1321082E+00
         21   -1    0    0  501  502  0.00000000000E+00  0.00000000000E+00  0.35593270291E+01  0.35593270291E+01  0.00000000000E+00 0. -1.
          2   -1    0    0  502    0 -0.00000000000E+00 -0.00000000000E+00 -0.85814265319E+03  0.85814265319E+03  0.00000000000E+00 0. -1.
         24    2    1    2    0    0  0.70410112070E+01  0.20916427802E+02 -0.76341770389E+03  0.76790302780E+03  0.79883644770E+02 0.  0.
        -11    1    3    3    0    0  0.85928557974E+01 -0.15221780835E+01 -0.70976296615E+01  0.11248579630E+02  0.00000000000E+00 0.  1.
         12    1    3    3    0    0 -0.15518445904E+01  0.22438605886E+02 -0.75632007423E+03  0.75665444817E+03  0.00000000000E+00 0. -1.
          1    1    1    2  501    0 -0.70410112070E+01 -0.20916427802E+02 -0.91165622276E+02  0.93798952424E+02  0.00000000000E+00 0. -1.
<mgrwt>
<rscale>  1 0.82876230E+02</rscale>
<asrwt>0</asrwt>
<pdfrwt beam="1">  1       21 0.54758876E-03 0.82876230E+02</pdfrwt>
<pdfrwt beam="2">  1        2 0.13202195E+00 0.82876230E+02</pdfrwt>
<totfact> 0.36556692E+06</totfact>
</mgrwt>
</event>
<event>
 6    2  0.8544106E+000  0.9018148E+02  0.7546771E-02  0.1302413E+00
         21   -1    0    0  501  502  0.00000000000E+00  0.00000000000E+00  0.65081142575E+02  0.65081142575E+02  0.00000000000E+00 0. -1.
          2   -1    0    0  502    0 -0.00000000000E+00 -0.00000000000E+00 -0.11106918338E+03  0.11106918338E+03  0.00000000000E+00 0. -1.
         24    2    1    2    0    0 -0.37253074892E+02  0.59223276497E+01 -0.83536302151E+02  0.12292685854E+03  0.81913571648E+02 0.  0.
        -11    1    3    3    0    0  0.14061515795E+02  0.23249193275E+02 -0.51582936625E+01  0.27656088080E+02  0.00000000000E+00 0.  1.
         12    1    3    3    0    0 -0.51314590686E+02 -0.17326865625E+02 -0.78378008488E+02  0.95270770461E+02  0.00000000000E+00 0. -1.
          1    1    1    2  501    0  0.37253074892E+02 -0.59223276497E+01  0.37548261345E+02  0.53223467415E+02  0.00000000000E+00 0. -1.
<mgrwt>
<rscale>  1 0.90181477E+02</rscale>
<asrwt>0</asrwt>
<pdfrwt beam="1">  1       21 0.10012484E-01 0.90181477E+02</pdfrwt>
<pdfrwt beam="2">  1        2 0.17087566E-01 0.90181477E+02</pdfrwt>
<totfact> 0.31379817E+05</totfact>
</mgrwt>
</event>
<event>
 6    2  0.8544106E+000  0.9043431E+02  0.7546771E-02  0.1301803E+00
         21   -1    0    0  501  502  0.00000000000E+00  0.00000000000E+00  0.17471169995E+03  0.17471169995E+03  0.00000000000E+00 0. -1.
         -1   -1    0    0    0  501 -0.00000000000E+00 -0.00000000000E+00 -0.25071200154E+02  0.25071200154E+02  0.00000000000E+00 0.  1.
         24    2    1    2    0    0  0.38680073247E+02 -0.11952825843E+02  0.89102077342E+02  0.12695489241E+03  0.80866225381E+02 0.  0.
        -11    1    3    3    0    0 -0.61952344434E+01  0.14489866470E+02 -0.73106848545E+01  0.17371910464E+02  0.00000000000E+00 0.  1.
         12    1    3    3    0    0  0.44875307690E+02 -0.26442692313E+02  0.96412762197E+02  0.10958298194E+03  0.00000000000E+00 0. -1.
         -2    1    1    2    0  502 -0.38680073247E+02  0.11952825843E+02  0.60538422455E+02  0.72828007698E+02  0.00000000000E+00 0.  1.
<mgrwt>
<rscale>  1 0.90434311E+02</rscale>
<asrwt>0</asrwt>
<pdfrwt beam="1">  1       21 0.26878722E-01 0.90434311E+02</pdfrwt>
<pdfrwt beam="2">  1       -1 0.38571078E-02 0.90434311E+02</pdfrwt>
<totfact> 0.28449705E+05</totfact>
</mgrwt>
</event>
<event>
 6    2  0.8544106E+000  0.9379475E+02  0.7546771E-02  0.1293914E+00
         21   -1    0    0  501  502  0.00000000000E+00  0.00000000000E+00  0.33405177735E+03  0.33405177735E+03  0.00000000000E+00 0. -1.
         -1   -1    0    0    0  501 -0.00000000000E+00 -0.00000000000E+00 -0.11908178946E+02  0.11908178946E+02  0.00000000000E+00 0.  1.
         24    2    1    2    0    0  0.18485900607E+02 -0.26433569317E+02  0.23385921098E+03  0.25196742908E+03  0.88073790951E+02 0.  0.
        -11    1    3    3    0    0 -0.34368429252E+01 -0.15339639259E+02 -0.10705506234E+01  0.15756347944E+02  0.00000000000E+00 0.  1.
         12    1    3    3    0    0  0.21922743532E+02 -0.11093930058E+02  0.23492976160E+03  0.23621108114E+03  0.00000000000E+00 0. -1.
         -2    1    1    2    0  502 -0.18485900607E+02  0.26433569317E+02  0.88284387424E+02  0.93992527208E+02  0.00000000000E+00 0.  1.
<mgrwt>
<rscale>  1 0.93794748E+02</rscale>
<asrwt>0</asrwt>
<pdfrwt beam="1">  1       21 0.51392574E-01 0.93794748E+02</pdfrwt>
<pdfrwt beam="2">  1       -1 0.18320278E-02 0.93794748E+02</pdfrwt>
<totfact> 0.23295264E+05</totfact>
</mgrwt>
</event>
<event>
 6    2  0.8544106E+000  0.8372910E+02  0.7546771E-02  0.1318790E+00
         21   -1    0    0  501  502  0.00000000000E+00  0.00000000000E+00  0.81576702216E+01  0.81576702216E+01  0.00000000000E+00 0. -1.
          2   -1    0    0  502    0 -0.00000000000E+00 -0.00000000000E+00 -0.54778329670E+03  0.54778329670E+03  0.00000000000E+00 0. -1.
         24    2    1    2    0    0 -0.21296421612E+02 -0.12295312285E+02 -0.51263541670E+03  0.51942817873E+03  0.80036554936E+02 0.  0.
        -13    1    3    3    0    0  0.14414817390E+01  0.32425420306E+02 -0.24386551960E+03  0.24601601046E+03  0.00000000000E+00 0.  1.
         14    1    3    3    0    0 -0.22737903351E+02 -0.44720732592E+02 -0.26876989710E+03  0.27341216827E+03  0.00000000000E+00 0. -1.
          1    1    1    2  501    0  0.21296421612E+02  0.12295312285E+02 -0.26990209781E+02  0.36512788194E+02  0.00000000000E+00 0. -1.
<mgrwt>
<rscale>  1 0.83729101E+02</rscale>
<asrwt>0</asrwt>
<pdfrwt beam="1">  1       21 0.12550259E-02 0.83729101E+02</pdfrwt>
<pdfrwt beam="2">  1        2 0.84274375E-01 0.83729101E+02</pdfrwt>
<totfact> 0.17017635E+06</totfact>
</mgrwt>
</event>
<event>
 6    2  0.8544106E+000  0.8743266E+02  0.7546771E-02  0.1309191E+00
         -1   -1    0    0    0  501 -0.00000000000E+00  0.00000000000E+00  0.15705651263E+03  0.15705651263E+03  0.00000000000E+00 0.  1.
         21   -1    0    0  501  502  0.00000000000E+00 -0.00000000000E+00 -0.23228354866E+02  0.23228354866E+02  0.00000000000E+00 0. -1.
         24    2    1    2    0    0 -0.24293446380E+02 -0.22651285513E+02  0.10095057460E+03  0.13354957304E+03  0.80877794706E+02 0.  0.
        -11    1    3    3    0    0 -0.24046084915E+02  0.47074099784E+00  0.10698236786E+03  0.10965246385E+03  0.00000000000E+00 0.  1.
         12    1    3    3    0    0 -0.24736146570E+00 -0.23122026511E+02 -0.60317932615E+01  0.23897109190E+02  0.00000000000E+00 0. -1.
         -2    1    1    2    0  502  0.24293446380E+02  0.22651285513E+02  0.32877583164E+02  0.46735294448E+02  0.00000000000E+00 0.  1.
<mgrwt>
<rscale>  1 0.87432660E+02</rscale>
<asrwt>0</asrwt>
<pdfrwt beam="1">  1       21 0.35735931E-02 0.87432660E+02</pdfrwt>
<pdfrwt beam="2">  1       -1 0.24162540E-01 0.87432660E+02</pdfrwt>
<totfact> 0.58877409E+05</totfact>
</mgrwt>
</event>
<event>
 6    2  0.8544106E+000  0.9047550E+02  0.7546771E-02  0.1301704E+00
         21   -1    0    0  501  502  0.00000000000E+00  0.00000000000E+00  0.19826033714E+03  0.19826033714E+03  0.00000000000E+00 0. -1.
          4   -1    0    0  502    0 -0.00000000000E+00 -0.00000000000E+00 -0.26761258725E+03  0.26761258725E+03  0.00000000000E+00 0. -1.
         24    2    1    2    0    0  0.45243362123E+02 -0.41963922690E+01 -0.25717839787E+03  0.27262895085E+03  0.78238385655E+02 0.  0.
        -11    1    3    3    0    0  0.33696149827E+02  0.60739832113E+01 -0.31822906765E+02  0.46744210125E+02  0.00000000000E+00 0.  1.
         12    1    3    3    0    0  0.11547212296E+02 -0.10270375480E+02 -0.22535549110E+03  0.22588474073E+03  0.00000000000E+00 0. -1.
          3    1    1    2  501    0 -0.45243362123E+02  0.41963922690E+01  0.18782614776E+03  0.19324397353E+03  0.00000000000E+00 0. -1.
<mgrwt>
<rscale>  1 0.90475502E+02</rscale>
<asrwt>0</asrwt>
<pdfrwt beam="1">  1       21 0.30501590E-01 0.90475502E+02</pdfrwt>
<pdfrwt beam="2">  1        4 0.41171167E-01 0.90475502E+02</pdfrwt>
<totfact> 0.24012657E+03</totfact>
</mgrwt>
</event>
<event>
 6    2  0.8544106E+000  0.8267735E+02  0.7546771E-02  0.1321621E+00
         21   -1    0    0  501  502  0.00000000000E+00  0.00000000000E+00  0.52820422062E+01  0.52820422062E+01  0.00000000000E+00 0. -1.
          2   -1    0    0  502    0 -0.00000000000E+00 -0.00000000000E+00 -0.52648109352E+03  0.52648109352E+03  0.00000000000E+00 0. -1.
         24    2    1    2    0    0 -0.88375119325E+01 -0.18961653778E+02 -0.45090535233E+03  0.45842249183E+03  0.79986863417E+02 0.  0.
        -13    1    3    3    0    0  0.23521829615E+01  0.70460688507E+00  0.30432557445E+01  0.39103249319E+01  0.00000000000E+00 0.  1.
         14    1    3    3    0    0 -0.11189694894E+02 -0.19666260663E+02 -0.45394860808E+03  0.45451216689E+03  0.00000000000E+00 0. -1.
          1    1    1    2  501    0  0.88375119325E+01  0.18961653778E+02 -0.70293698986E+02  0.73340643905E+02  0.00000000000E+00 0. -1.
<mgrwt>
<rscale>  1 0.82677350E+02</rscale>
<asrwt>0</asrwt>
<pdfrwt beam="1">  1       21 0.81262186E-03 0.82677350E+02</pdfrwt>
<pdfrwt beam="2">  1        2 0.80997094E-01 0.82677350E+02</pdfrwt>
<totfact> 0.34957631E+06</totfact>
</mgrwt>
</event>
<event>
 6    2  0.8544106E+000  0.8388901E+02  0.7546771E-02  0.1318364E+00
          2   -1    0    0  502    0 -0.00000000000E+00  0.00000000000E+00  0.18337937068E+04  0.18337937068E+04  0.00000000000E+00 0. -1.
         21   -1    0    0  501  502  0.00000000000E+00 -0.00000000000E+00 -0.46036256317E+01  0.46036256317E+01  0.00000000000E+00 0. -1.
         24    2    1    2    0    0  0.16819720147E+02  0.19957319661E+02  0.17857514598E+04  0.17877207953E+04  0.79725579233E+02 0.  0.
        -11    1    3    3    0    0 -0.16008393890E+02 -0.53488152875E+01  0.96777717140E+02  0.98238510956E+02  0.00000000000E+00 0.  1.
         12    1    3    3    0    0  0.32828114037E+02  0.25306134949E+02  0.16889737427E+04  0.16894822843E+04  0.00000000000E+00 0. -1.
          1    1    1    2  501    0 -0.16819720147E+02 -0.19957319661E+02  0.43438621309E+02  0.50676537127E+02  0.00000000000E+00 0. -1.
<mgrwt>
<rscale>  1 0.83889007E+02</rscale>
<asrwt>0</asrwt>
<pdfrwt beam="1">  1       21 0.70825156E-03 0.83889007E+02</pdfrwt>
<pdfrwt beam="2">  1        2 0.28212153E+00 0.83889007E+02</pdfrwt>
<totfact> 0.73966669E+05</totfact>
</mgrwt>
</event>
<event>
 6    2  0.8544106E+000  0.8449622E+02  0.7546771E-02  0.1316755E+00
         21   -1    0    0  501  502  0.00000000000E+00  0.00000000000E+00  0.14464518369E+01  0.14464518369E+01  0.00000000000E+00 0.  1.
          2   -1    0    0  502    0 -0.00000000000E+00 -0.00000000000E+00 -0.21381880420E+04  0.21381880420E+04  0.00000000000E+00 0. -1.
         24    2    1    2    0    0  0.12612944834E+02  0.21366374020E+02 -0.14648591099E+04  0.14672940476E+04  0.80771294705E+02 0.  0.
        -13    1    3    3    0    0  0.17106867541E+02  0.32782510665E+02 -0.28715661271E+03  0.28952764660E+03  0.00000000000E+00 0.  1.
         14    1    3    3    0    0 -0.44939227071E+01 -0.11416136644E+02 -0.11777024972E+04  0.11777664010E+04  0.00000000000E+00 0. -1.
          1    1    1    2  501    0 -0.12612944834E+02 -0.21366374020E+02 -0.67188248029E+03  0.67234044623E+03  0.00000000000E+00 0. -1.
<mgrwt>
<rscale>  1 0.84496215E+02</rscale>
<asrwt>0</asrwt>
<pdfrwt beam="1">  1       21 0.22252889E-03 0.84496215E+02</pdfrwt>
<pdfrwt beam="2">  1        2 0.32895520E+00 0.84496215E+02</pdfrwt>
<totfact> 0.30308601E+06</totfact>
</mgrwt>
</event>
<event>
 6    2  0.8544106E+000  0.9491375E+02  0.7546771E-02  0.1291370E+00
         21   -1    0    0  501  502  0.00000000000E+00  0.00000000000E+00  0.65617054158E+01  0.65617054158E+01  0.00000000000E+00 0.  1.
          2   -1    0    0  502    0 -0.00000000000E+00 -0.00000000000E+00 -0.12925606614E+04  0.12925606614E+04  0.00000000000E+00 0. -1.
         24    2    1    2    0    0  0.38641521759E+02 -0.31954440050E+02 -0.37779282160E+03  0.38953309908E+03  0.80587627993E+02 0.  0.
        -13    1    3    3    0    0  0.17437009738E+01 -0.23342937150E+02 -0.23322375973E+02  0.33043402199E+02  0.00000000000E+00 0.  1.
         14    1    3    3    0    0  0.36897820785E+02 -0.86115029001E+01 -0.35447044563E+03  0.35648969688E+03  0.00000000000E+00 0. -1.
          1    1    1    2  501    0 -0.38641521759E+02  0.31954440050E+02 -0.90820613440E+03  0.90958926775E+03  0.00000000000E+00 0. -1.
<mgrwt>
<rscale>  1 0.94913746E+02</rscale>
<asrwt>0</asrwt>
<pdfrwt beam="1">  1       21 0.10094933E-02 0.94913746E+02</pdfrwt>
<pdfrwt beam="2">  1        2 0.19885545E+00 0.94913746E+02</pdfrwt>
<totfact> 0.81015816E+05</totfact>
</mgrwt>
</event>
<event>
 6    2  0.8544106E+000  0.8833751E+02  0.7546771E-02  0.1306928E+00
         21   -1    0    0  501  502  0.00000000000E+00  0.00000000000E+00  0.64815339380E+01  0.64815339380E+01  0.00000000000E+00 0. -1.
          2   -1    0    0  502    0 -0.00000000000E+00 -0.00000000000E+00 -0.56528880798E+03  0.56528880798E+03  0.00000000000E+00 0. -1.
         24    2    1    2    0    0 -0.55973588930E+01 -0.26346753517E+02 -0.48961870436E+03  0.49752386037E+03  0.84131053314E+02 0.  0.
        -11    1    3    3    0    0 -0.73533983059E+01  0.27837062108E+02 -0.26014193803E+03  0.26173040025E+03  0.00000000000E+00 0.  1.
         12    1    3    3    0    0  0.17560394129E+01 -0.54183815625E+02 -0.22947676633E+03  0.23579346012E+03  0.00000000000E+00 0. -1.
          1    1    1    2  501    0  0.55973588930E+01  0.26346753517E+02 -0.69188569678E+02  0.74246481543E+02  0.00000000000E+00 0. -1.
<mgrwt>
<rscale>  1 0.88337512E+02</rscale>
<asrwt>0</asrwt>
<pdfrwt beam="1">  1       21 0.99715881E-03 0.88337512E+02</pdfrwt>
<pdfrwt beam="2">  1        2 0.86967532E-01 0.88337512E+02</pdfrwt>
<totfact> 0.23715209E+06</totfact>
</mgrwt>
</event>
<event>
 6    2  0.8544106E+000  0.1092929E+03  0.7546771E-02  0.1261885E+00
         21   -1    0    0  501  502  0.00000000000E+00  0.00000000000E+00  0.33706095295E+02  0.33706095295E+02  0.00000000000E+00 0. -1.
          4   -1    0    0  502    0 -0.00000000000E+00 -0.00000000000E+00 -0.30831803095E+03  0.30831803095E+03  0.00000000000E+00 0. -1.
         24    2    1    2    0    0 -0.72387241752E+02  0.14102690866E+02 -0.23296777786E+03  0.25733035707E+03  0.80660575829E+02 0.  0.
        -11    1    3    3    0    0 -0.28183460936E+02 -0.25635129924E+02 -0.39253743145E+02  0.54702136224E+02  0.00000000000E+00 0.  1.
         12    1    3    3    0    0 -0.44203780816E+02  0.39737820791E+02 -0.19371403471E+03  0.20262822085E+03  0.00000000000E+00 0. -1.
          3    1    1    2  501    0  0.72387241752E+02 -0.14102690866E+02 -0.41644157797E+02  0.84693769173E+02  0.00000000000E+00 0. -1.
<mgrwt>
<rscale>  1 0.10929285E+03</rscale>
<asrwt>0</asrwt>
<pdfrwt beam="1">  1       21 0.51855531E-02 0.10929285E+03</pdfrwt>
<pdfrwt beam="2">  1        4 0.47433543E-01 0.10929285E+03</pdfrwt>
<totfact> 0.42949307E+04</totfact>
</mgrwt>
</event>
<event>
 6    2  0.8544106E+000  0.8916891E+02  0.7546771E-02  0.1304877E+00
         21   -1    0    0  501  502  0.00000000000E+00  0.00000000000E+00  0.45862136573E+03  0.45862136573E+03  0.00000000000E+00 0. -1.
          4   -1    0    0  502    0 -0.00000000000E+00 -0.00000000000E+00 -0.18826049547E+02  0.18826049547E+02  0.00000000000E+00 0. -1.
         24    2    1    2    0    0 -0.14519296955E+01  0.39135964978E+02  0.94462188214E+02  0.12990072614E+03  0.80108437731E+02 0.  0.
        -11    1    3    3    0    0  0.55994934154E+01  0.34331935760E+02  0.10824144608E+03  0.11369365325E+03  0.00000000000E+00 0.  1.
         12    1    3    3    0    0 -0.70514231109E+01  0.48040292184E+01 -0.13779257863E+02  0.16207072897E+02  0.00000000000E+00 0. -1.
          3    1    1    2  501    0  0.14519296955E+01 -0.39135964978E+02  0.34533312797E+03  0.34754668913E+03  0.00000000000E+00 0. -1.
<mgrwt>
<rscale>  1 0.89168905E+02</rscale>
<asrwt>0</asrwt>
<pdfrwt beam="1">  1       21 0.70557125E-01 0.89168905E+02</pdfrwt>
<pdfrwt beam="2">  1        4 0.28963156E-02 0.89168905E+02</pdfrwt>
<totfact> 0.40565612E+04</totfact>
</mgrwt>
</event>
<event>
 6    2  0.8544106E+000  0.8557903E+02  0.7546771E-02  0.1313925E+00
         21   -1    0    0  501  502  0.00000000000E+00  0.00000000000E+00  0.34286836417E+01  0.34286836417E+01  0.00000000000E+00 0. -1.
          2   -1    0    0  502    0 -0.00000000000E+00 -0.00000000000E+00 -0.16942634137E+04  0.16942634137E+04  0.00000000000E+00 0. -1.
         24    2    1    2    0    0  0.12318311000E+02  0.20225156597E+02 -0.16323928840E+04  0.16346346068E+04  0.82237292064E+02 0.  0.
        -11    1    3    3    0    0 -0.32955807098E+01 -0.19277401046E+02 -0.11527546804E+03  0.11692267776E+03  0.00000000000E+00 0.  1.
         12    1    3    3    0    0  0.15613891709E+02  0.39502557643E+02 -0.15171174160E+04  0.15177119291E+04  0.00000000000E+00 0. -1.
          1    1    1    2  501    0 -0.12318311000E+02 -0.20225156597E+02 -0.58441846068E+02  0.63057490571E+02  0.00000000000E+00 0. -1.
<mgrwt>
<rscale>  1 0.85579028E+02</rscale>
<asrwt>0</asrwt>
<pdfrwt beam="1">  1       21 0.52748900E-03 0.85579028E+02</pdfrwt>
<pdfrwt beam="2">  1        2 0.26065630E+00 0.85579028E+02</pdfrwt>
<totfact> 0.13682973E+06</totfact>
</mgrwt>
</event>
<event>
 6    2  0.8544106E+000  0.1034753E+03  0.7546771E-02  0.1273153E+00
         21   -1    0    0  501  502  0.00000000000E+00  0.00000000000E+00  0.19470017950E+02  0.19470017950E+02  0.00000000000E+00 0. -1.
          2   -1    0    0  502    0 -0.00000000000E+00 -0.00000000000E+00 -0.49155015932E+03  0.49155015932E+03  0.00000000000E+00 0. -1.
         24    2    1    2    0    0 -0.66355737447E+02 -0.91371375719E+01 -0.39763072450E+03  0.41087385009E+03  0.78870504294E+02 0.  0.
        -13    1    3    3    0    0 -0.16127934700E+01 -0.28249934605E+02 -0.20091683984E+03  0.20289957230E+03  0.00000000000E+00 0.  1.
         14    1    3    3    0    0 -0.64742943977E+02  0.19112797033E+02 -0.19671388466E+03  0.20797427779E+03  0.00000000000E+00 0. -1.
          1    1    1    2  501    0  0.66355737447E+02  0.91371375719E+01 -0.74449416876E+02  0.10014632718E+03  0.00000000000E+00 0. -1.
<mgrwt>
<rscale>  1 0.10347525E+03</rscale>
<asrwt>0</asrwt>
<pdfrwt beam="1">  1       21 0.29953875E-02 0.10347525E+03</pdfrwt>
<pdfrwt beam="2">  1        2 0.75623098E-01 0.10347525E+03</pdfrwt>
<totfact> 0.48539749E+05</totfact>
</mgrwt>
</event>
<event>
 6    2  0.8544106E+000  0.7913612E+02  0.7546771E-02  0.1331521E+00
          2   -1    0    0  502    0 -0.00000000000E+00  0.00000000000E+00  0.11904062159E+04  0.11904062159E+04  0.00000000000E+00 0. -1.
         21   -1    0    0  501  502  0.00000000000E+00 -0.00000000000E+00 -0.21250125213E+01  0.21250125213E+01  0.00000000000E+00 0.  1.
         24    2    1    2    0    0 -0.14678454240E+02  0.15609284236E+02  0.94641241518E+03  0.94971521273E+03  0.76180173955E+02 0.  0.
        -13    1    3    3    0    0 -0.30455918920E+02 -0.18616089560E+02  0.63986944634E+03  0.64086428372E+03  0.00000000000E+00 0.  1.
         14    1    3    3    0    0  0.15777464680E+02  0.34225373796E+02  0.30654296884E+03  0.30885092901E+03  0.00000000000E+00 0. -1.
          1    1    1    2  501    0  0.14678454240E+02 -0.15609284236E+02  0.24186878818E+03  0.24281601567E+03  0.00000000000E+00 0. -1.
<mgrwt>
<rscale>  1 0.79136121E+02</rscale>
<asrwt>0</asrwt>
<pdfrwt beam="1">  1       21 0.32692595E-03 0.79136121E+02</pdfrwt>
<pdfrwt beam="2">  1        2 0.18313889E+00 0.79136121E+02</pdfrwt>
<totfact> 0.51155681E+06</totfact>
</mgrwt>
</event>
<event>
 6    2  0.8544106E+000  0.9205829E+02  0.7546771E-02  0.1297942E+00
          2   -1    0    0  502    0 -0.00000000000E+00  0.00000000000E+00  0.17896491354E+03  0.17896491354E+03  0.00000000000E+00 0. -1.
         21   -1    0    0  501  502  0.00000000000E+00 -0.00000000000E+00 -0.52643795565E+02  0.52643795565E+02  0.00000000000E+00 0.  1.
         24    2    1    2    0    0 -0.40905291196E+02  0.14577770049E+02 -0.60890855384E+01  0.92259449251E+02  0.81172500183E+02 0.  0.
        -11    1    3    3    0    0 -0.69583555004E+01  0.43214680660E+01 -0.41407391966E+02  0.42209784493E+02  0.00000000000E+00 0.  1.
         12    1    3    3    0    0 -0.33946935695E+02  0.10256301983E+02  0.35318306428E+02  0.50049664758E+02  0.00000000000E+00 0. -1.
          1    1    1    2  501    0  0.40905291196E+02 -0.14577770049E+02  0.13241020351E+03  0.13934925985E+03  0.00000000000E+00 0. -1.
<mgrwt>
<rscale>  1 0.92058291E+02</rscale>
<asrwt>0</asrwt>
<pdfrwt beam="1">  1       21 0.80990455E-02 0.92058291E+02</pdfrwt>
<pdfrwt beam="2">  1        2 0.27533063E-01 0.92058291E+02</pdfrwt>
<totfact> 0.26698991E+05</totfact>
</mgrwt>
</event>
<event>
 6    2  0.8544106E+000  0.8542018E+02  0.7546771E-02  0.1314337E+00
          4   -1    0    0  502    0 -0.00000000000E+00  0.00000000000E+00  0.85649017101E+02  0.85649017101E+02  0.00000000000E+00 0. -1.
         21   -1    0    0  501  502  0.00000000000E+00 -0.00000000000E+00 -0.45254715674E+02  0.45254715674E+02  0.00000000000E+00 0.  1.
         24    2    1    2    0    0 -0.27450363062E+02  0.61304212983E+01  0.52520321214E+02  0.10027458239E+03  0.80656699879E+02 0.  0.
        -13    1    3    3    0    0 -0.54197674626E+01 -0.18072170255E+01 -0.21704331536E+02  0.22443661024E+02  0.00000000000E+00 0.  1.
         14    1    3    3    0    0 -0.22030595599E+02  0.79376383239E+01  0.74224652750E+02  0.77830921365E+02  0.00000000000E+00 0. -1.
          3    1    1    2  501    0  0.27450363062E+02 -0.61304212983E+01 -0.12126019786E+02  0.30629150386E+02  0.00000000000E+00 0. -1.
<mgrwt>
<rscale>  1 0.85420183E+02</rscale>
<asrwt>0</asrwt>
<pdfrwt beam="1">  1       21 0.69622640E-02 0.85420183E+02</pdfrwt>
<pdfrwt beam="2">  1        4 0.13176772E-01 0.85420183E+02</pdfrwt>
<totfact> 0.26548005E+05</totfact>
</mgrwt>
</event>
<event>
 6    2  0.8544106E+000  0.8078772E+02  0.7546771E-02  0.1326831E+00
         21   -1    0    0  501  502  0.00000000000E+00  0.00000000000E+00  0.12613325038E+02  0.12613325038E+02  0.00000000000E+00 0. -1.
          2   -1    0    0  502    0 -0.00000000000E+00 -0.00000000000E+00 -0.56064150829E+03  0.56064150829E+03  0.00000000000E+00 0. -1.
         24    2    1    2    0    0  0.11817229556E+02  0.19748168122E+02 -0.54390803635E+03  0.54987508420E+03  0.77440423332E+02 0.  0.
        -11    1    3    3    0    0  0.29870162799E+02  0.44586580324E+01 -0.82386429974E+02  0.87747536153E+02  0.00000000000E+00 0.  1.
         12    1    3    3    0    0 -0.18052933243E+02  0.15289510090E+02 -0.46152160637E+03  0.46212754805E+03  0.00000000000E+00 0. -1.
          1    1    1    2  501    0 -0.11817229556E+02 -0.19748168122E+02 -0.41201469028E+01  0.23379749123E+02  0.00000000000E+00 0. -1.
<mgrwt>
<rscale>  1 0.80787723E+02</rscale>
<asrwt>0</asrwt>
<pdfrwt beam="1">  1       21 0.19405112E-02 0.80787723E+02</pdfrwt>
<pdfrwt beam="2">  1        2 0.86252554E-01 0.80787723E+02</pdfrwt>
<totfact> 0.82959370E+05</totfact>
</mgrwt>
</event>
<event>
 6    2  0.8544106E+000  0.8414790E+02  0.7546771E-02  0.1317676E+00
         21   -1    0    0  501  502  0.00000000000E+00  0.00000000000E+00  0.11772803378E+02  0.11772803378E+02  0.00000000000E+00 0.  1.
          4   -1    0    0  502    0 -0.00000000000E+00 -0.00000000000E+00 -0.23526420617E+03  0.23526420617E+03  0.00000000000E+00 0. -1.
         24    2    1    2    0    0  0.20629323378E+02  0.43985837389E+01 -0.18036443365E+03  0.19902813548E+03  0.81461360562E+02 0.  0.
        -11    1    3    3    0    0  0.28570706223E+02 -0.12513057659E+02 -0.18865933229E+02  0.36452507495E+02  0.00000000000E+00 0.  1.
         12    1    3    3    0    0 -0.79413828446E+01  0.16911641398E+02 -0.16149850042E+03  0.16257562799E+03  0.00000000000E+00 0. -1.
          3    1    1    2  501    0 -0.20629323378E+02 -0.43985837389E+01 -0.43126969142E+02  0.48008874069E+02  0.00000000000E+00 0. -1.
<mgrwt>
<rscale>  1 0.84147904E+02</rscale>
<asrwt>0</asrwt>
<pdfrwt beam="1">  1       21 0.18112005E-02 0.84147904E+02</pdfrwt>
<pdfrwt beam="2">  1        4 0.36194493E-01 0.84147904E+02</pdfrwt>
<totfact> 0.38791419E+05</totfact>
</mgrwt>
</event>
<event>
 6    2  0.8544106E+000  0.8622266E+02  0.7546771E-02  0.1312266E+00
          4   -1    0    0  502    0 -0.00000000000E+00  0.00000000000E+00  0.40340034802E+03  0.40340034802E+03  0.00000000000E+00 0. -1.
         21   -1    0    0  501  502  0.00000000000E+00 -0.00000000000E+00 -0.11402476196E+02  0.11402476196E+02  0.00000000000E+00 0. -1.
         24    2    1    2    0    0  0.16068512445E+01  0.39161759216E+02  0.33293046152E+03  0.34391428977E+03  0.76799226197E+02 0.  0.
        -11    1    3    3    0    0  0.18646058889E+02 -0.16389747557E+02  0.14807522451E+03  0.15014183777E+03  0.00000000000E+00 0.  1.
         12    1    3    3    0    0 -0.17039207645E+02  0.55551506772E+02  0.18485523701E+03  0.19377245200E+03  0.00000000000E+00 0. -1.
          3    1    1    2  501    0 -0.16068512445E+01 -0.39161759216E+02  0.59067410305E+02  0.70888534446E+02  0.00000000000E+00 0. -1.
<mgrwt>
<rscale>  1 0.86222657E+02</rscale>
<asrwt>0</asrwt>
<pdfrwt beam="1">  1       21 0.17542274E-02 0.86222657E+02</pdfrwt>
<pdfrwt beam="2">  1        4 0.62061581E-01 0.86222657E+02</pdfrwt>
<totfact> 0.13943911E+05</totfact>
</mgrwt>
</event>
<event>
 6    2  0.8544106E+000  0.8422893E+02  0.7546771E-02  0.1317461E+00
         21   -1    0    0  501  502  0.00000000000E+00  0.00000000000E+00  0.17109044906E+03  0.17109044906E+03  0.00000000000E+00 0. -1.
          2   -1    0    0  502    0 -0.00000000000E+00 -0.00000000000E+00 -0.20399123531E+02  0.20399123531E+02  0.00000000000E+00 0. -1.
         24    2    1    2    0    0 -0.11997360064E+02  0.21689966981E+02  0.78411234350E+02  0.11507751270E+03  0.80499198383E+02 0.  0.
        -13    1    3    3    0    0  0.14917635573E+02  0.45728004976E+02  0.42984437766E+02  0.64507737367E+02  0.00000000000E+00 0.  1.
         14    1    3    3    0    0 -0.26914995637E+02 -0.24038037995E+02  0.35426796584E+02  0.50569775330E+02  0.00000000000E+00 0. -1.
          1    1    1    2  501    0  0.11997360064E+02 -0.21689966981E+02  0.72280091180E+02  0.76412059893E+02  0.00000000000E+00 0. -1.
<mgrwt>
<rscale>  1 0.84228928E+02</rscale>
<asrwt>0</asrwt>
<pdfrwt beam="1">  1       21 0.26321607E-01 0.84228928E+02</pdfrwt>
<pdfrwt beam="2">  1        2 0.31383268E-02 0.84228928E+02</pdfrwt>
<totfact> 0.44994080E+05</totfact>
</mgrwt>
</event>
<event>
 6    2  0.8544106E+000  0.8496075E+02  0.7546771E-02  0.1315535E+00
          2   -1    0    0  502    0 -0.00000000000E+00  0.00000000000E+00  0.17614780997E+04  0.17614780997E+04  0.00000000000E+00 0. -1.
         21   -1    0    0  501  502  0.00000000000E+00 -0.00000000000E+00 -0.17327860345E+01  0.17327860345E+01  0.00000000000E+00 0.  1.
         24    2    1    2    0    0 -0.19880186074E+02  0.12536578876E+02  0.15000935167E+04  0.15024975502E+04  0.81645221481E+02 0.  0.
        -13    1    3    3    0    0 -0.20777787717E+02  0.12204114000E+02  0.11958203171E+03  0.12198573346E+03  0.00000000000E+00 0.  1.
         14    1    3    3    0    0  0.89760164277E+00  0.33246487550E+00  0.13805114849E+04  0.13805118168E+04  0.00000000000E+00 0. -1.
          1    1    1    2  501    0  0.19880186074E+02 -0.12536578876E+02  0.25965179698E+03  0.26071333546E+03  0.00000000000E+00 0. -1.
<mgrwt>
<rscale>  1 0.84960754E+02</rscale>
<asrwt>0</asrwt>
<pdfrwt beam="1">  1       21 0.26658388E-03 0.84960754E+02</pdfrwt>
<pdfrwt beam="2">  1        2 0.27099520E+00 0.84960754E+02</pdfrwt>
<totfact> 0.35690298E+06</totfact>
</mgrwt>
</event>
<event>
 6    2  0.8544106E+000  0.8362301E+02  0.7546771E-02  0.1319073E+00
         21   -1    0    0  501  502  0.00000000000E+00  0.00000000000E+00  0.10294288514E+02  0.10294288514E+02  0.00000000000E+00 0.  1.
          2   -1    0    0  502    0 -0.00000000000E+00 -0.00000000000E+00 -0.38246849248E+03  0.38246849248E+03  0.00000000000E+00 0. -1.
         24    2    1    2    0    0 -0.18691369020E+02  0.16035248089E+02 -0.34923514746E+03  0.35910722023E+03  0.79914397589E+02 0.  0.
        -13    1    3    3    0    0 -0.38428564108E+02  0.68985170083E+01 -0.80243004048E+02  0.89237233120E+02  0.00000000000E+00 0.  1.
         14    1    3    3    0    0  0.19737195088E+02  0.91367310802E+01 -0.26899214341E+03  0.26986998711E+03  0.00000000000E+00 0. -1.
          1    1    1    2  501    0  0.18691369020E+02 -0.16035248089E+02 -0.22939056509E+02  0.33655560768E+02  0.00000000000E+00 0. -1.
<mgrwt>
<rscale>  1 0.83623008E+02</rscale>
<asrwt>0</asrwt>
<pdfrwt beam="1">  1       21 0.15837367E-02 0.83623008E+02</pdfrwt>
<pdfrwt beam="2">  1        2 0.58841305E-01 0.83623008E+02</pdfrwt>
<totfact> 0.17289240E+06</totfact>
</mgrwt>
</event>
<event>
 6    2  0.8544106E+000  0.9133735E+02  0.7546771E-02  0.1299645E+00
          2   -1    0    0  502    0 -0.00000000000E+00  0.00000000000E+00  0.55326435576E+02  0.55326435576E+02  0.00000000000E+00 0. -1.
         21   -1    0    0  501  502  0.00000000000E+00 -0.00000000000E+00 -0.76687050147E+02  0.76687050147E+02  0.00000000000E+00 0.  1.
         24    2    1    2    0    0  0.27226611695E+02  0.25860705972E+02 -0.23788226385E+02  0.94384271051E+02  0.83261314003E+02 0.  0.
        -13    1    3    3    0    0  0.91128384640E+01  0.38571628851E+02 -0.47558427176E+02  0.61908144639E+02  0.00000000000E+00 0.  1.
         14    1    3    3    0    0  0.18113773231E+02 -0.12710922879E+02  0.23770200791E+02  0.32476126412E+02  0.00000000000E+00 0. -1.
          1    1    1    2  501    0 -0.27226611695E+02 -0.25860705972E+02  0.24276118145E+01  0.37629214672E+02  0.00000000000E+00 0. -1.
<mgrwt>
<rscale>  1 0.91337347E+02</rscale>
<asrwt>0</asrwt>
<pdfrwt beam="1">  1       21 0.11798008E-01 0.91337347E+02</pdfrwt>
<pdfrwt beam="2">  1        2 0.85117594E-02 0.91337347E+02</pdfrwt>
<totfact> 0.53945797E+05</totfact>
</mgrwt>
</event>
<event>
 6    2  0.8544106E+000  0.8870539E+02  0.7546771E-02  0.1306017E+00
         -1   -1    0    0    0  501 -0.00000000000E+00  0.00000000000E+00  0.35376355720E+02  0.35376355720E+02  0.00000000000E+00 0.  1.
         21   -1    0    0  501  502  0.00000000000E+00 -0.00000000000E+00 -0.17435294488E+03  0.17435294488E+03  0.00000000000E+00 0.  1.
         24    2    1    2    0    0 -0.28907375767E+02  0.24977046546E+02 -0.29030441180E+02  0.93334950723E+02  0.80057212564E+02 0.  0.
        -11    1    3    3    0    0 -0.27932063729E+02  0.36393538326E+01  0.23464337482E+02  0.36660881249E+02  0.00000000000E+00 0.  1.
         12    1    3    3    0    0 -0.97531203831E+00  0.21337692713E+02 -0.52494778663E+02  0.56674069474E+02  0.00000000000E+00 0. -1.
         -2    1    1    2    0  502  0.28907375767E+02 -0.24977046546E+02 -0.10994614798E+03  0.11639434988E+03  0.00000000000E+00 0.  1.
<mgrwt>
<rscale>  1 0.88705392E+02</rscale>
<asrwt>0</asrwt>
<pdfrwt beam="1">  1       21 0.26823530E-01 0.88705392E+02</pdfrwt>
<pdfrwt beam="2">  1       -1 0.54425162E-02 0.88705392E+02</pdfrwt>
<totfact> 0.17256287E+05</totfact>
</mgrwt>
</event>
<event>
 6    2  0.8544106E+000  0.8695517E+02  0.7546771E-02  0.1310397E+00
          2   -1    0    0  502    0 -0.00000000000E+00  0.00000000000E+00  0.10387007973E+04  0.10387007973E+04  0.00000000000E+00 0. -1.
         21   -1    0    0  501  502  0.00000000000E+00 -0.00000000000E+00 -0.15308045775E+02  0.15308045775E+02  0.00000000000E+00 0. -1.
         24    2    1    2    0    0  0.17721326930E+02  0.18593162049E+02  0.10246111698E+04  0.10282943405E+04  0.83074967156E+02 0.  0.
        -11    1    3    3    0    0 -0.10042740648E+02 -0.27509670892E+02  0.22898508480E+03  0.23085018452E+03  0.00000000000E+00 0.  1.
         12    1    3    3    0    0  0.27764067579E+02  0.46102832940E+02  0.79562608504E+03  0.79744415594E+03  0.00000000000E+00 0. -1.
          1    1    1    2  501    0 -0.17721326930E+02 -0.18593162049E+02 -0.12184182800E+01  0.25714502644E+02  0.00000000000E+00 0. -1.
<mgrwt>
<rscale>  1 0.86955168E+02</rscale>
<asrwt>0</asrwt>
<pdfrwt beam="1">  1       21 0.23550848E-02 0.86955168E+02</pdfrwt>
<pdfrwt beam="2">  1        2 0.15980007E+00 0.86955168E+02</pdfrwt>
<totfact> 0.29023552E+05</totfact>
</mgrwt>
</event>
<event>
 6    2  0.8544106E+000  0.8452304E+02  0.7546771E-02  0.1316685E+00
          2   -1    0    0  502    0 -0.00000000000E+00  0.00000000000E+00  0.26658105981E+03  0.26658105981E+03  0.00000000000E+00 0. -1.
         21   -1    0    0  501  502  0.00000000000E+00 -0.00000000000E+00 -0.14159025996E+02  0.14159025996E+02  0.00000000000E+00 0. -1.
         24    2    1    2    0    0 -0.39912995108E+01  0.27416640249E+02  0.23018974253E+03  0.24521717193E+03  0.79853247959E+02 0.  0.
        -13    1    3    3    0    0  0.10884639693E+02 -0.10864425138E+02  0.47918687232E+01  0.16108169378E+02  0.00000000000E+00 0.  1.
         14    1    3    3    0    0 -0.14875939204E+02  0.38281065387E+02  0.22539787381E+03  0.22910900255E+03  0.00000000000E+00 0. -1.
          1    1    1    2  501    0  0.39912995108E+01 -0.27416640249E+02  0.22232291280E+02  0.35522913871E+02  0.00000000000E+00 0. -1.
<mgrwt>
<rscale>  1 0.84523037E+02</rscale>
<asrwt>0</asrwt>
<pdfrwt beam="1">  1       21 0.21783119E-02 0.84523037E+02</pdfrwt>
<pdfrwt beam="2">  1        2 0.41012467E-01 0.84523037E+02</pdfrwt>
<totfact> 0.15184072E+06</totfact>
</mgrwt>
</event>
<event>
 6    2  0.8544106E+000  0.9086344E+02  0.7546771E-02  0.1300774E+00
          2   -1    0    0  502    0 -0.00000000000E+00  0.00000000000E+00  0.14053034466E+04  0.14053034466E+04  0.00000000000E+00 0. -1.
         21   -1    0    0  501  502  0.00000000000E+00 -0.00000000000E+00 -0.37339867218E+02  0.37339867218E+02  0.00000000000E+00 0. -1.
         24    2    1    2    0    0 -0.36106872340E+02  0.19020914495E+02  0.13922109590E+04  0.13951729352E+04  0.81182900415E+02 0.  0.
        -13    1    3    3    0    0  0.12490054044E+01  0.40992470410E+02  0.42028223108E+03  0.42227845837E+03  0.00000000000E+00 0.  1.
         14    1    3    3    0    0 -0.37355877744E+02 -0.21971555915E+02  0.97192872796E+03  0.97289447686E+03  0.00000000000E+00 0. -1.
          1    1    1    2  501    0  0.36106872340E+02 -0.19020914495E+02 -0.24247379688E+02  0.47470378555E+02  0.00000000000E+00 0. -1.
<mgrwt>
<rscale>  1 0.90863440E+02</rscale>
<asrwt>0</asrwt>
<pdfrwt beam="1">  1       21 0.57445960E-02 0.90863440E+02</pdfrwt>
<pdfrwt beam="2">  1        2 0.21620049E+00 0.90863440E+02</pdfrwt>
<totfact> 0.42596705E+04</totfact>
</mgrwt>
</event>
<event>
 6    2  0.8544106E+000  0.7981102E+02  0.7546771E-02  0.1329589E+00
         21   -1    0    0  501  502  0.00000000000E+00  0.00000000000E+00  0.36888852400E+03  0.36888852400E+03  0.00000000000E+00 0.  1.
         -1   -1    0    0    0  501 -0.00000000000E+00 -0.00000000000E+00 -0.21587948215E+02  0.21587948215E+02  0.00000000000E+00 0.  1.
         24    2    1    2    0    0  0.17365403986E+02 -0.18561734867E+02  0.54660427832E+02  0.96734491132E+02  0.75655166029E+02 0.  0.
        -11    1    3    3    0    0  0.46197150867E+02 -0.20077218376E+02  0.29092212925E+02  0.58168963364E+02  0.00000000000E+00 0.  1.
         12    1    3    3    0    0 -0.28831746881E+02  0.15154835095E+01  0.25568214906E+02  0.38565527768E+02  0.00000000000E+00 0. -1.
         -2    1    1    2    0  502 -0.17365403986E+02  0.18561734867E+02  0.29264014796E+03  0.29374198109E+03  0.00000000000E+00 0.  1.
<mgrwt>
<rscale>  1 0.79811023E+02</rscale>
<asrwt>0</asrwt>
<pdfrwt beam="1">  1       21 0.56752076E-01 0.79811023E+02</pdfrwt>
<pdfrwt beam="2">  1       -1 0.33212231E-02 0.79811023E+02</pdfrwt>
<totfact> 0.80078618E+04</totfact>
</mgrwt>
</event>
<event>
 6    2  0.8544106E+000  0.8946544E+02  0.7546771E-02  0.1304151E+00
         21   -1    0    0  501  502  0.00000000000E+00  0.00000000000E+00  0.81127995658E+02  0.81127995658E+02  0.00000000000E+00 0.  1.
          2   -1    0    0  502    0 -0.00000000000E+00 -0.00000000000E+00 -0.86179993121E+02  0.86179993121E+02  0.00000000000E+00 0. -1.
         24    2    1    2    0    0 -0.14628902035E+02 -0.37894499420E+02 -0.53377140700E+02  0.10417861899E+03  0.79712405838E+02 0.  0.
        -13    1    3    3    0    0 -0.35397479315E+02 -0.44680108614E+02 -0.13301494234E+02  0.58533950802E+02  0.00000000000E+00 0.  1.
         14    1    3    3    0    0  0.20768577280E+02  0.67856091943E+01 -0.40075646466E+02  0.45644668189E+02  0.00000000000E+00 0. -1.
          1    1    1    2  501    0  0.14628902035E+02  0.37894499420E+02  0.48325143237E+02  0.63129369789E+02  0.00000000000E+00 0. -1.
<mgrwt>
<rscale>  1 0.89465443E+02</rscale>
<asrwt>0</asrwt>
<pdfrwt beam="1">  1       21 0.12481230E-01 0.89465443E+02</pdfrwt>
<pdfrwt beam="2">  1        2 0.13258460E-01 0.89465443E+02</pdfrwt>
<totfact> 0.28614937E+05</totfact>
</mgrwt>
</event>
<event>
 6    2  0.8544106E+000  0.8799025E+02  0.7546771E-02  0.1307793E+00
         -1   -1    0    0    0  501 -0.00000000000E+00  0.00000000000E+00  0.87719039917E+02  0.87719039917E+02  0.00000000000E+00 0.  1.
         21   -1    0    0  501  502  0.00000000000E+00 -0.00000000000E+00 -0.46364175770E+02  0.46364175770E+02  0.00000000000E+00 0. -1.
         24    2    1    2    0    0 -0.34078704283E+02  0.69002760593E+01  0.12448409553E+02  0.88866459804E+02  0.80828911179E+02 0.  0.
        -11    1    3    3    0    0  0.12410339212E+02 -0.25235120140E+02  0.15792985638E+02  0.32252847986E+02  0.00000000000E+00 0.  1.
         12    1    3    3    0    0 -0.46489043495E+02  0.32135396200E+02 -0.33445760845E+01  0.56613611819E+02  0.00000000000E+00 0. -1.
         -2    1    1    2    0  502  0.34078704283E+02 -0.69002760593E+01  0.28906454593E+02  0.45216755882E+02  0.00000000000E+00 0.  1.
<mgrwt>
<rscale>  1 0.87990254E+02</rscale>
<asrwt>0</asrwt>
<pdfrwt beam="1">  1       21 0.71329502E-02 0.87990254E+02</pdfrwt>
<pdfrwt beam="2">  1       -1 0.13495237E-01 0.87990254E+02</pdfrwt>
<totfact> 0.46641033E+05</totfact>
</mgrwt>
</event>
<event>
 6    2  0.8544106E+000  0.8673486E+02  0.7546771E-02  0.1310957E+00
         21   -1    0    0  501  502  0.00000000000E+00  0.00000000000E+00  0.29779329430E+01  0.29779329430E+01  0.00000000000E+00 0. -1.
          2   -1    0    0  502    0 -0.00000000000E+00 -0.00000000000E+00 -0.15749456478E+04  0.15749456478E+04  0.00000000000E+00 0. -1.
         24    2    1    2    0    0  0.18885827786E+02  0.27085076884E+02 -0.14077337183E+04  0.14104031894E+04  0.80203860440E+02 0.  0.
        -13    1    3    3    0    0  0.45746727290E+02 -0.98020226143E+00 -0.60374288131E+03  0.60547435171E+03  0.00000000000E+00 0.  1.
         14    1    3    3    0    0 -0.26860899504E+02  0.28065279145E+02 -0.80399083698E+03  0.80492883770E+03  0.00000000000E+00 0. -1.
          1    1    1    2  501    0 -0.18885827786E+02 -0.27085076884E+02 -0.16423399652E+03  0.16752039128E+03  0.00000000000E+00 0. -1.
<mgrwt>
<rscale>  1 0.86734855E+02</rscale>
<asrwt>0</asrwt>
<pdfrwt beam="1">  1       21 0.45814402E-03 0.86734855E+02</pdfrwt>
<pdfrwt beam="2">  1        2 0.24229907E+00 0.86734855E+02</pdfrwt>
<totfact> 0.19512984E+06</totfact>
</mgrwt>
</event>
<event>
 6    2  0.8544106E+000  0.8448239E+02  0.7546771E-02  0.1316792E+00
         21   -1    0    0  501  502  0.00000000000E+00  0.00000000000E+00  0.38300855646E+01  0.38300855646E+01  0.00000000000E+00 0.  1.
          2   -1    0    0  502    0 -0.00000000000E+00 -0.00000000000E+00 -0.89875643763E+03  0.89875643763E+03  0.00000000000E+00 0. -1.
         24    2    1    2    0    0 -0.10642453912E+02  0.19406011196E+02 -0.82318286133E+03  0.82750667531E+03  0.81531707916E+02 0.  0.
        -13    1    3    3    0    0 -0.60718294758E+01 -0.44106862109E+01 -0.51211095029E+01  0.90855395313E+01  0.00000000000E+00 0.  1.
         14    1    3    3    0    0 -0.45706244363E+01  0.23816697407E+02 -0.81806175183E+03  0.81842113578E+03  0.00000000000E+00 0. -1.
          1    1    1    2  501    0  0.10642453912E+02 -0.19406011196E+02 -0.71743490736E+02  0.75079847887E+02  0.00000000000E+00 0. -1.
<mgrwt>
<rscale>  1 0.84482392E+02</rscale>
<asrwt>0</asrwt>
<pdfrwt beam="1">  1       21 0.58924312E-03 0.84482392E+02</pdfrwt>
<pdfrwt beam="2">  1        2 0.13827041E+00 0.84482392E+02</pdfrwt>
<totfact> 0.30879683E+06</totfact>
</mgrwt>
</event>
<event>
 6    2  0.8544106E+000  0.9213736E+02  0.7546771E-02  0.1297757E+00
          2   -1    0    0  502    0 -0.00000000000E+00  0.00000000000E+00  0.65693677975E+03  0.65693677975E+03  0.00000000000E+00 0. -1.
         21   -1    0    0  501  502  0.00000000000E+00 -0.00000000000E+00 -0.98574117180E+01  0.98574117180E+01  0.00000000000E+00 0. -1.
         24    2    1    2    0    0 -0.41985870558E+02 -0.23571485771E+02  0.24343491867E+03  0.26028801714E+03  0.78554846888E+02 0.  0.
        -13    1    3    3    0    0  0.61754781780E+01 -0.39419963243E+02  0.13117730777E+03  0.13711147329E+03  0.00000000000E+00 0.  1.
         14    1    3    3    0    0 -0.48161348736E+02  0.15848477472E+02  0.11225761089E+03  0.12317654385E+03  0.00000000000E+00 0. -1.
          1    1    1    2  501    0  0.41985870558E+02  0.23571485771E+02  0.40364444936E+03  0.40650617433E+03  0.00000000000E+00 0. -1.
<mgrwt>
<rscale>  1 0.92137355E+02</rscale>
<asrwt>0</asrwt>
<pdfrwt beam="1">  1       21 0.15165254E-02 0.92137355E+02</pdfrwt>
<pdfrwt beam="2">  1        2 0.10106716E+00 0.92137355E+02</pdfrwt>
<totfact> 0.10403308E+06</totfact>
</mgrwt>
</event>
<event>
 6    2  0.8544106E+000  0.8492541E+02  0.7546771E-02  0.1315628E+00
         21   -1    0    0  501  502  0.00000000000E+00  0.00000000000E+00  0.77168015101E+01  0.77168015101E+01  0.00000000000E+00 0. -1.
         -1   -1    0    0    0  501 -0.00000000000E+00 -0.00000000000E+00 -0.44383909826E+03  0.44383909826E+03  0.00000000000E+00 0.  1.
         24    2    1    2    0    0  0.21454151147E+02  0.12171859463E+02 -0.39114965136E+03  0.40026288273E+03  0.81264326516E+02 0.  0.
        -13    1    3    3    0    0 -0.22003781572E+02  0.28011186777E+02 -0.11922327958E+03  0.12443063683E+03  0.00000000000E+00 0.  1.
         14    1    3    3    0    0  0.43457932719E+02 -0.15839327314E+02 -0.27192637178E+03  0.27583224590E+03  0.00000000000E+00 0. -1.
         -2    1    1    2    0  502 -0.21454151147E+02 -0.12171859463E+02 -0.44972645390E+02  0.51293017045E+02  0.00000000000E+00 0.  1.
<mgrwt>
<rscale>  1 0.84925412E+02</rscale>
<asrwt>0</asrwt>
<pdfrwt beam="1">  1       21 0.11871997E-02 0.84925412E+02</pdfrwt>
<pdfrwt beam="2">  1       -1 0.68282968E-01 0.84925412E+02</pdfrwt>
<totfact> 0.55614433E+05</totfact>
</mgrwt>
</event>
<event>
 6    2  0.8544106E+000  0.8177433E+02  0.7546771E-02  0.1324090E+00
          2   -1    0    0  502    0 -0.00000000000E+00  0.00000000000E+00  0.14388114653E+04  0.14388114653E+04  0.00000000000E+00 0. -1.
         21   -1    0    0  501  502  0.00000000000E+00 -0.00000000000E+00 -0.22649848925E+01  0.22649848925E+01  0.00000000000E+00 0. -1.
         24    2    1    2    0    0 -0.21304761310E+02 -0.13712042343E+01  0.13240082275E+04  0.13265311254E+04  0.78938376074E+02 0.  0.
        -13    1    3    3    0    0  0.29700924636E+02 -0.15864643906E+01  0.59310968534E+03  0.59385499968E+03  0.00000000000E+00 0.  1.
         14    1    3    3    0    0 -0.51005685945E+02  0.21526015636E+00  0.73089854212E+03  0.73267612572E+03  0.00000000000E+00 0. -1.
          1    1    1    2  501    0  0.21304761310E+02  0.13712042343E+01  0.11253825298E+03  0.11454532483E+03  0.00000000000E+00 0. -1.
<mgrwt>
<rscale>  1 0.81774325E+02</rscale>
<asrwt>0</asrwt>
<pdfrwt beam="1">  1       21 0.34846036E-03 0.81774325E+02</pdfrwt>
<pdfrwt beam="2">  1        2 0.22135488E+00 0.81774325E+02</pdfrwt>
<totfact> 0.34523856E+06</totfact>
</mgrwt>
</event>
<event>
 6    2  0.8544106E+000  0.8301997E+02  0.7546771E-02  0.1320693E+00
         21   -1    0    0  501  502  0.00000000000E+00  0.00000000000E+00  0.16500626473E+01  0.16500626473E+01  0.00000000000E+00 0.  1.
          2   -1    0    0  502    0 -0.00000000000E+00 -0.00000000000E+00 -0.23791782093E+04  0.23791782093E+04  0.00000000000E+00 0. -1.
         24    2    1    2    0    0 -0.20292455730E+02  0.32789203837E+01 -0.22594186286E+04  0.22609433549E+04  0.80434941237E+02 0.  0.
        -13    1    3    3    0    0  0.25743147164E+02  0.16927697614E+02 -0.56034955758E+03  0.56119594016E+03  0.00000000000E+00 0.  1.
         14    1    3    3    0    0 -0.46035602894E+02 -0.13648777230E+02 -0.16990690710E+04  0.16997474147E+04  0.00000000000E+00 0. -1.
          1    1    1    2  501    0  0.20292455730E+02 -0.32789203837E+01 -0.11810951811E+03  0.11988491710E+03  0.00000000000E+00 0. -1.
<mgrwt>
<rscale>  1 0.83019967E+02</rscale>
<asrwt>0</asrwt>
<pdfrwt beam="1">  1       21 0.25385498E-03 0.83019967E+02</pdfrwt>
<pdfrwt beam="2">  1        2 0.36602859E+00 0.83019967E+02</pdfrwt>
<totfact> 0.18723628E+06</totfact>
</mgrwt>
</event>
<event>
 6    2  0.8544106E+000  0.8854953E+02  0.7546771E-02  0.1306403E+00
         21   -1    0    0  501  502  0.00000000000E+00  0.00000000000E+00  0.33786601616E+01  0.33786601616E+01  0.00000000000E+00 0. -1.
          2   -1    0    0  502    0 -0.00000000000E+00 -0.00000000000E+00 -0.15183810017E+04  0.15183810017E+04  0.00000000000E+00 0. -1.
         24    2    1    2    0    0  0.35657686761E+02  0.13996490592E+02 -0.13237765175E+04  0.13267348221E+04  0.79835125816E+02 0.  0.
        -11    1    3    3    0    0  0.19342233000E+02  0.17702553173E+02 -0.11952933441E+03  0.12237141885E+03  0.00000000000E+00 0.  1.
         12    1    3    3    0    0  0.16315453760E+02 -0.37060625817E+01 -0.12042471831E+04  0.12043634032E+04  0.00000000000E+00 0. -1.
          1    1    1    2  501    0 -0.35657686761E+02 -0.13996490592E+02 -0.19122582400E+03  0.19502483980E+03  0.00000000000E+00 0. -1.
<mgrwt>
<rscale>  1 0.88549532E+02</rscale>
<asrwt>0</asrwt>
<pdfrwt beam="1">  1       21 0.51979367E-03 0.88549532E+02</pdfrwt>
<pdfrwt beam="2">  1        2 0.23359717E+00 0.88549532E+02</pdfrwt>
<totfact> 0.17211055E+06</totfact>
</mgrwt>
</event>
<event>
 6    2  0.8544106E+000  0.9883450E+02  0.7546771E-02  0.1282766E+00
          2   -1    0    0  502    0 -0.00000000000E+00  0.00000000000E+00  0.26438701631E+03  0.26438701631E+03  0.00000000000E+00 0. -1.
         21   -1    0    0  501  502  0.00000000000E+00 -0.00000000000E+00 -0.23770688346E+02  0.23770688346E+02  0.00000000000E+00 0.  1.
         24    2    1    2    0    0  0.69158744938E+01  0.57871229414E+02  0.13210784179E+03  0.16498709093E+03  0.79820735386E+02 0.  0.
        -11    1    3    3    0    0  0.15542739295E+02 -0.11762063566E+02  0.55271060331E+01  0.20260103288E+02  0.00000000000E+00 0.  1.
         12    1    3    3    0    0 -0.86268648014E+01  0.69633292980E+02  0.12658073576E+03  0.14472698764E+03  0.00000000000E+00 0. -1.
          1    1    1    2  501    0 -0.69158744938E+01 -0.57871229414E+02  0.10850848618E+03  0.12317061373E+03  0.00000000000E+00 0. -1.
<mgrwt>
<rscale>  1 0.98834500E+02</rscale>
<asrwt>0</asrwt>
<pdfrwt beam="1">  1       21 0.36570292E-02 0.98834500E+02</pdfrwt>
<pdfrwt beam="2">  1        2 0.40674924E-01 0.98834500E+02</pdfrwt>
<totfact> 0.67169832E+05</totfact>
</mgrwt>
</event>
<event>
 6    2  0.8544106E+000  0.8897641E+02  0.7546771E-02  0.1305350E+00
         21   -1    0    0  501  502  0.00000000000E+00  0.00000000000E+00  0.40769113070E+01  0.40769113070E+01  0.00000000000E+00 0. -1.
          2   -1    0    0  502    0 -0.00000000000E+00 -0.00000000000E+00 -0.75033936879E+03  0.75033936879E+03  0.00000000000E+00 0. -1.
         24    2    1    2    0    0  0.12548538917E+02  0.17151783974E+02 -0.62576972381E+03  0.63206372234E+03  0.86401113040E+02 0.  0.
        -13    1    3    3    0    0 -0.18537851386E+02 -0.28324364921E+02 -0.24735204235E+03  0.24965767450E+03  0.00000000000E+00 0.  1.
         14    1    3    3    0    0  0.31086390303E+02  0.45476148895E+02 -0.37841768146E+03  0.38240604784E+03  0.00000000000E+00 0. -1.
          1    1    1    2  501    0 -0.12548538917E+02 -0.17151783974E+02 -0.12049273367E+03  0.12235255776E+03  0.00000000000E+00 0. -1.
<mgrwt>
<rscale>  1 0.88976412E+02</rscale>
<asrwt>0</asrwt>
<pdfrwt beam="1">  1       21 0.62721701E-03 0.88976412E+02</pdfrwt>
<pdfrwt beam="2">  1        2 0.11543685E+00 0.88976412E+02</pdfrwt>
<totfact> 0.35249004E+06</totfact>
</mgrwt>
</event>
<event>
 6    2  0.8544106E+000  0.8368413E+02  0.7546771E-02  0.1318910E+00
         21   -1    0    0  501  502  0.00000000000E+00  0.00000000000E+00  0.12319717364E+01  0.12319717364E+01  0.00000000000E+00 0.  1.
          2   -1    0    0  502    0 -0.00000000000E+00 -0.00000000000E+00 -0.23975845500E+04  0.23975845500E+04  0.00000000000E+00 0. -1.
         24    2    1    2    0    0 -0.14655545781E+02  0.15942015744E+02 -0.16178831894E+04  0.16200460021E+04  0.80833788877E+02 0.  0.
        -13    1    3    3    0    0  0.21203693835E+02  0.25252400799E+02 -0.33294810570E+03  0.33457692908E+03  0.00000000000E+00 0.  1.
         14    1    3    3    0    0 -0.35859239616E+02 -0.93103850546E+01 -0.12849350837E+04  0.12854690730E+04  0.00000000000E+00 0. -1.
          1    1    1    2  501    0  0.14655545781E+02 -0.15942015744E+02 -0.77846938889E+03  0.77877051968E+03  0.00000000000E+00 0. -1.
<mgrwt>
<rscale>  1 0.83684134E+02</rscale>
<asrwt>0</asrwt>
<pdfrwt beam="1">  1       21 0.18953301E-03 0.83684134E+02</pdfrwt>
<pdfrwt beam="2">  1        2 0.36886131E+00 0.83684134E+02</pdfrwt>
<totfact> 0.28398769E+06</totfact>
</mgrwt>
</event>
<event>
 6    2  0.8544106E+000  0.8356201E+02  0.7546771E-02  0.1319236E+00
         21   -1    0    0  501  502  0.00000000000E+00  0.00000000000E+00  0.95626262581E+01  0.95626262581E+01  0.00000000000E+00 0. -1.
         -1   -1    0    0    0  501 -0.00000000000E+00 -0.00000000000E+00 -0.31533601173E+03  0.31533601173E+03  0.00000000000E+00 0.  1.
         24    2    1    2    0    0 -0.11225974889E+02  0.19834574043E+02 -0.26856876418E+03  0.28126818205E+03  0.80393882244E+02 0.  0.
        -13    1    3    3    0    0  0.18907005923E+02  0.41743037293E+02 -0.16296744994E+03  0.16928776026E+03  0.00000000000E+00 0.  1.
         14    1    3    3    0    0 -0.30132980812E+02 -0.21908463251E+02 -0.10560131424E+03  0.11198042179E+03  0.00000000000E+00 0. -1.
         -2    1    1    2    0  502  0.11225974889E+02 -0.19834574043E+02 -0.37204621292E+02  0.43630455935E+02  0.00000000000E+00 0.  1.
<mgrwt>
<rscale>  1 0.83562008E+02</rscale>
<asrwt>0</asrwt>
<pdfrwt beam="1">  1       21 0.14711732E-02 0.83562008E+02</pdfrwt>
<pdfrwt beam="2">  1       -1 0.48513235E-01 0.83562008E+02</pdfrwt>
<totfact> 0.74794890E+05</totfact>
</mgrwt>
</event>
<event>
 6    2  0.8544106E+000  0.1097982E+03  0.7546771E-02  0.1260944E+00
          2   -1    0    0  502    0 -0.00000000000E+00  0.00000000000E+00  0.81024404970E+03  0.81024404970E+03  0.00000000000E+00 0. -1.
         21   -1    0    0  501  502  0.00000000000E+00 -0.00000000000E+00 -0.12644941941E+02  0.12644941941E+02  0.00000000000E+00 0.  1.
         24    2    1    2    0    0 -0.27405155984E+01  0.75269297041E+02  0.29681390131E+03  0.31647137692E+03  0.79891569616E+02 0.  0.
        -11    1    3    3    0    0 -0.21594655822E+02  0.74997497813E+02  0.15633785886E+03  0.17473545705E+03  0.00000000000E+00 0.  1.
         12    1    3    3    0    0  0.18854140223E+02  0.27179922820E+00  0.14047604245E+03  0.14173591987E+03  0.00000000000E+00 0. -1.
          1    1    1    2  501    0  0.27405155984E+01 -0.75269297041E+02  0.50078520645E+03  0.50641761472E+03  0.00000000000E+00 0. -1.
<mgrwt>
<rscale>  1 0.10979818E+03</rscale>
<asrwt>0</asrwt>
<pdfrwt beam="1">  1       21 0.19453763E-02 0.10979818E+03</pdfrwt>
<pdfrwt beam="2">  1        2 0.12465289E+00 0.10979818E+03</pdfrwt>
<totfact> 0.55225588E+05</totfact>
</mgrwt>
</event>
<event>
 6    2  0.8544106E+000  0.1196419E+03  0.7546771E-02  0.1243689E+00
         21   -1    0    0  501  502  0.00000000000E+00  0.00000000000E+00  0.15456784094E+03  0.15456784094E+03  0.00000000000E+00 0.  1.
         -3   -1    0    0    0  501 -0.00000000000E+00 -0.00000000000E+00 -0.70098343904E+02  0.70098343904E+02  0.00000000000E+00 0.  1.
         24    2    1    2    0    0  0.82813259904E+02  0.28165127065E+02  0.37498160129E+02  0.12538065272E+03  0.81626500995E+02 0.  0.
        -11    1    3    3    0    0  0.83813620293E+02  0.47195452688E+02  0.43265353428E+02  0.10547049117E+03  0.00000000000E+00 0.  1.
         12    1    3    3    0    0 -0.10003603893E+01 -0.19030325623E+02 -0.57671932991E+01  0.19910161546E+02  0.00000000000E+00 0. -1.
         -4    1    1    2    0  502 -0.82813259904E+02 -0.28165127065E+02  0.46971336906E+02  0.99285532124E+02  0.00000000000E+00 0.  1.
<mgrwt>
<rscale>  1 0.11964195E+03</rscale>
<asrwt>0</asrwt>
<pdfrwt beam="1">  1       21 0.23779668E-01 0.11964195E+03</pdfrwt>
<pdfrwt beam="2">  1       -3 0.10784361E-01 0.11964195E+03</pdfrwt>
<totfact> 0.51249888E+04</totfact>
</mgrwt>
</event>
<event>
 6    2  0.8544106E+000  0.8798195E+02  0.7546771E-02  0.1307814E+00
         21   -1    0    0  501  502  0.00000000000E+00  0.00000000000E+00  0.60077871208E+01  0.60077871208E+01  0.00000000000E+00 0. -1.
          2   -1    0    0  502    0 -0.00000000000E+00 -0.00000000000E+00 -0.24478294339E+04  0.24478294339E+04  0.00000000000E+00 0. -1.
         24    2    1    2    0    0 -0.89125268275E+01  0.38014018674E+02 -0.23736191502E+04  0.23752491857E+04  0.78843677034E+02 0.  0.
        -11    1    3    3    0    0  0.65553721656E+01 -0.85851750278E+01 -0.51959266048E+02  0.53070174889E+02  0.00000000000E+00 0.  1.
         12    1    3    3    0    0 -0.15467898993E+02  0.46599193702E+02 -0.23216598842E+04  0.23221790109E+04  0.00000000000E+00 0. -1.
          1    1    1    2  501    0  0.89125268275E+01 -0.38014018674E+02 -0.68202496597E+02  0.78588035300E+02  0.00000000000E+00 0. -1.
<mgrwt>
<rscale>  1 0.87981954E+02</rscale>
<asrwt>0</asrwt>
<pdfrwt beam="1">  1       21 0.92427549E-03 0.87981954E+02</pdfrwt>
<pdfrwt beam="2">  1        2 0.37658892E+00 0.87981954E+02</pdfrwt>
<totfact> 0.23936322E+05</totfact>
</mgrwt>
</event>
<event>
 6    2  0.8544106E+000  0.1164936E+03  0.7546771E-02  0.1248996E+00
          2   -1    0    0  502    0 -0.00000000000E+00  0.00000000000E+00  0.31999877126E+04  0.31999877126E+04  0.00000000000E+00 0. -1.
         21   -1    0    0  501  502  0.00000000000E+00 -0.00000000000E+00 -0.31335023224E+01  0.31335023224E+01  0.00000000000E+00 0. -1.
         24    2    1    2    0    0  0.31686652470E+02 -0.77516261835E+02  0.18894807387E+04  0.18930684644E+04  0.80981074597E+02 0.  0.
        -13    1    3    3    0    0  0.50365534068E+02 -0.61150574978E+02  0.17150508588E+04  0.17168795905E+04  0.00000000000E+00 0.  1.
         14    1    3    3    0    0 -0.18678881598E+02 -0.16365686857E+02  0.17442987988E+03  0.17618887399E+03  0.00000000000E+00 0. -1.
          1    1    1    2  501    0 -0.31686652470E+02  0.77516261835E+02  0.13073734716E+04  0.13100527504E+04  0.00000000000E+00 0. -1.
<mgrwt>
<rscale>  1 0.11649356E+03</rscale>
<asrwt>0</asrwt>
<pdfrwt beam="1">  1       21 0.48207984E-03 0.11649356E+03</pdfrwt>
<pdfrwt beam="2">  1        2 0.49230319E+00 0.11649356E+03</pdfrwt>
<totfact> 0.24990219E+05</totfact>
</mgrwt>
</event>
<event>
 6    2  0.8544106E+000  0.9808293E+02  0.7546771E-02  0.1284380E+00
          4   -1    0    0  502    0 -0.00000000000E+00  0.00000000000E+00  0.74510124606E+02  0.74510124606E+02  0.00000000000E+00 0. -1.
         21   -1    0    0  501  502  0.00000000000E+00 -0.00000000000E+00 -0.11288330817E+03  0.11288330817E+03  0.00000000000E+00 0.  1.
         24    2    1    2    0    0 -0.69545475706E+01 -0.45697713009E+02 -0.78931489498E+02  0.12589853148E+03  0.86507881074E+02 0.  0.
        -13    1    3    3    0    0  0.21107059882E+02 -0.91366648236E+01 -0.76348481624E+02  0.79737552428E+02  0.00000000000E+00 0.  1.
         14    1    3    3    0    0 -0.28061607452E+02 -0.36561048185E+02 -0.25830078736E+01  0.46160979050E+02  0.00000000000E+00 0. -1.
          3    1    1    2  501    0  0.69545475706E+01  0.45697713009E+02  0.40558305930E+02  0.61494901301E+02  0.00000000000E+00 0. -1.
<mgrwt>
<rscale>  1 0.98082925E+02</rscale>
<asrwt>0</asrwt>
<pdfrwt beam="1">  1       21 0.17366663E-01 0.98082925E+02</pdfrwt>
<pdfrwt beam="2">  1        4 0.11463096E-01 0.98082925E+02</pdfrwt>
<totfact> 0.69760240E+04</totfact>
</mgrwt>
</event>
<event>
 6    2  0.8544106E+000  0.1012360E+03  0.7546771E-02  0.1277718E+00
          2   -1    0    0  502    0 -0.00000000000E+00  0.00000000000E+00  0.24525228648E+04  0.24525228648E+04  0.00000000000E+00 0. -1.
         21   -1    0    0  501  502  0.00000000000E+00 -0.00000000000E+00 -0.13535679210E+02  0.13535679210E+02  0.00000000000E+00 0. -1.
         24    2    1    2    0    0 -0.56647017735E+02 -0.16068606541E+02  0.23818859738E+04  0.23840363938E+04  0.82350774287E+02 0.  0.
        -11    1    3    3    0    0 -0.47734416938E+02  0.28509006314E+02  0.12400409898E+04  0.12412868300E+04  0.00000000000E+00 0.  1.
         12    1    3    3    0    0 -0.89126007970E+01 -0.44577612855E+02  0.11418449840E+04  0.11427495638E+04  0.00000000000E+00 0. -1.
          1    1    1    2  501    0  0.56647017735E+02  0.16068606541E+02  0.57101211724E+02  0.82022150147E+02  0.00000000000E+00 0. -1.
<mgrwt>
<rscale>  1 0.10123603E+03</rscale>
<asrwt>0</asrwt>
<pdfrwt beam="1">  1       21 0.20824141E-02 0.10123603E+03</pdfrwt>
<pdfrwt beam="2">  1        2 0.37731086E+00 0.10123603E+03</pdfrwt>
<totfact> 0.65743434E+04</totfact>
</mgrwt>
</event>
<event>
 6    2  0.8544106E+000  0.8465814E+02  0.7546771E-02  0.1316329E+00
          2   -1    0    0  502    0 -0.00000000000E+00  0.00000000000E+00  0.11900427380E+04  0.11900427380E+04  0.00000000000E+00 0. -1.
         21   -1    0    0  501  502  0.00000000000E+00 -0.00000000000E+00 -0.70398476222E+01  0.70398476222E+01  0.00000000000E+00 0. -1.
         24    2    1    2    0    0  0.16364281146E+02  0.22475947154E+02  0.11532820267E+04  0.11563850717E+04  0.79962761269E+02 0.  0.
        -13    1    3    3    0    0  0.32719699207E+01  0.14440350972E+02  0.35069550088E+02  0.38067083770E+02  0.00000000000E+00 0.  1.
         14    1    3    3    0    0  0.13092311226E+02  0.80355961814E+01  0.11182124766E+04  0.11183179880E+04  0.00000000000E+00 0. -1.
          1    1    1    2  501    0 -0.16364281146E+02 -0.22475947154E+02  0.29720863740E+02  0.40697513921E+02  0.00000000000E+00 0. -1.
<mgrwt>
<rscale>  1 0.84658142E+02</rscale>
<asrwt>0</asrwt>
<pdfrwt beam="1">  1       21 0.10830544E-02 0.84658142E+02</pdfrwt>
<pdfrwt beam="2">  1        2 0.18308334E+00 0.84658142E+02</pdfrwt>
<totfact> 0.81751019E+05</totfact>
</mgrwt>
</event>
<event>
 6    2  0.8544106E+000  0.8124651E+02  0.7546771E-02  0.1325551E+00
         21   -1    0    0  501  502  0.00000000000E+00  0.00000000000E+00  0.17613451826E+02  0.17613451826E+02  0.00000000000E+00 0. -1.
          2   -1    0    0  502    0 -0.00000000000E+00 -0.00000000000E+00 -0.22532725535E+04  0.22532725535E+04  0.00000000000E+00 0. -1.
         24    2    1    2    0    0  0.20896846559E+02 -0.75514228563E+01 -0.22452252822E+04  0.22466948086E+04  0.78149171553E+02 0.  0.
        -11    1    3    3    0    0  0.17732556063E+02  0.22939566609E+02 -0.34321694678E+03  0.34443945740E+03  0.00000000000E+00 0.  1.
         12    1    3    3    0    0  0.31642904954E+01 -0.30490989465E+02 -0.19020083355E+04  0.19022553512E+04  0.00000000000E+00 0. -1.
          1    1    1    2  501    0 -0.20896846559E+02  0.75514228563E+01  0.95661806074E+01  0.24191196636E+02  0.00000000000E+00 0. -1.
<mgrwt>
<rscale>  1 0.81246509E+02</rscale>
<asrwt>0</asrwt>
<pdfrwt beam="1">  1       21 0.27097628E-02 0.81246509E+02</pdfrwt>
<pdfrwt beam="2">  1        2 0.34665719E+00 0.81246509E+02</pdfrwt>
<totfact> 0.54866416E+04</totfact>
</mgrwt>
</event>
<event>
 6    2  0.8544106E+000  0.1252630E+03  0.7546771E-02  0.1234659E+00
         21   -1    0    0  501  502  0.00000000000E+00  0.00000000000E+00  0.98120208935E+02  0.98120208935E+02  0.00000000000E+00 0. -1.
          4   -1    0    0  502    0 -0.00000000000E+00 -0.00000000000E+00 -0.99521551504E+03  0.99521551504E+03  0.00000000000E+00 0. -1.
         24    2    1    2    0    0  0.20266227181E+02  0.95560870939E+02 -0.96581202555E+03  0.97390127521E+03  0.78410618749E+02 0.  0.
        -11    1    3    3    0    0  0.22206194710E+02 -0.63348714665E+01 -0.15544215286E+03  0.15714804665E+03  0.00000000000E+00 0.  1.
         12    1    3    3    0    0 -0.19399675288E+01  0.10189574241E+03 -0.81036987269E+03  0.81675322856E+03  0.00000000000E+00 0. -1.
          3    1    1    2  501    0 -0.20266227181E+02 -0.95560870939E+02  0.68716719452E+02  0.11943444876E+03  0.00000000000E+00 0. -1.
<mgrwt>
<rscale>  1 0.12526302E+03</rscale>
<asrwt>0</asrwt>
<pdfrwt beam="1">  1       21 0.15095417E-01 0.12526302E+03</pdfrwt>
<pdfrwt beam="2">  1        4 0.15311007E+00 0.12526302E+03</pdfrwt>
<totfact> 0.48998906E+02</totfact>
</mgrwt>
</event>
<event>
 6    2  0.8544106E+000  0.8682875E+02  0.7546771E-02  0.1310718E+00
          2   -1    0    0  502    0 -0.00000000000E+00  0.00000000000E+00  0.19821147884E+03  0.19821147884E+03  0.00000000000E+00 0. -1.
         21   -1    0    0  501  502  0.00000000000E+00 -0.00000000000E+00 -0.58468071920E+02  0.58468071920E+02  0.00000000000E+00 0. -1.
         24    2    1    2    0    0 -0.17407917416E+02  0.25788983629E+02  0.18348965711E+03  0.20299676329E+03  0.81062472038E+02 0.  0.
        -11    1    3    3    0    0 -0.70210949639E+01 -0.62118690140E+01 -0.56116489004E+01  0.10925826949E+02  0.00000000000E+00 0.  1.
         12    1    3    3    0    0 -0.10386822452E+02  0.32000852643E+02  0.18910130601E+03  0.19207093634E+03  0.00000000000E+00 0. -1.
          1    1    1    2  501    0  0.17407917416E+02 -0.25788983629E+02 -0.43746250190E+02  0.53682787474E+02  0.00000000000E+00 0. -1.
<mgrwt>
<rscale>  1 0.86828749E+02</rscale>
<asrwt>0</asrwt>
<pdfrwt beam="1">  1       21 0.89950881E-02 0.86828749E+02</pdfrwt>
<pdfrwt beam="2">  1        2 0.30494073E-01 0.86828749E+02</pdfrwt>
<totfact> 0.19909737E+05</totfact>
</mgrwt>
</event>
<event>
 6    2  0.8544106E+000  0.8210625E+02  0.7546771E-02  0.1323178E+00
         -1   -1    0    0    0  501 -0.00000000000E+00  0.00000000000E+00  0.62960497404E+03  0.62960497404E+03  0.00000000000E+00 0.  1.
         21   -1    0    0  501  502  0.00000000000E+00 -0.00000000000E+00 -0.60777562129E+01  0.60777562129E+01  0.00000000000E+00 0.  1.
         24    2    1    2    0    0  0.58762117928E+01 -0.21729222129E+02  0.58744312760E+03  0.59315332247E+03  0.78960413026E+02 0.  0.
        -11    1    3    3    0    0  0.19434966311E+02 -0.48090932996E+02  0.40689067359E+03  0.41018346628E+03  0.00000000000E+00 0.  1.
         12    1    3    3    0    0 -0.13558754518E+02  0.26361710868E+02  0.18055245401E+03  0.18296985619E+03  0.00000000000E+00 0. -1.
         -2    1    1    2    0  502 -0.58762117928E+01  0.21729222129E+02  0.36084090219E+02  0.42529407782E+02  0.00000000000E+00 0.  1.
<mgrwt>
<rscale>  1 0.82106247E+02</rscale>
<asrwt>0</asrwt>
<pdfrwt beam="1">  1       21 0.93503991E-03 0.82106247E+02</pdfrwt>
<pdfrwt beam="2">  1       -1 0.96862252E-01 0.82106247E+02</pdfrwt>
<totfact> 0.39513429E+05</totfact>
</mgrwt>
</event>
<event>
 6    2  0.8544106E+000  0.8345372E+02  0.7546771E-02  0.1319526E+00
         21   -1    0    0  501  502  0.00000000000E+00  0.00000000000E+00  0.18465270127E+01  0.18465270127E+01  0.00000000000E+00 0.  1.
          2   -1    0    0  502    0 -0.00000000000E+00 -0.00000000000E+00 -0.16516395488E+04  0.16516395488E+04  0.00000000000E+00 0. -1.
         24    2    1    2    0    0 -0.13090913993E+01 -0.21844035963E+02 -0.14698649657E+04  0.14722321628E+04  0.80533521351E+02 0.  0.
        -11    1    3    3    0    0  0.22263224675E+02 -0.17862403359E+01 -0.12298433584E+03  0.12499595469E+03  0.00000000000E+00 0.  1.
         12    1    3    3    0    0 -0.23572316074E+02 -0.20057795627E+02 -0.13468806299E+04  0.13472362081E+04  0.00000000000E+00 0. -1.
          1    1    1    2  501    0  0.13090913993E+01  0.21844035963E+02 -0.17992805603E+03  0.18125391299E+03  0.00000000000E+00 0. -1.
<mgrwt>
<rscale>  1 0.83453722E+02</rscale>
<asrwt>0</asrwt>
<pdfrwt beam="1">  1       21 0.28408028E-03 0.83453722E+02</pdfrwt>
<pdfrwt beam="2">  1        2 0.25409911E+00 0.83453722E+02</pdfrwt>
<totfact> 0.36749471E+06</totfact>
</mgrwt>
</event>
<event>
 6    2  0.8544106E+000  0.8487967E+02  0.7546771E-02  0.1315748E+00
         21   -1    0    0  501  502  0.00000000000E+00  0.00000000000E+00  0.99912892172E+01  0.99912892172E+01  0.00000000000E+00 0. -1.
          2   -1    0    0  502    0 -0.00000000000E+00 -0.00000000000E+00 -0.31436623149E+03  0.31436623149E+03  0.00000000000E+00 0. -1.
         24    2    1    2    0    0 -0.79389769061E+01 -0.22477932629E+02 -0.26567496796E+03  0.27890454697E+03  0.81463322493E+02 0.  0.
        -13    1    3    3    0    0  0.32536900243E+02 -0.24111082393E+02 -0.91170426135E+02  0.99759915664E+02  0.00000000000E+00 0.  1.
         14    1    3    3    0    0 -0.40475877149E+02  0.16331497640E+01 -0.17450454183E+03  0.17914463131E+03  0.00000000000E+00 0. -1.
          1    1    1    2  501    0  0.79389769061E+01  0.22477932629E+02 -0.38699974314E+02  0.45452973737E+02  0.00000000000E+00 0. -1.
<mgrwt>
<rscale>  1 0.84879666E+02</rscale>
<asrwt>0</asrwt>
<pdfrwt beam="1">  1       21 0.15371217E-02 0.84879666E+02</pdfrwt>
<pdfrwt beam="2">  1        2 0.48364026E-01 0.84879666E+02</pdfrwt>
<totfact> 0.22285041E+06</totfact>
</mgrwt>
</event>
<event>
 6    2  0.8544106E+000  0.1144078E+03  0.7546771E-02  0.1252618E+00
         21   -1    0    0  501  502  0.00000000000E+00  0.00000000000E+00  0.15219892109E+03  0.15219892109E+03  0.00000000000E+00 0.  1.
         -3   -1    0    0    0  501 -0.00000000000E+00 -0.00000000000E+00 -0.23317739969E+03  0.23317739969E+03  0.00000000000E+00 0.  1.
         24    2    1    2    0    0 -0.64958184447E+02 -0.47600055155E+02 -0.20659742516E+03  0.23616019997E+03  0.81263847965E+02 0.  0.
        -11    1    3    3    0    0 -0.71814622420E+02 -0.31339453865E+02 -0.20373443054E+03  0.21828243069E+03  0.00000000000E+00 0.  1.
         12    1    3    3    0    0  0.68564379724E+01 -0.16260601290E+02 -0.28629946255E+01  0.17877769274E+02  0.00000000000E+00 0. -1.
         -4    1    1    2    0  502  0.64958184447E+02  0.47600055155E+02  0.12561894656E+03  0.14921612082E+03  0.00000000000E+00 0.  1.
<mgrwt>
<rscale>  1 0.11440780E+03</rscale>
<asrwt>0</asrwt>
<pdfrwt beam="1">  1       21 0.23415219E-01 0.11440780E+03</pdfrwt>
<pdfrwt beam="2">  1       -3 0.35873446E-01 0.11440780E+03</pdfrwt>
<totfact> 0.63507418E+03</totfact>
</mgrwt>
</event>
<event>
 6    2  0.8544106E+000  0.8983051E+02  0.7546771E-02  0.1303263E+00
         21   -1    0    0  501  502  0.00000000000E+00  0.00000000000E+00  0.41765727990E+01  0.41765727990E+01  0.00000000000E+00 0.  1.
          2   -1    0    0  502    0 -0.00000000000E+00 -0.00000000000E+00 -0.86513934240E+03  0.86513934240E+03  0.00000000000E+00 0. -1.
         24    2    1    2    0    0  0.24814923799E+02  0.17447303615E+02 -0.63182876988E+03  0.63818266646E+03  0.84553725344E+02 0.  0.
        -11    1    3    3    0    0  0.74844565338E+01  0.42811216845E+01 -0.32304198688E+01  0.92076438361E+01  0.00000000000E+00 0.  1.
         12    1    3    3    0    0  0.17330467265E+02  0.13166181931E+02 -0.62859835001E+03  0.62897502262E+03  0.00000000000E+00 0. -1.
          1    1    1    2  501    0 -0.24814923799E+02 -0.17447303615E+02 -0.22913399972E+03  0.23113324874E+03  0.00000000000E+00 0. -1.
<mgrwt>
<rscale>  1 0.89830514E+02</rscale>
<asrwt>0</asrwt>
<pdfrwt beam="1">  1       21 0.64254990E-03 0.89830514E+02</pdfrwt>
<pdfrwt beam="2">  1        2 0.13309831E+00 0.89830514E+02</pdfrwt>
<totfact> 0.28558129E+06</totfact>
</mgrwt>
</event>
<event>
 6    2  0.8544106E+000  0.9564482E+02  0.7546771E-02  0.1289730E+00
          2   -1    0    0  502    0 -0.00000000000E+00  0.00000000000E+00  0.16394180593E+04  0.16394180593E+04  0.00000000000E+00 0. -1.
         21   -1    0    0  501  502  0.00000000000E+00 -0.00000000000E+00 -0.31812058276E+01  0.31812058276E+01  0.00000000000E+00 0. -1.
         24    2    1    2    0    0 -0.19847355626E+02  0.18975560936E+02  0.15259853580E+04  0.15289798051E+04  0.91618459934E+02 0.  0.
        -11    1    3    3    0    0 -0.29079388144E+02 -0.28741542542E+02  0.97437379842E+03  0.97523124751E+03  0.00000000000E+00 0.  1.
         12    1    3    3    0    0  0.92320325178E+01  0.47717103478E+02  0.55161155954E+03  0.55374855757E+03  0.00000000000E+00 0. -1.
          1    1    1    2  501    0  0.19847355626E+02 -0.18975560936E+02  0.11025149547E+03  0.11361946001E+03  0.00000000000E+00 0. -1.
<mgrwt>
<rscale>  1 0.95644820E+02</rscale>
<asrwt>0</asrwt>
<pdfrwt beam="1">  1       21 0.48941759E-03 0.95644820E+02</pdfrwt>
<pdfrwt beam="2">  1        2 0.25221749E+00 0.95644820E+02</pdfrwt>
<totfact> 0.16478083E+06</totfact>
</mgrwt>
</event>
<event>
 6    2  0.8544106E+000  0.8575535E+02  0.7546771E-02  0.1313469E+00
         21   -1    0    0  501  502  0.00000000000E+00  0.00000000000E+00  0.30977652661E+01  0.30977652661E+01  0.00000000000E+00 0.  1.
          2   -1    0    0  502    0 -0.00000000000E+00 -0.00000000000E+00 -0.96999705592E+03  0.96999705592E+03  0.00000000000E+00 0. -1.
         24    2    1    2    0    0 -0.19999077634E+02 -0.49135003019E+01 -0.85723068162E+03  0.86150938576E+03  0.83245868687E+02 0.  0.
        -13    1    3    3    0    0 -0.21880166459E+02 -0.54191221018E+01 -0.57271216225E+02  0.61547548908E+02  0.00000000000E+00 0.  1.
         14    1    3    3    0    0  0.18810888246E+01  0.50562179998E+00 -0.79995946539E+03  0.79996183685E+03  0.00000000000E+00 0. -1.
          1    1    1    2  501    0  0.19999077634E+02  0.49135003019E+01 -0.10966860904E+03  0.11158543543E+03  0.00000000000E+00 0. -1.
<mgrwt>
<rscale>  1 0.85755351E+02</rscale>
<asrwt>0</asrwt>
<pdfrwt beam="1">  1       21 0.47657888E-03 0.85755351E+02</pdfrwt>
<pdfrwt beam="2">  1        2 0.14923044E+00 0.85755351E+02</pdfrwt>
<totfact> 0.38775924E+06</totfact>
</mgrwt>
</event>
<event>
 6    2  0.8544106E+000  0.8623866E+02  0.7546771E-02  0.1312225E+00
         21   -1    0    0  501  502  0.00000000000E+00  0.00000000000E+00  0.10390220600E+01  0.10390220600E+01  0.00000000000E+00 0. -1.
          2   -1    0    0  502    0 -0.00000000000E+00 -0.00000000000E+00 -0.29357938871E+04  0.29357938871E+04  0.00000000000E+00 0. -1.
         24    2    1    2    0    0  0.21459845077E+02 -0.86874752906E+01 -0.24646717853E+04  0.24661800657E+04  0.83072920601E+02 0.  0.
        -13    1    3    3    0    0 -0.19847719920E+02 -0.32544158818E+02 -0.97555721989E+03  0.97630166626E+03  0.00000000000E+00 0.  1.
         14    1    3    3    0    0  0.41307564998E+02  0.23856683527E+02 -0.14891145654E+04  0.14898783994E+04  0.00000000000E+00 0. -1.
          1    1    1    2  501    0 -0.21459845077E+02  0.86874752906E+01 -0.47008307979E+03  0.47065284349E+03  0.00000000000E+00 0. -1.
<mgrwt>
<rscale>  1 0.86238665E+02</rscale>
<asrwt>0</asrwt>
<pdfrwt beam="1">  1       21 0.15985159E-03 0.86238665E+02</pdfrwt>
<pdfrwt beam="2">  1        2 0.45165481E+00 0.86238665E+02</pdfrwt>
<totfact> 0.18854438E+06</totfact>
</mgrwt>
</event>
<event>
 6    2  0.8544106E+000  0.9439378E+02  0.7546771E-02  0.1292547E+00
          2   -1    0    0  502    0 -0.00000000000E+00  0.00000000000E+00  0.80621997233E+03  0.80621997233E+03  0.00000000000E+00 0. -1.
         21   -1    0    0  501  502  0.00000000000E+00 -0.00000000000E+00 -0.72600709519E+01  0.72600709519E+01  0.00000000000E+00 0. -1.
         24    2    1    2    0    0  0.44542058086E+02  0.14943409091E+02  0.66177540185E+03  0.66847353541E+03  0.81871146561E+02 0.  0.
        -13    1    3    3    0    0  0.29114159869E+02 -0.31828434041E+02  0.24148692428E+03  0.24530922958E+03  0.00000000000E+00 0.  1.
         14    1    3    3    0    0  0.15427898217E+02  0.46771843132E+02  0.42028847756E+03  0.42316430583E+03  0.00000000000E+00 0. -1.
          1    1    1    2  501    0 -0.44542058086E+02 -0.14943409091E+02  0.13718449953E+03  0.14500650787E+03  0.00000000000E+00 0. -1.
<mgrwt>
<rscale>  1 0.94393777E+02</rscale>
<asrwt>0</asrwt>
<pdfrwt beam="1">  1       21 0.11169346E-02 0.94393777E+02</pdfrwt>
<pdfrwt beam="2">  1        2 0.12403377E+00 0.94393777E+02</pdfrwt>
<totfact> 0.13252732E+06</totfact>
</mgrwt>
</event>
<event>
 6    2  0.8544106E+000  0.1353057E+03  0.7546771E-02  0.1219789E+00
         -1   -1    0    0    0  501 -0.00000000000E+00  0.00000000000E+00  0.13670212082E+04  0.13670212082E+04  0.00000000000E+00 0.  1.
         21   -1    0    0  501  502  0.00000000000E+00 -0.00000000000E+00 -0.16403893151E+02  0.16403893151E+02  0.00000000000E+00 0.  1.
         24    2    1    2    0    0 -0.93494190635E+02  0.55350088155E+02  0.11239285935E+04  0.11320437727E+04  0.80640089132E+02 0.  0.
        -11    1    3    3    0    0 -0.47093662329E+02  0.43648844710E+02  0.93309917236E+03  0.93530588587E+03  0.00000000000E+00 0.  1.
         12    1    3    3    0    0 -0.46400528306E+02  0.11701243445E+02  0.19082942116E+03  0.19673788680E+03  0.00000000000E+00 0. -1.
         -2    1    1    2    0  502  0.93494190635E+02 -0.55350088155E+02  0.22668872156E+03  0.25138132871E+03  0.00000000000E+00 0.  1.
<mgrwt>
<rscale>  1 0.13530565E+03</rscale>
<asrwt>0</asrwt>
<pdfrwt beam="1">  1       21 0.25236769E-02 0.13530565E+03</pdfrwt>
<pdfrwt beam="2">  1       -1 0.21031087E+00 0.13530565E+03</pdfrwt>
<totfact> 0.11504072E+04</totfact>
</mgrwt>
</event>
<event>
 6    2  0.8544106E+000  0.9316197E+02  0.7546771E-02  0.1295370E+00
         21   -1    0    0  501  502  0.00000000000E+00  0.00000000000E+00  0.50891643857E+01  0.50891643857E+01  0.00000000000E+00 0. -1.
          2   -1    0    0  502    0 -0.00000000000E+00 -0.00000000000E+00 -0.14337718820E+04  0.14337718820E+04  0.00000000000E+00 0. -1.
         24    2    1    2    0    0 -0.78671570075E+01 -0.45098189626E+02 -0.12776674441E+04  0.12810594250E+04  0.81138239332E+02 0.  0.
        -13    1    3    3    0    0  0.55493552645E+01 -0.14874069999E+02 -0.41244654345E+02  0.44194511132E+02  0.00000000000E+00 0.  1.
         14    1    3    3    0    0 -0.13416512272E+02 -0.30224119627E+02 -0.12364227897E+04  0.12368649139E+04  0.00000000000E+00 0. -1.
          1    1    1    2  501    0  0.78671570075E+01  0.45098189626E+02 -0.15101527348E+03  0.15780162132E+03  0.00000000000E+00 0. -1.
<mgrwt>
<rscale>  1 0.93161971E+02</rscale>
<asrwt>0</asrwt>
<pdfrwt beam="1">  1       21 0.78294766E-03 0.93161971E+02</pdfrwt>
<pdfrwt beam="2">  1        2 0.22058049E+00 0.93161971E+02</pdfrwt>
<totfact> 0.10144860E+06</totfact>
</mgrwt>
</event>
<event>
 6    2  0.8544106E+000  0.9156019E+02  0.7546771E-02  0.1299117E+00
         -1   -1    0    0    0  501 -0.00000000000E+00  0.00000000000E+00  0.12128122515E+04  0.12128122515E+04  0.00000000000E+00 0.  1.
         21   -1    0    0  501  502  0.00000000000E+00 -0.00000000000E+00 -0.54294055433E+01  0.54294055433E+01  0.00000000000E+00 0.  1.
         24    2    1    2    0    0  0.38213758115E+02  0.21225593139E+02  0.10736258567E+04  0.10775229685E+04  0.80451541251E+02 0.  0.
        -13    1    3    3    0    0  0.34169343698E+00 -0.36542978406E+01  0.81156909079E+03  0.81157738989E+03  0.00000000000E+00 0.  1.
         14    1    3    3    0    0  0.37872064678E+02  0.24879890980E+02  0.26205676588E+03  0.26594557865E+03  0.00000000000E+00 0. -1.
         -2    1    1    2    0  502 -0.38213758115E+02 -0.21225593139E+02  0.13375698929E+03  0.14071868852E+03  0.00000000000E+00 0.  1.
<mgrwt>
<rscale>  1 0.91560186E+02</rscale>
<asrwt>0</asrwt>
<pdfrwt beam="1">  1       21 0.83529413E-03 0.91560186E+02</pdfrwt>
<pdfrwt beam="2">  1       -1 0.18658628E+00 0.91560186E+02</pdfrwt>
<totfact> 0.94644753E+04</totfact>
</mgrwt>
</event>
<event>
 6    2  0.8544106E+000  0.8402406E+02  0.7546771E-02  0.1318005E+00
         21   -1    0    0  501  502  0.00000000000E+00  0.00000000000E+00  0.63280461774E+01  0.63280461774E+01  0.00000000000E+00 0.  1.
          2   -1    0    0  502    0 -0.00000000000E+00 -0.00000000000E+00 -0.56711047611E+03  0.56711047611E+03  0.00000000000E+00 0. -1.
         24    2    1    2    0    0  0.17775075089E+02 -0.26469566499E+02 -0.46379379321E+03  0.47134353270E+03  0.77739642106E+02 0.  0.
        -13    1    3    3    0    0  0.43759951897E+02 -0.41279371304E+01 -0.17130751331E+03  0.17685654461E+03  0.00000000000E+00 0.  1.
         14    1    3    3    0    0 -0.25984876808E+02 -0.22341629369E+02 -0.29248627990E+03  0.29448698810E+03  0.00000000000E+00 0. -1.
          1    1    1    2  501    0 -0.17775075089E+02  0.26469566499E+02 -0.96988636718E+02  0.10209498958E+03  0.00000000000E+00 0. -1.
<mgrwt>
<rscale>  1 0.84024063E+02</rscale>
<asrwt>0</asrwt>
<pdfrwt beam="1">  1       21 0.97354545E-03 0.84024063E+02</pdfrwt>
<pdfrwt beam="2">  1        2 0.87247776E-01 0.84024063E+02</pdfrwt>
<totfact> 0.24387430E+06</totfact>
</mgrwt>
</event>
<event>
 6    2  0.8544106E+000  0.9076052E+02  0.7546771E-02  0.1301020E+00
          2   -1    0    0  502    0 -0.00000000000E+00  0.00000000000E+00  0.45117294090E+03  0.45117294090E+03  0.00000000000E+00 0. -1.
         21   -1    0    0  501  502  0.00000000000E+00 -0.00000000000E+00 -0.11956228125E+02  0.11956228125E+02  0.00000000000E+00 0. -1.
         24    2    1    2    0    0 -0.26068503185E+02  0.33106878969E+02  0.37845456030E+03  0.38918546431E+03  0.80385565410E+02 0.  0.
        -11    1    3    3    0    0  0.21768153853E+02  0.63388013724E+01  0.37262509279E+02  0.43617972475E+02  0.00000000000E+00 0.  1.
         12    1    3    3    0    0 -0.47836657038E+02  0.26768077597E+02  0.34119205102E+03  0.34556749183E+03  0.00000000000E+00 0. -1.
          1    1    1    2  501    0  0.26068503185E+02 -0.33106878969E+02  0.60762152476E+02  0.73943704714E+02  0.00000000000E+00 0. -1.
<mgrwt>
<rscale>  1 0.90760517E+02</rscale>
<asrwt>0</asrwt>
<pdfrwt beam="1">  1       21 0.18394201E-02 0.90760517E+02</pdfrwt>
<pdfrwt beam="2">  1        2 0.69411209E-01 0.90760517E+02</pdfrwt>
<totfact> 0.11553713E+06</totfact>
</mgrwt>
</event>
<event>
 6    2  0.8544106E+000  0.9907615E+02  0.7546771E-02  0.1282251E+00
          2   -1    0    0  502    0 -0.00000000000E+00  0.00000000000E+00  0.19117204608E+03  0.19117204608E+03  0.00000000000E+00 0. -1.
         21   -1    0    0  501  502  0.00000000000E+00 -0.00000000000E+00 -0.60780495062E+02  0.60780495062E+02  0.00000000000E+00 0. -1.
         24    2    1    2    0    0  0.55406658361E+02  0.16679887674E+02  0.15904758572E+03  0.18738254216E+03  0.80423666550E+02 0.  0.
        -11    1    3    3    0    0 -0.17445135676E+02  0.99142779840E+01  0.12650424197E+02  0.23720432101E+02  0.00000000000E+00 0.  1.
         12    1    3    3    0    0  0.72851794037E+02  0.67656096895E+01  0.14639716152E+03  0.16366211006E+03  0.00000000000E+00 0. -1.
          1    1    1    2  501    0 -0.55406658361E+02 -0.16679887674E+02 -0.28656034698E+02  0.64569998979E+02  0.00000000000E+00 0. -1.
<mgrwt>
<rscale>  1 0.99076145E+02</rscale>
<asrwt>0</asrwt>
<pdfrwt beam="1">  1       21 0.93508455E-02 0.99076145E+02</pdfrwt>
<pdfrwt beam="2">  1        2 0.29411084E-01 0.99076145E+02</pdfrwt>
<totfact> 0.19514865E+05</totfact>
</mgrwt>
</event>
<event>
 6    2  0.1108617E+001  0.1477069E+03  0.7546771E-02  0.1203319E+00
         21   -1    0    0  501  502  0.00000000000E+00  0.00000000000E+00  0.55338572662E+02  0.55338572662E+02  0.00000000000E+00 0.  1.
         -1   -1    0    0    0  501 -0.00000000000E+00 -0.00000000000E+00 -0.33283045972E+03  0.33283045972E+03  0.00000000000E+00 0.  1.
         24    2    1    2    0    0  0.10146413913E+03 -0.70790430066E+02 -0.15194818586E+03  0.21190934490E+03  0.80691156601E+02 0.  0.
        -11    1    3    3    0    0  0.95370427417E+02 -0.82582269225E+02 -0.15333673500E+03  0.19856360169E+03  0.00000000000E+00 0.  1.
         12    1    3    3    0    0  0.60937117132E+01  0.11791839159E+02  0.13885491414E+01  0.13345743213E+02  0.00000000000E+00 0. -1.
         -2    1    1    2    0  502 -0.10146413913E+03  0.70790430066E+02 -0.12554370119E+03  0.17625968747E+03  0.00000000000E+00 0.  1.
<mgrwt>
<rscale>  1 0.14770687E+03</rscale>
<asrwt>0</asrwt>
<pdfrwt beam="1">  1       21 0.85136265E-02 0.14770687E+03</pdfrwt>
<pdfrwt beam="2">  1       -1 0.51204687E-01 0.14770687E+03</pdfrwt>
<totfact> 0.38973208E+04</totfact>
</mgrwt>
</event>
<event>
 6    2  0.8544106E+000  0.9495213E+02  0.7546771E-02  0.1291284E+00
          2   -1    0    0  502    0 -0.00000000000E+00  0.00000000000E+00  0.14848451971E+02  0.14848451971E+02  0.00000000000E+00 0. -1.
         21   -1    0    0  501  502  0.00000000000E+00 -0.00000000000E+00 -0.66426437762E+03  0.66426437762E+03  0.00000000000E+00 0. -1.
         24    2    1    2    0    0 -0.51180953049E+02 -0.19797438430E+02 -0.15578811690E+03  0.18244408476E+03  0.77488568014E+02 0.  0.
        -13    1    3    3    0    0 -0.27244042270E+02 -0.24379853680E+02 -0.15369425473E+03  0.15798271754E+03  0.00000000000E+00 0.  1.
         14    1    3    3    0    0 -0.23936910779E+02  0.45824152508E+01 -0.20938621651E+01  0.24461367213E+02  0.00000000000E+00 0. -1.
          1    1    1    2  501    0  0.51180953049E+02  0.19797438430E+02 -0.49362780875E+03  0.49666874484E+03  0.00000000000E+00 0. -1.
<mgrwt>
<rscale>  1 0.94952128E+02</rscale>
<asrwt>0</asrwt>
<pdfrwt beam="1">  1       21 0.10219451E+00 0.94952128E+02</pdfrwt>
<pdfrwt beam="2">  1        2 0.22843775E-02 0.94952128E+02</pdfrwt>
<totfact> 0.41840019E+04</totfact>
</mgrwt>
</event>
<event>
 6    2  0.8544106E+000  0.7926686E+02  0.7546771E-02  0.1331145E+00
         21   -1    0    0  501  502  0.00000000000E+00  0.00000000000E+00  0.95209925530E+02  0.95209925530E+02  0.00000000000E+00 0. -1.
         -3   -1    0    0    0  501 -0.00000000000E+00 -0.00000000000E+00 -0.29852502817E+02  0.29852502817E+02  0.00000000000E+00 0.  1.
         24    2    1    2    0    0  0.18586826802E+02  0.20017099558E+02  0.50143387162E+02  0.93795492408E+02  0.74411563045E+02 0.  0.
        -13    1    3    3    0    0 -0.13349196962E+02  0.33975083923E+02  0.51238546175E+01  0.36861379155E+02  0.00000000000E+00 0.  1.
         14    1    3    3    0    0  0.31936023764E+02 -0.13957984365E+02  0.45019532544E+02  0.56934113253E+02  0.00000000000E+00 0. -1.
         -4    1    1    2    0  502 -0.18586826802E+02 -0.20017099558E+02  0.15214035551E+02  0.31266935939E+02  0.00000000000E+00 0.  1.
<mgrwt>
<rscale>  1 0.79266860E+02</rscale>
<asrwt>0</asrwt>
<pdfrwt beam="1">  1       21 0.14647681E-01 0.79266860E+02</pdfrwt>
<pdfrwt beam="2">  1       -3 0.45926928E-02 0.79266860E+02</pdfrwt>
<totfact> 0.46040000E+05</totfact>
</mgrwt>
</event>
<event>
 6    2  0.8544106E+000  0.8365858E+02  0.7546771E-02  0.1318978E+00
         -3   -1    0    0    0  501 -0.00000000000E+00  0.00000000000E+00  0.27369486654E+02  0.27369486654E+02  0.00000000000E+00 0.  1.
         21   -1    0    0  501  502  0.00000000000E+00 -0.00000000000E+00 -0.19419249801E+03  0.19419249801E+03  0.00000000000E+00 0.  1.
         24    2    1    2    0    0  0.83973004318E+01 -0.20842825998E+02 -0.39938313228E+02  0.92702896240E+02  0.80584241994E+02 0.  0.
        -11    1    3    3    0    0  0.25956843020E+02 -0.23932160567E+02  0.12392950187E+02  0.37417792871E+02  0.00000000000E+00 0.  1.
         12    1    3    3    0    0 -0.17559542589E+02  0.30893345692E+01 -0.52331263415E+02  0.55285103369E+02  0.00000000000E+00 0. -1.
         -4    1    1    2    0  502 -0.83973004318E+01  0.20842825998E+02 -0.12688469813E+03  0.12885908843E+03  0.00000000000E+00 0.  1.
<mgrwt>
<rscale>  1 0.83658581E+02</rscale>
<asrwt>0</asrwt>
<pdfrwt beam="1">  1       21 0.29875770E-01 0.83658581E+02</pdfrwt>
<pdfrwt beam="2">  1       -3 0.42106901E-02 0.83658581E+02</pdfrwt>
<totfact> 0.14368263E+05</totfact>
</mgrwt>
</event>
<event>
 6    2  0.8544106E+000  0.8408912E+02  0.7546771E-02  0.1317832E+00
         21   -1    0    0  501  502  0.00000000000E+00  0.00000000000E+00  0.29691088288E+02  0.29691088288E+02  0.00000000000E+00 0. -1.
         -1   -1    0    0    0  501 -0.00000000000E+00 -0.00000000000E+00 -0.98050525039E+02  0.98050525039E+02  0.00000000000E+00 0.  1.
         24    2    1    2    0    0  0.11690288845E+02 -0.19861451720E+02 -0.47070227614E+02  0.96366933354E+02  0.80869273514E+02 0.  0.
        -11    1    3    3    0    0 -0.17836264140E+02 -0.19521469265E+02 -0.58894975270E+02  0.64558796401E+02  0.00000000000E+00 0.  1.
         12    1    3    3    0    0  0.29526552986E+02 -0.33998245569E+00  0.11824747656E+02  0.31808136953E+02  0.00000000000E+00 0. -1.
         -2    1    1    2    0  502 -0.11690288845E+02  0.19861451720E+02 -0.21289209137E+02  0.31374679973E+02  0.00000000000E+00 0.  1.
<mgrwt>
<rscale>  1 0.84089117E+02</rscale>
<asrwt>0</asrwt>
<pdfrwt beam="1">  1       21 0.45678597E-02 0.84089117E+02</pdfrwt>
<pdfrwt beam="2">  1       -1 0.15084696E-01 0.84089117E+02</pdfrwt>
<totfact> 0.82387494E+05</totfact>
</mgrwt>
</event>
<event>
 6    2  0.8622370E+000  0.8214478E+02  0.7546771E-02  0.1323073E+00
         -1   -1    0    0    0  501 -0.00000000000E+00  0.00000000000E+00  0.56528537282E+02  0.56528537282E+02  0.00000000000E+00 0.  1.
         21   -1    0    0  501  502  0.00000000000E+00 -0.00000000000E+00 -0.56475279670E+02  0.56475279670E+02  0.00000000000E+00 0. -1.
         24    2    1    2    0    0 -0.16930695301E+02 -0.13251787783E+02 -0.18957828771E+02  0.84303995902E+02  0.79281183963E+02 0.  0.
        -13    1    3    3    0    0  0.15853387938E+02  0.89428382308E+01  0.21179786156E+02  0.27926467846E+02  0.00000000000E+00 0.  1.
         14    1    3    3    0    0 -0.32784083239E+02 -0.22194626014E+02 -0.40137614927E+02  0.56377528056E+02  0.00000000000E+00 0. -1.
         -2    1    1    2    0  502  0.16930695301E+02  0.13251787783E+02  0.19011086383E+02  0.28699821050E+02  0.00000000000E+00 0.  1.
<mgrwt>
<rscale>  1 0.82144777E+02</rscale>
<asrwt>0</asrwt>
<pdfrwt beam="1">  1       21 0.86885046E-02 0.82144777E+02</pdfrwt>
<pdfrwt beam="2">  1       -1 0.86966980E-02 0.82144777E+02</pdfrwt>
<totfact> 0.64327665E+05</totfact>
</mgrwt>
</event>
<event>
 6    2  0.8544106E+000  0.8519619E+02  0.7546771E-02  0.1314920E+00
         21   -1    0    0  501  502  0.00000000000E+00  0.00000000000E+00  0.34703039575E+03  0.34703039575E+03  0.00000000000E+00 0. -1.
          2   -1    0    0  502    0 -0.00000000000E+00 -0.00000000000E+00 -0.92925631842E+01  0.92925631842E+01  0.00000000000E+00 0. -1.
         24    2    1    2    0    0  0.42247744394E+00  0.24002547186E+02  0.21510243604E+03  0.23135999947E+03  0.81744055459E+02 0.  0.
        -11    1    3    3    0    0  0.27360679367E+02 -0.81577596327E+01  0.15768787468E+03  0.16025174457E+03  0.00000000000E+00 0.  1.
         12    1    3    3    0    0 -0.26938201923E+02  0.32160306819E+02  0.57414561365E+02  0.71108254895E+02  0.00000000000E+00 0. -1.
          1    1    1    2  501    0 -0.42247744394E+00 -0.24002547186E+02  0.12263539653E+03  0.12496295947E+03  0.00000000000E+00 0. -1.
<mgrwt>
<rscale>  1 0.85196193E+02</rscale>
<asrwt>0</asrwt>
<pdfrwt beam="1">  1       21 0.53389281E-01 0.85196193E+02</pdfrwt>
<pdfrwt beam="2">  1        2 0.14296254E-02 0.85196193E+02</pdfrwt>
<totfact> 0.32312219E+05</totfact>
</mgrwt>
</event>
<event>
 6    2  0.8544106E+000  0.9411978E+02  0.7546771E-02  0.1293171E+00
          2   -1    0    0  502    0 -0.00000000000E+00  0.00000000000E+00  0.14899396515E+04  0.14899396515E+04  0.00000000000E+00 0. -1.
         21   -1    0    0  501  502  0.00000000000E+00 -0.00000000000E+00 -0.48015616341E+01  0.48015616341E+01  0.00000000000E+00 0. -1.
         24    2    1    2    0    0  0.36501214508E+02  0.26012730163E+02  0.13281262716E+04  0.13314570686E+04  0.82761895464E+02 0.  0.
        -13    1    3    3    0    0 -0.13941693791E+02 -0.41406679324E+01  0.52483662807E+02  0.54461461772E+02  0.00000000000E+00 0.  1.
         14    1    3    3    0    0  0.50442908299E+02  0.30153398096E+02  0.12756426088E+04  0.12769956068E+04  0.00000000000E+00 0. -1.
          1    1    1    2  501    0 -0.36501214508E+02 -0.26012730163E+02  0.15701181830E+03  0.16328414460E+03  0.00000000000E+00 0. -1.
<mgrwt>
<rscale>  1 0.94119775E+02</rscale>
<asrwt>0</asrwt>
<pdfrwt beam="1">  1       21 0.73870298E-03 0.94119775E+02</pdfrwt>
<pdfrwt beam="2">  1        2 0.22922112E+00 0.94119775E+02</pdfrwt>
<totfact> 0.10395140E+06</totfact>
</mgrwt>
</event>
<event>
 6    2  0.8544106E+000  0.8480463E+02  0.7546771E-02  0.1315944E+00
         21   -1    0    0  501  502  0.00000000000E+00  0.00000000000E+00  0.36158602154E+01  0.36158602154E+01  0.00000000000E+00 0.  1.
          4   -1    0    0  502    0 -0.00000000000E+00 -0.00000000000E+00 -0.98968077088E+03  0.98968077088E+03  0.00000000000E+00 0. -1.
         24    2    1    2    0    0 -0.30423861374E+02  0.11873127312E+02 -0.78892371906E+03  0.79346862525E+03  0.78263926982E+02 0.  0.
        -11    1    3    3    0    0 -0.17717993732E+02 -0.63030497918E+01 -0.39826699411E+02  0.44043407276E+02  0.00000000000E+00 0.  1.
         12    1    3    3    0    0 -0.12705867642E+02  0.18176177104E+02 -0.74909701965E+03  0.74942521797E+03  0.00000000000E+00 0. -1.
          3    1    1    2  501    0  0.30423861374E+02 -0.11873127312E+02 -0.19714119160E+03  0.19982800584E+03  0.00000000000E+00 0. -1.
<mgrwt>
<rscale>  1 0.84804627E+02</rscale>
<asrwt>0</asrwt>
<pdfrwt beam="1">  1       21 0.55628643E-03 0.84804627E+02</pdfrwt>
<pdfrwt beam="2">  1        4 0.15225851E+00 0.84804627E+02</pdfrwt>
<totfact> 0.10784166E+05</totfact>
</mgrwt>
</event>
<event>
 6    2  0.8544106E+000  0.1716177E+03  0.7546771E-02  0.1176171E+00
         21   -1    0    0  501  502  0.00000000000E+00  0.00000000000E+00  0.85097902121E+03  0.85097902121E+03  0.00000000000E+00 0. -1.
          2   -1    0    0  502    0 -0.00000000000E+00 -0.00000000000E+00 -0.30473226869E+02  0.30473226869E+02  0.00000000000E+00 0. -1.
         24    2    1    2    0    0 -0.12808190707E+03 -0.78551995540E+02  0.45294985814E+03  0.48437195751E+03  0.82929055903E+02 0.  0.
        -13    1    3    3    0    0 -0.78400100472E+02 -0.63555491174E+00  0.23145881640E+03  0.24437709257E+03  0.00000000000E+00 0.  1.
         14    1    3    3    0    0 -0.49681806593E+02 -0.77916440628E+02  0.22149104174E+03  0.23999486494E+03  0.00000000000E+00 0. -1.
          1    1    1    2  501    0  0.12808190707E+03  0.78551995540E+02  0.36755593620E+03  0.39708029057E+03  0.00000000000E+00 0. -1.
<mgrwt>
<rscale>  1 0.17161765E+03</rscale>
<asrwt>0</asrwt>
<pdfrwt beam="1">  1       21 0.13091983E+00 0.17161765E+03</pdfrwt>
<pdfrwt beam="2">  1        2 0.46881894E-02 0.17161765E+03</pdfrwt>
<totfact> 0.87550117E+03</totfact>
</mgrwt>
</event>
<event>
 6    2  0.8544106E+000  0.8336791E+02  0.7546771E-02  0.1319757E+00
         -1   -1    0    0    0  501 -0.00000000000E+00  0.00000000000E+00  0.10574919170E+03  0.10574919170E+03  0.00000000000E+00 0.  1.
         21   -1    0    0  501  502  0.00000000000E+00 -0.00000000000E+00 -0.46779556902E+02  0.46779556902E+02  0.00000000000E+00 0.  1.
         24    2    1    2    0    0  0.15036749050E+02 -0.22695300095E+02  0.81950081906E+02  0.11690177262E+03  0.78797386059E+02 0.  0.
        -13    1    3    3    0    0  0.23978512050E+02 -0.39674372890E+02  0.85620000470E+02  0.97364312686E+02  0.00000000000E+00 0.  1.
         14    1    3    3    0    0 -0.89417629998E+01  0.16979072795E+02 -0.36699185644E+01  0.19537459937E+02  0.00000000000E+00 0. -1.
         -2    1    1    2    0  502 -0.15036749050E+02  0.22695300095E+02 -0.22980447105E+02  0.35626975981E+02  0.00000000000E+00 0.  1.
<mgrwt>
<rscale>  1 0.83367911E+02</rscale>
<asrwt>0</asrwt>
<pdfrwt beam="1">  1       21 0.71968550E-02 0.83367911E+02</pdfrwt>
<pdfrwt beam="2">  1       -1 0.16269106E-01 0.83367911E+02</pdfrwt>
<totfact> 0.34213002E+05</totfact>
</mgrwt>
</event>
<event>
 6    2  0.8544106E+000  0.8697027E+02  0.7546771E-02  0.1310359E+00
         21   -1    0    0  501  502  0.00000000000E+00  0.00000000000E+00  0.16363672144E+02  0.16363672144E+02  0.00000000000E+00 0. -1.
         -3   -1    0    0    0  501 -0.00000000000E+00 -0.00000000000E+00 -0.24769555369E+03  0.24769555369E+03  0.00000000000E+00 0.  1.
         24    2    1    2    0    0 -0.26286384999E+02  0.24151566109E+02 -0.12813313129E+03  0.15486099217E+03  0.79306717108E+02 0.  0.
        -11    1    3    3    0    0  0.19583530306E+02 -0.12417831782E+02 -0.63367208149E+02  0.67476812862E+02  0.00000000000E+00 0.  1.
         12    1    3    3    0    0 -0.45869915305E+02  0.36569397892E+02 -0.64765923145E+02  0.87384179307E+02  0.00000000000E+00 0. -1.
         -4    1    1    2    0  502  0.26286384999E+02 -0.24151566109E+02 -0.10319875025E+03  0.10919823366E+03  0.00000000000E+00 0.  1.
<mgrwt>
<rscale>  1 0.86970268E+02</rscale>
<asrwt>0</asrwt>
<pdfrwt beam="1">  1       21 0.25174882E-02 0.86970268E+02</pdfrwt>
<pdfrwt beam="2">  1       -3 0.38107006E-01 0.86970268E+02</pdfrwt>
<totfact> 0.25435453E+05</totfact>
</mgrwt>
</event>
<event>
 6    2  0.8544106E+000  0.8821932E+02  0.7546771E-02  0.1307222E+00
         21   -1    0    0  501  502  0.00000000000E+00  0.00000000000E+00  0.53973516508E+01  0.53973516508E+01  0.00000000000E+00 0. -1.
          2   -1    0    0  502    0 -0.00000000000E+00 -0.00000000000E+00 -0.13741741643E+04  0.13741741643E+04  0.00000000000E+00 0. -1.
         24    2    1    2    0    0 -0.35729424757E+02 -0.92452349314E+01 -0.12850130725E+04  0.12880377499E+04  0.80128537536E+02 0.  0.
        -13    1    3    3    0    0  0.10149601176E+02  0.26644520948E+02 -0.31973083814E+03  0.32099961644E+03  0.00000000000E+00 0.  1.
         14    1    3    3    0    0 -0.45879025933E+02 -0.35889755879E+02 -0.96528223435E+03  0.96703813345E+03  0.00000000000E+00 0. -1.
          1    1    1    2  501    0  0.35729424757E+02  0.92452349314E+01 -0.83763740154E+02  0.91533766048E+02  0.00000000000E+00 0. -1.
<mgrwt>
<rscale>  1 0.88219322E+02</rscale>
<asrwt>0</asrwt>
<pdfrwt beam="1">  1       21 0.83036139E-03 0.88219322E+02</pdfrwt>
<pdfrwt beam="2">  1        2 0.21141151E+00 0.88219322E+02</pdfrwt>
<totfact> 0.99065711E+05</totfact>
</mgrwt>
</event>
<event>
 6    2  0.8544106E+000  0.1064675E+03  0.7546771E-02  0.1267255E+00
         -1   -1    0    0    0  501 -0.00000000000E+00  0.00000000000E+00  0.23836092938E+02  0.23836092938E+02  0.00000000000E+00 0.  1.
         21   -1    0    0  501  502  0.00000000000E+00 -0.00000000000E+00 -0.33926058352E+03  0.33926058352E+03  0.00000000000E+00 0.  1.
         24    2    1    2    0    0  0.80727215603E+01 -0.68263881689E+02 -0.14986149500E+03  0.18383086298E+03  0.81303088028E+02 0.  0.
        -13    1    3    3    0    0  0.19689745917E+02 -0.35959416555E+02 -0.13421361510E+02  0.43138134847E+02  0.00000000000E+00 0.  1.
         14    1    3    3    0    0 -0.11617024357E+02 -0.32304465134E+02 -0.13644013349E+03  0.14069272813E+03  0.00000000000E+00 0. -1.
         -2    1    1    2    0  502 -0.80727215603E+01  0.68263881689E+02 -0.16556299559E+03  0.17926581349E+03  0.00000000000E+00 0.  1.
<mgrwt>
<rscale>  1 0.10646745E+03</rscale>
<asrwt>0</asrwt>
<pdfrwt beam="1">  1       21 0.52193933E-01 0.10646745E+03</pdfrwt>
<pdfrwt beam="2">  1       -1 0.36670914E-02 0.10646745E+03</pdfrwt>
<totfact> 0.83812055E+04</totfact>
</mgrwt>
</event>
<event>
 6    2  0.8908427E+000  0.8468025E+02  0.7546771E-02  0.1316271E+00
         21   -1    0    0  501  502  0.00000000000E+00  0.00000000000E+00  0.44980881619E+02  0.44980881619E+02  0.00000000000E+00 0. -1.
         -1   -1    0    0    0  501 -0.00000000000E+00 -0.00000000000E+00 -0.66428592632E+02  0.66428592632E+02  0.00000000000E+00 0.  1.
         24    2    1    2    0    0 -0.28709953604E+01 -0.23890144390E+02 -0.11856238135E+02  0.85506231880E+02  0.81189677264E+02 0.  0.
        -13    1    3    3    0    0 -0.14220150492E+02 -0.11985816664E+02 -0.44897931828E+02  0.48597291731E+02  0.00000000000E+00 0.  1.
         14    1    3    3    0    0  0.11349155132E+02 -0.11904327726E+02  0.33041693693E+02  0.36908940149E+02  0.00000000000E+00 0. -1.
         -2    1    1    2    0  502  0.28709953604E+01  0.23890144390E+02 -0.95914728783E+01  0.25903242371E+02  0.00000000000E+00 0.  1.
<mgrwt>
<rscale>  1 0.84680253E+02</rscale>
<asrwt>0</asrwt>
<pdfrwt beam="1">  1       21 0.69201356E-02 0.84680253E+02</pdfrwt>
<pdfrwt beam="2">  1       -1 0.10219783E-01 0.84680253E+02</pdfrwt>
<totfact> 0.74628370E+05</totfact>
</mgrwt>
</event>
<event>
 6    2  0.8544106E+000  0.8301562E+02  0.7546771E-02  0.1320705E+00
         21   -1    0    0  501  502  0.00000000000E+00  0.00000000000E+00  0.66561968717E+02  0.66561968717E+02  0.00000000000E+00 0.  1.
         -3   -1    0    0    0  501 -0.00000000000E+00 -0.00000000000E+00 -0.26235975007E+03  0.26235975007E+03  0.00000000000E+00 0.  1.
         24    2    1    2    0    0 -0.13383340855E+02 -0.16720315425E+02 -0.25383171457E+03  0.26706203753E+03  0.80205422547E+02 0.  0.
        -11    1    3    3    0    0 -0.32518239412E+02  0.13001170003E+02 -0.19733354701E+03  0.20041705289E+03  0.00000000000E+00 0.  1.
         12    1    3    3    0    0  0.19134898557E+02 -0.29721485428E+02 -0.56498167562E+02  0.66644984633E+02  0.00000000000E+00 0. -1.
         -4    1    1    2    0  502  0.13383340855E+02  0.16720315425E+02  0.58033933219E+02  0.61859681258E+02  0.00000000000E+00 0.  1.
<mgrwt>
<rscale>  1 0.83015616E+02</rscale>
<asrwt>0</asrwt>
<pdfrwt beam="1">  1       21 0.10240303E-01 0.83015616E+02</pdfrwt>
<pdfrwt beam="2">  1       -3 0.40363037E-01 0.83015616E+02</pdfrwt>
<totfact> 0.21887227E+04</totfact>
</mgrwt>
</event>
<event>
 6    2  0.8544106E+000  0.8350414E+02  0.7546771E-02  0.1319391E+00
         21   -1    0    0  501  502  0.00000000000E+00  0.00000000000E+00  0.81222875609E+01  0.81222875609E+01  0.00000000000E+00 0. -1.
         -3   -1    0    0    0  501 -0.00000000000E+00 -0.00000000000E+00 -0.38008783911E+03  0.38008783911E+03  0.00000000000E+00 0.  1.
         24    2    1    2    0    0 -0.21033722853E+02 -0.11586222295E+02 -0.24088467366E+03  0.25494777417E+03  0.79976768559E+02 0.  0.
        -11    1    3    3    0    0 -0.31341846284E+01  0.32807375580E+02 -0.13115524337E+03  0.13523255846E+03  0.00000000000E+00 0.  1.
         12    1    3    3    0    0 -0.17899538225E+02 -0.44393597875E+02 -0.10972943029E+03  0.11971521571E+03  0.00000000000E+00 0. -1.
         -4    1    1    2    0  502  0.21033722853E+02  0.11586222295E+02 -0.13108087789E+03  0.13326235250E+03  0.00000000000E+00 0.  1.
<mgrwt>
<rscale>  1 0.83504141E+02</rscale>
<asrwt>0</asrwt>
<pdfrwt beam="1">  1       21 0.12495830E-02 0.83504141E+02</pdfrwt>
<pdfrwt beam="2">  1       -3 0.58475038E-01 0.83504141E+02</pdfrwt>
<totfact> 0.33290394E+05</totfact>
</mgrwt>
</event>
<event>
 6    2  0.8544106E+000  0.8806013E+02  0.7546771E-02  0.1307619E+00
          2   -1    0    0  502    0 -0.00000000000E+00  0.00000000000E+00  0.16982724596E+03  0.16982724596E+03  0.00000000000E+00 0. -1.
         21   -1    0    0  501  502  0.00000000000E+00 -0.00000000000E+00 -0.40324519208E+02  0.40324519208E+02  0.00000000000E+00 0. -1.
         24    2    1    2    0    0 -0.14401017266E+02  0.24498601492E+02  0.15080706741E+03  0.17463492825E+03  0.83348760114E+02 0.  0.
        -13    1    3    3    0    0 -0.38362765325E+02  0.26751768515E+02  0.40920997277E+02  0.62144081779E+02  0.00000000000E+00 0.  1.
         14    1    3    3    0    0  0.23961748059E+02 -0.22531670227E+01  0.10988607013E+03  0.11249084647E+03  0.00000000000E+00 0. -1.
          1    1    1    2  501    0  0.14401017266E+02 -0.24498601492E+02 -0.21304340658E+02  0.35516836912E+02  0.00000000000E+00 0. -1.
<mgrwt>
<rscale>  1 0.88060131E+02</rscale>
<asrwt>0</asrwt>
<pdfrwt beam="1">  1       21 0.62037723E-02 0.88060131E+02</pdfrwt>
<pdfrwt beam="2">  1        2 0.26127268E-01 0.88060131E+02</pdfrwt>
<totfact> 0.44249807E+05</totfact>
</mgrwt>
</event>
<event>
 6    2  0.8544106E+000  0.1056165E+03  0.7546771E-02  0.1268910E+00
          4   -1    0    0  502    0 -0.00000000000E+00  0.00000000000E+00  0.43658821176E+02  0.43658821176E+02  0.00000000000E+00 0. -1.
         21   -1    0    0  501  502  0.00000000000E+00 -0.00000000000E+00 -0.23218089251E+03  0.23218089251E+03  0.00000000000E+00 0.  1.
         24    2    1    2    0    0  0.20654958964E+02  0.64830401029E+02 -0.17802015326E+03  0.20699279284E+03  0.80778914901E+02 0.  0.
        -13    1    3    3    0    0  0.39792909518E+02  0.67512505822E+02 -0.10242284613E+03  0.12896454357E+03  0.00000000000E+00 0.  1.
         14    1    3    3    0    0 -0.19137950554E+02 -0.26821047926E+01 -0.75597307135E+02  0.78028249266E+02  0.00000000000E+00 0. -1.
          3    1    1    2  501    0 -0.20654958964E+02 -0.64830401029E+02 -0.10501918077E+02  0.68846920851E+02  0.00000000000E+00 0. -1.
<mgrwt>
<rscale>  1 0.10561648E+03</rscale>
<asrwt>0</asrwt>
<pdfrwt beam="1">  1       21 0.35720137E-01 0.10561648E+03</pdfrwt>
<pdfrwt beam="2">  1        4 0.67167418E-02 0.10561648E+03</pdfrwt>
<totfact> 0.44072988E+04</totfact>
</mgrwt>
</event>
<event>
 6    2  0.8544106E+000  0.8581715E+02  0.7546771E-02  0.1313309E+00
         -1   -1    0    0    0  501 -0.00000000000E+00  0.00000000000E+00  0.42785068061E+02  0.42785068061E+02  0.00000000000E+00 0.  1.
         21   -1    0    0  501  502  0.00000000000E+00 -0.00000000000E+00 -0.10035392414E+03  0.10035392414E+03  0.00000000000E+00 0.  1.
         24    2    1    2    0    0  0.23344347322E+02  0.21233335598E+02 -0.10480785826E+02  0.86454784058E+02  0.79804572065E+02 0.  0.
        -13    1    3    3    0    0  0.38679247861E+02  0.30462260142E+02  0.18331181512E+02  0.52536327657E+02  0.00000000000E+00 0.  1.
         14    1    3    3    0    0 -0.15334900540E+02 -0.92289245431E+01 -0.28811967338E+02  0.33918456401E+02  0.00000000000E+00 0. -1.
         -2    1    1    2    0  502 -0.23344347322E+02 -0.21233335598E+02 -0.47088070252E+02  0.56684208141E+02  0.00000000000E+00 0.  1.
<mgrwt>
<rscale>  1 0.85817148E+02</rscale>
<asrwt>0</asrwt>
<pdfrwt beam="1">  1       21 0.15439065E-01 0.85817148E+02</pdfrwt>
<pdfrwt beam="2">  1       -1 0.65823181E-02 0.85817148E+02</pdfrwt>
<totfact> 0.35793845E+05</totfact>
</mgrwt>
</event>
<event>
 6    2  0.8544106E+000  0.1432796E+03  0.7546771E-02  0.1208983E+00
          2   -1    0    0  502    0 -0.00000000000E+00  0.00000000000E+00  0.26818048879E+04  0.26818048879E+04  0.00000000000E+00 0. -1.
         21   -1    0    0  501  502  0.00000000000E+00 -0.00000000000E+00 -0.86032190755E+01  0.86032190755E+01  0.00000000000E+00 0.  1.
         24    2    1    2    0    0  0.10002599677E+03 -0.70453710319E+02  0.76591994156E+03  0.77920625670E+03  0.74566133587E+02 0.  0.
        -13    1    3    3    0    0  0.76971131539E+02 -0.75911977168E+02  0.46703879933E+03  0.47938755037E+03  0.00000000000E+00 0.  1.
         14    1    3    3    0    0  0.23054865232E+02  0.54582668489E+01  0.29888114223E+03  0.29981870634E+03  0.00000000000E+00 0. -1.
          1    1    1    2  501    0 -0.10002599677E+03  0.70453710319E+02  0.19072817273E+04  0.19112018503E+04  0.00000000000E+00 0. -1.
<mgrwt>
<rscale>  1 0.14327956E+03</rscale>
<asrwt>0</asrwt>
<pdfrwt beam="1">  1       21 0.13235743E-02 0.14327956E+03</pdfrwt>
<pdfrwt beam="2">  1        2 0.41258470E+00 0.14327956E+03</pdfrwt>
<totfact> 0.10116147E+05</totfact>
</mgrwt>
</event>
<event>
 6    2  0.8544106E+000  0.1236998E+03  0.7546771E-02  0.1237115E+00
         21   -1    0    0  501  502  0.00000000000E+00  0.00000000000E+00  0.12360470488E+02  0.12360470488E+02  0.00000000000E+00 0.  1.
          2   -1    0    0  502    0 -0.00000000000E+00 -0.00000000000E+00 -0.97862323600E+03  0.97862323600E+03  0.00000000000E+00 0. -1.
         24    2    1    2    0    0 -0.63199105547E+02 -0.72288956963E+02 -0.56710581046E+03  0.58044004863E+03  0.77986085656E+02 0.  0.
        -11    1    3    3    0    0 -0.22397728393E+02 -0.46821825885E+02 -0.11985787527E+03  0.13061336792E+03  0.00000000000E+00 0.  1.
         12    1    3    3    0    0 -0.40801377154E+02 -0.25467131078E+02 -0.44724793519E+03  0.44982668070E+03  0.00000000000E+00 0. -1.
          1    1    1    2  501    0  0.63199105547E+02  0.72288956963E+02 -0.39915695506E+03  0.41054365786E+03  0.00000000000E+00 0. -1.
<mgrwt>
<rscale>  1 0.12369984E+03</rscale>
<asrwt>0</asrwt>
<pdfrwt beam="1">  1       21 0.19016105E-02 0.12369984E+03</pdfrwt>
<pdfrwt beam="2">  1        2 0.15055745E+00 0.12369984E+03</pdfrwt>
<totfact> 0.45167725E+05</totfact>
</mgrwt>
</event>
<event>
 6    2  0.8544106E+000  0.1800883E+03  0.7546771E-02  0.1167718E+00
         21   -1    0    0  501  502  0.00000000000E+00  0.00000000000E+00  0.13176133573E+03  0.13176133573E+03  0.00000000000E+00 0. -1.
          2   -1    0    0  502    0 -0.00000000000E+00 -0.00000000000E+00 -0.26696487187E+03  0.26696487187E+03  0.00000000000E+00 0. -1.
         24    2    1    2    0    0  0.18037136115E+02 -0.16020104955E+03  0.11905565180E+02  0.18048138579E+03  0.80262529085E+02 0.  0.
        -13    1    3    3    0    0  0.41243136365E+02 -0.86716734948E+02 -0.18224623740E+02  0.97739067561E+02  0.00000000000E+00 0.  1.
         14    1    3    3    0    0 -0.23206000250E+02 -0.73484314607E+02  0.30130188919E+02  0.82742318224E+02  0.00000000000E+00 0. -1.
          1    1    1    2  501    0 -0.18037136115E+02  0.16020104955E+03 -0.14710910132E+03  0.21824482181E+03  0.00000000000E+00 0. -1.
<mgrwt>
<rscale>  1 0.18008828E+03</rscale>
<asrwt>0</asrwt>
<pdfrwt beam="1">  1       21 0.20270975E-01 0.18008828E+03</pdfrwt>
<pdfrwt beam="2">  1        2 0.41071518E-01 0.18008828E+03</pdfrwt>
<totfact> 0.34609768E+04</totfact>
</mgrwt>
</event>
<event>
 6    2  0.8544106E+000  0.8461677E+02  0.7546771E-02  0.1316438E+00
          2   -1    0    0  502    0 -0.00000000000E+00  0.00000000000E+00  0.30101829076E+03  0.30101829076E+03  0.00000000000E+00 0. -1.
         21   -1    0    0  501  502  0.00000000000E+00 -0.00000000000E+00 -0.36454994730E+02  0.36454994730E+02  0.00000000000E+00 0. -1.
         24    2    1    2    0    0  0.21579110880E+01  0.21913323608E+02  0.29100857599E+03  0.30306103238E+03  0.81701577221E+02 0.  0.
        -11    1    3    3    0    0 -0.36431892589E+02  0.26609025499E+01  0.83853616553E+02  0.91464704717E+02  0.00000000000E+00 0.  1.
         12    1    3    3    0    0  0.38589803677E+02  0.19252421058E+02  0.20715495943E+03  0.21159632767E+03  0.00000000000E+00 0. -1.
          1    1    1    2  501    0 -0.21579110880E+01 -0.21913323608E+02 -0.26445279956E+02  0.34412253105E+02  0.00000000000E+00 0. -1.
<mgrwt>
<rscale>  1 0.84616772E+02</rscale>
<asrwt>0</asrwt>
<pdfrwt beam="1">  1       21 0.56084609E-02 0.84616772E+02</pdfrwt>
<pdfrwt beam="2">  1        2 0.46310505E-01 0.84616772E+02</pdfrwt>
<totfact> 0.28514463E+05</totfact>
</mgrwt>
</event>
<event>
 6    2  0.8544106E+000  0.8696294E+02  0.7546771E-02  0.1310378E+00
         21   -1    0    0  501  502  0.00000000000E+00  0.00000000000E+00  0.50597334982E+03  0.50597334982E+03  0.00000000000E+00 0.  1.
          4   -1    0    0  502    0 -0.00000000000E+00 -0.00000000000E+00 -0.82536233146E+01  0.82536233146E+01  0.00000000000E+00 0. -1.
         24    2    1    2    0    0 -0.22834072110E+02  0.21305339853E+02  0.25313023722E+03  0.26765177035E+03  0.81161818765E+02 0.  0.
        -11    1    3    3    0    0  0.36638146681E+01  0.48498810899E+02  0.15405389088E+03  0.16154924789E+03  0.00000000000E+00 0.  1.
         12    1    3    3    0    0 -0.26497886778E+02 -0.27193471046E+02  0.99076346334E+02  0.10610252247E+03  0.00000000000E+00 0. -1.
          3    1    1    2  501    0  0.22834072110E+02 -0.21305339853E+02  0.24458948929E+03  0.24657520278E+03  0.00000000000E+00 0. -1.
<mgrwt>
<rscale>  1 0.86962941E+02</rscale>
<asrwt>0</asrwt>
<pdfrwt beam="1">  1       21 0.77842029E-01 0.86962941E+02</pdfrwt>
<pdfrwt beam="2">  1        4 0.12697886E-02 0.86962941E+02</pdfrwt>
<totfact> 0.11474504E+05</totfact>
</mgrwt>
</event>
<event>
 6    2  0.8544106E+000  0.8801549E+02  0.7546771E-02  0.1307730E+00
          2   -1    0    0  502    0 -0.00000000000E+00  0.00000000000E+00  0.14978231606E+04  0.14978231606E+04  0.00000000000E+00 0. -1.
         21   -1    0    0  501  502  0.00000000000E+00 -0.00000000000E+00 -0.25146461100E+01  0.25146461100E+01  0.00000000000E+00 0.  1.
         24    2    1    2    0    0 -0.22492697440E+02  0.21881024273E+02  0.12376079943E+04  0.12407337644E+04  0.82231538852E+02 0.  0.
        -11    1    3    3    0    0  0.24047276765E+02  0.11407580544E+02  0.17094813269E+03  0.17300771221E+03  0.00000000000E+00 0.  1.
         12    1    3    3    0    0 -0.46539974205E+02  0.10473443729E+02  0.10666598616E+04  0.10677260522E+04  0.00000000000E+00 0. -1.
          1    1    1    2  501    0  0.22492697440E+02 -0.21881024273E+02  0.25770052013E+03  0.25960404222E+03  0.00000000000E+00 0. -1.
<mgrwt>
<rscale>  1 0.88015491E+02</rscale>
<asrwt>0</asrwt>
<pdfrwt beam="1">  1       21 0.38686983E-03 0.88015491E+02</pdfrwt>
<pdfrwt beam="2">  1        2 0.23043362E+00 0.88015491E+02</pdfrwt>
<totfact> 0.27667301E+06</totfact>
</mgrwt>
</event>
<event>
 6    2  0.8544106E+000  0.8512678E+02  0.7546771E-02  0.1315101E+00
          2   -1    0    0  502    0 -0.00000000000E+00  0.00000000000E+00  0.48615708392E+03  0.48615708392E+03  0.00000000000E+00 0. -1.
         21   -1    0    0  501  502  0.00000000000E+00 -0.00000000000E+00 -0.14489554111E+02  0.14489554111E+02  0.00000000000E+00 0. -1.
         24    2    1    2    0    0 -0.53981078976E+01 -0.27934322289E+02  0.46320699003E+03  0.47096420780E+03  0.80231561691E+02 0.  0.
        -11    1    3    3    0    0 -0.25411910526E+02 -0.62666842932E+01  0.47677738301E+02  0.54389367142E+02  0.00000000000E+00 0.  1.
         12    1    3    3    0    0  0.20013802629E+02 -0.21667637996E+02  0.41552925173E+03  0.41657484066E+03  0.00000000000E+00 0. -1.
          1    1    1    2  501    0  0.53981078976E+01  0.27934322289E+02  0.84605397787E+01  0.29682430224E+02  0.00000000000E+00 0. -1.
<mgrwt>
<rscale>  1 0.85126784E+02</rscale>
<asrwt>0</asrwt>
<pdfrwt beam="1">  1       21 0.22291625E-02 0.85126784E+02</pdfrwt>
<pdfrwt beam="2">  1        2 0.74793385E-01 0.85126784E+02</pdfrwt>
<totfact> 0.77951682E+05</totfact>
</mgrwt>
</event>
<event>
 6    2  0.8544106E+000  0.8689902E+02  0.7546771E-02  0.1310540E+00
          2   -1    0    0  502    0 -0.00000000000E+00  0.00000000000E+00  0.31195401448E+02  0.31195401448E+02  0.00000000000E+00 0. -1.
         21   -1    0    0  501  502  0.00000000000E+00 -0.00000000000E+00 -0.16705798697E+03  0.16705798697E+03  0.00000000000E+00 0.  1.
         24    2    1    2    0    0 -0.25201820862E+02 -0.32643757136E+00 -0.33991186272E+02  0.93310450010E+02  0.83163700018E+02 0.  0.
        -11    1    3    3    0    0 -0.50117521627E+02  0.79438775927E+01 -0.41992961410E+02  0.65865620571E+02  0.00000000000E+00 0.  1.
         12    1    3    3    0    0  0.24915700766E+02 -0.82703151640E+01  0.80017751386E+01  0.27444829439E+02  0.00000000000E+00 0. -1.
          1    1    1    2  501    0  0.25201820862E+02  0.32643757136E+00 -0.10187139925E+03  0.10494293840E+03  0.00000000000E+00 0. -1.
<mgrwt>
<rscale>  1 0.86899018E+02</rscale>
<asrwt>0</asrwt>
<pdfrwt beam="1">  1       21 0.25701229E-01 0.86899018E+02</pdfrwt>
<pdfrwt beam="2">  1        2 0.47992924E-02 0.86899018E+02</pdfrwt>
<totfact> 0.27078046E+05</totfact>
</mgrwt>
</event>
<event>
 6    2  0.8544106E+000  0.9629053E+02  0.7546771E-02  0.1288296E+00
          2   -1    0    0  502    0 -0.00000000000E+00  0.00000000000E+00  0.23232710819E+04  0.23232710819E+04  0.00000000000E+00 0. -1.
         21   -1    0    0  501  502  0.00000000000E+00 -0.00000000000E+00 -0.24514893657E+01  0.24514893657E+01  0.00000000000E+00 0.  1.
         24    2    1    2    0    0 -0.52513383216E+02  0.53816119758E+01  0.16649089112E+04  0.16676910834E+04  0.80531048784E+02 0.  0.
        -13    1    3    3    0    0 -0.71140233899E+02 -0.92328697275E+01  0.11468199086E+04  0.11490613915E+04  0.00000000000E+00 0.  1.
         14    1    3    3    0    0  0.18626850683E+02  0.14614481703E+02  0.51808900257E+03  0.51862969181E+03  0.00000000000E+00 0. -1.
          1    1    1    2  501    0  0.52513383216E+02 -0.53816119758E+01  0.65591068131E+03  0.65803148786E+03  0.00000000000E+00 0. -1.
<mgrwt>
<rscale>  1 0.96290534E+02</rscale>
<asrwt>0</asrwt>
<pdfrwt beam="1">  1       21 0.37715407E-03 0.96290534E+02</pdfrwt>
<pdfrwt beam="2">  1        2 0.35742456E+00 0.96290534E+02</pdfrwt>
<totfact> 0.11066791E+06</totfact>
</mgrwt>
</event>
<event>
 6    2  0.8544106E+000  0.8533265E+02  0.7546771E-02  0.1314565E+00
          2   -1    0    0  502    0 -0.00000000000E+00  0.00000000000E+00  0.98730086432E+03  0.98730086432E+03  0.00000000000E+00 0. -1.
         21   -1    0    0  501  502  0.00000000000E+00 -0.00000000000E+00 -0.35833599703E+01  0.35833599703E+01  0.00000000000E+00 0. -1.
         24    2    1    2    0    0 -0.17218301467E+02  0.21671934256E+02  0.85363484842E+03  0.85788933712E+03  0.80718756598E+02 0.  0.
        -13    1    3    3    0    0  0.94946164860E+01  0.28199054232E+02  0.11643259221E+03  0.12017438550E+03  0.00000000000E+00 0.  1.
         14    1    3    3    0    0 -0.26712917953E+02 -0.65271199759E+01  0.73720225621E+03  0.73771495162E+03  0.00000000000E+00 0. -1.
          1    1    1    2  501    0  0.17218301467E+02 -0.21671934256E+02  0.13008265593E+03  0.13299488717E+03  0.00000000000E+00 0. -1.
<mgrwt>
<rscale>  1 0.85332645E+02</rscale>
<asrwt>0</asrwt>
<pdfrwt beam="1">  1       21 0.55128694E-03 0.85332645E+02</pdfrwt>
<pdfrwt beam="2">  1        2 0.15189222E+00 0.85332645E+02</pdfrwt>
<totfact> 0.30286216E+06</totfact>
</mgrwt>
</event>
<event>
 6    2  0.8544106E+000  0.8051717E+02  0.7546771E-02  0.1327590E+00
         -1   -1    0    0    0  501 -0.00000000000E+00  0.00000000000E+00  0.14892441143E+03  0.14892441143E+03  0.00000000000E+00 0.  1.
         21   -1    0    0  501  502  0.00000000000E+00 -0.00000000000E+00 -0.19263526269E+02  0.19263526269E+02  0.00000000000E+00 0. -1.
         24    2    1    2    0    0  0.19683036557E+02 -0.68027013602E+01  0.12163368670E+03  0.14586900876E+03  0.77777344398E+02 0.  0.
        -13    1    3    3    0    0  0.39523094516E+02  0.21597362047E+02  0.78971770303E+02  0.90912383933E+02  0.00000000000E+00 0.  1.
         14    1    3    3    0    0 -0.19840057959E+02 -0.28400063407E+02  0.42661916395E+02  0.54956624822E+02  0.00000000000E+00 0. -1.
         -2    1    1    2    0  502 -0.19683036557E+02  0.68027013602E+01  0.80271984589E+01  0.22318928939E+02  0.00000000000E+00 0.  1.
<mgrwt>
<rscale>  1 0.80517166E+02</rscale>
<asrwt>0</asrwt>
<pdfrwt beam="1">  1       21 0.29636195E-02 0.80517166E+02</pdfrwt>
<pdfrwt beam="2">  1       -1 0.22911447E-01 0.80517166E+02</pdfrwt>
<totfact> 0.86135511E+05</totfact>
</mgrwt>
</event>
<event>
 6    2  0.8544106E+000  0.8744739E+02  0.7546771E-02  0.1309154E+00
         21   -1    0    0  501  502  0.00000000000E+00  0.00000000000E+00  0.63766987157E+02  0.63766987157E+02  0.00000000000E+00 0.  1.
          4   -1    0    0  502    0 -0.00000000000E+00 -0.00000000000E+00 -0.77102295104E+02  0.77102295104E+02  0.00000000000E+00 0. -1.
         24    2    1    2    0    0  0.22378518806E+02  0.32212990671E+02  0.19640609360E+02  0.89625882744E+02  0.78157344182E+02 0.  0.
        -13    1    3    3    0    0  0.35383172132E+02  0.34790582893E+02  0.41079073768E+02  0.64419281506E+02  0.00000000000E+00 0.  1.
         14    1    3    3    0    0 -0.13004653326E+02 -0.25775922218E+01 -0.21438464408E+02  0.25206601238E+02  0.00000000000E+00 0. -1.
          3    1    1    2  501    0 -0.22378518806E+02 -0.32212990671E+02 -0.32975917307E+02  0.51243399518E+02  0.00000000000E+00 0. -1.
<mgrwt>
<rscale>  1 0.87447386E+02</rscale>
<asrwt>0</asrwt>
<pdfrwt beam="1">  1       21 0.98103057E-02 0.87447386E+02</pdfrwt>
<pdfrwt beam="2">  1        4 0.11861892E-01 0.87447386E+02</pdfrwt>
<totfact> 0.17739007E+05</totfact>
</mgrwt>
</event>
<event>
 6    2  0.8544106E+000  0.8209142E+02  0.7546771E-02  0.1323219E+00
         21   -1    0    0  501  502  0.00000000000E+00  0.00000000000E+00  0.20844015634E+01  0.20844015634E+01  0.00000000000E+00 0. -1.
         -1   -1    0    0    0  501 -0.00000000000E+00 -0.00000000000E+00 -0.13216996646E+04  0.13216996646E+04  0.00000000000E+00 0.  1.
         24    2    1    2    0    0  0.13585610946E+02  0.18290421382E+02 -0.10560448195E+04  0.10592306934E+04  0.78866296286E+02 0.  0.
        -11    1    3    3    0    0  0.66761046637E+01 -0.29576450531E+02 -0.26946883621E+03  0.27116930226E+03  0.00000000000E+00 0.  1.
         12    1    3    3    0    0  0.69095062820E+01  0.47866871913E+02 -0.78657598326E+03  0.78806139110E+03  0.00000000000E+00 0. -1.
         -2    1    1    2    0  502 -0.13585610946E+02 -0.18290421382E+02 -0.26357044357E+03  0.26455337280E+03  0.00000000000E+00 0.  1.
<mgrwt>
<rscale>  1 0.82091419E+02</rscale>
<asrwt>0</asrwt>
<pdfrwt beam="1">  1       21 0.32067688E-03 0.82091419E+02</pdfrwt>
<pdfrwt beam="2">  1       -1 0.20333859E+00 0.82091419E+02</pdfrwt>
<totfact> 0.31604944E+05</totfact>
</mgrwt>
</event>
<event>
 6    2  0.8544106E+000  0.8431482E+02  0.7546771E-02  0.1317234E+00
          2   -1    0    0  502    0 -0.00000000000E+00  0.00000000000E+00  0.12263918373E+03  0.12263918373E+03  0.00000000000E+00 0. -1.
         21   -1    0    0  501  502  0.00000000000E+00 -0.00000000000E+00 -0.69600438502E+02  0.69600438502E+02  0.00000000000E+00 0. -1.
         24    2    1    2    0    0  0.14299482350E+02  0.20237702929E+02  0.10500574504E+03  0.13466698217E+03  0.80591251268E+02 0.  0.
        -11    1    3    3    0    0  0.12785624847E+02  0.15811479918E+01 -0.11134600278E+02  0.17027963914E+02  0.00000000000E+00 0.  1.
         12    1    3    3    0    0  0.15138575030E+01  0.18656554937E+02  0.11614034531E+03  0.11763901826E+03  0.00000000000E+00 0. -1.
          1    1    1    2  501    0 -0.14299482350E+02 -0.20237702929E+02 -0.51966999805E+02  0.57572640065E+02  0.00000000000E+00 0. -1.
<mgrwt>
<rscale>  1 0.84314824E+02</rscale>
<asrwt>0</asrwt>
<pdfrwt beam="1">  1       21 0.10707760E-01 0.84314824E+02</pdfrwt>
<pdfrwt beam="2">  1        2 0.18867567E-01 0.84314824E+02</pdfrwt>
<totfact> 0.24838775E+05</totfact>
</mgrwt>
</event>
<event>
 6    2  0.8544106E+000  0.8511496E+02  0.7546771E-02  0.1315132E+00
          2   -1    0    0  502    0 -0.00000000000E+00  0.00000000000E+00  0.11475805044E+04  0.11475805044E+04  0.00000000000E+00 0. -1.
         21   -1    0    0  501  502  0.00000000000E+00 -0.00000000000E+00 -0.14175351462E+02  0.14175351462E+02  0.00000000000E+00 0. -1.
         24    2    1    2    0    0  0.12495292411E+02  0.43708356010E+02  0.11047388630E+04  0.11080128666E+04  0.71958351763E+02 0.  0.
        -13    1    3    3    0    0 -0.56292557847E+01 -0.18715005234E+02  0.31346813250E+03  0.31407675819E+03  0.00000000000E+00 0.  1.
         14    1    3    3    0    0  0.18124548196E+02  0.62423361244E+02  0.79127073052E+03  0.79393610842E+03  0.00000000000E+00 0. -1.
          1    1    1    2  501    0 -0.12495292411E+02 -0.43708356010E+02  0.28666289949E+02  0.53742989282E+02  0.00000000000E+00 0. -1.
<mgrwt>
<rscale>  1 0.85114964E+02</rscale>
<asrwt>0</asrwt>
<pdfrwt beam="1">  1       21 0.21808242E-02 0.85114964E+02</pdfrwt>
<pdfrwt beam="2">  1        2 0.17655077E+00 0.85114964E+02</pdfrwt>
<totfact> 0.28492914E+05</totfact>
</mgrwt>
</event>
<event>
 6    2  0.8544106E+000  0.8339856E+02  0.7546771E-02  0.1319674E+00
          2   -1    0    0  502    0 -0.00000000000E+00  0.00000000000E+00  0.47575109086E+03  0.47575109086E+03  0.00000000000E+00 0. -1.
         21   -1    0    0  501  502  0.00000000000E+00 -0.00000000000E+00 -0.56469061674E+02  0.56469061674E+02  0.00000000000E+00 0. -1.
         24    2    1    2    0    0 -0.20359679235E+02 -0.16501259282E+02  0.46881840470E+03  0.47617855552E+03  0.79173935466E+02 0.  0.
        -11    1    3    3    0    0 -0.92693995385E+01  0.13586508376E+01  0.29298216270E+01  0.98158827759E+01  0.00000000000E+00 0.  1.
         12    1    3    3    0    0 -0.11090279697E+02 -0.17859910119E+02  0.46588858307E+03  0.46636267274E+03  0.00000000000E+00 0. -1.
          1    1    1    2  501    0  0.20359679235E+02  0.16501259282E+02 -0.49536375514E+02  0.56041597011E+02  0.00000000000E+00 0. -1.
<mgrwt>
<rscale>  1 0.83398562E+02</rscale>
<asrwt>0</asrwt>
<pdfrwt beam="1">  1       21 0.86875483E-02 0.83398562E+02</pdfrwt>
<pdfrwt beam="2">  1        2 0.73192473E-01 0.83398562E+02</pdfrwt>
<totfact> 0.84067847E+04</totfact>
</mgrwt>
</event>
<event>
 6    2  0.8544106E+000  0.8452762E+02  0.7546771E-02  0.1316673E+00
         -3   -1    0    0    0  501 -0.00000000000E+00  0.00000000000E+00  0.43332140007E+01  0.43332140007E+01  0.00000000000E+00 0.  1.
         21   -1    0    0  501  502  0.00000000000E+00 -0.00000000000E+00 -0.97097085634E+03  0.97097085634E+03  0.00000000000E+00 0.  1.
         24    2    1    2    0    0  0.17467696398E+02 -0.23675775110E+02 -0.45262907425E+03  0.46045412054E+03  0.79241753627E+02 0.  0.
        -13    1    3    3    0    0  0.33857171377E+02 -0.22509244430E+02 -0.10745663297E+03  0.11489082691E+03  0.00000000000E+00 0.  1.
         14    1    3    3    0    0 -0.16389474978E+02 -0.11665306804E+01 -0.34517244128E+03  0.34556329363E+03  0.00000000000E+00 0. -1.
         -4    1    1    2    0  502 -0.17467696398E+02  0.23675775110E+02 -0.51400856808E+03  0.51484994980E+03  0.00000000000E+00 0.  1.
<mgrwt>
<rscale>  1 0.84527618E+02</rscale>
<asrwt>0</asrwt>
<pdfrwt beam="1">  1       21 0.14938029E+00 0.84527618E+02</pdfrwt>
<pdfrwt beam="2">  1       -3 0.66664761E-03 0.84527618E+02</pdfrwt>
<totfact> 0.70533708E+04</totfact>
</mgrwt>
</event>
<event>
 6    2  0.8544106E+000  0.8479557E+02  0.7546771E-02  0.1315968E+00
         21   -1    0    0  501  502  0.00000000000E+00  0.00000000000E+00  0.90823489868E+01  0.90823489868E+01  0.00000000000E+00 0. -1.
         -1   -1    0    0    0  501 -0.00000000000E+00 -0.00000000000E+00 -0.44422206163E+03  0.44422206163E+03  0.00000000000E+00 0.  1.
         24    2    1    2    0    0 -0.26374155258E+02 -0.14581641946E+02 -0.38942422228E+03  0.39854926103E+03  0.79259499241E+02 0.  0.
        -11    1    3    3    0    0 -0.77660139623E+01 -0.39924772512E+02 -0.31694846001E+03  0.31954753126E+03  0.00000000000E+00 0.  1.
         12    1    3    3    0    0 -0.18608141296E+02  0.25343130566E+02 -0.72475762275E+02  0.79001729771E+02  0.00000000000E+00 0. -1.
         -2    1    1    2    0  502  0.26374155258E+02  0.14581641946E+02 -0.45715490366E+02  0.54755149592E+02  0.00000000000E+00 0.  1.
<mgrwt>
<rscale>  1 0.84795569E+02</rscale>
<asrwt>0</asrwt>
<pdfrwt beam="1">  1       21 0.13972843E-02 0.84795569E+02</pdfrwt>
<pdfrwt beam="2">  1       -1 0.68341864E-01 0.84795569E+02</pdfrwt>
<totfact> 0.42962357E+05</totfact>
</mgrwt>
</event>
<event>
 6    2  0.8544106E+000  0.8383860E+02  0.7546771E-02  0.1318498E+00
          2   -1    0    0  502    0 -0.00000000000E+00  0.00000000000E+00  0.12688527456E+04  0.12688527456E+04  0.00000000000E+00 0. -1.
         21   -1    0    0  501  502  0.00000000000E+00 -0.00000000000E+00 -0.63254667077E+01  0.63254667077E+01  0.00000000000E+00 0. -1.
         24    2    1    2    0    0 -0.34836382655E+02  0.20771141142E+01  0.12048604591E+04  0.12077738351E+04  0.76230065873E+02 0.  0.
        -11    1    3    3    0    0  0.10860097046E+02 -0.15745921595E+02  0.99279068575E+02  0.10110494158E+03  0.00000000000E+00 0.  1.
         12    1    3    3    0    0 -0.45696479701E+02  0.17823035709E+02  0.11055813905E+04  0.11066688935E+04  0.00000000000E+00 0. -1.
          1    1    1    2  501    0  0.34836382655E+02 -0.20771141142E+01  0.57666819829E+02  0.67404377222E+02  0.00000000000E+00 0. -1.
<mgrwt>
<rscale>  1 0.83838600E+02</rscale>
<asrwt>0</asrwt>
<pdfrwt beam="1">  1       21 0.97314973E-03 0.83838600E+02</pdfrwt>
<pdfrwt beam="2">  1        2 0.19520791E+00 0.83838600E+02</pdfrwt>
<totfact> 0.87596394E+05</totfact>
</mgrwt>
</event>
<event>
 6    2  0.8544106E+000  0.9635540E+02  0.7546771E-02  0.1288152E+00
         -3   -1    0    0    0  501 -0.00000000000E+00  0.00000000000E+00  0.62671090344E+02  0.62671090344E+02  0.00000000000E+00 0.  1.
         21   -1    0    0  501  502  0.00000000000E+00 -0.00000000000E+00 -0.25627212427E+03  0.25627212427E+03  0.00000000000E+00 0.  1.
         24    2    1    2    0    0 -0.38801979173E+02 -0.55664300041E+00  0.22860998798E+02  0.99030243077E+02  0.88195580041E+02 0.  0.
        -13    1    3    3    0    0  0.19000572659E+02 -0.22767740857E+02 -0.67169399478E+01  0.30405740698E+02  0.00000000000E+00 0.  1.
         14    1    3    3    0    0 -0.57802551833E+02  0.22211097857E+02  0.29577938746E+02  0.68624502380E+02  0.00000000000E+00 0. -1.
         -4    1    1    2    0  502  0.38801979173E+02  0.55664300041E+00 -0.21646203273E+03  0.21991297154E+03  0.00000000000E+00 0.  1.
<mgrwt>
<rscale>  1 0.96355403E+02</rscale>
<asrwt>0</asrwt>
<pdfrwt beam="1">  1       21 0.39426481E-01 0.96355403E+02</pdfrwt>
<pdfrwt beam="2">  1       -3 0.96417060E-02 0.96355403E+02</pdfrwt>
<totfact> 0.22836055E+04</totfact>
</mgrwt>
</event>
<event>
 6    2  0.8544106E+000  0.8571817E+02  0.7546771E-02  0.1313565E+00
          2   -1    0    0  502    0 -0.00000000000E+00  0.00000000000E+00  0.69291791331E+02  0.69291791331E+02  0.00000000000E+00 0. -1.
         21   -1    0    0  501  502  0.00000000000E+00 -0.00000000000E+00 -0.44049905038E+02  0.44049905038E+02  0.00000000000E+00 0.  1.
         24    2    1    2    0    0  0.22019463382E+02  0.55182716232E+01  0.28666178779E+02  0.90384478149E+02  0.82657703786E+02 0.  0.
        -13    1    3    3    0    0  0.51735675904E+02 -0.81124643208E+01  0.23033339711E+02  0.57209500757E+02  0.00000000000E+00 0.  1.
         14    1    3    3    0    0 -0.29716212522E+02  0.13630735944E+02  0.56328390678E+01  0.33174977392E+02  0.00000000000E+00 0. -1.
          1    1    1    2  501    0 -0.22019463382E+02 -0.55182716232E+01 -0.34242924865E+01  0.22957218220E+02  0.00000000000E+00 0. -1.
<mgrwt>
<rscale>  1 0.85718167E+02</rscale>
<asrwt>0</asrwt>
<pdfrwt beam="1">  1       21 0.67769084E-02 0.85718167E+02</pdfrwt>
<pdfrwt beam="2">  1        2 0.10660276E-01 0.85718167E+02</pdfrwt>
<totfact> 0.10569713E+06</totfact>
</mgrwt>
</event>
<event>
 6    2  0.8544106E+000  0.1087270E+03  0.7546771E-02  0.1262946E+00
          2   -1    0    0  502    0 -0.00000000000E+00  0.00000000000E+00  0.71101262721E+01  0.71101262721E+01  0.00000000000E+00 0. -1.
         21   -1    0    0  501  502  0.00000000000E+00 -0.00000000000E+00 -0.12203321198E+04  0.12203321198E+04  0.00000000000E+00 0. -1.
         24    2    1    2    0    0 -0.68415801449E+02 -0.28536925299E+02 -0.60180096017E+03  0.61154391190E+03  0.79539188684E+02 0.  0.
        -13    1    3    3    0    0  0.13738534283E+02  0.10917635185E+02 -0.91104839581E+02  0.92779490608E+02  0.00000000000E+00 0.  1.
         14    1    3    3    0    0 -0.82154335732E+02 -0.39454560484E+02 -0.51069612058E+03  0.51876442130E+03  0.00000000000E+00 0. -1.
          1    1    1    2  501    0  0.68415801449E+02  0.28536925299E+02 -0.61142103332E+03  0.61589833413E+03  0.00000000000E+00 0. -1.
<mgrwt>
<rscale>  1 0.10872700E+03</rscale>
<asrwt>0</asrwt>
<pdfrwt beam="1">  1       21 0.18774342E+00 0.10872700E+03</pdfrwt>
<pdfrwt beam="2">  1        2 0.10938655E-02 0.10872700E+03</pdfrwt>
<totfact> 0.24576909E+04</totfact>
</mgrwt>
</event>
<event>
 6    2  0.8544106E+000  0.9000351E+02  0.7546771E-02  0.1302843E+00
          2   -1    0    0  502    0 -0.00000000000E+00  0.00000000000E+00  0.68116961462E+03  0.68116961462E+03  0.00000000000E+00 0. -1.
         21   -1    0    0  501  502  0.00000000000E+00 -0.00000000000E+00 -0.27768391807E+02  0.27768391807E+02  0.00000000000E+00 0. -1.
         24    2    1    2    0    0 -0.78360262591E+01  0.40374728842E+02  0.66101227338E+03  0.66711157785E+03  0.80056915491E+02 0.  0.
        -13    1    3    3    0    0  0.31176888876E+02  0.34196109758E+02  0.45498044999E+03  0.45732765300E+03  0.00000000000E+00 0.  1.
         14    1    3    3    0    0 -0.39012915135E+02  0.61786190836E+01  0.20603182338E+03  0.20978392485E+03  0.00000000000E+00 0. -1.
          1    1    1    2  501    0  0.78360262591E+01 -0.40374728842E+02 -0.76110505620E+01  0.41826428574E+02  0.00000000000E+00 0. -1.
<mgrwt>
<rscale>  1 0.90003510E+02</rscale>
<asrwt>0</asrwt>
<pdfrwt beam="1">  1       21 0.42720608E-02 0.90003510E+02</pdfrwt>
<pdfrwt beam="2">  1        2 0.10479531E+00 0.90003510E+02</pdfrwt>
<totfact> 0.18685591E+05</totfact>
</mgrwt>
</event>
<event>
 6    2  0.8544106E+000  0.8380042E+02  0.7546771E-02  0.1318600E+00
         21   -1    0    0  501  502  0.00000000000E+00  0.00000000000E+00  0.75822475675E+01  0.75822475675E+01  0.00000000000E+00 0. -1.
          2   -1    0    0  502    0 -0.00000000000E+00 -0.00000000000E+00 -0.55256304540E+03  0.55256304540E+03  0.00000000000E+00 0. -1.
         24    2    1    2    0    0 -0.21414187204E+02  0.49973864356E+01 -0.52064662406E+03  0.52734752935E+03  0.80863887410E+02 0.  0.
        -11    1    3    3    0    0 -0.23657607489E+02  0.16989174969E+01 -0.38738550399E+02  0.45422945741E+02  0.00000000000E+00 0.  1.
         12    1    3    3    0    0  0.22434202857E+01  0.32984689387E+01 -0.48190807366E+03  0.48192458361E+03  0.00000000000E+00 0. -1.
          1    1    1    2  501    0  0.21414187204E+02 -0.49973864356E+01 -0.24334173771E+02  0.32797763611E+02  0.00000000000E+00 0. -1.
<mgrwt>
<rscale>  1 0.83800415E+02</rscale>
<asrwt>0</asrwt>
<pdfrwt beam="1">  1       21 0.11664995E-02 0.83800415E+02</pdfrwt>
<pdfrwt beam="2">  1        2 0.85009706E-01 0.83800415E+02</pdfrwt>
<totfact> 0.18908892E+06</totfact>
</mgrwt>
</event>
<event>
 6    2  0.8544106E+000  0.8570935E+02  0.7546771E-02  0.1313588E+00
          2   -1    0    0  502    0 -0.00000000000E+00  0.00000000000E+00  0.13188648166E+04  0.13188648166E+04  0.00000000000E+00 0. -1.
         21   -1    0    0  501  502  0.00000000000E+00 -0.00000000000E+00 -0.28401173516E+01  0.28401173516E+01  0.00000000000E+00 0.  1.
         24    2    1    2    0    0  0.29555770868E+02  0.21589266268E+02  0.89804242545E+03  0.90212321221E+03  0.77501303802E+02 0.  0.
        -11    1    3    3    0    0  0.33487065372E+02  0.78328475909E+01  0.14795574533E+03  0.15190009751E+03  0.00000000000E+00 0.  1.
         12    1    3    3    0    0 -0.39312945035E+01  0.13756418677E+02  0.75008668012E+03  0.75022311470E+03  0.00000000000E+00 0. -1.
          1    1    1    2  501    0 -0.29555770868E+02 -0.21589266268E+02  0.41798227379E+03  0.41958172173E+03  0.00000000000E+00 0. -1.
<mgrwt>
<rscale>  1 0.85709347E+02</rscale>
<asrwt>0</asrwt>
<pdfrwt beam="1">  1       21 0.43694218E-03 0.85709347E+02</pdfrwt>
<pdfrwt beam="2">  1        2 0.20290179E+00 0.85709347E+02</pdfrwt>
<totfact> 0.28373687E+06</totfact>
</mgrwt>
</event>
<event>
 6    2  0.8544106E+000  0.9257876E+02  0.7546771E-02  0.1296724E+00
          2   -1    0    0  502    0 -0.00000000000E+00  0.00000000000E+00  0.10471531782E+04  0.10471531782E+04  0.00000000000E+00 0. -1.
         21   -1    0    0  501  502  0.00000000000E+00 -0.00000000000E+00 -0.58435904414E+01  0.58435904414E+01  0.00000000000E+00 0. -1.
         24    2    1    2    0    0 -0.38066935178E+02  0.30898592389E+02  0.43685145133E+03  0.44655348748E+03  0.78530325926E+02 0.  0.
        -13    1    3    3    0    0 -0.12935839566E+02 -0.17308184858E+02  0.35663168039E+02  0.41698570275E+02  0.00000000000E+00 0.  1.
         14    1    3    3    0    0 -0.25131095612E+02  0.48206777247E+02  0.40118828329E+03  0.40485491721E+03  0.00000000000E+00 0. -1.
          1    1    1    2  501    0  0.38066935178E+02 -0.30898592389E+02  0.60445813646E+03  0.60644328119E+03  0.00000000000E+00 0. -1.
<mgrwt>
<rscale>  1 0.92578759E+02</rscale>
<asrwt>0</asrwt>
<pdfrwt beam="1">  1       21 0.89901475E-03 0.92578759E+02</pdfrwt>
<pdfrwt beam="2">  1        2 0.16110034E+00 0.92578759E+02</pdfrwt>
<totfact> 0.13226256E+06</totfact>
</mgrwt>
</event>
<event>
 6    2  0.8544106E+000  0.9493316E+02  0.7546771E-02  0.1291327E+00
          2   -1    0    0  502    0 -0.00000000000E+00  0.00000000000E+00  0.15796496901E+04  0.15796496901E+04  0.00000000000E+00 0. -1.
         21   -1    0    0  501  502  0.00000000000E+00 -0.00000000000E+00 -0.11284535887E+02  0.11284535887E+02  0.00000000000E+00 0. -1.
         24    2    1    2    0    0 -0.14222305256E+02  0.47351037765E+02  0.15158052126E+04  0.15187750810E+04  0.81042639039E+02 0.  0.
        -13    1    3    3    0    0  0.76165389977E+01  0.20107410880E+02  0.89646781921E+02  0.92189289765E+02  0.00000000000E+00 0.  1.
         14    1    3    3    0    0 -0.21838844254E+02  0.27243626885E+02  0.14261584307E+04  0.14265857912E+04  0.00000000000E+00 0. -1.
          1    1    1    2  501    0  0.14222305256E+02 -0.47351037765E+02  0.52559941604E+02  0.72159144990E+02  0.00000000000E+00 0. -1.
<mgrwt>
<rscale>  1 0.94933156E+02</rscale>
<asrwt>0</asrwt>
<pdfrwt beam="1">  1       21 0.17360837E-02 0.94933156E+02</pdfrwt>
<pdfrwt beam="2">  1        2 0.24302285E+00 0.94933156E+02</pdfrwt>
<totfact> 0.24445413E+05</totfact>
</mgrwt>
</event>
<event>
 6    2  0.8544106E+000  0.9897528E+02  0.7546771E-02  0.1282466E+00
         -3   -1    0    0    0  501 -0.00000000000E+00  0.00000000000E+00  0.56395989763E+03  0.56395989763E+03  0.00000000000E+00 0.  1.
         21   -1    0    0  501  502  0.00000000000E+00 -0.00000000000E+00 -0.99391686689E+01  0.99391686689E+01  0.00000000000E+00 0.  1.
         24    2    1    2    0    0 -0.43189094277E+02 -0.17365480486E+02  0.43457357361E+03  0.44570202772E+03  0.87345571518E+02 0.  0.
        -11    1    3    3    0    0 -0.45317984935E+02 -0.44845513823E+02  0.37059122431E+03  0.37603549753E+03  0.00000000000E+00 0.  1.
         12    1    3    3    0    0  0.21288906577E+01  0.27480033337E+02  0.63982349300E+02  0.69666530196E+02  0.00000000000E+00 0. -1.
         -4    1    1    2    0  502  0.43189094277E+02  0.17365480486E+02  0.11944715536E+03  0.12819703858E+03  0.00000000000E+00 0.  1.
<mgrwt>
<rscale>  1 0.98975283E+02</rscale>
<asrwt>0</asrwt>
<pdfrwt beam="1">  1       21 0.15291033E-02 0.98975283E+02</pdfrwt>
<pdfrwt beam="2">  1       -3 0.86763036E-01 0.98975283E+02</pdfrwt>
<totfact> 0.10828130E+05</totfact>
</mgrwt>
</event>
<event>
 6    2  0.8544106E+000  0.1018819E+03  0.7546771E-02  0.1276388E+00
         21   -1    0    0  501  502  0.00000000000E+00  0.00000000000E+00  0.10675685118E+02  0.10675685118E+02  0.00000000000E+00 0. -1.
          2   -1    0    0  502    0 -0.00000000000E+00 -0.00000000000E+00 -0.72111034427E+03  0.72111034427E+03  0.00000000000E+00 0. -1.
         24    2    1    2    0    0  0.40306687138E+02  0.47253890664E+02 -0.55728625219E+03  0.56652262217E+03  0.80761100396E+02 0.  0.
        -13    1    3    3    0    0 -0.14441308719E+02  0.19912605027E+02 -0.51779086132E+02  0.57324837523E+02  0.00000000000E+00 0.  1.
         14    1    3    3    0    0  0.54747995857E+02  0.27341285638E+02 -0.50550716606E+03  0.50919778465E+03  0.00000000000E+00 0. -1.
          1    1    1    2  501    0 -0.40306687138E+02 -0.47253890664E+02 -0.15314840696E+03  0.16526340722E+03  0.00000000000E+00 0. -1.
<mgrwt>
<rscale>  1 0.10188187E+03</rscale>
<asrwt>0</asrwt>
<pdfrwt beam="1">  1       21 0.16424133E-02 0.10188187E+03</pdfrwt>
<pdfrwt beam="2">  1        2 0.11094004E+00 0.10188187E+03</pdfrwt>
<totfact> 0.82916254E+05</totfact>
</mgrwt>
</event>
<event>
 6    2  0.8544106E+000  0.8458370E+02  0.7546771E-02  0.1316525E+00
         21   -1    0    0  501  502  0.00000000000E+00  0.00000000000E+00  0.68139590853E+02  0.68139590853E+02  0.00000000000E+00 0. -1.
          2   -1    0    0  502    0 -0.00000000000E+00 -0.00000000000E+00 -0.16338896763E+03  0.16338896763E+03  0.00000000000E+00 0. -1.
         24    2    1    2    0    0  0.15780159630E+02 -0.26946224596E+02 -0.14786281319E+03  0.17034615783E+03  0.78608456949E+02 0.  0.
        -13    1    3    3    0    0  0.32589704940E-01 -0.34625185649E+02 -0.17472253499E+02  0.38783813449E+02  0.00000000000E+00 0.  1.
         14    1    3    3    0    0  0.15747569925E+02  0.76789610529E+01 -0.13039055969E+03  0.13156234438E+03  0.00000000000E+00 0. -1.
          1    1    1    2  501    0 -0.15780159630E+02  0.26946224596E+02  0.52613436417E+02  0.61182400652E+02  0.00000000000E+00 0. -1.
<mgrwt>
<rscale>  1 0.84583698E+02</rscale>
<asrwt>0</asrwt>
<pdfrwt beam="1">  1       21 0.10483014E-01 0.84583698E+02</pdfrwt>
<pdfrwt beam="2">  1        2 0.25136764E-01 0.84583698E+02</pdfrwt>
<totfact> 0.18782490E+05</totfact>
</mgrwt>
</event>
<event>
 6    2  0.8544106E+000  0.9461560E+02  0.7546771E-02  0.1292044E+00
         -1   -1    0    0    0  501 -0.00000000000E+00  0.00000000000E+00  0.74189585222E+02  0.74189585222E+02  0.00000000000E+00 0.  1.
         21   -1    0    0  501  502  0.00000000000E+00 -0.00000000000E+00 -0.84370012115E+02  0.84370012115E+02  0.00000000000E+00 0. -1.
         24    2    1    2    0    0  0.20034141869E+02  0.42370065308E+02 -0.40307904499E+02  0.10284376313E+03  0.82191989724E+02 0.  0.
        -13    1    3    3    0    0  0.30018080718E+02  0.24685383731E+02  0.16719416427E+02  0.42308299725E+02  0.00000000000E+00 0.  1.
         14    1    3    3    0    0 -0.99839388498E+01  0.17684681576E+02 -0.57027320926E+02  0.60535463403E+02  0.00000000000E+00 0. -1.
         -2    1    1    2    0  502 -0.20034141869E+02 -0.42370065308E+02  0.30127477607E+02  0.55715834209E+02  0.00000000000E+00 0.  1.
<mgrwt>
<rscale>  1 0.94615604E+02</rscale>
<asrwt>0</asrwt>
<pdfrwt beam="1">  1       21 0.12980002E-01 0.94615604E+02</pdfrwt>
<pdfrwt beam="2">  1       -1 0.11413782E-01 0.94615604E+02</pdfrwt>
<totfact> 0.21546568E+05</totfact>
</mgrwt>
</event>
<event>
 6    2  0.8544106E+000  0.1162566E+03  0.7546771E-02  0.1249403E+00
          2   -1    0    0  502    0 -0.00000000000E+00  0.00000000000E+00  0.15326340183E+04  0.15326340183E+04  0.00000000000E+00 0. -1.
         21   -1    0    0  501  502  0.00000000000E+00 -0.00000000000E+00 -0.66239474691E+01  0.66239474691E+01  0.00000000000E+00 0. -1.
         24    2    1    2    0    0 -0.60019505806E+02  0.55692924091E+02  0.75267095486E+03  0.76159645125E+03  0.82532087082E+02 0.  0.
        -13    1    3    3    0    0  0.12542116362E+02  0.58158751285E+01  0.24583916128E+02  0.28204574426E+02  0.00000000000E+00 0.  1.
         14    1    3    3    0    0 -0.72561622168E+02  0.49877048963E+02  0.72808703873E+03  0.73339187682E+03  0.00000000000E+00 0. -1.
          1    1    1    2  501    0  0.60019505806E+02 -0.55692924091E+02  0.77333911596E+03  0.77766151450E+03  0.00000000000E+00 0. -1.
<mgrwt>
<rscale>  1 0.11625656E+03</rscale>
<asrwt>0</asrwt>
<pdfrwt beam="1">  1       21 0.10190701E-02 0.11625656E+03</pdfrwt>
<pdfrwt beam="2">  1        2 0.23578957E+00 0.11625656E+03</pdfrwt>
<totfact> 0.60448113E+05</totfact>
</mgrwt>
</event>
<event>
 6    2  0.8544106E+000  0.8591862E+02  0.7546771E-02  0.1313048E+00
          2   -1    0    0  502    0 -0.00000000000E+00  0.00000000000E+00  0.24291825904E+04  0.24291825904E+04  0.00000000000E+00 0. -1.
         21   -1    0    0  501  502  0.00000000000E+00 -0.00000000000E+00 -0.14783166583E+01  0.14783166583E+01  0.00000000000E+00 0. -1.
         24    2    1    2    0    0 -0.25699710685E+02 -0.19372581965E+02  0.15651959017E+04  0.15675523021E+04  0.79663273531E+02 0.  0.
        -13    1    3    3    0    0 -0.35787094616E+01 -0.89064159049E+01  0.20219799906E+02  0.22382397412E+02  0.00000000000E+00 0.  1.
         14    1    3    3    0    0 -0.22121001224E+02 -0.10466166060E+02  0.15449761018E+04  0.15451699047E+04  0.00000000000E+00 0. -1.
          1    1    1    2  501    0  0.25699710685E+02  0.19372581965E+02  0.86250837205E+03  0.86310860493E+03  0.00000000000E+00 0. -1.
<mgrwt>
<rscale>  1 0.85918620E+02</rscale>
<asrwt>0</asrwt>
<pdfrwt beam="1">  1       21 0.22743528E-03 0.85918620E+02</pdfrwt>
<pdfrwt beam="2">  1        2 0.37371720E+00 0.85918620E+02</pdfrwt>
<totfact> 0.20848409E+06</totfact>
</mgrwt>
</event>
<event>
 6    2  0.8544106E+000  0.8168688E+02  0.7546771E-02  0.1324331E+00
         21   -1    0    0  501  502  0.00000000000E+00  0.00000000000E+00  0.27004666432E+02  0.27004666432E+02  0.00000000000E+00 0.  1.
          2   -1    0    0  502    0 -0.00000000000E+00 -0.00000000000E+00 -0.13827322504E+03  0.13827322504E+03  0.00000000000E+00 0. -1.
         24    2    1    2    0    0 -0.29037333239E+02  0.24190300815E+01 -0.10877683873E+03  0.13603362543E+03  0.76313355160E+02 0.  0.
        -13    1    3    3    0    0 -0.48583231466E+02  0.51287816277E+01 -0.36150078688E+02  0.60773867491E+02  0.00000000000E+00 0.  1.
         14    1    3    3    0    0  0.19545898228E+02 -0.27097515462E+01 -0.72626760044E+02  0.75259757942E+02  0.00000000000E+00 0. -1.
          1    1    1    2  501    0  0.29037333239E+02 -0.24190300815E+01 -0.24917198751E+01  0.29244266038E+02  0.00000000000E+00 0. -1.
<mgrwt>
<rscale>  1 0.81686881E+02</rscale>
<asrwt>0</asrwt>
<pdfrwt beam="1">  1       21 0.41545641E-02 0.81686881E+02</pdfrwt>
<pdfrwt beam="2">  1        2 0.21272804E-01 0.81686881E+02</pdfrwt>
<totfact> 0.10710126E+06</totfact>
</mgrwt>
</event>
<event>
 6    2  0.8544106E+000  0.9457095E+02  0.7546771E-02  0.1292145E+00
         21   -1    0    0  501  502  0.00000000000E+00  0.00000000000E+00  0.95183775123E+03  0.95183775123E+03  0.00000000000E+00 0. -1.
         -3   -1    0    0    0  501 -0.00000000000E+00 -0.00000000000E+00 -0.53637954188E+01  0.53637954188E+01  0.00000000000E+00 0.  1.
         24    2    1    2    0    0 -0.34259921813E+02  0.32476929955E+02  0.57224576754E+03  0.58000765736E+03  0.81946146364E+02 0.  0.
        -11    1    3    3    0    0 -0.14904567415E+02 -0.22374159593E+02  0.81332869010E+02  0.85660870464E+02  0.00000000000E+00 0.  1.
         12    1    3    3    0    0 -0.19355354399E+02  0.54851089548E+02  0.49091289853E+03  0.49434678689E+03  0.00000000000E+00 0. -1.
         -4    1    1    2    0  502  0.34259921813E+02 -0.32476929955E+02  0.37422818827E+03  0.37719388929E+03  0.00000000000E+00 0.  1.
<mgrwt>
<rscale>  1 0.94570948E+02</rscale>
<asrwt>0</asrwt>
<pdfrwt beam="1">  1       21 0.14643644E+00 0.94570948E+02</pdfrwt>
<pdfrwt beam="2">  1       -3 0.82520005E-03 0.94570948E+02</pdfrwt>
<totfact> 0.54711707E+04</totfact>
</mgrwt>
</event>
<event>
 6    2  0.8544106E+000  0.9918270E+02  0.7546771E-02  0.1282024E+00
         21   -1    0    0  501  502  0.00000000000E+00  0.00000000000E+00  0.19052397317E+02  0.19052397317E+02  0.00000000000E+00 0. -1.
         -1   -1    0    0    0  501 -0.00000000000E+00 -0.00000000000E+00 -0.32808487878E+03  0.32808487878E+03  0.00000000000E+00 0.  1.
         24    2    1    2    0    0 -0.46376469890E+00  0.58458482221E+02 -0.18111648558E+03  0.20649549275E+03  0.80122393590E+02 0.  0.
        -13    1    3    3    0    0 -0.24576586315E+01  0.22739868840E+02 -0.16614972916E+03  0.16771664861E+03  0.00000000000E+00 0.  1.
         14    1    3    3    0    0  0.19938939326E+01  0.35718613381E+02 -0.14966756419E+02  0.38778844137E+02  0.00000000000E+00 0. -1.
         -2    1    1    2    0  502  0.46376469890E+00 -0.58458482221E+02 -0.12791599588E+03  0.14064178335E+03  0.00000000000E+00 0.  1.
<mgrwt>
<rscale>  1 0.99182696E+02</rscale>
<asrwt>0</asrwt>
<pdfrwt beam="1">  1       21 0.29311383E-02 0.99182696E+02</pdfrwt>
<pdfrwt beam="2">  1       -1 0.50474592E-01 0.99182696E+02</pdfrwt>
<totfact> 0.23467412E+05</totfact>
</mgrwt>
</event>
<event>
 6    2  0.8544106E+000  0.1542477E+03  0.7546771E-02  0.1195348E+00
         21   -1    0    0  501  502  0.00000000000E+00  0.00000000000E+00  0.26247298227E+02  0.26247298227E+02  0.00000000000E+00 0. -1.
          2   -1    0    0  502    0 -0.00000000000E+00 -0.00000000000E+00 -0.78024978318E+03  0.78024978318E+03  0.00000000000E+00 0. -1.
         24    2    1    2    0    0  0.94280467338E+02 -0.92320813904E+02 -0.40287234966E+03  0.43139134817E+03  0.79877568494E+02 0.  0.
        -13    1    3    3    0    0  0.18571128012E+02 -0.60413656442E+02 -0.10650315743E+03  0.12384514211E+03  0.00000000000E+00 0.  1.
         14    1    3    3    0    0  0.75709339326E+02 -0.31907157463E+02 -0.29636919223E+03  0.30754620606E+03  0.00000000000E+00 0. -1.
          1    1    1    2  501    0 -0.94280467338E+02  0.92320813904E+02 -0.35113013529E+03  0.37510573324E+03  0.00000000000E+00 0. -1.
<mgrwt>
<rscale>  1 0.15424774E+03</rscale>
<asrwt>0</asrwt>
<pdfrwt beam="1">  1       21 0.40380458E-02 0.15424774E+03</pdfrwt>
<pdfrwt beam="2">  1        2 0.12003843E+00 0.15424774E+03</pdfrwt>
<totfact> 0.17783445E+05</totfact>
</mgrwt>
</event>
<event>
 6    2  0.8544106E+000  0.7957239E+02  0.7546771E-02  0.1330269E+00
         21   -1    0    0  501  502  0.00000000000E+00  0.00000000000E+00  0.19822602714E+02  0.19822602714E+02  0.00000000000E+00 0.  1.
         -1   -1    0    0    0  501 -0.00000000000E+00 -0.00000000000E+00 -0.68847000638E+03  0.68847000638E+03  0.00000000000E+00 0.  1.
         24    2    1    2    0    0 -0.39943910649E+02 -0.13634276928E+02 -0.66053831091E+03  0.66531392961E+03  0.67456320982E+02 0.  0.
        -13    1    3    3    0    0  0.13257321678E+01  0.17872403066E+02 -0.35051538442E+03  0.35097323982E+03  0.00000000000E+00 0.  1.
         14    1    3    3    0    0 -0.41269642817E+02 -0.31506679994E+02 -0.31002292650E+03  0.31434068979E+03  0.00000000000E+00 0. -1.
         -2    1    1    2    0  502  0.39943910649E+02  0.13634276928E+02 -0.81090927539E+01  0.42978679488E+02  0.00000000000E+00 0.  1.
<mgrwt>
<rscale>  1 0.79572387E+02</rscale>
<asrwt>0</asrwt>
<pdfrwt beam="1">  1       21 0.30496316E-02 0.79572387E+02</pdfrwt>
<pdfrwt beam="2">  1       -1 0.10591845E+00 0.79572387E+02</pdfrwt>
<totfact> 0.49714643E+04</totfact>
</mgrwt>
</event>
<event>
 6    2  0.8544106E+000  0.8978104E+02  0.7546771E-02  0.1303383E+00
         21   -1    0    0  501  502  0.00000000000E+00  0.00000000000E+00  0.85148459524E+03  0.85148459524E+03  0.00000000000E+00 0. -1.
         -3   -1    0    0    0  501 -0.00000000000E+00 -0.00000000000E+00 -0.58426620594E+01  0.58426620594E+01  0.00000000000E+00 0.  1.
         24    2    1    2    0    0  0.37741578141E+02  0.12522470460E+02  0.71913938090E+03  0.72472207369E+03  0.80494695125E+02 0.  0.
        -13    1    3    3    0    0  0.25507230991E+02  0.38025650674E+02  0.21657791010E+03  0.22136521878E+03  0.00000000000E+00 0.  1.
         14    1    3    3    0    0  0.12234347150E+02 -0.25503180214E+02  0.50256147080E+03  0.50335685491E+03  0.00000000000E+00 0. -1.
         -4    1    1    2    0  502 -0.37741578141E+02 -0.12522470460E+02  0.12650255228E+03  0.13260518361E+03  0.00000000000E+00 0.  1.
<mgrwt>
<rscale>  1 0.89781039E+02</rscale>
<asrwt>0</asrwt>
<pdfrwt beam="1">  1       21 0.13099753E+00 0.89781039E+02</pdfrwt>
<pdfrwt beam="2">  1       -3 0.89887177E-03 0.89781039E+02</pdfrwt>
<totfact> 0.63425654E+04</totfact>
</mgrwt>
</event>
<event>
 6    2  0.8544106E+000  0.7879137E+02  0.7546771E-02  0.1332517E+00
         21   -1    0    0  501  502  0.00000000000E+00  0.00000000000E+00  0.23260228160E+01  0.23260228160E+01  0.00000000000E+00 0. -1.
          2   -1    0    0  502    0 -0.00000000000E+00 -0.00000000000E+00 -0.15071472818E+04  0.15071472818E+04  0.00000000000E+00 0. -1.
         24    2    1    2    0    0  0.19713232601E+01 -0.24463122532E+02 -0.13808491167E+04  0.13830952110E+04  0.74871551115E+02 0.  0.
        -13    1    3    3    0    0 -0.72655205104E+01  0.26242223812E+02 -0.49304935524E+03  0.49380067720E+03  0.00000000000E+00 0.  1.
         14    1    3    3    0    0  0.92368437705E+01 -0.50705346344E+02 -0.88779976148E+03  0.88929453384E+03  0.00000000000E+00 0. -1.
          1    1    1    2  501    0 -0.19713232601E+01  0.24463122532E+02 -0.12397214230E+03  0.12637809361E+03  0.00000000000E+00 0. -1.
<mgrwt>
<rscale>  1 0.78791368E+02</rscale>
<asrwt>0</asrwt>
<pdfrwt beam="1">  1       21 0.35785098E-03 0.78791368E+02</pdfrwt>
<pdfrwt beam="2">  1        2 0.23186796E+00 0.78791368E+02</pdfrwt>
<totfact> 0.30496697E+06</totfact>
</mgrwt>
</event>
<event>
 6    2  0.8544106E+000  0.8372050E+02  0.7546771E-02  0.1318813E+00
          2   -1    0    0  502    0 -0.00000000000E+00  0.00000000000E+00  0.34696641511E+02  0.34696641511E+02  0.00000000000E+00 0. -1.
         21   -1    0    0  501  502  0.00000000000E+00 -0.00000000000E+00 -0.91255480238E+02  0.91255480238E+02  0.00000000000E+00 0.  1.
         24    2    1    2    0    0 -0.21126998058E+02 -0.70941630624E+01 -0.25105728871E+02  0.87403771380E+02  0.80699717675E+02 0.  0.
        -13    1    3    3    0    0 -0.80449041064E+01 -0.36527307215E+02 -0.37432104638E+02  0.52916227304E+02  0.00000000000E+00 0.  1.
         14    1    3    3    0    0 -0.13082093951E+02  0.29433144152E+02  0.12326375768E+02  0.34487544076E+02  0.00000000000E+00 0. -1.
          1    1    1    2  501    0  0.21126998058E+02  0.70941630624E+01 -0.31453109856E+02  0.38548350368E+02  0.00000000000E+00 0. -1.
<mgrwt>
<rscale>  1 0.83720497E+02</rscale>
<asrwt>0</asrwt>
<pdfrwt beam="1">  1       21 0.14039305E-01 0.83720497E+02</pdfrwt>
<pdfrwt beam="2">  1        2 0.53379449E-02 0.83720497E+02</pdfrwt>
<totfact> 0.70740798E+05</totfact>
</mgrwt>
</event>
<event>
 6    2  0.8544106E+000  0.1796332E+03  0.7546771E-02  0.1168159E+00
          2   -1    0    0  502    0 -0.00000000000E+00  0.00000000000E+00  0.52880469336E+03  0.52880469336E+03  0.00000000000E+00 0. -1.
         21   -1    0    0  501  502  0.00000000000E+00 -0.00000000000E+00 -0.91256271773E+02  0.91256271773E+02  0.00000000000E+00 0. -1.
         24    2    1    2    0    0 -0.73970320708E+02 -0.14218424509E+03  0.42247549897E+03  0.45907910003E+03  0.81117846082E+02 0.  0.
        -11    1    3    3    0    0  0.13588145030E+02 -0.17799881856E+02  0.25382760699E+02  0.33849047552E+02  0.00000000000E+00 0.  1.
         12    1    3    3    0    0 -0.87558465738E+02 -0.12438436323E+03  0.39709273827E+03  0.42523005247E+03  0.00000000000E+00 0. -1.
          1    1    1    2  501    0  0.73970320708E+02  0.14218424509E+03  0.15072922615E+02  0.16098186511E+03  0.00000000000E+00 0. -1.
<mgrwt>
<rscale>  1 0.17963316E+03</rscale>
<asrwt>0</asrwt>
<pdfrwt beam="1">  1       21 0.14039427E-01 0.17963316E+03</pdfrwt>
<pdfrwt beam="2">  1        2 0.81354567E-01 0.17963316E+03</pdfrwt>
<totfact> 0.32428729E+04</totfact>
</mgrwt>
</event>
<event>
 6    2  0.8544106E+000  0.8612714E+02  0.7546771E-02  0.1312511E+00
         21   -1    0    0  501  502  0.00000000000E+00  0.00000000000E+00  0.68480445736E+02  0.68480445736E+02  0.00000000000E+00 0. -1.
         -1   -1    0    0    0  501 -0.00000000000E+00 -0.00000000000E+00 -0.51901700751E+02  0.51901700751E+02  0.00000000000E+00 0.  1.
         24    2    1    2    0    0 -0.22926599091E+02  0.19688898106E+02  0.45292655173E+00  0.86128333931E+02  0.80651119700E+02 0.  0.
        -11    1    3    3    0    0  0.19635174078E+02 -0.19808472848E+02  0.26875740518E+01  0.28020326763E+02  0.00000000000E+00 0.  1.
         12    1    3    3    0    0 -0.42561773169E+02  0.39497370954E+02 -0.22346475001E+01  0.58108007168E+02  0.00000000000E+00 0. -1.
         -2    1    1    2    0  502  0.22926599091E+02 -0.19688898106E+02  0.16125818433E+02  0.34253812557E+02  0.00000000000E+00 0.  1.
<mgrwt>
<rscale>  1 0.86127143E+02</rscale>
<asrwt>0</asrwt>
<pdfrwt beam="1">  1       21 0.10535453E-01 0.86127143E+02</pdfrwt>
<pdfrwt beam="2">  1       -1 0.79848770E-02 0.86127143E+02</pdfrwt>
<totfact> 0.52696509E+05</totfact>
</mgrwt>
</event>
<event>
 6    2  0.8544106E+000  0.8283428E+02  0.7546771E-02  0.1321195E+00
         21   -1    0    0  501  502  0.00000000000E+00  0.00000000000E+00  0.37294193406E+02  0.37294193406E+02  0.00000000000E+00 0. -1.
          4   -1    0    0  502    0 -0.00000000000E+00 -0.00000000000E+00 -0.13229876319E+03  0.13229876319E+03  0.00000000000E+00 0. -1.
         24    2    1    2    0    0 -0.10203022234E+02 -0.20358841519E+02 -0.11332128999E+03  0.14036820117E+03  0.79642532881E+02 0.  0.
        -13    1    3    3    0    0  0.35566678822E+01  0.12829969703E+02  0.68276759100E+01  0.14962458600E+02  0.00000000000E+00 0.  1.
         14    1    3    3    0    0 -0.13759690116E+02 -0.33188811223E+02 -0.12014896590E+03  0.12540574257E+03  0.00000000000E+00 0. -1.
          3    1    1    2  501    0  0.10203022234E+02  0.20358841519E+02  0.18316720205E+02  0.29224755427E+02  0.00000000000E+00 0. -1.
<mgrwt>
<rscale>  1 0.82834275E+02</rscale>
<asrwt>0</asrwt>
<pdfrwt beam="1">  1       21 0.57375681E-02 0.82834275E+02</pdfrwt>
<pdfrwt beam="2">  1        4 0.20353656E-01 0.82834275E+02</pdfrwt>
<totfact> 0.17122826E+05</totfact>
</mgrwt>
</event>
<event>
 6    2  0.8544106E+000  0.1131917E+03  0.7546771E-02  0.1254771E+00
         21   -1    0    0  501  502  0.00000000000E+00  0.00000000000E+00  0.17076424747E+02  0.17076424747E+02  0.00000000000E+00 0. -1.
          2   -1    0    0  502    0 -0.00000000000E+00 -0.00000000000E+00 -0.11617088854E+04  0.11617088854E+04  0.00000000000E+00 0. -1.
         24    2    1    2    0    0  0.63703141523E+02 -0.45019854292E+02 -0.10502841946E+04  0.10563660600E+04  0.82021250844E+02 0.  0.
        -11    1    3    3    0    0  0.22651342626E+02 -0.14626362700E+02 -0.74214455755E+02  0.78960745004E+02  0.00000000000E+00 0.  1.
         12    1    3    3    0    0  0.41051798898E+02 -0.30393491592E+02 -0.97606973889E+03  0.97740531496E+03  0.00000000000E+00 0. -1.
          1    1    1    2  501    0 -0.63703141523E+02  0.45019854292E+02 -0.94348266052E+02  0.12241925023E+03  0.00000000000E+00 0. -1.
<mgrwt>
<rscale>  1 0.11319171E+03</rscale>
<asrwt>0</asrwt>
<pdfrwt beam="1">  1       21 0.26271423E-02 0.11319171E+03</pdfrwt>
<pdfrwt beam="2">  1        2 0.17872444E+00 0.11319171E+03</pdfrwt>
<totfact> 0.20933708E+05</totfact>
</mgrwt>
</event>
<event>
 6    2  0.8544106E+000  0.9243146E+02  0.7546771E-02  0.1297068E+00
         21   -1    0    0  501  502  0.00000000000E+00  0.00000000000E+00  0.15297885442E+01  0.15297885442E+01  0.00000000000E+00 0.  1.
          2   -1    0    0  502    0 -0.00000000000E+00 -0.00000000000E+00 -0.30237986069E+04  0.30237986069E+04  0.00000000000E+00 0. -1.
         24    2    1    2    0    0  0.40802130281E+02 -0.64755366285E+01 -0.23251735129E+04  0.23270099786E+04  0.82685119700E+02 0.  0.
        -11    1    3    3    0    0  0.44641056308E+02 -0.92524262212E+01 -0.56693694541E+03  0.56876702732E+03  0.00000000000E+00 0.  1.
         12    1    3    3    0    0 -0.38389260266E+01  0.27768895926E+01 -0.17582365675E+04  0.17582429513E+04  0.00000000000E+00 0. -1.
          1    1    1    2  501    0 -0.40802130281E+02  0.64755366285E+01 -0.69709530548E+03  0.69831841687E+03  0.00000000000E+00 0. -1.
<mgrwt>
<rscale>  1 0.92431463E+02</rscale>
<asrwt>0</asrwt>
<pdfrwt beam="1">  1       21 0.23535525E-03 0.92431463E+02</pdfrwt>
<pdfrwt beam="2">  1        2 0.46519354E+00 0.92431463E+02</pdfrwt>
<totfact> 0.94383758E+05</totfact>
</mgrwt>
</event>
<event>
 6    2  0.8544106E+000  0.8372132E+02  0.7546771E-02  0.1318811E+00
         21   -1    0    0  501  502  0.00000000000E+00  0.00000000000E+00  0.37387115308E+01  0.37387115308E+01  0.00000000000E+00 0.  1.
          2   -1    0    0  502    0 -0.00000000000E+00 -0.00000000000E+00 -0.92862084511E+03  0.92862084511E+03  0.00000000000E+00 0. -1.
         24    2    1    2    0    0 -0.36668269068E+01  0.25837416718E+02 -0.82067994420E+03  0.82493928856E+03  0.79550243762E+02 0.  0.
        -11    1    3    3    0    0  0.59792210677E+01  0.47286978863E+02 -0.30305139771E+03  0.30677672517E+03  0.00000000000E+00 0.  1.
         12    1    3    3    0    0 -0.96460479745E+01 -0.21449562145E+02 -0.51762854649E+03  0.51816256339E+03  0.00000000000E+00 0. -1.
          1    1    1    2  501    0  0.36668269068E+01 -0.25837416718E+02 -0.10420218938E+03  0.10742026808E+03  0.00000000000E+00 0. -1.
<mgrwt>
<rscale>  1 0.83721318E+02</rscale>
<asrwt>0</asrwt>
<pdfrwt beam="1">  1       21 0.57518543E-03 0.83721318E+02</pdfrwt>
<pdfrwt beam="2">  1        2 0.14286498E+00 0.83721318E+02</pdfrwt>
<totfact> 0.30695422E+06</totfact>
</mgrwt>
</event>
<event>
 6    2  0.8544106E+000  0.1340878E+03  0.7546771E-02  0.1221513E+00
         21   -1    0    0  501  502  0.00000000000E+00  0.00000000000E+00  0.27828466441E+02  0.27828466441E+02  0.00000000000E+00 0. -1.
          2   -1    0    0  502    0 -0.00000000000E+00 -0.00000000000E+00 -0.53843862265E+03  0.53843862265E+03  0.00000000000E+00 0. -1.
         24    2    1    2    0    0  0.10217850768E+03  0.32996330591E+02 -0.23634255650E+03  0.27173029764E+03  0.80314042252E+02 0.  0.
        -11    1    3    3    0    0 -0.70460822831E+01 -0.13326637887E+02 -0.20731180411E+02  0.25632565111E+02  0.00000000000E+00 0.  1.
         12    1    3    3    0    0  0.10922458996E+03  0.46322968478E+02 -0.21561137609E+03  0.24609773253E+03  0.00000000000E+00 0. -1.
          1    1    1    2  501    0 -0.10217850768E+03 -0.32996330591E+02 -0.27426759971E+03  0.29453679144E+03  0.00000000000E+00 0. -1.
<mgrwt>
<rscale>  1 0.13408785E+03</rscale>
<asrwt>0</asrwt>
<pdfrwt beam="1">  1       21 0.42813028E-02 0.13408785E+03</pdfrwt>
<pdfrwt beam="2">  1        2 0.82836706E-01 0.13408785E+03</pdfrwt>
<totfact> 0.24743576E+05</totfact>
</mgrwt>
</event>
<event>
 6    2  0.8544106E+000  0.8325854E+02  0.7546771E-02  0.1320050E+00
         21   -1    0    0  501  502  0.00000000000E+00  0.00000000000E+00  0.54836219144E+01  0.54836219144E+01  0.00000000000E+00 0. -1.
          2   -1    0    0  502    0 -0.00000000000E+00 -0.00000000000E+00 -0.22053749588E+04  0.22053749588E+04  0.00000000000E+00 0. -1.
         24    2    1    2    0    0 -0.13192545603E+02 -0.22875334482E+02 -0.21673598597E+04  0.21689584471E+04  0.78959861474E+02 0.  0.
        -11    1    3    3    0    0 -0.21862585672E+02  0.98638897256E+01 -0.21990696923E+03  0.22121108491E+03  0.00000000000E+00 0.  1.
         12    1    3    3    0    0  0.86700400691E+01 -0.32739224207E+02 -0.19474528905E+04  0.19477473622E+04  0.00000000000E+00 0. -1.
          1    1    1    2  501    0  0.13192545603E+02  0.22875334482E+02 -0.32531477191E+02  0.41900133596E+02  0.00000000000E+00 0. -1.
<mgrwt>
<rscale>  1 0.83258537E+02</rscale>
<asrwt>0</asrwt>
<pdfrwt beam="1">  1       21 0.84363448E-03 0.83258537E+02</pdfrwt>
<pdfrwt beam="2">  1        2 0.33928832E+00 0.83258537E+02</pdfrwt>
<totfact> 0.36718559E+05</totfact>
</mgrwt>
</event>
<event>
 6    2  0.8544106E+000  0.8618229E+02  0.7546771E-02  0.1312369E+00
          2   -1    0    0  502    0 -0.00000000000E+00  0.00000000000E+00  0.92783648002E+03  0.92783648002E+03  0.00000000000E+00 0. -1.
         21   -1    0    0  501  502  0.00000000000E+00 -0.00000000000E+00 -0.43828306523E+01  0.43828306523E+01  0.00000000000E+00 0.  1.
         24    2    1    2    0    0 -0.29664613635E+02 -0.16450179033E+02  0.78295784883E+03  0.78768672729E+03  0.79226192647E+02 0.  0.
        -11    1    3    3    0    0  0.10428089177E+02  0.25274043344E+02  0.19910546934E+03  0.20097390436E+03  0.00000000000E+00 0.  1.
         12    1    3    3    0    0 -0.40092702811E+02 -0.41724222377E+02  0.58385237949E+03  0.58671282293E+03  0.00000000000E+00 0. -1.
          1    1    1    2  501    0  0.29664613635E+02  0.16450179033E+02  0.14049580053E+03  0.14453258338E+03  0.00000000000E+00 0. -1.
<mgrwt>
<rscale>  1 0.86182291E+02</rscale>
<asrwt>0</asrwt>
<pdfrwt beam="1">  1       21 0.67428238E-03 0.86182291E+02</pdfrwt>
<pdfrwt beam="2">  1        2 0.14274392E+00 0.86182291E+02</pdfrwt>
<totfact> 0.24135238E+06</totfact>
</mgrwt>
</event>
<event>
 6    2  0.8544106E+000  0.8744711E+02  0.7546771E-02  0.1309154E+00
          2   -1    0    0  502    0 -0.00000000000E+00  0.00000000000E+00  0.10560535829E+03  0.10560535829E+03  0.00000000000E+00 0. -1.
         21   -1    0    0  501  502  0.00000000000E+00 -0.00000000000E+00 -0.35325174367E+02  0.35325174367E+02  0.00000000000E+00 0.  1.
         24    2    1    2    0    0  0.12606143882E+02  0.24829890691E+02  0.71647545544E+02  0.11305028852E+03  0.82894864841E+02 0.  0.
        -11    1    3    3    0    0  0.38509496819E+02  0.33752967908E+02  0.20759375923E+02  0.55255731617E+02  0.00000000000E+00 0.  1.
         12    1    3    3    0    0 -0.25903352937E+02 -0.89230772177E+01  0.50888169621E+02  0.57794556904E+02  0.00000000000E+00 0. -1.
          1    1    1    2  501    0 -0.12606143882E+02 -0.24829890691E+02 -0.13673616204E+01  0.27880244136E+02  0.00000000000E+00 0. -1.
<mgrwt>
<rscale>  1 0.87447109E+02</rscale>
<asrwt>0</asrwt>
<pdfrwt beam="1">  1       21 0.54346423E-02 0.87447109E+02</pdfrwt>
<pdfrwt beam="2">  1        2 0.16246978E-01 0.87447109E+02</pdfrwt>
<totfact> 0.93634550E+05</totfact>
</mgrwt>
</event>
<event>
 6    2  0.8544106E+000  0.8444852E+02  0.7546771E-02  0.1316881E+00
         21   -1    0    0  501  502  0.00000000000E+00  0.00000000000E+00  0.36471540589E+01  0.36471540589E+01  0.00000000000E+00 0. -1.
          2   -1    0    0  502    0 -0.00000000000E+00 -0.00000000000E+00 -0.12673423133E+04  0.12673423133E+04  0.00000000000E+00 0. -1.
         24    2    1    2    0    0  0.12835278827E+02  0.48327228253E+02 -0.88185212165E+03  0.88588640228E+03  0.68053566550E+02 0.  0.
        -13    1    3    3    0    0  0.35349141869E+02  0.18866147653E+02 -0.63523886384E+03  0.63650130203E+03  0.00000000000E+00 0.  1.
         14    1    3    3    0    0 -0.22513863042E+02  0.29461080600E+02 -0.24661325781E+03  0.24938510025E+03  0.00000000000E+00 0. -1.
          1    1    1    2  501    0 -0.12835278827E+02 -0.48327228253E+02 -0.38184303760E+03  0.38510306508E+03  0.00000000000E+00 0. -1.
<mgrwt>
<rscale>  1 0.84448525E+02</rscale>
<asrwt>0</asrwt>
<pdfrwt beam="1">  1       21 0.56110008E-03 0.84448525E+02</pdfrwt>
<pdfrwt beam="2">  1        2 0.19497593E+00 0.84448525E+02</pdfrwt>
<totfact> 0.20575532E+06</totfact>
</mgrwt>
</event>
<event>
 6    2  0.8544106E+000  0.8437785E+02  0.7546771E-02  0.1317068E+00
         21   -1    0    0  501  502  0.00000000000E+00  0.00000000000E+00  0.14978475197E+03  0.14978475197E+03  0.00000000000E+00 0. -1.
         -3   -1    0    0    0  501 -0.00000000000E+00 -0.00000000000E+00 -0.19666123503E+02  0.19666123503E+02  0.00000000000E+00 0.  1.
         24    2    1    2    0    0  0.21545240662E+02 -0.94226719490E+01  0.10901205329E+03  0.13785227333E+03  0.81034791030E+02 0.  0.
        -13    1    3    3    0    0  0.15618224195E+02  0.90185532816E+01 -0.76518909355E+01  0.19591188458E+02  0.00000000000E+00 0.  1.
         14    1    3    3    0    0  0.59270164666E+01 -0.18441225231E+02  0.11666394423E+03  0.11826108487E+03  0.00000000000E+00 0. -1.
         -4    1    1    2    0  502 -0.21545240662E+02  0.94226719490E+01  0.21106575176E+02  0.31598602145E+02  0.00000000000E+00 0.  1.
<mgrwt>
<rscale>  1 0.84377850E+02</rscale>
<asrwt>0</asrwt>
<pdfrwt beam="1">  1       21 0.23043807E-01 0.84377850E+02</pdfrwt>
<pdfrwt beam="2">  1       -3 0.30255576E-02 0.84377850E+02</pdfrwt>
<totfact> 0.38967278E+05</totfact>
</mgrwt>
</event>
<event>
 6    2  0.8544106E+000  0.1059914E+03  0.7546771E-02  0.1268179E+00
         -1   -1    0    0    0  501 -0.00000000000E+00  0.00000000000E+00  0.15950360820E+02  0.15950360820E+02  0.00000000000E+00 0.  1.
         21   -1    0    0  501  502  0.00000000000E+00 -0.00000000000E+00 -0.47230753622E+03  0.47230753622E+03  0.00000000000E+00 0.  1.
         24    2    1    2    0    0 -0.41313581271E+02 -0.50694989719E+02 -0.31855260330E+03  0.33572300244E+03  0.83410906455E+02 0.  0.
        -13    1    3    3    0    0 -0.52664407792E+02 -0.64477942483E+02 -0.21338498500E+03  0.22905042401E+03  0.00000000000E+00 0.  1.
         14    1    3    3    0    0  0.11350826521E+02  0.13782952763E+02 -0.10516761830E+03  0.10667257843E+03  0.00000000000E+00 0. -1.
         -2    1    1    2    0  502  0.41313581271E+02  0.50694989719E+02 -0.13780457210E+03  0.15253489461E+03  0.00000000000E+00 0.  1.
<mgrwt>
<rscale>  1 0.10599138E+03</rscale>
<asrwt>0</asrwt>
<pdfrwt beam="1">  1       21 0.72662686E-01 0.10599138E+03</pdfrwt>
<pdfrwt beam="2">  1       -1 0.24539021E-02 0.10599138E+03</pdfrwt>
<totfact> 0.74260162E+04</totfact>
</mgrwt>
</event>
<event>
 6    2  0.8544106E+000  0.8567877E+02  0.7546771E-02  0.1313667E+00
          2   -1    0    0  502    0 -0.00000000000E+00  0.00000000000E+00  0.13899900847E+04  0.13899900847E+04  0.00000000000E+00 0. -1.
         21   -1    0    0  501  502  0.00000000000E+00 -0.00000000000E+00 -0.99945862402E+01  0.99945862402E+01  0.00000000000E+00 0. -1.
         24    2    1    2    0    0 -0.29396116565E+02  0.80352026831E+01  0.13617974989E+04  0.13644901173E+04  0.80075938858E+02 0.  0.
        -13    1    3    3    0    0 -0.31688044444E+01 -0.13965717410E+01  0.12872729743E+01  0.36944290418E+01  0.00000000000E+00 0.  1.
         14    1    3    3    0    0 -0.26227312121E+02  0.94317744241E+01  0.13605102259E+04  0.13607956882E+04  0.00000000000E+00 0. -1.
          1    1    1    2  501    0  0.29396116565E+02 -0.80352026831E+01  0.18197999544E+02  0.35494553648E+02  0.00000000000E+00 0. -1.
<mgrwt>
<rscale>  1 0.85678773E+02</rscale>
<asrwt>0</asrwt>
<pdfrwt beam="1">  1       21 0.15376298E-02 0.85678773E+02</pdfrwt>
<pdfrwt beam="2">  1        2 0.21384448E+00 0.85678773E+02</pdfrwt>
<totfact> 0.36943852E+05</totfact>
</mgrwt>
</event>
<event>
 6    2  0.8544106E+000  0.8385363E+02  0.7546771E-02  0.1318458E+00
         -1   -1    0    0    0  501 -0.00000000000E+00  0.00000000000E+00  0.16726983747E+01  0.16726983747E+01  0.00000000000E+00 0.  1.
         21   -1    0    0  501  502  0.00000000000E+00 -0.00000000000E+00 -0.16977162737E+04  0.16977162737E+04  0.00000000000E+00 0. -1.
         24    2    1    2    0    0 -0.17393581084E+00 -0.21709086252E+02 -0.12427069333E+04  0.12455327991E+04  0.80994549574E+02 0.  0.
        -13    1    3    3    0    0 -0.20523215218E+02  0.17950587752E+02 -0.19719786939E+03  0.19907392008E+03  0.00000000000E+00 0.  1.
         14    1    3    3    0    0  0.20349279407E+02 -0.39659674004E+02 -0.10455090639E+04  0.10464588791E+04  0.00000000000E+00 0. -1.
         -2    1    1    2    0  502  0.17393581084E+00  0.21709086252E+02 -0.45333664211E+03  0.45385617298E+03  0.00000000000E+00 0.  1.
<mgrwt>
<rscale>  1 0.83853633E+02</rscale>
<asrwt>0</asrwt>
<pdfrwt beam="1">  1       21 0.26118814E+00 0.83853633E+02</pdfrwt>
<pdfrwt beam="2">  1       -1 0.25733720E-03 0.83853633E+02</pdfrwt>
<totfact> 0.66106383E+04</totfact>
</mgrwt>
</event>
<event>
 6    2  0.8544106E+000  0.8289412E+02  0.7546771E-02  0.1321033E+00
         21   -1    0    0  501  502  0.00000000000E+00  0.00000000000E+00  0.63514067603E+03  0.63514067603E+03  0.00000000000E+00 0. -1.
          4   -1    0    0  502    0 -0.00000000000E+00 -0.00000000000E+00 -0.10690498713E+02  0.10690498713E+02  0.00000000000E+00 0. -1.
         24    2    1    2    0    0 -0.21872654026E+02 -0.10895766428E+02  0.15524322027E+03  0.17598832946E+03  0.79210504019E+02 0.  0.
        -13    1    3    3    0    0 -0.10473969559E+02 -0.89231673937E+01  0.16200546375E+03  0.16258873650E+03  0.00000000000E+00 0.  1.
         14    1    3    3    0    0 -0.11398684467E+02 -0.19725990346E+01 -0.67622434779E+01  0.13399592956E+02  0.00000000000E+00 0. -1.
          3    1    1    2  501    0  0.21872654026E+02  0.10895766428E+02  0.46920695705E+03  0.46984284529E+03  0.00000000000E+00 0. -1.
<mgrwt>
<rscale>  1 0.82894117E+02</rscale>
<asrwt>0</asrwt>
<pdfrwt beam="1">  1       21 0.97713921E-01 0.82894117E+02</pdfrwt>
<pdfrwt beam="2">  1        4 0.16446926E-02 0.82894117E+02</pdfrwt>
<totfact> 0.46359389E+04</totfact>
</mgrwt>
</event>
<event>
 6    2  0.8544106E+000  0.1011024E+03  0.7546771E-02  0.1277995E+00
         21   -1    0    0  501  502  0.00000000000E+00  0.00000000000E+00  0.45245708488E+03  0.45245708488E+03  0.00000000000E+00 0.  1.
         -3   -1    0    0    0  501 -0.00000000000E+00 -0.00000000000E+00 -0.21208596345E+02  0.21208596345E+02  0.00000000000E+00 0.  1.
         24    2    1    2    0    0  0.19663107476E+02  0.89520373180E+01  0.10167865025E+03  0.14338844150E+03  0.98767000932E+02 0.  0.
        -11    1    3    3    0    0  0.12713021671E+01  0.50185449022E+02  0.29428344724E+02  0.58191262024E+02  0.00000000000E+00 0.  1.
         12    1    3    3    0    0  0.18391805309E+02 -0.41233411704E+02  0.72250305522E+02  0.85197179480E+02  0.00000000000E+00 0. -1.
         -4    1    1    2    0  502 -0.19663107476E+02 -0.89520373180E+01  0.32956983829E+03  0.33027723972E+03  0.00000000000E+00 0.  1.
<mgrwt>
<rscale>  1 0.10110241E+03</rscale>
<asrwt>0</asrwt>
<pdfrwt beam="1">  1       21 0.69608775E-01 0.10110241E+03</pdfrwt>
<pdfrwt beam="2">  1       -3 0.32628613E-02 0.10110241E+03</pdfrwt>
<totfact> 0.39384330E+04</totfact>
</mgrwt>
</event>
<event>
 6    2  0.8544106E+000  0.5956474E+02  0.7546771E-02  0.1399667E+00
          2   -1    0    0  502    0 -0.00000000000E+00  0.00000000000E+00  0.42962884909E+03  0.42962884909E+03  0.00000000000E+00 0. -1.
         21   -1    0    0  501  502  0.00000000000E+00 -0.00000000000E+00 -0.67204399952E+01  0.67204399952E+01  0.00000000000E+00 0. -1.
         24    2    1    2    0    0 -0.23644864928E+02  0.61728699700E+01  0.39408352929E+03  0.39855963896E+03  0.54321025259E+02 0.  0.
        -11    1    3    3    0    0 -0.30894650806E+02  0.14436454277E+02  0.13491242668E+03  0.13915550127E+03  0.00000000000E+00 0.  1.
         12    1    3    3    0    0  0.72497858781E+01 -0.82635843070E+01  0.25917110262E+03  0.25940413769E+03  0.00000000000E+00 0. -1.
          1    1    1    2  501    0  0.23644864928E+02 -0.61728699700E+01  0.28824879801E+02  0.37789650126E+02  0.00000000000E+00 0. -1.
<mgrwt>
<rscale>  1 0.59564736E+02</rscale>
<asrwt>0</asrwt>
<pdfrwt beam="1">  1       21 0.10339142E-02 0.59564736E+02</pdfrwt>
<pdfrwt beam="2">  1        2 0.66096725E-01 0.59564736E+02</pdfrwt>
<totfact> 0.28550130E+06</totfact>
</mgrwt>
</event>
<event>
 6    2  0.8544106E+000  0.8703321E+02  0.7546771E-02  0.1310199E+00
         21   -1    0    0  501  502  0.00000000000E+00  0.00000000000E+00  0.64963481942E+02  0.64963481942E+02  0.00000000000E+00 0.  1.
          2   -1    0    0  502    0 -0.00000000000E+00 -0.00000000000E+00 -0.14843782446E+03  0.14843782446E+03  0.00000000000E+00 0. -1.
         24    2    1    2    0    0  0.57471592915E+01  0.29859262782E+02 -0.13082354266E+03  0.15712918038E+03  0.81548602688E+02 0.  0.
        -13    1    3    3    0    0 -0.66366433270E+01  0.23551635658E+02  0.10827369502E+01  0.24492792739E+02  0.00000000000E+00 0.  1.
         14    1    3    3    0    0  0.12383802619E+02  0.63076271238E+01 -0.13190627961E+03  0.13263638764E+03  0.00000000000E+00 0. -1.
          1    1    1    2  501    0 -0.57471592915E+01 -0.29859262782E+02  0.47349200135E+02  0.56272126024E+02  0.00000000000E+00 0. -1.
<mgrwt>
<rscale>  1 0.87033212E+02</rscale>
<asrwt>0</asrwt>
<pdfrwt beam="1">  1       21 0.99943820E-02 0.87033212E+02</pdfrwt>
<pdfrwt beam="2">  1        2 0.22836588E-01 0.87033212E+02</pdfrwt>
<totfact> 0.22701182E+05</totfact>
</mgrwt>
</event>
<event>
 6    2  0.8544106E+000  0.8083450E+02  0.7546771E-02  0.1326700E+00
         21   -1    0    0  501  502  0.00000000000E+00  0.00000000000E+00  0.32614963474E+03  0.32614963474E+03  0.00000000000E+00 0.  1.
         -1   -1    0    0    0  501 -0.00000000000E+00 -0.00000000000E+00 -0.12460385581E+02  0.12460385581E+02  0.00000000000E+00 0.  1.
         24    2    1    2    0    0 -0.36763252329E+02  0.97100659996E+01  0.14823384234E+03  0.16884160821E+03  0.71332983577E+02 0.  0.
        -13    1    3    3    0    0 -0.11320875292E+02  0.35725842525E+02  0.40739870648E+02  0.55355533616E+02  0.00000000000E+00 0.  1.
         14    1    3    3    0    0 -0.25442377037E+02 -0.26015776526E+02  0.10749397169E+03  0.11348607460E+03  0.00000000000E+00 0. -1.
         -2    1    1    2    0  502  0.36763252329E+02 -0.97100659996E+01  0.16545540682E+03  0.16976841211E+03  0.00000000000E+00 0.  1.
<mgrwt>
<rscale>  1 0.80834502E+02</rscale>
<asrwt>0</asrwt>
<pdfrwt beam="1">  1       21 0.50176860E-01 0.80834502E+02</pdfrwt>
<pdfrwt beam="2">  1       -1 0.19169826E-02 0.80834502E+02</pdfrwt>
<totfact> 0.22643448E+05</totfact>
</mgrwt>
</event>
<event>
 6    2  0.8544106E+000  0.1085408E+03  0.7546771E-02  0.1263296E+00
         21   -1    0    0  501  502  0.00000000000E+00  0.00000000000E+00  0.10794571923E+02  0.10794571923E+02  0.00000000000E+00 0.  1.
          2   -1    0    0  502    0 -0.00000000000E+00 -0.00000000000E+00 -0.19751484056E+04  0.19751484056E+04  0.00000000000E+00 0. -1.
         24    2    1    2    0    0  0.86940192811E+01 -0.72111188346E+02 -0.18299710109E+04  0.18331871183E+04  0.80656684152E+02 0.  0.
        -13    1    3    3    0    0 -0.34955475009E+01 -0.18198499067E+02 -0.71972276672E+02  0.74319666509E+02  0.00000000000E+00 0.  1.
         14    1    3    3    0    0  0.12189566782E+02 -0.53912689280E+02 -0.17579987342E+04  0.17588674518E+04  0.00000000000E+00 0. -1.
          1    1    1    2  501    0 -0.86940192811E+01  0.72111188346E+02 -0.13438282284E+03  0.15275585924E+03  0.00000000000E+00 0. -1.
<mgrwt>
<rscale>  1 0.10854082E+03</rscale>
<asrwt>0</asrwt>
<pdfrwt beam="1">  1       21 0.16607041E-02 0.10854082E+03</pdfrwt>
<pdfrwt beam="2">  1        2 0.30386885E+00 0.10854082E+03</pdfrwt>
<totfact> 0.16591129E+05</totfact>
</mgrwt>
</event>
<event>
 6    2  0.8544106E+000  0.8247262E+02  0.7546771E-02  0.1322177E+00
         21   -1    0    0  501  502  0.00000000000E+00  0.00000000000E+00  0.26022423145E+02  0.26022423145E+02  0.00000000000E+00 0.  1.
         -1   -1    0    0    0  501 -0.00000000000E+00 -0.00000000000E+00 -0.10316048435E+03  0.10316048435E+03  0.00000000000E+00 0.  1.
         24    2    1    2    0    0 -0.19680052981E+02  0.62863586497E+01 -0.66511170917E+02  0.10595030998E+03  0.79843030609E+02 0.  0.
        -13    1    3    3    0    0 -0.49553998034E+02 -0.59515538744E+01 -0.44592977754E+02  0.66929465706E+02  0.00000000000E+00 0.  1.
         14    1    3    3    0    0  0.29873945054E+02  0.12237912524E+02 -0.21918193163E+02  0.39020844270E+02  0.00000000000E+00 0. -1.
         -2    1    1    2    0  502  0.19680052981E+02 -0.62863586497E+01 -0.10626890292E+02  0.23232597523E+02  0.00000000000E+00 0.  1.
<mgrwt>
<rscale>  1 0.82472616E+02</rscale>
<asrwt>0</asrwt>
<pdfrwt beam="1">  1       21 0.40034496E-02 0.82472616E+02</pdfrwt>
<pdfrwt beam="2">  1       -1 0.15870844E-01 0.82472616E+02</pdfrwt>
<totfact> 0.94402608E+05</totfact>
</mgrwt>
</event>
<event>
 6    2  0.8544106E+000  0.8487688E+02  0.7546771E-02  0.1315755E+00
          2   -1    0    0  502    0 -0.00000000000E+00  0.00000000000E+00  0.23249114168E+03  0.23249114168E+03  0.00000000000E+00 0. -1.
         21   -1    0    0  501  502  0.00000000000E+00 -0.00000000000E+00 -0.32391075618E+02  0.32391075618E+02  0.00000000000E+00 0. -1.
         24    2    1    2    0    0  0.40443337705E+02  0.88846099760E+00  0.20710909313E+03  0.22382640908E+03  0.74616566622E+02 0.  0.
        -13    1    3    3    0    0 -0.64186813251E+01  0.26662139989E+02  0.10544615912E+03  0.10895394280E+03  0.00000000000E+00 0.  1.
         14    1    3    3    0    0  0.46862019031E+02 -0.25773678991E+02  0.10166293402E+03  0.11487246628E+03  0.00000000000E+00 0. -1.
          1    1    1    2  501    0 -0.40443337705E+02 -0.88846099760E+00 -0.70090270763E+01  0.41055808216E+02  0.00000000000E+00 0. -1.
<mgrwt>
<rscale>  1 0.84876881E+02</rscale>
<asrwt>0</asrwt>
<pdfrwt beam="1">  1       21 0.49832425E-02 0.84876881E+02</pdfrwt>
<pdfrwt beam="2">  1        2 0.35767867E-01 0.84876881E+02</pdfrwt>
<totfact> 0.45503809E+05</totfact>
</mgrwt>
</event>
<event>
 6    2  0.8544106E+000  0.8681151E+02  0.7546771E-02  0.1310762E+00
         21   -1    0    0  501  502  0.00000000000E+00  0.00000000000E+00  0.29264188415E+02  0.29264188415E+02  0.00000000000E+00 0. -1.
          2   -1    0    0  502    0 -0.00000000000E+00 -0.00000000000E+00 -0.37171746132E+03  0.37171746132E+03  0.00000000000E+00 0. -1.
         24    2    1    2    0    0 -0.24798320732E+02  0.20351156275E+02 -0.35579890874E+03  0.36623640158E+03  0.80666672843E+02 0.  0.
        -13    1    3    3    0    0 -0.52452068797E+02  0.12374283205E+02 -0.17342901970E+03  0.18160938103E+03  0.00000000000E+00 0.  1.
         14    1    3    3    0    0  0.27653748065E+02  0.79768730699E+01 -0.18236988905E+03  0.18462702055E+03  0.00000000000E+00 0. -1.
          1    1    1    2  501    0  0.24798320732E+02 -0.20351156275E+02  0.13345635844E+02  0.34745248149E+02  0.00000000000E+00 0. -1.
<mgrwt>
<rscale>  1 0.86811511E+02</rscale>
<asrwt>0</asrwt>
<pdfrwt beam="1">  1       21 0.45021828E-02 0.86811511E+02</pdfrwt>
<pdfrwt beam="2">  1        2 0.57187302E-01 0.86811511E+02</pdfrwt>
<totfact> 0.33026122E+05</totfact>
</mgrwt>
</event>
<event>
 6    2  0.8544106E+000  0.7768585E+02  0.7546771E-02  0.1335750E+00
         -1   -1    0    0    0  501 -0.00000000000E+00  0.00000000000E+00  0.81519490282E+03  0.81519490282E+03  0.00000000000E+00 0.  1.
         21   -1    0    0  501  502  0.00000000000E+00 -0.00000000000E+00 -0.56632397579E+01  0.56632397579E+01  0.00000000000E+00 0. -1.
         24    2    1    2    0    0 -0.25202969311E+02  0.14772928466E+02  0.75507146564E+03  0.75905731588E+03  0.71983758487E+02 0.  0.
        -13    1    3    3    0    0  0.12483249351E+02  0.24414972221E+02  0.52537983100E+03  0.52609494315E+03  0.00000000000E+00 0.  1.
         14    1    3    3    0    0 -0.37686218662E+02 -0.96420437547E+01  0.22969163463E+03  0.23296237273E+03  0.00000000000E+00 0. -1.
         -2    1    1    2    0  502  0.25202969311E+02 -0.14772928466E+02  0.54460197421E+02  0.61800826699E+02  0.00000000000E+00 0.  1.
<mgrwt>
<rscale>  1 0.77685845E+02</rscale>
<asrwt>0</asrwt>
<pdfrwt beam="1">  1       21 0.87126830E-03 0.77685845E+02</pdfrwt>
<pdfrwt beam="2">  1       -1 0.12541451E+00 0.77685845E+02</pdfrwt>
<totfact> 0.24539266E+05</totfact>
</mgrwt>
</event>
<event>
 6    2  0.8544106E+000  0.8485797E+02  0.7546771E-02  0.1315804E+00
         21   -1    0    0  501  502  0.00000000000E+00  0.00000000000E+00  0.31092699626E+01  0.31092699626E+01  0.00000000000E+00 0.  1.
          2   -1    0    0  502    0 -0.00000000000E+00 -0.00000000000E+00 -0.10884634822E+04  0.10884634822E+04  0.00000000000E+00 0. -1.
         24    2    1    2    0    0  0.21222898890E+02  0.10722834973E+02 -0.97500555569E+03  0.97869132487E+03  0.81458487044E+02 0.  0.
        -13    1    3    3    0    0  0.15405381454E+02 -0.73011035386E+01 -0.39843128554E+02  0.43337129388E+02  0.00000000000E+00 0.  1.
         14    1    3    3    0    0  0.58175174359E+01  0.18023938512E+02 -0.93516242714E+03  0.93535419548E+03  0.00000000000E+00 0. -1.
          1    1    1    2  501    0 -0.21222898890E+02 -0.10722834973E+02 -0.11034865657E+03  0.11288142732E+03  0.00000000000E+00 0. -1.
<mgrwt>
<rscale>  1 0.84857974E+02</rscale>
<asrwt>0</asrwt>
<pdfrwt beam="1">  1       21 0.47834865E-03 0.84857974E+02</pdfrwt>
<pdfrwt beam="2">  1        2 0.16745612E+00 0.84857974E+02</pdfrwt>
<totfact> 0.32903677E+06</totfact>
</mgrwt>
</event>
<event>
 6    2  0.8544106E+000  0.9396595E+02  0.7546771E-02  0.1293522E+00
          2   -1    0    0  502    0 -0.00000000000E+00  0.00000000000E+00  0.13933975615E+02  0.13933975615E+02  0.00000000000E+00 0. -1.
         21   -1    0    0  501  502  0.00000000000E+00 -0.00000000000E+00 -0.38384220256E+03  0.38384220256E+03  0.00000000000E+00 0. -1.
         24    2    1    2    0    0  0.44421271777E+02  0.22087469512E+02 -0.20382626666E+03  0.22444319451E+03  0.79802850098E+02 0.  0.
        -11    1    3    3    0    0 -0.16309655529E+02 -0.11756524999E+02 -0.22127343058E+02  0.29897157964E+02  0.00000000000E+00 0.  1.
         12    1    3    3    0    0  0.60730927306E+02  0.33843994511E+02 -0.18169892360E+03  0.19454603654E+03  0.00000000000E+00 0. -1.
          1    1    1    2  501    0 -0.44421271777E+02 -0.22087469512E+02 -0.16608196028E+03  0.17333298367E+03  0.00000000000E+00 0. -1.
<mgrwt>
<rscale>  1 0.93965954E+02</rscale>
<asrwt>0</asrwt>
<pdfrwt beam="1">  1       21 0.59052657E-01 0.93965954E+02</pdfrwt>
<pdfrwt beam="2">  1        2 0.21436882E-02 0.93965954E+02</pdfrwt>
<totfact> 0.15264470E+05</totfact>
</mgrwt>
</event>
<event>
 6    2  0.8544106E+000  0.8533251E+02  0.7546771E-02  0.1314565E+00
         21   -1    0    0  501  502  0.00000000000E+00  0.00000000000E+00  0.50246534072E+02  0.50246534072E+02  0.00000000000E+00 0. -1.
          2   -1    0    0  502    0 -0.00000000000E+00 -0.00000000000E+00 -0.10471016694E+03  0.10471016694E+03  0.00000000000E+00 0. -1.
         24    2    1    2    0    0  0.16710135267E+02  0.17260030979E+02 -0.82047216684E+02  0.11837813644E+03  0.81881012029E+02 0.  0.
        -11    1    3    3    0    0  0.44897107378E+01  0.34622663120E+02 -0.13544636311E+01  0.34938816176E+02  0.00000000000E+00 0.  1.
         12    1    3    3    0    0  0.12220424529E+02 -0.17362632141E+02 -0.80692753053E+02  0.83439320262E+02  0.00000000000E+00 0. -1.
          1    1    1    2  501    0 -0.16710135267E+02 -0.17260030979E+02  0.27583583816E+02  0.36578564573E+02  0.00000000000E+00 0. -1.
<mgrwt>
<rscale>  1 0.85332511E+02</rscale>
<asrwt>0</asrwt>
<pdfrwt beam="1">  1       21 0.77302361E-02 0.85332511E+02</pdfrwt>
<pdfrwt beam="2">  1        2 0.16109256E-01 0.85332511E+02</pdfrwt>
<totfact> 0.52075551E+05</totfact>
</mgrwt>
</event>
<event>
 6    2  0.8544106E+000  0.8756366E+02  0.7546771E-02  0.1308861E+00
         -1   -1    0    0    0  501 -0.00000000000E+00  0.00000000000E+00  0.10375899571E+04  0.10375899571E+04  0.00000000000E+00 0.  1.
         21   -1    0    0  501  502  0.00000000000E+00 -0.00000000000E+00 -0.40982910085E+01  0.40982910085E+01  0.00000000000E+00 0. -1.
         24    2    1    2    0    0 -0.23822721151E+02  0.26302555602E+02  0.55318154727E+03  0.56006894127E+03  0.80050285850E+02 0.  0.
        -13    1    3    3    0    0  0.28861325929E+02  0.14874680542E+01  0.21044456071E+03  0.21241963617E+03  0.00000000000E+00 0.  1.
         14    1    3    3    0    0 -0.52684047080E+02  0.24815087548E+02  0.34273698655E+03  0.34764930510E+03  0.00000000000E+00 0. -1.
         -2    1    1    2    0  502  0.23822721151E+02 -0.26302555602E+02  0.48031011886E+03  0.48161930687E+03  0.00000000000E+00 0.  1.
<mgrwt>
<rscale>  1 0.87563661E+02</rscale>
<asrwt>0</asrwt>
<pdfrwt beam="1">  1       21 0.63050714E-03 0.87563661E+02</pdfrwt>
<pdfrwt beam="2">  1       -1 0.15962901E+00 0.87563661E+02</pdfrwt>
<totfact> 0.22407641E+05</totfact>
</mgrwt>
</event>
<event>
 6    2  0.8544106E+000  0.8356301E+02  0.7546771E-02  0.1319234E+00
         21   -1    0    0  501  502  0.00000000000E+00  0.00000000000E+00  0.63853597894E+02  0.63853597894E+02  0.00000000000E+00 0. -1.
          4   -1    0    0  502    0 -0.00000000000E+00 -0.00000000000E+00 -0.12449510052E+03  0.12449510052E+03  0.00000000000E+00 0. -1.
         24    2    1    2    0    0 -0.93339423234E+01  0.30389391698E+02 -0.10473759554E+03  0.13398783918E+03  0.77279619046E+02 0.  0.
        -13    1    3    3    0    0 -0.40324439212E+02  0.18820863989E+01 -0.40525709043E+02  0.57200836886E+02  0.00000000000E+00 0.  1.
         14    1    3    3    0    0  0.30990496889E+02  0.28507305299E+02 -0.64211886499E+02  0.76787002289E+02  0.00000000000E+00 0. -1.
          3    1    1    2  501    0  0.93339423234E+01 -0.30389391698E+02  0.44096092914E+02  0.54360859240E+02  0.00000000000E+00 0. -1.
<mgrwt>
<rscale>  1 0.83563013E+02</rscale>
<asrwt>0</asrwt>
<pdfrwt beam="1">  1       21 0.98236306E-02 0.83563013E+02</pdfrwt>
<pdfrwt beam="2">  1        4 0.19153092E-01 0.83563013E+02</pdfrwt>
<totfact> 0.76652115E+04</totfact>
</mgrwt>
</event>
<event>
 6    2  0.8544106E+000  0.9662706E+02  0.7546771E-02  0.1287553E+00
          2   -1    0    0  502    0 -0.00000000000E+00  0.00000000000E+00  0.22459388530E+04  0.22459388530E+04  0.00000000000E+00 0. -1.
         21   -1    0    0  501  502  0.00000000000E+00 -0.00000000000E+00 -0.25073747635E+01  0.25073747635E+01  0.00000000000E+00 0.  1.
         24    2    1    2    0    0  0.53045600094E+02 -0.37427405897E+01  0.13800367514E+04  0.13834154202E+04  0.80678037223E+02 0.  0.
        -11    1    3    3    0    0  0.26454889834E+02  0.90776398517E+01  0.12753530903E+03  0.13056615101E+03  0.00000000000E+00 0.  1.
         12    1    3    3    0    0  0.26590710259E+02 -0.12820380441E+02  0.12525014424E+04  0.12528492692E+04  0.00000000000E+00 0. -1.
          1    1    1    2  501    0 -0.53045600094E+02  0.37427405897E+01  0.86339472684E+03  0.86503080762E+03  0.00000000000E+00 0. -1.
<mgrwt>
<rscale>  1 0.96627064E+02</rscale>
<asrwt>0</asrwt>
<pdfrwt beam="1">  1       21 0.38575176E-03 0.96627064E+02</pdfrwt>
<pdfrwt beam="2">  1        2 0.34552745E+00 0.96627064E+02</pdfrwt>
<totfact> 0.11719324E+06</totfact>
</mgrwt>
</event>
<event>
 6    2  0.8544106E+000  0.8469598E+02  0.7546771E-02  0.1316230E+00
         -1   -1    0    0    0  501 -0.00000000000E+00  0.00000000000E+00  0.63302905669E+02  0.63302905669E+02  0.00000000000E+00 0.  1.
         21   -1    0    0  501  502  0.00000000000E+00 -0.00000000000E+00 -0.58520620987E+02  0.58520620987E+02  0.00000000000E+00 0. -1.
         24    2    1    2    0    0 -0.23123452610E+02  0.17116890136E+01  0.27809943781E+02  0.89144832932E+02  0.81460323627E+02 0.  0.
        -13    1    3    3    0    0  0.46610765143E+01 -0.34010939102E+02  0.27341655362E+02  0.43886623597E+02  0.00000000000E+00 0.  1.
         14    1    3    3    0    0 -0.27784529124E+02  0.35722628115E+02  0.46828841964E+00  0.45258209334E+02  0.00000000000E+00 0. -1.
         -2    1    1    2    0  502  0.23123452610E+02 -0.17116890136E+01 -0.23027659099E+02  0.32678693724E+02  0.00000000000E+00 0.  1.
<mgrwt>
<rscale>  1 0.84695975E+02</rscale>
<asrwt>0</asrwt>
<pdfrwt beam="1">  1       21 0.90031725E-02 0.84695975E+02</pdfrwt>
<pdfrwt beam="2">  1       -1 0.97389085E-02 0.84695975E+02</pdfrwt>
<totfact> 0.51255728E+05</totfact>
</mgrwt>
</event>
<event>
 6    2  0.8544106E+000  0.1098356E+03  0.7546771E-02  0.1260875E+00
         21   -1    0    0  501  502  0.00000000000E+00  0.00000000000E+00  0.88660913333E+01  0.88660913333E+01  0.00000000000E+00 0. -1.
          2   -1    0    0  502    0 -0.00000000000E+00 -0.00000000000E+00 -0.13523776011E+04  0.13523776011E+04  0.00000000000E+00 0. -1.
         24    2    1    2    0    0  0.74266413897E+02 -0.74522187735E+00 -0.11271687377E+04  0.11325074893E+04  0.80918443668E+02 0.  0.
        -11    1    3    3    0    0  0.24016202754E+01 -0.29321468724E+02 -0.44437661306E+03  0.44534940277E+03  0.00000000000E+00 0.  1.
         12    1    3    3    0    0  0.71864793621E+02  0.28576246847E+02 -0.68279212465E+03  0.68715808656E+03  0.00000000000E+00 0. -1.
          1    1    1    2  501    0 -0.74266413897E+02  0.74522187735E+00 -0.21634277202E+03  0.22873620307E+03  0.00000000000E+00 0. -1.
<mgrwt>
<rscale>  1 0.10983556E+03</rscale>
<asrwt>0</asrwt>
<pdfrwt beam="1">  1       21 0.13640138E-02 0.10983556E+03</pdfrwt>
<pdfrwt beam="2">  1        2 0.20805813E+00 0.10983556E+03</pdfrwt>
<totfact> 0.47237787E+05</totfact>
</mgrwt>
</event>
<event>
 6    2  0.8544106E+000  0.9850030E+02  0.7546771E-02  0.1283482E+00
          2   -1    0    0  502    0 -0.00000000000E+00  0.00000000000E+00  0.22086531238E+04  0.22086531238E+04  0.00000000000E+00 0. -1.
         21   -1    0    0  501  502  0.00000000000E+00 -0.00000000000E+00 -0.66590804535E+01  0.66590804535E+01  0.00000000000E+00 0. -1.
         24    2    1    2    0    0 -0.11690987178E+02 -0.56824643635E+02  0.20538934283E+04  0.20562540027E+04  0.79602697629E+02 0.  0.
        -13    1    3    3    0    0  0.52458801535E+01  0.17383534376E+02  0.20771816669E+03  0.20851029543E+03  0.00000000000E+00 0.  1.
         14    1    3    3    0    0 -0.16936867331E+02 -0.74208178011E+02  0.18461752616E+04  0.18477437073E+04  0.00000000000E+00 0. -1.
          1    1    1    2  501    0  0.11690987178E+02  0.56824643635E+02  0.14810061499E+03  0.15905820151E+03  0.00000000000E+00 0. -1.
<mgrwt>
<rscale>  1 0.98500298E+02</rscale>
<asrwt>0</asrwt>
<pdfrwt beam="1">  1       21 0.10244757E-02 0.98500298E+02</pdfrwt>
<pdfrwt beam="2">  1        2 0.33979220E+00 0.98500298E+02</pdfrwt>
<totfact> 0.27088251E+05</totfact>
</mgrwt>
</event>
<event>
 6    2  0.8544106E+000  0.8819170E+02  0.7546771E-02  0.1307291E+00
         21   -1    0    0  501  502  0.00000000000E+00  0.00000000000E+00  0.17366433220E+01  0.17366433220E+01  0.00000000000E+00 0.  1.
          2   -1    0    0  502    0 -0.00000000000E+00 -0.00000000000E+00 -0.23052240833E+04  0.23052240833E+04  0.00000000000E+00 0. -1.
         24    2    1    2    0    0  0.71170551330E+00  0.37118875337E+02 -0.17586117506E+04  0.17608217020E+04  0.79996619684E+02 0.  0.
        -11    1    3    3    0    0  0.24814046936E+02  0.35601829717E+02 -0.47385309528E+03  0.47583608849E+03  0.00000000000E+00 0.  1.
         12    1    3    3    0    0 -0.24102341423E+02  0.15170456208E+01 -0.12847586554E+04  0.12849856135E+04  0.00000000000E+00 0. -1.
          1    1    1    2  501    0 -0.71170551330E+00 -0.37118875337E+02 -0.54487568935E+03  0.54613902467E+03  0.00000000000E+00 0. -1.
<mgrwt>
<rscale>  1 0.88191704E+02</rscale>
<asrwt>0</asrwt>
<pdfrwt beam="1">  1       21 0.26717452E-03 0.88191704E+02</pdfrwt>
<pdfrwt beam="2">  1        2 0.35465169E+00 0.88191704E+02</pdfrwt>
<totfact> 0.18984459E+06</totfact>
</mgrwt>
</event>
<event>
 6    2  0.8544106E+000  0.9593594E+02  0.7546771E-02  0.1289082E+00
         21   -1    0    0  501  502  0.00000000000E+00  0.00000000000E+00  0.36132054755E+02  0.36132054755E+02  0.00000000000E+00 0. -1.
          2   -1    0    0  502    0 -0.00000000000E+00 -0.00000000000E+00 -0.27520411017E+03  0.27520411017E+03  0.00000000000E+00 0. -1.
         24    2    1    2    0    0 -0.62781618456E+01 -0.29673546967E+02 -0.25822115733E+03  0.27546664012E+03  0.91015213141E+02 0.  0.
        -13    1    3    3    0    0 -0.39589903330E+02  0.62284115836E+01 -0.66983927000E+02  0.78057671198E+02  0.00000000000E+00 0.  1.
         14    1    3    3    0    0  0.33311741484E+02 -0.35901958551E+02 -0.19123723033E+03  0.19740896893E+03  0.00000000000E+00 0. -1.
          1    1    1    2  501    0  0.62781618456E+01  0.29673546967E+02  0.19149101911E+02  0.35869524805E+02  0.00000000000E+00 0. -1.
<mgrwt>
<rscale>  1 0.95935936E+02</rscale>
<asrwt>0</asrwt>
<pdfrwt beam="1">  1       21 0.55587777E-02 0.95935936E+02</pdfrwt>
<pdfrwt beam="2">  1        2 0.42339093E-01 0.95935936E+02</pdfrwt>
<totfact> 0.32072431E+05</totfact>
</mgrwt>
</event>
<event>
 6    2  0.8544106E+000  0.9913116E+02  0.7546771E-02  0.1282134E+00
         21   -1    0    0  501  502  0.00000000000E+00  0.00000000000E+00  0.40461742740E+02  0.40461742740E+02  0.00000000000E+00 0. -1.
         -3   -1    0    0    0  501 -0.00000000000E+00 -0.00000000000E+00 -0.16067091760E+03  0.16067091760E+03  0.00000000000E+00 0.  1.
         24    2    1    2    0    0  0.34863152868E+02 -0.48241497748E+02 -0.57173908467E+02  0.11443706448E+03  0.79273604586E+02 0.  0.
        -11    1    3    3    0    0  0.21344972328E+02  0.32605004646E+01 -0.57254089284E+02  0.61190435909E+02  0.00000000000E+00 0.  1.
         12    1    3    3    0    0  0.13518180540E+02 -0.51501998213E+02  0.80180817034E-01  0.53246628569E+02  0.00000000000E+00 0. -1.
         -4    1    1    2    0  502 -0.34863152868E+02  0.48241497748E+02 -0.63035266396E+02  0.86695595866E+02  0.00000000000E+00 0.  1.
<mgrwt>
<rscale>  1 0.99131155E+02</rscale>
<asrwt>0</asrwt>
<pdfrwt beam="1">  1       21 0.62248834E-02 0.99131155E+02</pdfrwt>
<pdfrwt beam="2">  1       -3 0.24718603E-01 0.99131155E+02</pdfrwt>
<totfact> 0.12941747E+05</totfact>
</mgrwt>
</event>
<event>
 6    2  0.8544106E+000  0.8466137E+02  0.7546771E-02  0.1316320E+00
         21   -1    0    0  501  502  0.00000000000E+00  0.00000000000E+00  0.41036799128E+01  0.41036799128E+01  0.00000000000E+00 0. -1.
          2   -1    0    0  502    0 -0.00000000000E+00 -0.00000000000E+00 -0.80709746904E+03  0.80709746904E+03  0.00000000000E+00 0. -1.
         24    2    1    2    0    0  0.26500762545E+02  0.45483298154E+01 -0.68327539683E+03  0.68850041067E+03  0.80278078372E+02 0.  0.
        -11    1    3    3    0    0 -0.19839385948E+02 -0.12330637288E+02 -0.83650654749E+02  0.86850894588E+02  0.00000000000E+00 0.  1.
         12    1    3    3    0    0  0.46340148493E+02  0.16878967103E+02 -0.59962474208E+03  0.60164951609E+03  0.00000000000E+00 0. -1.
          1    1    1    2  501    0 -0.26500762545E+02 -0.45483298154E+01 -0.11971839229E+03  0.12270073827E+03  0.00000000000E+00 0. -1.
<mgrwt>
<rscale>  1 0.84661370E+02</rscale>
<asrwt>0</asrwt>
<pdfrwt beam="1">  1       21 0.63133535E-03 0.84661370E+02</pdfrwt>
<pdfrwt beam="2">  1        2 0.12416885E+00 0.84661370E+02</pdfrwt>
<totfact> 0.31770057E+06</totfact>
</mgrwt>
</event>
<event>
 6    2  0.8544106E+000  0.9108339E+02  0.7546771E-02  0.1300249E+00
          2   -1    0    0  502    0 -0.00000000000E+00  0.00000000000E+00  0.30085392732E+03  0.30085392732E+03  0.00000000000E+00 0. -1.
         21   -1    0    0  501  502  0.00000000000E+00 -0.00000000000E+00 -0.19977807126E+02  0.19977807126E+02  0.00000000000E+00 0. -1.
         24    2    1    2    0    0  0.38502182835E+02  0.13113906646E+02  0.25920939258E+03  0.27474659893E+03  0.81497188836E+02 0.  0.
        -11    1    3    3    0    0 -0.17860416449E+02  0.96067142386E+00  0.13625161518E+02  0.22484714624E+02  0.00000000000E+00 0.  1.
         12    1    3    3    0    0  0.56362599285E+02  0.12153235222E+02  0.24558423106E+03  0.25226188430E+03  0.00000000000E+00 0. -1.
          1    1    1    2  501    0 -0.38502182835E+02 -0.13113906646E+02  0.21666727613E+02  0.46085135522E+02  0.00000000000E+00 0. -1.
<mgrwt>
<rscale>  1 0.91083393E+02</rscale>
<asrwt>0</asrwt>
<pdfrwt beam="1">  1       21 0.30735090E-02 0.91083393E+02</pdfrwt>
<pdfrwt beam="2">  1        2 0.46285216E-01 0.91083393E+02</pdfrwt>
<totfact> 0.77384906E+05</totfact>
</mgrwt>
</event>
<event>
 6    2  0.8544106E+000  0.8766266E+02  0.7546771E-02  0.1308613E+00
         21   -1    0    0  501  502  0.00000000000E+00  0.00000000000E+00  0.41930208071E+01  0.41930208071E+01  0.00000000000E+00 0. -1.
         -1   -1    0    0    0  501 -0.00000000000E+00 -0.00000000000E+00 -0.83413839918E+03  0.83413839918E+03  0.00000000000E+00 0.  1.
         24    2    1    2    0    0 -0.16992266724E+02  0.25450106710E+02 -0.62123198766E+03  0.62738658235E+03  0.82148013788E+02 0.  0.
        -11    1    3    3    0    0  0.28277497433E+02 -0.85144009843E+01 -0.27202450393E+03  0.27362281086E+03  0.00000000000E+00 0.  1.
         12    1    3    3    0    0 -0.45269764157E+02  0.33964507695E+02 -0.34920748373E+03  0.35376377150E+03  0.00000000000E+00 0. -1.
         -2    1    1    2    0  502  0.16992266724E+02 -0.25450106710E+02 -0.20871339072E+03  0.21094483764E+03  0.00000000000E+00 0.  1.
<mgrwt>
<rscale>  1 0.87662656E+02</rscale>
<asrwt>0</asrwt>
<pdfrwt beam="1">  1       21 0.64508026E-03 0.87662656E+02</pdfrwt>
<pdfrwt beam="2">  1       -1 0.12832896E+00 0.87662656E+02</pdfrwt>
<totfact> 0.37400488E+05</totfact>
</mgrwt>
</event>
<event>
 6    2  0.8544106E+000  0.8607128E+02  0.7546771E-02  0.1312655E+00
         -1   -1    0    0    0  501 -0.00000000000E+00  0.00000000000E+00  0.27837125959E+03  0.27837125959E+03  0.00000000000E+00 0.  1.
         21   -1    0    0  501  502  0.00000000000E+00 -0.00000000000E+00 -0.20601419793E+02  0.20601419793E+02  0.00000000000E+00 0.  1.
         24    2    1    2    0    0  0.31283664507E+02 -0.26760563982E+01  0.25296788424E+03  0.26720968645E+03  0.80140109395E+02 0.  0.
        -11    1    3    3    0    0 -0.26106143498E+02 -0.11451327775E+01  0.11182551246E+03  0.11483809165E+03  0.00000000000E+00 0.  1.
         12    1    3    3    0    0  0.57389808005E+02 -0.15309236207E+01  0.14114237178E+03  0.15237159480E+03  0.00000000000E+00 0. -1.
         -2    1    1    2    0  502 -0.31283664507E+02  0.26760563982E+01  0.48019555577E+01  0.31762992932E+02  0.00000000000E+00 0.  1.
<mgrwt>
<rscale>  1 0.86071285E+02</rscale>
<asrwt>0</asrwt>
<pdfrwt beam="1">  1       21 0.31694494E-02 0.86071285E+02</pdfrwt>
<pdfrwt beam="2">  1       -1 0.42826345E-01 0.86071285E+02</pdfrwt>
<totfact> 0.27357949E+05</totfact>
</mgrwt>
</event>
<event>
 6    2  0.8544106E+000  0.1199363E+03  0.7546771E-02  0.1243202E+00
          4   -1    0    0  502    0 -0.00000000000E+00  0.00000000000E+00  0.42604700538E+02  0.42604700538E+02  0.00000000000E+00 0. -1.
         21   -1    0    0  501  502  0.00000000000E+00 -0.00000000000E+00 -0.30820199945E+03  0.30820199945E+03  0.00000000000E+00 0. -1.
         24    2    1    2    0    0 -0.75596192705E+02  0.45947788411E+02 -0.77093073922E+02  0.14257647536E+03  0.80985959689E+02 0.  0.
        -11    1    3    3    0    0  0.16944033604E+02  0.13910019859E+02 -0.12062322074E+02  0.25021761350E+02  0.00000000000E+00 0.  1.
         12    1    3    3    0    0 -0.92540226308E+02  0.32037768552E+02 -0.65030751849E+02  0.11755471401E+03  0.00000000000E+00 0. -1.
          3    1    1    2  501    0  0.75596192705E+02 -0.45947788411E+02 -0.18850422499E+03  0.20823022464E+03  0.00000000000E+00 0. -1.
<mgrwt>
<rscale>  1 0.11993627E+03</rscale>
<asrwt>0</asrwt>
<pdfrwt beam="1">  1       21 0.47415693E-01 0.11993627E+03</pdfrwt>
<pdfrwt beam="2">  1        4 0.65545692E-02 0.11993627E+03</pdfrwt>
<totfact> 0.26401440E+04</totfact>
</mgrwt>
</event>
<event>
 6    2  0.8544106E+000  0.1143475E+03  0.7546771E-02  0.1252724E+00
         21   -1    0    0  501  502  0.00000000000E+00  0.00000000000E+00  0.91128545258E+01  0.91128545258E+01  0.00000000000E+00 0. -1.
          2   -1    0    0  502    0 -0.00000000000E+00 -0.00000000000E+00 -0.95388338005E+03  0.95388338005E+03  0.00000000000E+00 0. -1.
         24    2    1    2    0    0  0.26268464694E+02 -0.63186120671E+02 -0.67881145659E+03  0.68837514211E+03  0.91612360433E+02 0.  0.
        -13    1    3    3    0    0  0.49264549821E+02 -0.53285915419E+02 -0.29676364564E+03  0.30550784937E+03  0.00000000000E+00 0.  1.
         14    1    3    3    0    0 -0.22996085128E+02 -0.99002052520E+01 -0.38204781095E+03  0.38286729274E+03  0.00000000000E+00 0. -1.
          1    1    1    2  501    0 -0.26268464694E+02  0.63186120671E+02 -0.26595906893E+03  0.27462109247E+03  0.00000000000E+00 0. -1.
<mgrwt>
<rscale>  1 0.11434746E+03</rscale>
<asrwt>0</asrwt>
<pdfrwt beam="1">  1       21 0.14019774E-02 0.11434746E+03</pdfrwt>
<pdfrwt beam="2">  1        2 0.14675132E+00 0.11434746E+03</pdfrwt>
<totfact> 0.75770543E+05</totfact>
</mgrwt>
</event>
<event>
 6    2  0.8544106E+000  0.8420225E+02  0.7546771E-02  0.1317532E+00
         -1   -1    0    0    0  501 -0.00000000000E+00  0.00000000000E+00  0.13943428769E+02  0.13943428769E+02  0.00000000000E+00 0.  1.
         21   -1    0    0  501  502  0.00000000000E+00 -0.00000000000E+00 -0.28643477336E+03  0.28643477336E+03  0.00000000000E+00 0.  1.
         24    2    1    2    0    0  0.19496423783E+01  0.27241851258E+02 -0.12721646633E+03  0.15255834616E+03  0.79649859460E+02 0.  0.
        -11    1    3    3    0    0  0.21582761051E+00  0.39610033550E+02 -0.19554522113E+02  0.44174434625E+02  0.00000000000E+00 0.  1.
         12    1    3    3    0    0  0.17338147678E+01 -0.12368182292E+02 -0.10766194422E+03  0.10838391154E+03  0.00000000000E+00 0. -1.
         -2    1    1    2    0  502 -0.19496423783E+01 -0.27241851258E+02 -0.14527487825E+03  0.14781985596E+03  0.00000000000E+00 0.  1.
<mgrwt>
<rscale>  1 0.84202255E+02</rscale>
<asrwt>0</asrwt>
<pdfrwt beam="1">  1       21 0.44066887E-01 0.84202255E+02</pdfrwt>
<pdfrwt beam="2">  1       -1 0.21451429E-02 0.84202255E+02</pdfrwt>
<totfact> 0.25167225E+05</totfact>
</mgrwt>
</event>
<event>
 6    2  0.8544106E+000  0.1111668E+03  0.7546771E-02  0.1258424E+00
         21   -1    0    0  501  502  0.00000000000E+00  0.00000000000E+00  0.29798568338E+01  0.29798568338E+01  0.00000000000E+00 0.  1.
          2   -1    0    0  502    0 -0.00000000000E+00 -0.00000000000E+00 -0.30153474141E+04  0.30153474141E+04  0.00000000000E+00 0. -1.
         24    2    1    2    0    0  0.22450140466E+01  0.76554514192E+02 -0.19837911644E+04  0.19869034833E+04  0.80575643186E+02 0.  0.
        -11    1    3    3    0    0  0.25475586314E+01  0.69961602308E+02 -0.79047101790E+03  0.79356508617E+03  0.00000000000E+00 0.  1.
         12    1    3    3    0    0 -0.30254458479E+00  0.65929118839E+01 -0.11933201465E+04  0.11933383971E+04  0.00000000000E+00 0. -1.
          1    1    1    2  501    0 -0.22450140466E+01 -0.76554514192E+02 -0.10285763929E+04  0.10314237877E+04  0.00000000000E+00 0. -1.
<mgrwt>
<rscale>  1 0.11116685E+03</rscale>
<asrwt>0</asrwt>
<pdfrwt beam="1">  1       21 0.45843865E-03 0.11116685E+03</pdfrwt>
<pdfrwt beam="2">  1        2 0.46390047E+00 0.11116685E+03</pdfrwt>
<totfact> 0.34675068E+05</totfact>
</mgrwt>
</event>
<event>
 6    2  0.8544106E+000  0.8414184E+02  0.7546771E-02  0.1317692E+00
         21   -1    0    0  501  502  0.00000000000E+00  0.00000000000E+00  0.82426335529E+00  0.82426335529E+00  0.00000000000E+00 0.  1.
          2   -1    0    0  502    0 -0.00000000000E+00 -0.00000000000E+00 -0.35405228520E+04  0.35405228520E+04  0.00000000000E+00 0. -1.
         24    2    1    2    0    0 -0.70932200358E+01  0.22644599220E+02 -0.26751784235E+04  0.26765013444E+04  0.80726434490E+02 0.  0.
        -11    1    3    3    0    0  0.25029436178E+02  0.26654608507E+01 -0.30993678687E+03  0.31095721444E+03  0.00000000000E+00 0.  1.
         12    1    3    3    0    0 -0.32122656213E+02  0.19979138369E+02 -0.23652416366E+04  0.23655441299E+04  0.00000000000E+00 0. -1.
          1    1    1    2  501    0  0.70932200358E+01 -0.22644599220E+02 -0.86452016511E+03  0.86484577095E+03  0.00000000000E+00 0. -1.
<mgrwt>
<rscale>  1 0.84141838E+02</rscale>
<asrwt>0</asrwt>
<pdfrwt beam="1">  1       21 0.12680822E-03 0.84141838E+02</pdfrwt>
<pdfrwt beam="2">  1        2 0.54470237E+00 0.84141838E+02</pdfrwt>
<totfact> 0.11545754E+06</totfact>
</mgrwt>
</event>
<event>
 6    2  0.8544106E+000  0.1064327E+03  0.7546771E-02  0.1267322E+00
          2   -1    0    0  502    0 -0.00000000000E+00  0.00000000000E+00  0.15291162537E+04  0.15291162537E+04  0.00000000000E+00 0. -1.
         21   -1    0    0  501  502  0.00000000000E+00 -0.00000000000E+00 -0.11241605159E+02  0.11241605159E+02  0.00000000000E+00 0.  1.
         24    2    1    2    0    0  0.33907575432E+02 -0.48317985028E+02  0.25786709091E+03  0.27896838822E+03  0.88563952619E+02 0.  0.
        -11    1    3    3    0    0  0.22800020146E+02 -0.71477505252E+02  0.14551578673E+03  0.16371841333E+03  0.00000000000E+00 0.  1.
         12    1    3    3    0    0  0.11107555286E+02  0.23159520224E+02  0.11235130418E+03  0.11524997489E+03  0.00000000000E+00 0. -1.
          1    1    1    2  501    0 -0.33907575432E+02  0.48317985028E+02  0.12600075576E+04  0.12613894706E+04  0.00000000000E+00 0. -1.
<mgrwt>
<rscale>  1 0.10643273E+03</rscale>
<asrwt>0</asrwt>
<pdfrwt beam="1">  1       21 0.17294789E-02 0.10643273E+03</pdfrwt>
<pdfrwt beam="2">  1        2 0.23524849E+00 0.10643273E+03</pdfrwt>
<totfact> 0.26172092E+05</totfact>
</mgrwt>
</event>
<event>
 6    2  0.8544106E+000  0.8406811E+02  0.7546771E-02  0.1317888E+00
          4   -1    0    0  502    0 -0.00000000000E+00  0.00000000000E+00  0.20357763070E+02  0.20357763070E+02  0.00000000000E+00 0. -1.
         21   -1    0    0  501  502  0.00000000000E+00 -0.00000000000E+00 -0.36576008615E+03  0.36576008615E+03  0.00000000000E+00 0. -1.
         24    2    1    2    0    0  0.47419382738E+01  0.24630743660E+02 -0.69496873806E+02  0.10907457381E+03  0.80238941111E+02 0.  0.
        -11    1    3    3    0    0  0.18184950814E+02  0.24207983228E+02 -0.84002900472E+02  0.89292811445E+02  0.00000000000E+00 0.  1.
         12    1    3    3    0    0 -0.13443012540E+02  0.42276043228E+00  0.14506026666E+02  0.19781762363E+02  0.00000000000E+00 0. -1.
          3    1    1    2  501    0 -0.47419382738E+01 -0.24630743660E+02 -0.27590544927E+03  0.27704327541E+03  0.00000000000E+00 0. -1.
<mgrwt>
<rscale>  1 0.84068110E+02</rscale>
<asrwt>0</asrwt>
<pdfrwt beam="1">  1       21 0.56270781E-01 0.84068110E+02</pdfrwt>
<pdfrwt beam="2">  1        4 0.31319637E-02 0.84068110E+02</pdfrwt>
<totfact> 0.57550381E+04</totfact>
</mgrwt>
</event>
<event>
 6    2  0.8544106E+000  0.8677909E+02  0.7546771E-02  0.1310845E+00
          2   -1    0    0  502    0 -0.00000000000E+00  0.00000000000E+00  0.51846130969E+03  0.51846130969E+03  0.00000000000E+00 0. -1.
         21   -1    0    0  501  502  0.00000000000E+00 -0.00000000000E+00 -0.86276419753E+01  0.86276419753E+01  0.00000000000E+00 0.  1.
         24    2    1    2    0    0 -0.31063741635E+02  0.16591852586E+01  0.46165347152E+03  0.46973879695E+03  0.81011731602E+02 0.  0.
        -13    1    3    3    0    0  0.14600399856E+02  0.27257186271E+02  0.11207347177E+03  0.11626086596E+03  0.00000000000E+00 0.  1.
         14    1    3    3    0    0 -0.45664141491E+02 -0.25598001013E+02  0.34957999975E+03  0.35347793099E+03  0.00000000000E+00 0. -1.
          1    1    1    2  501    0  0.31063741635E+02 -0.16591852586E+01  0.48180196198E+02  0.57350154715E+02  0.00000000000E+00 0. -1.
<mgrwt>
<rscale>  1 0.86779085E+02</rscale>
<asrwt>0</asrwt>
<pdfrwt beam="1">  1       21 0.13273299E-02 0.86779085E+02</pdfrwt>
<pdfrwt beam="2">  1        2 0.79763254E-01 0.86779085E+02</pdfrwt>
<totfact> 0.16610144E+06</totfact>
</mgrwt>
</event>
<event>
 6    2  0.8544106E+000  0.8335043E+02  0.7546771E-02  0.1319804E+00
          2   -1    0    0  502    0 -0.00000000000E+00  0.00000000000E+00  0.44991789692E+03  0.44991789692E+03  0.00000000000E+00 0. -1.
         21   -1    0    0  501  502  0.00000000000E+00 -0.00000000000E+00 -0.10010366889E+02  0.10010366889E+02  0.00000000000E+00 0.  1.
         24    2    1    2    0    0 -0.26413994879E+02 -0.76433989532E+01  0.41345404592E+03  0.42177190792E+03  0.78684010769E+02 0.  0.
        -13    1    3    3    0    0 -0.55547554916E+01  0.30346961548E+02  0.84131452302E+02  0.89609679445E+02  0.00000000000E+00 0.  1.
         14    1    3    3    0    0 -0.20859239388E+02 -0.37990360502E+02  0.32932259361E+03  0.33216222847E+03  0.00000000000E+00 0. -1.
          1    1    1    2  501    0  0.26413994879E+02  0.76433989532E+01  0.26453484112E+02  0.38156355888E+02  0.00000000000E+00 0. -1.
<mgrwt>
<rscale>  1 0.83350430E+02</rscale>
<asrwt>0</asrwt>
<pdfrwt beam="1">  1       21 0.15400568E-02 0.83350430E+02</pdfrwt>
<pdfrwt beam="2">  1        2 0.69218122E-01 0.83350430E+02</pdfrwt>
<totfact> 0.15225331E+06</totfact>
</mgrwt>
</event>
<event>
 6    2  0.8544106E+000  0.1032254E+03  0.7546771E-02  0.1273656E+00
          2   -1    0    0  502    0 -0.00000000000E+00  0.00000000000E+00  0.19382450203E+03  0.19382450203E+03  0.00000000000E+00 0. -1.
         21   -1    0    0  501  502  0.00000000000E+00 -0.00000000000E+00 -0.49957962821E+02  0.49957962821E+02  0.00000000000E+00 0. -1.
         24    2    1    2    0    0 -0.17620716251E+02 -0.73026698718E+02  0.13225123777E+03  0.16776731114E+03  0.70796132864E+02 0.  0.
        -13    1    3    3    0    0  0.22433099027E+02 -0.39497613049E+01  0.22266275354E+02  0.31853281847E+02  0.00000000000E+00 0.  1.
         14    1    3    3    0    0 -0.40053815278E+02 -0.69076937413E+02  0.10998496241E+03  0.13591402929E+03  0.00000000000E+00 0. -1.
          1    1    1    2  501    0  0.17620716251E+02  0.73026698718E+02  0.11615301445E+02  0.76015153717E+02  0.00000000000E+00 0. -1.
<mgrwt>
<rscale>  1 0.10322539E+03</rscale>
<asrwt>0</asrwt>
<pdfrwt beam="1">  1       21 0.76858406E-02 0.10322539E+03</pdfrwt>
<pdfrwt beam="2">  1        2 0.29819154E-01 0.10322539E+03</pdfrwt>
<totfact> 0.27008652E+05</totfact>
</mgrwt>
</event>
<event>
 6    2  0.8544106E+000  0.8239059E+02  0.7546771E-02  0.1322401E+00
         21   -1    0    0  501  502  0.00000000000E+00  0.00000000000E+00  0.15528831767E+03  0.15528831767E+03  0.00000000000E+00 0. -1.
         -3   -1    0    0    0  501 -0.00000000000E+00 -0.00000000000E+00 -0.21311670127E+02  0.21311670127E+02  0.00000000000E+00 0.  1.
         24    2    1    2    0    0  0.26271837842E+02  0.75475341547E+01  0.74231508926E+02  0.11089872203E+03  0.77724094683E+02 0.  0.
        -11    1    3    3    0    0  0.27448339379E+02 -0.27232308003E+02  0.13594839521E+02  0.40985724288E+02  0.00000000000E+00 0.  1.
         12    1    3    3    0    0 -0.11765015368E+01  0.34779842157E+02  0.60636669404E+02  0.69912997738E+02  0.00000000000E+00 0. -1.
         -4    1    1    2    0  502 -0.26271837842E+02 -0.75475341547E+01  0.59745138619E+02  0.65701265771E+02  0.00000000000E+00 0.  1.
<mgrwt>
<rscale>  1 0.82390592E+02</rscale>
<asrwt>0</asrwt>
<pdfrwt beam="1">  1       21 0.23890510E-01 0.82390592E+02</pdfrwt>
<pdfrwt beam="2">  1       -3 0.32787186E-02 0.82390592E+02</pdfrwt>
<totfact> 0.32098612E+05</totfact>
</mgrwt>
</event>
<event>
 6    2  0.8544106E+000  0.8373611E+02  0.7546771E-02  0.1318771E+00
         21   -1    0    0  501  502  0.00000000000E+00  0.00000000000E+00  0.17159245454E+03  0.17159245454E+03  0.00000000000E+00 0. -1.
          4   -1    0    0  502    0 -0.00000000000E+00 -0.00000000000E+00 -0.12147611964E+03  0.12147611964E+03  0.00000000000E+00 0. -1.
         24    2    1    2    0    0  0.13529347442E+02  0.23696131518E+02 -0.10571819572E+03  0.13486316712E+03  0.79165567300E+02 0.  0.
        -13    1    3    3    0    0 -0.76428157407E+01 -0.25562726256E+02 -0.54664402728E+02  0.60828139309E+02  0.00000000000E+00 0.  1.
         14    1    3    3    0    0  0.21172163183E+02  0.49258857774E+02 -0.51053792997E+02  0.74035027807E+02  0.00000000000E+00 0. -1.
          3    1    1    2  501    0 -0.13529347442E+02 -0.23696131518E+02  0.15583453062E+03  0.15820540707E+03  0.00000000000E+00 0. -1.
<mgrwt>
<rscale>  1 0.83736115E+02</rscale>
<asrwt>0</asrwt>
<pdfrwt beam="1">  1       21 0.26398839E-01 0.83736115E+02</pdfrwt>
<pdfrwt beam="2">  1        4 0.18688634E-01 0.83736115E+02</pdfrwt>
<totfact> 0.13576375E+04</totfact>
</mgrwt>
</event>
<event>
 6    2  0.8544106E+000  0.1070195E+03  0.7546771E-02  0.1266191E+00
         21   -1    0    0  501  502  0.00000000000E+00  0.00000000000E+00  0.10319686539E+03  0.10319686539E+03  0.00000000000E+00 0. -1.
          4   -1    0    0  502    0 -0.00000000000E+00 -0.00000000000E+00 -0.91457379100E+02  0.91457379100E+02  0.00000000000E+00 0. -1.
         24    2    1    2    0    0 -0.71025901549E+02 -0.10171089094E+02 -0.30644291669E+02  0.11132049155E+03  0.79404341717E+02 0.  0.
        -13    1    3    3    0    0 -0.36351859727E+00  0.23791522855E+02 -0.22067717507E+02  0.32452316735E+02  0.00000000000E+00 0.  1.
         14    1    3    3    0    0 -0.70662382952E+02 -0.33962611949E+02 -0.85765741619E+01  0.78868174818E+02  0.00000000000E+00 0. -1.
          3    1    1    2  501    0  0.71025901549E+02  0.10171089094E+02  0.42383777955E+02  0.83333752933E+02  0.00000000000E+00 0. -1.
<mgrwt>
<rscale>  1 0.10701953E+03</rscale>
<asrwt>0</asrwt>
<pdfrwt beam="1">  1       21 0.15876441E-01 0.10701953E+03</pdfrwt>
<pdfrwt beam="2">  1        4 0.14070366E-01 0.10701953E+03</pdfrwt>
<totfact> 0.58518593E+04</totfact>
</mgrwt>
</event>
<event>
 6    2  0.8544106E+000  0.1093661E+03  0.7546771E-02  0.1261748E+00
          2   -1    0    0  502    0 -0.00000000000E+00  0.00000000000E+00  0.20731826305E+03  0.20731826305E+03  0.00000000000E+00 0. -1.
         21   -1    0    0  501  502  0.00000000000E+00 -0.00000000000E+00 -0.41621405334E+03  0.41621405334E+03  0.00000000000E+00 0. -1.
         24    2    1    2    0    0 -0.72741942867E+02  0.43577093797E+01  0.18935500261E+03  0.21866928533E+03  0.81550962289E+02 0.  0.
        -11    1    3    3    0    0 -0.85370916563E+00 -0.21650467039E+02  0.10328046217E+02  0.24002918177E+02  0.00000000000E+00 0.  1.
         12    1    3    3    0    0 -0.71888233702E+02  0.26008176419E+02  0.17902695639E+03  0.19466636715E+03  0.00000000000E+00 0. -1.
          1    1    1    2  501    0  0.72741942867E+02 -0.43577093797E+01 -0.39825079290E+03  0.40486303107E+03  0.00000000000E+00 0. -1.
<mgrwt>
<rscale>  1 0.10936608E+03</rscale>
<asrwt>0</asrwt>
<pdfrwt beam="1">  1       21 0.64032932E-01 0.10936608E+03</pdfrwt>
<pdfrwt beam="2">  1        2 0.31895117E-01 0.10936608E+03</pdfrwt>
<totfact> 0.46831598E+03</totfact>
</mgrwt>
</event>
<event>
 6    2  0.8544106E+000  0.8391541E+02  0.7546771E-02  0.1318293E+00
          2   -1    0    0  502    0 -0.00000000000E+00  0.00000000000E+00  0.28427321989E+03  0.28427321989E+03  0.00000000000E+00 0. -1.
         21   -1    0    0  501  502  0.00000000000E+00 -0.00000000000E+00 -0.17200340870E+02  0.17200340870E+02  0.00000000000E+00 0.  1.
         24    2    1    2    0    0 -0.23164664955E+02 -0.13089997628E+02  0.26103239737E+03  0.27418918503E+03  0.79585469599E+02 0.  0.
        -11    1    3    3    0    0 -0.13667694536E+02 -0.37129579357E+02  0.62427842089E+02  0.73909721993E+02  0.00000000000E+00 0.  1.
         12    1    3    3    0    0 -0.94969704188E+01  0.24039581729E+02  0.19860455528E+03  0.20027946304E+03  0.00000000000E+00 0. -1.
          1    1    1    2  501    0  0.23164664955E+02  0.13089997628E+02  0.60404816524E+01  0.27284375730E+02  0.00000000000E+00 0. -1.
<mgrwt>
<rscale>  1 0.83915414E+02</rscale>
<asrwt>0</asrwt>
<pdfrwt beam="1">  1       21 0.26462065E-02 0.83915414E+02</pdfrwt>
<pdfrwt beam="2">  1        2 0.43734338E-01 0.83915414E+02</pdfrwt>
<totfact> 0.10376125E+06</totfact>
</mgrwt>
</event>
<event>
 6    2  0.8544106E+000  0.8260642E+02  0.7546771E-02  0.1321813E+00
         21   -1    0    0  501  502  0.00000000000E+00  0.00000000000E+00  0.68486007115E+02  0.68486007115E+02  0.00000000000E+00 0.  1.
         -1   -1    0    0    0  501 -0.00000000000E+00 -0.00000000000E+00 -0.96551920084E+02  0.96551920084E+02  0.00000000000E+00 0.  1.
         24    2    1    2    0    0  0.34853294510E+01 -0.28259417145E+02 -0.74059327297E+02  0.11094415362E+03  0.77544046088E+02 0.  0.
        -11    1    3    3    0    0  0.32245366636E+02 -0.38468510081E+02 -0.57114650954E+02  0.76037315122E+02  0.00000000000E+00 0.  1.
         12    1    3    3    0    0 -0.28760037185E+02  0.10209092936E+02 -0.16944676343E+02  0.34906838497E+02  0.00000000000E+00 0. -1.
         -2    1    1    2    0  502 -0.34853294510E+01  0.28259417145E+02  0.45993414327E+02  0.54093773581E+02  0.00000000000E+00 0.  1.
<mgrwt>
<rscale>  1 0.82606424E+02</rscale>
<asrwt>0</asrwt>
<pdfrwt beam="1">  1       21 0.10536309E-01 0.82606424E+02</pdfrwt>
<pdfrwt beam="2">  1       -1 0.14854142E-01 0.82606424E+02</pdfrwt>
<totfact> 0.20485224E+05</totfact>
</mgrwt>
</event>
<event>
 6    2  0.8544106E+000  0.1004781E+03  0.7546771E-02  0.1279294E+00
         21   -1    0    0  501  502  0.00000000000E+00  0.00000000000E+00  0.23836176437E+03  0.23836176437E+03  0.00000000000E+00 0. -1.
          2   -1    0    0  502    0 -0.00000000000E+00 -0.00000000000E+00 -0.34024601907E+02  0.34024601907E+02  0.00000000000E+00 0. -1.
         24    2    1    2    0    0  0.30028112837E+02 -0.51862994783E+02  0.62302125667E+02  0.11822602940E+03  0.80649745052E+02 0.  0.
        -13    1    3    3    0    0  0.29435890267E+02 -0.11689326893E+02  0.70439400677E+02  0.77232254704E+02  0.00000000000E+00 0.  1.
         14    1    3    3    0    0  0.59222256939E+00 -0.40173667889E+02 -0.81372750101E+01  0.40993774696E+02  0.00000000000E+00 0. -1.
          1    1    1    2  501    0 -0.30028112837E+02  0.51862994783E+02  0.14203503680E+03  0.15416033688E+03  0.00000000000E+00 0. -1.
<mgrwt>
<rscale>  1 0.10047805E+03</rscale>
<asrwt>0</asrwt>
<pdfrwt beam="1">  1       21 0.36671040E-01 0.10047805E+03</pdfrwt>
<pdfrwt beam="2">  1        2 0.52345543E-02 0.10047805E+03</pdfrwt>
<totfact> 0.12366980E+05</totfact>
</mgrwt>
</event>
<event>
 6    2  0.8544106E+000  0.1365353E+03  0.7546771E-02  0.1218068E+00
          4   -1    0    0  502    0 -0.00000000000E+00  0.00000000000E+00  0.78688135837E+02  0.78688135837E+02  0.00000000000E+00 0. -1.
         21   -1    0    0  501  502  0.00000000000E+00 -0.00000000000E+00 -0.27634931418E+03  0.27634931418E+03  0.00000000000E+00 0. -1.
         24    2    1    2    0    0  0.11038819309E+03 -0.12083469744E+01 -0.20285089535E+03  0.24452072532E+03  0.80342305715E+02 0.  0.
        -13    1    3    3    0    0  0.41726380019E+02  0.31249055584E+02 -0.12654209176E+03  0.13685939958E+03  0.00000000000E+00 0.  1.
         14    1    3    3    0    0  0.68661813068E+02 -0.32457402558E+02 -0.76308803589E+02  0.10766132574E+03  0.00000000000E+00 0. -1.
          3    1    1    2  501    0 -0.11038819309E+03  0.12083469744E+01  0.51897170127E+01  0.11051672470E+03  0.00000000000E+00 0. -1.
<mgrwt>
<rscale>  1 0.13653534E+03</rscale>
<asrwt>0</asrwt>
<pdfrwt beam="1">  1       21 0.42515280E-01 0.13653534E+03</pdfrwt>
<pdfrwt beam="2">  1        4 0.12105867E-01 0.13653534E+03</pdfrwt>
<totfact> 0.11973676E+04</totfact>
</mgrwt>
</event>
<event>
 6    2  0.8544106E+000  0.8386691E+02  0.7546771E-02  0.1318423E+00
          2   -1    0    0  502    0 -0.00000000000E+00  0.00000000000E+00  0.23565568517E+04  0.23565568517E+04  0.00000000000E+00 0. -1.
         21   -1    0    0  501  502  0.00000000000E+00 -0.00000000000E+00 -0.91612244912E+01  0.91612244912E+01  0.00000000000E+00 0. -1.
         24    2    1    2    0    0  0.16101204122E+02 -0.16291691779E+02  0.23402092857E+04  0.23417115875E+04  0.80678311793E+02 0.  0.
        -13    1    3    3    0    0 -0.21409656367E+02 -0.33952451587E+02  0.88178269923E+03  0.88269579755E+03  0.00000000000E+00 0.  1.
         14    1    3    3    0    0  0.37510860489E+02  0.17660759808E+02  0.14584265865E+04  0.14590157900E+04  0.00000000000E+00 0. -1.
          1    1    1    2  501    0 -0.16101204122E+02  0.16291691779E+02  0.71863414640E+01  0.24006488682E+02  0.00000000000E+00 0. -1.
<mgrwt>
<rscale>  1 0.83866906E+02</rscale>
<asrwt>0</asrwt>
<pdfrwt beam="1">  1       21 0.14094210E-02 0.83866906E+02</pdfrwt>
<pdfrwt beam="2">  1        2 0.36254673E+00 0.83866906E+02</pdfrwt>
<totfact> 0.13775396E+05</totfact>
</mgrwt>
</event>
<event>
 6    2  0.8544106E+000  0.8553963E+02  0.7546771E-02  0.1314027E+00
          2   -1    0    0  502    0 -0.00000000000E+00  0.00000000000E+00  0.15812337782E+03  0.15812337782E+03  0.00000000000E+00 0. -1.
         21   -1    0    0  501  502  0.00000000000E+00 -0.00000000000E+00 -0.22702693218E+02  0.22702693218E+02  0.00000000000E+00 0.  1.
         24    2    1    2    0    0 -0.12971207220E+02 -0.31493748312E+02  0.10180260725E+03  0.13296916428E+03  0.78466039834E+02 0.  0.
        -13    1    3    3    0    0 -0.36958215311E+02 -0.29312750913E+00  0.19608389884E+02  0.41838792484E+02  0.00000000000E+00 0.  1.
         14    1    3    3    0    0  0.23987008090E+02 -0.31200620803E+02  0.82194217361E+02  0.91130371794E+02  0.00000000000E+00 0. -1.
          1    1    1    2  501    0  0.12971207220E+02  0.31493748312E+02  0.33618077356E+02  0.47856906759E+02  0.00000000000E+00 0. -1.
<mgrwt>
<rscale>  1 0.85539627E+02</rscale>
<asrwt>0</asrwt>
<pdfrwt beam="1">  1       21 0.34927221E-02 0.85539627E+02</pdfrwt>
<pdfrwt beam="2">  1        2 0.24326673E-01 0.85539627E+02</pdfrwt>
<totfact> 0.12351580E+06</totfact>
</mgrwt>
</event>
<event>
 6    2  0.8544106E+000  0.9856297E+02  0.7546771E-02  0.1283347E+00
          2   -1    0    0  502    0 -0.00000000000E+00  0.00000000000E+00  0.15015828545E+03  0.15015828545E+03  0.00000000000E+00 0. -1.
         21   -1    0    0  501  502  0.00000000000E+00 -0.00000000000E+00 -0.36129509172E+02  0.36129509172E+02  0.00000000000E+00 0.  1.
         24    2    1    2    0    0 -0.43533988922E+02  0.21769134743E+02  0.73521761308E+02  0.12296385223E+03  0.85706220017E+02 0.  0.
        -13    1    3    3    0    0  0.62467446235E+01 -0.16754950221E+02 -0.83140163845E+01  0.19719864192E+02  0.00000000000E+00 0.  1.
         14    1    3    3    0    0 -0.49780733545E+02  0.38524084964E+02  0.81835777693E+02  0.10324398803E+03  0.00000000000E+00 0. -1.
          1    1    1    2  501    0  0.43533988922E+02 -0.21769134743E+02  0.40507014971E+02  0.63323942397E+02  0.00000000000E+00 0. -1.
<mgrwt>
<rscale>  1 0.98562973E+02</rscale>
<asrwt>0</asrwt>
<pdfrwt beam="1">  1       21 0.55583861E-02 0.98562973E+02</pdfrwt>
<pdfrwt beam="2">  1        2 0.23101274E-01 0.98562973E+02</pdfrwt>
<totfact> 0.61486466E+05</totfact>
</mgrwt>
</event>
<event>
 6    2  0.8544106E+000  0.8506826E+02  0.7546771E-02  0.1315254E+00
         21   -1    0    0  501  502  0.00000000000E+00  0.00000000000E+00  0.70557716778E+03  0.70557716778E+03  0.00000000000E+00 0. -1.
          2   -1    0    0  502    0 -0.00000000000E+00 -0.00000000000E+00 -0.17475739906E+02  0.17475739906E+02  0.00000000000E+00 0. -1.
         24    2    1    2    0    0 -0.39649431565E+01 -0.29524632283E+02  0.88656227057E+02  0.12286795830E+03  0.79681766393E+02 0.  0.
        -13    1    3    3    0    0 -0.25233268920E+02  0.55773802401E+01  0.75450172550E+02  0.79753078740E+02  0.00000000000E+00 0.  1.
         14    1    3    3    0    0  0.21268325763E+02 -0.35102012523E+02  0.13206054507E+02  0.43114879562E+02  0.00000000000E+00 0. -1.
          1    1    1    2  501    0  0.39649431565E+01  0.29524632283E+02  0.59944520082E+03  0.60018494938E+03  0.00000000000E+00 0. -1.
<mgrwt>
<rscale>  1 0.85068258E+02</rscale>
<asrwt>0</asrwt>
<pdfrwt beam="1">  1       21 0.10855031E+00 0.85068258E+02</pdfrwt>
<pdfrwt beam="2">  1        2 0.26885759E-02 0.85068258E+02</pdfrwt>
<totfact> 0.29156408E+04</totfact>
</mgrwt>
</event>
<event>
 6    2  0.8544106E+000  0.8355873E+02  0.7546771E-02  0.1319245E+00
          2   -1    0    0  502    0 -0.00000000000E+00  0.00000000000E+00  0.56409331294E+03  0.56409331294E+03  0.00000000000E+00 0. -1.
         21   -1    0    0  501  502  0.00000000000E+00 -0.00000000000E+00 -0.69857483819E+01  0.69857483819E+01  0.00000000000E+00 0. -1.
         24    2    1    2    0    0  0.82686239984E+01 -0.20964460878E+02  0.52639237506E+03  0.53298310840E+03  0.80462305219E+02 0.  0.
        -13    1    3    3    0    0  0.22487944229E+02 -0.57247614829E+01  0.40752285452E+02  0.46895941181E+02  0.00000000000E+00 0.  1.
         14    1    3    3    0    0 -0.14219320231E+02 -0.15239699395E+02  0.48564008961E+03  0.48608716722E+03  0.00000000000E+00 0. -1.
          1    1    1    2  501    0 -0.82686239984E+01  0.20964460878E+02  0.30715189499E+02  0.38095952918E+02  0.00000000000E+00 0. -1.
<mgrwt>
<rscale>  1 0.83558730E+02</rscale>
<asrwt>0</asrwt>
<pdfrwt beam="1">  1       21 0.10747310E-02 0.83558730E+02</pdfrwt>
<pdfrwt beam="2">  1        2 0.86783551E-01 0.83558730E+02</pdfrwt>
<totfact> 0.21008182E+06</totfact>
</mgrwt>
</event>
<event>
 6    2  0.8544106E+000  0.1026051E+03  0.7546771E-02  0.1274911E+00
         -1   -1    0    0    0  501 -0.00000000000E+00  0.00000000000E+00  0.41446464269E+03  0.41446464269E+03  0.00000000000E+00 0.  1.
         21   -1    0    0  501  502  0.00000000000E+00 -0.00000000000E+00 -0.18499882603E+02  0.18499882603E+02  0.00000000000E+00 0.  1.
         24    2    1    2    0    0 -0.57786800493E+01 -0.67635688973E+02  0.28472493020E+03  0.30264845061E+03  0.76940361432E+02 0.  0.
        -13    1    3    3    0    0  0.14963202727E+02 -0.62312932255E+02  0.26777910876E+03  0.27534060734E+03  0.00000000000E+00 0.  1.
         14    1    3    3    0    0 -0.20741882776E+02 -0.53227567187E+01  0.16945821441E+02  0.27307843278E+02  0.00000000000E+00 0. -1.
         -2    1    1    2    0  502  0.57786800493E+01  0.67635688973E+02  0.11123982989E+03  0.13031607468E+03  0.00000000000E+00 0.  1.
<mgrwt>
<rscale>  1 0.10260506E+03</rscale>
<asrwt>0</asrwt>
<pdfrwt beam="1">  1       21 0.28461361E-02 0.10260506E+03</pdfrwt>
<pdfrwt beam="2">  1       -1 0.63763784E-01 0.10260506E+03</pdfrwt>
<totfact> 0.15974208E+05</totfact>
</mgrwt>
</event>
<event>
 6    2  0.8544106E+000  0.9196213E+02  0.7546771E-02  0.1298168E+00
          2   -1    0    0  502    0 -0.00000000000E+00  0.00000000000E+00  0.12752489203E+04  0.12752489203E+04  0.00000000000E+00 0. -1.
         21   -1    0    0  501  502  0.00000000000E+00 -0.00000000000E+00 -0.57347821828E+01  0.57347821828E+01  0.00000000000E+00 0. -1.
         24    2    1    2    0    0  0.22567369340E+00 -0.46833854644E+02  0.11316725147E+04  0.11354028864E+04  0.79142738232E+02 0.  0.
        -11    1    3    3    0    0 -0.24653727376E+01 -0.32804809344E+02  0.14738944082E+03  0.15101616087E+03  0.00000000000E+00 0.  1.
         12    1    3    3    0    0  0.26910464310E+01 -0.14029045299E+02  0.98428307385E+03  0.98438672548E+03  0.00000000000E+00 0. -1.
          1    1    1    2  501    0 -0.22567369340E+00  0.46833854644E+02  0.13784162342E+03  0.14558081610E+03  0.00000000000E+00 0. -1.
<mgrwt>
<rscale>  1 0.91962133E+02</rscale>
<asrwt>0</asrwt>
<pdfrwt beam="1">  1       21 0.88227519E-03 0.91962133E+02</pdfrwt>
<pdfrwt beam="2">  1        2 0.19619192E+00 0.91962133E+02</pdfrwt>
<totfact> 0.10191287E+06</totfact>
</mgrwt>
</event>
<event>
 6    2  0.8544106E+000  0.8406595E+02  0.7546771E-02  0.1317893E+00
          2   -1    0    0  502    0 -0.00000000000E+00  0.00000000000E+00  0.36715830097E+03  0.36715830097E+03  0.00000000000E+00 0. -1.
         21   -1    0    0  501  502  0.00000000000E+00 -0.00000000000E+00 -0.95654999795E+01  0.95654999795E+01  0.00000000000E+00 0. -1.
         24    2    1    2    0    0  0.13055881416E+02 -0.20981515370E+02  0.32571831783E+03  0.33639189418E+03  0.80351750911E+02 0.  0.
        -13    1    3    3    0    0  0.51093062104E+01  0.31008500503E+02  0.11651884081E+03  0.12068252723E+03  0.00000000000E+00 0.  1.
         14    1    3    3    0    0  0.79465752060E+01 -0.51990015873E+02  0.20919947702E+03  0.21570936696E+03  0.00000000000E+00 0. -1.
          1    1    1    2  501    0 -0.13055881416E+02  0.20981515370E+02  0.31874483161E+02  0.40331906768E+02  0.00000000000E+00 0. -1.
<mgrwt>
<rscale>  1 0.84065950E+02</rscale>
<asrwt>0</asrwt>
<pdfrwt beam="1">  1       21 0.14716157E-02 0.84065950E+02</pdfrwt>
<pdfrwt beam="2">  1        2 0.56485882E-01 0.84065950E+02</pdfrwt>
<totfact> 0.20278674E+06</totfact>
</mgrwt>
</event>
<event>
 6    2  0.8544106E+000  0.8351184E+02  0.7546771E-02  0.1319371E+00
         21   -1    0    0  501  502  0.00000000000E+00  0.00000000000E+00  0.13941901320E+03  0.13941901320E+03  0.00000000000E+00 0. -1.
          2   -1    0    0  502    0 -0.00000000000E+00 -0.00000000000E+00 -0.82982996129E+02  0.82982996129E+02  0.00000000000E+00 0. -1.
         24    2    1    2    0    0 -0.32417157089E+02 -0.22658203793E+02 -0.57766945512E+02  0.10154431228E+03  0.73552437688E+02 0.  0.
        -11    1    3    3    0    0  0.20987057152E+02  0.56852849909E+01 -0.23636034403E+02  0.32116057598E+02  0.00000000000E+00 0.  1.
         12    1    3    3    0    0 -0.53404214241E+02 -0.28343488784E+02 -0.34130911109E+02  0.69428254683E+02  0.00000000000E+00 0. -1.
          1    1    1    2  501    0  0.32417157089E+02  0.22658203793E+02  0.11420296258E+03  0.12085769705E+03  0.00000000000E+00 0. -1.
<mgrwt>
<rscale>  1 0.83511840E+02</rscale>
<asrwt>0</asrwt>
<pdfrwt beam="1">  1       21 0.21449079E-01 0.83511840E+02</pdfrwt>
<pdfrwt beam="2">  1        2 0.12766615E-01 0.83511840E+02</pdfrwt>
<totfact> 0.11254084E+05</totfact>
</mgrwt>
</event>
<event>
 6    2  0.8544106E+000  0.8601739E+02  0.7546771E-02  0.1312793E+00
         21   -1    0    0  501  502  0.00000000000E+00  0.00000000000E+00  0.59643176360E+02  0.59643176360E+02  0.00000000000E+00 0. -1.
          2   -1    0    0  502    0 -0.00000000000E+00 -0.00000000000E+00 -0.60340385995E+03  0.60340385995E+03  0.00000000000E+00 0. -1.
         24    2    1    2    0    0 -0.18583575909E+02  0.25944588172E+02 -0.59581313609E+03  0.60199026961E+03  0.79878161093E+02 0.  0.
        -11    1    3    3    0    0  0.21133605385E+02 -0.89617729502E+01 -0.73345898300E+02  0.76854170013E+02  0.00000000000E+00 0.  1.
         12    1    3    3    0    0 -0.39717181294E+02  0.34906361122E+02 -0.52246723779E+03  0.52513609960E+03  0.00000000000E+00 0. -1.
          1    1    1    2  501    0  0.18583575909E+02 -0.25944588172E+02  0.52052452498E+02  0.61056766702E+02  0.00000000000E+00 0. -1.
<mgrwt>
<rscale>  1 0.86017391E+02</rscale>
<asrwt>0</asrwt>
<pdfrwt beam="1">  1       21 0.91758729E-02 0.86017391E+02</pdfrwt>
<pdfrwt beam="2">  1        2 0.92831367E-01 0.86017391E+02</pdfrwt>
<totfact> 0.59100055E+04</totfact>
</mgrwt>
</event>
<event>
 6    2  0.8544106E+000  0.7760160E+02  0.7546771E-02  0.1335999E+00
          2   -1    0    0  502    0 -0.00000000000E+00  0.00000000000E+00  0.72073107419E+03  0.72073107419E+03  0.00000000000E+00 0. -1.
         21   -1    0    0  501  502  0.00000000000E+00 -0.00000000000E+00 -0.44005428740E+01  0.44005428740E+01  0.00000000000E+00 0.  1.
         24    2    1    2    0    0  0.11732865771E+02 -0.32234043786E+02  0.53299092377E+03  0.53861055817E+03  0.69608295676E+02 0.  0.
        -13    1    3    3    0    0  0.24587666084E+02 -0.86476436755E+01  0.67685620563E+02  0.72530533540E+02  0.00000000000E+00 0.  1.
         14    1    3    3    0    0 -0.12854800313E+02 -0.23586400110E+02  0.46530530321E+03  0.46608002462E+03  0.00000000000E+00 0. -1.
          1    1    1    2  501    0 -0.11732865771E+02  0.32234043786E+02  0.18333960755E+03  0.18652105890E+03  0.00000000000E+00 0. -1.
<mgrwt>
<rscale>  1 0.77601601E+02</rscale>
<asrwt>0</asrwt>
<pdfrwt beam="1">  1       21 0.67700717E-03 0.77601601E+02</pdfrwt>
<pdfrwt beam="2">  1        2 0.11088161E+00 0.77601601E+02</pdfrwt>
<totfact> 0.32323383E+06</totfact>
</mgrwt>
</event>
<event>
 6    2  0.8544106E+000  0.8383676E+02  0.7546771E-02  0.1318503E+00
         21   -1    0    0  501  502  0.00000000000E+00  0.00000000000E+00  0.67471939823E+01  0.67471939823E+01  0.00000000000E+00 0. -1.
          2   -1    0    0  502    0 -0.00000000000E+00 -0.00000000000E+00 -0.70746793920E+03  0.70746793920E+03  0.00000000000E+00 0. -1.
         24    2    1    2    0    0 -0.10592926483E+02  0.23667278718E+02 -0.66394593986E+03  0.66921806125E+03  0.79726107841E+02 0.  0.
        -11    1    3    3    0    0 -0.14320702404E+02 -0.12125983283E+02 -0.39443879846E+02  0.43679991360E+02  0.00000000000E+00 0.  1.
         12    1    3    3    0    0  0.37277759209E+01  0.35793262001E+02 -0.62450206002E+03  0.62553806989E+03  0.00000000000E+00 0. -1.
          1    1    1    2  501    0  0.10592926483E+02 -0.23667278718E+02 -0.36774805350E+02  0.44997071926E+02  0.00000000000E+00 0. -1.
<mgrwt>
<rscale>  1 0.83836761E+02</rscale>
<asrwt>0</asrwt>
<pdfrwt beam="1">  1       21 0.10380295E-02 0.83836761E+02</pdfrwt>
<pdfrwt beam="2">  1        2 0.10884126E+00 0.83836761E+02</pdfrwt>
<totfact> 0.17177068E+06</totfact>
</mgrwt>
</event>
<event>
 6    2  0.8544106E+000  0.8520660E+02  0.7546771E-02  0.1314893E+00
         -1   -1    0    0    0  501 -0.00000000000E+00  0.00000000000E+00  0.19375155907E+03  0.19375155907E+03  0.00000000000E+00 0.  1.
         21   -1    0    0  501  502  0.00000000000E+00 -0.00000000000E+00 -0.48980240185E+02  0.48980240185E+02  0.00000000000E+00 0.  1.
         24    2    1    2    0    0  0.26209980710E+02  0.46376649579E+01  0.17966456686E+03  0.19884547132E+03  0.80942534273E+02 0.  0.
        -11    1    3    3    0    0  0.33604741402E+02  0.20211154160E+02  0.17713160089E+03  0.18142043278E+03  0.00000000000E+00 0.  1.
         12    1    3    3    0    0 -0.73947606921E+01 -0.15573489202E+02  0.25329659766E+01  0.17425038544E+02  0.00000000000E+00 0. -1.
         -2    1    1    2    0  502 -0.26209980710E+02 -0.46376649579E+01 -0.34893247977E+02  0.43886327933E+02  0.00000000000E+00 0.  1.
<mgrwt>
<rscale>  1 0.85206601E+02</rscale>
<asrwt>0</asrwt>
<pdfrwt beam="1">  1       21 0.75354217E-02 0.85206601E+02</pdfrwt>
<pdfrwt beam="2">  1       -1 0.29807932E-01 0.85206601E+02</pdfrwt>
<totfact> 0.12016685E+05</totfact>
</mgrwt>
</event>
<event>
 6    2  0.8544106E+000  0.8457287E+02  0.7546771E-02  0.1316553E+00
         -1   -1    0    0    0  501 -0.00000000000E+00  0.00000000000E+00  0.15840723504E+03  0.15840723504E+03  0.00000000000E+00 0.  1.
         21   -1    0    0  501  502  0.00000000000E+00 -0.00000000000E+00 -0.19870791313E+02  0.19870791313E+02  0.00000000000E+00 0. -1.
         24    2    1    2    0    0  0.11738280088E+02 -0.24061325146E+02  0.95214612375E+02  0.12735145511E+03  0.80223663100E+02 0.  0.
        -11    1    3    3    0    0  0.16214196362E+02 -0.28487125328E+01  0.10300673710E+03  0.10431396462E+03  0.00000000000E+00 0.  1.
         12    1    3    3    0    0 -0.44759162738E+01 -0.21212612613E+02 -0.77921247230E+01  0.23037490490E+02  0.00000000000E+00 0. -1.
         -2    1    1    2    0  502 -0.11738280088E+02  0.24061325146E+02  0.43321831353E+02  0.50926571247E+02  0.00000000000E+00 0.  1.
<mgrwt>
<rscale>  1 0.84572872E+02</rscale>
<asrwt>0</asrwt>
<pdfrwt beam="1">  1       21 0.30570449E-02 0.84572872E+02</pdfrwt>
<pdfrwt beam="2">  1       -1 0.24370343E-01 0.84572872E+02</pdfrwt>
<totfact> 0.74605436E+05</totfact>
</mgrwt>
</event>
<event>
 6    2  0.8544106E+000  0.8920977E+02  0.7546771E-02  0.1304777E+00
         21   -1    0    0  501  502  0.00000000000E+00  0.00000000000E+00  0.39594196670E+01  0.39594196670E+01  0.00000000000E+00 0.  1.
          2   -1    0    0  502    0 -0.00000000000E+00 -0.00000000000E+00 -0.11462724672E+04  0.11462724672E+04  0.00000000000E+00 0. -1.
         24    2    1    2    0    0 -0.21923668549E+02  0.32233954271E+02 -0.60941920123E+03  0.61591407276E+03  0.80241554935E+02 0.  0.
        -13    1    3    3    0    0 -0.44466160880E+02  0.42523058817E+02 -0.35511847528E+03  0.36040890871E+03  0.00000000000E+00 0.  1.
         14    1    3    3    0    0  0.22542492332E+02 -0.10289104547E+02 -0.25430072596E+03  0.25550516405E+03  0.00000000000E+00 0. -1.
          1    1    1    2  501    0  0.21923668549E+02 -0.32233954271E+02 -0.53289384625E+03  0.53431781406E+03  0.00000000000E+00 0. -1.
<mgrwt>
<rscale>  1 0.89209765E+02</rscale>
<asrwt>0</asrwt>
<pdfrwt beam="1">  1       21 0.60914134E-03 0.89209765E+02</pdfrwt>
<pdfrwt beam="2">  1        2 0.17634965E+00 0.89209765E+02</pdfrwt>
<totfact> 0.21192023E+06</totfact>
</mgrwt>
</event>
<event>
 6    2  0.8544106E+000  0.8846153E+02  0.7546771E-02  0.1306621E+00
         21   -1    0    0  501  502  0.00000000000E+00  0.00000000000E+00  0.64915969297E+01  0.64915969297E+01  0.00000000000E+00 0. -1.
          2   -1    0    0  502    0 -0.00000000000E+00 -0.00000000000E+00 -0.11173670591E+04  0.11173670591E+04  0.00000000000E+00 0. -1.
         24    2    1    2    0    0 -0.89327675946E+01  0.36082657435E+02 -0.10406396605E+04  0.10443928121E+04  0.80272601826E+02 0.  0.
        -11    1    3    3    0    0  0.10696079804E+02  0.56268693839E+02 -0.55780526995E+03  0.56073816636E+03  0.00000000000E+00 0.  1.
         12    1    3    3    0    0 -0.19628847399E+02 -0.20186036404E+02 -0.48283439052E+03  0.48365464578E+03  0.00000000000E+00 0. -1.
          1    1    1    2  501    0  0.89327675946E+01 -0.36082657435E+02 -0.70235801700E+02  0.79465843889E+02  0.00000000000E+00 0. -1.
<mgrwt>
<rscale>  1 0.88461535E+02</rscale>
<asrwt>0</asrwt>
<pdfrwt beam="1">  1       21 0.99870709E-03 0.88461535E+02</pdfrwt>
<pdfrwt beam="2">  1        2 0.17190265E+00 0.88461535E+02</pdfrwt>
<totfact> 0.10206923E+06</totfact>
</mgrwt>
</event>
<event>
 6    2  0.8544106E+000  0.9456112E+02  0.7546771E-02  0.1292168E+00
         21   -1    0    0  501  502  0.00000000000E+00  0.00000000000E+00  0.13012972952E+03  0.13012972952E+03  0.00000000000E+00 0.  1.
          2   -1    0    0  502    0 -0.00000000000E+00 -0.00000000000E+00 -0.44094297379E+02  0.44094297379E+02  0.00000000000E+00 0. -1.
         24    2    1    2    0    0 -0.34303985783E+02  0.31797359346E+02  0.25908755158E+02  0.98046255948E+02  0.82182535916E+02 0.  0.
        -11    1    3    3    0    0 -0.24313308586E+02 -0.39805213941E+01  0.48620790673E+02  0.54506539155E+02  0.00000000000E+00 0.  1.
         12    1    3    3    0    0 -0.99906771962E+01  0.35777880740E+02 -0.22712035516E+02  0.43539716793E+02  0.00000000000E+00 0. -1.
          1    1    1    2  501    0  0.34303985783E+02 -0.31797359346E+02  0.60126676981E+02  0.76177770949E+02  0.00000000000E+00 0. -1.
<mgrwt>
<rscale>  1 0.94561116E+02</rscale>
<asrwt>0</asrwt>
<pdfrwt beam="1">  1       21 0.20019958E-01 0.94561116E+02</pdfrwt>
<pdfrwt beam="2">  1        2 0.67837381E-02 0.94561116E+02</pdfrwt>
<totfact> 0.27846046E+05</totfact>
</mgrwt>
</event>
<event>
 6    2  0.8544106E+000  0.9760330E+02  0.7546771E-02  0.1285418E+00
         21   -1    0    0  501  502  0.00000000000E+00  0.00000000000E+00  0.47821426231E+01  0.47821426231E+01  0.00000000000E+00 0. -1.
          2   -1    0    0  502    0 -0.00000000000E+00 -0.00000000000E+00 -0.11689887443E+04  0.11689887443E+04  0.00000000000E+00 0. -1.
         24    2    1    2    0    0 -0.51469488905E+02  0.43613462426E+01 -0.72653826132E+03  0.73306496935E+03  0.82814699804E+02 0.  0.
        -11    1    3    3    0    0  0.49384354012E+01  0.15779428176E+01 -0.93611300474E+00  0.52682402475E+01  0.00000000000E+00 0.  1.
         12    1    3    3    0    0 -0.56407924306E+02  0.27834034251E+01 -0.72560214831E+03  0.72779672910E+03  0.00000000000E+00 0. -1.
          1    1    1    2  501    0  0.51469488905E+02 -0.43613462426E+01 -0.43766834036E+03  0.44070591757E+03  0.00000000000E+00 0. -1.
<mgrwt>
<rscale>  1 0.97603300E+02</rscale>
<asrwt>0</asrwt>
<pdfrwt beam="1">  1       21 0.73571404E-03 0.97603300E+02</pdfrwt>
<pdfrwt beam="2">  1        2 0.17984447E+00 0.97603300E+02</pdfrwt>
<totfact> 0.15497021E+06</totfact>
</mgrwt>
</event>
<event>
 6    2  0.8544106E+000  0.1416686E+03  0.7546771E-02  0.1211101E+00
         21   -1    0    0  501  502  0.00000000000E+00  0.00000000000E+00  0.92933545480E+02  0.92933545480E+02  0.00000000000E+00 0. -1.
          2   -1    0    0  502    0 -0.00000000000E+00 -0.00000000000E+00 -0.45752864232E+03  0.45752864232E+03  0.00000000000E+00 0. -1.
         24    2    1    2    0    0 -0.11677874357E+03 -0.99356460113E+00 -0.40327913148E+03  0.42743895155E+03  0.80198112779E+02 0.  0.
        -11    1    3    3    0    0  0.98925949200E+01 -0.10602558048E+02 -0.36005575091E+02  0.38815964615E+02  0.00000000000E+00 0.  1.
         12    1    3    3    0    0 -0.12667133849E+03  0.96089934472E+01 -0.36727355639E+03  0.38862298694E+03  0.00000000000E+00 0. -1.
          1    1    1    2  501    0  0.11677874357E+03  0.99356460113E+00  0.38684034644E+02  0.12302323625E+03  0.00000000000E+00 0. -1.
<mgrwt>
<rscale>  1 0.14166863E+03</rscale>
<asrwt>0</asrwt>
<pdfrwt beam="1">  1       21 0.14297468E-01 0.14166863E+03</pdfrwt>
<pdfrwt beam="2">  1        2 0.70389022E-01 0.14166863E+03</pdfrwt>
<totfact> 0.36879579E+04</totfact>
</mgrwt>
</event>
<event>
 6    2  0.8544106E+000  0.8297023E+02  0.7546771E-02  0.1320828E+00
          2   -1    0    0  502    0 -0.00000000000E+00  0.00000000000E+00  0.61080337313E+03  0.61080337313E+03  0.00000000000E+00 0. -1.
         21   -1    0    0  501  502  0.00000000000E+00 -0.00000000000E+00 -0.54221873445E+01  0.54221873445E+01  0.00000000000E+00 0.  1.
         24    2    1    2    0    0 -0.84481703941E+01  0.19186666221E+02  0.56146243629E+03  0.56755979940E+03  0.80278009363E+02 0.  0.
        -11    1    3    3    0    0  0.11296139794E+01 -0.37777826947E+01 -0.13725392499E+01  0.41751088397E+01  0.00000000000E+00 0.  1.
         12    1    3    3    0    0 -0.95777843735E+01  0.22964448916E+02  0.56283497554E+03  0.56338469056E+03  0.00000000000E+00 0. -1.
          1    1    1    2  501    0  0.84481703941E+01 -0.19186666221E+02  0.43918749498E+02  0.48665761076E+02  0.00000000000E+00 0. -1.
<mgrwt>
<rscale>  1 0.82970227E+02</rscale>
<asrwt>0</asrwt>
<pdfrwt beam="1">  1       21 0.83418315E-03 0.82970227E+02</pdfrwt>
<pdfrwt beam="2">  1        2 0.93969695E-01 0.82970227E+02</pdfrwt>
<totfact> 0.28514161E+06</totfact>
</mgrwt>
</event>
<event>
 6    2  0.8544106E+000  0.8981129E+02  0.7546771E-02  0.1303309E+00
         21   -1    0    0  501  502  0.00000000000E+00  0.00000000000E+00  0.32573399917E+02  0.32573399917E+02  0.00000000000E+00 0. -1.
          4   -1    0    0  502    0 -0.00000000000E+00 -0.00000000000E+00 -0.15289822280E+03  0.15289822280E+03  0.00000000000E+00 0. -1.
         24    2    1    2    0    0  0.35239294507E+02  0.83988734121E+01 -0.11917480458E+03  0.14922701630E+03  0.82181016025E+02 0.  0.
        -11    1    3    3    0    0 -0.15157099135E+02 -0.89966644674E+01  0.11052934862E+01  0.17660670978E+02  0.00000000000E+00 0.  1.
         12    1    3    3    0    0  0.50396393641E+02  0.17395537879E+02 -0.12028009807E+03  0.13156634532E+03  0.00000000000E+00 0. -1.
          3    1    1    2  501    0 -0.35239294507E+02 -0.83988734121E+01 -0.11500182974E+01  0.36244606413E+02  0.00000000000E+00 0. -1.
<mgrwt>
<rscale>  1 0.89811293E+02</rscale>
<asrwt>0</asrwt>
<pdfrwt beam="1">  1       21 0.50112921E-02 0.89811293E+02</pdfrwt>
<pdfrwt beam="2">  1        4 0.23522804E-01 0.89811293E+02</pdfrwt>
<totfact> 0.16793185E+05</totfact>
</mgrwt>
</event>
<event>
 6    2  0.8544106E+000  0.8741412E+02  0.7546771E-02  0.1309237E+00
         21   -1    0    0  501  502  0.00000000000E+00  0.00000000000E+00  0.62943340106E+03  0.62943340106E+03  0.00000000000E+00 0. -1.
         -3   -1    0    0    0  501 -0.00000000000E+00 -0.00000000000E+00 -0.74873263446E+01  0.74873263446E+01  0.00000000000E+00 0.  1.
         24    2    1    2    0    0  0.23537217005E+02  0.26268160119E+02  0.54876398795E+03  0.55568259200E+03  0.79982571612E+02 0.  0.
        -11    1    3    3    0    0  0.20752845122E+01  0.46178928243E+02  0.18296697920E+03  0.18871596567E+03  0.00000000000E+00 0.  1.
         12    1    3    3    0    0  0.21461932493E+02 -0.19910768123E+02  0.36579700875E+03  0.36696662634E+03  0.00000000000E+00 0. -1.
         -4    1    1    2    0  502 -0.23537217005E+02 -0.26268160119E+02  0.73182086759E+02  0.81238135397E+02  0.00000000000E+00 0.  1.
<mgrwt>
<rscale>  1 0.87414121E+02</rscale>
<asrwt>0</asrwt>
<pdfrwt beam="1">  1       21 0.96835866E-01 0.87414121E+02</pdfrwt>
<pdfrwt beam="2">  1       -3 0.11518969E-02 0.87414121E+02</pdfrwt>
<totfact> 0.89759840E+04</totfact>
</mgrwt>
</event>
<event>
 6    2  0.8544106E+000  0.8699802E+02  0.7546771E-02  0.1310289E+00
         21   -1    0    0  501  502  0.00000000000E+00  0.00000000000E+00  0.30346974963E+02  0.30346974963E+02  0.00000000000E+00 0. -1.
         -3   -1    0    0    0  501 -0.00000000000E+00 -0.00000000000E+00 -0.13683108858E+03  0.13683108858E+03  0.00000000000E+00 0.  1.
         24    2    1    2    0    0 -0.33041673167E+01 -0.31827867322E+02 -0.45191465531E+02  0.98035317218E+02  0.80899469747E+02 0.  0.
        -11    1    3    3    0    0  0.22454949850E+02  0.19356117329E+02 -0.17018909091E+02  0.34183728841E+02  0.00000000000E+00 0.  1.
         12    1    3    3    0    0 -0.25759117167E+02 -0.51183984650E+02 -0.28172556440E+02  0.63851588377E+02  0.00000000000E+00 0. -1.
         -4    1    1    2    0  502  0.33041673167E+01  0.31827867322E+02 -0.61292648088E+02  0.69142746326E+02  0.00000000000E+00 0.  1.
<mgrwt>
<rscale>  1 0.86998016E+02</rscale>
<asrwt>0</asrwt>
<pdfrwt beam="1">  1       21 0.46687653E-02 0.86998016E+02</pdfrwt>
<pdfrwt beam="2">  1       -3 0.21050937E-01 0.86998016E+02</pdfrwt>
<totfact> 0.27284324E+05</totfact>
</mgrwt>
</event>
<event>
 6    2  0.8544106E+000  0.1026142E+03  0.7546771E-02  0.1274893E+00
          2   -1    0    0  502    0 -0.00000000000E+00  0.00000000000E+00  0.25404899955E+04  0.25404899955E+04  0.00000000000E+00 0. -1.
         21   -1    0    0  501  502  0.00000000000E+00 -0.00000000000E+00 -0.47470309113E+01  0.47470309113E+01  0.00000000000E+00 0. -1.
         24    2    1    2    0    0 -0.34100619217E+01  0.23941942901E+02  0.24998614752E+04  0.25019666390E+04  0.99723728111E+02 0.  0.
        -13    1    3    3    0    0  0.54075914351E+01 -0.25562598706E+02  0.21932206171E+03  0.22087293915E+03  0.00000000000E+00 0.  1.
         14    1    3    3    0    0 -0.88176533568E+01  0.49504541607E+02  0.22805394135E+04  0.22810936998E+04  0.00000000000E+00 0. -1.
          1    1    1    2  501    0  0.34100619217E+01 -0.23941942901E+02  0.35881489365E+02  0.43270387464E+02  0.00000000000E+00 0. -1.
<mgrwt>
<rscale>  1 0.10261417E+03</rscale>
<asrwt>0</asrwt>
<pdfrwt beam="1">  1       21 0.73031448E-03 0.10261417E+03</pdfrwt>
<pdfrwt beam="2">  1        2 0.39084353E+00 0.10261417E+03</pdfrwt>
<totfact> 0.30880217E+05</totfact>
</mgrwt>
</event>
<event>
 6    2  0.8544106E+000  0.9850574E+02  0.7546771E-02  0.1283470E+00
          4   -1    0    0  502    0 -0.00000000000E+00  0.00000000000E+00  0.69990850021E+02  0.69990850021E+02  0.00000000000E+00 0. -1.
         21   -1    0    0  501  502  0.00000000000E+00 -0.00000000000E+00 -0.64084563108E+02  0.64084563108E+02  0.00000000000E+00 0. -1.
         24    2    1    2    0    0  0.25277020838E+02 -0.24850505704E+01  0.25782306490E+02  0.10182391064E+03  0.95174987211E+02 0.  0.
        -13    1    3    3    0    0 -0.13120351256E+02 -0.30183153475E+02 -0.17849367914E+02  0.37440169681E+02  0.00000000000E+00 0.  1.
         14    1    3    3    0    0  0.38397372094E+02  0.27698102905E+02  0.43631674404E+02  0.64383740956E+02  0.00000000000E+00 0. -1.
          3    1    1    2  501    0 -0.25277020838E+02  0.24850505704E+01 -0.19876019578E+02  0.32251502493E+02  0.00000000000E+00 0. -1.
<mgrwt>
<rscale>  1 0.98505743E+02</rscale>
<asrwt>0</asrwt>
<pdfrwt beam="1">  1       21 0.98591636E-02 0.98505743E+02</pdfrwt>
<pdfrwt beam="2">  1        4 0.10767823E-01 0.98505743E+02</pdfrwt>
<totfact> 0.21149024E+05</totfact>
</mgrwt>
</event>
<event>
 6    2  0.8544106E+000  0.8150495E+02  0.7546771E-02  0.1324834E+00
         21   -1    0    0  501  502  0.00000000000E+00  0.00000000000E+00  0.27840749873E+01  0.27840749873E+01  0.00000000000E+00 0.  1.
          2   -1    0    0  502    0 -0.00000000000E+00 -0.00000000000E+00 -0.99271289640E+03  0.99271289640E+03  0.00000000000E+00 0. -1.
         24    2    1    2    0    0  0.13157046712E+02 -0.15680027143E+02 -0.67486480071E+03  0.67976875239E+03  0.78892879021E+02 0.  0.
        -13    1    3    3    0    0  0.33551289320E+02 -0.25150955737E+02 -0.19884212097E+03  0.20321527665E+03  0.00000000000E+00 0.  1.
         14    1    3    3    0    0 -0.20394242608E+02  0.94709285934E+01 -0.47602267973E+03  0.47655347574E+03  0.00000000000E+00 0. -1.
          1    1    1    2  501    0 -0.13157046712E+02  0.15680027143E+02 -0.31506402070E+03  0.31572821900E+03  0.00000000000E+00 0. -1.
<mgrwt>
<rscale>  1 0.81504954E+02</rscale>
<asrwt>0</asrwt>
<pdfrwt beam="1">  1       21 0.42831888E-03 0.81504954E+02</pdfrwt>
<pdfrwt beam="2">  1        2 0.15272518E+00 0.81504954E+02</pdfrwt>
<totfact> 0.43988764E+06</totfact>
</mgrwt>
</event>
<event>
 6    2  0.8544106E+000  0.8815318E+02  0.7546771E-02  0.1307387E+00
         21   -1    0    0  501  502  0.00000000000E+00  0.00000000000E+00  0.10173114481E+03  0.10173114481E+03  0.00000000000E+00 0. -1.
          4   -1    0    0  502    0 -0.00000000000E+00 -0.00000000000E+00 -0.75617038490E+02  0.75617038490E+02  0.00000000000E+00 0. -1.
         24    2    1    2    0    0  0.46054194915E+02 -0.10060822111E+02 -0.39465129199E+02  0.96584050531E+02  0.74490089163E+02 0.  0.
        -13    1    3    3    0    0 -0.84899129271E+00  0.23899092726E+02  0.39125011695E+01  0.24232108550E+02  0.00000000000E+00 0.  1.
         14    1    3    3    0    0  0.46903186207E+02 -0.33959914837E+02 -0.43377630368E+02  0.72351941982E+02  0.00000000000E+00 0. -1.
          3    1    1    2  501    0 -0.46054194915E+02  0.10060822111E+02  0.65579235520E+02  0.80764132771E+02  0.00000000000E+00 0. -1.
<mgrwt>
<rscale>  1 0.88153176E+02</rscale>
<asrwt>0</asrwt>
<pdfrwt beam="1">  1       21 0.15650945E-01 0.88153176E+02</pdfrwt>
<pdfrwt beam="2">  1        4 0.11633391E-01 0.88153176E+02</pdfrwt>
<totfact> 0.80748650E+04</totfact>
</mgrwt>
</event>
<event>
 6    2  0.8544106E+000  0.8431219E+02  0.7546771E-02  0.1317241E+00
         21   -1    0    0  501  502  0.00000000000E+00  0.00000000000E+00  0.46529703657E+02  0.46529703657E+02  0.00000000000E+00 0. -1.
         -1   -1    0    0    0  501 -0.00000000000E+00 -0.00000000000E+00 -0.66410244128E+02  0.66410244128E+02  0.00000000000E+00 0.  1.
         24    2    1    2    0    0 -0.16738279837E+02 -0.17232413266E+02 -0.45359479851E+01  0.84434113339E+02  0.80817192430E+02 0.  0.
        -11    1    3    3    0    0 -0.17688834195E+02  0.24461601492E+01 -0.40033592459E+02  0.43835682723E+02  0.00000000000E+00 0.  1.
         12    1    3    3    0    0  0.95055435715E+00 -0.19678573415E+02  0.35497644474E+02  0.40598430615E+02  0.00000000000E+00 0. -1.
         -2    1    1    2    0  502  0.16738279837E+02  0.17232413266E+02 -0.15344592486E+02  0.28505834446E+02  0.00000000000E+00 0.  1.
<mgrwt>
<rscale>  1 0.84312186E+02</rscale>
<asrwt>0</asrwt>
<pdfrwt beam="1">  1       21 0.71584159E-02 0.84312186E+02</pdfrwt>
<pdfrwt beam="2">  1       -1 0.10216961E-01 0.84312186E+02</pdfrwt>
<totfact> 0.70465005E+05</totfact>
</mgrwt>
</event>
<event>
 6    2  0.8544106E+000  0.9396987E+02  0.7546771E-02  0.1293513E+00
          2   -1    0    0  502    0 -0.00000000000E+00  0.00000000000E+00  0.27384173981E+04  0.27384173981E+04  0.00000000000E+00 0. -1.
         21   -1    0    0  501  502  0.00000000000E+00 -0.00000000000E+00 -0.23676899815E+01  0.23676899815E+01  0.00000000000E+00 0. -1.
         24    2    1    2    0    0  0.45253689014E+02  0.75815301550E+01  0.23712238296E+04  0.23730850777E+04  0.82005854410E+02 0.  0.
        -13    1    3    3    0    0 -0.56523842277E+01 -0.46363508092E+01  0.20263455122E+02  0.21541885009E+02  0.00000000000E+00 0.  1.
         14    1    3    3    0    0  0.50906073242E+02  0.12217880964E+02  0.23509603745E+04  0.23515431927E+04  0.00000000000E+00 0. -1.
          1    1    1    2  501    0 -0.45253689014E+02 -0.75815301550E+01  0.36482587854E+03  0.36770001036E+03  0.00000000000E+00 0. -1.
<mgrwt>
<rscale>  1 0.93969868E+02</rscale>
<asrwt>0</asrwt>
<pdfrwt beam="1">  1       21 0.36426219E-03 0.93969868E+02</pdfrwt>
<pdfrwt beam="2">  1        2 0.42129245E+00 0.93969868E+02</pdfrwt>
<totfact> 0.70340709E+05</totfact>
</mgrwt>
</event>
<event>
 6    2  0.8544106E+000  0.7810053E+02  0.7546771E-02  0.1334530E+00
         21   -1    0    0  501  502  0.00000000000E+00  0.00000000000E+00  0.50975714359E+01  0.50975714359E+01  0.00000000000E+00 0.  1.
          2   -1    0    0  502    0 -0.00000000000E+00 -0.00000000000E+00 -0.51020115496E+03  0.51020115496E+03  0.00000000000E+00 0. -1.
         24    2    1    2    0    0  0.17831060821E+02 -0.13296003537E+02 -0.34996923803E+03  0.35857796966E+03  0.74866296275E+02 0.  0.
        -11    1    3    3    0    0 -0.88642284583E+01 -0.38512901164E+02 -0.14225008857E+03  0.14763775195E+03  0.00000000000E+00 0.  1.
         12    1    3    3    0    0  0.26695289280E+02  0.25216897627E+02 -0.20771914946E+03  0.21094021771E+03  0.00000000000E+00 0. -1.
          1    1    1    2  501    0 -0.17831060821E+02  0.13296003537E+02 -0.15513434550E+03  0.15672075674E+03  0.00000000000E+00 0. -1.
<mgrwt>
<rscale>  1 0.78100530E+02</rscale>
<asrwt>0</asrwt>
<pdfrwt beam="1">  1       21 0.78424167E-03 0.78100530E+02</pdfrwt>
<pdfrwt beam="2">  1        2 0.78492494E-01 0.78100530E+02</pdfrwt>
<totfact> 0.37926540E+06</totfact>
</mgrwt>
</event>
<event>
 6    2  0.8544106E+000  0.8361514E+02  0.7546771E-02  0.1319094E+00
         -1   -1    0    0    0  501 -0.00000000000E+00  0.00000000000E+00  0.30424001295E+03  0.30424001295E+03  0.00000000000E+00 0.  1.
         21   -1    0    0  501  502  0.00000000000E+00 -0.00000000000E+00 -0.14055914766E+02  0.14055914766E+02  0.00000000000E+00 0.  1.
         24    2    1    2    0    0 -0.15454744161E+02  0.18063130662E+02  0.28037803088E+03  0.29258047006E+03  0.80164614750E+02 0.  0.
        -11    1    3    3    0    0 -0.11213533961E+02 -0.29220450864E+02  0.16278037264E+03  0.16576196129E+03  0.00000000000E+00 0.  1.
         12    1    3    3    0    0 -0.42412102005E+01  0.47283581525E+02  0.11759765824E+03  0.12681850878E+03  0.00000000000E+00 0. -1.
         -2    1    1    2    0  502  0.15454744161E+02 -0.18063130662E+02  0.98060673109E+01  0.25715457657E+02  0.00000000000E+00 0.  1.
<mgrwt>
<rscale>  1 0.83615138E+02</rscale>
<asrwt>0</asrwt>
<pdfrwt beam="1">  1       21 0.21624487E-02 0.83615138E+02</pdfrwt>
<pdfrwt beam="2">  1       -1 0.46806151E-01 0.83615138E+02</pdfrwt>
<totfact> 0.43219792E+05</totfact>
</mgrwt>
</event>
<event>
 6    2  0.8544106E+000  0.8948203E+02  0.7546771E-02  0.1304111E+00
         21   -1    0    0  501  502  0.00000000000E+00  0.00000000000E+00  0.10901886081E+02  0.10901886081E+02  0.00000000000E+00 0.  1.
          2   -1    0    0  502    0 -0.00000000000E+00 -0.00000000000E+00 -0.39388343228E+03  0.39388343228E+03  0.00000000000E+00 0. -1.
         24    2    1    2    0    0  0.12651543895E+02 -0.36375899843E+02 -0.30429846323E+03  0.31718226363E+03  0.80769833389E+02 0.  0.
        -11    1    3    3    0    0  0.20590682849E+02 -0.58710083040E+02 -0.17503625924E+03  0.18576474940E+03  0.00000000000E+00 0.  1.
         12    1    3    3    0    0 -0.79391389540E+01  0.22334183197E+02 -0.12926220399E+03  0.13141751423E+03  0.00000000000E+00 0. -1.
          1    1    1    2  501    0 -0.12651543895E+02  0.36375899843E+02 -0.78683082964E+02  0.87603054725E+02  0.00000000000E+00 0. -1.
<mgrwt>
<rscale>  1 0.89482030E+02</rscale>
<asrwt>0</asrwt>
<pdfrwt beam="1">  1       21 0.16772135E-02 0.89482030E+02</pdfrwt>
<pdfrwt beam="2">  1        2 0.60597440E-01 0.89482030E+02</pdfrwt>
<totfact> 0.15426224E+06</totfact>
</mgrwt>
</event>
<event>
 6    2  0.8544106E+000  0.1060573E+03  0.7546771E-02  0.1268050E+00
         21   -1    0    0  501  502  0.00000000000E+00  0.00000000000E+00  0.26607031605E+01  0.26607031605E+01  0.00000000000E+00 0.  1.
          2   -1    0    0  502    0 -0.00000000000E+00 -0.00000000000E+00 -0.28212880029E+04  0.28212880029E+04  0.00000000000E+00 0. -1.
         24    2    1    2    0    0 -0.41238217768E+02 -0.52945557953E+02 -0.17756751543E+04  0.17788396206E+04  0.82123807247E+02 0.  0.
        -13    1    3    3    0    0 -0.41141438401E+02 -0.69065369597E+02 -0.16707932469E+04  0.16727261333E+04  0.00000000000E+00 0.  1.
         14    1    3    3    0    0 -0.96779366145E-01  0.16119811644E+02 -0.10488190737E+03  0.10611348731E+03  0.00000000000E+00 0. -1.
          1    1    1    2  501    0  0.41238217768E+02  0.52945557953E+02 -0.10429521455E+04  0.10451090854E+04  0.00000000000E+00 0. -1.
<mgrwt>
<rscale>  1 0.10605726E+03</rscale>
<asrwt>0</asrwt>
<pdfrwt beam="1">  1       21 0.40933803E-03 0.10605726E+03</pdfrwt>
<pdfrwt beam="2">  1        2 0.43404528E+00 0.10605726E+03</pdfrwt>
<totfact> 0.53096806E+05</totfact>
</mgrwt>
</event>
<event>
 6    2  0.8544106E+000  0.1121125E+03  0.7546771E-02  0.1256707E+00
          2   -1    0    0  502    0 -0.00000000000E+00  0.00000000000E+00  0.11590278731E+02  0.11590278731E+02  0.00000000000E+00 0. -1.
         21   -1    0    0  501  502  0.00000000000E+00 -0.00000000000E+00 -0.83203230015E+03  0.83203230015E+03  0.00000000000E+00 0. -1.
         24    2    1    2    0    0 -0.44460977707E+02  0.64357408591E+02 -0.37633921779E+03  0.39268360876E+03  0.80315348260E+02 0.  0.
        -13    1    3    3    0    0 -0.37346408347E+02 -0.89961406549E+01 -0.12872592539E+03  0.13433558215E+03  0.00000000000E+00 0.  1.
         14    1    3    3    0    0 -0.71145693603E+01  0.73353549246E+02 -0.24761329239E+03  0.25834802661E+03  0.00000000000E+00 0. -1.
          1    1    1    2  501    0  0.44460977707E+02 -0.64357408591E+02 -0.44410280363E+03  0.45093897012E+03  0.00000000000E+00 0. -1.
<mgrwt>
<rscale>  1 0.11211249E+03</rscale>
<asrwt>0</asrwt>
<pdfrwt beam="1">  1       21 0.12800499E+00 0.11211249E+03</pdfrwt>
<pdfrwt beam="2">  1        2 0.17831195E-02 0.11211249E+03</pdfrwt>
<totfact> 0.34213039E+04</totfact>
</mgrwt>
</event>
<event>
 6    2  0.8544106E+000  0.7135390E+02  0.7546771E-02  0.1355549E+00
          2   -1    0    0  502    0 -0.00000000000E+00  0.00000000000E+00  0.95065970935E+03  0.95065970935E+03  0.00000000000E+00 0. -1.
         21   -1    0    0  501  502  0.00000000000E+00 -0.00000000000E+00 -0.87067992299E+02  0.87067992299E+02  0.00000000000E+00 0. -1.
         24    2    1    2    0    0  0.63858131639E+01  0.26674598096E+02  0.94712375931E+03  0.94980776717E+03  0.65871589783E+02 0.  0.
        -11    1    3    3    0    0 -0.24868662146E+01  0.11059634118E+02  0.24350621805E+02  0.26859873282E+02  0.00000000000E+00 0.  1.
         12    1    3    3    0    0  0.88726793784E+01  0.15614963978E+02  0.92277313750E+03  0.92294789389E+03  0.00000000000E+00 0. -1.
          1    1    1    2  501    0 -0.63858131639E+01 -0.26674598096E+02 -0.83532042262E+02  0.87919934473E+02  0.00000000000E+00 0. -1.
<mgrwt>
<rscale>  1 0.71353901E+02</rscale>
<asrwt>0</asrwt>
<pdfrwt beam="1">  1       21 0.13395076E-01 0.71353901E+02</pdfrwt>
<pdfrwt beam="2">  1        2 0.14625533E+00 0.71353901E+02</pdfrwt>
<totfact> 0.17783997E+04</totfact>
</mgrwt>
</event>
<event>
 6    2  0.8544106E+000  0.8195888E+02  0.7546771E-02  0.1323583E+00
          4   -1    0    0  502    0 -0.00000000000E+00  0.00000000000E+00  0.36453017990E+03  0.36453017990E+03  0.00000000000E+00 0. -1.
         21   -1    0    0  501  502  0.00000000000E+00 -0.00000000000E+00 -0.76301724826E+01  0.76301724826E+01  0.00000000000E+00 0. -1.
         24    2    1    2    0    0 -0.23477136539E+02 -0.13204871426E+01  0.27575988980E+03  0.28768172601E+03  0.78513304813E+02 0.  0.
        -11    1    3    3    0    0  0.24712619332E+02  0.15576837764E+02  0.73939896097E+02  0.79501318630E+02  0.00000000000E+00 0.  1.
         12    1    3    3    0    0 -0.48189755871E+02 -0.16897324907E+02  0.20181999370E+03  0.20818040738E+03  0.00000000000E+00 0. -1.
          3    1    1    2  501    0  0.23477136539E+02  0.13204871426E+01  0.81140117618E+02  0.84478626370E+02  0.00000000000E+00 0. -1.
<mgrwt>
<rscale>  1 0.81958884E+02</rscale>
<asrwt>0</asrwt>
<pdfrwt beam="1">  1       21 0.11738730E-02 0.81958884E+02</pdfrwt>
<pdfrwt beam="2">  1        4 0.56081553E-01 0.81958884E+02</pdfrwt>
<totfact> 0.32101020E+05</totfact>
</mgrwt>
</event>
<event>
 6    2  0.8544106E+000  0.8336294E+02  0.7546771E-02  0.1319770E+00
         21   -1    0    0  501  502  0.00000000000E+00  0.00000000000E+00  0.18360813732E+03  0.18360813732E+03  0.00000000000E+00 0.  1.
          2   -1    0    0  502    0 -0.00000000000E+00 -0.00000000000E+00 -0.29394708607E+02  0.29394708607E+02  0.00000000000E+00 0. -1.
         24    2    1    2    0    0  0.20626016747E+02  0.10767091037E+02  0.33131227670E+02  0.89705391673E+02  0.80050085772E+02 0.  0.
        -11    1    3    3    0    0 -0.29566145071E+02 -0.30474304998E+01  0.38337663463E+01  0.29969009516E+02  0.00000000000E+00 0.  1.
         12    1    3    3    0    0  0.50192161817E+02  0.13814521536E+02  0.29297461324E+02  0.59736382157E+02  0.00000000000E+00 0. -1.
          1    1    1    2  501    0 -0.20626016747E+02 -0.10767091037E+02  0.12108220104E+03  0.12329745425E+03  0.00000000000E+00 0. -1.
<mgrwt>
<rscale>  1 0.83362936E+02</rscale>
<asrwt>0</asrwt>
<pdfrwt beam="1">  1       21 0.28247405E-01 0.83362936E+02</pdfrwt>
<pdfrwt beam="2">  1        2 0.45222630E-02 0.83362936E+02</pdfrwt>
<totfact> 0.24393776E+05</totfact>
</mgrwt>
</event>
<event>
 6    2  0.8544106E+000  0.8884226E+02  0.7546771E-02  0.1305680E+00
          2   -1    0    0  502    0 -0.00000000000E+00  0.00000000000E+00  0.41701912346E+03  0.41701912346E+03  0.00000000000E+00 0. -1.
         21   -1    0    0  501  502  0.00000000000E+00 -0.00000000000E+00 -0.90023272442E+01  0.90023272442E+01  0.00000000000E+00 0. -1.
         24    2    1    2    0    0 -0.16646920551E+02  0.22812609859E+02  0.24575925165E+03  0.26132462044E+03  0.84234270587E+02 0.  0.
        -11    1    3    3    0    0  0.38090874273E+01 -0.18004766131E+02  0.95312346223E+01  0.20724989358E+02  0.00000000000E+00 0.  1.
         12    1    3    3    0    0 -0.20456007978E+02  0.40817375990E+02  0.23622801703E+03  0.24059963108E+03  0.00000000000E+00 0. -1.
          1    1    1    2  501    0  0.16646920551E+02 -0.22812609859E+02  0.16225754457E+03  0.16469683027E+03  0.00000000000E+00 0. -1.
<mgrwt>
<rscale>  1 0.88842262E+02</rscale>
<asrwt>0</asrwt>
<pdfrwt beam="1">  1       21 0.13849737E-02 0.88842262E+02</pdfrwt>
<pdfrwt beam="2">  1        2 0.64156773E-01 0.88842262E+02</pdfrwt>
<totfact> 0.19655977E+06</totfact>
</mgrwt>
</event>
<event>
 6    2  0.8544106E+000  0.8545983E+02  0.7546771E-02  0.1314234E+00
          2   -1    0    0  502    0 -0.00000000000E+00  0.00000000000E+00  0.66787711482E+03  0.66787711482E+03  0.00000000000E+00 0. -1.
         21   -1    0    0  501  502  0.00000000000E+00 -0.00000000000E+00 -0.52386257106E+01  0.52386257106E+01  0.00000000000E+00 0.  1.
         24    2    1    2    0    0 -0.12061368683E+01  0.29175080576E+02  0.55691898798E+03  0.56343778919E+03  0.80316517689E+02 0.  0.
        -13    1    3    3    0    0 -0.22280048483E+02  0.15960385337E+02  0.60754359417E+02  0.66650031123E+02  0.00000000000E+00 0.  1.
         14    1    3    3    0    0  0.21073911615E+02  0.13214695239E+02  0.49616462857E+03  0.49678775806E+03  0.00000000000E+00 0. -1.
          1    1    1    2  501    0  0.12061368683E+01 -0.29175080576E+02  0.10571950112E+03  0.10967795134E+03  0.00000000000E+00 0. -1.
<mgrwt>
<rscale>  1 0.85459833E+02</rscale>
<asrwt>0</asrwt>
<pdfrwt beam="1">  1       21 0.80594295E-03 0.85459833E+02</pdfrwt>
<pdfrwt beam="2">  1        2 0.10275026E+00 0.85459833E+02</pdfrwt>
<totfact> 0.27279683E+06</totfact>
</mgrwt>
</event>
<event>
 6    2  0.8544106E+000  0.8716527E+02  0.7546771E-02  0.1309865E+00
          2   -1    0    0  502    0 -0.00000000000E+00  0.00000000000E+00  0.93222105158E+03  0.93222105158E+03  0.00000000000E+00 0. -1.
         21   -1    0    0  501  502  0.00000000000E+00 -0.00000000000E+00 -0.59124989406E+01  0.59124989406E+01  0.00000000000E+00 0. -1.
         24    2    1    2    0    0 -0.36701302114E+02  0.53524010888E+01  0.83561743974E+03  0.84015134941E+03  0.78880609496E+02 0.  0.
        -13    1    3    3    0    0  0.58360529626E+01 -0.55170700409E+01  0.78831676185E+01  0.11253528679E+02  0.00000000000E+00 0.  1.
         14    1    3    3    0    0 -0.42537355076E+02  0.10869471130E+02  0.82773427212E+03  0.82889782073E+03  0.00000000000E+00 0. -1.
          1    1    1    2  501    0  0.36701302114E+02 -0.53524010888E+01  0.90691112898E+02  0.97982201103E+02  0.00000000000E+00 0. -1.
<mgrwt>
<rscale>  1 0.87165270E+02</rscale>
<asrwt>0</asrwt>
<pdfrwt beam="1">  1       21 0.90961596E-03 0.87165270E+02</pdfrwt>
<pdfrwt beam="2">  1        2 0.14341851E+00 0.87165270E+02</pdfrwt>
<totfact> 0.15098920E+06</totfact>
</mgrwt>
</event>
<event>
 6    2  0.8544106E+000  0.8241023E+02  0.7546771E-02  0.1322347E+00
         21   -1    0    0  501  502  0.00000000000E+00  0.00000000000E+00  0.85665973831E+00  0.85665973831E+00  0.00000000000E+00 0.  1.
          2   -1    0    0  502    0 -0.00000000000E+00 -0.00000000000E+00 -0.30928683287E+04  0.30928683287E+04  0.00000000000E+00 0. -1.
         24    2    1    2    0    0  0.19764111905E+02 -0.49240315483E+01 -0.25468482942E+04  0.25481812492E+04  0.79853484958E+02 0.  0.
        -11    1    3    3    0    0  0.31322947822E+02  0.10379227907E+02 -0.43638039212E+03  0.43762621272E+03  0.00000000000E+00 0.  1.
         12    1    3    3    0    0 -0.11558835916E+02 -0.15303259455E+02 -0.21104679020E+04  0.21105550365E+04  0.00000000000E+00 0. -1.
          1    1    1    2  501    0 -0.19764111905E+02  0.49240315483E+01 -0.54516337477E+03  0.54554373922E+03  0.00000000000E+00 0. -1.
<mgrwt>
<rscale>  1 0.82410225E+02</rscale>
<asrwt>0</asrwt>
<pdfrwt beam="1">  1       21 0.13179609E-03 0.82410225E+02</pdfrwt>
<pdfrwt beam="2">  1        2 0.47581766E+00 0.82410225E+02</pdfrwt>
<totfact> 0.20404837E+06</totfact>
</mgrwt>
</event>
<event>
 6    2  0.8544106E+000  0.8608632E+02  0.7546771E-02  0.1312616E+00
         21   -1    0    0  501  502  0.00000000000E+00  0.00000000000E+00  0.39690163266E+01  0.39690163266E+01  0.00000000000E+00 0.  1.
          2   -1    0    0  502    0 -0.00000000000E+00 -0.00000000000E+00 -0.98918111818E+03  0.98918111818E+03  0.00000000000E+00 0. -1.
         24    2    1    2    0    0 -0.26856960961E+02  0.16729925097E+02 -0.84694210591E+03  0.85130592939E+03  0.80060401649E+02 0.  0.
        -13    1    3    3    0    0 -0.11308715306E+02  0.43780361312E+02 -0.29130395653E+03  0.29479247305E+03  0.00000000000E+00 0.  1.
         14    1    3    3    0    0 -0.15548245655E+02 -0.27050436215E+02 -0.55563814938E+03  0.55651345634E+03  0.00000000000E+00 0. -1.
          1    1    1    2  501    0  0.26856960961E+02 -0.16729925097E+02 -0.13826999594E+03  0.14184420511E+03  0.00000000000E+00 0. -1.
<mgrwt>
<rscale>  1 0.86086321E+02</rscale>
<asrwt>0</asrwt>
<pdfrwt beam="1">  1       21 0.61061768E-03 0.86086321E+02</pdfrwt>
<pdfrwt beam="2">  1        2 0.15218176E+00 0.86086321E+02</pdfrwt>
<totfact> 0.25842422E+06</totfact>
</mgrwt>
</event>
<event>
 6    2  0.8544106E+000  0.8953075E+02  0.7546771E-02  0.1303992E+00
          2   -1    0    0  502    0 -0.00000000000E+00  0.00000000000E+00  0.73567819735E+03  0.73567819735E+03  0.00000000000E+00 0. -1.
         21   -1    0    0  501  502  0.00000000000E+00 -0.00000000000E+00 -0.56160944018E+01  0.56160944018E+01  0.00000000000E+00 0.  1.
         24    2    1    2    0    0 -0.31067902812E+02 -0.14647089599E+02  0.42654285533E+03  0.43583777194E+03  0.82680131837E+02 0.  0.
        -13    1    3    3    0    0 -0.16665473128E+02 -0.29053189368E+02  0.59890369935E+02  0.68619838370E+02  0.00000000000E+00 0.  1.
         14    1    3    3    0    0 -0.14402429684E+02  0.14406099769E+02  0.36665248539E+03  0.36721793357E+03  0.00000000000E+00 0. -1.
          1    1    1    2  501    0  0.31067902812E+02  0.14647089599E+02  0.30351924762E+03  0.30545651982E+03  0.00000000000E+00 0. -1.
<mgrwt>
<rscale>  1 0.89530755E+02</rscale>
<asrwt>0</asrwt>
<pdfrwt beam="1">  1       21 0.86401511E-03 0.89530755E+02</pdfrwt>
<pdfrwt beam="2">  1        2 0.11318118E+00 0.89530755E+02</pdfrwt>
<totfact> 0.21991391E+06</totfact>
</mgrwt>
</event>
<event>
 6    2  0.8544106E+000  0.8846324E+02  0.7546771E-02  0.1306616E+00
         -1   -1    0    0    0  501 -0.00000000000E+00  0.00000000000E+00  0.18364824603E+02  0.18364824603E+02  0.00000000000E+00 0.  1.
         21   -1    0    0  501  502  0.00000000000E+00 -0.00000000000E+00 -0.21070392581E+03  0.21070392581E+03  0.00000000000E+00 0. -1.
         24    2    1    2    0    0 -0.23015076257E+02 -0.27490831520E+02 -0.14086121645E+03  0.16633588684E+03  0.80872154658E+02 0.  0.
        -13    1    3    3    0    0  0.19953834315E+02  0.17281799315E+02 -0.40887283410E+02  0.48668121354E+02  0.00000000000E+00 0.  1.
         14    1    3    3    0    0 -0.42968910572E+02 -0.44772630835E+02 -0.99973933039E+02  0.11766776549E+03  0.00000000000E+00 0. -1.
         -2    1    1    2    0  502  0.23015076257E+02  0.27490831520E+02 -0.51477884760E+02  0.62732863573E+02  0.00000000000E+00 0.  1.
<mgrwt>
<rscale>  1 0.88463241E+02</rscale>
<asrwt>0</asrwt>
<pdfrwt beam="1">  1       21 0.32415988E-01 0.88463241E+02</pdfrwt>
<pdfrwt beam="2">  1       -1 0.28253577E-02 0.88463241E+02</pdfrwt>
<totfact> 0.31137054E+05</totfact>
</mgrwt>
</event>
<event>
 6    2  0.8544106E+000  0.1005865E+03  0.7546771E-02  0.1279067E+00
         21   -1    0    0  501  502  0.00000000000E+00  0.00000000000E+00  0.54158092000E+01  0.54158092000E+01  0.00000000000E+00 0.  1.
          2   -1    0    0  502    0 -0.00000000000E+00 -0.00000000000E+00 -0.97762875840E+03  0.97762875840E+03  0.00000000000E+00 0. -1.
         24    2    1    2    0    0  0.42130351400E+02  0.12499489147E+02 -0.72690799277E+03  0.73383436438E+03  0.90478951472E+02 0.  0.
        -11    1    3    3    0    0  0.48794478910E+02  0.57779744296E+01 -0.17291785608E+03  0.17976337534E+03  0.00000000000E+00 0.  1.
         12    1    3    3    0    0 -0.66641275096E+01  0.67215147172E+01 -0.55399013669E+03  0.55407098905E+03  0.00000000000E+00 0. -1.
          1    1    1    2  501    0 -0.42130351400E+02 -0.12499489147E+02 -0.24530495643E+03  0.24921020322E+03  0.00000000000E+00 0. -1.
<mgrwt>
<rscale>  1 0.10058650E+03</rscale>
<asrwt>0</asrwt>
<pdfrwt beam="1">  1       21 0.83320112E-03 0.10058650E+03</pdfrwt>
<pdfrwt beam="2">  1        2 0.15040448E+00 0.10058650E+03</pdfrwt>
<totfact> 0.16464636E+06</totfact>
</mgrwt>
</event>
<event>
 6    2  0.8544106E+000  0.8657991E+02  0.7546771E-02  0.1311352E+00
         21   -1    0    0  501  502  0.00000000000E+00  0.00000000000E+00  0.73577162186E+02  0.73577162186E+02  0.00000000000E+00 0. -1.
         -1   -1    0    0    0  501 -0.00000000000E+00 -0.00000000000E+00 -0.47054049699E+02  0.47054049699E+02  0.00000000000E+00 0.  1.
         24    2    1    2    0    0 -0.29912306772E+02 -0.78327818854E+01  0.22450538734E+02  0.89443322802E+02  0.80870159737E+02 0.  0.
        -13    1    3    3    0    0  0.21400992616E+02  0.13324076982E+02 -0.75951333217E+01  0.26329063078E+02  0.00000000000E+00 0.  1.
         14    1    3    3    0    0 -0.51313299388E+02 -0.21156858868E+02  0.30045672056E+02  0.63114259724E+02  0.00000000000E+00 0. -1.
         -2    1    1    2    0  502  0.29912306772E+02  0.78327818854E+01  0.40725737534E+01  0.31187889083E+02  0.00000000000E+00 0.  1.
<mgrwt>
<rscale>  1 0.86579913E+02</rscale>
<asrwt>0</asrwt>
<pdfrwt beam="1">  1       21 0.11319563E-01 0.86579913E+02</pdfrwt>
<pdfrwt beam="2">  1       -1 0.72390845E-02 0.86579913E+02</pdfrwt>
<totfact> 0.53835699E+05</totfact>
</mgrwt>
</event>
<event>
 6    2  0.8544106E+000  0.1114404E+03  0.7546771E-02  0.1257925E+00
          2   -1    0    0  502    0 -0.00000000000E+00  0.00000000000E+00  0.20593806051E+03  0.20593806051E+03  0.00000000000E+00 0. -1.
         21   -1    0    0  501  502  0.00000000000E+00 -0.00000000000E+00 -0.23802925547E+02  0.23802925547E+02  0.00000000000E+00 0.  1.
         24    2    1    2    0    0 -0.26940851495E+02 -0.95487897243E+01  0.14566186740E+03  0.18340214586E+03  0.10771248129E+03 0.  0.
        -11    1    3    3    0    0 -0.38220664839E+02  0.30068636460E+02  0.22592973596E+02  0.53622612536E+02  0.00000000000E+00 0.  1.
         12    1    3    3    0    0  0.11279813344E+02 -0.39617426184E+02  0.12306889381E+03  0.12977953332E+03  0.00000000000E+00 0. -1.
          1    1    1    2  501    0  0.26940851495E+02  0.95487897243E+01  0.36473267561E+02  0.46338840200E+02  0.00000000000E+00 0. -1.
<mgrwt>
<rscale>  1 0.11144042E+03</rscale>
<asrwt>0</asrwt>
<pdfrwt beam="1">  1       21 0.36619887E-02 0.11144042E+03</pdfrwt>
<pdfrwt beam="2">  1        2 0.31682777E-01 0.11144042E+03</pdfrwt>
<totfact> 0.88338457E+05</totfact>
</mgrwt>
</event>
<event>
 6    2  0.8544106E+000  0.8245143E+02  0.7546771E-02  0.1322235E+00
         21   -1    0    0  501  502  0.00000000000E+00  0.00000000000E+00  0.11717754414E+03  0.11717754414E+03  0.00000000000E+00 0.  1.
         -3   -1    0    0    0  501 -0.00000000000E+00 -0.00000000000E+00 -0.40529660438E+02  0.40529660438E+02  0.00000000000E+00 0.  1.
         24    2    1    2    0    0  0.79236815937E+01 -0.34531521199E+02  0.11097324746E+02  0.83194880322E+02  0.74451506425E+02 0.  0.
        -13    1    3    3    0    0 -0.17391696619E+02 -0.21950805824E+02 -0.24865537002E+02  0.37451354021E+02  0.00000000000E+00 0.  1.
         14    1    3    3    0    0  0.25315378213E+02 -0.12580715375E+02  0.35962861747E+02  0.45743526301E+02  0.00000000000E+00 0. -1.
         -4    1    1    2    0  502 -0.79236815937E+01  0.34531521199E+02  0.65550558952E+02  0.74512324251E+02  0.00000000000E+00 0.  1.
<mgrwt>
<rscale>  1 0.82451425E+02</rscale>
<asrwt>0</asrwt>
<pdfrwt beam="1">  1       21 0.18027314E-01 0.82451425E+02</pdfrwt>
<pdfrwt beam="2">  1       -3 0.62353324E-02 0.82451425E+02</pdfrwt>
<totfact> 0.19777144E+05</totfact>
</mgrwt>
</event>
<event>
 6    2  0.8544106E+000  0.8253709E+02  0.7546771E-02  0.1322002E+00
         21   -1    0    0  501  502  0.00000000000E+00  0.00000000000E+00  0.33950865551E+03  0.33950865551E+03  0.00000000000E+00 0. -1.
          2   -1    0    0  502    0 -0.00000000000E+00 -0.00000000000E+00 -0.93245268861E+01  0.93245268861E+01  0.00000000000E+00 0. -1.
         24    2    1    2    0    0 -0.42686232530E+01 -0.20336850170E+02  0.19049797294E+03  0.20760984612E+03  0.79878419439E+02 0.  0.
        -11    1    3    3    0    0 -0.25823729140E+02  0.11350497036E+02  0.14680772870E+03  0.14949317034E+03  0.00000000000E+00 0.  1.
         12    1    3    3    0    0  0.21555105887E+02 -0.31687347206E+02  0.43690244232E+02  0.58116675780E+02  0.00000000000E+00 0. -1.
          1    1    1    2  501    0  0.42686232530E+01  0.20336850170E+02  0.13968615569E+03  0.14122333628E+03  0.00000000000E+00 0. -1.
<mgrwt>
<rscale>  1 0.82537086E+02</rscale>
<asrwt>0</asrwt>
<pdfrwt beam="1">  1       21 0.52232091E-01 0.82537086E+02</pdfrwt>
<pdfrwt beam="2">  1        2 0.14345429E-02 0.82537086E+02</pdfrwt>
<totfact> 0.33544349E+05</totfact>
</mgrwt>
</event>
<event>
 6    2  0.8544106E+000  0.1063585E+03  0.7546771E-02  0.1267466E+00
         21   -1    0    0  501  502  0.00000000000E+00  0.00000000000E+00  0.31884613124E+02  0.31884613124E+02  0.00000000000E+00 0. -1.
          2   -1    0    0  502    0 -0.00000000000E+00 -0.00000000000E+00 -0.25637417125E+03  0.25637417125E+03  0.00000000000E+00 0. -1.
         24    2    1    2    0    0 -0.41115449655E+02  0.61886322633E+02 -0.12603509569E+03  0.16491504395E+03  0.76103411516E+02 0.  0.
        -13    1    3    3    0    0  0.19054011922E+02  0.35953124587E+01 -0.10052698952E+02  0.21841208717E+02  0.00000000000E+00 0.  1.
         14    1    3    3    0    0 -0.60169461577E+02  0.58291010174E+02 -0.11598239674E+03  0.14307383523E+03  0.00000000000E+00 0. -1.
          1    1    1    2  501    0  0.41115449655E+02 -0.61886322633E+02 -0.98454462431E+02  0.12334374042E+03  0.00000000000E+00 0. -1.
<mgrwt>
<rscale>  1 0.10635848E+03</rscale>
<asrwt>0</asrwt>
<pdfrwt beam="1">  1       21 0.49053252E-02 0.10635848E+03</pdfrwt>
<pdfrwt beam="2">  1        2 0.39442180E-01 0.10635848E+03</pdfrwt>
<totfact> 0.42918774E+05</totfact>
</mgrwt>
</event>
<event>
 6    2  0.8544106E+000  0.9044405E+02  0.7546771E-02  0.1301780E+00
          2   -1    0    0  502    0 -0.00000000000E+00  0.00000000000E+00  0.22753191269E+04  0.22753191269E+04  0.00000000000E+00 0. -1.
         21   -1    0    0  501  502  0.00000000000E+00 -0.00000000000E+00 -0.66392143519E+01  0.66392143519E+01  0.00000000000E+00 0. -1.
         24    2    1    2    0    0 -0.37732402677E+02  0.18877970248E+02  0.21964301376E+04  0.21982914903E+04  0.80000093197E+02 0.  0.
        -13    1    3    3    0    0 -0.42926341278E+02  0.22034568261E+02  0.62846189650E+03  0.63031146930E+03  0.00000000000E+00 0.  1.
         14    1    3    3    0    0  0.51939386002E+01 -0.31565980131E+01  0.15679682411E+04  0.15679800210E+04  0.00000000000E+00 0. -1.
          1    1    1    2  501    0  0.37732402677E+02 -0.18877970248E+02  0.72249774999E+02  0.83666851021E+02  0.00000000000E+00 0. -1.
<mgrwt>
<rscale>  1 0.90444054E+02</rscale>
<asrwt>0</asrwt>
<pdfrwt beam="1">  1       21 0.10214194E-02 0.90444054E+02</pdfrwt>
<pdfrwt beam="2">  1        2 0.35004847E+00 0.90444054E+02</pdfrwt>
<totfact> 0.25142213E+05</totfact>
</mgrwt>
</event>
<event>
 6    2  0.8544106E+000  0.8815936E+02  0.7546771E-02  0.1307371E+00
         -3   -1    0    0    0  501 -0.00000000000E+00  0.00000000000E+00  0.43961970028E+02  0.43961970028E+02  0.00000000000E+00 0.  1.
         21   -1    0    0  501  502  0.00000000000E+00 -0.00000000000E+00 -0.85175174766E+02  0.85175174766E+02  0.00000000000E+00 0. -1.
         24    2    1    2    0    0 -0.11376047807E+02 -0.32278508091E+02 -0.29568826428E+02  0.92985960934E+02  0.81245042226E+02 0.  0.
        -11    1    3    3    0    0 -0.19538997346E+02 -0.21111453360E+02  0.24122487598E+02  0.37541447604E+02  0.00000000000E+00 0.  1.
         12    1    3    3    0    0  0.81629495391E+01 -0.11167054731E+02 -0.53691314027E+02  0.55444513330E+02  0.00000000000E+00 0. -1.
         -4    1    1    2    0  502  0.11376047807E+02  0.32278508091E+02 -0.11644378310E+02  0.36151183860E+02  0.00000000000E+00 0.  1.
<mgrwt>
<rscale>  1 0.88159364E+02</rscale>
<asrwt>0</asrwt>
<pdfrwt beam="1">  1       21 0.13103873E-01 0.88159364E+02</pdfrwt>
<pdfrwt beam="2">  1       -3 0.67633801E-02 0.88159364E+02</pdfrwt>
<totfact> 0.31057509E+05</totfact>
</mgrwt>
</event>
<event>
 6    2  0.8544106E+000  0.8315422E+02  0.7546771E-02  0.1320331E+00
         21   -1    0    0  501  502  0.00000000000E+00  0.00000000000E+00  0.97676251437E+01  0.97676251437E+01  0.00000000000E+00 0.  1.
          2   -1    0    0  502    0 -0.00000000000E+00 -0.00000000000E+00 -0.33796160095E+03  0.33796160095E+03  0.00000000000E+00 0. -1.
         24    2    1    2    0    0 -0.80656003360E+01 -0.28259339050E+02 -0.20826159549E+03  0.22424878229E+03  0.77788045692E+02 0.  0.
        -13    1    3    3    0    0 -0.84587650651E+01  0.73587249935E+01  0.16535127533E+01  0.11332945089E+02  0.00000000000E+00 0.  1.
         14    1    3    3    0    0  0.39316472906E+00 -0.35618064043E+02 -0.20991510824E+03  0.21291583720E+03  0.00000000000E+00 0. -1.
          1    1    1    2  501    0  0.80656003360E+01  0.28259339050E+02 -0.11993238032E+03  0.12348044381E+03  0.00000000000E+00 0. -1.
<mgrwt>
<rscale>  1 0.83154219E+02</rscale>
<asrwt>0</asrwt>
<pdfrwt beam="1">  1       21 0.15027117E-02 0.83154219E+02</pdfrwt>
<pdfrwt beam="2">  1        2 0.51994086E-01 0.83154219E+02</pdfrwt>
<totfact> 0.21364177E+06</totfact>
</mgrwt>
</event>
<event>
 6    2  0.8544106E+000  0.9099904E+02  0.7546771E-02  0.1300450E+00
          2   -1    0    0  502    0 -0.00000000000E+00  0.00000000000E+00  0.10105146001E+04  0.10105146001E+04  0.00000000000E+00 0. -1.
         21   -1    0    0  501  502  0.00000000000E+00 -0.00000000000E+00 -0.66011427184E+01  0.66011427184E+01  0.00000000000E+00 0. -1.
         24    2    1    2    0    0  0.29287552893E+02  0.30408975032E+02  0.90507029707E+03  0.90963347982E+03  0.80612396500E+02 0.  0.
        -13    1    3    3    0    0 -0.22349952582E+02  0.22839989272E+02  0.19066294160E+03  0.19332238047E+03  0.00000000000E+00 0.  1.
         14    1    3    3    0    0  0.51637505475E+02  0.75689857597E+01  0.71440735546E+03  0.71631109935E+03  0.00000000000E+00 0. -1.
          1    1    1    2  501    0 -0.29287552893E+02 -0.30408975032E+02  0.98843160305E+02  0.10748226298E+03  0.00000000000E+00 0. -1.
<mgrwt>
<rscale>  1 0.90999038E+02</rscale>
<asrwt>0</asrwt>
<pdfrwt beam="1">  1       21 0.10155612E-02 0.90999038E+02</pdfrwt>
<pdfrwt beam="2">  1        2 0.15546366E+00 0.90999038E+02</pdfrwt>
<totfact> 0.11465409E+06</totfact>
</mgrwt>
</event>
<event>
 6    2  0.8544106E+000  0.9730183E+02  0.7546771E-02  0.1286074E+00
          2   -1    0    0  502    0 -0.00000000000E+00  0.00000000000E+00  0.10497035516E+04  0.10497035516E+04  0.00000000000E+00 0. -1.
         21   -1    0    0  501  502  0.00000000000E+00 -0.00000000000E+00 -0.88489868599E+01  0.88489868599E+01  0.00000000000E+00 0. -1.
         24    2    1    2    0    0 -0.42620542455E+02  0.33141698218E+02  0.93178767270E+03  0.93685426510E+03  0.80949146043E+02 0.  0.
        -11    1    3    3    0    0 -0.53598495230E+01  0.15069134860E+01  0.22065207531E+01  0.59889489059E+01  0.00000000000E+00 0.  1.
         12    1    3    3    0    0 -0.37260692932E+02  0.31634784732E+02  0.92958115194E+03  0.93086531619E+03  0.00000000000E+00 0. -1.
          1    1    1    2  501    0  0.42620542455E+02 -0.33141698218E+02  0.10906689208E+03  0.12169827340E+03  0.00000000000E+00 0. -1.
<mgrwt>
<rscale>  1 0.97301835E+02</rscale>
<asrwt>0</asrwt>
<pdfrwt beam="1">  1       21 0.13613834E-02 0.97301835E+02</pdfrwt>
<pdfrwt beam="2">  1        2 0.16149276E+00 0.97301835E+02</pdfrwt>
<totfact> 0.68968151E+05</totfact>
</mgrwt>
</event>
<event>
 6    2  0.8544106E+000  0.8733441E+02  0.7546771E-02  0.1309438E+00
         21   -1    0    0  501  502  0.00000000000E+00  0.00000000000E+00  0.39398899905E+02  0.39398899905E+02  0.00000000000E+00 0. -1.
         -1   -1    0    0    0  501 -0.00000000000E+00 -0.00000000000E+00 -0.10061688807E+03  0.10061688807E+03  0.00000000000E+00 0.  1.
         24    2    1    2    0    0  0.19932775056E+02 -0.31734014869E+02 -0.34087488414E+02  0.93751036406E+02  0.78885592726E+02 0.  0.
        -13    1    3    3    0    0  0.28276700029E+02 -0.36587588133E+02 -0.54318417521E+02  0.71335221678E+02  0.00000000000E+00 0.  1.
         14    1    3    3    0    0 -0.83439249732E+01  0.48535732638E+01  0.20230929107E+02  0.22415814728E+02  0.00000000000E+00 0. -1.
         -2    1    1    2    0  502 -0.19932775056E+02  0.31734014869E+02 -0.27130499756E+02  0.46264751574E+02  0.00000000000E+00 0.  1.
<mgrwt>
<rscale>  1 0.87334415E+02</rscale>
<asrwt>0</asrwt>
<pdfrwt beam="1">  1       21 0.60613692E-02 0.87334415E+02</pdfrwt>
<pdfrwt beam="2">  1       -1 0.15479521E-01 0.87334415E+02</pdfrwt>
<totfact> 0.49624408E+05</totfact>
</mgrwt>
</event>
<event>
 6    2  0.8544106E+000  0.8604327E+02  0.7546771E-02  0.1312727E+00
         -1   -1    0    0    0  501 -0.00000000000E+00  0.00000000000E+00  0.56126132502E+03  0.56126132502E+03  0.00000000000E+00 0.  1.
         21   -1    0    0  501  502  0.00000000000E+00 -0.00000000000E+00 -0.67894067503E+01  0.67894067503E+01  0.00000000000E+00 0.  1.
         24    2    1    2    0    0  0.34708669968E+02 -0.52713194827E+01  0.43929711818E+03  0.44764428196E+03  0.78555499812E+02 0.  0.
        -11    1    3    3    0    0  0.23485667260E+02 -0.33400113580E+02  0.36694278537E+03  0.36920746456E+03  0.00000000000E+00 0.  1.
         12    1    3    3    0    0  0.11223002707E+02  0.28128794097E+02  0.72354332810E+02  0.78436817398E+02  0.00000000000E+00 0. -1.
         -2    1    1    2    0  502 -0.34708669968E+02  0.52713194827E+01  0.11517480008E+03  0.12040644980E+03  0.00000000000E+00 0.  1.
<mgrwt>
<rscale>  1 0.86043275E+02</rscale>
<asrwt>0</asrwt>
<pdfrwt beam="1">  1       21 0.10445246E-02 0.86043275E+02</pdfrwt>
<pdfrwt beam="2">  1       -1 0.86347860E-01 0.86043275E+02</pdfrwt>
<totfact> 0.42554689E+05</totfact>
</mgrwt>
</event>
<event>
 6    2  0.8544106E+000  0.9287261E+02  0.7546771E-02  0.1296041E+00
          4   -1    0    0  502    0 -0.00000000000E+00  0.00000000000E+00  0.32614464431E+02  0.32614464431E+02  0.00000000000E+00 0. -1.
         21   -1    0    0  501  502  0.00000000000E+00 -0.00000000000E+00 -0.18143565462E+03  0.18143565462E+03  0.00000000000E+00 0.  1.
         24    2    1    2    0    0 -0.45664773760E+02  0.14411755195E+02 -0.13563238232E+03  0.16438207195E+03  0.79576078022E+02 0.  0.
        -13    1    3    3    0    0 -0.94816518110E+01 -0.32170409746E+02 -0.56161749150E+02  0.65413905646E+02  0.00000000000E+00 0.  1.
         14    1    3    3    0    0 -0.36183121949E+02  0.46582164940E+02 -0.79470633170E+02  0.98968166301E+02  0.00000000000E+00 0. -1.
          3    1    1    2  501    0  0.45664773760E+02 -0.14411755195E+02 -0.13188807871E+02  0.49668047107E+02  0.00000000000E+00 0. -1.
<mgrwt>
<rscale>  1 0.92872614E+02</rscale>
<asrwt>0</asrwt>
<pdfrwt beam="1">  1       21 0.27913178E-01 0.92872614E+02</pdfrwt>
<pdfrwt beam="2">  1        4 0.50176099E-02 0.92872614E+02</pdfrwt>
<totfact> 0.11138514E+05</totfact>
</mgrwt>
</event>
<event>
 6    2  0.8544106E+000  0.8465280E+02  0.7546771E-02  0.1316343E+00
          2   -1    0    0  502    0 -0.00000000000E+00  0.00000000000E+00  0.47426647891E+02  0.47426647891E+02  0.00000000000E+00 0. -1.
         21   -1    0    0  501  502  0.00000000000E+00 -0.00000000000E+00 -0.21255495958E+03  0.21255495958E+03  0.00000000000E+00 0. -1.
         24    2    1    2    0    0 -0.97649314022E+01  0.28508895165E+02  0.72746284646E+01  0.84964794673E+02  0.79107427753E+02 0.  0.
        -13    1    3    3    0    0 -0.96298567332E+01 -0.24715156943E+02 -0.10965011864E+02  0.28701996596E+02  0.00000000000E+00 0.  1.
         14    1    3    3    0    0 -0.13507466895E+00  0.53224052109E+02  0.18239640329E+02  0.56262798076E+02  0.00000000000E+00 0. -1.
          1    1    1    2  501    0  0.97649314022E+01 -0.28508895165E+02 -0.17240294015E+03  0.17501681280E+03  0.00000000000E+00 0. -1.
<mgrwt>
<rscale>  1 0.84652797E+02</rscale>
<asrwt>0</asrwt>
<pdfrwt beam="1">  1       21 0.32700763E-01 0.84652797E+02</pdfrwt>
<pdfrwt beam="2">  1        2 0.72964074E-02 0.84652797E+02</pdfrwt>
<totfact> 0.10046409E+05</totfact>
</mgrwt>
</event>
<event>
 6    2  0.8544106E+000  0.9477786E+02  0.7546771E-02  0.1291677E+00
         -1   -1    0    0    0  501 -0.00000000000E+00  0.00000000000E+00  0.25766553368E+02  0.25766553368E+02  0.00000000000E+00 0.  1.
         21   -1    0    0  501  502  0.00000000000E+00 -0.00000000000E+00 -0.14214158788E+03  0.14214158788E+03  0.00000000000E+00 0. -1.
         24    2    1    2    0    0 -0.20025059177E+02 -0.49350251318E+01 -0.72166171700E+02  0.11912514196E+03  0.92506678904E+02 0.  0.
        -11    1    3    3    0    0  0.30876283771E+02  0.11843009182E+02 -0.53982419726E+01  0.33507354154E+02  0.00000000000E+00 0.  1.
         12    1    3    3    0    0 -0.50901342949E+02 -0.16778034313E+02 -0.66767929727E+02  0.85617787810E+02  0.00000000000E+00 0. -1.
         -2    1    1    2    0  502  0.20025059177E+02  0.49350251318E+01 -0.44208862817E+02  0.48782999289E+02  0.00000000000E+00 0.  1.
<mgrwt>
<rscale>  1 0.94777862E+02</rscale>
<asrwt>0</asrwt>
<pdfrwt beam="1">  1       21 0.21867936E-01 0.94777862E+02</pdfrwt>
<pdfrwt beam="2">  1       -1 0.39640852E-02 0.94777862E+02</pdfrwt>
<totfact> 0.40366158E+05</totfact>
</mgrwt>
</event>
<event>
 6    2  0.8544106E+000  0.8283221E+02  0.7546771E-02  0.1321201E+00
         -1   -1    0    0    0  501 -0.00000000000E+00  0.00000000000E+00  0.29322419678E+02  0.29322419678E+02  0.00000000000E+00 0.  1.
         21   -1    0    0  501  502  0.00000000000E+00 -0.00000000000E+00 -0.14797892285E+03  0.14797892285E+03  0.00000000000E+00 0.  1.
         24    2    1    2    0    0  0.87459058882E+01  0.19422190998E+02 -0.33212990001E+02  0.89242803385E+02  0.80046629399E+02 0.  0.
        -13    1    3    3    0    0 -0.24826689111E+01  0.36916542763E+02  0.12476251263E+02  0.39046787577E+02  0.00000000000E+00 0.  1.
         14    1    3    3    0    0  0.11228574799E+02 -0.17494351765E+02 -0.45689241264E+02  0.50196015808E+02  0.00000000000E+00 0. -1.
         -2    1    1    2    0  502 -0.87459058882E+01 -0.19422190998E+02 -0.85443513173E+02  0.88058539145E+02  0.00000000000E+00 0.  1.
<mgrwt>
<rscale>  1 0.82832211E+02</rscale>
<asrwt>0</asrwt>
<pdfrwt beam="1">  1       21 0.22765988E-01 0.82832211E+02</pdfrwt>
<pdfrwt beam="2">  1       -1 0.45111414E-02 0.82832211E+02</pdfrwt>
<totfact> 0.30638455E+05</totfact>
</mgrwt>
</event>
<event>
 6    2  0.8544106E+000  0.1408572E+03  0.7546771E-02  0.1212180E+00
          2   -1    0    0  502    0 -0.00000000000E+00  0.00000000000E+00  0.11823458011E+04  0.11823458011E+04  0.00000000000E+00 0. -1.
         21   -1    0    0  501  502  0.00000000000E+00 -0.00000000000E+00 -0.36558956913E+02  0.36558956913E+02  0.00000000000E+00 0. -1.
         24    2    1    2    0    0 -0.11550441980E+03  0.10481767768E+02  0.10725019127E+04  0.10817121211E+04  0.79935109557E+02 0.  0.
        -13    1    3    3    0    0 -0.75668791808E+02 -0.26546403099E+02  0.78709573315E+03  0.79117012754E+03  0.00000000000E+00 0.  1.
         14    1    3    3    0    0 -0.39835627995E+02  0.37028170866E+02  0.28540617953E+03  0.29054199354E+03  0.00000000000E+00 0. -1.
          1    1    1    2  501    0  0.11550441980E+03 -0.10481767768E+02  0.73284931560E+02  0.13719263699E+03  0.00000000000E+00 0. -1.
<mgrwt>
<rscale>  1 0.14085723E+03</rscale>
<asrwt>0</asrwt>
<pdfrwt beam="1">  1       21 0.56244558E-02 0.14085723E+03</pdfrwt>
<pdfrwt beam="2">  1        2 0.18189932E+00 0.14085723E+03</pdfrwt>
<totfact> 0.57818090E+04</totfact>
</mgrwt>
</event>
<event>
 6    2  0.8544106E+000  0.8193584E+02  0.7546771E-02  0.1323646E+00
         21   -1    0    0  501  502  0.00000000000E+00  0.00000000000E+00  0.29218313694E+03  0.29218313694E+03  0.00000000000E+00 0. -1.
         -3   -1    0    0    0  501 -0.00000000000E+00 -0.00000000000E+00 -0.10299812498E+02  0.10299812498E+02  0.00000000000E+00 0.  1.
         24    2    1    2    0    0  0.80612864887E+01  0.19616702306E+02  0.17133789311E+03  0.18992144741E+03  0.79143434494E+02 0.  0.
        -13    1    3    3    0    0  0.30944933406E+02 -0.16967674192E+02  0.10510360299E+03  0.11087045698E+03  0.00000000000E+00 0.  1.
         14    1    3    3    0    0 -0.22883646917E+02  0.36584376498E+02  0.66234290120E+02  0.79050990428E+02  0.00000000000E+00 0. -1.
         -4    1    1    2    0  502 -0.80612864887E+01 -0.19616702306E+02  0.11054543134E+03  0.11256150203E+03  0.00000000000E+00 0.  1.
<mgrwt>
<rscale>  1 0.81935844E+02</rscale>
<asrwt>0</asrwt>
<pdfrwt beam="1">  1       21 0.44951246E-01 0.81935844E+02</pdfrwt>
<pdfrwt beam="2">  1       -3 0.15845868E-02 0.81935844E+02</pdfrwt>
<totfact> 0.28516314E+05</totfact>
</mgrwt>
</event>
<event>
 6    2  0.8544106E+000  0.9988983E+02  0.7546771E-02  0.1280528E+00
          2   -1    0    0  502    0 -0.00000000000E+00  0.00000000000E+00  0.41070381954E+03  0.41070381954E+03  0.00000000000E+00 0. -1.
         21   -1    0    0  501  502  0.00000000000E+00 -0.00000000000E+00 -0.17639235679E+02  0.17639235679E+02  0.00000000000E+00 0.  1.
         24    2    1    2    0    0 -0.35083095265E+02  0.44336049802E+02  0.16083295104E+03  0.18932832729E+03  0.82349672059E+02 0.  0.
        -11    1    3    3    0    0 -0.30327919507E+02  0.17699726511E+02  0.10602524414E+02  0.36680738053E+02  0.00000000000E+00 0.  1.
         12    1    3    3    0    0 -0.47551757583E+01  0.26636323292E+02  0.15023042663E+03  0.15264758924E+03  0.00000000000E+00 0. -1.
          1    1    1    2  501    0  0.35083095265E+02 -0.44336049802E+02  0.23223163281E+03  0.23901472793E+03  0.00000000000E+00 0. -1.
<mgrwt>
<rscale>  1 0.99889826E+02</rscale>
<asrwt>0</asrwt>
<pdfrwt beam="1">  1       21 0.27137289E-02 0.99889826E+02</pdfrwt>
<pdfrwt beam="2">  1        2 0.63185196E-01 0.99889826E+02</pdfrwt>
<totfact> 0.68893800E+05</totfact>
</mgrwt>
</event>
<event>
 6    2  0.8544106E+000  0.8202215E+02  0.7546771E-02  0.1323409E+00
         21   -1    0    0  501  502  0.00000000000E+00  0.00000000000E+00  0.58342130765E+01  0.58342130765E+01  0.00000000000E+00 0.  1.
          2   -1    0    0  502    0 -0.00000000000E+00 -0.00000000000E+00 -0.86413823800E+03  0.86413823800E+03  0.00000000000E+00 0. -1.
         24    2    1    2    0    0 -0.23683255779E+02 -0.35666996206E+00 -0.82520585377E+03  0.82927217157E+03  0.78527763486E+02 0.  0.
        -11    1    3    3    0    0 -0.20972776985E+02 -0.24830637817E+02 -0.14404710795E+03  0.14766850462E+03  0.00000000000E+00 0.  1.
         12    1    3    3    0    0 -0.27104787934E+01  0.24473967855E+02 -0.68115874582E+03  0.68160366695E+03  0.00000000000E+00 0. -1.
          1    1    1    2  501    0  0.23683255779E+02  0.35666996206E+00 -0.33098171161E+02  0.40700279507E+02  0.00000000000E+00 0. -1.
<mgrwt>
<rscale>  1 0.82022152E+02</rscale>
<asrwt>0</asrwt>
<pdfrwt beam="1">  1       21 0.89757073E-03 0.82022152E+02</pdfrwt>
<pdfrwt beam="2">  1        2 0.13294442E+00 0.82022152E+02</pdfrwt>
<totfact> 0.16883580E+06</totfact>
</mgrwt>
</event>
<event>
 6    2  0.8544106E+000  0.8619776E+02  0.7546771E-02  0.1312330E+00
          4   -1    0    0  502    0 -0.00000000000E+00  0.00000000000E+00  0.18582990596E+03  0.18582990596E+03  0.00000000000E+00 0. -1.
         21   -1    0    0  501  502  0.00000000000E+00 -0.00000000000E+00 -0.82178601444E+02  0.82178601444E+02  0.00000000000E+00 0. -1.
         24    2    1    2    0    0  0.20544459329E+02 -0.18186769579E+02  0.17307905909E+03  0.19335566752E+03  0.81714258665E+02 0.  0.
        -13    1    3    3    0    0  0.21835656098E+02 -0.34591639762E+02  0.33677812847E+02  0.52986531278E+02  0.00000000000E+00 0.  1.
         14    1    3    3    0    0 -0.12911967690E+01  0.16404870183E+02  0.13940124625E+03  0.14036913624E+03  0.00000000000E+00 0. -1.
          3    1    1    2  501    0 -0.20544459329E+02  0.18186769579E+02 -0.69427754578E+02  0.74652839883E+02  0.00000000000E+00 0. -1.
<mgrwt>
<rscale>  1 0.86197758E+02</rscale>
<asrwt>0</asrwt>
<pdfrwt beam="1">  1       21 0.12642862E-01 0.86197758E+02</pdfrwt>
<pdfrwt beam="2">  1        4 0.28589216E-01 0.86197758E+02</pdfrwt>
<totfact> 0.23995490E+04</totfact>
</mgrwt>
</event>
<event>
 6    2  0.8544106E+000  0.9564301E+02  0.7546771E-02  0.1289734E+00
          2   -1    0    0  502    0 -0.00000000000E+00  0.00000000000E+00  0.68921409326E+03  0.68921409326E+03  0.00000000000E+00 0. -1.
         21   -1    0    0  501  502  0.00000000000E+00 -0.00000000000E+00 -0.80024137359E+01  0.80024137359E+01  0.00000000000E+00 0.  1.
         24    2    1    2    0    0  0.50243867032E+02 -0.10032038146E+02  0.49079135437E+03  0.50002373787E+03  0.80761977103E+02 0.  0.
        -11    1    3    3    0    0  0.68779609348E+01  0.15833702812E+01 -0.12487746441E+00  0.70589661034E+01  0.00000000000E+00 0.  1.
         12    1    3    3    0    0  0.43365906098E+02 -0.11615408427E+02  0.49091623183E+03  0.49296477176E+03  0.00000000000E+00 0. -1.
          1    1    1    2  501    0 -0.50243867032E+02  0.10032038146E+02  0.19042032516E+03  0.19719276913E+03  0.00000000000E+00 0. -1.
<mgrwt>
<rscale>  1 0.95643008E+02</rscale>
<asrwt>0</asrwt>
<pdfrwt beam="1">  1       21 0.12311411E-02 0.95643008E+02</pdfrwt>
<pdfrwt beam="2">  1        2 0.10603289E+00 0.95643008E+02</pdfrwt>
<totfact> 0.13729033E+06</totfact>
</mgrwt>
</event>
<event>
 6    2  0.8544106E+000  0.8763876E+02  0.7546771E-02  0.1308673E+00
         21   -1    0    0  501  502  0.00000000000E+00  0.00000000000E+00  0.19772297705E+01  0.19772297705E+01  0.00000000000E+00 0.  1.
          2   -1    0    0  502    0 -0.00000000000E+00 -0.00000000000E+00 -0.27380967285E+04  0.27380967285E+04  0.00000000000E+00 0. -1.
         24    2    1    2    0    0  0.35451205717E+02 -0.14893380375E+02 -0.24255937151E+04  0.24271764302E+04  0.78752472237E+02 0.  0.
        -11    1    3    3    0    0  0.45848156387E+02 -0.30779356506E+02 -0.22252593579E+04  0.22259444360E+04  0.00000000000E+00 0.  1.
         12    1    3    3    0    0 -0.10396950669E+02  0.15885976131E+02 -0.20033435719E+03  0.20123199421E+03  0.00000000000E+00 0. -1.
          1    1    1    2  501    0 -0.35451205717E+02  0.14893380375E+02 -0.31052578363E+03  0.31289752806E+03  0.00000000000E+00 0. -1.
<mgrwt>
<rscale>  1 0.87638762E+02</rscale>
<asrwt>0</asrwt>
<pdfrwt beam="1">  1       21 0.30418794E-03 0.87638762E+02</pdfrwt>
<pdfrwt beam="2">  1        2 0.42124739E+00 0.87638762E+02</pdfrwt>
<totfact> 0.92337972E+05</totfact>
</mgrwt>
</event>
<event>
 6    2  0.8544106E+000  0.8933057E+02  0.7546771E-02  0.1304481E+00
         21   -1    0    0  501  502  0.00000000000E+00  0.00000000000E+00  0.34007085581E+02  0.34007085581E+02  0.00000000000E+00 0.  1.
         -3   -1    0    0    0  501 -0.00000000000E+00 -0.00000000000E+00 -0.19388467884E+03  0.19388467884E+03  0.00000000000E+00 0.  1.
         24    2    1    2    0    0  0.31511644735E+02 -0.20205323383E+02 -0.16736893147E+03  0.18971639284E+03  0.81109257468E+02 0.  0.
        -11    1    3    3    0    0  0.56873924015E+02 -0.25998016533E+02 -0.10617481602E+03  0.12322187977E+03  0.00000000000E+00 0.  1.
         12    1    3    3    0    0 -0.25362279280E+02  0.57926931496E+01 -0.61194115446E+02  0.66494513078E+02  0.00000000000E+00 0. -1.
         -4    1    1    2    0  502 -0.31511644735E+02  0.20205323383E+02  0.74913382057E+01  0.38175371577E+02  0.00000000000E+00 0.  1.
<mgrwt>
<rscale>  1 0.89330569E+02</rscale>
<asrwt>0</asrwt>
<pdfrwt beam="1">  1       21 0.52318595E-02 0.89330569E+02</pdfrwt>
<pdfrwt beam="2">  1       -3 0.29828411E-01 0.89330569E+02</pdfrwt>
<totfact> 0.12150965E+05</totfact>
</mgrwt>
</event>
<event>
 6    2  0.8544106E+000  0.8402229E+02  0.7546771E-02  0.1318009E+00
         -1   -1    0    0    0  501 -0.00000000000E+00  0.00000000000E+00  0.13353445280E+04  0.13353445280E+04  0.00000000000E+00 0.  1.
         21   -1    0    0  501  502  0.00000000000E+00 -0.00000000000E+00 -0.23108215161E+01  0.23108215161E+01  0.00000000000E+00 0. -1.
         24    2    1    2    0    0  0.23151442563E+02 -0.82433253229E+01  0.11343519078E+04  0.11374594484E+04  0.80348019663E+02 0.  0.
        -13    1    3    3    0    0  0.16514927745E+02  0.60809253087E+00  0.11153442481E+04  0.11154666756E+04  0.00000000000E+00 0.  1.
         14    1    3    3    0    0  0.66365148186E+01 -0.88514178538E+01  0.19007659715E+02  0.21992772786E+02  0.00000000000E+00 0. -1.
         -2    1    1    2    0  502 -0.23151442563E+02  0.82433253229E+01  0.19868179864E+03  0.20019590110E+03  0.00000000000E+00 0.  1.
<mgrwt>
<rscale>  1 0.84022294E+02</rscale>
<asrwt>0</asrwt>
<pdfrwt beam="1">  1       21 0.35551207E-03 0.84022294E+02</pdfrwt>
<pdfrwt beam="2">  1       -1 0.20543700E+00 0.84022294E+02</pdfrwt>
<totfact> 0.26260586E+05</totfact>
</mgrwt>
</event>
<event>
 6    2  0.8544106E+000  0.8390952E+02  0.7546771E-02  0.1318309E+00
         21   -1    0    0  501  502  0.00000000000E+00  0.00000000000E+00  0.41182887791E+02  0.41182887791E+02  0.00000000000E+00 0. -1.
          2   -1    0    0  502    0 -0.00000000000E+00 -0.00000000000E+00 -0.12772823260E+03  0.12772823260E+03  0.00000000000E+00 0. -1.
         24    2    1    2    0    0 -0.21481462970E+02 -0.88021583415E+01 -0.10836342121E+03  0.13705268822E+03  0.80634217611E+02 0.  0.
        -13    1    3    3    0    0 -0.24722466749E+02 -0.81693137476E+01  0.24845722429E+01  0.26155518509E+02  0.00000000000E+00 0.  1.
         14    1    3    3    0    0  0.32410037790E+01 -0.63284459391E+00 -0.11084799345E+03  0.11089716971E+03  0.00000000000E+00 0. -1.
          1    1    1    2  501    0  0.21481462970E+02  0.88021583415E+01  0.21818076397E+02  0.31858432172E+02  0.00000000000E+00 0. -1.
<mgrwt>
<rscale>  1 0.83909524E+02</rscale>
<asrwt>0</asrwt>
<pdfrwt beam="1">  1       21 0.63358289E-02 0.83909524E+02</pdfrwt>
<pdfrwt beam="2">  1        2 0.19650497E-01 0.83909524E+02</pdfrwt>
<totfact> 0.58148710E+05</totfact>
</mgrwt>
</event>
<event>
 6    2  0.8544106E+000  0.8950323E+02  0.7546771E-02  0.1304059E+00
         21   -1    0    0  501  502  0.00000000000E+00  0.00000000000E+00  0.11700650667E+04  0.11700650667E+04  0.00000000000E+00 0. -1.
         -1   -1    0    0    0  501 -0.00000000000E+00 -0.00000000000E+00 -0.42173371421E+01  0.42173371421E+01  0.00000000000E+00 0.  1.
         24    2    1    2    0    0 -0.18471834542E+02  0.34966092942E+02  0.55638102531E+03  0.56353409241E+03  0.80293160726E+02 0.  0.
        -13    1    3    3    0    0  0.12864335885E+01 -0.33925057650E+01 -0.15439917193E+01  0.39430847281E+01  0.00000000000E+00 0.  1.
         14    1    3    3    0    0 -0.19758268130E+02  0.38358598707E+02  0.55792501703E+03  0.55959100769E+03  0.00000000000E+00 0. -1.
         -2    1    1    2    0  502  0.18471834542E+02 -0.34966092942E+02  0.60946670422E+03  0.61074831140E+03  0.00000000000E+00 0.  1.
<mgrwt>
<rscale>  1 0.89503229E+02</rscale>
<asrwt>0</asrwt>
<pdfrwt beam="1">  1       21 0.18000975E+00 0.89503229E+02</pdfrwt>
<pdfrwt beam="2">  1       -1 0.64882203E-03 0.89503229E+02</pdfrwt>
<totfact> 0.54963875E+04</totfact>
</mgrwt>
</event>
<event>
 6    2  0.8544106E+000  0.8282368E+02  0.7546771E-02  0.1321224E+00
          2   -1    0    0  502    0 -0.00000000000E+00  0.00000000000E+00  0.18467583188E+04  0.18467583188E+04  0.00000000000E+00 0. -1.
         21   -1    0    0  501  502  0.00000000000E+00 -0.00000000000E+00 -0.70864354320E+01  0.70864354320E+01  0.00000000000E+00 0. -1.
         24    2    1    2    0    0 -0.16311190428E+02  0.12563845448E+02  0.18285864142E+04  0.18304611537E+04  0.80223787045E+02 0.  0.
        -13    1    3    3    0    0 -0.11697892177E+02 -0.33686369066E+02  0.67943845961E+03  0.68037359777E+03  0.00000000000E+00 0.  1.
         14    1    3    3    0    0 -0.46132982508E+01  0.46250214514E+02  0.11491479546E+04  0.11500875559E+04  0.00000000000E+00 0. -1.
          1    1    1    2  501    0  0.16311190428E+02 -0.12563845448E+02  0.11085469180E+02  0.23383600504E+02  0.00000000000E+00 0. -1.
<mgrwt>
<rscale>  1 0.82823675E+02</rscale>
<asrwt>0</asrwt>
<pdfrwt beam="1">  1       21 0.10902223E-02 0.82823675E+02</pdfrwt>
<pdfrwt beam="2">  1        2 0.28411628E+00 0.82823675E+02</pdfrwt>
<totfact> 0.37261361E+05</totfact>
</mgrwt>
</event>
<event>
 6    2  0.8544106E+000  0.8469346E+02  0.7546771E-02  0.1316236E+00
          2   -1    0    0  502    0 -0.00000000000E+00  0.00000000000E+00  0.18188329760E+03  0.18188329760E+03  0.00000000000E+00 0. -1.
         21   -1    0    0  501  502  0.00000000000E+00 -0.00000000000E+00 -0.25744839878E+02  0.25744839878E+02  0.00000000000E+00 0. -1.
         24    2    1    2    0    0 -0.14506598277E+01 -0.20197057832E+02  0.16504489883E+03  0.18550687503E+03  0.82237196530E+02 0.  0.
        -11    1    3    3    0    0 -0.30741654002E+02 -0.26412796926E+02  0.40065746090E+02  0.56990781202E+02  0.00000000000E+00 0.  1.
         12    1    3    3    0    0  0.29290994175E+02  0.62157390935E+01  0.12497915274E+03  0.12851609383E+03  0.00000000000E+00 0. -1.
          1    1    1    2  501    0  0.14506598277E+01  0.20197057832E+02 -0.89064411116E+01  0.22121262448E+02  0.00000000000E+00 0. -1.
<mgrwt>
<rscale>  1 0.84693459E+02</rscale>
<asrwt>0</asrwt>
<pdfrwt beam="1">  1       21 0.39607447E-02 0.84693459E+02</pdfrwt>
<pdfrwt beam="2">  1        2 0.27982045E-01 0.84693459E+02</pdfrwt>
<totfact> 0.86294553E+05</totfact>
</mgrwt>
</event>
<event>
 6    2  0.8544106E+000  0.9529742E+02  0.7546771E-02  0.1290508E+00
         21   -1    0    0  501  502  0.00000000000E+00  0.00000000000E+00  0.51208952385E+02  0.51208952385E+02  0.00000000000E+00 0. -1.
          2   -1    0    0  502    0 -0.00000000000E+00 -0.00000000000E+00 -0.13536112156E+03  0.13536112156E+03  0.00000000000E+00 0. -1.
         24    2    1    2    0    0  0.22758365517E+02 -0.46198774016E+02 -0.94313532810E+02  0.13407699600E+03  0.80183093378E+02 0.  0.
        -11    1    3    3    0    0 -0.22555739301E+02 -0.20175398304E+02 -0.51039722161E+01  0.30689714963E+02  0.00000000000E+00 0.  1.
         12    1    3    3    0    0  0.45314104817E+02 -0.26023375712E+02 -0.89209560594E+02  0.10338728104E+03  0.00000000000E+00 0. -1.
          1    1    1    2  501    0 -0.22758365517E+02  0.46198774016E+02  0.10161363631E+02  0.52493077948E+02  0.00000000000E+00 0. -1.
<mgrwt>
<rscale>  1 0.95297421E+02</rscale>
<asrwt>0</asrwt>
<pdfrwt beam="1">  1       21 0.78783004E-02 0.95297421E+02</pdfrwt>
<pdfrwt beam="2">  1        2 0.20824788E-01 0.95297421E+02</pdfrwt>
<totfact> 0.38105836E+05</totfact>
</mgrwt>
</event>
<event>
 6    2  0.8544106E+000  0.8327946E+02  0.7546771E-02  0.1319994E+00
          2   -1    0    0  502    0 -0.00000000000E+00  0.00000000000E+00  0.11889229774E+03  0.11889229774E+03  0.00000000000E+00 0. -1.
         21   -1    0    0  501  502  0.00000000000E+00 -0.00000000000E+00 -0.35870146917E+02  0.35870146917E+02  0.00000000000E+00 0. -1.
         24    2    1    2    0    0  0.21315155192E+02  0.66642753518E+01  0.97440320778E+02  0.12817989340E+03  0.80229175183E+02 0.  0.
        -13    1    3    3    0    0  0.27904510445E+02  0.22491747190E+02  0.74957199467E+01  0.36615928397E+02  0.00000000000E+00 0.  1.
         14    1    3    3    0    0 -0.65893552528E+01 -0.15827471839E+02  0.89944600832E+02  0.91563964998E+02  0.00000000000E+00 0. -1.
          1    1    1    2  501    0 -0.21315155192E+02 -0.66642753518E+01 -0.14418169954E+02  0.26582551263E+02  0.00000000000E+00 0. -1.
<mgrwt>
<rscale>  1 0.83279463E+02</rscale>
<asrwt>0</asrwt>
<pdfrwt beam="1">  1       21 0.55184842E-02 0.83279463E+02</pdfrwt>
<pdfrwt beam="2">  1        2 0.18291122E-01 0.83279463E+02</pdfrwt>
<totfact> 0.79357060E+05</totfact>
</mgrwt>
</event>
<event>
 6    2  0.8544106E+000  0.9604716E+02  0.7546771E-02  0.1288835E+00
         21   -1    0    0  501  502  0.00000000000E+00  0.00000000000E+00  0.95530831177E+02  0.95530831177E+02  0.00000000000E+00 0. -1.
          2   -1    0    0  502    0 -0.00000000000E+00 -0.00000000000E+00 -0.59158265602E+02  0.59158265602E+02  0.00000000000E+00 0. -1.
         24    2    1    2    0    0  0.49223234136E+02  0.20666326145E+02  0.15125976815E+02  0.97230926349E+02  0.79843810336E+02 0.  0.
        -13    1    3    3    0    0 -0.20618886490E+02 -0.46903455951E+00  0.12699496853E+02  0.24220563450E+02  0.00000000000E+00 0.  1.
         14    1    3    3    0    0  0.69842120627E+02  0.21135360704E+02  0.24264799623E+01  0.73010362899E+02  0.00000000000E+00 0. -1.
          1    1    1    2  501    0 -0.49223234136E+02 -0.20666326145E+02  0.21246588760E+02  0.57458170429E+02  0.00000000000E+00 0. -1.
<mgrwt>
<rscale>  1 0.96047165E+02</rscale>
<asrwt>0</asrwt>
<pdfrwt beam="1">  1       21 0.14697051E-01 0.96047165E+02</pdfrwt>
<pdfrwt beam="2">  1        2 0.91012716E-02 0.96047165E+02</pdfrwt>
<totfact> 0.33829787E+05</totfact>
</mgrwt>
</event>
<event>
 6    2  0.8544106E+000  0.8362595E+02  0.7546771E-02  0.1319065E+00
         21   -1    0    0  501  502  0.00000000000E+00  0.00000000000E+00  0.53522840532E+03  0.53522840532E+03  0.00000000000E+00 0. -1.
          2   -1    0    0  502    0 -0.00000000000E+00 -0.00000000000E+00 -0.23914410677E+02  0.23914410677E+02  0.00000000000E+00 0. -1.
         24    2    1    2    0    0  0.19752364089E+02  0.15069424215E+02  0.50565474209E+02  0.97724954927E+02  0.79850211021E+02 0.  0.
        -11    1    3    3    0    0  0.23922806972E+02 -0.14922248327E+02  0.59761733410E+02  0.66079035774E+02  0.00000000000E+00 0.  1.
         12    1    3    3    0    0 -0.41704428823E+01  0.29991672543E+02 -0.91962592015E+01  0.31645919153E+02  0.00000000000E+00 0. -1.
          1    1    1    2  501    0 -0.19752364089E+02 -0.15069424215E+02  0.46074852043E+03  0.46141786107E+03  0.00000000000E+00 0. -1.
<mgrwt>
<rscale>  1 0.83625951E+02</rscale>
<asrwt>0</asrwt>
<pdfrwt beam="1">  1       21 0.82342823E-01 0.83625951E+02</pdfrwt>
<pdfrwt beam="2">  1        2 0.36791405E-02 0.83625951E+02</pdfrwt>
<totfact> 0.36163369E+04</totfact>
</mgrwt>
</event>
<event>
 6    2  0.8544106E+000  0.8781177E+02  0.7546771E-02  0.1308239E+00
         21   -1    0    0  501  502  0.00000000000E+00  0.00000000000E+00  0.12911097338E+02  0.12911097338E+02  0.00000000000E+00 0.  1.
         -3   -1    0    0    0  501 -0.00000000000E+00 -0.00000000000E+00 -0.24177967894E+03  0.24177967894E+03  0.00000000000E+00 0.  1.
         24    2    1    2    0    0  0.44064491443E+01 -0.22644791713E+02 -0.19309146235E+03  0.21212076750E+03  0.84727231657E+02 0.  0.
        -11    1    3    3    0    0 -0.14073272579E+02 -0.44654678187E+02 -0.16653190583E+03  0.17298836072E+03  0.00000000000E+00 0.  1.
         12    1    3    3    0    0  0.18479721723E+02  0.22009886474E+02 -0.26559556524E+02  0.39132406779E+02  0.00000000000E+00 0. -1.
         -4    1    1    2    0  502 -0.44064491443E+01  0.22644791713E+02 -0.35777119246E+02  0.42570008778E+02  0.00000000000E+00 0.  1.
<mgrwt>
<rscale>  1 0.87811771E+02</rscale>
<asrwt>0</asrwt>
<pdfrwt beam="1">  1       21 0.19863227E-02 0.87811771E+02</pdfrwt>
<pdfrwt beam="2">  1       -3 0.37196873E-01 0.87811771E+02</pdfrwt>
<totfact> 0.39013186E+05</totfact>
</mgrwt>
</event>
<event>
 6    2  0.8544106E+000  0.7092850E+02  0.7546771E-02  0.1356964E+00
         21   -1    0    0  501  502  0.00000000000E+00  0.00000000000E+00  0.26836614586E+01  0.26836614586E+01  0.00000000000E+00 0. -1.
          2   -1    0    0  502    0 -0.00000000000E+00 -0.00000000000E+00 -0.83620555278E+03  0.83620555278E+03  0.00000000000E+00 0. -1.
         24    2    1    2    0    0  0.11960149194E+02 -0.19275542878E+02 -0.68204728704E+03  0.68572542131E+03  0.67203124560E+02 0.  0.
        -13    1    3    3    0    0 -0.27798855213E+02 -0.29879584115E+01 -0.27228680846E+03  0.27371848734E+03  0.00000000000E+00 0.  1.
         14    1    3    3    0    0  0.39759004407E+02 -0.16287584466E+02 -0.40976047858E+03  0.41200693398E+03  0.00000000000E+00 0. -1.
          1    1    1    2  501    0 -0.11960149194E+02  0.19275542878E+02 -0.15147460427E+03  0.15316379292E+03  0.00000000000E+00 0. -1.
<mgrwt>
<rscale>  1 0.70928497E+02</rscale>
<asrwt>0</asrwt>
<pdfrwt beam="1">  1       21 0.41287091E-03 0.70928497E+02</pdfrwt>
<pdfrwt beam="2">  1        2 0.12864704E+00 0.70928497E+02</pdfrwt>
<totfact> 0.56912858E+06</totfact>
</mgrwt>
</event>
<event>
 6    2  0.8544106E+000  0.1065220E+03  0.7546771E-02  0.1267150E+00
         -3   -1    0    0    0  501 -0.00000000000E+00  0.00000000000E+00  0.26736742428E+04  0.26736742428E+04  0.00000000000E+00 0.  1.
         21   -1    0    0  501  502  0.00000000000E+00 -0.00000000000E+00 -0.28555353202E+01  0.28555353202E+01  0.00000000000E+00 0.  1.
         24    2    1    2    0    0 -0.40553978343E+02 -0.52483675165E+02  0.18310589472E+04  0.18341547926E+04  0.83353305982E+02 0.  0.
        -13    1    3    3    0    0 -0.59266995137E+02 -0.60748222009E+02  0.15720420430E+04  0.15743313210E+04  0.00000000000E+00 0.  1.
         14    1    3    3    0    0  0.18713016794E+02  0.82645468445E+01  0.25901690422E+03  0.25982347162E+03  0.00000000000E+00 0. -1.
         -4    1    1    2    0  502  0.40553978343E+02  0.52483675165E+02  0.83975976023E+03  0.84237498552E+03  0.00000000000E+00 0.  1.
<mgrwt>
<rscale>  1 0.10652199E+03</rscale>
<asrwt>0</asrwt>
<pdfrwt beam="1">  1       21 0.43931526E-03 0.10652199E+03</pdfrwt>
<pdfrwt beam="2">  1       -3 0.41133250E+00 0.10652199E+03</pdfrwt>
<totfact> 0.77252503E+03</totfact>
</mgrwt>
</event>
<event>
 6    2  0.8544106E+000  0.8444700E+02  0.7546771E-02  0.1316885E+00
         21   -1    0    0  501  502  0.00000000000E+00  0.00000000000E+00  0.30790437411E+02  0.30790437411E+02  0.00000000000E+00 0. -1.
          2   -1    0    0  502    0 -0.00000000000E+00 -0.00000000000E+00 -0.25720824559E+03  0.25720824559E+03  0.00000000000E+00 0. -1.
         24    2    1    2    0    0  0.24907406907E+02 -0.55438678375E+01 -0.24320896850E+03  0.25745271021E+03  0.80499579167E+02 0.  0.
        -13    1    3    3    0    0  0.24207617394E+02 -0.60774893491E+01 -0.14748888539E+02  0.28990935304E+02  0.00000000000E+00 0.  1.
         14    1    3    3    0    0  0.69978951300E+00  0.53362151153E+00 -0.22846007996E+03  0.22846177490E+03  0.00000000000E+00 0. -1.
          1    1    1    2  501    0 -0.24907406907E+02  0.55438678375E+01  0.16791160315E+02  0.30545972797E+02  0.00000000000E+00 0. -1.
<mgrwt>
<rscale>  1 0.84446999E+02</rscale>
<asrwt>0</asrwt>
<pdfrwt beam="1">  1       21 0.47369903E-02 0.84446999E+02</pdfrwt>
<pdfrwt beam="2">  1        2 0.39570500E-01 0.84446999E+02</pdfrwt>
<totfact> 0.44492717E+05</totfact>
</mgrwt>
</event>
<event>
 6    2  0.8544106E+000  0.9221531E+02  0.7546771E-02  0.1297574E+00
         21   -1    0    0  501  502  0.00000000000E+00  0.00000000000E+00  0.13146097243E+02  0.13146097243E+02  0.00000000000E+00 0. -1.
          2   -1    0    0  502    0 -0.00000000000E+00 -0.00000000000E+00 -0.46416001610E+03  0.46416001610E+03  0.00000000000E+00 0. -1.
         24    2    1    2    0    0 -0.44604017212E+02  0.70400800260E+01 -0.39362082014E+03  0.40427838670E+03  0.80402629478E+02 0.  0.
        -11    1    3    3    0    0  0.15194110918E+02 -0.20384732979E+02 -0.84859312785E+02  0.88586123696E+02  0.00000000000E+00 0.  1.
         12    1    3    3    0    0 -0.59798128130E+02  0.27424813005E+02 -0.30876150736E+03  0.31569226301E+03  0.00000000000E+00 0. -1.
          1    1    1    2  501    0  0.44604017212E+02 -0.70400800260E+01 -0.57393098714E+02  0.73027726640E+02  0.00000000000E+00 0. -1.
<mgrwt>
<rscale>  1 0.92215313E+02</rscale>
<asrwt>0</asrwt>
<pdfrwt beam="1">  1       21 0.20224769E-02 0.92215313E+02</pdfrwt>
<pdfrwt beam="2">  1        2 0.71409220E-01 0.92215313E+02</pdfrwt>
<totfact> 0.96468341E+05</totfact>
</mgrwt>
</event>
<event>
 6    2  0.8544106E+000  0.8956584E+02  0.7546771E-02  0.1303906E+00
         -3   -1    0    0    0  501 -0.00000000000E+00  0.00000000000E+00  0.24370870885E+03  0.24370870885E+03  0.00000000000E+00 0.  1.
         21   -1    0    0  501  502  0.00000000000E+00 -0.00000000000E+00 -0.85928228751E+02  0.85928228751E+02  0.00000000000E+00 0.  1.
         24    2    1    2    0    0 -0.21606381050E+02  0.31415378586E+02  0.23063093333E+03  0.24741193988E+03  0.81044918834E+02 0.  0.
        -11    1    3    3    0    0 -0.16050969263E+02  0.46115923936E+02  0.22572893395E+03  0.23094991595E+03  0.00000000000E+00 0.  1.
         12    1    3    3    0    0 -0.55554117868E+01 -0.14700545350E+02  0.49019993808E+01  0.16462023923E+02  0.00000000000E+00 0. -1.
         -4    1    1    2    0  502  0.21606381050E+02 -0.31415378586E+02 -0.72850453237E+02  0.82224997723E+02  0.00000000000E+00 0.  1.
<mgrwt>
<rscale>  1 0.89565845E+02</rscale>
<asrwt>0</asrwt>
<pdfrwt beam="1">  1       21 0.13219728E-01 0.89565845E+02</pdfrwt>
<pdfrwt beam="2">  1       -3 0.37493647E-01 0.89565845E+02</pdfrwt>
<totfact> 0.16226950E+04</totfact>
</mgrwt>
</event>
<event>
 6    2  0.8544106E+000  0.8312755E+02  0.7546771E-02  0.1320403E+00
         21   -1    0    0  501  502  0.00000000000E+00  0.00000000000E+00  0.11076903995E+02  0.11076903995E+02  0.00000000000E+00 0. -1.
          4   -1    0    0  502    0 -0.00000000000E+00 -0.00000000000E+00 -0.12446940111E+04  0.12446940111E+04  0.00000000000E+00 0. -1.
         24    2    1    2    0    0 -0.12603232411E+02 -0.24555622701E+02 -0.12235814853E+04  0.12264019897E+04  0.78411536863E+02 0.  0.
        -11    1    3    3    0    0  0.14116914675E+02  0.20338694033E+01 -0.44749417263E+02  0.46967374316E+02  0.00000000000E+00 0.  1.
         12    1    3    3    0    0 -0.26720147086E+02 -0.26589492104E+02 -0.11788320680E+04  0.11794346154E+04  0.00000000000E+00 0. -1.
          3    1    1    2  501    0  0.12603232411E+02  0.24555622701E+02 -0.10035621804E+02  0.29368925388E+02  0.00000000000E+00 0. -1.
<mgrwt>
<rscale>  1 0.83127548E+02</rscale>
<asrwt>0</asrwt>
<pdfrwt beam="1">  1       21 0.17041385E-02 0.83127548E+02</pdfrwt>
<pdfrwt beam="2">  1        4 0.19149145E+00 0.83127548E+02</pdfrwt>
<totfact> 0.10281378E+04</totfact>
</mgrwt>
</event>
<event>
 6    2  0.2753780E+001  0.6122223E+02  0.7546771E-02  0.1392773E+00
          2   -1    0    0  502    0 -0.00000000000E+00  0.00000000000E+00  0.12502734536E+04  0.12502734536E+04  0.00000000000E+00 0. -1.
         21   -1    0    0  501  502  0.00000000000E+00 -0.00000000000E+00 -0.14347655785E+01  0.14347655785E+01  0.00000000000E+00 0. -1.
         24    2    1    2    0    0  0.17910852971E+02 -0.10782959423E+02  0.10473505914E+04  0.10491384190E+04  0.57542071805E+02 0.  0.
        -11    1    3    3    0    0 -0.16220249221E+02  0.95899958849E+01  0.20957854003E+03  0.21042392675E+03  0.00000000000E+00 0.  1.
         12    1    3    3    0    0  0.34131102192E+02 -0.20372955308E+02  0.83777205142E+03  0.83871449229E+03  0.00000000000E+00 0. -1.
          1    1    1    2  501    0 -0.17910852971E+02  0.10782959423E+02  0.20148809659E+03  0.20256980016E+03  0.00000000000E+00 0. -1.
<mgrwt>
<rscale>  1 0.61222226E+02</rscale>
<asrwt>0</asrwt>
<pdfrwt beam="1">  1       21 0.22073417E-03 0.61222226E+02</pdfrwt>
<pdfrwt beam="2">  1        2 0.19234889E+00 0.61222226E+02</pdfrwt>
<totfact> 0.82877136E+06</totfact>
</mgrwt>
</event>
<event>
 6    2  0.8544106E+000  0.8857298E+02  0.7546771E-02  0.1306345E+00
          2   -1    0    0  502    0 -0.00000000000E+00  0.00000000000E+00  0.12179261317E+02  0.12179261317E+02  0.00000000000E+00 0. -1.
         21   -1    0    0  501  502  0.00000000000E+00 -0.00000000000E+00 -0.34408939168E+03  0.34408939168E+03  0.00000000000E+00 0.  1.
         24    2    1    2    0    0  0.38180185498E+02  0.48644313477E+00 -0.26262134765E+03  0.27715545182E+03  0.79920016499E+02 0.  0.
        -11    1    3    3    0    0  0.52313711000E+02  0.11939913737E+02 -0.24821918135E+03  0.25395284579E+03  0.00000000000E+00 0.  1.
         12    1    3    3    0    0 -0.14133525502E+02 -0.11453470602E+02 -0.14402166307E+02  0.23202606024E+02  0.00000000000E+00 0. -1.
          1    1    1    2  501    0 -0.38180185498E+02 -0.48644313477E+00 -0.69288782709E+02  0.79113201180E+02  0.00000000000E+00 0. -1.
<mgrwt>
<rscale>  1 0.88572977E+02</rscale>
<asrwt>0</asrwt>
<pdfrwt beam="1">  1       21 0.52936832E-01 0.88572977E+02</pdfrwt>
<pdfrwt beam="2">  1        2 0.18737324E-02 0.88572977E+02</pdfrwt>
<totfact> 0.22873882E+05</totfact>
</mgrwt>
</event>
<event>
 6    2  0.8544106E+000  0.1195710E+03  0.7546771E-02  0.1243806E+00
          2   -1    0    0  502    0 -0.00000000000E+00  0.00000000000E+00  0.24551985249E+04  0.24551985249E+04  0.00000000000E+00 0. -1.
         21   -1    0    0  501  502  0.00000000000E+00 -0.00000000000E+00 -0.59875283376E+01  0.59875283376E+01  0.00000000000E+00 0.  1.
         24    2    1    2    0    0  0.38516375646E+02 -0.80342784291E+02  0.19789461837E+04  0.19825552264E+04  0.79741793125E+02 0.  0.
        -11    1    3    3    0    0 -0.29286078415E+01 -0.75600351432E+02  0.14466147936E+04  0.14485918510E+04  0.00000000000E+00 0.  1.
         12    1    3    3    0    0  0.41444983488E+02 -0.47424328590E+01  0.53233139012E+03  0.53396337537E+03  0.00000000000E+00 0. -1.
          1    1    1    2  501    0 -0.38516375646E+02  0.80342784291E+02  0.47026481282E+03  0.47863082680E+03  0.00000000000E+00 0. -1.
<mgrwt>
<rscale>  1 0.11957102E+03</rscale>
<asrwt>0</asrwt>
<pdfrwt beam="1">  1       21 0.92116016E-03 0.11957102E+03</pdfrwt>
<pdfrwt beam="2">  1        2 0.37772205E+00 0.11957102E+03</pdfrwt>
<totfact> 0.23842954E+05</totfact>
</mgrwt>
</event>
<event>
 6    2  0.8903950E+000  0.1013566E+03  0.7546771E-02  0.1277469E+00
         21   -1    0    0  501  502  0.00000000000E+00  0.00000000000E+00  0.91296984780E+01  0.91296984780E+01  0.00000000000E+00 0. -1.
         -3   -1    0    0    0  501 -0.00000000000E+00 -0.00000000000E+00 -0.77678755924E+03  0.77678755924E+03  0.00000000000E+00 0.  1.
         24    2    1    2    0    0 -0.13065733089E+02  0.61394634023E+02 -0.55540035326E+03  0.56457303720E+03  0.79581074749E+02 0.  0.
        -13    1    3    3    0    0 -0.13786510971E+02  0.57000948949E+02 -0.55682004732E+03  0.55989975992E+03  0.00000000000E+00 0.  1.
         14    1    3    3    0    0  0.72077788162E+00  0.43936850733E+01  0.14196940555E+01  0.46732772751E+01  0.00000000000E+00 0. -1.
         -4    1    1    2    0  502  0.13065733089E+02 -0.61394634023E+02 -0.21225750750E+03  0.22134422052E+03  0.00000000000E+00 0.  1.
<mgrwt>
<rscale>  1 0.10135661E+03</rscale>
<asrwt>0</asrwt>
<pdfrwt beam="1">  1       21 0.14045687E-02 0.10135661E+03</pdfrwt>
<pdfrwt beam="2">  1       -3 0.11950580E+00 0.10135661E+03</pdfrwt>
<totfact> 0.60246419E+04</totfact>
</mgrwt>
</event>
<event>
 6    2  0.8544106E+000  0.1077899E+03  0.7546771E-02  0.1264718E+00
         21   -1    0    0  501  502  0.00000000000E+00  0.00000000000E+00  0.70852638155E+01  0.70852638155E+01  0.00000000000E+00 0. -1.
          2   -1    0    0  502    0 -0.00000000000E+00 -0.00000000000E+00 -0.11071046233E+04  0.11071046233E+04  0.00000000000E+00 0. -1.
         24    2    1    2    0    0  0.31035205870E+02 -0.61646164086E+02 -0.70317190952E+03  0.71138555237E+03  0.82796353950E+02 0.  0.
        -11    1    3    3    0    0  0.15294603498E+01  0.88936486031E+01 -0.81172561744E+01  0.12137795609E+02  0.00000000000E+00 0.  1.
         12    1    3    3    0    0  0.29505745521E+02 -0.70539812689E+02 -0.69505465335E+03  0.69924775676E+03  0.00000000000E+00 0. -1.
          1    1    1    2  501    0 -0.31035205870E+02  0.61646164086E+02 -0.39684745001E+03  0.40280433479E+03  0.00000000000E+00 0. -1.
<mgrwt>
<rscale>  1 0.10778993E+03</rscale>
<asrwt>0</asrwt>
<pdfrwt beam="1">  1       21 0.10900410E-02 0.10778993E+03</pdfrwt>
<pdfrwt beam="2">  1        2 0.17032372E+00 0.10778993E+03</pdfrwt>
<totfact> 0.91438852E+05</totfact>
</mgrwt>
</event>
<event>
 6    2  0.8544106E+000  0.8871015E+02  0.7546771E-02  0.1306006E+00
         21   -1    0    0  501  502  0.00000000000E+00  0.00000000000E+00  0.34200855774E+01  0.34200855774E+01  0.00000000000E+00 0.  1.
         -3   -1    0    0    0  501 -0.00000000000E+00 -0.00000000000E+00 -0.12283117333E+04  0.12283117333E+04  0.00000000000E+00 0.  1.
         24    2    1    2    0    0 -0.34481848827E+02  0.21892373743E+02 -0.81905708573E+03  0.82384707334E+03  0.78747804130E+02 0.  0.
        -11    1    3    3    0    0 -0.58980210487E+02  0.59242342501E+01 -0.57324966424E+03  0.57630628951E+03  0.00000000000E+00 0.  1.
         12    1    3    3    0    0  0.24498361661E+02  0.15968139493E+02 -0.24580742149E+03  0.24754078383E+03  0.00000000000E+00 0. -1.
         -4    1    1    2    0  502  0.34481848827E+02 -0.21892373743E+02 -0.40583456195E+03  0.40788474549E+03  0.00000000000E+00 0.  1.
<mgrwt>
<rscale>  1 0.88710149E+02</rscale>
<asrwt>0</asrwt>
<pdfrwt beam="1">  1       21 0.52616597E-03 0.88710149E+02</pdfrwt>
<pdfrwt beam="2">  1       -3 0.18897141E+00 0.88710149E+02</pdfrwt>
<totfact> 0.87912385E+04</totfact>
</mgrwt>
</event>
<event>
 6    2  0.8544106E+000  0.8705917E+02  0.7546771E-02  0.1310134E+00
          4   -1    0    0  502    0 -0.00000000000E+00  0.00000000000E+00  0.60999173870E+02  0.60999173870E+02  0.00000000000E+00 0. -1.
         21   -1    0    0  501  502  0.00000000000E+00 -0.00000000000E+00 -0.15418864606E+03  0.15418864606E+03  0.00000000000E+00 0. -1.
         24    2    1    2    0    0 -0.99319622162E+00  0.36578920083E+02  0.25717086883E+02  0.90778119247E+02  0.78995534957E+02 0.  0.
        -13    1    3    3    0    0 -0.36665061912E+01 -0.15003780007E+02 -0.17564552009E+02  0.23389531193E+02  0.00000000000E+00 0.  1.
         14    1    3    3    0    0  0.26733099695E+01  0.51582700090E+02  0.43281638892E+02  0.67388588054E+02  0.00000000000E+00 0. -1.
          3    1    1    2  501    0  0.99319622162E+00 -0.36578920083E+02 -0.11890655907E+03  0.12440970068E+03  0.00000000000E+00 0. -1.
<mgrwt>
<rscale>  1 0.87059166E+02</rscale>
<asrwt>0</asrwt>
<pdfrwt beam="1">  1       21 0.23721330E-01 0.87059166E+02</pdfrwt>
<pdfrwt beam="2">  1        4 0.93844884E-02 0.87059166E+02</pdfrwt>
<totfact> 0.54106207E+04</totfact>
</mgrwt>
</event>
<event>
 6    2  0.8544106E+000  0.8602559E+02  0.7546771E-02  0.1312772E+00
          2   -1    0    0  502    0 -0.00000000000E+00  0.00000000000E+00  0.98979118056E+03  0.98979118056E+03  0.00000000000E+00 0. -1.
         21   -1    0    0  501  502  0.00000000000E+00 -0.00000000000E+00 -0.79725809320E+01  0.79725809320E+01  0.00000000000E+00 0. -1.
         24    2    1    2    0    0 -0.21369390762E+02 -0.25715470126E+01  0.96879460632E+03  0.97260649381E+03  0.83289488260E+02 0.  0.
        -11    1    3    3    0    0  0.19739563456E+02 -0.30490810789E+02  0.40197836359E+03  0.40361608579E+03  0.00000000000E+00 0.  1.
         12    1    3    3    0    0 -0.41108954217E+02  0.27919263776E+02  0.56681624272E+03  0.56899040802E+03  0.00000000000E+00 0. -1.
          1    1    1    2  501    0  0.21369390762E+02  0.25715470126E+01  0.13023993313E+02  0.25157267685E+02  0.00000000000E+00 0. -1.
<mgrwt>
<rscale>  1 0.86025593E+02</rscale>
<asrwt>0</asrwt>
<pdfrwt beam="1">  1       21 0.12265517E-02 0.86025593E+02</pdfrwt>
<pdfrwt beam="2">  1        2 0.15227547E+00 0.86025593E+02</pdfrwt>
<totfact> 0.87308646E+05</totfact>
</mgrwt>
</event>
<event>
 6    2  0.8544106E+000  0.8293010E+02  0.7546771E-02  0.1320936E+00
         21   -1    0    0  501  502  0.00000000000E+00  0.00000000000E+00  0.76274470356E+01  0.76274470356E+01  0.00000000000E+00 0. -1.
          2   -1    0    0  502    0 -0.00000000000E+00 -0.00000000000E+00 -0.88208230715E+03  0.88208230715E+03  0.00000000000E+00 0. -1.
         24    2    1    2    0    0 -0.39337631114E+01 -0.20978012132E+02 -0.85986769336E+03  0.86385754114E+03  0.80136445039E+02 0.  0.
        -11    1    3    3    0    0 -0.18953198853E+02  0.26554748153E+02 -0.29687958161E+03  0.29866681164E+03  0.00000000000E+00 0.  1.
         12    1    3    3    0    0  0.15019435741E+02 -0.47532760286E+02 -0.56298811175E+03  0.56519072950E+03  0.00000000000E+00 0. -1.
          1    1    1    2  501    0  0.39337631114E+01  0.20978012132E+02 -0.14587166757E+02  0.25852213043E+02  0.00000000000E+00 0. -1.
<mgrwt>
<rscale>  1 0.82930099E+02</rscale>
<asrwt>0</asrwt>
<pdfrwt beam="1">  1       21 0.11734530E-02 0.82930099E+02</pdfrwt>
<pdfrwt beam="2">  1        2 0.13570501E+00 0.82930099E+02</pdfrwt>
<totfact> 0.10839345E+06</totfact>
</mgrwt>
</event>
<event>
 6    2  0.8544106E+000  0.1122779E+03  0.7546771E-02  0.1256409E+00
         21   -1    0    0  501  502  0.00000000000E+00  0.00000000000E+00  0.89891078662E+02  0.89891078662E+02  0.00000000000E+00 0. -1.
          2   -1    0    0  502    0 -0.00000000000E+00 -0.00000000000E+00 -0.78724654032E+02  0.78724654032E+02  0.00000000000E+00 0. -1.
         24    2    1    2    0    0  0.13977912259E+02 -0.50527583871E+02 -0.85557136574E+01  0.11260339922E+03  0.99286990669E+02 0.  0.
        -11    1    3    3    0    0 -0.90884404195E+00  0.20229963478E+02  0.25595459068E+02  0.32637477609E+02  0.00000000000E+00 0.  1.
         12    1    3    3    0    0  0.14886756301E+02 -0.70757547349E+02 -0.34151172725E+02  0.79965921607E+02  0.00000000000E+00 0. -1.
          1    1    1    2  501    0 -0.13977912259E+02  0.50527583871E+02  0.19722138288E+02  0.56012333477E+02  0.00000000000E+00 0. -1.
<mgrwt>
<rscale>  1 0.11227789E+03</rscale>
<asrwt>0</asrwt>
<pdfrwt beam="1">  1       21 0.13829397E-01 0.11227789E+03</pdfrwt>
<pdfrwt beam="2">  1        2 0.12111485E-01 0.11227789E+03</pdfrwt>
<totfact> 0.27000764E+05</totfact>
</mgrwt>
</event>
<event>
 6    2  0.8544106E+000  0.8027741E+02  0.7546771E-02  0.1328266E+00
         21   -1    0    0  501  502  0.00000000000E+00  0.00000000000E+00  0.30918807378E+02  0.30918807378E+02  0.00000000000E+00 0. -1.
          4   -1    0    0  502    0 -0.00000000000E+00 -0.00000000000E+00 -0.11477640563E+03  0.11477640563E+03  0.00000000000E+00 0. -1.
         24    2    1    2    0    0  0.24527291199E+02  0.68509294937E+01 -0.88849663936E+02  0.11974441401E+03  0.76131062370E+02 0.  0.
        -13    1    3    3    0    0 -0.12670223094E+02  0.11790034705E+02  0.55377812648E+01  0.18171584767E+02  0.00000000000E+00 0.  1.
         14    1    3    3    0    0  0.37197514292E+02 -0.49391052115E+01 -0.94387445201E+02  0.10157282925E+03  0.00000000000E+00 0. -1.
          3    1    1    2  501    0 -0.24527291199E+02 -0.68509294937E+01  0.49920656866E+01  0.25950798991E+02  0.00000000000E+00 0. -1.
<mgrwt>
<rscale>  1 0.80277406E+02</rscale>
<asrwt>0</asrwt>
<pdfrwt beam="1">  1       21 0.47567396E-02 0.80277406E+02</pdfrwt>
<pdfrwt beam="2">  1        4 0.17657908E-01 0.80277406E+02</pdfrwt>
<totfact> 0.29884241E+05</totfact>
</mgrwt>
</event>
<event>
 6    2  0.8544106E+000  0.9800642E+02  0.7546771E-02  0.1284545E+00
         21   -1    0    0  501  502  0.00000000000E+00  0.00000000000E+00  0.20763049658E+03  0.20763049658E+03  0.00000000000E+00 0. -1.
          4   -1    0    0  502    0 -0.00000000000E+00 -0.00000000000E+00 -0.31081934944E+02  0.31081934944E+02  0.00000000000E+00 0. -1.
         24    2    1    2    0    0 -0.62177651347E+02 -0.76242841925E+01  0.10945865108E+03  0.14692329200E+03  0.75372855847E+02 0.  0.
        -11    1    3    3    0    0  0.14702197327E+02  0.48308429984E+01  0.38770895861E+02  0.41745347240E+02  0.00000000000E+00 0.  1.
         12    1    3    3    0    0 -0.76879848674E+02 -0.12455127191E+02  0.70687755217E+02  0.10517794476E+03  0.00000000000E+00 0. -1.
          3    1    1    2  501    0  0.62177651347E+02  0.76242841925E+01  0.67089910556E+02  0.91789139526E+02  0.00000000000E+00 0. -1.
<mgrwt>
<rscale>  1 0.98006415E+02</rscale>
<asrwt>0</asrwt>
<pdfrwt beam="1">  1       21 0.31943152E-01 0.98006415E+02</pdfrwt>
<pdfrwt beam="2">  1        4 0.47818363E-02 0.98006415E+02</pdfrwt>
<totfact> 0.93677988E+04</totfact>
</mgrwt>
</event>
<event>
 6    2  0.8544106E+000  0.9486807E+02  0.7546771E-02  0.1291473E+00
         21   -1    0    0  501  502  0.00000000000E+00  0.00000000000E+00  0.88997819461E+01  0.88997819461E+01  0.00000000000E+00 0.  1.
         -3   -1    0    0    0  501 -0.00000000000E+00 -0.00000000000E+00 -0.58536165742E+03  0.58536165742E+03  0.00000000000E+00 0.  1.
         24    2    1    2    0    0  0.47455584035E+02  0.10362211742E+02 -0.34847511009E+03  0.36115765759E+03  0.81489529358E+02 0.  0.
        -13    1    3    3    0    0  0.66791657434E+02 -0.76040255959E+01 -0.27461420479E+03  0.28272231638E+03  0.00000000000E+00 0.  1.
         14    1    3    3    0    0 -0.19336073399E+02  0.17966237338E+02 -0.73860905296E+02  0.78435341203E+02  0.00000000000E+00 0. -1.
         -4    1    1    2    0  502 -0.47455584035E+02 -0.10362211742E+02 -0.22798676539E+03  0.23310378178E+03  0.00000000000E+00 0.  1.
<mgrwt>
<rscale>  1 0.94868073E+02</rscale>
<asrwt>0</asrwt>
<pdfrwt beam="1">  1       21 0.13691972E-02 0.94868073E+02</pdfrwt>
<pdfrwt beam="2">  1       -3 0.90055640E-01 0.94868073E+02</pdfrwt>
<totfact> 0.11817132E+05</totfact>
</mgrwt>
</event>
<event>
 6    2  0.8544106E+000  0.9316099E+02  0.7546771E-02  0.1295373E+00
         21   -1    0    0  501  502  0.00000000000E+00  0.00000000000E+00  0.10443680241E+02  0.10443680241E+02  0.00000000000E+00 0.  1.
         -3   -1    0    0    0  501 -0.00000000000E+00 -0.00000000000E+00 -0.52999320994E+03  0.52999320994E+03  0.00000000000E+00 0.  1.
         24    2    1    2    0    0 -0.10356689698E+02  0.41826927879E+02 -0.44208483861E+03  0.45179417315E+03  0.82596715702E+02 0.  0.
        -13    1    3    3    0    0  0.26591094304E+01  0.65441756980E+02 -0.33696058738E+03  0.34326685227E+03  0.00000000000E+00 0.  1.
         14    1    3    3    0    0 -0.13015799129E+02 -0.23614829102E+02 -0.10512425123E+03  0.10852732088E+03  0.00000000000E+00 0. -1.
         -4    1    1    2    0  502  0.10356689698E+02 -0.41826927879E+02 -0.77464691081E+02  0.88642717025E+02  0.00000000000E+00 0.  1.
<mgrwt>
<rscale>  1 0.93160992E+02</rscale>
<asrwt>0</asrwt>
<pdfrwt beam="1">  1       21 0.16067193E-02 0.93160992E+02</pdfrwt>
<pdfrwt beam="2">  1       -3 0.81537456E-01 0.93160992E+02</pdfrwt>
<totfact> 0.11360820E+05</totfact>
</mgrwt>
</event>
<event>
 6    2  0.8544106E+000  0.8482662E+02  0.7546771E-02  0.1315887E+00
         21   -1    0    0  501  502  0.00000000000E+00  0.00000000000E+00  0.70748815773E+02  0.70748815773E+02  0.00000000000E+00 0. -1.
          2   -1    0    0  502    0 -0.00000000000E+00 -0.00000000000E+00 -0.17895755586E+03  0.17895755586E+03  0.00000000000E+00 0. -1.
         24    2    1    2    0    0 -0.16861726383E+02  0.21669797514E+02 -0.16561316813E+03  0.18607331183E+03  0.80259940036E+02 0.  0.
        -11    1    3    3    0    0  0.29378772580E+02  0.21898920968E+01 -0.32747612267E+02  0.44048995618E+02  0.00000000000E+00 0.  1.
         12    1    3    3    0    0 -0.46240498964E+02  0.19479905417E+02 -0.13286555587E+03  0.14202431621E+03  0.00000000000E+00 0. -1.
          1    1    1    2  501    0  0.16861726383E+02 -0.21669797514E+02  0.57404428046E+02  0.63633059806E+02  0.00000000000E+00 0. -1.
<mgrwt>
<rscale>  1 0.84826623E+02</rscale>
<asrwt>0</asrwt>
<pdfrwt beam="1">  1       21 0.10884433E-01 0.84826623E+02</pdfrwt>
<pdfrwt beam="2">  1        2 0.27531932E-01 0.84826623E+02</pdfrwt>
<totfact> 0.15949584E+05</totfact>
</mgrwt>
</event>
<event>
 6    2  0.8544106E+000  0.8663507E+02  0.7546771E-02  0.1311211E+00
         21   -1    0    0  501  502  0.00000000000E+00  0.00000000000E+00  0.78169555833E+01  0.78169555833E+01  0.00000000000E+00 0. -1.
          2   -1    0    0  502    0 -0.00000000000E+00 -0.00000000000E+00 -0.77091133790E+03  0.77091133790E+03  0.00000000000E+00 0. -1.
         24    2    1    2    0    0  0.25154671559E+02 -0.59560894958E+01 -0.73672579782E+03  0.74180222205E+03  0.82688590237E+02 0.  0.
        -11    1    3    3    0    0 -0.21803591975E+02  0.17176711808E+02 -0.40716107319E+03  0.40810608373E+03  0.00000000000E+00 0.  1.
         12    1    3    3    0    0  0.46958263534E+02 -0.23132801304E+02 -0.32956472463E+03  0.33369613832E+03  0.00000000000E+00 0. -1.
          1    1    1    2  501    0 -0.25154671559E+02  0.59560894958E+01 -0.26368584492E+02  0.36926071433E+02  0.00000000000E+00 0. -1.
<mgrwt>
<rscale>  1 0.86635071E+02</rscale>
<asrwt>0</asrwt>
<pdfrwt beam="1">  1       21 0.12026087E-02 0.86635071E+02</pdfrwt>
<pdfrwt beam="2">  1        2 0.11860173E+00 0.86635071E+02</pdfrwt>
<totfact> 0.12363038E+06</totfact>
</mgrwt>
</event>
<event>
 6    2  0.8544106E+000  0.8352360E+02  0.7546771E-02  0.1319339E+00
         21   -1    0    0  501  502  0.00000000000E+00  0.00000000000E+00  0.30152499881E+01  0.30152499881E+01  0.00000000000E+00 0.  1.
          2   -1    0    0  502    0 -0.00000000000E+00 -0.00000000000E+00 -0.14287129603E+04  0.14287129603E+04  0.00000000000E+00 0. -1.
         24    2    1    2    0    0  0.22410000771E+02  0.94732338091E+01 -0.13411802883E+04  0.13437785376E+04  0.79901453274E+02 0.  0.
        -13    1    3    3    0    0  0.10934826393E+02  0.17245343128E+02 -0.81405532160E+02  0.83927545860E+02  0.00000000000E+00 0.  1.
         14    1    3    3    0    0  0.11475174378E+02 -0.77721093194E+01 -0.12597747561E+04  0.12598509918E+04  0.00000000000E+00 0. -1.
          1    1    1    2  501    0 -0.22410000771E+02 -0.94732338091E+01 -0.84517422015E+02  0.87949672640E+02  0.00000000000E+00 0. -1.
<mgrwt>
<rscale>  1 0.83523605E+02</rscale>
<asrwt>0</asrwt>
<pdfrwt beam="1">  1       21 0.46388516E-03 0.83523605E+02</pdfrwt>
<pdfrwt beam="2">  1        2 0.21980174E+00 0.83523605E+02</pdfrwt>
<totfact> 0.22657123E+06</totfact>
</mgrwt>
</event>
<event>
 6    2  0.8544106E+000  0.9255307E+02  0.7546771E-02  0.1296784E+00
          2   -1    0    0  502    0 -0.00000000000E+00  0.00000000000E+00  0.10511646415E+04  0.10511646415E+04  0.00000000000E+00 0. -1.
         21   -1    0    0  501  502  0.00000000000E+00 -0.00000000000E+00 -0.80145665282E+01  0.80145665282E+01  0.00000000000E+00 0. -1.
         24    2    1    2    0    0  0.30279850693E+02  0.38209542011E+02  0.94566149362E+03  0.95017984127E+03  0.78671670802E+02 0.  0.
        -13    1    3    3    0    0  0.25836799060E+02 -0.12291584777E+02  0.13831814549E+03  0.14124635434E+03  0.00000000000E+00 0.  1.
         14    1    3    3    0    0  0.44430516328E+01  0.50501126788E+02  0.80734334813E+03  0.80893348693E+03  0.00000000000E+00 0. -1.
          1    1    1    2  501    0 -0.30279850693E+02 -0.38209542011E+02  0.97488581334E+02  0.10899936674E+03  0.00000000000E+00 0. -1.
<mgrwt>
<rscale>  1 0.92553067E+02</rscale>
<asrwt>0</asrwt>
<pdfrwt beam="1">  1       21 0.12330111E-02 0.92553067E+02</pdfrwt>
<pdfrwt beam="2">  1        2 0.16171753E+00 0.92553067E+02</pdfrwt>
<totfact> 0.80208657E+05</totfact>
</mgrwt>
</event>
<event>
 6    2  0.8544106E+000  0.9338607E+02  0.7546771E-02  0.1294853E+00
          2   -1    0    0  502    0 -0.00000000000E+00  0.00000000000E+00  0.20853579729E+03  0.20853579729E+03  0.00000000000E+00 0. -1.
         21   -1    0    0  501  502  0.00000000000E+00 -0.00000000000E+00 -0.26468775002E+02  0.26468775002E+02  0.00000000000E+00 0. -1.
         24    2    1    2    0    0 -0.46865240170E+02  0.86405534123E+01  0.15280688186E+03  0.17908350545E+03  0.80311573754E+02 0.  0.
        -13    1    3    3    0    0  0.59515784251E+01 -0.18286641324E+02  0.50589298779E+01  0.19885052380E+02  0.00000000000E+00 0.  1.
         14    1    3    3    0    0 -0.52816818596E+02  0.26927194736E+02  0.14774795199E+03  0.15919845307E+03  0.00000000000E+00 0. -1.
          1    1    1    2  501    0  0.46865240170E+02 -0.86405534123E+01  0.29260140425E+02  0.55921066846E+02  0.00000000000E+00 0. -1.
<mgrwt>
<rscale>  1 0.93386074E+02</rscale>
<asrwt>0</asrwt>
<pdfrwt beam="1">  1       21 0.40721194E-02 0.93386074E+02</pdfrwt>
<pdfrwt beam="2">  1        2 0.32082429E-01 0.93386074E+02</pdfrwt>
<totfact> 0.71948297E+05</totfact>
</mgrwt>
</event>
<event>
 6    2  0.8544106E+000  0.8237033E+02  0.7546771E-02  0.1322456E+00
          2   -1    0    0  502    0 -0.00000000000E+00  0.00000000000E+00  0.15149286710E+04  0.15149286710E+04  0.00000000000E+00 0. -1.
         21   -1    0    0  501  502  0.00000000000E+00 -0.00000000000E+00 -0.17970003337E+01  0.17970003337E+01  0.00000000000E+00 0.  1.
         24    2    1    2    0    0 -0.13404392923E+01 -0.21436893099E+02  0.11355296530E+04  0.11385132695E+04  0.79520656421E+02 0.  0.
        -13    1    3    3    0    0  0.22261517691E+02 -0.34351587052E+02  0.32924433089E+03  0.33177919785E+03  0.00000000000E+00 0.  1.
         14    1    3    3    0    0 -0.23601956983E+02  0.12914693954E+02  0.80628532209E+03  0.80673407162E+03  0.00000000000E+00 0. -1.
          1    1    1    2  501    0  0.13404392923E+01  0.21436893099E+02  0.37760201770E+03  0.37821240188E+03  0.00000000000E+00 0. -1.
<mgrwt>
<rscale>  1 0.82370334E+02</rscale>
<asrwt>0</asrwt>
<pdfrwt beam="1">  1       21 0.27646280E-03 0.82370334E+02</pdfrwt>
<pdfrwt beam="2">  1        2 0.23306493E+00 0.82370334E+02</pdfrwt>
<totfact> 0.44819119E+06</totfact>
</mgrwt>
</event>
<event>
 6    2  0.8544106E+000  0.8456414E+02  0.7546771E-02  0.1316576E+00
         -1   -1    0    0    0  501 -0.00000000000E+00  0.00000000000E+00  0.92751994067E+03  0.92751994067E+03  0.00000000000E+00 0.  1.
         21   -1    0    0  501  502  0.00000000000E+00 -0.00000000000E+00 -0.22288366318E+02  0.22288366318E+02  0.00000000000E+00 0.  1.
         24    2    1    2    0    0  0.24691257705E+02  0.96510848747E+01  0.91693735149E+03  0.92082854051E+03  0.80301262841E+02 0.  0.
        -11    1    3    3    0    0  0.42291217830E+02  0.15520192682E+02  0.27836189954E+03  0.28198363534E+03  0.00000000000E+00 0.  1.
         12    1    3    3    0    0 -0.17599960126E+02 -0.58691078072E+01  0.63857545196E+03  0.63884490517E+03  0.00000000000E+00 0. -1.
         -2    1    1    2    0  502 -0.24691257705E+02 -0.96510848747E+01 -0.11705777144E+02  0.28979766473E+02  0.00000000000E+00 0.  1.
<mgrwt>
<rscale>  1 0.84564144E+02</rscale>
<asrwt>0</asrwt>
<pdfrwt beam="1">  1       21 0.34289801E-02 0.84564144E+02</pdfrwt>
<pdfrwt beam="2">  1       -1 0.14269535E+00 0.84564144E+02</pdfrwt>
<totfact> 0.20452149E+04</totfact>
</mgrwt>
</event>
<event>
 6    2  0.8544106E+000  0.8650841E+02  0.7546771E-02  0.1311534E+00
         21   -1    0    0  501  502  0.00000000000E+00  0.00000000000E+00  0.16246512031E+02  0.16246512031E+02  0.00000000000E+00 0. -1.
         -1   -1    0    0    0  501 -0.00000000000E+00 -0.00000000000E+00 -0.20199169996E+03  0.20199169996E+03  0.00000000000E+00 0.  1.
         24    2    1    2    0    0  0.24455594856E+02  0.84968093263E+01 -0.12312794428E+03  0.15047988342E+03  0.82543520419E+02 0.  0.
        -13    1    3    3    0    0  0.19795208274E+02 -0.21777922134E+02 -0.11511549692E+03  0.11881795232E+03  0.00000000000E+00 0.  1.
         14    1    3    3    0    0  0.46603865823E+01  0.30274731460E+02 -0.80124473592E+01  0.31661931097E+02  0.00000000000E+00 0. -1.
         -2    1    1    2    0  502 -0.24455594856E+02 -0.84968093263E+01 -0.62617243651E+02  0.67758328573E+02  0.00000000000E+00 0.  1.
<mgrwt>
<rscale>  1 0.86508408E+02</rscale>
<asrwt>0</asrwt>
<pdfrwt beam="1">  1       21 0.24994632E-02 0.86508408E+02</pdfrwt>
<pdfrwt beam="2">  1       -1 0.31075648E-01 0.86508408E+02</pdfrwt>
<totfact> 0.69526875E+05</totfact>
</mgrwt>
</event>
<event>
 6    2  0.8544106E+000  0.8348287E+02  0.7546771E-02  0.1319448E+00
         21   -1    0    0  501  502  0.00000000000E+00  0.00000000000E+00  0.51285625177E+03  0.51285625177E+03  0.00000000000E+00 0. -1.
         -3   -1    0    0    0  501 -0.00000000000E+00 -0.00000000000E+00 -0.10977290397E+02  0.10977290397E+02  0.00000000000E+00 0.  1.
         24    2    1    2    0    0 -0.19729452880E+02  0.13756156529E+02  0.48990316579E+03  0.49696529263E+03  0.79943149006E+02 0.  0.
        -13    1    3    3    0    0 -0.35806804889E+02 -0.18880743705E+02  0.15915605299E+03  0.16422319861E+03  0.00000000000E+00 0.  1.
         14    1    3    3    0    0  0.16077352010E+02  0.32636900234E+02  0.33074711280E+03  0.33274209402E+03  0.00000000000E+00 0. -1.
         -4    1    1    2    0  502  0.19729452880E+02 -0.13756156529E+02  0.11975795583E+02  0.26868249537E+02  0.00000000000E+00 0.  1.
<mgrwt>
<rscale>  1 0.83482874E+02</rscale>
<asrwt>0</asrwt>
<pdfrwt beam="1">  1       21 0.78900943E-01 0.83482874E+02</pdfrwt>
<pdfrwt beam="2">  1       -3 0.16888143E-02 0.83482874E+02</pdfrwt>
<totfact> 0.79923035E+04</totfact>
</mgrwt>
</event>
<event>
 6    2  0.8544106E+000  0.9384863E+02  0.7546771E-02  0.1293791E+00
         21   -1    0    0  501  502  0.00000000000E+00  0.00000000000E+00  0.15111589306E+03  0.15111589306E+03  0.00000000000E+00 0.  1.
         -1   -1    0    0    0  501 -0.00000000000E+00 -0.00000000000E+00 -0.54285483853E+02  0.54285483853E+02  0.00000000000E+00 0.  1.
         24    2    1    2    0    0 -0.53620024180E+02 -0.11410332150E+02 -0.32198932997E+00  0.93849186373E+02  0.76172589773E+02 0.  0.
        -13    1    3    3    0    0 -0.26490613680E+02 -0.33744675469E+02 -0.26146452018E+02  0.50240349210E+02  0.00000000000E+00 0.  1.
         14    1    3    3    0    0 -0.27129410501E+02  0.22334343318E+02  0.25824462688E+02  0.43608837163E+02  0.00000000000E+00 0. -1.
         -2    1    1    2    0  502  0.53620024180E+02  0.11410332150E+02  0.97152398541E+02  0.11155219054E+03  0.00000000000E+00 0.  1.
<mgrwt>
<rscale>  1 0.93848634E+02</rscale>
<asrwt>0</asrwt>
<pdfrwt beam="1">  1       21 0.23248599E-01 0.93848634E+02</pdfrwt>
<pdfrwt beam="2">  1       -1 0.83516130E-02 0.93848634E+02</pdfrwt>
<totfact> 0.12009318E+05</totfact>
</mgrwt>
</event>
<event>
 6    2  0.8544106E+000  0.9890169E+02  0.7546771E-02  0.1282623E+00
         21   -1    0    0  501  502  0.00000000000E+00  0.00000000000E+00  0.25988922955E+02  0.25988922955E+02  0.00000000000E+00 0.  1.
          2   -1    0    0  502    0 -0.00000000000E+00 -0.00000000000E+00 -0.17378102671E+03  0.17378102671E+03  0.00000000000E+00 0. -1.
         24    2    1    2    0    0 -0.14187800860E+02  0.18601315093E+02 -0.14594929834E+03  0.17630298250E+03  0.96094959982E+02 0.  0.
        -11    1    3    3    0    0  0.35698536808E+02 -0.37638956558E+00 -0.23538582415E+02  0.42762039959E+02  0.00000000000E+00 0.  1.
         12    1    3    3    0    0 -0.49886337667E+02  0.18977704659E+02 -0.12241071593E+03  0.13354094254E+03  0.00000000000E+00 0. -1.
          1    1    1    2  501    0  0.14187800860E+02 -0.18601315093E+02 -0.18428054159E+01  0.23466967171E+02  0.00000000000E+00 0. -1.
<mgrwt>
<rscale>  1 0.98901688E+02</rscale>
<asrwt>0</asrwt>
<pdfrwt beam="1">  1       21 0.39982960E-02 0.98901688E+02</pdfrwt>
<pdfrwt beam="2">  1        2 0.26735542E-01 0.98901688E+02</pdfrwt>
<totfact> 0.90690683E+05</totfact>
</mgrwt>
</event>
<event>
 6    2  0.8544106E+000  0.8533780E+02  0.7546771E-02  0.1314552E+00
          2   -1    0    0  502    0 -0.00000000000E+00  0.00000000000E+00  0.15769902722E+03  0.15769902722E+03  0.00000000000E+00 0. -1.
         21   -1    0    0  501  502  0.00000000000E+00 -0.00000000000E+00 -0.19729321132E+02  0.19729321132E+02  0.00000000000E+00 0. -1.
         24    2    1    2    0    0 -0.15450732436E+02 -0.20118421584E+02  0.96551145998E+02  0.12885908709E+03  0.81480454782E+02 0.  0.
        -13    1    3    3    0    0  0.13370629766E+02 -0.40886057976E+02  0.27076266663E+02  0.50828807713E+02  0.00000000000E+00 0.  1.
         14    1    3    3    0    0 -0.28821362202E+02  0.20767636392E+02  0.69474879335E+02  0.78030279373E+02  0.00000000000E+00 0. -1.
          1    1    1    2  501    0  0.15450732436E+02  0.20118421584E+02  0.41418560092E+02  0.48569261266E+02  0.00000000000E+00 0. -1.
<mgrwt>
<rscale>  1 0.85337802E+02</rscale>
<asrwt>0</asrwt>
<pdfrwt beam="1">  1       21 0.30352803E-02 0.85337802E+02</pdfrwt>
<pdfrwt beam="2">  1        2 0.24261388E-01 0.85337802E+02</pdfrwt>
<totfact> 0.15566276E+06</totfact>
</mgrwt>
</event>
<event>
 6    2  0.8544106E+000  0.8806223E+02  0.7546771E-02  0.1307613E+00
          2   -1    0    0  502    0 -0.00000000000E+00  0.00000000000E+00  0.94559163339E+03  0.94559163339E+03  0.00000000000E+00 0. -1.
         21   -1    0    0  501  502  0.00000000000E+00 -0.00000000000E+00 -0.40096524946E+01  0.40096524946E+01  0.00000000000E+00 0.  1.
         24    2    1    2    0    0 -0.23186340042E+02 -0.12359208477E+02  0.84267393215E+03  0.84726283512E+03  0.84051171606E+02 0.  0.
        -11    1    3    3    0    0 -0.23540726809E+02  0.15428270016E+02  0.95226106251E+02  0.99298583303E+02  0.00000000000E+00 0.  1.
         12    1    3    3    0    0  0.35438676730E+00 -0.27787478493E+02  0.74744782590E+03  0.74796425182E+03  0.00000000000E+00 0. -1.
          1    1    1    2  501    0  0.23186340042E+02  0.12359208477E+02  0.98908048749E+02  0.10233845077E+03  0.00000000000E+00 0. -1.
<mgrwt>
<rscale>  1 0.88062227E+02</rscale>
<asrwt>0</asrwt>
<pdfrwt beam="1">  1       21 0.61687037E-03 0.88062227E+02</pdfrwt>
<pdfrwt beam="2">  1        2 0.14547546E+00 0.88062227E+02</pdfrwt>
<totfact> 0.27069812E+06</totfact>
</mgrwt>
</event>
<event>
 6    2  0.8544106E+000  0.8403986E+02  0.7546771E-02  0.1317963E+00
         21   -1    0    0  501  502  0.00000000000E+00  0.00000000000E+00  0.16111419901E+01  0.16111419901E+01  0.00000000000E+00 0. -1.
          2   -1    0    0  502    0 -0.00000000000E+00 -0.00000000000E+00 -0.17915091816E+04  0.17915091816E+04  0.00000000000E+00 0. -1.
         24    2    1    2    0    0  0.36046136062E+01  0.20633844972E+02 -0.15629226069E+04  0.15651804283E+04  0.81387648135E+02 0.  0.
        -13    1    3    3    0    0 -0.28044948414E+02 -0.12297720306E+02 -0.33159960908E+03  0.33301059112E+03  0.00000000000E+00 0.  1.
         14    1    3    3    0    0  0.31649562020E+02  0.32931565277E+02 -0.12313229978E+04  0.12321698372E+04  0.00000000000E+00 0. -1.
          1    1    1    2  501    0 -0.36046136062E+01 -0.20633844972E+02 -0.22697543271E+03  0.22793989526E+03  0.00000000000E+00 0. -1.
<mgrwt>
<rscale>  1 0.84039860E+02</rscale>
<asrwt>0</asrwt>
<pdfrwt beam="1">  1       21 0.24786852E-03 0.84039860E+02</pdfrwt>
<pdfrwt beam="2">  1        2 0.27561622E+00 0.84039860E+02</pdfrwt>
<totfact> 0.38432485E+06</totfact>
</mgrwt>
</event>
<event>
 6    2  0.8544106E+000  0.8902512E+02  0.7546771E-02  0.1305230E+00
         21   -1    0    0  501  502  0.00000000000E+00  0.00000000000E+00  0.36412042041E+02  0.36412042041E+02  0.00000000000E+00 0. -1.
         -1   -1    0    0    0  501 -0.00000000000E+00 -0.00000000000E+00 -0.10860062485E+03  0.10860062485E+03  0.00000000000E+00 0.  1.
         24    2    1    2    0    0  0.29274246662E+02  0.22189011550E+02 -0.51896871387E+02  0.10304735617E+03  0.81093394325E+02 0.  0.
        -11    1    3    3    0    0 -0.27620806114E+02  0.95833410002E+01 -0.86833821274E+01  0.30498368486E+02  0.00000000000E+00 0.  1.
         12    1    3    3    0    0  0.56895052776E+02  0.12605670550E+02 -0.43213489260E+02  0.72548987687E+02  0.00000000000E+00 0. -1.
         -2    1    1    2    0  502 -0.29274246662E+02 -0.22189011550E+02 -0.20291711418E+02  0.41965310716E+02  0.00000000000E+00 0.  1.
<mgrwt>
<rscale>  1 0.89025122E+02</rscale>
<asrwt>0</asrwt>
<pdfrwt beam="1">  1       21 0.56018526E-02 0.89025122E+02</pdfrwt>
<pdfrwt beam="2">  1       -1 0.16707788E-01 0.89025122E+02</pdfrwt>
<totfact> 0.50393110E+05</totfact>
</mgrwt>
</event>
<event>
 6    2  0.8544106E+000  0.8339727E+02  0.7546771E-02  0.1319678E+00
          2   -1    0    0  502    0 -0.00000000000E+00  0.00000000000E+00  0.15700430194E+04  0.15700430194E+04  0.00000000000E+00 0. -1.
         21   -1    0    0  501  502  0.00000000000E+00 -0.00000000000E+00 -0.18111339609E+01  0.18111339609E+01  0.00000000000E+00 0.  1.
         24    2    1    2    0    0  0.49037849617E+00 -0.20488063767E+02  0.13780552092E+04  0.13805764249E+04  0.80839990713E+02 0.  0.
        -13    1    3    3    0    0  0.30773031335E+02 -0.10193617936E+02  0.25322662762E+03  0.25529319270E+03  0.00000000000E+00 0.  1.
         14    1    3    3    0    0 -0.30282652839E+02 -0.10294445831E+02  0.11248285816E+04  0.11252832322E+04  0.00000000000E+00 0. -1.
          1    1    1    2  501    0 -0.49037849617E+00  0.20488063767E+02  0.19017667620E+03  0.19127772844E+03  0.00000000000E+00 0. -1.
<mgrwt>
<rscale>  1 0.83397274E+02</rscale>
<asrwt>0</asrwt>
<pdfrwt beam="1">  1       21 0.27863725E-03 0.83397274E+02</pdfrwt>
<pdfrwt beam="2">  1        2 0.24154399E+00 0.83397274E+02</pdfrwt>
<totfact> 0.41588006E+06</totfact>
</mgrwt>
</event>
<event>
 6    2  0.8544106E+000  0.8876423E+02  0.7546771E-02  0.1305872E+00
         21   -1    0    0  501  502  0.00000000000E+00  0.00000000000E+00  0.77727988440E+02  0.77727988440E+02  0.00000000000E+00 0.  1.
         -1   -1    0    0    0  501 -0.00000000000E+00 -0.00000000000E+00 -0.52814443931E+02  0.52814443931E+02  0.00000000000E+00 0.  1.
         24    2    1    2    0    0  0.57607799634E+01 -0.38858522230E+02  0.14937965208E+02  0.90012400073E+02  0.79598480053E+02 0.  0.
        -11    1    3    3    0    0 -0.83533396637E+01 -0.61510268713E+02  0.10356107518E+02  0.62932824532E+02  0.00000000000E+00 0.  1.
         12    1    3    3    0    0  0.14114119627E+02  0.22651746483E+02  0.45818576902E+01  0.27079575541E+02  0.00000000000E+00 0. -1.
         -2    1    1    2    0  502 -0.57607799634E+01  0.38858522230E+02  0.99755793005E+01  0.40530032298E+02  0.00000000000E+00 0.  1.
<mgrwt>
<rscale>  1 0.88764235E+02</rscale>
<asrwt>0</asrwt>
<pdfrwt beam="1">  1       21 0.11958152E-01 0.88764235E+02</pdfrwt>
<pdfrwt beam="2">  1       -1 0.81252991E-02 0.88764235E+02</pdfrwt>
<totfact> 0.41299627E+05</totfact>
</mgrwt>
</event>
<event>
 6    2  0.8544106E+000  0.9189629E+02  0.7546771E-02  0.1298323E+00
         -1   -1    0    0    0  501 -0.00000000000E+00  0.00000000000E+00  0.11283788670E+04  0.11283788670E+04  0.00000000000E+00 0.  1.
         21   -1    0    0  501  502  0.00000000000E+00 -0.00000000000E+00 -0.39971862800E+01  0.39971862800E+01  0.00000000000E+00 0.  1.
         24    2    1    2    0    0 -0.42316765640E+02  0.22087890551E+00  0.79029652522E+03  0.79562147118E+03  0.81573097169E+02 0.  0.
        -11    1    3    3    0    0 -0.26067954032E+02 -0.33692662329E+02  0.21999944774E+03  0.22408590034E+03  0.00000000000E+00 0.  1.
         12    1    3    3    0    0 -0.16248811608E+02  0.33913541235E+02  0.57029707748E+03  0.57153557084E+03  0.00000000000E+00 0. -1.
         -2    1    1    2    0  502  0.42316765640E+02 -0.22087890551E+00  0.33408515549E+03  0.33675458209E+03  0.00000000000E+00 0.  1.
<mgrwt>
<rscale>  1 0.91896287E+02</rscale>
<asrwt>0</asrwt>
<pdfrwt beam="1">  1       21 0.61495263E-03 0.91896287E+02</pdfrwt>
<pdfrwt beam="2">  1       -1 0.17359649E+00 0.91896287E+02</pdfrwt>
<totfact> 0.18639770E+05</totfact>
</mgrwt>
</event>
<event>
 6    2  0.8544106E+000  0.8132012E+02  0.7546771E-02  0.1325346E+00
         21   -1    0    0  501  502  0.00000000000E+00  0.00000000000E+00  0.16817880536E+01  0.16817880536E+01  0.00000000000E+00 0. -1.
          2   -1    0    0  502    0 -0.00000000000E+00 -0.00000000000E+00 -0.21307529873E+04  0.21307529873E+04  0.00000000000E+00 0. -1.
         24    2    1    2    0    0  0.22959277215E+02  0.13528389062E+02 -0.19128210534E+04  0.19145488618E+04  0.76829788457E+02 0.  0.
        -11    1    3    3    0    0  0.17492017590E+02 -0.16573345813E+02 -0.19883758606E+03  0.20029236656E+03  0.00000000000E+00 0.  1.
         12    1    3    3    0    0  0.54672596251E+01  0.30101734875E+02 -0.17139834673E+04  0.17142564953E+04  0.00000000000E+00 0. -1.
          1    1    1    2  501    0 -0.22959277215E+02 -0.13528389062E+02 -0.21625014587E+03  0.21788591352E+03  0.00000000000E+00 0. -1.
<mgrwt>
<rscale>  1 0.81320121E+02</rscale>
<asrwt>0</asrwt>
<pdfrwt beam="1">  1       21 0.25873547E-03 0.81320121E+02</pdfrwt>
<pdfrwt beam="2">  1        2 0.32780962E+00 0.81320121E+02</pdfrwt>
<totfact> 0.24312022E+06</totfact>
</mgrwt>
</event>
<event>
 6    2  0.8544106E+000  0.1020283E+03  0.7546771E-02  0.1276088E+00
         21   -1    0    0  501  502  0.00000000000E+00  0.00000000000E+00  0.36293677727E+01  0.36293677727E+01  0.00000000000E+00 0. -1.
          2   -1    0    0  502    0 -0.00000000000E+00 -0.00000000000E+00 -0.28053447237E+04  0.28053447237E+04  0.00000000000E+00 0. -1.
         24    2    1    2    0    0  0.55486677770E+02 -0.10764636212E+02 -0.24955787126E+04  0.24976634858E+04  0.84941914431E+02 0.  0.
        -13    1    3    3    0    0 -0.15091069136E+02 -0.64309732896E+01 -0.13036738827E+03  0.13139540978E+03  0.00000000000E+00 0.  1.
         14    1    3    3    0    0  0.70577746906E+02 -0.43336629225E+01 -0.23652113243E+04  0.23662680761E+04  0.00000000000E+00 0. -1.
          1    1    1    2  501    0 -0.55486677770E+02  0.10764636212E+02 -0.30613664335E+03  0.31131060567E+03  0.00000000000E+00 0. -1.
<mgrwt>
<rscale>  1 0.10202832E+03</rscale>
<asrwt>0</asrwt>
<pdfrwt beam="1">  1       21 0.55836329E-03 0.10202832E+03</pdfrwt>
<pdfrwt beam="2">  1        2 0.43159226E+00 0.10202832E+03</pdfrwt>
<totfact> 0.33636505E+05</totfact>
</mgrwt>
</event>
<event>
 6    2  0.8544106E+000  0.8589843E+02  0.7546771E-02  0.1313100E+00
          2   -1    0    0  502    0 -0.00000000000E+00  0.00000000000E+00  0.10066661412E+03  0.10066661412E+03  0.00000000000E+00 0. -1.
         21   -1    0    0  501  502  0.00000000000E+00 -0.00000000000E+00 -0.12085387582E+03  0.12085387582E+03  0.00000000000E+00 0. -1.
         24    2    1    2    0    0 -0.19519836829E+02 -0.32478868881E+02  0.78153639542E+02  0.11613152557E+03  0.77088513435E+02 0.  0.
        -11    1    3    3    0    0  0.11597623833E+02  0.38183986181E+01 -0.10043104284E+02  0.15809775148E+02  0.00000000000E+00 0.  1.
         12    1    3    3    0    0 -0.31117460662E+02 -0.36297267499E+02  0.88196743825E+02  0.10032175042E+03  0.00000000000E+00 0. -1.
          1    1    1    2  501    0  0.19519836829E+02  0.32478868881E+02 -0.98340901245E+02  0.10538896437E+03  0.00000000000E+00 0. -1.
<mgrwt>
<rscale>  1 0.85898428E+02</rscale>
<asrwt>0</asrwt>
<pdfrwt beam="1">  1       21 0.18592904E-01 0.85898428E+02</pdfrwt>
<pdfrwt beam="2">  1        2 0.15487171E-01 0.85898428E+02</pdfrwt>
<totfact> 0.11690262E+05</totfact>
</mgrwt>
</event>
<event>
 6    2  0.8544106E+000  0.1026814E+03  0.7546771E-02  0.1274756E+00
         -1   -1    0    0    0  501 -0.00000000000E+00  0.00000000000E+00  0.50435481498E+02  0.50435481498E+02  0.00000000000E+00 0.  1.
         21   -1    0    0  501  502  0.00000000000E+00 -0.00000000000E+00 -0.15000630080E+03  0.15000630080E+03  0.00000000000E+00 0.  1.
         24    2    1    2    0    0  0.67073365228E+02 -0.20205517752E+02 -0.47375534532E+02  0.11308362857E+03  0.75075738473E+02 0.  0.
        -11    1    3    3    0    0  0.65733691582E+02 -0.19750127376E+02 -0.30173812819E+01  0.68702913549E+02  0.00000000000E+00 0.  1.
         12    1    3    3    0    0  0.13396736464E+01 -0.45539037591E+00 -0.44358153250E+02  0.44380715019E+02  0.00000000000E+00 0. -1.
         -2    1    1    2    0  502 -0.67073365228E+02  0.20205517752E+02 -0.52195284771E+02  0.87358153729E+02  0.00000000000E+00 0.  1.
<mgrwt>
<rscale>  1 0.10268138E+03</rscale>
<asrwt>0</asrwt>
<pdfrwt beam="1">  1       21 0.23077892E-01 0.10268138E+03</pdfrwt>
<pdfrwt beam="2">  1       -1 0.77593049E-02 0.10268138E+03</pdfrwt>
<totfact> 0.13672383E+05</totfact>
</mgrwt>
</event>
<event>
 6    2  0.8544106E+000  0.9823560E+02  0.7546771E-02  0.1284051E+00
          2   -1    0    0  502    0 -0.00000000000E+00  0.00000000000E+00  0.82257942200E+03  0.82257942200E+03  0.00000000000E+00 0. -1.
         21   -1    0    0  501  502  0.00000000000E+00 -0.00000000000E+00 -0.82688540692E+01  0.82688540692E+01  0.00000000000E+00 0. -1.
         24    2    1    2    0    0  0.46924852413E+02 -0.31088889693E+02  0.64469748318E+03  0.65213884891E+03  0.80509456618E+02 0.  0.
        -11    1    3    3    0    0  0.58862752920E+01 -0.19736119005E+02  0.32590124499E+02  0.38552287157E+02  0.00000000000E+00 0.  1.
         12    1    3    3    0    0  0.41038577121E+02 -0.11352770688E+02  0.61210735868E+03  0.61358656175E+03  0.00000000000E+00 0. -1.
          1    1    1    2  501    0 -0.46924852413E+02  0.31088889693E+02  0.16961308475E+03  0.17870942716E+03  0.00000000000E+00 0. -1.
<mgrwt>
<rscale>  1 0.98235602E+02</rscale>
<asrwt>0</asrwt>
<pdfrwt beam="1">  1       21 0.12721320E-02 0.98235602E+02</pdfrwt>
<pdfrwt beam="2">  1        2 0.12655062E+00 0.98235602E+02</pdfrwt>
<totfact> 0.10570214E+06</totfact>
</mgrwt>
</event>
<event>
 6    2  0.8544106E+000  0.8767136E+02  0.7546771E-02  0.1308591E+00
         21   -1    0    0  501  502  0.00000000000E+00  0.00000000000E+00  0.89654634868E+01  0.89654634868E+01  0.00000000000E+00 0.  1.
          2   -1    0    0  502    0 -0.00000000000E+00 -0.00000000000E+00 -0.40585983546E+03  0.40585983546E+03  0.00000000000E+00 0. -1.
         24    2    1    2    0    0 -0.11259003470E+02  0.30523811083E+02 -0.27310431183E+03  0.28683136475E+03  0.81411291964E+02 0.  0.
        -13    1    3    3    0    0 -0.18049544169E+02 -0.88646273308E+01 -0.13621216842E+02  0.24287964317E+02  0.00000000000E+00 0.  1.
         14    1    3    3    0    0  0.67905406993E+01  0.39388438414E+02 -0.25948309499E+03  0.26254340043E+03  0.00000000000E+00 0. -1.
          1    1    1    2  501    0  0.11259003470E+02 -0.30523811083E+02 -0.12379006014E+03  0.12799393420E+03  0.00000000000E+00 0. -1.
<mgrwt>
<rscale>  1 0.87671356E+02</rscale>
<asrwt>0</asrwt>
<pdfrwt beam="1">  1       21 0.13793019E-02 0.87671356E+02</pdfrwt>
<pdfrwt beam="2">  1        2 0.62439980E-01 0.87671356E+02</pdfrwt>
<totfact> 0.20325401E+06</totfact>
</mgrwt>
</event>
<event>
 6    2  0.8544106E+000  0.8431465E+02  0.7546771E-02  0.1317235E+00
         -3   -1    0    0    0  501 -0.00000000000E+00  0.00000000000E+00  0.48452090588E+03  0.48452090588E+03  0.00000000000E+00 0.  1.
         21   -1    0    0  501  502  0.00000000000E+00 -0.00000000000E+00 -0.64969400078E+01  0.64969400078E+01  0.00000000000E+00 0. -1.
         24    2    1    2    0    0  0.26828293105E+01  0.25622726160E+02  0.32069503633E+03  0.33159352610E+03  0.80282243090E+02 0.  0.
        -13    1    3    3    0    0 -0.19395730855E+02 -0.21581907541E+02  0.16149678908E+03  0.16408286319E+03  0.00000000000E+00 0.  1.
         14    1    3    3    0    0  0.22078560166E+02  0.47204633702E+02  0.15919824725E+03  0.16751066291E+03  0.00000000000E+00 0. -1.
         -4    1    1    2    0  502 -0.26828293105E+01 -0.25622726160E+02  0.15732892954E+03  0.15942431979E+03  0.00000000000E+00 0.  1.
<mgrwt>
<rscale>  1 0.84314650E+02</rscale>
<asrwt>0</asrwt>
<pdfrwt beam="1">  1       21 0.99952961E-03 0.84314650E+02</pdfrwt>
<pdfrwt beam="2">  1       -3 0.74541650E-01 0.84314650E+02</pdfrwt>
<totfact> 0.28601114E+05</totfact>
</mgrwt>
</event>
<event>
 6    2  0.8544106E+000  0.8488174E+02  0.7546771E-02  0.1315742E+00
         21   -1    0    0  501  502  0.00000000000E+00  0.00000000000E+00  0.10986472046E+03  0.10986472046E+03  0.00000000000E+00 0. -1.
          2   -1    0    0  502    0 -0.00000000000E+00 -0.00000000000E+00 -0.95761520738E+02  0.95761520738E+02  0.00000000000E+00 0. -1.
         24    2    1    2    0    0  0.81824272210E+01  0.22931592996E+02 -0.74992127469E+02  0.11326397942E+03  0.81314818946E+02 0.  0.
        -11    1    3    3    0    0 -0.79981680130E+01  0.92048411480E+01  0.15837874779E+02  0.19988448405E+02  0.00000000000E+00 0.  1.
         12    1    3    3    0    0  0.16180595234E+02  0.13726751848E+02 -0.90830002249E+02  0.93275531020E+02  0.00000000000E+00 0. -1.
          1    1    1    2  501    0 -0.81824272210E+01 -0.22931592996E+02  0.89095327194E+02  0.92362261776E+02  0.00000000000E+00 0. -1.
<mgrwt>
<rscale>  1 0.84881740E+02</rscale>
<asrwt>0</asrwt>
<pdfrwt beam="1">  1       21 0.16902265E-01 0.84881740E+02</pdfrwt>
<pdfrwt beam="2">  1        2 0.14732542E-01 0.84881740E+02</pdfrwt>
<totfact> 0.14701733E+05</totfact>
</mgrwt>
</event>
<event>
 6    2  0.8544106E+000  0.8096748E+02  0.7546771E-02  0.1326328E+00
          2   -1    0    0  502    0 -0.00000000000E+00  0.00000000000E+00  0.17547483798E+02  0.17547483798E+02  0.00000000000E+00 0. -1.
         21   -1    0    0  501  502  0.00000000000E+00 -0.00000000000E+00 -0.15159423719E+03  0.15159423719E+03  0.00000000000E+00 0.  1.
         24    2    1    2    0    0  0.17282861283E+02  0.11363627168E+02 -0.93959230926E+02  0.12403253374E+03  0.78280923818E+02 0.  0.
        -13    1    3    3    0    0  0.39827570978E+02 -0.14045203685E+02 -0.72347934981E+02  0.83771873875E+02  0.00000000000E+00 0.  1.
         14    1    3    3    0    0 -0.22544709694E+02  0.25408830853E+02 -0.21611295945E+02  0.40260659867E+02  0.00000000000E+00 0. -1.
          1    1    1    2  501    0 -0.17282861283E+02 -0.11363627168E+02 -0.40087522462E+02  0.45109187243E+02  0.00000000000E+00 0. -1.
<mgrwt>
<rscale>  1 0.80967477E+02</rscale>
<asrwt>0</asrwt>
<pdfrwt beam="1">  1       21 0.23322190E-01 0.80967477E+02</pdfrwt>
<pdfrwt beam="2">  1        2 0.26996129E-02 0.80967477E+02</pdfrwt>
<totfact> 0.68545284E+05</totfact>
</mgrwt>
</event>
<event>
 6    2  0.8544106E+000  0.9635460E+02  0.7546771E-02  0.1288154E+00
         21   -1    0    0  501  502  0.00000000000E+00  0.00000000000E+00  0.79216078936E+01  0.79216078936E+01  0.00000000000E+00 0. -1.
          2   -1    0    0  502    0 -0.00000000000E+00 -0.00000000000E+00 -0.11322384270E+04  0.11322384270E+04  0.00000000000E+00 0. -1.
         24    2    1    2    0    0  0.27951226386E+02  0.36722641122E+02 -0.10363741416E+04  0.10408436820E+04  0.84583600834E+02 0.  0.
        -13    1    3    3    0    0 -0.19449407560E+01 -0.73067771019E+01 -0.76929729932E+01  0.10786733502E+02  0.00000000000E+00 0.  1.
         14    1    3    3    0    0  0.29896167142E+02  0.44029418224E+02 -0.10286811686E+04  0.10300569485E+04  0.00000000000E+00 0. -1.
          1    1    1    2  501    0 -0.27951226386E+02 -0.36722641122E+02 -0.87942677509E+02  0.99316352908E+02  0.00000000000E+00 0. -1.
<mgrwt>
<rscale>  1 0.96354600E+02</rscale>
<asrwt>0</asrwt>
<pdfrwt beam="1">  1       21 0.12187102E-02 0.96354600E+02</pdfrwt>
<pdfrwt beam="2">  1        2 0.17419035E+00 0.96354600E+02</pdfrwt>
<totfact> 0.73718184E+05</totfact>
</mgrwt>
</event>
<event>
 6    2  0.8544106E+000  0.8032688E+02  0.7546771E-02  0.1328126E+00
         21   -1    0    0  501  502  0.00000000000E+00  0.00000000000E+00  0.62563960095E+02  0.62563960095E+02  0.00000000000E+00 0.  1.
          2   -1    0    0  502    0 -0.00000000000E+00 -0.00000000000E+00 -0.45419377052E+02  0.45419377052E+02  0.00000000000E+00 0. -1.
         24    2    1    2    0    0  0.45524574480E+01 -0.21091281196E+02  0.26330646725E+02  0.84532307803E+02  0.77374679930E+02 0.  0.
        -11    1    3    3    0    0 -0.15783238670E+02 -0.44539567651E+02  0.25015370920E+02  0.53466367856E+02  0.00000000000E+00 0.  1.
         12    1    3    3    0    0  0.20335696118E+02  0.23448286456E+02  0.13152758050E+01  0.31065939947E+02  0.00000000000E+00 0. -1.
          1    1    1    2  501    0 -0.45524574480E+01  0.21091281196E+02 -0.91860636820E+01  0.23451029343E+02  0.00000000000E+00 0. -1.
<mgrwt>
<rscale>  1 0.80326883E+02</rscale>
<asrwt>0</asrwt>
<pdfrwt beam="1">  1       21 0.96252246E-02 0.80326883E+02</pdfrwt>
<pdfrwt beam="2">  1        2 0.69875965E-02 0.80326883E+02</pdfrwt>
<totfact> 0.96799480E+05</totfact>
</mgrwt>
</event>
<event>
 6    2  0.8544106E+000  0.8276583E+02  0.7546771E-02  0.1321381E+00
          2   -1    0    0  502    0 -0.00000000000E+00  0.00000000000E+00  0.11805322417E+04  0.11805322417E+04  0.00000000000E+00 0. -1.
         21   -1    0    0  501  502  0.00000000000E+00 -0.00000000000E+00 -0.39236903463E+01  0.39236903463E+01  0.00000000000E+00 0.  1.
         24    2    1    2    0    0 -0.18390462098E+02 -0.11545712385E+02  0.45156431834E+03  0.45908661066E+03  0.79866575774E+02 0.  0.
        -11    1    3    3    0    0 -0.69131163604E+01 -0.43286981958E+02  0.17224873170E+03  0.17773907719E+03  0.00000000000E+00 0.  1.
         12    1    3    3    0    0 -0.11477345738E+02  0.31741269572E+02  0.27931558663E+03  0.28134753348E+03  0.00000000000E+00 0. -1.
          1    1    1    2  501    0  0.18390462098E+02  0.11545712385E+02  0.72504423302E+03  0.72536932138E+03  0.00000000000E+00 0. -1.
<mgrwt>
<rscale>  1 0.82765829E+02</rscale>
<asrwt>0</asrwt>
<pdfrwt beam="1">  1       21 0.60364561E-03 0.82765829E+02</pdfrwt>
<pdfrwt beam="2">  1        2 0.18162006E+00 0.82765829E+02</pdfrwt>
<totfact> 0.20437664E+06</totfact>
</mgrwt>
</event>
<event>
 6    2  0.8544106E+000  0.8319018E+02  0.7546771E-02  0.1320234E+00
          2   -1    0    0  502    0 -0.00000000000E+00  0.00000000000E+00  0.81359515285E+03  0.81359515285E+03  0.00000000000E+00 0. -1.
         21   -1    0    0  501  502  0.00000000000E+00 -0.00000000000E+00 -0.55176610429E+01  0.55176610429E+01  0.00000000000E+00 0.  1.
         24    2    1    2    0    0  0.30697832058E+01  0.21043825557E+02  0.77708695162E+03  0.78152718174E+03  0.80425986240E+02 0.  0.
        -13    1    3    3    0    0 -0.12294596417E+02  0.48237114106E+02  0.38631419864E+03  0.38950819805E+03  0.00000000000E+00 0.  1.
         14    1    3    3    0    0  0.15364379623E+02 -0.27193288549E+02  0.39077275298E+03  0.39201898369E+03  0.00000000000E+00 0. -1.
          1    1    1    2  501    0 -0.30697832058E+01 -0.21043825557E+02  0.30990540188E+02  0.37585632151E+02  0.00000000000E+00 0. -1.
<mgrwt>
<rscale>  1 0.83190176E+02</rscale>
<asrwt>0</asrwt>
<pdfrwt beam="1">  1       21 0.84887158E-03 0.83190176E+02</pdfrwt>
<pdfrwt beam="2">  1        2 0.12516839E+00 0.83190176E+02</pdfrwt>
<totfact> 0.19867646E+06</totfact>
</mgrwt>
</event>
<event>
 6    2  0.8544106E+000  0.8724840E+02  0.7546771E-02  0.1309655E+00
          2   -1    0    0  502    0 -0.00000000000E+00  0.00000000000E+00  0.31908433450E+03  0.31908433450E+03  0.00000000000E+00 0. -1.
         21   -1    0    0  501  502  0.00000000000E+00 -0.00000000000E+00 -0.25016753870E+02  0.25016753870E+02  0.00000000000E+00 0. -1.
         24    2    1    2    0    0 -0.17690640149E+01  0.27480095996E+02  0.30287391367E+03  0.31519024671E+03  0.82788880754E+02 0.  0.
        -11    1    3    3    0    0 -0.33578454161E+02 -0.10764890766E+02  0.91940400490E+02  0.98470466127E+02  0.00000000000E+00 0.  1.
         12    1    3    3    0    0  0.31809390146E+02  0.38244986762E+02  0.21093351318E+03  0.21671978059E+03  0.00000000000E+00 0. -1.
          1    1    1    2  501    0  0.17690640149E+01 -0.27480095996E+02 -0.88063330456E+01  0.28910841654E+02  0.00000000000E+00 0. -1.
<mgrwt>
<rscale>  1 0.87248404E+02</rscale>
<asrwt>0</asrwt>
<pdfrwt beam="1">  1       21 0.38487316E-02 0.87248404E+02</pdfrwt>
<pdfrwt beam="2">  1        2 0.49089895E-01 0.87248404E+02</pdfrwt>
<totfact> 0.50184213E+05</totfact>
</mgrwt>
</event>
<event>
 6    2  0.8544106E+000  0.1053653E+03  0.7546771E-02  0.1269402E+00
         21   -1    0    0  501  502  0.00000000000E+00  0.00000000000E+00  0.17970167072E+03  0.17970167072E+03  0.00000000000E+00 0. -1.
          4   -1    0    0  502    0 -0.00000000000E+00 -0.00000000000E+00 -0.49720042636E+02  0.49720042636E+02  0.00000000000E+00 0. -1.
         24    2    1    2    0    0 -0.46696402716E+02  0.51004928652E+02  0.11976869305E+03  0.15951920399E+03  0.79497042930E+02 0.  0.
        -13    1    3    3    0    0 -0.73817430163E+01  0.31103522242E+01  0.90739545797E+02  0.91092423353E+02  0.00000000000E+00 0.  1.
         14    1    3    3    0    0 -0.39314659699E+02  0.47894576427E+02  0.29029147249E+02  0.68426780638E+02  0.00000000000E+00 0. -1.
          3    1    1    2  501    0  0.46696402716E+02 -0.51004928652E+02  0.10212935038E+02  0.69902509364E+02  0.00000000000E+00 0. -1.
<mgrwt>
<rscale>  1 0.10536525E+03</rscale>
<asrwt>0</asrwt>
<pdfrwt beam="1">  1       21 0.27646411E-01 0.10536525E+03</pdfrwt>
<pdfrwt beam="2">  1        4 0.76492374E-02 0.10536525E+03</pdfrwt>
<totfact> 0.58391106E+04</totfact>
</mgrwt>
</event>
<event>
 6    2  0.8544106E+000  0.8894862E+02  0.7546771E-02  0.1305418E+00
         21   -1    0    0  501  502  0.00000000000E+00  0.00000000000E+00  0.86440770639E+02  0.86440770639E+02  0.00000000000E+00 0. -1.
          2   -1    0    0  502    0 -0.00000000000E+00 -0.00000000000E+00 -0.48427778244E+02  0.48427778244E+02  0.00000000000E+00 0. -1.
         24    2    1    2    0    0  0.38843434242E+02 -0.28933176469E+01  0.16818952947E+02  0.90524767145E+02  0.79966696929E+02 0.  0.
        -13    1    3    3    0    0 -0.58841680242E+00  0.31374930490E+02  0.21552871888E+02  0.38069131645E+02  0.00000000000E+00 0.  1.
         14    1    3    3    0    0  0.39431851044E+02 -0.34268248137E+02 -0.47339189410E+01  0.52455635500E+02  0.00000000000E+00 0. -1.
          1    1    1    2  501    0 -0.38843434242E+02  0.28933176469E+01  0.21194039448E+02  0.44343781738E+02  0.00000000000E+00 0. -1.
<mgrwt>
<rscale>  1 0.88948616E+02</rscale>
<asrwt>0</asrwt>
<pdfrwt beam="1">  1       21 0.13298580E-01 0.88948616E+02</pdfrwt>
<pdfrwt beam="2">  1        2 0.74504274E-02 0.88948616E+02</pdfrwt>
<totfact> 0.51406743E+05</totfact>
</mgrwt>
</event>
<event>
 6    2  0.8544106E+000  0.8424699E+02  0.7546771E-02  0.1317414E+00
         21   -1    0    0  501  502  0.00000000000E+00  0.00000000000E+00  0.16414926841E+01  0.16414926841E+01  0.00000000000E+00 0.  1.
          2   -1    0    0  502    0 -0.00000000000E+00 -0.00000000000E+00 -0.21793128511E+04  0.21793128511E+04  0.00000000000E+00 0. -1.
         24    2    1    2    0    0  0.21160194588E+02  0.12342440126E+02 -0.19768593920E+04  0.19786537370E+04  0.80606857065E+02 0.  0.
        -13    1    3    3    0    0  0.28252822949E+02 -0.37424244784E+01 -0.23726382029E+03  0.23896934566E+03  0.00000000000E+00 0.  1.
         14    1    3    3    0    0 -0.70926283609E+01  0.16084864604E+02 -0.17395955718E+04  0.17396843914E+04  0.00000000000E+00 0. -1.
          1    1    1    2  501    0 -0.21160194588E+02 -0.12342440126E+02 -0.20081196640E+03  0.20230060680E+03  0.00000000000E+00 0. -1.
<mgrwt>
<rscale>  1 0.84246988E+02</rscale>
<asrwt>0</asrwt>
<pdfrwt beam="1">  1       21 0.25253826E-03 0.84246988E+02</pdfrwt>
<pdfrwt beam="2">  1        2 0.33527768E+00 0.84246988E+02</pdfrwt>
<totfact> 0.23888455E+06</totfact>
</mgrwt>
</event>
<event>
 6    2  0.8544106E+000  0.8728057E+02  0.7546771E-02  0.1309574E+00
          2   -1    0    0  502    0 -0.00000000000E+00  0.00000000000E+00  0.23433443545E+04  0.23433443545E+04  0.00000000000E+00 0. -1.
         21   -1    0    0  501  502  0.00000000000E+00 -0.00000000000E+00 -0.30956701687E+01  0.30956701687E+01  0.00000000000E+00 0. -1.
         24    2    1    2    0    0  0.26338414136E+02  0.13639492311E+02  0.22446393016E+04  0.22463355698E+04  0.82086236680E+02 0.  0.
        -11    1    3    3    0    0  0.46540432466E+02  0.21230141159E+02  0.85510952983E+03  0.85663821929E+03  0.00000000000E+00 0.  1.
         12    1    3    3    0    0 -0.20202018330E+02 -0.75906488479E+01  0.13895297717E+04  0.13896973505E+04  0.00000000000E+00 0. -1.
          1    1    1    2  501    0 -0.26338414136E+02 -0.13639492311E+02  0.95609382770E+02  0.10010445486E+03  0.00000000000E+00 0. -1.
<mgrwt>
<rscale>  1 0.87280571E+02</rscale>
<asrwt>0</asrwt>
<pdfrwt beam="1">  1       21 0.47625882E-03 0.87280571E+02</pdfrwt>
<pdfrwt beam="2">  1        2 0.36051310E+00 0.87280571E+02</pdfrwt>
<totfact> 0.75419488E+05</totfact>
</mgrwt>
</event>
<event>
 6    2  0.8544106E+000  0.8678714E+02  0.7546771E-02  0.1310824E+00
          2   -1    0    0  502    0 -0.00000000000E+00  0.00000000000E+00  0.82166604270E+02  0.82166604270E+02  0.00000000000E+00 0. -1.
         21   -1    0    0  501  502  0.00000000000E+00 -0.00000000000E+00 -0.39800938543E+02  0.39800938543E+02  0.00000000000E+00 0.  1.
         24    2    1    2    0    0  0.26831130450E+02 -0.47495271983E+01  0.36176370398E+02  0.94025192402E+02  0.82398661768E+02 0.  0.
        -13    1    3    3    0    0 -0.14778411501E+02 -0.14553897228E+02 -0.16271431764E+02  0.26362413825E+02  0.00000000000E+00 0.  1.
         14    1    3    3    0    0  0.41609541951E+02  0.98043700294E+01  0.52447802163E+02  0.67662778577E+02  0.00000000000E+00 0. -1.
          1    1    1    2  501    0 -0.26831130450E+02  0.47495271983E+01  0.61892953289E+01  0.27942350411E+02  0.00000000000E+00 0. -1.
<mgrwt>
<rscale>  1 0.86787136E+02</rscale>
<asrwt>0</asrwt>
<pdfrwt beam="1">  1       21 0.61232213E-02 0.86787136E+02</pdfrwt>
<pdfrwt beam="2">  1        2 0.12641016E-01 0.86787136E+02</pdfrwt>
<totfact> 0.10252761E+06</totfact>
</mgrwt>
</event>
<event>
 6    2  0.8544106E+000  0.9451499E+02  0.7546771E-02  0.1292272E+00
          2   -1    0    0  502    0 -0.00000000000E+00  0.00000000000E+00  0.33273435460E+04  0.33273435460E+04  0.00000000000E+00 0. -1.
         21   -1    0    0  501  502  0.00000000000E+00 -0.00000000000E+00 -0.16100926197E+01  0.16100926197E+01  0.00000000000E+00 0.  1.
         24    2    1    2    0    0  0.47126847262E+02  0.18210174205E+02  0.19428906203E+04  0.19451881776E+04  0.79878242044E+02 0.  0.
        -11    1    3    3    0    0  0.63093000110E+02  0.31525936908E+02  0.16785932861E+04  0.16800744124E+04  0.00000000000E+00 0.  1.
         12    1    3    3    0    0 -0.15966152847E+02 -0.13315762703E+02  0.26429733428E+03  0.26511376517E+03  0.00000000000E+00 0. -1.
          1    1    1    2  501    0 -0.47126847262E+02 -0.18210174205E+02  0.13828428330E+04  0.13837654610E+04  0.00000000000E+00 0. -1.
<mgrwt>
<rscale>  1 0.94514992E+02</rscale>
<asrwt>0</asrwt>
<pdfrwt beam="1">  1       21 0.24770922E-03 0.94514992E+02</pdfrwt>
<pdfrwt beam="2">  1        2 0.51189350E+00 0.94514992E+02</pdfrwt>
<totfact> 0.57813901E+05</totfact>
</mgrwt>
</event>
<event>
 6    2  0.8544106E+000  0.8299945E+02  0.7546771E-02  0.1320749E+00
         21   -1    0    0  501  502  0.00000000000E+00  0.00000000000E+00  0.38927161341E+01  0.38927161341E+01  0.00000000000E+00 0. -1.
          2   -1    0    0  502    0 -0.00000000000E+00 -0.00000000000E+00 -0.69091526703E+03  0.69091526703E+03  0.00000000000E+00 0. -1.
         24    2    1    2    0    0 -0.20029624969E+02  0.13426227561E+01 -0.58141853686E+03  0.58731288424E+03  0.80535212655E+02 0.  0.
        -13    1    3    3    0    0  0.20892821515E+02  0.26988876884E+02 -0.20747221829E+03  0.21026086376E+03  0.00000000000E+00 0.  1.
         14    1    3    3    0    0 -0.40922446484E+02 -0.25646254128E+02 -0.37394631857E+03  0.37705202048E+03  0.00000000000E+00 0. -1.
          1    1    1    2  501    0  0.20029624969E+02 -0.13426227561E+01 -0.10560401403E+03  0.10749509892E+03  0.00000000000E+00 0. -1.
<mgrwt>
<rscale>  1 0.82999452E+02</rscale>
<asrwt>0</asrwt>
<pdfrwt beam="1">  1       21 0.59888020E-03 0.82999452E+02</pdfrwt>
<pdfrwt beam="2">  1        2 0.10629452E+00 0.82999452E+02</pdfrwt>
<totfact> 0.41342958E+06</totfact>
</mgrwt>
</event>
<event>
 6    2  0.8544106E+000  0.8824765E+02  0.7546771E-02  0.1307152E+00
         21   -1    0    0  501  502  0.00000000000E+00  0.00000000000E+00  0.84414626043E+01  0.84414626043E+01  0.00000000000E+00 0. -1.
          2   -1    0    0  502    0 -0.00000000000E+00 -0.00000000000E+00 -0.66228522169E+03  0.66228522169E+03  0.00000000000E+00 0. -1.
         24    2    1    2    0    0  0.28063429482E+02 -0.22793117193E+02 -0.59611358892E+03  0.60261020455E+03  0.80501959387E+02 0.  0.
        -11    1    3    3    0    0  0.47080779773E+01  0.24439828338E+02 -0.79218666330E+02  0.83036547993E+02  0.00000000000E+00 0.  1.
         12    1    3    3    0    0  0.23355351504E+02 -0.47232945530E+02 -0.51689492259E+03  0.51957365656E+03  0.00000000000E+00 0. -1.
          1    1    1    2  501    0 -0.28063429482E+02  0.22793117193E+02 -0.57730170166E+02  0.68116479747E+02  0.00000000000E+00 0. -1.
<mgrwt>
<rscale>  1 0.88247650E+02</rscale>
<asrwt>0</asrwt>
<pdfrwt beam="1">  1       21 0.12986867E-02 0.88247650E+02</pdfrwt>
<pdfrwt beam="2">  1        2 0.10189002E+00 0.88247650E+02</pdfrwt>
<totfact> 0.13114875E+06</totfact>
</mgrwt>
</event>
<event>
 6    2  0.8544106E+000  0.1023205E+03  0.7546771E-02  0.1275490E+00
         21   -1    0    0  501  502  0.00000000000E+00  0.00000000000E+00  0.12844946241E+03  0.12844946241E+03  0.00000000000E+00 0. -1.
          2   -1    0    0  502    0 -0.00000000000E+00 -0.00000000000E+00 -0.84310204841E+02  0.84310204841E+02  0.00000000000E+00 0. -1.
         24    2    1    2    0    0  0.17887706317E+02  0.23319965640E+02 -0.50183269803E+02  0.11396427260E+03  0.98008693623E+02 0.  0.
        -13    1    3    3    0    0  0.53080983789E+02 -0.91280232418E+01 -0.20444847973E+02  0.57609924987E+02  0.00000000000E+00 0.  1.
         14    1    3    3    0    0 -0.35193277472E+02  0.32447988882E+02 -0.29738421831E+02  0.56354347611E+02  0.00000000000E+00 0. -1.
          1    1    1    2  501    0 -0.17887706317E+02 -0.23319965640E+02  0.94322527372E+02  0.98795394652E+02  0.00000000000E+00 0. -1.
<mgrwt>
<rscale>  1 0.10232055E+03</rscale>
<asrwt>0</asrwt>
<pdfrwt beam="1">  1       21 0.19761456E-01 0.10232055E+03</pdfrwt>
<pdfrwt beam="2">  1        2 0.12970801E-01 0.10232055E+03</pdfrwt>
<totfact> 0.12977436E+05</totfact>
</mgrwt>
</event>
<event>
 6    2  0.8544106E+000  0.8259263E+02  0.7546771E-02  0.1321851E+00
          2   -1    0    0  502    0 -0.00000000000E+00  0.00000000000E+00  0.10380071066E+04  0.10380071066E+04  0.00000000000E+00 0. -1.
         21   -1    0    0  501  502  0.00000000000E+00 -0.00000000000E+00 -0.16645827279E+02  0.16645827279E+02  0.00000000000E+00 0. -1.
         24    2    1    2    0    0  0.10575290200E+02 -0.17822626406E+02  0.10291906307E+04  0.10324993446E+04  0.79950356098E+02 0.  0.
        -13    1    3    3    0    0 -0.18960314802E+02  0.48819668644E+01  0.72900309665E+02  0.75483655762E+02  0.00000000000E+00 0.  1.
         14    1    3    3    0    0  0.29535605003E+02 -0.22704593270E+02  0.95629032108E+03  0.95701568885E+03  0.00000000000E+00 0. -1.
          1    1    1    2  501    0 -0.10575290200E+02  0.17822626406E+02 -0.78293514037E+01  0.22153589285E+02  0.00000000000E+00 0. -1.
<mgrwt>
<rscale>  1 0.82592628E+02</rscale>
<asrwt>0</asrwt>
<pdfrwt beam="1">  1       21 0.25608973E-02 0.82592628E+02</pdfrwt>
<pdfrwt beam="2">  1        2 0.15969335E+00 0.82592628E+02</pdfrwt>
<totfact> 0.25323518E+05</totfact>
</mgrwt>
</event>
<event>
 6    2  0.8544106E+000  0.8257854E+02  0.7546771E-02  0.1321889E+00
         -3   -1    0    0    0  501 -0.00000000000E+00  0.00000000000E+00  0.13711427780E+04  0.13711427780E+04  0.00000000000E+00 0.  1.
         21   -1    0    0  501  502  0.00000000000E+00 -0.00000000000E+00 -0.35697201736E+01  0.35697201736E+01  0.00000000000E+00 0. -1.
         24    2    1    2    0    0  0.46555775622E+01 -0.19830329724E+02  0.13244368650E+04  0.13270087508E+04  0.80026864435E+02 0.  0.
        -13    1    3    3    0    0  0.34672746911E+02 -0.21693500674E+02  0.10730614515E+04  0.10738406241E+04  0.00000000000E+00 0.  1.
         14    1    3    3    0    0 -0.30017169349E+02  0.18631709502E+01  0.25137541347E+03  0.25316812666E+03  0.00000000000E+00 0. -1.
         -4    1    1    2    0  502 -0.46555775622E+01  0.19830329724E+02  0.43136192870E+02  0.47703747386E+02  0.00000000000E+00 0.  1.
<mgrwt>
<rscale>  1 0.82578541E+02</rscale>
<asrwt>0</asrwt>
<pdfrwt beam="1">  1       21 0.54918881E-03 0.82578541E+02</pdfrwt>
<pdfrwt beam="2">  1       -3 0.21094462E+00 0.82578541E+02</pdfrwt>
<totfact> 0.60542430E+04</totfact>
</mgrwt>
</event>
<event>
 6    2  0.8544106E+000  0.2232400E+03  0.7546771E-02  0.1131490E+00
         21   -1    0    0  501  502  0.00000000000E+00  0.00000000000E+00  0.85048483342E+02  0.85048483342E+02  0.00000000000E+00 0. -1.
          2   -1    0    0  502    0 -0.00000000000E+00 -0.00000000000E+00 -0.97553265692E+03  0.97553265692E+03  0.00000000000E+00 0. -1.
         24    2    1    2    0    0 -0.20241728115E+03  0.50177515589E+02 -0.80468484506E+03  0.83507711912E+03  0.79658999592E+02 0.  0.
        -11    1    3    3    0    0 -0.22585776286E+02 -0.19973134055E+02 -0.10225169947E+03  0.10660419044E+03  0.00000000000E+00 0.  1.
         12    1    3    3    0    0 -0.17983150487E+03  0.70150649645E+02 -0.70243314560E+03  0.72847292868E+03  0.00000000000E+00 0. -1.
          1    1    1    2  501    0  0.20241728115E+03 -0.50177515589E+02 -0.85799328517E+02  0.22550402115E+03  0.00000000000E+00 0. -1.
<mgrwt>
<rscale>  1 0.22323999E+03</rscale>
<asrwt>0</asrwt>
<pdfrwt beam="1">  1       21 0.13084382E-01 0.22323999E+03</pdfrwt>
<pdfrwt beam="2">  1        2 0.15008194E+00 0.22323999E+03</pdfrwt>
<totfact> 0.17237205E+04</totfact>
</mgrwt>
</event>
<event>
 6    2  0.8544106E+000  0.9003047E+02  0.7546771E-02  0.1302778E+00
         -3   -1    0    0    0  501 -0.00000000000E+00  0.00000000000E+00  0.43190053416E+02  0.43190053416E+02  0.00000000000E+00 0.  1.
         21   -1    0    0  501  502  0.00000000000E+00 -0.00000000000E+00 -0.14883798419E+03  0.14883798419E+03  0.00000000000E+00 0.  1.
         24    2    1    2    0    0 -0.30704112323E+02  0.26635145645E+02 -0.13140358026E+02  0.90984361342E+02  0.80332505891E+02 0.  0.
        -11    1    3    3    0    0 -0.11541458875E+02  0.46761597849E+02  0.15965693402E+02  0.50742050335E+02  0.00000000000E+00 0.  1.
         12    1    3    3    0    0 -0.19162653448E+02 -0.20126452204E+02 -0.29106051428E+02  0.40242311008E+02  0.00000000000E+00 0. -1.
         -4    1    1    2    0  502  0.30704112323E+02 -0.26635145645E+02 -0.92507572746E+02  0.10104367626E+03  0.00000000000E+00 0.  1.
<mgrwt>
<rscale>  1 0.90030467E+02</rscale>
<asrwt>0</asrwt>
<pdfrwt beam="1">  1       21 0.22898151E-01 0.90030467E+02</pdfrwt>
<pdfrwt beam="2">  1       -3 0.66446236E-02 0.90030467E+02</pdfrwt>
<totfact> 0.11685639E+05</totfact>
</mgrwt>
</event>
<event>
 6    2  0.8544106E+000  0.8280684E+02  0.7546771E-02  0.1321270E+00
          2   -1    0    0  502    0 -0.00000000000E+00  0.00000000000E+00  0.20710907546E+04  0.20710907546E+04  0.00000000000E+00 0. -1.
         21   -1    0    0  501  502  0.00000000000E+00 -0.00000000000E+00 -0.19452174252E+02  0.19452174252E+02  0.00000000000E+00 0. -1.
         24    2    1    2    0    0  0.21432296247E+02 -0.96563096423E+01  0.20628413999E+04  0.20645027522E+04  0.79400156483E+02 0.  0.
        -13    1    3    3    0    0 -0.20773338582E+02 -0.28496373275E+02  0.10792936324E+04  0.10798695846E+04  0.00000000000E+00 0.  1.
         14    1    3    3    0    0  0.42205634829E+02  0.18840063633E+02  0.98354776753E+03  0.98463316754E+03  0.00000000000E+00 0. -1.
          1    1    1    2  501    0 -0.21432296247E+02  0.96563096423E+01 -0.11202819531E+02  0.26040176723E+02  0.00000000000E+00 0. -1.
<mgrwt>
<rscale>  1 0.82806838E+02</rscale>
<asrwt>0</asrwt>
<pdfrwt beam="1">  1       21 0.29926438E-02 0.82806838E+02</pdfrwt>
<pdfrwt beam="2">  1        2 0.31862917E+00 0.82806838E+02</pdfrwt>
<totfact> 0.57719990E+04</totfact>
</mgrwt>
</event>
<event>
 6    2  0.8544106E+000  0.1890075E+03  0.7546771E-02  0.1159360E+00
          2   -1    0    0  502    0 -0.00000000000E+00  0.00000000000E+00  0.49418952433E+03  0.49418952433E+03  0.00000000000E+00 0. -1.
         21   -1    0    0  501  502  0.00000000000E+00 -0.00000000000E+00 -0.84647138768E+02  0.84647138768E+02  0.00000000000E+00 0. -1.
         24    2    1    2    0    0  0.16655894989E+03 -0.42545798529E+02  0.34842492458E+03  0.39638838879E+03  0.78560791354E+02 0.  0.
        -13    1    3    3    0    0  0.57494379560E+02 -0.39592657256E+02  0.77417808137E+02  0.10424346122E+03  0.00000000000E+00 0.  1.
         14    1    3    3    0    0  0.10906457033E+03 -0.29531412728E+01  0.27100711644E+03  0.29214492757E+03  0.00000000000E+00 0. -1.
          1    1    1    2  501    0 -0.16655894989E+03  0.42545798529E+02  0.61117460983E+02  0.18244827431E+03  0.00000000000E+00 0. -1.
<mgrwt>
<rscale>  1 0.18900748E+03</rscale>
<asrwt>0</asrwt>
<pdfrwt beam="1">  1       21 0.13022637E-01 0.18900748E+03</pdfrwt>
<pdfrwt beam="2">  1        2 0.76029156E-01 0.18900748E+03</pdfrwt>
<totfact> 0.40025948E+04</totfact>
</mgrwt>
</event>
<event>
 6    2  0.8544106E+000  0.8932264E+02  0.7546771E-02  0.1304500E+00
         21   -1    0    0  501  502  0.00000000000E+00  0.00000000000E+00  0.35492126849E+01  0.35492126849E+01  0.00000000000E+00 0.  1.
          2   -1    0    0  502    0 -0.00000000000E+00 -0.00000000000E+00 -0.11577316284E+04  0.11577316284E+04  0.00000000000E+00 0. -1.
         24    2    1    2    0    0  0.24754425488E+02  0.28994361693E+02 -0.86394528738E+03  0.86855051253E+03  0.80777958876E+02 0.  0.
        -13    1    3    3    0    0  0.35472240762E+02  0.51702080486E+02 -0.53851357939E+03  0.54215151035E+03  0.00000000000E+00 0.  1.
         14    1    3    3    0    0 -0.10717815274E+02 -0.22707718793E+02 -0.32543170799E+03  0.32639900218E+03  0.00000000000E+00 0. -1.
          1    1    1    2  501    0 -0.24754425488E+02 -0.28994361693E+02 -0.29023712833E+03  0.29273032855E+03  0.00000000000E+00 0. -1.
<mgrwt>
<rscale>  1 0.89322636E+02</rscale>
<asrwt>0</asrwt>
<pdfrwt beam="1">  1       21 0.54603243E-03 0.89322636E+02</pdfrwt>
<pdfrwt beam="2">  1        2 0.17811265E+00 0.89322636E+02</pdfrwt>
<totfact> 0.24714797E+06</totfact>
</mgrwt>
</event>
<event>
 6    2  0.8544106E+000  0.9006858E+02  0.7546771E-02  0.1302686E+00
         21   -1    0    0  501  502  0.00000000000E+00  0.00000000000E+00  0.26075474507E+02  0.26075474507E+02  0.00000000000E+00 0. -1.
          2   -1    0    0  502    0 -0.00000000000E+00 -0.00000000000E+00 -0.32890258490E+03  0.32890258490E+03  0.00000000000E+00 0. -1.
         24    2    1    2    0    0 -0.37746200400E+02 -0.15887343721E+02 -0.30077719386E+03  0.31397335854E+03  0.80219487608E+02 0.  0.
        -13    1    3    3    0    0  0.24612855880E+02 -0.12487044026E+02 -0.89342184208E+02  0.93507993360E+02  0.00000000000E+00 0.  1.
         14    1    3    3    0    0 -0.62359056280E+02 -0.34002996947E+01 -0.21143500965E+03  0.22046536518E+03  0.00000000000E+00 0. -1.
          1    1    1    2  501    0  0.37746200400E+02  0.15887343721E+02 -0.20499165303E+01  0.41004700864E+02  0.00000000000E+00 0. -1.
<mgrwt>
<rscale>  1 0.90068582E+02</rscale>
<asrwt>0</asrwt>
<pdfrwt beam="1">  1       21 0.40116115E-02 0.90068582E+02</pdfrwt>
<pdfrwt beam="2">  1        2 0.50600397E-01 0.90068582E+02</pdfrwt>
<totfact> 0.45541705E+05</totfact>
</mgrwt>
</event>
<event>
 6    2  0.8544106E+000  0.8658630E+02  0.7546771E-02  0.1311336E+00
         21   -1    0    0  501  502  0.00000000000E+00  0.00000000000E+00  0.37318189187E+01  0.37318189187E+01  0.00000000000E+00 0. -1.
         -1   -1    0    0    0  501 -0.00000000000E+00 -0.00000000000E+00 -0.10733361930E+04  0.10733361930E+04  0.00000000000E+00 0.  1.
         24    2    1    2    0    0 -0.37998481551E+02 -0.36452845314E+01 -0.82046109914E+03  0.82501733418E+03  0.77717525686E+02 0.  0.
        -13    1    3    3    0    0  0.10917931267E+02  0.75170697677E+01 -0.28103075537E+02  0.31072341651E+02  0.00000000000E+00 0.  1.
         14    1    3    3    0    0 -0.48916412818E+02 -0.11162354299E+02 -0.79235802360E+03  0.79394499253E+03  0.00000000000E+00 0. -1.
         -2    1    1    2    0  502  0.37998481551E+02  0.36452845314E+01 -0.24914327499E+03  0.25205067779E+03  0.00000000000E+00 0.  1.
<mgrwt>
<rscale>  1 0.86586295E+02</rscale>
<asrwt>0</asrwt>
<pdfrwt beam="1">  1       21 0.57412610E-03 0.86586295E+02</pdfrwt>
<pdfrwt beam="2">  1       -1 0.16512861E+00 0.86586295E+02</pdfrwt>
<totfact> 0.23627011E+05</totfact>
</mgrwt>
</event>
<event>
 6    2  0.8544106E+000  0.8993999E+02  0.7546771E-02  0.1302997E+00
          2   -1    0    0  502    0 -0.00000000000E+00  0.00000000000E+00  0.18385651422E+04  0.18385651422E+04  0.00000000000E+00 0. -1.
         21   -1    0    0  501  502  0.00000000000E+00 -0.00000000000E+00 -0.24138977877E+01  0.24138977877E+01  0.00000000000E+00 0. -1.
         24    2    1    2    0    0 -0.39774377422E+02  0.23988357283E+01  0.10614120022E+04  0.10652157713E+04  0.80631542523E+02 0.  0.
        -13    1    3    3    0    0  0.81326567730E+01  0.17970499820E+02  0.76031571103E+02  0.78548575890E+02  0.00000000000E+00 0.  1.
         14    1    3    3    0    0 -0.47907034195E+02 -0.15571664092E+02  0.98538043105E+03  0.98666719543E+03  0.00000000000E+00 0. -1.
          1    1    1    2  501    0  0.39774377422E+02 -0.23988357283E+01  0.77473924225E+03  0.77576326865E+03  0.00000000000E+00 0. -1.
<mgrwt>
<rscale>  1 0.89939986E+02</rscale>
<asrwt>0</asrwt>
<pdfrwt beam="1">  1       21 0.37137036E-03 0.89939986E+02</pdfrwt>
<pdfrwt beam="2">  1        2 0.28285506E+00 0.89939986E+02</pdfrwt>
<totfact> 0.19861341E+06</totfact>
</mgrwt>
</event>
<event>
 6    2  0.8544106E+000  0.8181749E+02  0.7546771E-02  0.1323971E+00
         21   -1    0    0  501  502  0.00000000000E+00  0.00000000000E+00  0.19173142467E+01  0.19173142467E+01  0.00000000000E+00 0. -1.
          2   -1    0    0  502    0 -0.00000000000E+00 -0.00000000000E+00 -0.22913520641E+04  0.22913520641E+04  0.00000000000E+00 0. -1.
         24    2    1    2    0    0 -0.20334241437E+02 -0.23574767013E+02 -0.20722531660E+04  0.20738677116E+04  0.75662739358E+02 0.  0.
        -11    1    3    3    0    0 -0.12457769434E+02  0.44956649797E+01 -0.61802510648E+02  0.63205674945E+02  0.00000000000E+00 0.  1.
         12    1    3    3    0    0 -0.78764720029E+01 -0.28070431993E+02 -0.20104506554E+04  0.20106620367E+04  0.00000000000E+00 0. -1.
          1    1    1    2  501    0  0.20334241437E+02  0.23574767013E+02 -0.21718158387E+03  0.21940166678E+03  0.00000000000E+00 0. -1.
<mgrwt>
<rscale>  1 0.81817487E+02</rscale>
<asrwt>0</asrwt>
<pdfrwt beam="1">  1       21 0.29497036E-03 0.81817487E+02</pdfrwt>
<pdfrwt beam="2">  1        2 0.35251697E+00 0.81817487E+02</pdfrwt>
<totfact> 0.16553064E+06</totfact>
</mgrwt>
</event>
<event>
 6    2  0.8544106E+000  0.9055585E+02  0.7546771E-02  0.1301511E+00
         21   -1    0    0  501  502  0.00000000000E+00  0.00000000000E+00  0.54930411394E+01  0.54930411394E+01  0.00000000000E+00 0.  1.
          2   -1    0    0  502    0 -0.00000000000E+00 -0.00000000000E+00 -0.84439008131E+03  0.84439008131E+03  0.00000000000E+00 0. -1.
         24    2    1    2    0    0 -0.41612280728E+00 -0.40330613350E+02 -0.45873904732E+03  0.46759157002E+03  0.81077933406E+02 0.  0.
        -13    1    3    3    0    0  0.40173386666E+01  0.23085955866E+02 -0.73572352519E+02  0.77213932832E+02  0.00000000000E+00 0.  1.
         14    1    3    3    0    0 -0.44334614739E+01 -0.63416569216E+02 -0.38516669480E+03  0.39037763719E+03  0.00000000000E+00 0. -1.
          1    1    1    2  501    0  0.41612280728E+00  0.40330613350E+02 -0.38015799286E+03  0.38229155244E+03  0.00000000000E+00 0. -1.
<mgrwt>
<rscale>  1 0.90555855E+02</rscale>
<asrwt>0</asrwt>
<pdfrwt beam="1">  1       21 0.84508261E-03 0.90555855E+02</pdfrwt>
<pdfrwt beam="2">  1        2 0.12990626E+00 0.90555855E+02</pdfrwt>
<totfact> 0.19276131E+06</totfact>
</mgrwt>
</event>
<event>
 6    2  0.8544106E+000  0.8671355E+02  0.7546771E-02  0.1311011E+00
          2   -1    0    0  502    0 -0.00000000000E+00  0.00000000000E+00  0.39695835816E+03  0.39695835816E+03  0.00000000000E+00 0. -1.
         21   -1    0    0  501  502  0.00000000000E+00 -0.00000000000E+00 -0.14016390968E+02  0.14016390968E+02  0.00000000000E+00 0. -1.
         24    2    1    2    0    0 -0.76489522808E+01  0.25867736222E+02  0.37181901387E+03  0.38179656655E+03  0.82411121242E+02 0.  0.
        -11    1    3    3    0    0 -0.21068649738E+02 -0.23214053461E+02  0.20520897756E+03  0.20758975107E+03  0.00000000000E+00 0.  1.
         12    1    3    3    0    0  0.13419697457E+02  0.49081789683E+02  0.16661003631E+03  0.17420681548E+03  0.00000000000E+00 0. -1.
          1    1    1    2  501    0  0.76489522808E+01 -0.25867736222E+02  0.11122953328E+02  0.29178182585E+02  0.00000000000E+00 0. -1.
<mgrwt>
<rscale>  1 0.86713547E+02</rscale>
<asrwt>0</asrwt>
<pdfrwt beam="1">  1       21 0.21563681E-02 0.86713547E+02</pdfrwt>
<pdfrwt beam="2">  1        2 0.61070508E-01 0.86713547E+02</pdfrwt>
<totfact> 0.10211333E+06</totfact>
</mgrwt>
</event>
<event>
 6    2  0.8544106E+000  0.1099682E+03  0.7546771E-02  0.1260629E+00
         21   -1    0    0  501  502  0.00000000000E+00  0.00000000000E+00  0.12384695365E+02  0.12384695365E+02  0.00000000000E+00 0. -1.
          2   -1    0    0  502    0 -0.00000000000E+00 -0.00000000000E+00 -0.79431356980E+03  0.79431356980E+03  0.00000000000E+00 0. -1.
         24    2    1    2    0    0  0.67239493637E+02 -0.33230564822E+02 -0.59865169528E+03  0.60866810498E+03  0.80421326884E+02 0.  0.
        -13    1    3    3    0    0  0.17867737595E+02 -0.33344586184E+02 -0.90020936603E+02  0.97646743424E+02  0.00000000000E+00 0.  1.
         14    1    3    3    0    0  0.49371756043E+02  0.11402136215E+00 -0.50863075868E+03  0.51102136156E+03  0.00000000000E+00 0. -1.
          1    1    1    2  501    0 -0.67239493637E+02  0.33230564822E+02 -0.18327717916E+03  0.19803016018E+03  0.00000000000E+00 0. -1.
<mgrwt>
<rscale>  1 0.10996822E+03</rscale>
<asrwt>0</asrwt>
<pdfrwt beam="1">  1       21 0.19053378E-02 0.10996822E+03</pdfrwt>
<pdfrwt beam="2">  1        2 0.12220208E+00 0.10996822E+03</pdfrwt>
<totfact> 0.58521672E+05</totfact>
</mgrwt>
</event>
<event>
 6    2  0.8544106E+000  0.8583197E+02  0.7546771E-02  0.1313271E+00
         21   -1    0    0  501  502  0.00000000000E+00  0.00000000000E+00  0.78480306175E+01  0.78480306175E+01  0.00000000000E+00 0.  1.
         -1   -1    0    0    0  501 -0.00000000000E+00 -0.00000000000E+00 -0.42967899869E+03  0.42967899869E+03  0.00000000000E+00 0.  1.
         24    2    1    2    0    0  0.11190345101E+02  0.25049475447E+02 -0.35614162773E+03  0.36633862099E+03  0.81329122617E+02 0.  0.
        -13    1    3    3    0    0  0.64144849626E+01  0.41414997764E+02 -0.34091292262E+03  0.34347921111E+03  0.00000000000E+00 0.  1.
         14    1    3    3    0    0  0.47758601383E+01 -0.16365522317E+02 -0.15228705109E+02  0.22859409880E+02  0.00000000000E+00 0. -1.
         -2    1    1    2    0  502 -0.11190345101E+02 -0.25049475447E+02 -0.65689340342E+02  0.71188408313E+02  0.00000000000E+00 0.  1.
<mgrwt>
<rscale>  1 0.85831965E+02</rscale>
<asrwt>0</asrwt>
<pdfrwt beam="1">  1       21 0.12073890E-02 0.85831965E+02</pdfrwt>
<pdfrwt beam="2">  1       -1 0.66104479E-01 0.85831965E+02</pdfrwt>
<totfact> 0.57724989E+05</totfact>
</mgrwt>
</event>
<event>
 6    2  0.8544106E+000  0.8929747E+02  0.7546771E-02  0.1304562E+00
         21   -1    0    0  501  502  0.00000000000E+00  0.00000000000E+00  0.40704710688E+02  0.40704710688E+02  0.00000000000E+00 0.  1.
         -1   -1    0    0    0  501 -0.00000000000E+00 -0.00000000000E+00 -0.12295100454E+03  0.12295100454E+03  0.00000000000E+00 0.  1.
         24    2    1    2    0    0  0.17495228488E+02 -0.40090166365E+02 -0.27203555429E+02  0.93349189840E+02  0.77850711986E+02 0.  0.
        -11    1    3    3    0    0  0.70330849910E+01 -0.51660340080E+02  0.99283957568E+01  0.53073798281E+02  0.00000000000E+00 0.  1.
         12    1    3    3    0    0  0.10462143497E+02  0.11570173715E+02 -0.37131951186E+02  0.40275391559E+02  0.00000000000E+00 0. -1.
         -2    1    1    2    0  502 -0.17495228488E+02  0.40090166365E+02 -0.55042738422E+02  0.70306525387E+02  0.00000000000E+00 0.  1.
<mgrwt>
<rscale>  1 0.89297468E+02</rscale>
<asrwt>0</asrwt>
<pdfrwt beam="1">  1       21 0.62622634E-02 0.89297468E+02</pdfrwt>
<pdfrwt beam="2">  1       -1 0.18915539E-01 0.89297468E+02</pdfrwt>
<totfact> 0.34404757E+05</totfact>
</mgrwt>
</event>
<event>
 6    2  0.8544106E+000  0.8900167E+02  0.7546771E-02  0.1305287E+00
         21   -1    0    0  501  502  0.00000000000E+00  0.00000000000E+00  0.55038470446E+01  0.55038470446E+01  0.00000000000E+00 0.  1.
          2   -1    0    0  502    0 -0.00000000000E+00 -0.00000000000E+00 -0.13401357364E+04  0.13401357364E+04  0.00000000000E+00 0. -1.
         24    2    1    2    0    0  0.18246620125E+02 -0.33586661660E+02 -0.12452663573E+04  0.12484428690E+04  0.80375950562E+02 0.  0.
        -11    1    3    3    0    0  0.46067010686E+01 -0.25251350656E+02 -0.10596970958E+03  0.10903408528E+03  0.00000000000E+00 0.  1.
         12    1    3    3    0    0  0.13639919056E+02 -0.83353110040E+01 -0.11392966478E+04  0.11394087837E+04  0.00000000000E+00 0. -1.
          1    1    1    2  501    0 -0.18246620125E+02  0.33586661660E+02 -0.89365531989E+02  0.97196714425E+02  0.00000000000E+00 0. -1.
<mgrwt>
<rscale>  1 0.89001665E+02</rscale>
<asrwt>0</asrwt>
<pdfrwt beam="1">  1       21 0.84674502E-03 0.89001665E+02</pdfrwt>
<pdfrwt beam="2">  1        2 0.20617489E+00 0.89001665E+02</pdfrwt>
<totfact> 0.10017665E+06</totfact>
</mgrwt>
</event>
<event>
 6    2  0.8544106E+000  0.8463410E+02  0.7546771E-02  0.1316392E+00
          2   -1    0    0  502    0 -0.00000000000E+00  0.00000000000E+00  0.23133233110E+04  0.23133233110E+04  0.00000000000E+00 0. -1.
         21   -1    0    0  501  502  0.00000000000E+00 -0.00000000000E+00 -0.44249338125E+01  0.44249338125E+01  0.00000000000E+00 0. -1.
         24    2    1    2    0    0  0.16470630524E+02 -0.14038667512E+02  0.22803696286E+04  0.22819396516E+04  0.81820317646E+02 0.  0.
        -11    1    3    3    0    0 -0.13276316806E+02 -0.32246062174E+02  0.49387721430E+03  0.49510682880E+03  0.00000000000E+00 0.  1.
         12    1    3    3    0    0  0.29746947330E+02  0.18207394662E+02  0.17864924143E+04  0.17868328228E+04  0.00000000000E+00 0. -1.
          1    1    1    2  501    0 -0.16470630524E+02  0.14038667512E+02  0.28528748538E+02  0.35808593222E+02  0.00000000000E+00 0. -1.
<mgrwt>
<rscale>  1 0.84634096E+02</rscale>
<asrwt>0</asrwt>
<pdfrwt beam="1">  1       21 0.68076089E-03 0.84634096E+02</pdfrwt>
<pdfrwt beam="2">  1        2 0.35589493E+00 0.84634096E+02</pdfrwt>
<totfact> 0.45103507E+05</totfact>
</mgrwt>
</event>
<event>
 6    2  0.8544106E+000  0.8691648E+02  0.7546771E-02  0.1310495E+00
         21   -1    0    0  501  502  0.00000000000E+00  0.00000000000E+00  0.33345971548E+02  0.33345971548E+02  0.00000000000E+00 0.  1.
          2   -1    0    0  502    0 -0.00000000000E+00 -0.00000000000E+00 -0.13706357538E+03  0.13706357538E+03  0.00000000000E+00 0. -1.
         24    2    1    2    0    0  0.31270958105E+02 -0.63353066328E+01 -0.10754278522E+03  0.13827481581E+03  0.80848408167E+02 0.  0.
        -13    1    3    3    0    0  0.37096961285E+01 -0.22561082199E+01  0.13440720305E+02  0.14124617941E+02  0.00000000000E+00 0.  1.
         14    1    3    3    0    0  0.27561261976E+02 -0.40791984129E+01 -0.12098350553E+03  0.12415019787E+03  0.00000000000E+00 0. -1.
          1    1    1    2  501    0 -0.31270958105E+02  0.63353066328E+01  0.38251813963E+01  0.32134731112E+02  0.00000000000E+00 0. -1.
<mgrwt>
<rscale>  1 0.86916477E+02</rscale>
<asrwt>0</asrwt>
<pdfrwt beam="1">  1       21 0.51301496E-02 0.86916477E+02</pdfrwt>
<pdfrwt beam="2">  1        2 0.21086703E-01 0.86916477E+02</pdfrwt>
<totfact> 0.76808036E+05</totfact>
</mgrwt>
</event>
<event>
 6    2  0.8544106E+000  0.8712591E+02  0.7546771E-02  0.1309965E+00
         -1   -1    0    0    0  501 -0.00000000000E+00  0.00000000000E+00  0.14761736318E+03  0.14761736318E+03  0.00000000000E+00 0.  1.
         21   -1    0    0  501  502  0.00000000000E+00 -0.00000000000E+00 -0.33460019282E+02  0.33460019282E+02  0.00000000000E+00 0.  1.
         24    2    1    2    0    0  0.21999595365E+02  0.24241230564E+02  0.11952022720E+03  0.14790540674E+03  0.80742214352E+02 0.  0.
        -13    1    3    3    0    0  0.20115565071E+02 -0.11456847238E+02  0.10784169723E+03  0.11029835433E+03  0.00000000000E+00 0.  1.
         14    1    3    3    0    0  0.18840302942E+01  0.35698077801E+02  0.11678529970E+02  0.37607052412E+02  0.00000000000E+00 0. -1.
         -2    1    1    2    0  502 -0.21999595365E+02 -0.24241230564E+02 -0.53628833049E+01  0.33171975715E+02  0.00000000000E+00 0.  1.
<mgrwt>
<rscale>  1 0.87125913E+02</rscale>
<asrwt>0</asrwt>
<pdfrwt beam="1">  1       21 0.51476953E-02 0.87125913E+02</pdfrwt>
<pdfrwt beam="2">  1       -1 0.22710363E-01 0.87125913E+02</pdfrwt>
<totfact> 0.35609118E+05</totfact>
</mgrwt>
</event>
<event>
 6    2  0.8544106E+000  0.8049582E+02  0.7546771E-02  0.1327650E+00
         21   -1    0    0  501  502  0.00000000000E+00  0.00000000000E+00  0.79263513986E+02  0.79263513986E+02  0.00000000000E+00 0.  1.
         -3   -1    0    0    0  501 -0.00000000000E+00 -0.00000000000E+00 -0.45858146343E+02  0.45858146343E+02  0.00000000000E+00 0.  1.
         24    2    1    2    0    0  0.19600363164E+02 -0.46297859834E+01 -0.61540382275E+01  0.80730718153E+02  0.77935662650E+02 0.  0.
        -11    1    3    3    0    0  0.22868017893E+02  0.28807272994E+02 -0.22761461803E+02  0.43253778600E+02  0.00000000000E+00 0.  1.
         12    1    3    3    0    0 -0.32676547294E+01 -0.33437058978E+02  0.16607423576E+02  0.37476939554E+02  0.00000000000E+00 0. -1.
         -4    1    1    2    0  502 -0.19600363164E+02  0.46297859834E+01  0.39559405870E+02  0.44390942175E+02  0.00000000000E+00 0.  1.
<mgrwt>
<rscale>  1 0.80495818E+02</rscale>
<asrwt>0</asrwt>
<pdfrwt beam="1">  1       21 0.12194387E-01 0.80495818E+02</pdfrwt>
<pdfrwt beam="2">  1       -3 0.70550994E-02 0.80495818E+02</pdfrwt>
<totfact> 0.32454602E+05</totfact>
</mgrwt>
</event>
<event>
 6    2  0.8544106E+000  0.9928264E+02  0.7546771E-02  0.1281812E+00
         21   -1    0    0  501  502  0.00000000000E+00  0.00000000000E+00  0.13796424139E+02  0.13796424139E+02  0.00000000000E+00 0.  1.
         -1   -1    0    0    0  501 -0.00000000000E+00 -0.00000000000E+00 -0.60572947367E+03  0.60572947367E+03  0.00000000000E+00 0.  1.
         24    2    1    2    0    0 -0.55492083545E+02 -0.77159339175E+01 -0.51425559635E+03  0.52375171702E+03  0.81964234495E+02 0.  0.
        -11    1    3    3    0    0 -0.37927643003E+02 -0.31318131619E+02 -0.45442100878E+03  0.45707525058E+03  0.00000000000E+00 0.  1.
         12    1    3    3    0    0 -0.17564440542E+02  0.23602197702E+02 -0.59834587571E+02  0.66676466446E+02  0.00000000000E+00 0. -1.
         -2    1    1    2    0  502  0.55492083545E+02  0.77159339175E+01 -0.77677453185E+02  0.95774180788E+02  0.00000000000E+00 0.  1.
<mgrwt>
<rscale>  1 0.99282641E+02</rscale>
<asrwt>0</asrwt>
<pdfrwt beam="1">  1       21 0.21225264E-02 0.99282641E+02</pdfrwt>
<pdfrwt beam="2">  1       -1 0.93189167E-01 0.99282641E+02</pdfrwt>
<totfact> 0.11929671E+05</totfact>
</mgrwt>
</event>
<event>
 6    2  0.8544106E+000  0.8414459E+02  0.7546771E-02  0.1317685E+00
         21   -1    0    0  501  502  0.00000000000E+00  0.00000000000E+00  0.71171638866E+01  0.71171638866E+01  0.00000000000E+00 0.  1.
          2   -1    0    0  502    0 -0.00000000000E+00 -0.00000000000E+00 -0.42445865268E+03  0.42445865268E+03  0.00000000000E+00 0. -1.
         24    2    1    2    0    0 -0.67062504658E+01  0.23671479577E+02 -0.29399560961E+03  0.30580014860E+03  0.80467382671E+02 0.  0.
        -11    1    3    3    0    0 -0.10513796131E+02  0.41295757366E+01 -0.16614371639E+00  0.11296942444E+02  0.00000000000E+00 0.  1.
         12    1    3    3    0    0  0.38075456650E+01  0.19541903840E+02 -0.29382946589E+03  0.29450320615E+03  0.00000000000E+00 0. -1.
          1    1    1    2  501    0  0.67062504658E+01 -0.23671479577E+02 -0.12334587919E+03  0.12577566797E+03  0.00000000000E+00 0. -1.
<mgrwt>
<rscale>  1 0.84144592E+02</rscale>
<asrwt>0</asrwt>
<pdfrwt beam="1">  1       21 0.10949483E-02 0.84144592E+02</pdfrwt>
<pdfrwt beam="2">  1        2 0.65301330E-01 0.84144592E+02</pdfrwt>
<totfact> 0.27724079E+06</totfact>
</mgrwt>
</event>
<event>
 6    2  0.8544106E+000  0.8087963E+02  0.7546771E-02  0.1326574E+00
         21   -1    0    0  501  502  0.00000000000E+00  0.00000000000E+00  0.63573146825E+01  0.63573146825E+01  0.00000000000E+00 0.  1.
          2   -1    0    0  502    0 -0.00000000000E+00 -0.00000000000E+00 -0.47500516603E+03  0.47500516603E+03  0.00000000000E+00 0. -1.
         24    2    1    2    0    0  0.23361992251E+02  0.64148843206E+01 -0.41011267716E+03  0.41801186872E+03  0.77165931601E+02 0.  0.
        -13    1    3    3    0    0  0.61455798310E+01 -0.99474379124E+01 -0.58907945219E+01  0.13092789335E+02  0.00000000000E+00 0.  1.
         14    1    3    3    0    0  0.17216412420E+02  0.16362322233E+02 -0.40422188263E+03  0.40491907938E+03  0.00000000000E+00 0. -1.
          1    1    1    2  501    0 -0.23361992251E+02 -0.64148843206E+01 -0.58535174187E+02  0.63350611993E+02  0.00000000000E+00 0. -1.
<mgrwt>
<rscale>  1 0.80879629E+02</rscale>
<asrwt>0</asrwt>
<pdfrwt beam="1">  1       21 0.97804821E-03 0.80879629E+02</pdfrwt>
<pdfrwt beam="2">  1        2 0.73077733E-01 0.80879629E+02</pdfrwt>
<totfact> 0.29199766E+06</totfact>
</mgrwt>
</event>
<event>
 6    2  0.8544106E+000  0.9757697E+02  0.7546771E-02  0.1285475E+00
          2   -1    0    0  502    0 -0.00000000000E+00  0.00000000000E+00  0.11835524295E+04  0.11835524295E+04  0.00000000000E+00 0. -1.
         21   -1    0    0  501  502  0.00000000000E+00 -0.00000000000E+00 -0.63683200370E+01  0.63683200370E+01  0.00000000000E+00 0.  1.
         24    2    1    2    0    0  0.89811434152E+01 -0.55494603247E+02  0.44454610509E+03  0.45512910738E+03  0.79755582318E+02 0.  0.
        -11    1    3    3    0    0  0.27992764548E+02 -0.31303439435E+02  0.90723442096E+02  0.99971211522E+02  0.00000000000E+00 0.  1.
         12    1    3    3    0    0 -0.19011621133E+02 -0.24191163812E+02  0.35382266299E+03  0.35515789586E+03  0.00000000000E+00 0. -1.
          1    1    1    2  501    0 -0.89811434152E+01  0.55494603247E+02  0.73263800439E+03  0.73479164217E+03  0.00000000000E+00 0. -1.
<mgrwt>
<rscale>  1 0.97576969E+02</rscale>
<asrwt>0</asrwt>
<pdfrwt beam="1">  1       21 0.97974248E-03 0.97576969E+02</pdfrwt>
<pdfrwt beam="2">  1        2 0.18208481E+00 0.97576969E+02</pdfrwt>
<totfact> 0.97369138E+05</totfact>
</mgrwt>
</event>
<event>
 6    2  0.8544106E+000  0.9358503E+02  0.7546771E-02  0.1294395E+00
         21   -1    0    0  501  502  0.00000000000E+00  0.00000000000E+00  0.73576458918E+02  0.73576458918E+02  0.00000000000E+00 0. -1.
         -1   -1    0    0    0  501 -0.00000000000E+00 -0.00000000000E+00 -0.69093550636E+02  0.69093550636E+02  0.00000000000E+00 0.  1.
         24    2    1    2    0    0  0.51628057235E+01 -0.46808160933E+02  0.13998620628E+02  0.94626203770E+02  0.80873348932E+02 0.  0.
        -13    1    3    3    0    0 -0.31600918523E+02  0.14376805538E+01  0.12314905577E+02  0.33946161436E+02  0.00000000000E+00 0.  1.
         14    1    3    3    0    0  0.36763724247E+02 -0.48245841486E+02  0.16837150506E+01  0.60680042333E+02  0.00000000000E+00 0. -1.
         -2    1    1    2    0  502 -0.51628057235E+01  0.46808160933E+02 -0.95157123463E+01  0.48043805785E+02  0.00000000000E+00 0.  1.
<mgrwt>
<rscale>  1 0.93585026E+02</rscale>
<asrwt>0</asrwt>
<pdfrwt beam="1">  1       21 0.11319455E-01 0.93585026E+02</pdfrwt>
<pdfrwt beam="2">  1       -1 0.10629777E-01 0.93585026E+02</pdfrwt>
<totfact> 0.30510484E+05</totfact>
</mgrwt>
</event>
<event>
 6    2  0.8544106E+000  0.8394759E+02  0.7546771E-02  0.1318208E+00
          2   -1    0    0  502    0 -0.00000000000E+00  0.00000000000E+00  0.15347620406E+03  0.15347620406E+03  0.00000000000E+00 0. -1.
         21   -1    0    0  501  502  0.00000000000E+00 -0.00000000000E+00 -0.50105595280E+02  0.50105595280E+02  0.00000000000E+00 0. -1.
         24    2    1    2    0    0 -0.16648484755E+02 -0.13566988136E+02  0.13876475303E+03  0.16218154984E+03  0.81153947611E+02 0.  0.
        -11    1    3    3    0    0  0.23698756004E+02 -0.71661128843E+01  0.93384733873E+01  0.26461128004E+02  0.00000000000E+00 0.  1.
         12    1    3    3    0    0 -0.40347240759E+02 -0.64008752513E+01  0.12942627964E+03  0.13572042183E+03  0.00000000000E+00 0. -1.
          1    1    1    2  501    0  0.16648484755E+02  0.13566988136E+02 -0.35394144249E+02  0.41400249502E+02  0.00000000000E+00 0. -1.
<mgrwt>
<rscale>  1 0.83947593E+02</rscale>
<asrwt>0</asrwt>
<pdfrwt beam="1">  1       21 0.77085532E-02 0.83947593E+02</pdfrwt>
<pdfrwt beam="2">  1        2 0.23611724E-01 0.83947593E+02</pdfrwt>
<totfact> 0.34075020E+05</totfact>
</mgrwt>
</event>
<event>
 6    2  0.8544106E+000  0.8318405E+02  0.7546771E-02  0.1320251E+00
         21   -1    0    0  501  502  0.00000000000E+00  0.00000000000E+00  0.34325403608E+01  0.34325403608E+01  0.00000000000E+00 0.  1.
          2   -1    0    0  502    0 -0.00000000000E+00 -0.00000000000E+00 -0.87720180979E+03  0.87720180979E+03  0.00000000000E+00 0. -1.
         24    2    1    2    0    0 -0.66665901428E+00 -0.24125334055E+02 -0.74437941687E+03  0.74901288487E+03  0.79605962486E+02 0.  0.
        -13    1    3    3    0    0  0.19292983257E+02 -0.41874346275E+02 -0.27207119317E+03  0.27595002126E+03  0.00000000000E+00 0.  1.
         14    1    3    3    0    0 -0.19959642271E+02  0.17749012220E+02 -0.47230822370E+03  0.47306286361E+03  0.00000000000E+00 0. -1.
          1    1    1    2  501    0  0.66665901428E+00  0.24125334055E+02 -0.12938985256E+03  0.13162146528E+03  0.00000000000E+00 0. -1.
<mgrwt>
<rscale>  1 0.83184046E+02</rscale>
<asrwt>0</asrwt>
<pdfrwt beam="1">  1       21 0.52808242E-03 0.83184046E+02</pdfrwt>
<pdfrwt beam="2">  1        2 0.13495431E+00 0.83184046E+02</pdfrwt>
<totfact> 0.37610108E+06</totfact>
</mgrwt>
</event>
<event>
 6    2  0.8544106E+000  0.8292803E+02  0.7546771E-02  0.1320942E+00
         -1   -1    0    0    0  501 -0.00000000000E+00  0.00000000000E+00  0.66277268925E+02  0.66277268925E+02  0.00000000000E+00 0.  1.
         21   -1    0    0  501  502  0.00000000000E+00 -0.00000000000E+00 -0.61823231438E+02  0.61823231438E+02  0.00000000000E+00 0.  1.
         24    2    1    2    0    0 -0.84987658942E+01  0.21919918038E+02  0.34612264153E+02  0.89861378195E+02  0.79525760813E+02 0.  0.
        -11    1    3    3    0    0 -0.23922482864E+02  0.35161255228E+02  0.49056614937E+02  0.64924190597E+02  0.00000000000E+00 0.  1.
         12    1    3    3    0    0  0.15423716969E+02 -0.13241337190E+02 -0.14444350784E+02  0.24937187599E+02  0.00000000000E+00 0. -1.
         -2    1    1    2    0  502  0.84987658942E+01 -0.21919918038E+02 -0.30158226666E+02  0.38239122168E+02  0.00000000000E+00 0.  1.
<mgrwt>
<rscale>  1 0.82928032E+02</rscale>
<asrwt>0</asrwt>
<pdfrwt beam="1">  1       21 0.95112664E-02 0.82928032E+02</pdfrwt>
<pdfrwt beam="2">  1       -1 0.10196503E-01 0.82928032E+02</pdfrwt>
<totfact> 0.43418616E+05</totfact>
</mgrwt>
</event>
<event>
 6    2  0.8544106E+000  0.8280797E+02  0.7546771E-02  0.1321267E+00
         21   -1    0    0  501  502  0.00000000000E+00  0.00000000000E+00  0.34999117032E+02  0.34999117032E+02  0.00000000000E+00 0.  1.
          2   -1    0    0  502    0 -0.00000000000E+00 -0.00000000000E+00 -0.96250801177E+02  0.96250801177E+02  0.00000000000E+00 0. -1.
         24    2    1    2    0    0 -0.24496564208E+02 -0.56413388245E+00 -0.23208893360E+02  0.85998908985E+02  0.79099682114E+02 0.  0.
        -13    1    3    3    0    0 -0.40758620993E+02 -0.27605520890E+02 -0.47846896691E+01  0.49459308771E+02  0.00000000000E+00 0.  1.
         14    1    3    3    0    0  0.16262056784E+02  0.27041387008E+02 -0.18424203690E+02  0.36539600214E+02  0.00000000000E+00 0. -1.
          1    1    1    2  501    0  0.24496564208E+02  0.56413388245E+00 -0.38042790785E+02  0.45251009224E+02  0.00000000000E+00 0. -1.
<mgrwt>
<rscale>  1 0.82807968E+02</rscale>
<asrwt>0</asrwt>
<pdfrwt beam="1">  1       21 0.53844796E-02 0.82807968E+02</pdfrwt>
<pdfrwt beam="2">  1        2 0.14807816E-01 0.82807968E+02</pdfrwt>
<totfact> 0.10513217E+06</totfact>
</mgrwt>
</event>
<event>
 6    2  0.8544106E+000  0.8685223E+02  0.7546771E-02  0.1310659E+00
          2   -1    0    0  502    0 -0.00000000000E+00  0.00000000000E+00  0.48609402029E+02  0.48609402029E+02  0.00000000000E+00 0. -1.
         21   -1    0    0  501  502  0.00000000000E+00 -0.00000000000E+00 -0.75497760226E+02  0.75497760226E+02  0.00000000000E+00 0. -1.
         24    2    1    2    0    0 -0.27903174880E+02 -0.17970938883E+02 -0.11804286586E+02  0.87650735812E+02  0.80260628541E+02 0.  0.
        -11    1    3    3    0    0 -0.48893787233E+02  0.16485835812E+01 -0.26220033193E+02  0.55505048405E+02  0.00000000000E+00 0.  1.
         12    1    3    3    0    0  0.20990612353E+02 -0.19619522464E+02  0.14415746607E+02  0.32145687407E+02  0.00000000000E+00 0. -1.
          1    1    1    2  501    0  0.27903174880E+02  0.17970938883E+02 -0.15084071611E+02  0.36456426444E+02  0.00000000000E+00 0. -1.
<mgrwt>
<rscale>  1 0.86852233E+02</rscale>
<asrwt>0</asrwt>
<pdfrwt beam="1">  1       21 0.11615040E-01 0.86852233E+02</pdfrwt>
<pdfrwt beam="2">  1        2 0.74783695E-02 0.86852233E+02</pdfrwt>
<totfact> 0.64753615E+05</totfact>
</mgrwt>
</event>
<event>
 6    2  0.8544106E+000  0.8598915E+02  0.7546771E-02  0.1312866E+00
         21   -1    0    0  501  502  0.00000000000E+00  0.00000000000E+00  0.30120288918E+03  0.30120288918E+03  0.00000000000E+00 0. -1.
          2   -1    0    0  502    0 -0.00000000000E+00 -0.00000000000E+00 -0.22160320166E+02  0.22160320166E+02  0.00000000000E+00 0. -1.
         24    2    1    2    0    0 -0.19371576306E+02  0.23371933613E+02  0.28008641345E+03  0.29298896268E+03  0.80452644460E+02 0.  0.
        -11    1    3    3    0    0  0.13595113184E+02 -0.64972191660E+01  0.20615965191E+03  0.20670956203E+03  0.00000000000E+00 0.  1.
         12    1    3    3    0    0 -0.32966689489E+02  0.29869152779E+02  0.73926761540E+02  0.86279400644E+02  0.00000000000E+00 0. -1.
          1    1    1    2  501    0  0.19371576306E+02 -0.23371933613E+02 -0.10438444407E+01  0.30374246668E+02  0.00000000000E+00 0. -1.
<mgrwt>
<rscale>  1 0.85989146E+02</rscale>
<asrwt>0</asrwt>
<pdfrwt beam="1">  1       21 0.46338903E-01 0.85989146E+02</pdfrwt>
<pdfrwt beam="2">  1        2 0.34092802E-02 0.85989146E+02</pdfrwt>
<totfact> 0.13462787E+05</totfact>
</mgrwt>
</event>
<event>
 6    2  0.8544106E+000  0.8916419E+02  0.7546771E-02  0.1304888E+00
          2   -1    0    0  502    0 -0.00000000000E+00  0.00000000000E+00  0.17722011761E+04  0.17722011761E+04  0.00000000000E+00 0. -1.
         21   -1    0    0  501  502  0.00000000000E+00 -0.00000000000E+00 -0.33895442585E+01  0.33895442585E+01  0.00000000000E+00 0. -1.
         24    2    1    2    0    0  0.15196225398E+01 -0.30965992110E+02  0.16614869964E+04  0.16638777878E+04  0.83600548668E+02 0.  0.
        -11    1    3    3    0    0  0.13318773732E+02 -0.23630204670E+02  0.15695647399E+03  0.15928311597E+03  0.00000000000E+00 0.  1.
         12    1    3    3    0    0 -0.11799151193E+02 -0.73357874394E+01  0.15045305224E+04  0.15045946718E+04  0.00000000000E+00 0. -1.
          1    1    1    2  501    0 -0.15196225398E+01  0.30965992110E+02  0.10732463550E+03  0.11171293258E+03  0.00000000000E+00 0. -1.
<mgrwt>
<rscale>  1 0.89164195E+02</rscale>
<asrwt>0</asrwt>
<pdfrwt beam="1">  1       21 0.52146976E-03 0.89164195E+02</pdfrwt>
<pdfrwt beam="2">  1        2 0.27264560E+00 0.89164195E+02</pdfrwt>
<totfact> 0.12761403E+06</totfact>
</mgrwt>
</event>
<event>
 6    2  0.8544106E+000  0.7891160E+02  0.7546771E-02  0.1332169E+00
         21   -1    0    0  501  502  0.00000000000E+00  0.00000000000E+00  0.20009173418E+01  0.20009173418E+01  0.00000000000E+00 0. -1.
          2   -1    0    0  502    0 -0.00000000000E+00 -0.00000000000E+00 -0.16102147283E+04  0.16102147283E+04  0.00000000000E+00 0. -1.
         24    2    1    2    0    0 -0.20707852481E+02  0.99563487387E+01 -0.14690383197E+04  0.14711562206E+04  0.75492360802E+02 0.  0.
        -13    1    3    3    0    0 -0.33803436761E+02 -0.92042422589E+01 -0.32505725727E+03  0.32693976650E+03  0.00000000000E+00 0.  1.
         14    1    3    3    0    0  0.13095584280E+02  0.19160590998E+02 -0.11439810625E+04  0.11442164541E+04  0.00000000000E+00 0. -1.
          1    1    1    2  501    0  0.20707852481E+02 -0.99563487387E+01 -0.13917549121E+03  0.14105942502E+03  0.00000000000E+00 0. -1.
<mgrwt>
<rscale>  1 0.78911600E+02</rscale>
<asrwt>0</asrwt>
<pdfrwt beam="1">  1       21 0.30783416E-03 0.78911600E+02</pdfrwt>
<pdfrwt beam="2">  1        2 0.24772476E+00 0.78911600E+02</pdfrwt>
<totfact> 0.33977386E+06</totfact>
</mgrwt>
</event>
<event>
 6    2  0.8544106E+000  0.9251292E+02  0.7546771E-02  0.1296878E+00
          2   -1    0    0  502    0 -0.00000000000E+00  0.00000000000E+00  0.15318301708E+04  0.15318301708E+04  0.00000000000E+00 0. -1.
         21   -1    0    0  501  502  0.00000000000E+00 -0.00000000000E+00 -0.66761718948E+01  0.66761718948E+01  0.00000000000E+00 0. -1.
         24    2    1    2    0    0  0.22962913179E+02  0.34799387049E+02  0.14467608784E+04  0.14497157235E+04  0.82585391334E+02 0.  0.
        -11    1    3    3    0    0  0.10389154330E+02 -0.21185666411E+02  0.81849288105E+03  0.81883292759E+03  0.00000000000E+00 0.  1.
         12    1    3    3    0    0  0.12573758849E+02  0.55985053460E+02  0.62826799740E+03  0.63088279591E+03  0.00000000000E+00 0. -1.
          1    1    1    2  501    0 -0.22962913179E+02 -0.34799387049E+02  0.78393120473E+02  0.88790619201E+02  0.00000000000E+00 0. -1.
<mgrwt>
<rscale>  1 0.92512916E+02</rscale>
<asrwt>0</asrwt>
<pdfrwt beam="1">  1       21 0.10271046E-02 0.92512916E+02</pdfrwt>
<pdfrwt beam="2">  1        2 0.23566590E+00 0.92512916E+02</pdfrwt>
<totfact> 0.59163245E+05</totfact>
</mgrwt>
</event>
<event>
 6    2  0.8544106E+000  0.8938286E+02  0.7546771E-02  0.1304353E+00
          4   -1    0    0  502    0 -0.00000000000E+00  0.00000000000E+00  0.14260953617E+04  0.14260953617E+04  0.00000000000E+00 0. -1.
         21   -1    0    0  501  502  0.00000000000E+00 -0.00000000000E+00 -0.43589962644E+01  0.43589962644E+01  0.00000000000E+00 0.  1.
         24    2    1    2    0    0  0.15624859076E+02  0.19793459719E+02  0.47231736579E+03  0.48070051925E+03  0.85751839103E+02 0.  0.
        -13    1    3    3    0    0  0.79267021630E+01  0.50375960903E+02  0.19356437463E+03  0.20016927129E+03  0.00000000000E+00 0.  1.
         14    1    3    3    0    0  0.76981569130E+01 -0.30582501184E+02  0.27875299116E+03  0.28053124795E+03  0.00000000000E+00 0. -1.
          3    1    1    2  501    0 -0.15624859076E+02 -0.19793459719E+02  0.94941899963E+03  0.94975383870E+03  0.00000000000E+00 0. -1.
<mgrwt>
<rscale>  1 0.89382857E+02</rscale>
<asrwt>0</asrwt>
<pdfrwt beam="1">  1       21 0.67061595E-03 0.89382857E+02</pdfrwt>
<pdfrwt beam="2">  1        4 0.21939891E+00 0.89382857E+02</pdfrwt>
<totfact> 0.30298536E+04</totfact>
</mgrwt>
</event>
<event>
 6    2  0.8544106E+000  0.9053125E+02  0.7546771E-02  0.1301570E+00
         -1   -1    0    0    0  501 -0.00000000000E+00  0.00000000000E+00  0.15800256629E+02  0.15800256629E+02  0.00000000000E+00 0.  1.
         21   -1    0    0  501  502  0.00000000000E+00 -0.00000000000E+00 -0.29683884540E+03  0.29683884540E+03  0.00000000000E+00 0. -1.
         24    2    1    2    0    0 -0.25381304029E+02  0.35622571716E+02 -0.15856216071E+03  0.18258659863E+03  0.79263667469E+02 0.  0.
        -13    1    3    3    0    0  0.25067977119E+02 -0.45765248274E+01 -0.36307472758E+02  0.44357419158E+02  0.00000000000E+00 0.  1.
         14    1    3    3    0    0 -0.50449281148E+02  0.40199096543E+02 -0.12225468796E+03  0.13822917948E+03  0.00000000000E+00 0. -1.
         -2    1    1    2    0  502  0.25381304029E+02 -0.35622571716E+02 -0.12247642806E+03  0.13005250340E+03  0.00000000000E+00 0.  1.
<mgrwt>
<rscale>  1 0.90531250E+02</rscale>
<asrwt>0</asrwt>
<pdfrwt beam="1">  1       21 0.45667514E-01 0.90531250E+02</pdfrwt>
<pdfrwt beam="2">  1       -1 0.24308088E-02 0.90531250E+02</pdfrwt>
<totfact> 0.19716528E+05</totfact>
</mgrwt>
</event>
<event>
 6    2  0.8544106E+000  0.8909537E+02  0.7546771E-02  0.1305057E+00
         -1   -1    0    0    0  501 -0.00000000000E+00  0.00000000000E+00  0.91706251230E+00  0.91706251230E+00  0.00000000000E+00 0.  1.
         21   -1    0    0  501  502  0.00000000000E+00 -0.00000000000E+00 -0.37164817157E+04  0.37164817157E+04  0.00000000000E+00 0.  1.
         24    2    1    2    0    0 -0.22318896480E+02 -0.42858134511E+01 -0.24290803463E+04  0.24307137456E+04  0.86148028553E+02 0.  0.
        -13    1    3    3    0    0 -0.49300339336E+02  0.12531205602E+02 -0.18987443003E+04  0.18994255638E+04  0.00000000000E+00 0.  1.
         14    1    3    3    0    0  0.26981442856E+02 -0.16817019053E+02 -0.53033604606E+03  0.53128818181E+03  0.00000000000E+00 0. -1.
         -2    1    1    2    0  502  0.22318896480E+02  0.42858134511E+01 -0.12864843069E+04  0.12866850326E+04  0.00000000000E+00 0.  1.
<mgrwt>
<rscale>  1 0.89095366E+02</rscale>
<asrwt>0</asrwt>
<pdfrwt beam="1">  1       21 0.57177201E+00 0.89095366E+02</pdfrwt>
<pdfrwt beam="2">  1       -1 0.14108516E-03 0.89095366E+02</pdfrwt>
<totfact> 0.17138401E+03</totfact>
</mgrwt>
</event>
<event>
 6    2  0.8544106E+000  0.7270301E+02  0.7546771E-02  0.1351135E+00
          2   -1    0    0  502    0 -0.00000000000E+00  0.00000000000E+00  0.48501652038E+03  0.48501652038E+03  0.00000000000E+00 0. -1.
         21   -1    0    0  501  502  0.00000000000E+00 -0.00000000000E+00 -0.17744688081E+02  0.17744688081E+02  0.00000000000E+00 0. -1.
         24    2    1    2    0    0 -0.22230611042E+01  0.26786297194E+02  0.47014182407E+03  0.47573003070E+03  0.67552051422E+02 0.  0.
        -13    1    3    3    0    0  0.16599962488E+02 -0.54925291753E+01  0.36401004049E+02  0.40382666172E+02  0.00000000000E+00 0.  1.
         14    1    3    3    0    0 -0.18823023592E+02  0.32278826369E+02  0.43374082002E+03  0.43534736453E+03  0.00000000000E+00 0. -1.
          1    1    1    2  501    0  0.22230611042E+01 -0.26786297194E+02 -0.28699917779E+01  0.27031177755E+02  0.00000000000E+00 0. -1.
<mgrwt>
<rscale>  1 0.72703008E+02</rscale>
<asrwt>0</asrwt>
<pdfrwt beam="1">  1       21 0.27299524E-02 0.72703008E+02</pdfrwt>
<pdfrwt beam="2">  1        2 0.74617916E-01 0.72703008E+02</pdfrwt>
<totfact> 0.55623753E+05</totfact>
</mgrwt>
</event>
<event>
 6    2  0.8544106E+000  0.8272294E+02  0.7546771E-02  0.1321497E+00
         21   -1    0    0  501  502  0.00000000000E+00  0.00000000000E+00  0.13129413275E+03  0.13129413275E+03  0.00000000000E+00 0. -1.
         -1   -1    0    0    0  501 -0.00000000000E+00 -0.00000000000E+00 -0.23541216997E+02  0.23541216997E+02  0.00000000000E+00 0.  1.
         24    2    1    2    0    0 -0.66314968038E+01 -0.27635057097E+02  0.78196214004E+02  0.11383203587E+03  0.77687910098E+02 0.  0.
        -13    1    3    3    0    0 -0.12726512105E+02 -0.22962586589E+02 -0.78825935699E+01  0.27411307422E+02  0.00000000000E+00 0.  1.
         14    1    3    3    0    0  0.60950153016E+01 -0.46724705079E+01  0.86078807574E+02  0.86420728449E+02  0.00000000000E+00 0. -1.
         -2    1    1    2    0  502  0.66314968038E+01  0.27635057097E+02  0.29556701752E+02  0.41003313879E+02  0.00000000000E+00 0.  1.
<mgrwt>
<rscale>  1 0.82722938E+02</rscale>
<asrwt>0</asrwt>
<pdfrwt beam="1">  1       21 0.20199097E-01 0.82722938E+02</pdfrwt>
<pdfrwt beam="2">  1       -1 0.36217258E-02 0.82722938E+02</pdfrwt>
<totfact> 0.52468485E+05</totfact>
</mgrwt>
</event>
<event>
 6    2  0.8544106E+000  0.8771683E+02  0.7546771E-02  0.1308477E+00
          2   -1    0    0  502    0 -0.00000000000E+00  0.00000000000E+00  0.70118465137E+02  0.70118465137E+02  0.00000000000E+00 0. -1.
         21   -1    0    0  501  502  0.00000000000E+00 -0.00000000000E+00 -0.44151270430E+02  0.44151270430E+02  0.00000000000E+00 0.  1.
         24    2    1    2    0    0 -0.81582899171E+00 -0.23534497184E+02  0.19710473095E+02  0.89904089670E+02  0.84496771862E+02 0.  0.
        -11    1    3    3    0    0 -0.38477540897E+02 -0.11588529166E+02 -0.88547237986E+01  0.41148770277E+02  0.00000000000E+00 0.  1.
         12    1    3    3    0    0  0.37661711906E+02 -0.11945968018E+02  0.28565196893E+02  0.48755319393E+02  0.00000000000E+00 0. -1.
          1    1    1    2  501    0  0.81582899171E+00  0.23534497184E+02  0.62567216120E+01  0.24365645897E+02  0.00000000000E+00 0. -1.
<mgrwt>
<rscale>  1 0.87716832E+02</rscale>
<asrwt>0</asrwt>
<pdfrwt beam="1">  1       21 0.67925032E-02 0.87716832E+02</pdfrwt>
<pdfrwt beam="2">  1        2 0.10787456E-01 0.87716832E+02</pdfrwt>
<totfact> 0.10408167E+06</totfact>
</mgrwt>
</event>
<event>
 6    2  0.8544106E+000  0.9387554E+02  0.7546771E-02  0.1293729E+00
         21   -1    0    0  501  502  0.00000000000E+00  0.00000000000E+00  0.36610334354E+02  0.36610334354E+02  0.00000000000E+00 0.  1.
          2   -1    0    0  502    0 -0.00000000000E+00 -0.00000000000E+00 -0.11840671772E+03  0.11840671772E+03  0.00000000000E+00 0. -1.
         24    2    1    2    0    0  0.63958535348E+01 -0.26572982213E+02 -0.86061257197E+02  0.12735445142E+03  0.89808607488E+02 0.  0.
        -13    1    3    3    0    0  0.41849156767E+02  0.30053694767E+01 -0.19301290571E+02  0.46183590002E+02  0.00000000000E+00 0.  1.
         14    1    3    3    0    0 -0.35453303232E+02 -0.29578351690E+02 -0.66759966626E+02  0.81170861414E+02  0.00000000000E+00 0. -1.
          1    1    1    2  501    0 -0.63958535348E+01  0.26572982213E+02  0.42648738346E+01  0.27662600654E+02  0.00000000000E+00 0. -1.
<mgrwt>
<rscale>  1 0.93875536E+02</rscale>
<asrwt>0</asrwt>
<pdfrwt beam="1">  1       21 0.56323591E-02 0.93875536E+02</pdfrwt>
<pdfrwt beam="2">  1        2 0.18216418E-01 0.93875536E+02</pdfrwt>
<totfact> 0.78024566E+05</totfact>
</mgrwt>
</event>
<event>
 6    2  0.8544106E+000  0.8474864E+02  0.7546771E-02  0.1316091E+00
         -3   -1    0    0    0  501 -0.00000000000E+00  0.00000000000E+00  0.29326104052E+03  0.29326104052E+03  0.00000000000E+00 0.  1.
         21   -1    0    0  501  502  0.00000000000E+00 -0.00000000000E+00 -0.26628208992E+02  0.26628208992E+02  0.00000000000E+00 0.  1.
         24    2    1    2    0    0  0.88134492449E+01 -0.24919408705E+02  0.27835792453E+03  0.29097330886E+03  0.80521292249E+02 0.  0.
        -11    1    3    3    0    0 -0.17272955897E+02 -0.17248836487E+02  0.25174645113E+03  0.25292716941E+03  0.00000000000E+00 0.  1.
         12    1    3    3    0    0  0.26086405142E+02 -0.76705722181E+01  0.26611473395E+02  0.38046139457E+02  0.00000000000E+00 0. -1.
         -4    1    1    2    0  502 -0.88134492449E+01  0.24919408705E+02 -0.11725093000E+02  0.28915940649E+02  0.00000000000E+00 0.  1.
<mgrwt>
<rscale>  1 0.84748642E+02</rscale>
<asrwt>0</asrwt>
<pdfrwt beam="1">  1       21 0.40966477E-02 0.84748642E+02</pdfrwt>
<pdfrwt beam="2">  1       -3 0.45117081E-01 0.84748642E+02</pdfrwt>
<totfact> 0.82946661E+04</totfact>
</mgrwt>
</event>
<event>
 6    2  0.8544106E+000  0.1258776E+03  0.7546771E-02  0.1233704E+00
         21   -1    0    0  501  502  0.00000000000E+00  0.00000000000E+00  0.12261775531E+03  0.12261775531E+03  0.00000000000E+00 0. -1.
          4   -1    0    0  502    0 -0.00000000000E+00 -0.00000000000E+00 -0.10237180077E+03  0.10237180077E+03  0.00000000000E+00 0. -1.
         24    2    1    2    0    0 -0.93536680477E+02 -0.20659115334E+02 -0.48318107550E+01  0.12597034606E+03  0.81665611181E+02 0.  0.
        -13    1    3    3    0    0  0.11155211667E+02 -0.17868200562E+02  0.90872918584E+00  0.21084049123E+02  0.00000000000E+00 0.  1.
         14    1    3    3    0    0 -0.10469189214E+03 -0.27909147718E+01 -0.57405399408E+01  0.10488629693E+03  0.00000000000E+00 0. -1.
          3    1    1    2  501    0  0.93536680477E+02  0.20659115334E+02  0.25077765300E+02  0.99019210022E+02  0.00000000000E+00 0. -1.
<mgrwt>
<rscale>  1 0.12587765E+03</rscale>
<asrwt>0</asrwt>
<pdfrwt beam="1">  1       21 0.18864270E-01 0.12587765E+03</pdfrwt>
<pdfrwt beam="2">  1        4 0.15749508E-01 0.12587765E+03</pdfrwt>
<totfact> 0.35869029E+04</totfact>
</mgrwt>
</event>
<event>
 6    2  0.8544106E+000  0.8675532E+02  0.7546771E-02  0.1310905E+00
         -3   -1    0    0    0  501 -0.00000000000E+00  0.00000000000E+00  0.27550925023E+02  0.27550925023E+02  0.00000000000E+00 0.  1.
         21   -1    0    0  501  502  0.00000000000E+00 -0.00000000000E+00 -0.34428725183E+03  0.34428725183E+03  0.00000000000E+00 0.  1.
         24    2    1    2    0    0  0.21737247085E+02 -0.22486537039E+02 -0.43927646178E+02  0.97242604265E+02  0.80921775355E+02 0.  0.
        -13    1    3    3    0    0  0.34807107622E+02  0.77903559032E+01 -0.52219729581E+02  0.63238631734E+02  0.00000000000E+00 0.  1.
         14    1    3    3    0    0 -0.13069860536E+02 -0.30276892943E+02  0.82920834027E+01  0.34003972531E+02  0.00000000000E+00 0. -1.
         -4    1    1    2    0  502 -0.21737247085E+02  0.22486537039E+02 -0.27280868063E+03  0.27459557259E+03  0.00000000000E+00 0.  1.
<mgrwt>
<rscale>  1 0.86755323E+02</rscale>
<asrwt>0</asrwt>
<pdfrwt beam="1">  1       21 0.52967275E-01 0.86755323E+02</pdfrwt>
<pdfrwt beam="2">  1       -3 0.42386034E-02 0.86755323E+02</pdfrwt>
<totfact> 0.46072901E+04</totfact>
</mgrwt>
</event>
<event>
 6    2  0.8544106E+000  0.8696452E+02  0.7546771E-02  0.1310374E+00
          2   -1    0    0  502    0 -0.00000000000E+00  0.00000000000E+00  0.60329000225E+03  0.60329000225E+03  0.00000000000E+00 0. -1.
         21   -1    0    0  501  502  0.00000000000E+00 -0.00000000000E+00 -0.62462138970E+01  0.62462138970E+01  0.00000000000E+00 0. -1.
         24    2    1    2    0    0  0.33314178515E+02 -0.11416786040E+02  0.45084797629E+03  0.45915871464E+03  0.79515093002E+02 0.  0.
        -13    1    3    3    0    0  0.76754397187E+01  0.33667795379E+02  0.20645873882E+03  0.20932664344E+03  0.00000000000E+00 0.  1.
         14    1    3    3    0    0  0.25638738796E+02 -0.45084581418E+02  0.24438923747E+03  0.24983207120E+03  0.00000000000E+00 0. -1.
          1    1    1    2  501    0 -0.33314178515E+02  0.11416786040E+02  0.14619581207E+03  0.15037750151E+03  0.00000000000E+00 0. -1.
<mgrwt>
<rscale>  1 0.86964519E+02</rscale>
<asrwt>0</asrwt>
<pdfrwt beam="1">  1       21 0.96095646E-03 0.86964519E+02</pdfrwt>
<pdfrwt beam="2">  1        2 0.92813801E-01 0.86964519E+02</pdfrwt>
<totfact> 0.23330925E+06</totfact>
</mgrwt>
</event>
<event>
 6    2  0.8544106E+000  0.9241075E+02  0.7546771E-02  0.1297117E+00
          2   -1    0    0  502    0 -0.00000000000E+00  0.00000000000E+00  0.22166669331E+04  0.22166669331E+04  0.00000000000E+00 0. -1.
         21   -1    0    0  501  502  0.00000000000E+00 -0.00000000000E+00 -0.31265311875E+01  0.31265311875E+01  0.00000000000E+00 0. -1.
         24    2    1    2    0    0 -0.25520685852E+02  0.44187755336E+02  0.18896292878E+04  0.18918875739E+04  0.77044686436E+02 0.  0.
        -11    1    3    3    0    0 -0.43339606058E+02  0.37471208097E+01  0.12364654110E+04  0.12372304049E+04  0.00000000000E+00 0.  1.
         12    1    3    3    0    0  0.17818920207E+02  0.40440634527E+02  0.65316387682E+03  0.65465716892E+03  0.00000000000E+00 0. -1.
          1    1    1    2  501    0  0.25520685852E+02 -0.44187755336E+02  0.32391111415E+03  0.32790589046E+03  0.00000000000E+00 0. -1.
<mgrwt>
<rscale>  1 0.92410751E+02</rscale>
<asrwt>0</asrwt>
<pdfrwt beam="1">  1       21 0.48100657E-03 0.92410751E+02</pdfrwt>
<pdfrwt beam="2">  1        2 0.34102443E+00 0.92410751E+02</pdfrwt>
<totfact> 0.86422484E+05</totfact>
</mgrwt>
</event>
<event>
 6    2  0.8544106E+000  0.9473482E+02  0.7546771E-02  0.1291774E+00
          2   -1    0    0  502    0 -0.00000000000E+00  0.00000000000E+00  0.36061353920E+04  0.36061353920E+04  0.00000000000E+00 0. -1.
         21   -1    0    0  501  502  0.00000000000E+00 -0.00000000000E+00 -0.21546666019E+01  0.21546666019E+01  0.00000000000E+00 0. -1.
         24    2    1    2    0    0  0.44236264617E+02 -0.22358314682E+02  0.31817533253E+04  0.31831633496E+04  0.80733794753E+02 0.  0.
        -11    1    3    3    0    0 -0.14496203593E+01  0.16528556481E+02  0.16895705414E+03  0.16976978742E+03  0.00000000000E+00 0.  1.
         12    1    3    3    0    0  0.45685884976E+02 -0.38886871163E+02  0.30127962712E+04  0.30133935622E+04  0.00000000000E+00 0. -1.
          1    1    1    2  501    0 -0.44236264617E+02  0.22358314682E+02  0.42222740007E+03  0.42512670901E+03  0.00000000000E+00 0. -1.
<mgrwt>
<rscale>  1 0.94734824E+02</rscale>
<asrwt>0</asrwt>
<pdfrwt beam="1">  1       21 0.33149006E-03 0.94734824E+02</pdfrwt>
<pdfrwt beam="2">  1        2 0.55478523E+00 0.94734824E+02</pdfrwt>
<totfact> 0.24771737E+05</totfact>
</mgrwt>
</event>
<event>
 6    2  0.8544106E+000  0.9815526E+02  0.7546771E-02  0.1284224E+00
         21   -1    0    0  501  502  0.00000000000E+00  0.00000000000E+00  0.12216250810E+02  0.12216250810E+02  0.00000000000E+00 0.  1.
          2   -1    0    0  502    0 -0.00000000000E+00 -0.00000000000E+00 -0.10344276397E+04  0.10344276397E+04  0.00000000000E+00 0. -1.
         24    2    1    2    0    0 -0.60658611998E+02  0.42395474141E+02 -0.88776774625E+03  0.89317748870E+03  0.64479544125E+02 0.  0.
        -11    1    3    3    0    0 -0.27863234220E+02  0.24060037395E+02 -0.14992104823E+03  0.15437475805E+03  0.00000000000E+00 0.  1.
         12    1    3    3    0    0 -0.32795377778E+02  0.18335436746E+02 -0.73784669802E+03  0.73880273065E+03  0.00000000000E+00 0. -1.
          1    1    1    2  501    0  0.60658611998E+02 -0.42395474141E+02 -0.13444364265E+03  0.15346640182E+03  0.00000000000E+00 0. -1.
<mgrwt>
<rscale>  1 0.98155260E+02</rscale>
<asrwt>0</asrwt>
<pdfrwt beam="1">  1       21 0.18794234E-02 0.98155260E+02</pdfrwt>
<pdfrwt beam="2">  1        2 0.15914269E+00 0.98155260E+02</pdfrwt>
<totfact> 0.42168795E+05</totfact>
</mgrwt>
</event>
<event>
 6    2  0.8544106E+000  0.9926593E+02  0.7546771E-02  0.1281847E+00
         21   -1    0    0  501  502  0.00000000000E+00  0.00000000000E+00  0.33937240748E+02  0.33937240748E+02  0.00000000000E+00 0. -1.
         -1   -1    0    0    0  501 -0.00000000000E+00 -0.00000000000E+00 -0.18269639526E+03  0.18269639526E+03  0.00000000000E+00 0.  1.
         24    2    1    2    0    0  0.34520392507E+02 -0.41341434882E+02 -0.71001060064E+02  0.12204456164E+03  0.83384367596E+02 0.  0.
        -13    1    3    3    0    0  0.41325512082E+00  0.15713570901E+02 -0.49878739975E+02  0.52296996011E+02  0.00000000000E+00 0.  1.
         14    1    3    3    0    0  0.34107137386E+02 -0.57055005783E+02 -0.21122320089E+02  0.69747565632E+02  0.00000000000E+00 0. -1.
         -2    1    1    2    0  502 -0.34520392507E+02  0.41341434882E+02 -0.77758094446E+02  0.94589074363E+02  0.00000000000E+00 0.  1.
<mgrwt>
<rscale>  1 0.99265928E+02</rscale>
<asrwt>0</asrwt>
<pdfrwt beam="1">  1       21 0.52211140E-02 0.99265928E+02</pdfrwt>
<pdfrwt beam="2">  1       -1 0.28107138E-01 0.99265928E+02</pdfrwt>
<totfact> 0.24870482E+05</totfact>
</mgrwt>
</event>
<event>
 6    2  0.8544106E+000  0.9535971E+02  0.7546771E-02  0.1290368E+00
          2   -1    0    0  502    0 -0.00000000000E+00  0.00000000000E+00  0.55041799553E+03  0.55041799553E+03  0.00000000000E+00 0. -1.
         21   -1    0    0  501  502  0.00000000000E+00 -0.00000000000E+00 -0.19155206608E+02  0.19155206608E+02  0.00000000000E+00 0. -1.
         24    2    1    2    0    0  0.42243352324E+02 -0.22245490862E+02  0.50724285016E+03  0.51612865015E+03  0.82547633437E+02 0.  0.
        -13    1    3    3    0    0 -0.18731968074E+02 -0.56821109393E+01  0.38947661413E+02  0.43590060130E+02  0.00000000000E+00 0.  1.
         14    1    3    3    0    0  0.60975320398E+02 -0.16563379922E+02  0.46829518874E+03  0.47253859002E+03  0.00000000000E+00 0. -1.
          1    1    1    2  501    0 -0.42243352324E+02  0.22245490862E+02  0.24019938761E+02  0.53444551989E+02  0.00000000000E+00 0. -1.
<mgrwt>
<rscale>  1 0.95359711E+02</rscale>
<asrwt>0</asrwt>
<pdfrwt beam="1">  1       21 0.29469553E-02 0.95359711E+02</pdfrwt>
<pdfrwt beam="2">  1        2 0.84679680E-01 0.95359711E+02</pdfrwt>
<totfact> 0.43799667E+05</totfact>
</mgrwt>
</event>
<event>
 6    2  0.8544106E+000  0.8376340E+02  0.7546771E-02  0.1318698E+00
         21   -1    0    0  501  502  0.00000000000E+00  0.00000000000E+00  0.17470908276E+01  0.17470908276E+01  0.00000000000E+00 0. -1.
          2   -1    0    0  502    0 -0.00000000000E+00 -0.00000000000E+00 -0.31187290680E+04  0.31187290680E+04  0.00000000000E+00 0. -1.
         24    2    1    2    0    0  0.21505439230E+02  0.14005566061E+02 -0.29759198541E+04  0.29770984675E+04  0.79734983067E+02 0.  0.
        -13    1    3    3    0    0 -0.51185978669E+01 -0.31027202736E+02 -0.11061709849E+04  0.11066178813E+04  0.00000000000E+00 0.  1.
         14    1    3    3    0    0  0.26624037097E+02  0.45032768797E+02 -0.18697488692E+04  0.18704805862E+04  0.00000000000E+00 0. -1.
          1    1    1    2  501    0 -0.21505439230E+02 -0.14005566061E+02 -0.14106212307E+03  0.14337769130E+03  0.00000000000E+00 0. -1.
<mgrwt>
<rscale>  1 0.83763401E+02</rscale>
<asrwt>0</asrwt>
<pdfrwt beam="1">  1       21 0.26878409E-03 0.83763401E+02</pdfrwt>
<pdfrwt beam="2">  1        2 0.47980290E+00 0.83763401E+02</pdfrwt>
<totfact> 0.68019591E+05</totfact>
</mgrwt>
</event>
<event>
 6    2  0.8544106E+000  0.8637904E+02  0.7546771E-02  0.1311865E+00
         -1   -1    0    0    0  501 -0.00000000000E+00  0.00000000000E+00  0.33841228230E+03  0.33841228230E+03  0.00000000000E+00 0.  1.
         21   -1    0    0  501  502  0.00000000000E+00 -0.00000000000E+00 -0.10203941230E+02  0.10203941230E+02  0.00000000000E+00 0.  1.
         24    2    1    2    0    0 -0.60244088279E+01  0.30501744839E+02  0.23648499670E+03  0.25176674319E+03  0.80589635633E+02 0.  0.
        -13    1    3    3    0    0 -0.36889362376E+02  0.25654464245E+02  0.19336839544E+03  0.19852030865E+03  0.00000000000E+00 0.  1.
         14    1    3    3    0    0  0.30864953548E+02  0.48472805941E+01  0.43116601265E+02  0.53246434541E+02  0.00000000000E+00 0. -1.
         -2    1    1    2    0  502  0.60244088279E+01 -0.30501744839E+02  0.91723344369E+02  0.96849480340E+02  0.00000000000E+00 0.  1.
<mgrwt>
<rscale>  1 0.86379044E+02</rscale>
<asrwt>0</asrwt>
<pdfrwt beam="1">  1       21 0.15698374E-02 0.86379044E+02</pdfrwt>
<pdfrwt beam="2">  1       -1 0.52063419E-01 0.86379044E+02</pdfrwt>
<totfact> 0.59646142E+05</totfact>
</mgrwt>
</event>
<event>
 6    2  0.8544106E+000  0.8878731E+02  0.7546771E-02  0.1305815E+00
         21   -1    0    0  501  502  0.00000000000E+00  0.00000000000E+00  0.44479887637E+03  0.44479887637E+03  0.00000000000E+00 0.  1.
         -1   -1    0    0    0  501 -0.00000000000E+00 -0.00000000000E+00 -0.97549034236E+01  0.97549034236E+01  0.00000000000E+00 0.  1.
         24    2    1    2    0    0 -0.37710520986E+02  0.28100055241E+01  0.35636598258E+03  0.36725999025E+03  0.80331857798E+02 0.  0.
        -11    1    3    3    0    0 -0.44766130318E+01  0.34604304705E+02  0.23302184393E+03  0.23561977361E+03  0.00000000000E+00 0.  1.
         12    1    3    3    0    0 -0.33233907955E+02 -0.31794299181E+02  0.12334413864E+03  0.13164021664E+03  0.00000000000E+00 0. -1.
         -2    1    1    2    0  502  0.37710520986E+02 -0.28100055241E+01  0.78677990372E+02  0.87293789545E+02  0.00000000000E+00 0.  1.
<mgrwt>
<rscale>  1 0.88787313E+02</rscale>
<asrwt>0</asrwt>
<pdfrwt beam="1">  1       21 0.68430581E-01 0.88787313E+02</pdfrwt>
<pdfrwt beam="2">  1       -1 0.15007547E-02 0.88787313E+02</pdfrwt>
<totfact> 0.16888219E+05</totfact>
</mgrwt>
</event>
<event>
 6    2  0.8544106E+000  0.9089493E+02  0.7546771E-02  0.1300699E+00
         21   -1    0    0  501  502  0.00000000000E+00  0.00000000000E+00  0.98290728521E+01  0.98290728521E+01  0.00000000000E+00 0.  1.
          2   -1    0    0  502    0 -0.00000000000E+00 -0.00000000000E+00 -0.67601727125E+03  0.67601727125E+03  0.00000000000E+00 0. -1.
         24    2    1    2    0    0  0.41106201636E+02  0.20729892236E+02 -0.58899534391E+03  0.59596762009E+03  0.78373725251E+02 0.  0.
        -11    1    3    3    0    0  0.48205912205E+02  0.22636657719E+01 -0.17593359542E+03  0.18243235500E+03  0.00000000000E+00 0.  1.
         12    1    3    3    0    0 -0.70997105697E+01  0.18466226464E+02 -0.41306174849E+03  0.41353526510E+03  0.00000000000E+00 0. -1.
          1    1    1    2  501    0 -0.41106201636E+02 -0.20729892236E+02 -0.77192854488E+02  0.89878724006E+02  0.00000000000E+00 0. -1.
<mgrwt>
<rscale>  1 0.90894934E+02</rscale>
<asrwt>0</asrwt>
<pdfrwt beam="1">  1       21 0.15121652E-02 0.90894934E+02</pdfrwt>
<pdfrwt beam="2">  1        2 0.10400265E+00 0.90894934E+02</pdfrwt>
<totfact> 0.10100276E+06</totfact>
</mgrwt>
</event>
<event>
 6    2  0.8544106E+000  0.9053703E+02  0.7546771E-02  0.1301556E+00
         -1   -1    0    0    0  501 -0.00000000000E+00  0.00000000000E+00  0.36273890889E+02  0.36273890889E+02  0.00000000000E+00 0.  1.
         21   -1    0    0  501  502  0.00000000000E+00 -0.00000000000E+00 -0.17903049621E+03  0.17903049621E+03  0.00000000000E+00 0.  1.
         24    2    1    2    0    0  0.38662783729E+02 -0.21627910858E+00 -0.28861900119E+02  0.95026120171E+02  0.81866333824E+02 0.  0.
        -13    1    3    3    0    0  0.61835915998E+02 -0.10529277736E+02 -0.10231806899E+02  0.63554984615E+02  0.00000000000E+00 0.  1.
         14    1    3    3    0    0 -0.23173132268E+02  0.10312998627E+02 -0.18630093220E+02  0.31471135556E+02  0.00000000000E+00 0. -1.
         -2    1    1    2    0  502 -0.38662783729E+02  0.21627910858E+00 -0.11389470520E+03  0.12027826693E+03  0.00000000000E+00 0.  1.
<mgrwt>
<rscale>  1 0.90537032E+02</rscale>
<asrwt>0</asrwt>
<pdfrwt beam="1">  1       21 0.27543154E-01 0.90537032E+02</pdfrwt>
<pdfrwt beam="2">  1       -1 0.55805984E-02 0.90537032E+02</pdfrwt>
<totfact> 0.15847803E+05</totfact>
</mgrwt>
</event>
<event>
 6    2  0.8544106E+000  0.8472081E+02  0.7546771E-02  0.1316164E+00
          2   -1    0    0  502    0 -0.00000000000E+00  0.00000000000E+00  0.38051724660E+03  0.38051724660E+03  0.00000000000E+00 0. -1.
         21   -1    0    0  501  502  0.00000000000E+00 -0.00000000000E+00 -0.14954305174E+02  0.14954305174E+02  0.00000000000E+00 0. -1.
         24    2    1    2    0    0  0.27806526635E+02  0.18246045069E+02  0.34739085278E+03  0.35757239756E+03  0.77919790919E+02 0.  0.
        -13    1    3    3    0    0  0.26998087614E+02  0.43649644972E+02  0.14968812791E+03  0.15824261082E+03  0.00000000000E+00 0.  1.
         14    1    3    3    0    0  0.80843902054E+00 -0.25403599903E+02  0.19770272487E+03  0.19932978674E+03  0.00000000000E+00 0. -1.
          1    1    1    2  501    0 -0.27806526635E+02 -0.18246045069E+02  0.18172088640E+02  0.37899154208E+02  0.00000000000E+00 0. -1.
<mgrwt>
<rscale>  1 0.84720806E+02</rscale>
<asrwt>0</asrwt>
<pdfrwt beam="1">  1       21 0.23006626E-02 0.84720806E+02</pdfrwt>
<pdfrwt beam="2">  1        2 0.58541108E-01 0.84720806E+02</pdfrwt>
<totfact> 0.95979455E+05</totfact>
</mgrwt>
</event>
<event>
 6    2  0.8544106E+000  0.8614066E+02  0.7546771E-02  0.1312476E+00
         21   -1    0    0  501  502  0.00000000000E+00  0.00000000000E+00  0.21702292144E+02  0.21702292144E+02  0.00000000000E+00 0. -1.
          2   -1    0    0  502    0 -0.00000000000E+00 -0.00000000000E+00 -0.16436631112E+03  0.16436631112E+03  0.00000000000E+00 0. -1.
         24    2    1    2    0    0 -0.27769124721E+02 -0.11577715277E+01 -0.12895216526E+03  0.15507699706E+03  0.81533731488E+02 0.  0.
        -11    1    3    3    0    0  0.11302618108E+02  0.85337790729E+01  0.51448167852E+01  0.15067969376E+02  0.00000000000E+00 0.  1.
         12    1    3    3    0    0 -0.39071742829E+02 -0.96915506007E+01 -0.13409698204E+03  0.14000902768E+03  0.00000000000E+00 0. -1.
          1    1    1    2  501    0  0.27769124721E+02  0.11577715277E+01 -0.13711853723E+02  0.30991606206E+02  0.00000000000E+00 0. -1.
<mgrwt>
<rscale>  1 0.86140665E+02</rscale>
<asrwt>0</asrwt>
<pdfrwt beam="1">  1       21 0.33388142E-02 0.86140665E+02</pdfrwt>
<pdfrwt beam="2">  1        2 0.25287124E-01 0.86140665E+02</pdfrwt>
<totfact> 0.12756503E+06</totfact>
</mgrwt>
</event>
<event>
 6    2  0.8544106E+000  0.9038656E+02  0.7546771E-02  0.1301918E+00
          2   -1    0    0  502    0 -0.00000000000E+00  0.00000000000E+00  0.17757374084E+04  0.17757374084E+04  0.00000000000E+00 0. -1.
         21   -1    0    0  501  502  0.00000000000E+00 -0.00000000000E+00 -0.26051004833E+01  0.26051004833E+01  0.00000000000E+00 0.  1.
         24    2    1    2    0    0  0.26396843220E+02  0.28261875826E+02  0.14662277548E+04  0.14690110819E+04  0.81695795644E+02 0.  0.
        -11    1    3    3    0    0 -0.22701027770E+02  0.33416646257E+02  0.57535489107E+03  0.57677141017E+03  0.00000000000E+00 0.  1.
         12    1    3    3    0    0  0.49097870990E+02 -0.51547704308E+01  0.89087286372E+03  0.89223967178E+03  0.00000000000E+00 0. -1.
          1    1    1    2  501    0 -0.26396843220E+02 -0.28261875826E+02  0.30690455315E+03  0.30933142695E+03  0.00000000000E+00 0. -1.
<mgrwt>
<rscale>  1 0.90386559E+02</rscale>
<asrwt>0</asrwt>
<pdfrwt beam="1">  1       21 0.40078611E-03 0.90386559E+02</pdfrwt>
<pdfrwt beam="2">  1        2 0.27318940E+00 0.90386559E+02</pdfrwt>
<totfact> 0.19021900E+06</totfact>
</mgrwt>
</event>
<event>
 6    2  0.8544106E+000  0.8613658E+02  0.7546771E-02  0.1312487E+00
         21   -1    0    0  501  502  0.00000000000E+00  0.00000000000E+00  0.30887634551E+01  0.30887634551E+01  0.00000000000E+00 0. -1.
          2   -1    0    0  502    0 -0.00000000000E+00 -0.00000000000E+00 -0.10376979936E+04  0.10376979936E+04  0.00000000000E+00 0. -1.
         24    2    1    2    0    0  0.16319300625E+02  0.13676373044E+02 -0.93316764678E+03  0.93713465824E+03  0.83463452658E+02 0.  0.
        -11    1    3    3    0    0  0.10580422550E+02 -0.35128517341E+02 -0.36018312584E+03  0.36204674037E+03  0.00000000000E+00 0.  1.
         12    1    3    3    0    0  0.57388780742E+01  0.48804890385E+02 -0.57298452094E+03  0.57508791787E+03  0.00000000000E+00 0. -1.
          1    1    1    2  501    0 -0.16319300625E+02 -0.13676373044E+02 -0.10144158332E+03  0.10365209877E+03  0.00000000000E+00 0. -1.
<mgrwt>
<rscale>  1 0.86136582E+02</rscale>
<asrwt>0</asrwt>
<pdfrwt beam="1">  1       21 0.47519428E-03 0.86136582E+02</pdfrwt>
<pdfrwt beam="2">  1        2 0.15964588E+00 0.86136582E+02</pdfrwt>
<totfact> 0.35578769E+06</totfact>
</mgrwt>
</event>
<event>
 6    2  0.8544106E+000  0.8245590E+02  0.7546771E-02  0.1322223E+00
         21   -1    0    0  501  502  0.00000000000E+00  0.00000000000E+00  0.29706536951E+01  0.29706536951E+01  0.00000000000E+00 0.  1.
          2   -1    0    0  502    0 -0.00000000000E+00 -0.00000000000E+00 -0.89576681327E+03  0.89576681327E+03  0.00000000000E+00 0. -1.
         24    2    1    2    0    0 -0.18344428030E+02  0.81717820728E+01 -0.67506937573E+03  0.68008649289E+03  0.79972993545E+02 0.  0.
        -13    1    3    3    0    0 -0.30952269157E+02 -0.26140079227E+02 -0.23192242747E+03  0.23543440503E+03  0.00000000000E+00 0.  1.
         14    1    3    3    0    0  0.12607841127E+02  0.34311861300E+02 -0.44314694826E+03  0.44465208786E+03  0.00000000000E+00 0. -1.
          1    1    1    2  501    0  0.18344428030E+02 -0.81717820728E+01 -0.21772678384E+03  0.21865097408E+03  0.00000000000E+00 0. -1.
<mgrwt>
<rscale>  1 0.82455902E+02</rscale>
<asrwt>0</asrwt>
<pdfrwt beam="1">  1       21 0.45702303E-03 0.82455902E+02</pdfrwt>
<pdfrwt beam="2">  1        2 0.13781046E+00 0.82455902E+02</pdfrwt>
<totfact> 0.45630191E+06</totfact>
</mgrwt>
</event>
<event>
 6    2  0.8544106E+000  0.1285196E+03  0.7546771E-02  0.1229669E+00
         21   -1    0    0  501  502  0.00000000000E+00  0.00000000000E+00  0.90653560151E+03  0.90653560151E+03  0.00000000000E+00 0.  1.
         -1   -1    0    0    0  501 -0.00000000000E+00 -0.00000000000E+00 -0.75600530885E+02  0.75600530885E+02  0.00000000000E+00 0.  1.
         24    2    1    2    0    0 -0.43152646144E+02 -0.96716238359E+02 -0.15185260090E+02  0.12941355401E+03  0.72808613549E+02 0.  0.
        -13    1    3    3    0    0 -0.61693079251E+01 -0.18191731720E+01 -0.26193250044E+02  0.26971394090E+02  0.00000000000E+00 0.  1.
         14    1    3    3    0    0 -0.36983338219E+02 -0.94897065187E+02  0.11007989954E+02  0.10244215992E+03  0.00000000000E+00 0. -1.
         -2    1    1    2    0  502  0.43152646144E+02  0.96716238359E+02  0.84612033071E+03  0.85272257838E+03  0.00000000000E+00 0.  1.
<mgrwt>
<rscale>  1 0.12851955E+03</rscale>
<asrwt>0</asrwt>
<pdfrwt beam="1">  1       21 0.13946701E+00 0.12851955E+03</pdfrwt>
<pdfrwt beam="2">  1       -1 0.11630852E-01 0.12851955E+03</pdfrwt>
<totfact> 0.16066749E+03</totfact>
</mgrwt>
</event>
<event>
 6    2  0.8544106E+000  0.8795286E+02  0.7546771E-02  0.1307886E+00
         21   -1    0    0  501  502  0.00000000000E+00  0.00000000000E+00  0.84420451843E+01  0.84420451843E+01  0.00000000000E+00 0. -1.
          2   -1    0    0  502    0 -0.00000000000E+00 -0.00000000000E+00 -0.60526044443E+03  0.60526044443E+03  0.00000000000E+00 0. -1.
         24    2    1    2    0    0  0.30240423645E+02 -0.15419919056E+02 -0.54297361646E+03  0.55005095578E+03  0.81138453638E+02 0.  0.
        -11    1    3    3    0    0  0.31145431183E+02 -0.12030242738E+02 -0.75370556368E+02  0.82434734130E+02  0.00000000000E+00 0.  1.
         12    1    3    3    0    0 -0.90500753778E+00 -0.33896763183E+01 -0.46760306010E+03  0.46761622165E+03  0.00000000000E+00 0. -1.
          1    1    1    2  501    0 -0.30240423645E+02  0.15419919056E+02 -0.53844782782E+02  0.63651533829E+02  0.00000000000E+00 0. -1.
<mgrwt>
<rscale>  1 0.87952861E+02</rscale>
<asrwt>0</asrwt>
<pdfrwt beam="1">  1       21 0.12987759E-02 0.87952861E+02</pdfrwt>
<pdfrwt beam="2">  1        2 0.93117011E-01 0.87952861E+02</pdfrwt>
<totfact> 0.14516365E+06</totfact>
</mgrwt>
</event>
<event>
 6    2  0.8544106E+000  0.9994190E+02  0.7546771E-02  0.1280418E+00
          2   -1    0    0  502    0 -0.00000000000E+00  0.00000000000E+00  0.21384198788E+04  0.21384198788E+04  0.00000000000E+00 0. -1.
         21   -1    0    0  501  502  0.00000000000E+00 -0.00000000000E+00 -0.31649769404E+01  0.31649769404E+01  0.00000000000E+00 0. -1.
         24    2    1    2    0    0 -0.73033833818E+01 -0.63124420912E+02  0.11845618607E+04  0.11887704507E+04  0.77138516525E+02 0.  0.
        -13    1    3    3    0    0  0.87864397924E+01  0.38903060654E+01  0.20183152651E+02  0.22353873410E+02  0.00000000000E+00 0.  1.
         14    1    3    3    0    0 -0.16089823174E+02 -0.67014726978E+02  0.11643787080E+04  0.11664165773E+04  0.00000000000E+00 0. -1.
          1    1    1    2  501    0  0.73033833818E+01  0.63124420912E+02  0.95069304119E+03  0.95281440506E+03  0.00000000000E+00 0. -1.
<mgrwt>
<rscale>  1 0.99941896E+02</rscale>
<asrwt>0</asrwt>
<pdfrwt beam="1">  1       21 0.48692124E-03 0.99941896E+02</pdfrwt>
<pdfrwt beam="2">  1        2 0.32898652E+00 0.99941896E+02</pdfrwt>
<totfact> 0.93247414E+05</totfact>
</mgrwt>
</event>
<event>
 6    2  0.8544106E+000  0.8799367E+02  0.7546771E-02  0.1307784E+00
         21   -1    0    0  501  502  0.00000000000E+00  0.00000000000E+00  0.40568914201E+03  0.40568914201E+03  0.00000000000E+00 0. -1.
          2   -1    0    0  502    0 -0.00000000000E+00 -0.00000000000E+00 -0.10017007126E+02  0.10017007126E+02  0.00000000000E+00 0. -1.
         24    2    1    2    0    0 -0.35476339693E+02  0.72756895993E+01  0.23325643709E+03  0.24930192675E+03  0.80195878330E+02 0.  0.
        -13    1    3    3    0    0 -0.41715519854E+02 -0.28193174308E+02  0.11170706913E+03  0.12252962486E+03  0.00000000000E+00 0.  1.
         14    1    3    3    0    0  0.62391801608E+01  0.35468863908E+02  0.12154936796E+03  0.12677230189E+03  0.00000000000E+00 0. -1.
          1    1    1    2  501    0  0.35476339693E+02 -0.72756895993E+01  0.16241569779E+03  0.16640422238E+03  0.00000000000E+00 0. -1.
<mgrwt>
<rscale>  1 0.87993666E+02</rscale>
<asrwt>0</asrwt>
<pdfrwt beam="1">  1       21 0.62413701E-01 0.87993666E+02</pdfrwt>
<pdfrwt beam="2">  1        2 0.15410783E-02 0.87993666E+02</pdfrwt>
<totfact> 0.21127334E+05</totfact>
</mgrwt>
</event>
<event>
 6    2  0.8544106E+000  0.9551571E+02  0.7546771E-02  0.1290019E+00
         21   -1    0    0  501  502  0.00000000000E+00  0.00000000000E+00  0.79001636380E+01  0.79001636380E+01  0.00000000000E+00 0. -1.
          2   -1    0    0  502    0 -0.00000000000E+00 -0.00000000000E+00 -0.78176558861E+03  0.78176558861E+03  0.00000000000E+00 0. -1.
         24    2    1    2    0    0 -0.42548301013E+02 -0.34568088158E+02 -0.37147815631E+03  0.38356130186E+03  0.78217268147E+02 0.  0.
        -11    1    3    3    0    0 -0.30164958762E+02 -0.53080128983E+01 -0.32947094989E+03  0.33089153292E+03  0.00000000000E+00 0.  1.
         12    1    3    3    0    0 -0.12383342250E+02 -0.29260075260E+02 -0.42007206420E+02  0.52669768945E+02  0.00000000000E+00 0. -1.
          1    1    1    2  501    0  0.42548301013E+02  0.34568088158E+02 -0.40238726867E+03  0.40610445039E+03  0.00000000000E+00 0. -1.
<mgrwt>
<rscale>  1 0.95515714E+02</rscale>
<asrwt>0</asrwt>
<pdfrwt beam="1">  1       21 0.12154101E-02 0.95515714E+02</pdfrwt>
<pdfrwt beam="2">  1        2 0.12027159E+00 0.95515714E+02</pdfrwt>
<totfact> 0.12061106E+06</totfact>
</mgrwt>
</event>
<event>
 6    2  0.8544106E+000  0.8632323E+02  0.7546771E-02  0.1312008E+00
          2   -1    0    0  502    0 -0.00000000000E+00  0.00000000000E+00  0.35459223237E+03  0.35459223237E+03  0.00000000000E+00 0. -1.
         21   -1    0    0  501  502  0.00000000000E+00 -0.00000000000E+00 -0.11428966351E+02  0.11428966351E+02  0.00000000000E+00 0. -1.
         24    2    1    2    0    0  0.17259946674E+02 -0.25843960549E+02  0.30403866573E+03  0.31605570659E+03  0.80534982173E+02 0.  0.
        -13    1    3    3    0    0  0.20806627239E+02  0.26401621206E+02  0.13285652632E+03  0.13704312433E+03  0.00000000000E+00 0.  1.
         14    1    3    3    0    0 -0.35466805647E+01 -0.52245581754E+02  0.17118213941E+03  0.17901258227E+03  0.00000000000E+00 0. -1.
          1    1    1    2  501    0 -0.17259946674E+02  0.25843960549E+02  0.39124600286E+02  0.49965492128E+02  0.00000000000E+00 0. -1.
<mgrwt>
<rscale>  1 0.86323226E+02</rscale>
<asrwt>0</asrwt>
<pdfrwt beam="1">  1       21 0.17583028E-02 0.86323226E+02</pdfrwt>
<pdfrwt beam="2">  1        2 0.54552643E-01 0.86323226E+02</pdfrwt>
<totfact> 0.15911180E+06</totfact>
</mgrwt>
</event>
<event>
 6    2  0.8544106E+000  0.8399906E+02  0.7546771E-02  0.1318071E+00
         21   -1    0    0  501  502  0.00000000000E+00  0.00000000000E+00  0.18495841929E+02  0.18495841929E+02  0.00000000000E+00 0.  1.
          2   -1    0    0  502    0 -0.00000000000E+00 -0.00000000000E+00 -0.25556355525E+03  0.25556355525E+03  0.00000000000E+00 0. -1.
         24    2    1    2    0    0  0.25987756089E+02 -0.18303691427E+02 -0.88056073973E+02  0.12169517156E+03  0.77752517850E+02 0.  0.
        -11    1    3    3    0    0  0.13802787759E+02  0.28068156859E+02 -0.15968119164E+02  0.35118644749E+02  0.00000000000E+00 0.  1.
         12    1    3    3    0    0  0.12184968330E+02 -0.46371848286E+02 -0.72087954809E+02  0.86576526814E+02  0.00000000000E+00 0. -1.
          1    1    1    2  501    0 -0.25987756089E+02  0.18303691427E+02 -0.14901163935E+03  0.15236422562E+03  0.00000000000E+00 0. -1.
<mgrwt>
<rscale>  1 0.83999063E+02</rscale>
<asrwt>0</asrwt>
<pdfrwt beam="1">  1       21 0.28455145E-02 0.83999063E+02</pdfrwt>
<pdfrwt beam="2">  1        2 0.39317466E-01 0.83999063E+02</pdfrwt>
<totfact> 0.10312651E+06</totfact>
</mgrwt>
</event>
<event>
 6    2  0.8544106E+000  0.8408880E+02  0.7546771E-02  0.1317833E+00
         21   -1    0    0  501  502  0.00000000000E+00  0.00000000000E+00  0.15940200121E+01  0.15940200121E+01  0.00000000000E+00 0. -1.
          2   -1    0    0  502    0 -0.00000000000E+00 -0.00000000000E+00 -0.19226499993E+04  0.19226499993E+04  0.00000000000E+00 0. -1.
         24    2    1    2    0    0 -0.20105706223E+02 -0.10426883211E+02 -0.16871108955E+04  0.16892051682E+04  0.80981276549E+02 0.  0.
        -13    1    3    3    0    0  0.28523335543E+02  0.11328595787E+02 -0.66159030866E+03  0.66230178489E+03  0.00000000000E+00 0.  1.
         14    1    3    3    0    0 -0.48629041767E+02 -0.21755478998E+02 -0.10255205869E+04  0.10269033833E+04  0.00000000000E+00 0. -1.
          1    1    1    2  501    0  0.20105706223E+02  0.10426883211E+02 -0.23394508377E+03  0.23503885112E+03  0.00000000000E+00 0. -1.
<mgrwt>
<rscale>  1 0.84088801E+02</rscale>
<asrwt>0</asrwt>
<pdfrwt beam="1">  1       21 0.24523426E-03 0.84088801E+02</pdfrwt>
<pdfrwt beam="2">  1        2 0.29579182E+00 0.84088801E+02</pdfrwt>
<totfact> 0.33589688E+06</totfact>
</mgrwt>
</event>
<event>
 6    2  0.8544106E+000  0.8413636E+02  0.7546771E-02  0.1317707E+00
         21   -1    0    0  501  502  0.00000000000E+00  0.00000000000E+00  0.11644662451E+02  0.11644662451E+02  0.00000000000E+00 0. -1.
          4   -1    0    0  502    0 -0.00000000000E+00 -0.00000000000E+00 -0.69651217183E+03  0.69651217183E+03  0.00000000000E+00 0. -1.
         24    2    1    2    0    0  0.99230680900E+01  0.22680993964E+02 -0.67695926164E+03  0.68216769906E+03  0.80411646858E+02 0.  0.
        -11    1    3    3    0    0  0.12688708980E+02 -0.12272519404E+02 -0.34514629553E+02  0.38766966882E+02  0.00000000000E+00 0.  1.
         12    1    3    3    0    0 -0.27656408899E+01  0.34953513368E+02 -0.64244463209E+03  0.64340073217E+03  0.00000000000E+00 0. -1.
          3    1    1    2  501    0 -0.99230680900E+01 -0.22680993964E+02 -0.79082477431E+01  0.25989135228E+02  0.00000000000E+00 0. -1.
<mgrwt>
<rscale>  1 0.84136364E+02</rscale>
<asrwt>0</asrwt>
<pdfrwt beam="1">  1       21 0.17914864E-02 0.84136364E+02</pdfrwt>
<pdfrwt beam="2">  1        4 0.10715573E+00 0.84136364E+02</pdfrwt>
<totfact> 0.40439872E+04</totfact>
</mgrwt>
</event>
<event>
 6    2  0.8544106E+000  0.8451623E+02  0.7546771E-02  0.1316703E+00
         -3   -1    0    0    0  501 -0.00000000000E+00  0.00000000000E+00  0.49815785179E+01  0.49815785179E+01  0.00000000000E+00 0.  1.
         21   -1    0    0  501  502  0.00000000000E+00 -0.00000000000E+00 -0.10549131673E+04  0.10549131673E+04  0.00000000000E+00 0.  1.
         24    2    1    2    0    0  0.19357515358E+02  0.20893144259E+02 -0.37685751194E+03  0.38621830286E+03  0.79572333644E+02 0.  0.
        -13    1    3    3    0    0  0.20990351974E+02  0.38133542348E+02 -0.10308365679E+03  0.11189728426E+03  0.00000000000E+00 0.  1.
         14    1    3    3    0    0 -0.16328366160E+01 -0.17240398089E+02 -0.27377385515E+03  0.27432101860E+03  0.00000000000E+00 0. -1.
         -4    1    1    2    0  502 -0.19357515358E+02 -0.20893144259E+02 -0.67307407683E+03  0.67367644295E+03  0.00000000000E+00 0.  1.
<mgrwt>
<rscale>  1 0.84516230E+02</rscale>
<asrwt>0</asrwt>
<pdfrwt beam="1">  1       21 0.16229432E+00 0.84516230E+02</pdfrwt>
<pdfrwt beam="2">  1       -3 0.76639676E-03 0.84516230E+02</pdfrwt>
<totfact> 0.46442821E+04</totfact>
</mgrwt>
</event>
<event>
 6    2  0.8544106E+000  0.9390902E+02  0.7546771E-02  0.1293652E+00
         -1   -1    0    0    0  501 -0.00000000000E+00  0.00000000000E+00  0.14014204299E+02  0.14014204299E+02  0.00000000000E+00 0.  1.
         21   -1    0    0  501  502  0.00000000000E+00 -0.00000000000E+00 -0.36080979889E+03  0.36080979889E+03  0.00000000000E+00 0. -1.
         24    2    1    2    0    0  0.35518203996E+02 -0.32366279032E+02 -0.23983168811E+03  0.25756192014E+03  0.80683240184E+02 0.  0.
        -13    1    3    3    0    0 -0.74817225120E+01  0.22711366864E+02 -0.55580482161E+02  0.60505969572E+02  0.00000000000E+00 0.  1.
         14    1    3    3    0    0  0.42999926508E+02 -0.55077645896E+02 -0.18425120595E+03  0.19705595056E+03  0.00000000000E+00 0. -1.
         -2    1    1    2    0  502 -0.35518203996E+02  0.32366279032E+02 -0.10696390647E+03  0.11726208305E+03  0.00000000000E+00 0.  1.
<mgrwt>
<rscale>  1 0.93909020E+02</rscale>
<asrwt>0</asrwt>
<pdfrwt beam="1">  1       21 0.55509194E-01 0.93909020E+02</pdfrwt>
<pdfrwt beam="2">  1       -1 0.21560316E-02 0.93909020E+02</pdfrwt>
<totfact> 0.15748053E+05</totfact>
</mgrwt>
</event>
<event>
 6    2  0.8544106E+000  0.8834610E+02  0.7546771E-02  0.1306907E+00
         -3   -1    0    0    0  501 -0.00000000000E+00  0.00000000000E+00  0.10588734457E+03  0.10588734457E+03  0.00000000000E+00 0.  1.
         21   -1    0    0  501  502  0.00000000000E+00 -0.00000000000E+00 -0.45146838587E+02  0.45146838587E+02  0.00000000000E+00 0.  1.
         24    2    1    2    0    0 -0.18984975329E+02 -0.33121727891E+02  0.68849262890E+02  0.11200560280E+03  0.79671550194E+02 0.  0.
        -13    1    3    3    0    0 -0.10185515425E+02 -0.38025540532E+02  0.84599141722E+02  0.93309706019E+02  0.00000000000E+00 0.  1.
         14    1    3    3    0    0 -0.87994599036E+01  0.49038126407E+01 -0.15749878833E+02  0.18695896776E+02  0.00000000000E+00 0. -1.
         -4    1    1    2    0  502  0.18984975329E+02  0.33121727891E+02 -0.81087569037E+01  0.39028580365E+02  0.00000000000E+00 0.  1.
<mgrwt>
<rscale>  1 0.88346104E+02</rscale>
<asrwt>0</asrwt>
<pdfrwt beam="1">  1       21 0.69456675E-02 0.88346104E+02</pdfrwt>
<pdfrwt beam="2">  1       -3 0.16290361E-01 0.88346104E+02</pdfrwt>
<totfact> 0.21909343E+05</totfact>
</mgrwt>
</event>
<event>
 6    2  0.8544106E+000  0.8866209E+02  0.7546771E-02  0.1306124E+00
         21   -1    0    0  501  502  0.00000000000E+00  0.00000000000E+00  0.18444300838E+01  0.18444300838E+01  0.00000000000E+00 0. -1.
          2   -1    0    0  502    0 -0.00000000000E+00 -0.00000000000E+00 -0.22303420970E+04  0.22303420970E+04  0.00000000000E+00 0. -1.
         24    2    1    2    0    0  0.21844252620E+02  0.31609367120E+02 -0.16862249258E+04  0.16885542532E+04  0.79903955542E+02 0.  0.
        -11    1    3    3    0    0 -0.24557934861E+02 -0.48842998829E+01 -0.28895493350E+03  0.29003775986E+03  0.00000000000E+00 0.  1.
         12    1    3    3    0    0  0.46402187481E+02  0.36493667003E+02 -0.13972699923E+04  0.13985164933E+04  0.00000000000E+00 0. -1.
          1    1    1    2  501    0 -0.21844252620E+02 -0.31609367120E+02 -0.54227274112E+03  0.54363227390E+03  0.00000000000E+00 0. -1.
<mgrwt>
<rscale>  1 0.88662086E+02</rscale>
<asrwt>0</asrwt>
<pdfrwt beam="1">  1       21 0.28375941E-03 0.88662086E+02</pdfrwt>
<pdfrwt beam="2">  1        2 0.34312843E+00 0.88662086E+02</pdfrwt>
<totfact> 0.18938278E+06</totfact>
</mgrwt>
</event>
<event>
 6    2  0.8544106E+000  0.8770431E+02  0.7546771E-02  0.1308508E+00
         21   -1    0    0  501  502  0.00000000000E+00  0.00000000000E+00  0.55928036978E+02  0.55928036978E+02  0.00000000000E+00 0.  1.
         -1   -1    0    0    0  501 -0.00000000000E+00 -0.00000000000E+00 -0.10648226389E+03  0.10648226389E+03  0.00000000000E+00 0.  1.
         24    2    1    2    0    0 -0.20688765652E+02  0.12640149937E+01 -0.85047502126E+02  0.12216842226E+03  0.85219851101E+02 0.  0.
        -11    1    3    3    0    0 -0.39184433655E+02 -0.25363274937E+02 -0.74796065478E+02  0.88165565655E+02  0.00000000000E+00 0.  1.
         12    1    3    3    0    0  0.18495668004E+02  0.26627289931E+02 -0.10251436649E+02  0.34002856605E+02  0.00000000000E+00 0. -1.
         -2    1    1    2    0  502  0.20688765652E+02 -0.12640149937E+01  0.34493275219E+02  0.40241878602E+02  0.00000000000E+00 0.  1.
<mgrwt>
<rscale>  1 0.87704309E+02</rscale>
<asrwt>0</asrwt>
<pdfrwt beam="1">  1       21 0.86043135E-02 0.87704309E+02</pdfrwt>
<pdfrwt beam="2">  1       -1 0.16381887E-01 0.87704309E+02</pdfrwt>
<totfact> 0.25088622E+05</totfact>
</mgrwt>
</event>
<event>
 6    2  0.8544106E+000  0.8967414E+02  0.7546771E-02  0.1303643E+00
         21   -1    0    0  501  502  0.00000000000E+00  0.00000000000E+00  0.38096461587E+01  0.38096461587E+01  0.00000000000E+00 0. -1.
          2   -1    0    0  502    0 -0.00000000000E+00 -0.00000000000E+00 -0.14873472127E+04  0.14873472127E+04  0.00000000000E+00 0. -1.
         24    2    1    2    0    0 -0.25746469065E+01 -0.34527221438E+02 -0.57417621752E+03  0.58113662781E+03  0.82720575362E+02 0.  0.
        -11    1    3    3    0    0 -0.13774096455E+02  0.22821846493E+02 -0.10478598487E+03  0.10812337876E+03  0.00000000000E+00 0.  1.
         12    1    3    3    0    0  0.11199449549E+02 -0.57349067931E+02 -0.46939023265E+03  0.47301324905E+03  0.00000000000E+00 0. -1.
          1    1    1    2  501    0  0.25746469065E+01  0.34527221438E+02 -0.90936134903E+03  0.91002023106E+03  0.00000000000E+00 0. -1.
<mgrwt>
<rscale>  1 0.89674140E+02</rscale>
<asrwt>0</asrwt>
<pdfrwt beam="1">  1       21 0.58609840E-03 0.89674140E+02</pdfrwt>
<pdfrwt beam="2">  1        2 0.22882304E+00 0.89674140E+02</pdfrwt>
<totfact> 0.14858309E+06</totfact>
</mgrwt>
</event>
<event>
 6    2  0.8544106E+000  0.1016583E+03  0.7546771E-02  0.1276847E+00
          2   -1    0    0  502    0 -0.00000000000E+00  0.00000000000E+00  0.17649923630E+04  0.17649923630E+04  0.00000000000E+00 0. -1.
         21   -1    0    0  501  502  0.00000000000E+00 -0.00000000000E+00 -0.12334856586E+02  0.12334856586E+02  0.00000000000E+00 0. -1.
         24    2    1    2    0    0 -0.62363061823E+02  0.71301744899E+01  0.16721710483E+04  0.16752583173E+04  0.79965143486E+02 0.  0.
        -13    1    3    3    0    0 -0.40040902987E+02  0.70611001262E+01  0.28278853944E+03  0.28569650170E+03  0.00000000000E+00 0.  1.
         14    1    3    3    0    0 -0.22322158836E+02  0.69074363650E-01  0.13893825088E+04  0.13895618156E+04  0.00000000000E+00 0. -1.
          1    1    1    2  501    0  0.62363061823E+02 -0.71301744899E+01  0.80486458159E+02  0.10206890229E+03  0.00000000000E+00 0. -1.
<mgrwt>
<rscale>  1 0.10165832E+03</rscale>
<asrwt>0</asrwt>
<pdfrwt beam="1">  1       21 0.18976716E-02 0.10165832E+03</pdfrwt>
<pdfrwt beam="2">  1        2 0.27153709E+00 0.10165832E+03</pdfrwt>
<totfact> 0.17109487E+05</totfact>
</mgrwt>
</event>
<event>
 6    2  0.8544106E+000  0.8406507E+02  0.7546771E-02  0.1317896E+00
          2   -1    0    0  502    0 -0.00000000000E+00  0.00000000000E+00  0.90183129160E+02  0.90183129160E+02  0.00000000000E+00 0. -1.
         21   -1    0    0  501  502  0.00000000000E+00 -0.00000000000E+00 -0.38947951468E+02  0.38947951468E+02  0.00000000000E+00 0.  1.
         24    2    1    2    0    0 -0.25780651848E+02 -0.12156702188E+02  0.54884301244E+02  0.10039532728E+03  0.79085446189E+02 0.  0.
        -13    1    3    3    0    0 -0.12949377717E+02 -0.32667833035E+02 -0.52924741059E+01  0.35537078955E+02  0.00000000000E+00 0.  1.
         14    1    3    3    0    0 -0.12831274131E+02  0.20511130847E+02  0.60176775349E+02  0.64858248326E+02  0.00000000000E+00 0. -1.
          1    1    1    2  501    0  0.25780651848E+02  0.12156702188E+02 -0.36491235513E+01  0.28735753348E+02  0.00000000000E+00 0. -1.
<mgrwt>
<rscale>  1 0.84065065E+02</rscale>
<asrwt>0</asrwt>
<pdfrwt beam="1">  1       21 0.59919926E-02 0.84065065E+02</pdfrwt>
<pdfrwt beam="2">  1        2 0.13874328E-01 0.84065065E+02</pdfrwt>
<totfact> 0.94989591E+05</totfact>
</mgrwt>
</event>
<event>
 6    2  0.8544106E+000  0.8707703E+02  0.7546771E-02  0.1310089E+00
         21   -1    0    0  501  502  0.00000000000E+00  0.00000000000E+00  0.91336261876E+01  0.91336261876E+01  0.00000000000E+00 0.  1.
          2   -1    0    0  502    0 -0.00000000000E+00 -0.00000000000E+00 -0.43096547899E+03  0.43096547899E+03  0.00000000000E+00 0. -1.
         24    2    1    2    0    0 -0.16861696299E+02  0.27524606754E+02 -0.23744397002E+03  0.25290719270E+03  0.80873286336E+02 0.  0.
        -11    1    3    3    0    0 -0.18802956257E+02  0.20076287424E+02 -0.17014751970E+02  0.32343627894E+02  0.00000000000E+00 0.  1.
         12    1    3    3    0    0  0.19412599578E+01  0.74483193302E+01 -0.22042921805E+03  0.22056356481E+03  0.00000000000E+00 0. -1.
          1    1    1    2  501    0  0.16861696299E+02 -0.27524606754E+02 -0.18438788279E+03  0.18719191248E+03  0.00000000000E+00 0. -1.
<mgrwt>
<rscale>  1 0.87077030E+02</rscale>
<asrwt>0</asrwt>
<pdfrwt beam="1">  1       21 0.14051734E-02 0.87077030E+02</pdfrwt>
<pdfrwt beam="2">  1        2 0.66302374E-01 0.87077030E+02</pdfrwt>
<totfact> 0.18511675E+06</totfact>
</mgrwt>
</event>
<event>
 6    2  0.8544106E+000  0.6855190E+02  0.7546771E-02  0.1365088E+00
         21   -1    0    0  501  502  0.00000000000E+00  0.00000000000E+00  0.48603860307E+02  0.48603860307E+02  0.00000000000E+00 0. -1.
          4   -1    0    0  502    0 -0.00000000000E+00 -0.00000000000E+00 -0.17718557401E+03  0.17718557401E+03  0.00000000000E+00 0. -1.
         24    2    1    2    0    0  0.27352899836E+02  0.89972599482E+01 -0.16540298681E+03  0.17904611427E+03  0.62211182081E+02 0.  0.
        -11    1    3    3    0    0 -0.69421223285E+01 -0.19968293574E+02 -0.32539084134E+02  0.38803579821E+02  0.00000000000E+00 0.  1.
         12    1    3    3    0    0  0.34295022165E+02  0.28965553522E+02 -0.13286390267E+03  0.14024253445E+03  0.00000000000E+00 0. -1.
          3    1    1    2  501    0 -0.27352899836E+02 -0.89972599482E+01  0.36821273102E+02  0.46743320046E+02  0.00000000000E+00 0. -1.
<mgrwt>
<rscale>  1 0.68551900E+02</rscale>
<asrwt>0</asrwt>
<pdfrwt beam="1">  1       21 0.74775172E-02 0.68551900E+02</pdfrwt>
<pdfrwt beam="2">  1        4 0.27259318E-01 0.68551900E+02</pdfrwt>
<totfact> 0.62473282E+04</totfact>
</mgrwt>
</event>
<event>
 6    2  0.8544106E+000  0.9104657E+02  0.7546771E-02  0.1300337E+00
          2   -1    0    0  502    0 -0.00000000000E+00  0.00000000000E+00  0.57873543143E+03  0.57873543143E+03  0.00000000000E+00 0. -1.
         21   -1    0    0  501  502  0.00000000000E+00 -0.00000000000E+00 -0.77267229412E+01  0.77267229412E+01  0.00000000000E+00 0. -1.
         24    2    1    2    0    0 -0.98352658458E+00 -0.41189785531E+02  0.35016585025E+03  0.36180879074E+03  0.81190594390E+02 0.  0.
        -13    1    3    3    0    0 -0.11236575907E+01 -0.34875336674E+01 -0.41250858622E+01  0.55174116063E+01  0.00000000000E+00 0.  1.
         14    1    3    3    0    0  0.14013100614E+00 -0.37702251864E+02  0.35429093611E+03  0.35629137913E+03  0.00000000000E+00 0. -1.
          1    1    1    2  501    0  0.98352658458E+00  0.41189785531E+02  0.22084285824E+03  0.22465336363E+03  0.00000000000E+00 0. -1.
<mgrwt>
<rscale>  1 0.91046573E+02</rscale>
<asrwt>0</asrwt>
<pdfrwt beam="1">  1       21 0.11887271E-02 0.91046573E+02</pdfrwt>
<pdfrwt beam="2">  1        2 0.89036186E-01 0.91046573E+02</pdfrwt>
<totfact> 0.17605065E+06</totfact>
</mgrwt>
</event>
<event>
 6    2  0.8544106E+000  0.9118934E+02  0.7546771E-02  0.1299997E+00
         21   -1    0    0  501  502  0.00000000000E+00  0.00000000000E+00  0.10894338123E+02  0.10894338123E+02  0.00000000000E+00 0. -1.
          2   -1    0    0  502    0 -0.00000000000E+00 -0.00000000000E+00 -0.42727549305E+03  0.42727549305E+03  0.00000000000E+00 0. -1.
         24    2    1    2    0    0 -0.21527279129E+01  0.44423428238E+02 -0.25695356965E+03  0.27265478605E+03  0.79607915361E+02 0.  0.
        -13    1    3    3    0    0 -0.93422909867E+01 -0.21807623611E+02 -0.52264058022E+02  0.57396712531E+02  0.00000000000E+00 0.  1.
         14    1    3    3    0    0  0.71895630738E+01  0.66231051849E+02 -0.20468951162E+03  0.21525807352E+03  0.00000000000E+00 0. -1.
          1    1    1    2  501    0  0.21527279129E+01 -0.44423428238E+02 -0.15942758528E+03  0.16551504513E+03  0.00000000000E+00 0. -1.
<mgrwt>
<rscale>  1 0.91189338E+02</rscale>
<asrwt>0</asrwt>
<pdfrwt beam="1">  1       21 0.16760516E-02 0.91189338E+02</pdfrwt>
<pdfrwt beam="2">  1        2 0.65734707E-01 0.91189338E+02</pdfrwt>
<totfact> 0.14202491E+06</totfact>
</mgrwt>
</event>
<event>
 6    2  0.8544106E+000  0.8029868E+02  0.7546771E-02  0.1328206E+00
         -1   -1    0    0    0  501 -0.00000000000E+00  0.00000000000E+00  0.53534052236E+02  0.53534052236E+02  0.00000000000E+00 0.  1.
         21   -1    0    0  501  502  0.00000000000E+00 -0.00000000000E+00 -0.27465018483E+03  0.27465018483E+03  0.00000000000E+00 0.  1.
         24    2    1    2    0    0  0.21758625453E+02  0.14792237057E+02  0.22309994053E+02  0.83340353758E+02  0.75865872902E+02 0.  0.
        -13    1    3    3    0    0  0.35784564299E+02  0.25733050061E+02  0.39070198980E+02  0.58899960576E+02  0.00000000000E+00 0.  1.
         14    1    3    3    0    0 -0.14025938846E+02 -0.10940813004E+02 -0.16760204927E+02  0.24440393182E+02  0.00000000000E+00 0. -1.
         -2    1    1    2    0  502 -0.21758625453E+02 -0.14792237057E+02 -0.24342612665E+03  0.24484388331E+03  0.00000000000E+00 0.  1.
<mgrwt>
<rscale>  1 0.80298684E+02</rscale>
<asrwt>0</asrwt>
<pdfrwt beam="1">  1       21 0.42253874E-01 0.80298684E+02</pdfrwt>
<pdfrwt beam="2">  1       -1 0.82360081E-02 0.80298684E+02</pdfrwt>
<totfact> 0.38645859E+04</totfact>
</mgrwt>
</event>
<event>
 6    2  0.8544106E+000  0.8684162E+02  0.7546771E-02  0.1310686E+00
          2   -1    0    0  502    0 -0.00000000000E+00  0.00000000000E+00  0.13380933955E+04  0.13380933955E+04  0.00000000000E+00 0. -1.
         21   -1    0    0  501  502  0.00000000000E+00 -0.00000000000E+00 -0.27288655502E+01  0.27288655502E+01  0.00000000000E+00 0. -1.
         24    2    1    2    0    0  0.25914422824E+02 -0.20060570462E+02  0.10490540842E+04  0.10526423604E+04  0.80420665989E+02 0.  0.
        -11    1    3    3    0    0 -0.14925441745E+02  0.21794411680E+02  0.23219015796E+03  0.23368790008E+03  0.00000000000E+00 0.  1.
         12    1    3    3    0    0  0.40839864570E+02 -0.41854982142E+02  0.81686392627E+03  0.81895446034E+03  0.00000000000E+00 0. -1.
          1    1    1    2  501    0 -0.25914422824E+02  0.20060570462E+02  0.28631044569E+03  0.28817990060E+03  0.00000000000E+00 0. -1.
<mgrwt>
<rscale>  1 0.86841622E+02</rscale>
<asrwt>0</asrwt>
<pdfrwt beam="1">  1       21 0.41982654E-03 0.86841622E+02</pdfrwt>
<pdfrwt beam="2">  1        2 0.20586000E+00 0.86841622E+02</pdfrwt>
<totfact> 0.29500783E+06</totfact>
</mgrwt>
</event>
<event>
 6    2  0.8544106E+000  0.8594188E+02  0.7546771E-02  0.1312988E+00
         21   -1    0    0  501  502  0.00000000000E+00  0.00000000000E+00  0.14212334816E+03  0.14212334816E+03  0.00000000000E+00 0. -1.
          2   -1    0    0  502    0 -0.00000000000E+00 -0.00000000000E+00 -0.86360671865E+02  0.86360671865E+02  0.00000000000E+00 0. -1.
         24    2    1    2    0    0 -0.17505189798E+02  0.22198427316E+02 -0.62899679967E+02  0.10650059230E+03  0.81159131193E+02 0.  0.
        -13    1    3    3    0    0 -0.52385488392E+01  0.48701044616E+02 -0.16520670871E+02  0.51693004427E+02  0.00000000000E+00 0.  1.
         14    1    3    3    0    0 -0.12266640959E+02 -0.26502617301E+02 -0.46379009096E+02  0.54807587877E+02  0.00000000000E+00 0. -1.
          1    1    1    2  501    0  0.17505189798E+02 -0.22198427316E+02  0.11866235626E+03  0.12198342772E+03  0.00000000000E+00 0. -1.
<mgrwt>
<rscale>  1 0.85941878E+02</rscale>
<asrwt>0</asrwt>
<pdfrwt beam="1">  1       21 0.21865131E-01 0.85941878E+02</pdfrwt>
<pdfrwt beam="2">  1        2 0.13286257E-01 0.85941878E+02</pdfrwt>
<totfact> 0.10381746E+05</totfact>
</mgrwt>
</event>
<event>
 6    2  0.8544106E+000  0.8393342E+02  0.7546771E-02  0.1318246E+00
         21   -1    0    0  501  502  0.00000000000E+00  0.00000000000E+00  0.86626102879E+01  0.86626102879E+01  0.00000000000E+00 0.  1.
          4   -1    0    0  502    0 -0.00000000000E+00 -0.00000000000E+00 -0.32187679807E+03  0.32187679807E+03  0.00000000000E+00 0. -1.
         24    2    1    2    0    0  0.21375853320E+02  0.22968836236E+01 -0.24133873557E+03  0.25551752215E+03  0.81133322744E+02 0.  0.
        -13    1    3    3    0    0  0.43566823265E+02  0.86712547241E+01 -0.71918019213E+02  0.84530824173E+02  0.00000000000E+00 0.  1.
         14    1    3    3    0    0 -0.22190969945E+02 -0.63743711005E+01 -0.16942071636E+03  0.17098669798E+03  0.00000000000E+00 0. -1.
          3    1    1    2  501    0 -0.21375853320E+02 -0.22968836236E+01 -0.71875452215E+02  0.75021886211E+02  0.00000000000E+00 0. -1.
<mgrwt>
<rscale>  1 0.83933419E+02</rscale>
<asrwt>0</asrwt>
<pdfrwt beam="1">  1       21 0.13327094E-02 0.83933419E+02</pdfrwt>
<pdfrwt beam="2">  1        4 0.49519504E-01 0.83933419E+02</pdfrwt>
<totfact> 0.34037545E+05</totfact>
</mgrwt>
</event>
<event>
 6    2  0.8544106E+000  0.9134945E+02  0.7546771E-02  0.1299616E+00
         21   -1    0    0  501  502  0.00000000000E+00  0.00000000000E+00  0.12305914185E+02  0.12305914185E+02  0.00000000000E+00 0.  1.
          2   -1    0    0  502    0 -0.00000000000E+00 -0.00000000000E+00 -0.37083898394E+03  0.37083898394E+03  0.00000000000E+00 0. -1.
         24    2    1    2    0    0  0.43155087279E+02 -0.16048011875E+01 -0.22643259191E+03  0.24416478015E+03  0.80497107044E+02 0.  0.
        -11    1    3    3    0    0  0.44679664309E+02 -0.15090134998E+02 -0.56082864621E+02  0.73275318363E+02  0.00000000000E+00 0.  1.
         12    1    3    3    0    0 -0.15245770303E+01  0.13485333810E+02 -0.17034972729E+03  0.17088946179E+03  0.00000000000E+00 0. -1.
          1    1    1    2  501    0 -0.43155087279E+02  0.16048011875E+01 -0.13210047784E+03  0.13898011797E+03  0.00000000000E+00 0. -1.
<mgrwt>
<rscale>  1 0.91349445E+02</rscale>
<asrwt>0</asrwt>
<pdfrwt beam="1">  1       21 0.18932175E-02 0.91349445E+02</pdfrwt>
<pdfrwt beam="2">  1        2 0.57052153E-01 0.91349445E+02</pdfrwt>
<totfact> 0.13580536E+06</totfact>
</mgrwt>
</event>
<event>
 6    2  0.8544106E+000  0.8979034E+02  0.7546771E-02  0.1303360E+00
         21   -1    0    0  501  502  0.00000000000E+00  0.00000000000E+00  0.28273163222E+01  0.28273163222E+01  0.00000000000E+00 0. -1.
          2   -1    0    0  502    0 -0.00000000000E+00 -0.00000000000E+00 -0.18699237606E+04  0.18699237606E+04  0.00000000000E+00 0. -1.
         24    2    1    2    0    0  0.20769331309E+02  0.25707786722E+02 -0.17026811691E+04  0.17050470575E+04  0.83486820731E+02 0.  0.
        -11    1    3    3    0    0 -0.20932223403E+01 -0.28411456756E+02 -0.76255831582E+03  0.76309028134E+03  0.00000000000E+00 0.  1.
         12    1    3    3    0    0  0.22862553649E+02  0.54119243478E+02 -0.94012285329E+03  0.94195677616E+03  0.00000000000E+00 0. -1.
          1    1    1    2  501    0 -0.20769331309E+02 -0.25707786722E+02 -0.16441527521E+03  0.16770401946E+03  0.00000000000E+00 0. -1.
<mgrwt>
<rscale>  1 0.89790337E+02</rscale>
<asrwt>0</asrwt>
<pdfrwt beam="1">  1       21 0.43497279E-03 0.89790337E+02</pdfrwt>
<pdfrwt beam="2">  1        2 0.28767989E+00 0.89790337E+02</pdfrwt>
<totfact> 0.15054167E+06</totfact>
</mgrwt>
</event>
<event>
 6    2  0.8544106E+000  0.8322146E+02  0.7546771E-02  0.1320150E+00
          2   -1    0    0  502    0 -0.00000000000E+00  0.00000000000E+00  0.15220717067E+03  0.15220717067E+03  0.00000000000E+00 0. -1.
         21   -1    0    0  501  502  0.00000000000E+00 -0.00000000000E+00 -0.17736415646E+02  0.17736415646E+02  0.00000000000E+00 0.  1.
         24    2    1    2    0    0  0.19024548154E+02  0.81229402509E+01  0.10685412811E+03  0.13543860591E+03  0.80609526022E+02 0.  0.
        -13    1    3    3    0    0 -0.19469238414E+02  0.28843501226E+02  0.25706457538E+02  0.43264543988E+02  0.00000000000E+00 0.  1.
         14    1    3    3    0    0  0.38493786568E+02 -0.20720560975E+02  0.81147670572E+02  0.92174061919E+02  0.00000000000E+00 0. -1.
          1    1    1    2  501    0 -0.19024548154E+02 -0.81229402509E+01  0.27616626915E+02  0.34504980408E+02  0.00000000000E+00 0. -1.
<mgrwt>
<rscale>  1 0.83221459E+02</rscale>
<asrwt>0</asrwt>
<pdfrwt beam="1">  1       21 0.27286794E-02 0.83221459E+02</pdfrwt>
<pdfrwt beam="2">  1        2 0.23416487E-01 0.83221459E+02</pdfrwt>
<totfact> 0.19165655E+06</totfact>
</mgrwt>
</event>
<event>
 6    2  0.8544106E+000  0.7498358E+02  0.7546771E-02  0.1343922E+00
         21   -1    0    0  501  502  0.00000000000E+00  0.00000000000E+00  0.11315966150E+02  0.11315966150E+02  0.00000000000E+00 0.  1.
          2   -1    0    0  502    0 -0.00000000000E+00 -0.00000000000E+00 -0.56585143233E+03  0.56585143233E+03  0.00000000000E+00 0. -1.
         24    2    1    2    0    0 -0.14372676311E+02  0.16671024152E+02 -0.11628498632E+03  0.13836450427E+03  0.71680130634E+02 0.  0.
        -11    1    3    3    0    0 -0.31353593823E+02  0.35793074908E+01 -0.15193818191E+02  0.35024440023E+02  0.00000000000E+00 0.  1.
         12    1    3    3    0    0  0.16980917512E+02  0.13091716661E+02 -0.10109116813E+03  0.10334006425E+03  0.00000000000E+00 0. -1.
          1    1    1    2  501    0  0.14372676311E+02 -0.16671024152E+02 -0.43825047986E+03  0.43880289421E+03  0.00000000000E+00 0. -1.
<mgrwt>
<rscale>  1 0.74983585E+02</rscale>
<asrwt>0</asrwt>
<pdfrwt beam="1">  1       21 0.17409177E-02 0.74983585E+02</pdfrwt>
<pdfrwt beam="2">  1        2 0.87054077E-01 0.74983585E+02</pdfrwt>
<totfact> 0.96884545E+05</totfact>
</mgrwt>
</event>
<event>
 6    2  0.8544106E+000  0.1095687E+03  0.7546771E-02  0.1261371E+00
          2   -1    0    0  502    0 -0.00000000000E+00  0.00000000000E+00  0.23137328421E+04  0.23137328421E+04  0.00000000000E+00 0. -1.
         21   -1    0    0  501  502  0.00000000000E+00 -0.00000000000E+00 -0.58435905141E+01  0.58435905141E+01  0.00000000000E+00 0. -1.
         24    2    1    2    0    0  0.13082415317E+02  0.72898353355E+02  0.19963516406E+04  0.19993561919E+04  0.80746452562E+02 0.  0.
        -11    1    3    3    0    0  0.97055302638E+01 -0.14233864345E+02  0.15773926575E+03  0.15867727050E+03  0.00000000000E+00 0.  1.
         12    1    3    3    0    0  0.33768850532E+01  0.87132217700E+02  0.18386123748E+04  0.18406789214E+04  0.00000000000E+00 0. -1.
          1    1    1    2  501    0 -0.13082415317E+02 -0.72898353355E+02  0.31153761101E+03  0.32022024075E+03  0.00000000000E+00 0. -1.
<mgrwt>
<rscale>  1 0.10956874E+03</rscale>
<asrwt>0</asrwt>
<pdfrwt beam="1">  1       21 0.89901577E-03 0.10956874E+03</pdfrwt>
<pdfrwt beam="2">  1        2 0.35595817E+00 0.10956874E+03</pdfrwt>
<totfact> 0.29369273E+05</totfact>
</mgrwt>
</event>
<event>
 6    2  0.8544106E+000  0.9264864E+02  0.7546771E-02  0.1296561E+00
         21   -1    0    0  501  502  0.00000000000E+00  0.00000000000E+00  0.13100914754E+04  0.13100914754E+04  0.00000000000E+00 0.  1.
         -3   -1    0    0    0  501 -0.00000000000E+00 -0.00000000000E+00 -0.70708070916E+01  0.70708070916E+01  0.00000000000E+00 0.  1.
         24    2    1    2    0    0  0.33924519162E+02 -0.79765600768E+01  0.31044727046E+03  0.32397728028E+03  0.85844463348E+02 0.  0.
        -11    1    3    3    0    0  0.63008554697E+02 -0.83315963986E+01  0.21134519253E+03  0.22069500191E+03  0.00000000000E+00 0.  1.
         12    1    3    3    0    0 -0.29084035535E+02  0.35503632181E+00  0.99102077936E+02  0.10328227837E+03  0.00000000000E+00 0. -1.
         -4    1    1    2    0  502 -0.33924519162E+02  0.79765600768E+01  0.99257339781E+03  0.99318500218E+03  0.00000000000E+00 0.  1.
<mgrwt>
<rscale>  1 0.92648639E+02</rscale>
<asrwt>0</asrwt>
<pdfrwt beam="1">  1       21 0.20155234E+00 0.92648639E+02</pdfrwt>
<pdfrwt beam="2">  1       -3 0.10878175E-02 0.92648639E+02</pdfrwt>
<totfact> 0.15425003E+04</totfact>
</mgrwt>
</event>
<event>
 6    2  0.8544106E+000  0.8547491E+02  0.7546771E-02  0.1314195E+00
         21   -1    0    0  501  502  0.00000000000E+00  0.00000000000E+00  0.22264933007E+02  0.22264933007E+02  0.00000000000E+00 0.  1.
          2   -1    0    0  502    0 -0.00000000000E+00 -0.00000000000E+00 -0.16467038389E+03  0.16467038389E+03  0.00000000000E+00 0. -1.
         24    2    1    2    0    0 -0.26625467130E+02 -0.19507999042E+02 -0.83959610952E+02  0.11981308711E+03  0.78844670364E+02 0.  0.
        -13    1    3    3    0    0  0.13553089077E+01 -0.34968962002E+02 -0.59369704997E+01  0.35495250167E+02  0.00000000000E+00 0.  1.
         14    1    3    3    0    0 -0.27980776037E+02  0.15460962960E+02 -0.78022640452E+02  0.84317836941E+02  0.00000000000E+00 0. -1.
          1    1    1    2  501    0  0.26625467130E+02  0.19507999042E+02 -0.58445839932E+02  0.67122229789E+02  0.00000000000E+00 0. -1.
<mgrwt>
<rscale>  1 0.85474906E+02</rscale>
<asrwt>0</asrwt>
<pdfrwt beam="1">  1       21 0.34253742E-02 0.85474906E+02</pdfrwt>
<pdfrwt beam="2">  1        2 0.25333906E-01 0.85474906E+02</pdfrwt>
<totfact> 0.12199033E+06</totfact>
</mgrwt>
</event>
<event>
 6    2  0.8544106E+000  0.8297672E+02  0.7546771E-02  0.1320810E+00
          2   -1    0    0  502    0 -0.00000000000E+00  0.00000000000E+00  0.79399581865E+03  0.79399581865E+03  0.00000000000E+00 0. -1.
         21   -1    0    0  501  502  0.00000000000E+00 -0.00000000000E+00 -0.63197277905E+01  0.63197277905E+01  0.00000000000E+00 0. -1.
         24    2    1    2    0    0  0.16262415358E+02  0.12501192341E+02  0.76596837276E+03  0.77044966309E+03  0.80401426127E+02 0.  0.
        -11    1    3    3    0    0 -0.12349000469E+02 -0.11720921776E+02  0.39480204260E+02  0.42994933984E+02  0.00000000000E+00 0.  1.
         12    1    3    3    0    0  0.28611415827E+02  0.24222114117E+02  0.72648816850E+03  0.72745472911E+03  0.00000000000E+00 0. -1.
          1    1    1    2  501    0 -0.16262415358E+02 -0.12501192341E+02  0.21707718099E+02  0.29865883350E+02  0.00000000000E+00 0. -1.
<mgrwt>
<rscale>  1 0.82976715E+02</rscale>
<asrwt>0</asrwt>
<pdfrwt beam="1">  1       21 0.97226644E-03 0.82976715E+02</pdfrwt>
<pdfrwt beam="2">  1        2 0.12215312E+00 0.82976715E+02</pdfrwt>
<totfact> 0.16568081E+06</totfact>
</mgrwt>
</event>
<event>
 6    2  0.8544106E+000  0.9314958E+02  0.7546771E-02  0.1295399E+00
         21   -1    0    0  501  502  0.00000000000E+00  0.00000000000E+00  0.74638004279E+02  0.74638004279E+02  0.00000000000E+00 0. -1.
          2   -1    0    0  502    0 -0.00000000000E+00 -0.00000000000E+00 -0.21191120768E+03  0.21191120768E+03  0.00000000000E+00 0. -1.
         24    2    1    2    0    0 -0.42671632102E+02  0.18931619440E+02 -0.19272979512E+03  0.21405984745E+03  0.80607505633E+02 0.  0.
        -13    1    3    3    0    0 -0.27769989119E+02 -0.31289404281E+01 -0.10433405916E+02  0.29829826062E+02  0.00000000000E+00 0.  1.
         14    1    3    3    0    0 -0.14901642982E+02  0.22060559868E+02 -0.18229638920E+03  0.18423002139E+03  0.00000000000E+00 0. -1.
          1    1    1    2  501    0  0.42671632102E+02 -0.18931619440E+02  0.55456591720E+02  0.72489364503E+02  0.00000000000E+00 0. -1.
<mgrwt>
<rscale>  1 0.93149581E+02</rscale>
<asrwt>0</asrwt>
<pdfrwt beam="1">  1       21 0.11482770E-01 0.93149581E+02</pdfrwt>
<pdfrwt beam="2">  1        2 0.32601724E-01 0.93149581E+02</pdfrwt>
<totfact> 0.12188886E+05</totfact>
</mgrwt>
</event>
<event>
 6    2  0.8544106E+000  0.9531454E+02  0.7546771E-02  0.1290469E+00
         21   -1    0    0  501  502  0.00000000000E+00  0.00000000000E+00  0.18945951148E+02  0.18945951148E+02  0.00000000000E+00 0. -1.
          2   -1    0    0  502    0 -0.00000000000E+00 -0.00000000000E+00 -0.22807315303E+04  0.22807315303E+04  0.00000000000E+00 0. -1.
         24    2    1    2    0    0 -0.38246142850E+01 -0.55188277067E+02 -0.22370482939E+04  0.22390779197E+04  0.77617573763E+02 0.  0.
        -11    1    3    3    0    0  0.76355894746E+01  0.28998237075E+01 -0.26348534539E+02  0.27585439574E+02  0.00000000000E+00 0.  1.
         12    1    3    3    0    0 -0.11460203760E+02 -0.58088100775E+02 -0.22106997594E+04  0.22114924801E+04  0.00000000000E+00 0. -1.
          1    1    1    2  501    0  0.38246142850E+01  0.55188277067E+02 -0.24737285261E+02  0.60599561732E+02  0.00000000000E+00 0. -1.
<mgrwt>
<rscale>  1 0.95314539E+02</rscale>
<asrwt>0</asrwt>
<pdfrwt beam="1">  1       21 0.29147603E-02 0.95314539E+02</pdfrwt>
<pdfrwt beam="2">  1        2 0.35088194E+00 0.95314539E+02</pdfrwt>
<totfact> 0.46969036E+04</totfact>
</mgrwt>
</event>
<event>
 6    2  0.8544106E+000  0.9803312E+02  0.7546771E-02  0.1284487E+00
         -1   -1    0    0    0  501 -0.00000000000E+00  0.00000000000E+00  0.20027751469E+03  0.20027751469E+03  0.00000000000E+00 0.  1.
         21   -1    0    0  501  502  0.00000000000E+00 -0.00000000000E+00 -0.10190710521E+03  0.10190710521E+03  0.00000000000E+00 0. -1.
         24    2    1    2    0    0 -0.56569962475E+02  0.13713608725E+02 -0.72332823550E+02  0.12182992080E+03  0.78881357246E+02 0.  0.
        -11    1    3    3    0    0  0.51163767481E+01  0.30317165924E+02 -0.93872216738E+01  0.32146971730E+02  0.00000000000E+00 0.  1.
         12    1    3    3    0    0 -0.61686339223E+02 -0.16603557199E+02 -0.62945601876E+02  0.89682949070E+02  0.00000000000E+00 0. -1.
         -2    1    1    2    0  502  0.56569962475E+02 -0.13713608725E+02  0.17070323303E+03  0.18035469910E+03  0.00000000000E+00 0.  1.
<mgrwt>
<rscale>  1 0.98033118E+02</rscale>
<asrwt>0</asrwt>
<pdfrwt beam="1">  1       21 0.15678016E-01 0.98033118E+02</pdfrwt>
<pdfrwt beam="2">  1       -1 0.30811925E-01 0.98033118E+02</pdfrwt>
<totfact> 0.31898209E+04</totfact>
</mgrwt>
</event>
<event>
 6    2  0.8544106E+000  0.8396684E+02  0.7546771E-02  0.1318157E+00
          2   -1    0    0  502    0 -0.00000000000E+00  0.00000000000E+00  0.14248679808E+04  0.14248679808E+04  0.00000000000E+00 0. -1.
         21   -1    0    0  501  502  0.00000000000E+00 -0.00000000000E+00 -0.99424476643E+01  0.99424476643E+01  0.00000000000E+00 0. -1.
         24    2    1    2    0    0  0.94961311145E+01  0.18885307034E+02  0.14107710854E+04  0.14132676625E+04  0.81262532960E+02 0.  0.
        -13    1    3    3    0    0 -0.10573100793E+02 -0.50697113194E+01  0.31012355242E+02  0.33155069158E+02  0.00000000000E+00 0.  1.
         14    1    3    3    0    0  0.20069231907E+02  0.23955018354E+02  0.13797587301E+04  0.13801125934E+04  0.00000000000E+00 0. -1.
          1    1    1    2  501    0 -0.94961311145E+01 -0.18885307034E+02  0.41544477473E+01  0.21542765932E+02  0.00000000000E+00 0. -1.
<mgrwt>
<rscale>  1 0.83966842E+02</rscale>
<asrwt>0</asrwt>
<pdfrwt beam="1">  1       21 0.15296085E-02 0.83966842E+02</pdfrwt>
<pdfrwt beam="2">  1        2 0.21921030E+00 0.83966842E+02</pdfrwt>
<totfact> 0.35707421E+05</totfact>
</mgrwt>
</event>
<event>
 6    2  0.8544106E+000  0.1404444E+03  0.7546771E-02  0.1212732E+00
         21   -1    0    0  501  502  0.00000000000E+00  0.00000000000E+00  0.57637799127E+02  0.57637799127E+02  0.00000000000E+00 0. -1.
          2   -1    0    0  502    0 -0.00000000000E+00 -0.00000000000E+00 -0.32782762977E+03  0.32782762977E+03  0.00000000000E+00 0. -1.
         24    2    1    2    0    0  0.95904204654E+02 -0.63183276379E+02 -0.21798416423E+03  0.25931007035E+03  0.80838566577E+02 0.  0.
        -11    1    3    3    0    0  0.48779827788E+02  0.13242396814E+02 -0.83548453507E+02  0.97648229661E+02  0.00000000000E+00 0.  1.
         12    1    3    3    0    0  0.47124376867E+02 -0.76425673193E+02 -0.13443571072E+03  0.16166184069E+03  0.00000000000E+00 0. -1.
          1    1    1    2  501    0 -0.95904204654E+02  0.63183276379E+02 -0.52205666415E+02  0.12615535855E+03  0.00000000000E+00 0. -1.
<mgrwt>
<rscale>  1 0.14044435E+03</rscale>
<asrwt>0</asrwt>
<pdfrwt beam="1">  1       21 0.88673537E-02 0.14044435E+03</pdfrwt>
<pdfrwt beam="2">  1        2 0.50435020E-01 0.14044435E+03</pdfrwt>
<totfact> 0.12260607E+05</totfact>
</mgrwt>
</event>
<event>
 6    2  0.8544106E+000  0.8317458E+02  0.7546771E-02  0.1320276E+00
          2   -1    0    0  502    0 -0.00000000000E+00  0.00000000000E+00  0.16867274526E+03  0.16867274526E+03  0.00000000000E+00 0. -1.
         21   -1    0    0  501  502  0.00000000000E+00 -0.00000000000E+00 -0.19969866826E+02  0.19969866826E+02  0.00000000000E+00 0.  1.
         24    2    1    2    0    0  0.46229755610E-01  0.20452354609E+02  0.14597638124E+03  0.16800927176E+03  0.80620782504E+02 0.  0.
        -11    1    3    3    0    0  0.23043348872E+01 -0.30752170353E+02  0.42213613893E+02  0.52278055994E+02  0.00000000000E+00 0.  1.
         12    1    3    3    0    0 -0.22581051316E+01  0.51204524961E+02  0.10376276735E+03  0.11573121577E+03  0.00000000000E+00 0. -1.
          1    1    1    2  501    0 -0.46229755610E-01 -0.20452354609E+02  0.27264971994E+01  0.20633340331E+02  0.00000000000E+00 0. -1.
<mgrwt>
<rscale>  1 0.83174585E+02</rscale>
<asrwt>0</asrwt>
<pdfrwt beam="1">  1       21 0.30722873E-02 0.83174585E+02</pdfrwt>
<pdfrwt beam="2">  1        2 0.25949652E-01 0.83174585E+02</pdfrwt>
<totfact> 0.14142909E+06</totfact>
</mgrwt>
</event>
<event>
 6    2  0.8544106E+000  0.8630233E+02  0.7546771E-02  0.1312062E+00
         21   -1    0    0  501  502  0.00000000000E+00  0.00000000000E+00  0.15628022063E+03  0.15628022063E+03  0.00000000000E+00 0. -1.
         -3   -1    0    0    0  501 -0.00000000000E+00 -0.00000000000E+00 -0.28937278096E+02  0.28937278096E+02  0.00000000000E+00 0.  1.
         24    2    1    2    0    0 -0.27183311605E+02 -0.17173912155E+02  0.46100397160E+02  0.97843435827E+02  0.80088798390E+02 0.  0.
        -11    1    3    3    0    0 -0.95871732808E+01  0.12066668561E+02 -0.18925226937E+02  0.24406609685E+02  0.00000000000E+00 0.  1.
         12    1    3    3    0    0 -0.17596138324E+02 -0.29240580717E+02  0.65025624097E+02  0.73436826142E+02  0.00000000000E+00 0. -1.
         -4    1    1    2    0  502  0.27183311605E+02  0.17173912155E+02  0.81242545378E+02  0.87374062902E+02  0.00000000000E+00 0.  1.
<mgrwt>
<rscale>  1 0.86302325E+02</rscale>
<asrwt>0</asrwt>
<pdfrwt beam="1">  1       21 0.24043110E-01 0.86302325E+02</pdfrwt>
<pdfrwt beam="2">  1       -3 0.44518890E-02 0.86302325E+02</pdfrwt>
<totfact> 0.19921439E+05</totfact>
</mgrwt>
</event>
<event>
 6    2  0.8544106E+000  0.1046125E+03  0.7546771E-02  0.1270885E+00
         21   -1    0    0  501  502  0.00000000000E+00  0.00000000000E+00  0.23143153731E+02  0.23143153731E+02  0.00000000000E+00 0.  1.
         -1   -1    0    0    0  501 -0.00000000000E+00 -0.00000000000E+00 -0.67836637321E+03  0.67836637321E+03  0.00000000000E+00 0.  1.
         24    2    1    2    0    0 -0.23112119436E+02 -0.64726885904E+02 -0.61075375415E+03  0.61964822247E+03  0.78867176802E+02 0.  0.
        -13    1    3    3    0    0  0.36078292858E+01 -0.71063132516E+02 -0.51955422287E+03  0.52440401957E+03  0.00000000000E+00 0.  1.
         14    1    3    3    0    0 -0.26719948722E+02  0.63362466128E+01 -0.91199531277E+02  0.95244202899E+02  0.00000000000E+00 0. -1.
         -2    1    1    2    0  502  0.23112119436E+02  0.64726885904E+02 -0.44469465333E+02  0.81861304476E+02  0.00000000000E+00 0.  1.
<mgrwt>
<rscale>  1 0.10461248E+03</rscale>
<asrwt>0</asrwt>
<pdfrwt beam="1">  1       21 0.35604857E-02 0.10461248E+03</pdfrwt>
<pdfrwt beam="2">  1       -1 0.10436404E+00 0.10461248E+03</pdfrwt>
<totfact> 0.40345523E+04</totfact>
</mgrwt>
</event>
<event>
 6    2  0.8544106E+000  0.8560695E+02  0.7546771E-02  0.1313853E+00
         21   -1    0    0  501  502  0.00000000000E+00  0.00000000000E+00  0.37156507861E+01  0.37156507861E+01  0.00000000000E+00 0.  1.
          2   -1    0    0  502    0 -0.00000000000E+00 -0.00000000000E+00 -0.10799611993E+04  0.10799611993E+04  0.00000000000E+00 0. -1.
         24    2    1    2    0    0 -0.21957553453E+02 -0.50651746224E+01 -0.52197643473E+03  0.52894985358E+03  0.82587886831E+02 0.  0.
        -13    1    3    3    0    0 -0.40447265565E+02 -0.36400238306E+01 -0.12276004284E+03  0.12930297438E+03  0.00000000000E+00 0.  1.
         14    1    3    3    0    0  0.18489712112E+02 -0.14251507918E+01 -0.39921639189E+03  0.39964687921E+03  0.00000000000E+00 0. -1.
          1    1    1    2  501    0  0.21957553453E+02  0.50651746224E+01 -0.55426911382E+03  0.55472699653E+03  0.00000000000E+00 0. -1.
<mgrwt>
<rscale>  1 0.85606946E+02</rscale>
<asrwt>0</asrwt>
<pdfrwt beam="1">  1       21 0.57163897E-03 0.85606946E+02</pdfrwt>
<pdfrwt beam="2">  1        2 0.16614776E+00 0.85606946E+02</pdfrwt>
<totfact> 0.25344014E+06</totfact>
</mgrwt>
</event>
<event>
 6    2  0.8544106E+000  0.9039435E+02  0.7546771E-02  0.1301900E+00
         21   -1    0    0  501  502  0.00000000000E+00  0.00000000000E+00  0.10956354058E+02  0.10956354058E+02  0.00000000000E+00 0. -1.
          2   -1    0    0  502    0 -0.00000000000E+00 -0.00000000000E+00 -0.81455110793E+03  0.81455110793E+03  0.00000000000E+00 0. -1.
         24    2    1    2    0    0 -0.28861899869E+02 -0.28345059965E+02 -0.76251148785E+03  0.76785083674E+03  0.80837408919E+02 0.  0.
        -13    1    3    3    0    0  0.18110958385E+02 -0.56606480415E+00 -0.48789903986E+02  0.52045960208E+02  0.00000000000E+00 0.  1.
         14    1    3    3    0    0 -0.46972858254E+02 -0.27778995161E+02 -0.71372158387E+03  0.71580487653E+03  0.00000000000E+00 0. -1.
          1    1    1    2  501    0  0.28861899869E+02  0.28345059965E+02 -0.41083266018E+02  0.57656625250E+02  0.00000000000E+00 0. -1.
<mgrwt>
<rscale>  1 0.90394349E+02</rscale>
<asrwt>0</asrwt>
<pdfrwt beam="1">  1       21 0.16855929E-02 0.90394349E+02</pdfrwt>
<pdfrwt beam="2">  1        2 0.12531556E+00 0.90394349E+02</pdfrwt>
<totfact> 0.68070379E+05</totfact>
</mgrwt>
</event>
<event>
 6    2  0.8544106E+000  0.8646570E+02  0.7546771E-02  0.1311643E+00
         -3   -1    0    0    0  501 -0.00000000000E+00  0.00000000000E+00  0.51334379075E+02  0.51334379075E+02  0.00000000000E+00 0.  1.
         21   -1    0    0  501  502  0.00000000000E+00 -0.00000000000E+00 -0.71026469726E+02  0.71026469726E+02  0.00000000000E+00 0. -1.
         24    2    1    2    0    0 -0.32866854102E+01 -0.33153829727E+02 -0.71458778762E+01  0.86760481085E+02  0.79789340021E+02 0.  0.
        -13    1    3    3    0    0 -0.12165356214E+02  0.24218036272E+02 -0.93348422967E+01  0.28664410920E+02  0.00000000000E+00 0.  1.
         14    1    3    3    0    0  0.88786708039E+01 -0.57371865998E+02  0.21889644205E+01  0.58096070165E+02  0.00000000000E+00 0. -1.
         -4    1    1    2    0  502  0.32866854102E+01  0.33153829727E+02 -0.12546212775E+02  0.35600367716E+02  0.00000000000E+00 0.  1.
<mgrwt>
<rscale>  1 0.86465701E+02</rscale>
<asrwt>0</asrwt>
<pdfrwt beam="1">  1       21 0.10927149E-01 0.86465701E+02</pdfrwt>
<pdfrwt beam="2">  1       -3 0.78975968E-02 0.86465701E+02</pdfrwt>
<totfact> 0.33211897E+05</totfact>
</mgrwt>
</event>
<event>
 6    2  0.8544106E+000  0.8527467E+02  0.7546771E-02  0.1314716E+00
         -3   -1    0    0    0  501 -0.00000000000E+00  0.00000000000E+00  0.99245406395E+02  0.99245406395E+02  0.00000000000E+00 0.  1.
         21   -1    0    0  501  502  0.00000000000E+00 -0.00000000000E+00 -0.32157528555E+02  0.32157528555E+02  0.00000000000E+00 0. -1.
         24    2    1    2    0    0 -0.13531890116E+02  0.24085145214E+02  0.52845468910E+02  0.10032155013E+03  0.80675668987E+02 0.  0.
        -11    1    3    3    0    0 -0.22600487434E+02 -0.13679596023E+00  0.67089940272E+02  0.70794497181E+02  0.00000000000E+00 0.  1.
         12    1    3    3    0    0  0.90685973181E+01  0.24221941175E+02 -0.14244471362E+02  0.29527052951E+02  0.00000000000E+00 0. -1.
         -4    1    1    2    0  502  0.13531890116E+02 -0.24085145214E+02  0.14242408930E+02  0.31081384818E+02  0.00000000000E+00 0.  1.
<mgrwt>
<rscale>  1 0.85274673E+02</rscale>
<asrwt>0</asrwt>
<pdfrwt beam="1">  1       21 0.49473121E-02 0.85274673E+02</pdfrwt>
<pdfrwt beam="2">  1       -3 0.15268524E-01 0.85274673E+02</pdfrwt>
<totfact> 0.42941698E+05</totfact>
</mgrwt>
</event>
<event>
 6    2  0.8544106E+000  0.8584896E+02  0.7546771E-02  0.1313227E+00
         21   -1    0    0  501  502  0.00000000000E+00  0.00000000000E+00  0.22543357193E+03  0.22543357193E+03  0.00000000000E+00 0.  1.
          2   -1    0    0  502    0 -0.00000000000E+00 -0.00000000000E+00 -0.37730078785E+02  0.37730078785E+02  0.00000000000E+00 0. -1.
         24    2    1    2    0    0  0.28841674586E+02  0.13170256414E+02  0.14479058732E+02  0.87061400517E+02  0.79779361187E+02 0.  0.
        -13    1    3    3    0    0  0.38919818922E+02  0.15449670843E+02  0.40996671387E+02  0.58601806277E+02  0.00000000000E+00 0.  1.
         14    1    3    3    0    0 -0.10078144336E+02 -0.22794144293E+01 -0.26517612655E+02  0.28459594241E+02  0.00000000000E+00 0. -1.
          1    1    1    2  501    0 -0.28841674586E+02 -0.13170256414E+02  0.17322443442E+03  0.17610225020E+03  0.00000000000E+00 0. -1.
<mgrwt>
<rscale>  1 0.85848962E+02</rscale>
<asrwt>0</asrwt>
<pdfrwt beam="1">  1       21 0.34682087E-01 0.85848962E+02</pdfrwt>
<pdfrwt beam="2">  1        2 0.58046276E-02 0.85848962E+02</pdfrwt>
<totfact> 0.11973192E+05</totfact>
</mgrwt>
</event>
<event>
 6    2  0.8544106E+000  0.8229097E+02  0.7546771E-02  0.1322673E+00
          2   -1    0    0  502    0 -0.00000000000E+00  0.00000000000E+00  0.13462029163E+04  0.13462029163E+04  0.00000000000E+00 0. -1.
         21   -1    0    0  501  502  0.00000000000E+00 -0.00000000000E+00 -0.17247832461E+02  0.17247832461E+02  0.00000000000E+00 0. -1.
         24    2    1    2    0    0 -0.40273013264E+01 -0.22228924408E+02  0.13369551076E+04  0.13394852608E+04  0.79129387471E+02 0.  0.
        -11    1    3    3    0    0  0.15811913111E+02 -0.39027387695E+02  0.40815023700E+03  0.41031666984E+03  0.00000000000E+00 0.  1.
         12    1    3    3    0    0 -0.19839214437E+02  0.16798463287E+02  0.92880487055E+03  0.92916859093E+03  0.00000000000E+00 0. -1.
          1    1    1    2  501    0  0.40273013264E+01  0.22228924408E+02 -0.80000237001E+01  0.23965488009E+02  0.00000000000E+00 0. -1.
<mgrwt>
<rscale>  1 0.82290973E+02</rscale>
<asrwt>0</asrwt>
<pdfrwt beam="1">  1       21 0.26535137E-02 0.82290973E+02</pdfrwt>
<pdfrwt beam="2">  1        2 0.20710806E+00 0.82290973E+02</pdfrwt>
<totfact> 0.16259036E+05</totfact>
</mgrwt>
</event>
<event>
 6    2  0.8544106E+000  0.8420757E+02  0.7546771E-02  0.1317518E+00
          2   -1    0    0  502    0 -0.00000000000E+00  0.00000000000E+00  0.75547441805E+03  0.75547441805E+03  0.00000000000E+00 0. -1.
         21   -1    0    0  501  502  0.00000000000E+00 -0.00000000000E+00 -0.61480155443E+01  0.61480155443E+01  0.00000000000E+00 0. -1.
         24    2    1    2    0    0  0.27345264368E+02 -0.15628601301E+02  0.68329215561E+03  0.68846138914E+03  0.78095440082E+02 0.  0.
        -13    1    3    3    0    0 -0.16938168757E+02  0.17794161731E+02  0.12302324796E+03  0.12545219525E+03  0.00000000000E+00 0.  1.
         14    1    3    3    0    0  0.44283433126E+02 -0.33422763032E+02  0.56026890765E+03  0.56300919390E+03  0.00000000000E+00 0. -1.
          1    1    1    2  501    0 -0.27345264368E+02  0.15628601301E+02  0.66034246896E+02  0.73161044451E+02  0.00000000000E+00 0. -1.
<mgrwt>
<rscale>  1 0.84207567E+02</rscale>
<asrwt>0</asrwt>
<pdfrwt beam="1">  1       21 0.94584914E-03 0.84207567E+02</pdfrwt>
<pdfrwt beam="2">  1        2 0.11622676E+00 0.84207567E+02</pdfrwt>
<totfact> 0.18388126E+06</totfact>
</mgrwt>
</event>
<event>
 6    2  0.8544106E+000  0.8383666E+02  0.7546771E-02  0.1318503E+00
         21   -1    0    0  501  502  0.00000000000E+00  0.00000000000E+00  0.89105040537E+02  0.89105040537E+02  0.00000000000E+00 0. -1.
          2   -1    0    0  502    0 -0.00000000000E+00 -0.00000000000E+00 -0.58691400111E+02  0.58691400111E+02  0.00000000000E+00 0. -1.
         24    2    1    2    0    0  0.19221685516E+02  0.17513135290E+02 -0.24241193519E+02  0.87270958615E+02  0.79701955136E+02 0.  0.
        -11    1    3    3    0    0 -0.22081454946E+02  0.27516841400E+02  0.50728098784E+01  0.35644082444E+02  0.00000000000E+00 0.  1.
         12    1    3    3    0    0  0.41303140462E+02 -0.10003706111E+02 -0.29314003398E+02  0.51626876171E+02  0.00000000000E+00 0. -1.
          1    1    1    2  501    0 -0.19221685516E+02 -0.17513135290E+02  0.54654833946E+02  0.60525482034E+02  0.00000000000E+00 0. -1.
<mgrwt>
<rscale>  1 0.83836655E+02</rscale>
<asrwt>0</asrwt>
<pdfrwt beam="1">  1       21 0.13708468E-01 0.83836655E+02</pdfrwt>
<pdfrwt beam="2">  1        2 0.90294462E-02 0.83836655E+02</pdfrwt>
<totfact> 0.38209438E+05</totfact>
</mgrwt>
</event>
<event>
 6    2  0.8544106E+000  0.8931680E+02  0.7546771E-02  0.1304515E+00
         -1   -1    0    0    0  501 -0.00000000000E+00  0.00000000000E+00  0.69334816523E+02  0.69334816523E+02  0.00000000000E+00 0.  1.
         21   -1    0    0  501  502  0.00000000000E+00 -0.00000000000E+00 -0.55194083487E+02  0.55194083487E+02  0.00000000000E+00 0.  1.
         24    2    1    2    0    0 -0.57135455466E+01 -0.30222672807E+02  0.23540027999E+02  0.92366790314E+02  0.83853661103E+02 0.  0.
        -13    1    3    3    0    0 -0.40574242321E+01  0.29119128796E+01  0.49803645829E+02  0.50053422120E+02  0.00000000000E+00 0.  1.
         14    1    3    3    0    0 -0.16561213146E+01 -0.33134585686E+02 -0.26263617830E+02  0.42313368194E+02  0.00000000000E+00 0. -1.
         -2    1    1    2    0  502  0.57135455466E+01  0.30222672807E+02 -0.93992949626E+01  0.32162109696E+02  0.00000000000E+00 0.  1.
<mgrwt>
<rscale>  1 0.89316802E+02</rscale>
<asrwt>0</asrwt>
<pdfrwt beam="1">  1       21 0.84913975E-02 0.89316802E+02</pdfrwt>
<pdfrwt beam="2">  1       -1 0.10666895E-01 0.89316802E+02</pdfrwt>
<totfact> 0.49689027E+05</totfact>
</mgrwt>
</event>
<event>
 6    2  0.8544106E+000  0.1091048E+03  0.7546771E-02  0.1262237E+00
         21   -1    0    0  501  502  0.00000000000E+00  0.00000000000E+00  0.89509157807E+02  0.89509157807E+02  0.00000000000E+00 0. -1.
          2   -1    0    0  502    0 -0.00000000000E+00 -0.00000000000E+00 -0.97299899063E+02  0.97299899063E+02  0.00000000000E+00 0. -1.
         24    2    1    2    0    0  0.62874745080E+02  0.38343939166E+02 -0.23262142971E+02  0.11155710998E+03  0.80500746904E+02 0.  0.
        -13    1    3    3    0    0 -0.86140847427E+01  0.25311784850E+01  0.19075177951E+02  0.21082498295E+02  0.00000000000E+00 0.  1.
         14    1    3    3    0    0  0.71488829822E+02  0.35812760681E+02 -0.42337320922E+02  0.90474611686E+02  0.00000000000E+00 0. -1.
          1    1    1    2  501    0 -0.62874745080E+02 -0.38343939166E+02  0.15471401715E+02  0.75251946889E+02  0.00000000000E+00 0. -1.
<mgrwt>
<rscale>  1 0.10910482E+03</rscale>
<asrwt>0</asrwt>
<pdfrwt beam="1">  1       21 0.13770640E-01 0.10910482E+03</pdfrwt>
<pdfrwt beam="2">  1        2 0.14969215E-01 0.10910482E+03</pdfrwt>
<totfact> 0.21156239E+05</totfact>
</mgrwt>
</event>
<event>
 6    2  0.8544106E+000  0.8604049E+02  0.7546771E-02  0.1312734E+00
         21   -1    0    0  501  502  0.00000000000E+00  0.00000000000E+00  0.31827682040E+01  0.31827682040E+01  0.00000000000E+00 0. -1.
          2   -1    0    0  502    0 -0.00000000000E+00 -0.00000000000E+00 -0.13923917422E+04  0.13923917422E+04  0.00000000000E+00 0. -1.
         24    2    1    2    0    0  0.25383738963E+02  0.22956939594E+02 -0.12145534433E+04  0.12175972375E+04  0.78940552149E+02 0.  0.
        -13    1    3    3    0    0  0.98347791665E+01  0.25359664172E+02 -0.12477698272E+03  0.12770720757E+03  0.00000000000E+00 0.  1.
         14    1    3    3    0    0  0.15548959796E+02 -0.24027245780E+01 -0.10897764606E+04  0.10898900299E+04  0.00000000000E+00 0. -1.
          1    1    1    2  501    0 -0.25383738963E+02 -0.22956939594E+02 -0.17465553062E+03  0.17797727287E+03  0.00000000000E+00 0. -1.
<mgrwt>
<rscale>  1 0.86040491E+02</rscale>
<asrwt>0</asrwt>
<pdfrwt beam="1">  1       21 0.48965545E-03 0.86040491E+02</pdfrwt>
<pdfrwt beam="2">  1        2 0.21421464E+00 0.86040491E+02</pdfrwt>
<totfact> 0.21836014E+06</totfact>
</mgrwt>
</event>
<event>
 6    2  0.8544106E+000  0.8806054E+02  0.7546771E-02  0.1307618E+00
         21   -1    0    0  501  502  0.00000000000E+00  0.00000000000E+00  0.16019202780E+03  0.16019202780E+03  0.00000000000E+00 0.  1.
         -1   -1    0    0    0  501 -0.00000000000E+00 -0.00000000000E+00 -0.50052129785E+02  0.50052129785E+02  0.00000000000E+00 0.  1.
         24    2    1    2    0    0  0.36706377293E+02  0.82979672611E+01 -0.58966157353E+01  0.88257736545E+02  0.79614342855E+02 0.  0.
        -11    1    3    3    0    0  0.29635304189E+01 -0.24295550996E+02 -0.27323019940E+02  0.36682471692E+02  0.00000000000E+00 0.  1.
         12    1    3    3    0    0  0.33742846874E+02  0.32593518257E+02  0.21426404205E+02  0.51575264853E+02  0.00000000000E+00 0. -1.
         -2    1    1    2    0  502 -0.36706377293E+02 -0.82979672611E+01  0.11603651375E+03  0.12198642104E+03  0.00000000000E+00 0.  1.
<mgrwt>
<rscale>  1 0.88060536E+02</rscale>
<asrwt>0</asrwt>
<pdfrwt beam="1">  1       21 0.24644927E-01 0.88060536E+02</pdfrwt>
<pdfrwt beam="2">  1       -1 0.77003278E-02 0.88060536E+02</pdfrwt>
<totfact> 0.12108198E+05</totfact>
</mgrwt>
</event>
<event>
 6    2  0.8544106E+000  0.8281868E+02  0.7546771E-02  0.1321238E+00
         21   -1    0    0  501  502  0.00000000000E+00  0.00000000000E+00  0.11044923061E+01  0.11044923061E+01  0.00000000000E+00 0. -1.
          2   -1    0    0  502    0 -0.00000000000E+00 -0.00000000000E+00 -0.25091393049E+04  0.25091393049E+04  0.00000000000E+00 0. -1.
         24    2    1    2    0    0 -0.20417077523E+02 -0.35227052309E+01 -0.21653617849E+04  0.21669449908E+04  0.80185207775E+02 0.  0.
        -13    1    3    3    0    0  0.18905373526E+02  0.13875082918E+02 -0.15060290213E+04  0.15062115868E+04  0.00000000000E+00 0.  1.
         14    1    3    3    0    0 -0.39322451050E+02 -0.17397788149E+02 -0.65933276351E+03  0.66073340405E+03  0.00000000000E+00 0. -1.
          1    1    1    2  501    0  0.20417077523E+02  0.35227052309E+01 -0.34267302769E+03  0.34329880631E+03  0.00000000000E+00 0. -1.
<mgrwt>
<rscale>  1 0.82818682E+02</rscale>
<asrwt>0</asrwt>
<pdfrwt beam="1">  1       21 0.16992100E-03 0.82818682E+02</pdfrwt>
<pdfrwt beam="2">  1        2 0.38602346E+00 0.82818682E+02</pdfrwt>
<totfact> 0.29227727E+06</totfact>
</mgrwt>
</event>
<event>
 6    2  0.8544106E+000  0.8113022E+02  0.7546771E-02  0.1325874E+00
          2   -1    0    0  502    0 -0.00000000000E+00  0.00000000000E+00  0.27692940472E+03  0.27692940472E+03  0.00000000000E+00 0. -1.
         21   -1    0    0  501  502  0.00000000000E+00 -0.00000000000E+00 -0.17399605653E+02  0.17399605653E+02  0.00000000000E+00 0. -1.
         24    2    1    2    0    0 -0.82713945750E+00 -0.23654320486E+02  0.25817406821E+03  0.27062143683E+03  0.77600911971E+02 0.  0.
        -13    1    3    3    0    0 -0.15927426143E+02  0.22384695398E+02  0.14391295524E+03  0.14651176122E+03  0.00000000000E+00 0.  1.
         14    1    3    3    0    0  0.15100286686E+02 -0.46039015884E+02  0.11426111297E+03  0.12410967561E+03  0.00000000000E+00 0. -1.
          1    1    1    2  501    0  0.82713945750E+00  0.23654320486E+02  0.13557308606E+01  0.23707573547E+02  0.00000000000E+00 0. -1.
<mgrwt>
<rscale>  1 0.81130220E+02</rscale>
<asrwt>0</asrwt>
<pdfrwt beam="1">  1       21 0.26768626E-02 0.81130220E+02</pdfrwt>
<pdfrwt beam="2">  1        2 0.42604521E-01 0.81130220E+02</pdfrwt>
<totfact> 0.10428415E+06</totfact>
</mgrwt>
</event>
<event>
 6    2  0.8544106E+000  0.8293693E+02  0.7546771E-02  0.1320918E+00
         21   -1    0    0  501  502  0.00000000000E+00  0.00000000000E+00  0.32812668755E+02  0.32812668755E+02  0.00000000000E+00 0. -1.
          2   -1    0    0  502    0 -0.00000000000E+00 -0.00000000000E+00 -0.30200280543E+03  0.30200280543E+03  0.00000000000E+00 0. -1.
         24    2    1    2    0    0 -0.16600549794E+02 -0.12837870207E+02 -0.29215936068E+03  0.30370318697E+03  0.80238049462E+02 0.  0.
        -11    1    3    3    0    0  0.63516294265E+01 -0.25213139007E+02 -0.27812553395E+02  0.38073398868E+02  0.00000000000E+00 0.  1.
         12    1    3    3    0    0 -0.22952179220E+02  0.12375268800E+02 -0.26434680728E+03  0.26562978810E+03  0.00000000000E+00 0. -1.
          1    1    1    2  501    0  0.16600549794E+02  0.12837870207E+02  0.22969223996E+02  0.31112287217E+02  0.00000000000E+00 0. -1.
<mgrwt>
<rscale>  1 0.82936926E+02</rscale>
<asrwt>0</asrwt>
<pdfrwt beam="1">  1       21 0.50481029E-02 0.82936926E+02</pdfrwt>
<pdfrwt beam="2">  1        2 0.46461970E-01 0.82936926E+02</pdfrwt>
<totfact> 0.33814410E+05</totfact>
</mgrwt>
</event>
<event>
 6    2  0.8544106E+000  0.8415198E+02  0.7546771E-02  0.1317665E+00
         -1   -1    0    0    0  501 -0.00000000000E+00  0.00000000000E+00  0.47323403161E+01  0.47323403161E+01  0.00000000000E+00 0.  1.
         21   -1    0    0  501  502  0.00000000000E+00 -0.00000000000E+00 -0.90500656308E+03  0.90500656308E+03  0.00000000000E+00 0.  1.
         24    2    1    2    0    0  0.24401189491E+02  0.14851414281E+02 -0.40545169673E+03  0.41409254275E+03  0.79155372669E+02 0.  0.
        -13    1    3    3    0    0  0.25204506690E+02  0.36527661560E+02 -0.36911974563E+03  0.37177805722E+03  0.00000000000E+00 0.  1.
         14    1    3    3    0    0 -0.80331719929E+00 -0.21676247279E+02 -0.36331951099E+02  0.42314485526E+02  0.00000000000E+00 0. -1.
         -2    1    1    2    0  502 -0.24401189491E+02 -0.14851414281E+02 -0.49482252604E+03  0.49564636065E+03  0.00000000000E+00 0.  1.
<mgrwt>
<rscale>  1 0.84151979E+02</rscale>
<asrwt>0</asrwt>
<pdfrwt beam="1">  1       21 0.13923181E+00 0.84151979E+02</pdfrwt>
<pdfrwt beam="2">  1       -1 0.72805222E-03 0.84151979E+02</pdfrwt>
<totfact> 0.90882246E+04</totfact>
</mgrwt>
</event>
<event>
 6    2  0.8544106E+000  0.9781450E+02  0.7546771E-02  0.1284960E+00
         -1   -1    0    0    0  501 -0.00000000000E+00  0.00000000000E+00  0.54531002698E+03  0.54531002698E+03  0.00000000000E+00 0.  1.
         21   -1    0    0  501  502  0.00000000000E+00 -0.00000000000E+00 -0.11292961722E+02  0.11292961722E+02  0.00000000000E+00 0.  1.
         24    2    1    2    0    0  0.54800556103E+02  0.93634503534E+01  0.39381382942E+03  0.40577950747E+03  0.80479197860E+02 0.  0.
        -11    1    3    3    0    0  0.74666989316E+02  0.22000440383E+01  0.33668831173E+03  0.34487536697E+03  0.00000000000E+00 0.  1.
         12    1    3    3    0    0 -0.19866433213E+02  0.71634063150E+01  0.57125517697E+02  0.60904140506E+02  0.00000000000E+00 0. -1.
         -2    1    1    2    0  502 -0.54800556103E+02 -0.93634503534E+01  0.14020323584E+03  0.15082348123E+03  0.00000000000E+00 0.  1.
<mgrwt>
<rscale>  1 0.97814500E+02</rscale>
<asrwt>0</asrwt>
<pdfrwt beam="1">  1       21 0.17373791E-02 0.97814500E+02</pdfrwt>
<pdfrwt beam="2">  1       -1 0.83893830E-01 0.97814500E+02</pdfrwt>
<totfact> 0.20460020E+05</totfact>
</mgrwt>
</event>
<event>
 6    2  0.8544106E+000  0.1118022E+03  0.7546771E-02  0.1257269E+00
          2   -1    0    0  502    0 -0.00000000000E+00  0.00000000000E+00  0.52790500146E+03  0.52790500146E+03  0.00000000000E+00 0. -1.
         21   -1    0    0  501  502  0.00000000000E+00 -0.00000000000E+00 -0.20957523554E+02  0.20957523554E+02  0.00000000000E+00 0. -1.
         24    2    1    2    0    0  0.76441378340E+02  0.70421623424E+01  0.41127232250E+03  0.42619789386E+03  0.81282501853E+02 0.  0.
        -13    1    3    3    0    0  0.12106511517E+02 -0.33499853143E+02  0.12150170843E+03  0.12661545298E+03  0.00000000000E+00 0.  1.
         14    1    3    3    0    0  0.64334866822E+02  0.40542015485E+02  0.28977061407E+03  0.29958244088E+03  0.00000000000E+00 0. -1.
          1    1    1    2  501    0 -0.76441378340E+02 -0.70421623424E+01  0.95675155407E+02  0.12266463115E+03  0.00000000000E+00 0. -1.
<mgrwt>
<rscale>  1 0.11180215E+03</rscale>
<asrwt>0</asrwt>
<pdfrwt beam="1">  1       21 0.32242348E-02 0.11180215E+03</pdfrwt>
<pdfrwt beam="2">  1        2 0.81216144E-01 0.11180215E+03</pdfrwt>
<totfact> 0.40020594E+05</totfact>
</mgrwt>
</event>
<event>
 6    2  0.8544106E+000  0.1036584E+03  0.7546771E-02  0.1272786E+00
          2   -1    0    0  502    0 -0.00000000000E+00  0.00000000000E+00  0.15170543484E+03  0.15170543484E+03  0.00000000000E+00 0. -1.
         21   -1    0    0  501  502  0.00000000000E+00 -0.00000000000E+00 -0.50329192140E+02  0.50329192140E+02  0.00000000000E+00 0.  1.
         24    2    1    2    0    0  0.64334421487E+02 -0.94223710928E+01  0.35744116565E+02  0.10964807576E+03  0.80730166504E+02 0.  0.
        -11    1    3    3    0    0  0.36488906501E+02  0.32795434089E+02  0.32745977820E+02  0.58985420725E+02  0.00000000000E+00 0.  1.
         12    1    3    3    0    0  0.27845514987E+02 -0.42217805182E+02  0.29981387443E+01  0.50662655035E+02  0.00000000000E+00 0. -1.
          1    1    1    2  501    0 -0.64334421487E+02  0.94223710928E+01  0.65632126136E+02  0.92386551220E+02  0.00000000000E+00 0. -1.
<mgrwt>
<rscale>  1 0.10365837E+03</rscale>
<asrwt>0</asrwt>
<pdfrwt beam="1">  1       21 0.77429527E-02 0.10365837E+03</pdfrwt>
<pdfrwt beam="2">  1        2 0.23339298E-01 0.10365837E+03</pdfrwt>
<totfact> 0.34823765E+05</totfact>
</mgrwt>
</event>
<event>
 6    2  0.8544106E+000  0.8375569E+02  0.7546771E-02  0.1318719E+00
          2   -1    0    0  502    0 -0.00000000000E+00  0.00000000000E+00  0.28026837055E+04  0.28026837055E+04  0.00000000000E+00 0. -1.
         21   -1    0    0  501  502  0.00000000000E+00 -0.00000000000E+00 -0.25853051797E+01  0.25853051797E+01  0.00000000000E+00 0. -1.
         24    2    1    2    0    0 -0.69310172001E+00  0.22421086313E+02  0.27373591109E+04  0.27386401585E+04  0.80695913098E+02 0.  0.
        -13    1    3    3    0    0  0.15236617033E+02  0.10166775349E+02  0.13881082630E+03  0.14001415399E+03  0.00000000000E+00 0.  1.
         14    1    3    3    0    0 -0.15929718753E+02  0.12254310964E+02  0.25985482846E+04  0.25986260046E+04  0.00000000000E+00 0. -1.
          1    1    1    2  501    0  0.69310172001E+00 -0.22421086313E+02  0.62739289390E+02  0.66628852118E+02  0.00000000000E+00 0. -1.
<mgrwt>
<rscale>  1 0.83755692E+02</rscale>
<asrwt>0</asrwt>
<pdfrwt beam="1">  1       21 0.39774150E-03 0.83755692E+02</pdfrwt>
<pdfrwt beam="2">  1        2 0.43117968E+00 0.83755692E+02</pdfrwt>
<totfact> 0.56647100E+05</totfact>
</mgrwt>
</event>
<event>
 6    2  0.8544106E+000  0.9167102E+02  0.7546771E-02  0.1298855E+00
         21   -1    0    0  501  502  0.00000000000E+00  0.00000000000E+00  0.25023527085E+03  0.25023527085E+03  0.00000000000E+00 0. -1.
          2   -1    0    0  502    0 -0.00000000000E+00 -0.00000000000E+00 -0.30680093251E+03  0.30680093251E+03  0.00000000000E+00 0. -1.
         24    2    1    2    0    0 -0.18065642061E+02 -0.33623852782E+02 -0.29842289930E+03  0.31218552581E+03  0.83346534417E+02 0.  0.
        -11    1    3    3    0    0  0.32676902534E+02 -0.22155734154E+02 -0.13821457047E+03  0.14374256156E+03  0.00000000000E+00 0.  1.
         12    1    3    3    0    0 -0.50742544595E+02 -0.11468118628E+02 -0.16020832883E+03  0.16844296425E+03  0.00000000000E+00 0. -1.
          1    1    1    2  501    0  0.18065642061E+02  0.33623852782E+02  0.24185723764E+03  0.24485067755E+03  0.00000000000E+00 0. -1.
<mgrwt>
<rscale>  1 0.91671019E+02</rscale>
<asrwt>0</asrwt>
<pdfrwt beam="1">  1       21 0.38497734E-01 0.91671019E+02</pdfrwt>
<pdfrwt beam="2">  1        2 0.47200143E-01 0.91671019E+02</pdfrwt>
<totfact> 0.88415228E+03</totfact>
</mgrwt>
</event>
<event>
 6    2  0.8544106E+000  0.1346676E+03  0.7546771E-02  0.1220690E+00
          4   -1    0    0  502    0 -0.00000000000E+00  0.00000000000E+00  0.18292064326E+02  0.18292064326E+02  0.00000000000E+00 0. -1.
         21   -1    0    0  501  502  0.00000000000E+00 -0.00000000000E+00 -0.12938320895E+04  0.12938320895E+04  0.00000000000E+00 0. -1.
         24    2    1    2    0    0  0.24017403803E+02 -0.10135176565E+03 -0.27526949378E+03  0.30644520304E+03  0.85360132212E+02 0.  0.
        -13    1    3    3    0    0 -0.28521166185E+02 -0.12153756009E+02 -0.69565432979E+02  0.76161146074E+02  0.00000000000E+00 0.  1.
         14    1    3    3    0    0  0.52538569988E+02 -0.89198009644E+02 -0.20570406080E+03  0.23028405696E+03  0.00000000000E+00 0. -1.
          3    1    1    2  501    0 -0.24017403803E+02  0.10135176565E+03 -0.10002705314E+04  0.10056789508E+04  0.00000000000E+00 0. -1.
<mgrwt>
<rscale>  1 0.13466762E+03</rscale>
<asrwt>0</asrwt>
<pdfrwt beam="1">  1       21 0.19905119E+00 0.13466762E+03</pdfrwt>
<pdfrwt beam="2">  1        4 0.28141623E-02 0.13466762E+03</pdfrwt>
<totfact> 0.34344274E+03</totfact>
</mgrwt>
</event>
<event>
 6    2  0.8544106E+000  0.9513949E+02  0.7546771E-02  0.1290862E+00
         21   -1    0    0  501  502  0.00000000000E+00  0.00000000000E+00  0.42982368337E+01  0.42982368337E+01  0.00000000000E+00 0. -1.
          2   -1    0    0  502    0 -0.00000000000E+00 -0.00000000000E+00 -0.12661858220E+04  0.12661858220E+04  0.00000000000E+00 0. -1.
         24    2    1    2    0    0 -0.50236527692E+02 -0.25095924901E+01 -0.92184775135E+03  0.92674419302E+03  0.80755902915E+02 0.  0.
        -13    1    3    3    0    0 -0.30403249664E+02  0.36966621966E+02 -0.36100053949E+03  0.36415968783E+03  0.00000000000E+00 0.  1.
         14    1    3    3    0    0 -0.19833278028E+02 -0.39476214456E+02 -0.56084721187E+03  0.56258450519E+03  0.00000000000E+00 0. -1.
          1    1    1    2  501    0  0.50236527692E+02  0.25095924901E+01 -0.34003983386E+03  0.34373986586E+03  0.00000000000E+00 0. -1.
<mgrwt>
<rscale>  1 0.95139490E+02</rscale>
<asrwt>0</asrwt>
<pdfrwt beam="1">  1       21 0.66126619E-03 0.95139490E+02</pdfrwt>
<pdfrwt beam="2">  1        2 0.19479812E+00 0.95139490E+02</pdfrwt>
<totfact> 0.16160698E+06</totfact>
</mgrwt>
</event>
<event>
 6    2  0.8544106E+000  0.9279311E+02  0.7546771E-02  0.1296225E+00
         21   -1    0    0  501  502  0.00000000000E+00  0.00000000000E+00  0.27861044325E+01  0.27861044325E+01  0.00000000000E+00 0. -1.
          2   -1    0    0  502    0 -0.00000000000E+00 -0.00000000000E+00 -0.28879409709E+04  0.28879409709E+04  0.00000000000E+00 0. -1.
         24    2    1    2    0    0  0.80638909576E+00  0.48641687718E+02 -0.25842142828E+04  0.25858797382E+04  0.79018333653E+02 0.  0.
        -11    1    3    3    0    0 -0.31784056546E+02  0.33548077680E+02 -0.82095919380E+03  0.82225889941E+03  0.00000000000E+00 0.  1.
         12    1    3    3    0    0  0.32590445642E+02  0.15093610038E+02 -0.17632550890E+04  0.17636208388E+04  0.00000000000E+00 0. -1.
          1    1    1    2  501    0 -0.80638909576E+00 -0.48641687718E+02 -0.30094058367E+03  0.30484733712E+03  0.00000000000E+00 0. -1.
<mgrwt>
<rscale>  1 0.92793109E+02</rscale>
<asrwt>0</asrwt>
<pdfrwt beam="1">  1       21 0.42863357E-03 0.92793109E+02</pdfrwt>
<pdfrwt beam="2">  1        2 0.44429642E+00 0.92793109E+02</pdfrwt>
<totfact> 0.45397576E+05</totfact>
</mgrwt>
</event>
<event>
 6    2  0.8544106E+000  0.7997685E+02  0.7546771E-02  0.1329117E+00
         21   -1    0    0  501  502  0.00000000000E+00  0.00000000000E+00  0.74766570766E+01  0.74766570766E+01  0.00000000000E+00 0.  1.
          2   -1    0    0  502    0 -0.00000000000E+00 -0.00000000000E+00 -0.69018224820E+03  0.69018224820E+03  0.00000000000E+00 0. -1.
         24    2    1    2    0    0  0.16656777567E+02 -0.13551356774E+02 -0.66509987634E+03  0.66989114155E+03  0.77040304458E+02 0.  0.
        -11    1    3    3    0    0  0.75995512206E+01 -0.35340052177E+02 -0.15162379649E+03  0.15587317963E+03  0.00000000000E+00 0.  1.
         12    1    3    3    0    0  0.90572263461E+01  0.21788695403E+02 -0.51347607985E+03  0.51401796192E+03  0.00000000000E+00 0. -1.
          1    1    1    2  501    0 -0.16656777567E+02  0.13551356774E+02 -0.17605714784E+02  0.27767763727E+02  0.00000000000E+00 0. -1.
<mgrwt>
<rscale>  1 0.79976847E+02</rscale>
<asrwt>0</asrwt>
<pdfrwt beam="1">  1       21 0.11502554E-02 0.79976847E+02</pdfrwt>
<pdfrwt beam="2">  1        2 0.10618184E+00 0.79976847E+02</pdfrwt>
<totfact> 0.14982226E+06</totfact>
</mgrwt>
</event>
<event>
 6    2  0.8544106E+000  0.8145977E+02  0.7546771E-02  0.1324959E+00
         21   -1    0    0  501  502  0.00000000000E+00  0.00000000000E+00  0.19292224186E+01  0.19292224186E+01  0.00000000000E+00 0.  1.
          2   -1    0    0  502    0 -0.00000000000E+00 -0.00000000000E+00 -0.14679552063E+04  0.14679552063E+04  0.00000000000E+00 0. -1.
         24    2    1    2    0    0 -0.65970212168E+01  0.23925286914E+02 -0.11561489164E+04  0.11590151041E+04  0.77587077391E+02 0.  0.
        -11    1    3    3    0    0  0.69969244612E+01  0.43529116822E+02 -0.38816076303E+03  0.39065652294E+03  0.00000000000E+00 0.  1.
         12    1    3    3    0    0 -0.13593945678E+02 -0.19603829908E+02 -0.76798815342E+03  0.76835858119E+03  0.00000000000E+00 0. -1.
          1    1    1    2  501    0  0.65970212168E+01 -0.23925286914E+02 -0.30987706746E+03  0.31086932460E+03  0.00000000000E+00 0. -1.
<mgrwt>
<rscale>  1 0.81459773E+02</rscale>
<asrwt>0</asrwt>
<pdfrwt beam="1">  1       21 0.29680304E-03 0.81459773E+02</pdfrwt>
<pdfrwt beam="2">  1        2 0.22583957E+00 0.81459773E+02</pdfrwt>
<totfact> 0.42500354E+06</totfact>
</mgrwt>
</event>
<event>
 6    2  0.8544106E+000  0.9189610E+02  0.7546771E-02  0.1298324E+00
          2   -1    0    0  502    0 -0.00000000000E+00  0.00000000000E+00  0.11846930250E+04  0.11846930250E+04  0.00000000000E+00 0. -1.
         21   -1    0    0  501  502  0.00000000000E+00 -0.00000000000E+00 -0.41809003548E+01  0.41809003548E+01  0.00000000000E+00 0.  1.
         24    2    1    2    0    0  0.20723291902E+02  0.40795850344E+02  0.66220824574E+03  0.66855415145E+03  0.79694017696E+02 0.  0.
        -13    1    3    3    0    0 -0.30330803120E+02  0.94219667953E+01  0.20826770791E+03  0.21067550696E+03  0.00000000000E+00 0.  1.
         14    1    3    3    0    0  0.51054095022E+02  0.31373883549E+02  0.45394053784E+03  0.45787864449E+03  0.00000000000E+00 0. -1.
          1    1    1    2  501    0 -0.20723291902E+02 -0.40795850344E+02  0.51830387886E+03  0.52031977387E+03  0.00000000000E+00 0. -1.
<mgrwt>
<rscale>  1 0.91896097E+02</rscale>
<asrwt>0</asrwt>
<pdfrwt beam="1">  1       21 0.64321638E-03 0.91896097E+02</pdfrwt>
<pdfrwt beam="2">  1        2 0.18226020E+00 0.91896097E+02</pdfrwt>
<totfact> 0.18612230E+06</totfact>
</mgrwt>
</event>
<event>
 6    2  0.8544106E+000  0.9105381E+02  0.7546771E-02  0.1300320E+00
          2   -1    0    0  502    0 -0.00000000000E+00  0.00000000000E+00  0.12147876263E+02  0.12147876263E+02  0.00000000000E+00 0. -1.
         21   -1    0    0  501  502  0.00000000000E+00 -0.00000000000E+00 -0.40341555639E+03  0.40341555639E+03  0.00000000000E+00 0. -1.
         24    2    1    2    0    0 -0.26849732797E+02 -0.32689538474E+02 -0.20118911769E+03  0.22083445696E+03  0.80630529124E+02 0.  0.
        -11    1    3    3    0    0 -0.14068595061E+02  0.19595629695E+02 -0.12645396645E+03  0.12873429886E+03  0.00000000000E+00 0.  1.
         12    1    3    3    0    0 -0.12781137736E+02 -0.52285168169E+02 -0.74735151235E+02  0.92100158102E+02  0.00000000000E+00 0. -1.
          1    1    1    2  501    0  0.26849732797E+02  0.32689538474E+02 -0.19007856244E+03  0.19472897569E+03  0.00000000000E+00 0. -1.
<mgrwt>
<rscale>  1 0.91053810E+02</rscale>
<asrwt>0</asrwt>
<pdfrwt beam="1">  1       21 0.62063934E-01 0.91053810E+02</pdfrwt>
<pdfrwt beam="2">  1        2 0.18689040E-02 0.91053810E+02</pdfrwt>
<totfact> 0.16507014E+05</totfact>
</mgrwt>
</event>
<event>
 6    2  0.8544106E+000  0.9561348E+02  0.7546771E-02  0.1289800E+00
         21   -1    0    0  501  502  0.00000000000E+00  0.00000000000E+00  0.81194270647E+02  0.81194270647E+02  0.00000000000E+00 0.  1.
         -3   -1    0    0    0  501 -0.00000000000E+00 -0.00000000000E+00 -0.81041738949E+02  0.81041738949E+02  0.00000000000E+00 0.  1.
         24    2    1    2    0    0  0.35518886861E+02  0.29913501281E+02 -0.37245794015E+02  0.10261182282E+03  0.83579471927E+02 0.  0.
        -11    1    3    3    0    0  0.58909459024E+02  0.15043526239E+02 -0.42787107780E+02  0.74346275202E+02  0.00000000000E+00 0.  1.
         12    1    3    3    0    0 -0.23390572162E+02  0.14869975042E+02  0.55413137651E+01  0.28265547617E+02  0.00000000000E+00 0. -1.
         -4    1    1    2    0  502 -0.35518886861E+02 -0.29913501281E+02  0.37398325713E+02  0.59624186778E+02  0.00000000000E+00 0.  1.
<mgrwt>
<rscale>  1 0.95613477E+02</rscale>
<asrwt>0</asrwt>
<pdfrwt beam="1">  1       21 0.12491426E-01 0.95613477E+02</pdfrwt>
<pdfrwt beam="2">  1       -3 0.12467960E-01 0.95613477E+02</pdfrwt>
<totfact> 0.12633607E+05</totfact>
</mgrwt>
</event>
<event>
 6    2  0.8544106E+000  0.8631244E+02  0.7546771E-02  0.1312036E+00
         21   -1    0    0  501  502  0.00000000000E+00  0.00000000000E+00  0.99734893857E+01  0.99734893857E+01  0.00000000000E+00 0. -1.
         -3   -1    0    0    0  501 -0.00000000000E+00 -0.00000000000E+00 -0.40683060881E+03  0.40683060881E+03  0.00000000000E+00 0.  1.
         24    2    1    2    0    0 -0.32551497068E+02 -0.33074031228E+01 -0.20903889553E+03  0.22615724115E+03  0.79870513964E+02 0.  0.
        -13    1    3    3    0    0  0.70845836896E+01  0.29216547543E+02 -0.11700129592E+03  0.12080190902E+03  0.00000000000E+00 0.  1.
         14    1    3    3    0    0 -0.39636080758E+02 -0.32523950666E+02 -0.92037599616E+02  0.10535533213E+03  0.00000000000E+00 0. -1.
         -4    1    1    2    0  502  0.32551497068E+02  0.33074031228E+01 -0.18781822389E+03  0.19064685705E+03  0.00000000000E+00 0.  1.
<mgrwt>
<rscale>  1 0.86312443E+02</rscale>
<asrwt>0</asrwt>
<pdfrwt beam="1">  1       21 0.15343827E-02 0.86312443E+02</pdfrwt>
<pdfrwt beam="2">  1       -3 0.62589337E-01 0.86312443E+02</pdfrwt>
<totfact> 0.21082173E+05</totfact>
</mgrwt>
</event>
<event>
 6    2  0.8544106E+000  0.9925109E+02  0.7546771E-02  0.1281879E+00
          4   -1    0    0  502    0 -0.00000000000E+00  0.00000000000E+00  0.96150152476E+02  0.96150152476E+02  0.00000000000E+00 0. -1.
         21   -1    0    0  501  502  0.00000000000E+00 -0.00000000000E+00 -0.67838166194E+02  0.67838166194E+02  0.00000000000E+00 0.  1.
         24    2    1    2    0    0  0.10784079607E+02  0.55471347461E+02  0.38704368934E+02  0.10653078323E+03  0.81592970519E+02 0.  0.
        -11    1    3    3    0    0  0.45340568846E+02  0.24909432301E+02  0.11571088740E+02  0.53010726230E+02  0.00000000000E+00 0.  1.
         12    1    3    3    0    0 -0.34556489239E+02  0.30561915159E+02  0.27133280194E+02  0.53520056996E+02  0.00000000000E+00 0. -1.
          3    1    1    2  501    0 -0.10784079607E+02 -0.55471347461E+02 -0.10392382652E+02  0.57457535444E+02  0.00000000000E+00 0. -1.
<mgrwt>
<rscale>  1 0.99251094E+02</rscale>
<asrwt>0</asrwt>
<pdfrwt beam="1">  1       21 0.10436641E-01 0.99251094E+02</pdfrwt>
<pdfrwt beam="2">  1        4 0.14792331E-01 0.99251094E+02</pdfrwt>
<totfact> 0.11155488E+05</totfact>
</mgrwt>
</event>
<event>
 6    2  0.8544106E+000  0.8506261E+02  0.7546771E-02  0.1315269E+00
         21   -1    0    0  501  502  0.00000000000E+00  0.00000000000E+00  0.31637449782E+01  0.31637449782E+01  0.00000000000E+00 0. -1.
          2   -1    0    0  502    0 -0.00000000000E+00 -0.00000000000E+00 -0.10719505365E+04  0.10719505365E+04  0.00000000000E+00 0. -1.
         24    2    1    2    0    0  0.87845994865E+01 -0.27697371554E+02 -0.69194000210E+03  0.69714891762E+03  0.79945814482E+02 0.  0.
        -13    1    3    3    0    0  0.44073825411E+02 -0.85541624282E+01 -0.37267552782E+03  0.37537011710E+03  0.00000000000E+00 0.  1.
         14    1    3    3    0    0 -0.35289225925E+02 -0.19143209126E+02 -0.31926447428E+03  0.32177880052E+03  0.00000000000E+00 0. -1.
          1    1    1    2  501    0 -0.87845994865E+01  0.27697371554E+02 -0.37684678944E+03  0.37796536387E+03  0.00000000000E+00 0. -1.
<mgrwt>
<rscale>  1 0.85062605E+02</rscale>
<asrwt>0</asrwt>
<pdfrwt beam="1">  1       21 0.48673035E-03 0.85062605E+02</pdfrwt>
<pdfrwt beam="2">  1        2 0.16491535E+00 0.85062605E+02</pdfrwt>
<totfact> 0.32744555E+06</totfact>
</mgrwt>
</event>
<event>
 6    2  0.8544106E+000  0.8429775E+02  0.7546771E-02  0.1317279E+00
         21   -1    0    0  501  502  0.00000000000E+00  0.00000000000E+00  0.32419153904E+02  0.32419153904E+02  0.00000000000E+00 0. -1.
          2   -1    0    0  502    0 -0.00000000000E+00 -0.00000000000E+00 -0.11651939160E+04  0.11651939160E+04  0.00000000000E+00 0. -1.
         24    2    1    2    0    0 -0.13788923264E+02  0.18260155124E+02 -0.11594261853E+04  0.11624866406E+04  0.81132870425E+02 0.  0.
        -11    1    3    3    0    0  0.26835230456E+02 -0.15893042525E+02 -0.44570948964E+03  0.44679935939E+03  0.00000000000E+00 0.  1.
         12    1    3    3    0    0 -0.40624153720E+02  0.34153197649E+02 -0.71371669570E+03  0.71568728122E+03  0.00000000000E+00 0. -1.
          1    1    1    2  501    0  0.13788923264E+02 -0.18260155124E+02  0.26651423280E+02  0.35126429263E+02  0.00000000000E+00 0. -1.
<mgrwt>
<rscale>  1 0.84297748E+02</rscale>
<asrwt>0</asrwt>
<pdfrwt beam="1">  1       21 0.49875613E-02 0.84297748E+02</pdfrwt>
<pdfrwt beam="2">  1        2 0.17926063E+00 0.84297748E+02</pdfrwt>
<totfact> 0.72324355E+04</totfact>
</mgrwt>
</event>
<event>
 6    2  0.8544106E+000  0.8325871E+02  0.7546771E-02  0.1320050E+00
          2   -1    0    0  502    0 -0.00000000000E+00  0.00000000000E+00  0.32760241784E+04  0.32760241784E+04  0.00000000000E+00 0. -1.
         21   -1    0    0  501  502  0.00000000000E+00 -0.00000000000E+00 -0.14050301959E+02  0.14050301959E+02  0.00000000000E+00 0. -1.
         24    2    1    2    0    0  0.90617484413E+01 -0.21516510152E+02  0.32654142479E+04  0.32664755048E+04  0.79918316364E+02 0.  0.
        -11    1    3    3    0    0  0.20404157023E+02 -0.52004610459E+01  0.22199312995E+03  0.22298951582E+03  0.00000000000E+00 0.  1.
         12    1    3    3    0    0 -0.11342408582E+02 -0.16316049106E+02  0.30434211180E+04  0.30434859890E+04  0.00000000000E+00 0. -1.
          1    1    1    2  501    0 -0.90617484413E+01  0.21516510152E+02 -0.34403714549E+01  0.23598975606E+02  0.00000000000E+00 0. -1.
<mgrwt>
<rscale>  1 0.83258710E+02</rscale>
<asrwt>0</asrwt>
<pdfrwt beam="1">  1       21 0.21615875E-02 0.83258710E+02</pdfrwt>
<pdfrwt beam="2">  1        2 0.50400311E+00 0.83258710E+02</pdfrwt>
<totfact> 0.21721491E+04</totfact>
</mgrwt>
</event>
<event>
 6    2  0.8544106E+000  0.7664699E+02  0.7546771E-02  0.1338845E+00
         21   -1    0    0  501  502  0.00000000000E+00  0.00000000000E+00  0.16813772215E+01  0.16813772215E+01  0.00000000000E+00 0.  1.
          2   -1    0    0  502    0 -0.00000000000E+00 -0.00000000000E+00 -0.15296101703E+04  0.15296101703E+04  0.00000000000E+00 0. -1.
         24    2    1    2    0    0  0.21987571020E+02 -0.60297929941E+01 -0.12892274850E+04  0.12915038786E+04  0.73177515036E+02 0.  0.
        -13    1    3    3    0    0  0.44768225261E+02 -0.15031040984E+02 -0.10410514417E+04  0.10421219844E+04  0.00000000000E+00 0.  1.
         14    1    3    3    0    0 -0.22780654242E+02  0.90012479896E+01 -0.24817604334E+03  0.24938189421E+03  0.00000000000E+00 0. -1.
          1    1    1    2  501    0 -0.21987571020E+02  0.60297929941E+01 -0.23870130812E+03  0.23978766895E+03  0.00000000000E+00 0. -1.
<mgrwt>
<rscale>  1 0.76646986E+02</rscale>
<asrwt>0</asrwt>
<pdfrwt beam="1">  1       21 0.25867146E-03 0.76646986E+02</pdfrwt>
<pdfrwt beam="2">  1        2 0.23532642E+00 0.76646986E+02</pdfrwt>
<totfact> 0.48332789E+06</totfact>
</mgrwt>
</event>
<event>
 6    2  0.8544106E+000  0.1857070E+03  0.7546771E-02  0.1162391E+00
         21   -1    0    0  501  502  0.00000000000E+00  0.00000000000E+00  0.30842749741E+02  0.30842749741E+02  0.00000000000E+00 0. -1.
          2   -1    0    0  502    0 -0.00000000000E+00 -0.00000000000E+00 -0.10704918569E+04  0.10704918569E+04  0.00000000000E+00 0. -1.
         24    2    1    2    0    0 -0.12513229617E+03 -0.11126753518E+03 -0.67494776882E+03  0.70002970745E+03  0.80302831454E+02 0.  0.
        -11    1    3    3    0    0  0.63337698676E+01 -0.10906339153E+02 -0.12803849387E+03  0.12865815476E+03  0.00000000000E+00 0.  1.
         12    1    3    3    0    0 -0.13146606604E+03 -0.10036119602E+03 -0.54690927496E+03  0.57137155269E+03  0.00000000000E+00 0. -1.
          1    1    1    2  501    0  0.12513229617E+03  0.11126753518E+03 -0.36470133829E+03  0.40130489915E+03  0.00000000000E+00 0. -1.
<mgrwt>
<rscale>  1 0.18570703E+03</rscale>
<asrwt>0</asrwt>
<pdfrwt beam="1">  1       21 0.47450384E-02 0.18570703E+03</pdfrwt>
<pdfrwt beam="2">  1        2 0.16469106E+00 0.18570703E+03</pdfrwt>
<totfact> 0.89100298E+04</totfact>
</mgrwt>
</event>
<event>
 6    2  0.8544106E+000  0.1178356E+03  0.7546771E-02  0.1246711E+00
          2   -1    0    0  502    0 -0.00000000000E+00  0.00000000000E+00  0.26317792056E+04  0.26317792056E+04  0.00000000000E+00 0. -1.
         21   -1    0    0  501  502  0.00000000000E+00 -0.00000000000E+00 -0.43822535710E+01  0.43822535710E+01  0.00000000000E+00 0. -1.
         24    2    1    2    0    0 -0.77553260210E+02 -0.37323416712E+02  0.19078329841E+04  0.19114685245E+04  0.80484031783E+02 0.  0.
        -11    1    3    3    0    0 -0.99510638245E+01 -0.26923390671E+02  0.17931313358E+03  0.18159595951E+03  0.00000000000E+00 0.  1.
         12    1    3    3    0    0 -0.67602196385E+02 -0.10400026041E+02  0.17285198505E+04  0.17298725650E+04  0.00000000000E+00 0. -1.
          1    1    1    2  501    0  0.77553260210E+02  0.37323416712E+02  0.71956396791E+03  0.72469293464E+03  0.00000000000E+00 0. -1.
<mgrwt>
<rscale>  1 0.11783558E+03</rscale>
<asrwt>0</asrwt>
<pdfrwt beam="1">  1       21 0.67419496E-03 0.11783558E+03</pdfrwt>
<pdfrwt beam="2">  1        2 0.40488785E+00 0.11783558E+03</pdfrwt>
<totfact> 0.31243188E+05</totfact>
</mgrwt>
</event>
<event>
 6    2  0.8544106E+000  0.8601263E+02  0.7546771E-02  0.1312805E+00
         21   -1    0    0  501  502  0.00000000000E+00  0.00000000000E+00  0.47319518872E+02  0.47319518872E+02  0.00000000000E+00 0. -1.
          2   -1    0    0  502    0 -0.00000000000E+00 -0.00000000000E+00 -0.11662352676E+03  0.11662352676E+03  0.00000000000E+00 0. -1.
         24    2    1    2    0    0 -0.20611703176E+02  0.20451155701E+02 -0.92844473073E+02  0.12656329739E+03  0.80963448481E+02 0.  0.
        -13    1    3    3    0    0  0.19072836284E+02 -0.19824945526E+02 -0.18465126168E+02  0.33132498146E+02  0.00000000000E+00 0.  1.
         14    1    3    3    0    0 -0.39684539460E+02  0.40276101228E+02 -0.74379346905E+02  0.93430799248E+02  0.00000000000E+00 0. -1.
          1    1    1    2  501    0  0.20611703176E+02 -0.20451155701E+02  0.23540465183E+02  0.37379748238E+02  0.00000000000E+00 0. -1.
<mgrwt>
<rscale>  1 0.86012627E+02</rscale>
<asrwt>0</asrwt>
<pdfrwt beam="1">  1       21 0.72799261E-02 0.86012627E+02</pdfrwt>
<pdfrwt beam="2">  1        2 0.17942081E-01 0.86012627E+02</pdfrwt>
<totfact> 0.51055607E+05</totfact>
</mgrwt>
</event>
<event>
 6    2  0.8544106E+000  0.8836311E+02  0.7546771E-02  0.1306865E+00
         21   -1    0    0  501  502  0.00000000000E+00  0.00000000000E+00  0.58604147639E+02  0.58604147639E+02  0.00000000000E+00 0. -1.
          2   -1    0    0  502    0 -0.00000000000E+00 -0.00000000000E+00 -0.21363535815E+03  0.21363535815E+03  0.00000000000E+00 0. -1.
         24    2    1    2    0    0  0.33583147347E+02 -0.25330356526E+01 -0.19848316463E+03  0.21726390782E+03  0.81693298036E+02 0.  0.
        -13    1    3    3    0    0 -0.18711604259E+02 -0.45863216166E+01 -0.10112496537E+02  0.21758241338E+02  0.00000000000E+00 0.  1.
         14    1    3    3    0    0  0.52294751606E+02  0.20532859640E+01 -0.18837066809E+03  0.19550566648E+03  0.00000000000E+00 0. -1.
          1    1    1    2  501    0 -0.33583147347E+02  0.25330356526E+01  0.43451954119E+02  0.54975597970E+02  0.00000000000E+00 0. -1.
<mgrwt>
<rscale>  1 0.88363109E+02</rscale>
<asrwt>0</asrwt>
<pdfrwt beam="1">  1       21 0.90160227E-02 0.88363109E+02</pdfrwt>
<pdfrwt beam="2">  1        2 0.32866978E-01 0.88363109E+02</pdfrwt>
<totfact> 0.18332346E+05</totfact>
</mgrwt>
</event>
<event>
 6    2  0.8544106E+000  0.1069674E+03  0.7546771E-02  0.1266291E+00
         21   -1    0    0  501  502  0.00000000000E+00  0.00000000000E+00  0.95455700267E+01  0.95455700267E+01  0.00000000000E+00 0. -1.
          2   -1    0    0  502    0 -0.00000000000E+00 -0.00000000000E+00 -0.87317425697E+03  0.87317425697E+03  0.00000000000E+00 0. -1.
         24    2    1    2    0    0 -0.52315121204E+02 -0.45939234374E+02 -0.62708874686E+03  0.63614645371E+03  0.81207936572E+02 0.  0.
        -11    1    3    3    0    0  0.87344495770E+01  0.12132489532E+02 -0.34529867189E+02  0.37627113094E+02  0.00000000000E+00 0.  1.
         12    1    3    3    0    0 -0.61049570781E+02 -0.58071723906E+02 -0.59255887967E+03  0.59851934061E+03  0.00000000000E+00 0. -1.
          1    1    1    2  501    0  0.52315121204E+02  0.45939234374E+02 -0.23653994008E+03  0.24657337329E+03  0.00000000000E+00 0. -1.
<mgrwt>
<rscale>  1 0.10696735E+03</rscale>
<asrwt>0</asrwt>
<pdfrwt beam="1">  1       21 0.14685486E-02 0.10696735E+03</pdfrwt>
<pdfrwt beam="2">  1        2 0.13433456E+00 0.10696735E+03</pdfrwt>
<totfact> 0.78630550E+05</totfact>
</mgrwt>
</event>
<event>
 6    2  0.8544106E+000  0.1085206E+03  0.7546771E-02  0.1263334E+00
          2   -1    0    0  502    0 -0.00000000000E+00  0.00000000000E+00  0.23695507369E+04  0.23695507369E+04  0.00000000000E+00 0. -1.
         21   -1    0    0  501  502  0.00000000000E+00 -0.00000000000E+00 -0.31599733222E+01  0.31599733222E+01  0.00000000000E+00 0. -1.
         24    2    1    2    0    0  0.12554989244E+02  0.62069244303E+02  0.16255425086E+04  0.16291608761E+04  0.88127715694E+02 0.  0.
        -13    1    3    3    0    0 -0.45532045749E+01 -0.11559896218E+02  0.41600330138E+02  0.43416014788E+02  0.00000000000E+00 0.  1.
         14    1    3    3    0    0  0.17108193819E+02  0.73629140522E+02  0.15839421784E+04  0.15857448613E+04  0.00000000000E+00 0. -1.
          1    1    1    2  501    0 -0.12554989244E+02 -0.62069244303E+02  0.74084825503E+03  0.74354983413E+03  0.00000000000E+00 0. -1.
<mgrwt>
<rscale>  1 0.10852057E+03</rscale>
<asrwt>0</asrwt>
<pdfrwt beam="1">  1       21 0.48615164E-03 0.10852057E+03</pdfrwt>
<pdfrwt beam="2">  1        2 0.36454485E+00 0.10852057E+03</pdfrwt>
<totfact> 0.71272802E+05</totfact>
</mgrwt>
</event>
<event>
 6    2  0.8544106E+000  0.9455502E+02  0.7546771E-02  0.1292181E+00
         21   -1    0    0  501  502  0.00000000000E+00  0.00000000000E+00  0.30337268911E+02  0.30337268911E+02  0.00000000000E+00 0. -1.
          2   -1    0    0  502    0 -0.00000000000E+00 -0.00000000000E+00 -0.25209192650E+03  0.25209192650E+03  0.00000000000E+00 0. -1.
         24    2    1    2    0    0 -0.32164163626E+02  0.38702404022E+02 -0.21064581056E+03  0.23089458586E+03  0.80051500774E+02 0.  0.
        -13    1    3    3    0    0  0.74423624000E+01  0.30340133622E+02 -0.22641441585E+02  0.38581696999E+02  0.00000000000E+00 0.  1.
         14    1    3    3    0    0 -0.39606526026E+02  0.83622704004E+01 -0.18800436897E+03  0.19231288887E+03  0.00000000000E+00 0. -1.
          1    1    1    2  501    0  0.32164163626E+02 -0.38702404022E+02 -0.11108847031E+02  0.51534609547E+02  0.00000000000E+00 0. -1.
<mgrwt>
<rscale>  1 0.94555022E+02</rscale>
<asrwt>0</asrwt>
<pdfrwt beam="1">  1       21 0.46672723E-02 0.94555022E+02</pdfrwt>
<pdfrwt beam="2">  1        2 0.38783372E-01 0.94555022E+02</pdfrwt>
<totfact> 0.47020563E+05</totfact>
</mgrwt>
</event>
<event>
 6    2  0.8544106E+000  0.8505893E+02  0.7546771E-02  0.1315278E+00
          2   -1    0    0  502    0 -0.00000000000E+00  0.00000000000E+00  0.25257671050E+04  0.25257671050E+04  0.00000000000E+00 0. -1.
         21   -1    0    0  501  502  0.00000000000E+00 -0.00000000000E+00 -0.15899348787E+01  0.15899348787E+01  0.00000000000E+00 0.  1.
         24    2    1    2    0    0  0.17919081586E+02 -0.31625951387E+02  0.20615619395E+04  0.20633159362E+04  0.76900766973E+02 0.  0.
        -11    1    3    3    0    0  0.21151640026E+02 -0.55752544550E+02  0.13033793878E+04  0.13047427204E+04  0.00000000000E+00 0.  1.
         12    1    3    3    0    0 -0.32325584397E+01  0.24126593163E+02  0.75818255176E+03  0.75857321580E+03  0.00000000000E+00 0. -1.
          1    1    1    2  501    0 -0.17919081586E+02  0.31625951387E+02  0.46261523064E+03  0.46404110368E+03  0.00000000000E+00 0. -1.
<mgrwt>
<rscale>  1 0.85058934E+02</rscale>
<asrwt>0</asrwt>
<pdfrwt beam="1">  1       21 0.24460739E-03 0.85058934E+02</pdfrwt>
<pdfrwt beam="2">  1        2 0.38857634E+00 0.85058934E+02</pdfrwt>
<totfact> 0.16631821E+06</totfact>
</mgrwt>
</event>
<event>
 6    2  0.8544106E+000  0.8913616E+02  0.7546771E-02  0.1304957E+00
          2   -1    0    0  502    0 -0.00000000000E+00  0.00000000000E+00  0.38637996337E+04  0.38637996337E+04  0.00000000000E+00 0. -1.
         21   -1    0    0  501  502  0.00000000000E+00 -0.00000000000E+00 -0.27416984641E+01  0.27416984641E+01  0.00000000000E+00 0. -1.
         24    2    1    2    0    0 -0.11653078542E+02 -0.34092097485E+02  0.37162443213E+04  0.37173131574E+04  0.81530298258E+02 0.  0.
        -11    1    3    3    0    0 -0.11058595282E+02 -0.25809219289E+02  0.37187919242E+03  0.37293771878E+03  0.00000000000E+00 0.  1.
         12    1    3    3    0    0 -0.59448325992E+00 -0.82828781955E+01  0.33443651288E+04  0.33443754386E+04  0.00000000000E+00 0. -1.
          1    1    1    2  501    0  0.11653078542E+02  0.34092097485E+02  0.14481361396E+03  0.14922817474E+03  0.00000000000E+00 0. -1.
<mgrwt>
<rscale>  1 0.89136159E+02</rscale>
<asrwt>0</asrwt>
<pdfrwt beam="1">  1       21 0.42180286E-03 0.89136159E+02</pdfrwt>
<pdfrwt beam="2">  1        2 0.59442635E+00 0.89136159E+02</pdfrwt>
<totfact> 0.11484871E+05</totfact>
</mgrwt>
</event>
<event>
 6    2  0.8544106E+000  0.8578146E+02  0.7546771E-02  0.1313402E+00
         -3   -1    0    0    0  501 -0.00000000000E+00  0.00000000000E+00  0.17003606348E+02  0.17003606348E+02  0.00000000000E+00 0.  1.
         21   -1    0    0  501  502  0.00000000000E+00 -0.00000000000E+00 -0.21096171925E+03  0.21096171925E+03  0.00000000000E+00 0. -1.
         24    2    1    2    0    0  0.22241767534E+02 -0.24006206744E+02 -0.12459021285E+03  0.15126526208E+03  0.79293531830E+02 0.  0.
        -13    1    3    3    0    0 -0.12858648696E+02  0.13282588188E+02 -0.22301786958E+01  0.18621108782E+02  0.00000000000E+00 0.  1.
         14    1    3    3    0    0  0.35100416230E+02 -0.37288794932E+02 -0.12236003415E+03  0.13264415330E+03  0.00000000000E+00 0. -1.
         -4    1    1    2    0  502 -0.22241767534E+02  0.24006206744E+02 -0.69367900050E+02  0.76700063512E+02  0.00000000000E+00 0.  1.
<mgrwt>
<rscale>  1 0.85781457E+02</rscale>
<asrwt>0</asrwt>
<pdfrwt beam="1">  1       21 0.32455647E-01 0.85781457E+02</pdfrwt>
<pdfrwt beam="2">  1       -3 0.26159396E-02 0.85781457E+02</pdfrwt>
<totfact> 0.25559927E+05</totfact>
</mgrwt>
</event>
<event>
 6    2  0.8544106E+000  0.8744952E+02  0.7546771E-02  0.1309148E+00
         21   -1    0    0  501  502  0.00000000000E+00  0.00000000000E+00  0.15707068142E+02  0.15707068142E+02  0.00000000000E+00 0.  1.
          2   -1    0    0  502    0 -0.00000000000E+00 -0.00000000000E+00 -0.76140234460E+03  0.76140234460E+03  0.00000000000E+00 0. -1.
         24    2    1    2    0    0 -0.30505512137E+02  0.22317091255E+02 -0.11109396937E+03  0.14138348297E+03  0.78859244177E+02 0.  0.
        -11    1    3    3    0    0 -0.18788206458E+02 -0.65493700851E+00  0.73346349569E+01  0.20179755061E+02  0.00000000000E+00 0.  1.
         12    1    3    3    0    0 -0.11717305679E+02  0.22972028263E+02 -0.11842860433E+03  0.12120372790E+03  0.00000000000E+00 0. -1.
          1    1    1    2  501    0  0.30505512137E+02 -0.22317091255E+02 -0.63460130709E+03  0.63572592978E+03  0.00000000000E+00 0. -1.
<mgrwt>
<rscale>  1 0.87449524E+02</rscale>
<asrwt>0</asrwt>
<pdfrwt beam="1">  1       21 0.24164724E-02 0.87449524E+02</pdfrwt>
<pdfrwt beam="2">  1        2 0.11713881E+00 0.87449524E+02</pdfrwt>
<totfact> 0.41421803E+05</totfact>
</mgrwt>
</event>
<event>
 6    2  0.8544106E+000  0.8360096E+02  0.7546771E-02  0.1319132E+00
         -3   -1    0    0    0  501 -0.00000000000E+00  0.00000000000E+00  0.12712311617E+03  0.12712311617E+03  0.00000000000E+00 0.  1.
         21   -1    0    0  501  502  0.00000000000E+00 -0.00000000000E+00 -0.38293529461E+02  0.38293529461E+02  0.00000000000E+00 0.  1.
         24    2    1    2    0    0 -0.44384286196E+01 -0.26202843374E+02  0.10506978974E+03  0.13427129536E+03  0.79264313485E+02 0.  0.
        -11    1    3    3    0    0 -0.20667173833E+02 -0.36176772229E+02  0.18423138853E+02  0.45555493284E+02  0.00000000000E+00 0.  1.
         12    1    3    3    0    0  0.16228745214E+02  0.99739288557E+01  0.86646650887E+02  0.88715802076E+02  0.00000000000E+00 0. -1.
         -4    1    1    2    0  502  0.44384286196E+01  0.26202843374E+02 -0.16240203026E+02  0.31145350276E+02  0.00000000000E+00 0.  1.
<mgrwt>
<rscale>  1 0.83600957E+02</rscale>
<asrwt>0</asrwt>
<pdfrwt beam="1">  1       21 0.58913123E-02 0.83600957E+02</pdfrwt>
<pdfrwt beam="2">  1       -3 0.19557402E-01 0.83600957E+02</pdfrwt>
<totfact> 0.20920506E+05</totfact>
</mgrwt>
</event>
<event>
 6    2  0.8544106E+000  0.7822261E+02  0.7546771E-02  0.1334172E+00
         21   -1    0    0  501  502  0.00000000000E+00  0.00000000000E+00  0.39412818025E+02  0.39412818025E+02  0.00000000000E+00 0.  1.
          2   -1    0    0  502    0 -0.00000000000E+00 -0.00000000000E+00 -0.69104213899E+02  0.69104213899E+02  0.00000000000E+00 0. -1.
         24    2    1    2    0    0  0.20832845103E+02 -0.59408525894E+01 -0.35775569196E+02  0.86015513540E+02  0.75162996572E+02 0.  0.
        -11    1    3    3    0    0  0.33562350976E+02 -0.23425820476E+02  0.36040491864E+01  0.41087584969E+02  0.00000000000E+00 0.  1.
         12    1    3    3    0    0 -0.12729505873E+02  0.17484967887E+02 -0.39379618382E+02  0.44927928571E+02  0.00000000000E+00 0. -1.
          1    1    1    2  501    0 -0.20832845103E+02  0.59408525894E+01  0.60841733221E+01  0.22501518384E+02  0.00000000000E+00 0. -1.
<mgrwt>
<rscale>  1 0.78222613E+02</rscale>
<asrwt>0</asrwt>
<pdfrwt beam="1">  1       21 0.60635105E-02 0.78222613E+02</pdfrwt>
<pdfrwt beam="2">  1        2 0.10631417E-01 0.78222613E+02</pdfrwt>
<totfact> 0.12644334E+06</totfact>
</mgrwt>
</event>
<event>
 6    2  0.8544106E+000  0.8891114E+02  0.7546771E-02  0.1305510E+00
         -3   -1    0    0    0  501 -0.00000000000E+00  0.00000000000E+00  0.73817877399E+03  0.73817877399E+03  0.00000000000E+00 0.  1.
         21   -1    0    0  501  502  0.00000000000E+00 -0.00000000000E+00 -0.72244907300E+01  0.72244907300E+01  0.00000000000E+00 0. -1.
         24    2    1    2    0    0  0.92657425964E+01  0.37688005272E+02  0.64492464911E+03  0.65102457179E+03  0.79993439215E+02 0.  0.
        -13    1    3    3    0    0 -0.44174006186E+01  0.89498421847E+01  0.56366702339E+03  0.56375537812E+03  0.00000000000E+00 0.  1.
         14    1    3    3    0    0  0.13683143215E+02  0.28738163087E+02  0.81257625715E+02  0.87269193664E+02  0.00000000000E+00 0. -1.
         -4    1    1    2    0  502 -0.92657425964E+01 -0.37688005272E+02  0.86029634153E+02  0.94378692934E+02  0.00000000000E+00 0.  1.
<mgrwt>
<rscale>  1 0.88911136E+02</rscale>
<asrwt>0</asrwt>
<pdfrwt beam="1">  1       21 0.11114607E-02 0.88911136E+02</pdfrwt>
<pdfrwt beam="2">  1       -3 0.11356591E+00 0.88911136E+02</pdfrwt>
<totfact> 0.96381057E+04</totfact>
</mgrwt>
</event>
<event>
 6    2  0.8544106E+000  0.9387581E+02  0.7546771E-02  0.1293728E+00
          2   -1    0    0  502    0 -0.00000000000E+00  0.00000000000E+00  0.90917447885E+03  0.90917447885E+03  0.00000000000E+00 0. -1.
         21   -1    0    0  501  502  0.00000000000E+00 -0.00000000000E+00 -0.54695026046E+01  0.54695026046E+01  0.00000000000E+00 0. -1.
         24    2    1    2    0    0  0.46733030002E+02 -0.43687202893E+01  0.57777953245E+03  0.58535617919E+03  0.81299486973E+02 0.  0.
        -13    1    3    3    0    0 -0.15485334733E+02  0.76691019869E+01  0.36549320182E+02  0.40428498895E+02  0.00000000000E+00 0.  1.
         14    1    3    3    0    0  0.62218364736E+02 -0.12037822276E+02  0.54123021227E+03  0.54492768029E+03  0.00000000000E+00 0. -1.
          1    1    1    2  501    0 -0.46733030002E+02  0.43687202893E+01  0.32592544379E+03  0.32928780227E+03  0.00000000000E+00 0. -1.
<mgrwt>
<rscale>  1 0.93875814E+02</rscale>
<asrwt>0</asrwt>
<pdfrwt beam="1">  1       21 0.84146266E-03 0.93875814E+02</pdfrwt>
<pdfrwt beam="2">  1        2 0.13987288E+00 0.93875814E+02</pdfrwt>
<totfact> 0.17728546E+06</totfact>
</mgrwt>
</event>
<event>
 6    2  0.8544106E+000  0.1146141E+03  0.7546771E-02  0.1252256E+00
          2   -1    0    0  502    0 -0.00000000000E+00  0.00000000000E+00  0.10657313970E+04  0.10657313970E+04  0.00000000000E+00 0. -1.
         21   -1    0    0  501  502  0.00000000000E+00 -0.00000000000E+00 -0.93931041269E+01  0.93931041269E+01  0.00000000000E+00 0. -1.
         24    2    1    2    0    0 -0.31213296684E+02 -0.75961130054E+02  0.70937724339E+03  0.71857670205E+03  0.79950235275E+02 0.  0.
        -11    1    3    3    0    0  0.44276872768E+01 -0.46874671576E+01  0.20374273308E+01  0.67622387641E+01  0.00000000000E+00 0.  1.
         12    1    3    3    0    0 -0.35640983961E+02 -0.71273662896E+02  0.70733981606E+03  0.71181446329E+03  0.00000000000E+00 0. -1.
          1    1    1    2  501    0  0.31213296684E+02  0.75961130054E+02  0.34696104952E+03  0.35654779911E+03  0.00000000000E+00 0. -1.
<mgrwt>
<rscale>  1 0.11461415E+03</rscale>
<asrwt>0</asrwt>
<pdfrwt beam="1">  1       21 0.14450938E-02 0.11461415E+03</pdfrwt>
<pdfrwt beam="2">  1        2 0.16395858E+00 0.11461415E+03</pdfrwt>
<totfact> 0.62031780E+05</totfact>
</mgrwt>
</event>
<event>
 6    2  0.8544106E+000  0.9434572E+02  0.7546771E-02  0.1292657E+00
         -3   -1    0    0    0  501 -0.00000000000E+00  0.00000000000E+00  0.52499235070E+02  0.52499235070E+02  0.00000000000E+00 0.  1.
         21   -1    0    0  501  502  0.00000000000E+00 -0.00000000000E+00 -0.10303602188E+03  0.10303602188E+03  0.00000000000E+00 0.  1.
         24    2    1    2    0    0 -0.83686731262E+01 -0.37014175110E+02 -0.25809985452E+01  0.94381013622E+02  0.86377255860E+02 0.  0.
        -13    1    3    3    0    0 -0.34636486051E+01 -0.31660823441E+02  0.40030637902E+02  0.51155220393E+02  0.00000000000E+00 0.  1.
         14    1    3    3    0    0 -0.49050245211E+01 -0.53533516694E+01 -0.42611636447E+02  0.43225793230E+02  0.00000000000E+00 0. -1.
         -4    1    1    2    0  502  0.83686731262E+01  0.37014175110E+02 -0.47955788267E+02  0.61154243331E+02  0.00000000000E+00 0.  1.
<mgrwt>
<rscale>  1 0.94345716E+02</rscale>
<asrwt>0</asrwt>
<pdfrwt beam="1">  1       21 0.15851696E-01 0.94345716E+02</pdfrwt>
<pdfrwt beam="2">  1       -3 0.80768053E-02 0.94345716E+02</pdfrwt>
<totfact> 0.16822031E+05</totfact>
</mgrwt>
</event>
<event>
 6    2  0.8544106E+000  0.1095481E+03  0.7546771E-02  0.1261409E+00
         -1   -1    0    0    0  501 -0.00000000000E+00  0.00000000000E+00  0.25864329744E+03  0.25864329744E+03  0.00000000000E+00 0.  1.
         21   -1    0    0  501  502  0.00000000000E+00 -0.00000000000E+00 -0.33322693850E+02  0.33322693850E+02  0.00000000000E+00 0.  1.
         24    2    1    2    0    0  0.73334537054E+02 -0.76294629470E+01  0.11117845891E+03  0.15608151012E+03  0.81022373744E+02 0.  0.
        -13    1    3    3    0    0  0.39911723615E+02 -0.43823251788E+02  0.71142801262E+02  0.92599790770E+02  0.00000000000E+00 0.  1.
         14    1    3    3    0    0  0.33422813439E+02  0.36193788841E+02  0.40035657647E+02  0.63481719354E+02  0.00000000000E+00 0. -1.
         -2    1    1    2    0  502 -0.73334537054E+02  0.76294629470E+01  0.11414214468E+03  0.13588448117E+03  0.00000000000E+00 0.  1.
<mgrwt>
<rscale>  1 0.10954811E+03</rscale>
<asrwt>0</asrwt>
<pdfrwt beam="1">  1       21 0.51265685E-02 0.10954811E+03</pdfrwt>
<pdfrwt beam="2">  1       -1 0.39791275E-01 0.10954811E+03</pdfrwt>
<totfact> 0.14336418E+05</totfact>
</mgrwt>
</event>
<event>
 6    2  0.8544106E+000  0.1133059E+03  0.7546771E-02  0.1254568E+00
         21   -1    0    0  501  502  0.00000000000E+00  0.00000000000E+00  0.64876107321E+03  0.64876107321E+03  0.00000000000E+00 0.  1.
          4   -1    0    0  502    0 -0.00000000000E+00 -0.00000000000E+00 -0.31266982257E+02  0.31266982257E+02  0.00000000000E+00 0. -1.
         24    2    1    2    0    0 -0.62246950302E+02 -0.49850299925E+02  0.58167055092E+03  0.59260345227E+03  0.80489046488E+02 0.  0.
        -11    1    3    3    0    0 -0.63098754306E+02 -0.35536181730E+02  0.56862475560E+03  0.57321757273E+03  0.00000000000E+00 0.  1.
         12    1    3    3    0    0  0.85180400430E+00 -0.14314118195E+02  0.13045795320E+02  0.19385879534E+02  0.00000000000E+00 0. -1.
          3    1    1    2  501    0  0.62246950302E+02  0.49850299925E+02  0.35823540034E+02  0.87424603202E+02  0.00000000000E+00 0. -1.
<mgrwt>
<rscale>  1 0.11330588E+03</rscale>
<asrwt>0</asrwt>
<pdfrwt beam="1">  1       21 0.99809386E-01 0.11330588E+03</pdfrwt>
<pdfrwt beam="2">  1        4 0.48103055E-02 0.11330588E+03</pdfrwt>
<totfact> 0.85905906E+03</totfact>
</mgrwt>
</event>
<event>
 6    2  0.8544106E+000  0.8356766E+02  0.7546771E-02  0.1319221E+00
          2   -1    0    0  502    0 -0.00000000000E+00  0.00000000000E+00  0.11759453372E+04  0.11759453372E+04  0.00000000000E+00 0. -1.
         21   -1    0    0  501  502  0.00000000000E+00 -0.00000000000E+00 -0.41473232476E+01  0.41473232476E+01  0.00000000000E+00 0. -1.
         24    2    1    2    0    0  0.14684611021E+02  0.15314571636E+02  0.11312186637E+04  0.11343012030E+04  0.80829327518E+02 0.  0.
        -11    1    3    3    0    0 -0.24485168517E+02  0.15908984280E+02  0.18661888507E+03  0.18888945848E+03  0.00000000000E+00 0.  1.
         12    1    3    3    0    0  0.39169779538E+02 -0.59441264355E+00  0.94459977860E+03  0.94541174453E+03  0.00000000000E+00 0. -1.
          1    1    1    2  501    0 -0.14684611021E+02 -0.15314571636E+02  0.40579350227E+02  0.45791457392E+02  0.00000000000E+00 0. -1.
<mgrwt>
<rscale>  1 0.83567662E+02</rscale>
<asrwt>0</asrwt>
<pdfrwt beam="1">  1       21 0.63805067E-03 0.83567662E+02</pdfrwt>
<pdfrwt beam="2">  1        2 0.18091440E+00 0.83567662E+02</pdfrwt>
<totfact> 0.18892238E+06</totfact>
</mgrwt>
</event>
<event>
 6    2  0.8544106E+000  0.8349047E+02  0.7546771E-02  0.1319428E+00
         21   -1    0    0  501  502  0.00000000000E+00  0.00000000000E+00  0.57301955477E+01  0.57301955477E+01  0.00000000000E+00 0. -1.
          2   -1    0    0  502    0 -0.00000000000E+00 -0.00000000000E+00 -0.56023602310E+03  0.56023602310E+03  0.00000000000E+00 0. -1.
         24    2    1    2    0    0 -0.10047592719E+02 -0.23297116185E+02 -0.48131591182E+03  0.48850349531E+03  0.79542115997E+02 0.  0.
        -13    1    3    3    0    0 -0.30879683165E+02  0.18882633518E+02 -0.22826113886E+03  0.23111308096E+03  0.00000000000E+00 0.  1.
         14    1    3    3    0    0  0.20832090446E+02 -0.42179749703E+02 -0.25305477296E+03  0.25739041435E+03  0.00000000000E+00 0. -1.
          1    1    1    2  501    0  0.10047592719E+02  0.23297116185E+02 -0.73189915735E+02  0.77462723340E+02  0.00000000000E+00 0. -1.
<mgrwt>
<rscale>  1 0.83490466E+02</rscale>
<asrwt>0</asrwt>
<pdfrwt beam="1">  1       21 0.88156832E-03 0.83490466E+02</pdfrwt>
<pdfrwt beam="2">  1        2 0.86190180E-01 0.83490466E+02</pdfrwt>
<totfact> 0.28822628E+06</totfact>
</mgrwt>
</event>
<event>
 6    2  0.8544106E+000  0.8639742E+02  0.7546771E-02  0.1311818E+00
         21   -1    0    0  501  502  0.00000000000E+00  0.00000000000E+00  0.60974087472E+02  0.60974087472E+02  0.00000000000E+00 0.  1.
         -3   -1    0    0    0  501 -0.00000000000E+00 -0.00000000000E+00 -0.90256231613E+02  0.90256231613E+02  0.00000000000E+00 0.  1.
         24    2    1    2    0    0 -0.21141575596E+02 -0.10739600209E+01 -0.66084884152E+02  0.10877373796E+03  0.83763921511E+02 0.  0.
        -11    1    3    3    0    0 -0.35361212129E+02 -0.17877476049E+02 -0.75159067324E+02  0.84964138753E+02  0.00000000000E+00 0.  1.
         12    1    3    3    0    0  0.14219636532E+02  0.16803516028E+02  0.90741831717E+01  0.23809599204E+02  0.00000000000E+00 0. -1.
         -4    1    1    2    0  502  0.21141575596E+02  0.10739600209E+01  0.36802740010E+02  0.42456581128E+02  0.00000000000E+00 0.  1.
<mgrwt>
<rscale>  1 0.86397420E+02</rscale>
<asrwt>0</asrwt>
<pdfrwt beam="1">  1       21 0.93806289E-02 0.86397420E+02</pdfrwt>
<pdfrwt beam="2">  1       -3 0.13885574E-01 0.86397420E+02</pdfrwt>
<totfact> 0.17126838E+05</totfact>
</mgrwt>
</event>
<event>
 6    2  0.8544106E+000  0.8795477E+02  0.7546771E-02  0.1307881E+00
          2   -1    0    0  502    0 -0.00000000000E+00  0.00000000000E+00  0.13561154975E+04  0.13561154975E+04  0.00000000000E+00 0. -1.
         21   -1    0    0  501  502  0.00000000000E+00 -0.00000000000E+00 -0.49813497317E+01  0.49813497317E+01  0.00000000000E+00 0. -1.
         24    2    1    2    0    0 -0.58415281186E+01  0.40182789566E+02  0.12338810902E+04  0.12370119588E+04  0.78020903865E+02 0.  0.
        -13    1    3    3    0    0 -0.21033389921E+02 -0.17656996424E+02  0.31993035201E+03  0.32110684071E+03  0.00000000000E+00 0.  1.
         14    1    3    3    0    0  0.15191861802E+02  0.57839785991E+02  0.91395073814E+03  0.91590511805E+03  0.00000000000E+00 0. -1.
          1    1    1    2  501    0  0.58415281186E+01 -0.40182789566E+02  0.11725305763E+03  0.12408488849E+03  0.00000000000E+00 0. -1.
<mgrwt>
<rscale>  1 0.87954769E+02</rscale>
<asrwt>0</asrwt>
<pdfrwt beam="1">  1       21 0.76636258E-03 0.87954769E+02</pdfrwt>
<pdfrwt beam="2">  1        2 0.20863286E+00 0.87954769E+02</pdfrwt>
<totfact> 0.11462581E+06</totfact>
</mgrwt>
</event>
<event>
 6    2  0.8544106E+000  0.8507433E+02  0.7546771E-02  0.1315238E+00
         21   -1    0    0  501  502  0.00000000000E+00  0.00000000000E+00  0.11831786493E+03  0.11831786493E+03  0.00000000000E+00 0. -1.
          4   -1    0    0  502    0 -0.00000000000E+00 -0.00000000000E+00 -0.51791392441E+02  0.51791392441E+02  0.00000000000E+00 0. -1.
         24    2    1    2    0    0 -0.39851525334E+01  0.23726466457E+02 -0.13863370219E+02  0.86196484435E+02  0.81601557852E+02 0.  0.
        -11    1    3    3    0    0  0.77706784177E+01 -0.14549402124E+02  0.25290560871E+02  0.30194055945E+02  0.00000000000E+00 0.  1.
         12    1    3    3    0    0 -0.11755830951E+02  0.38275868581E+02 -0.39153931090E+02  0.56002428490E+02  0.00000000000E+00 0. -1.
          3    1    1    2  501    0  0.39851525334E+01 -0.23726466457E+02  0.80389842705E+02  0.83912772933E+02  0.00000000000E+00 0. -1.
<mgrwt>
<rscale>  1 0.85074326E+02</rscale>
<asrwt>0</asrwt>
<pdfrwt beam="1">  1       21 0.18202748E-01 0.85074326E+02</pdfrwt>
<pdfrwt beam="2">  1        4 0.79679066E-02 0.85074326E+02</pdfrwt>
<totfact> 0.11479096E+05</totfact>
</mgrwt>
</event>
<event>
 6    2  0.8544106E+000  0.1031266E+03  0.7546771E-02  0.1273855E+00
         21   -1    0    0  501  502  0.00000000000E+00  0.00000000000E+00  0.12493426430E+03  0.12493426430E+03  0.00000000000E+00 0.  1.
          2   -1    0    0  502    0 -0.00000000000E+00 -0.00000000000E+00 -0.56462687687E+02  0.56462687687E+02  0.00000000000E+00 0. -1.
         24    2    1    2    0    0 -0.52122290908E+02 -0.35415612044E+02  0.29337994746E+02  0.10721854532E+03  0.81633937422E+02 0.  0.
        -13    1    3    3    0    0 -0.11276719079E+02  0.17945034626E+02  0.33773988769E+02  0.39873186207E+02  0.00000000000E+00 0.  1.
         14    1    3    3    0    0 -0.40845571829E+02 -0.53360646670E+02 -0.44359940238E+01  0.67345359113E+02  0.00000000000E+00 0. -1.
          1    1    1    2  501    0  0.52122290908E+02  0.35415612044E+02  0.39133581871E+02  0.74178406670E+02  0.00000000000E+00 0. -1.
<mgrwt>
<rscale>  1 0.10312661E+03</rscale>
<asrwt>0</asrwt>
<pdfrwt beam="1">  1       21 0.19220656E-01 0.10312661E+03</pdfrwt>
<pdfrwt beam="2">  1        2 0.86865673E-02 0.10312661E+03</pdfrwt>
<totfact> 0.22176705E+05</totfact>
</mgrwt>
</event>
<event>
 6    2  0.9898287E+000  0.8593311E+02  0.7546771E-02  0.1313010E+00
         -1   -1    0    0    0  501 -0.00000000000E+00  0.00000000000E+00  0.49465171165E+03  0.49465171165E+03  0.00000000000E+00 0.  1.
         21   -1    0    0  501  502  0.00000000000E+00 -0.00000000000E+00 -0.73081261215E+01  0.73081261215E+01  0.00000000000E+00 0. -1.
         24    2    1    2    0    0  0.26122970799E+02 -0.12053168480E+02  0.28787572736E+03  0.30042791743E+03  0.80974135963E+02 0.  0.
        -11    1    3    3    0    0  0.68907542658E+01  0.83251022396E+00  0.27260870959E+03  0.27269705556E+03  0.00000000000E+00 0.  1.
         12    1    3    3    0    0  0.19232216534E+02 -0.12885678704E+02  0.15267017771E+02  0.27730861871E+02  0.00000000000E+00 0. -1.
         -2    1    1    2    0  502 -0.26122970799E+02  0.12053168480E+02  0.19946785817E+03  0.20153192035E+03  0.00000000000E+00 0.  1.
<mgrwt>
<rscale>  1 0.85933109E+02</rscale>
<asrwt>0</asrwt>
<pdfrwt beam="1">  1       21 0.11243275E-02 0.85933109E+02</pdfrwt>
<pdfrwt beam="2">  1       -1 0.76100237E-01 0.85933109E+02</pdfrwt>
<totfact> 0.49011033E+05</totfact>
</mgrwt>
</event>
<event>
 6    2  0.8544106E+000  0.8748510E+02  0.7546771E-02  0.1309059E+00
         21   -1    0    0  501  502  0.00000000000E+00  0.00000000000E+00  0.49369653660E+01  0.49369653660E+01  0.00000000000E+00 0. -1.
          2   -1    0    0  502    0 -0.00000000000E+00 -0.00000000000E+00 -0.84779411295E+03  0.84779411295E+03  0.00000000000E+00 0. -1.
         24    2    1    2    0    0  0.37751707555E+02 -0.76944291730E+01 -0.48712183710E+03  0.49491547386E+03  0.78544550590E+02 0.  0.
        -13    1    3    3    0    0  0.30100974121E+02 -0.34783976036E+02 -0.41424392815E+03  0.41679014581E+03  0.00000000000E+00 0.  1.
         14    1    3    3    0    0  0.76507334344E+01  0.27089546863E+02 -0.72877908950E+02  0.78125328058E+02  0.00000000000E+00 0. -1.
          1    1    1    2  501    0 -0.37751707555E+02  0.76944291730E+01 -0.35573531048E+03  0.35781560445E+03  0.00000000000E+00 0. -1.
<mgrwt>
<rscale>  1 0.87485096E+02</rscale>
<asrwt>0</asrwt>
<pdfrwt beam="1">  1       21 0.75953321E-03 0.87485096E+02</pdfrwt>
<pdfrwt beam="2">  1        2 0.13042985E+00 0.87485096E+02</pdfrwt>
<totfact> 0.22554372E+06</totfact>
</mgrwt>
</event>
<event>
 6    2  0.8544106E+000  0.8199532E+02  0.7546771E-02  0.1323483E+00
         21   -1    0    0  501  502  0.00000000000E+00  0.00000000000E+00  0.11104460703E+01  0.11104460703E+01  0.00000000000E+00 0.  1.
          2   -1    0    0  502    0 -0.00000000000E+00 -0.00000000000E+00 -0.25672948148E+04  0.25672948148E+04  0.00000000000E+00 0. -1.
         24    2    1    2    0    0  0.17514231766E+02  0.12450423918E+02 -0.17264964970E+04  0.17284424740E+04  0.79129453801E+02 0.  0.
        -13    1    3    3    0    0  0.29198533799E+01  0.43079526248E+02 -0.66275931125E+03  0.66416434395E+03  0.00000000000E+00 0.  1.
         14    1    3    3    0    0  0.14594378386E+02 -0.30629102330E+02 -0.10637371857E+04  0.10642781300E+04  0.00000000000E+00 0. -1.
          1    1    1    2  501    0 -0.17514231766E+02 -0.12450423918E+02 -0.83968787176E+03  0.83996278688E+03  0.00000000000E+00 0. -1.
<mgrwt>
<rscale>  1 0.81995316E+02</rscale>
<asrwt>0</asrwt>
<pdfrwt beam="1">  1       21 0.17083932E-03 0.81995316E+02</pdfrwt>
<pdfrwt beam="2">  1        2 0.39496505E+00 0.81995316E+02</pdfrwt>
<totfact> 0.27009245E+06</totfact>
</mgrwt>
</event>
<event>
 6    2  0.8544106E+000  0.8843406E+02  0.7546771E-02  0.1306689E+00
          2   -1    0    0  502    0 -0.00000000000E+00  0.00000000000E+00  0.13102289556E+04  0.13102289556E+04  0.00000000000E+00 0. -1.
         21   -1    0    0  501  502  0.00000000000E+00 -0.00000000000E+00 -0.34248188131E+01  0.34248188131E+01  0.00000000000E+00 0. -1.
         24    2    1    2    0    0  0.29934239504E+02  0.21850268783E+02  0.11004828380E+04  0.11040303710E+04  0.80293775193E+02 0.  0.
        -13    1    3    3    0    0  0.39110072793E+02 -0.20927447495E+02  0.50663490553E+03  0.50857298724E+03  0.00000000000E+00 0.  1.
         14    1    3    3    0    0 -0.91758332892E+01  0.42777716278E+02  0.59384793252E+03  0.59545738377E+03  0.00000000000E+00 0. -1.
          1    1    1    2  501    0 -0.29934239504E+02 -0.21850268783E+02  0.20632129870E+03  0.20962340336E+03  0.00000000000E+00 0. -1.
<mgrwt>
<rscale>  1 0.88434062E+02</rscale>
<asrwt>0</asrwt>
<pdfrwt beam="1">  1       21 0.52689625E-03 0.88434062E+02</pdfrwt>
<pdfrwt beam="2">  1        2 0.20157328E+00 0.88434062E+02</pdfrwt>
<totfact> 0.21595251E+06</totfact>
</mgrwt>
</event>
<event>
 6    2  0.8544106E+000  0.8095251E+02  0.7546771E-02  0.1326370E+00
         21   -1    0    0  501  502  0.00000000000E+00  0.00000000000E+00  0.18517077718E+03  0.18517077718E+03  0.00000000000E+00 0. -1.
         -3   -1    0    0    0  501 -0.00000000000E+00 -0.00000000000E+00 -0.14075119933E+02  0.14075119933E+02  0.00000000000E+00 0.  1.
         24    2    1    2    0    0 -0.18866135214E+02  0.84698409246E+01  0.12809732271E+03  0.15153294252E+03  0.78266463568E+02 0.  0.
        -13    1    3    3    0    0  0.20526551684E+02  0.20124076907E+02  0.17743798963E+02  0.33781062699E+02  0.00000000000E+00 0.  1.
         14    1    3    3    0    0 -0.39392686898E+02 -0.11654235983E+02  0.11035352375E+03  0.11775187982E+03  0.00000000000E+00 0. -1.
         -4    1    1    2    0  502  0.18866135214E+02 -0.84698409246E+01  0.42998334531E+02  0.47712954589E+02  0.00000000000E+00 0.  1.
<mgrwt>
<rscale>  1 0.80952508E+02</rscale>
<asrwt>0</asrwt>
<pdfrwt beam="1">  1       21 0.28487810E-01 0.80952508E+02</pdfrwt>
<pdfrwt beam="2">  1       -3 0.21654032E-02 0.80952508E+02</pdfrwt>
<totfact> 0.43248567E+05</totfact>
</mgrwt>
</event>
<event>
 6    2  0.8544106E+000  0.8338153E+02  0.7546771E-02  0.1319720E+00
         21   -1    0    0  501  502  0.00000000000E+00  0.00000000000E+00  0.37786471438E+01  0.37786471438E+01  0.00000000000E+00 0.  1.
          2   -1    0    0  502    0 -0.00000000000E+00 -0.00000000000E+00 -0.85634650446E+03  0.85634650446E+03  0.00000000000E+00 0. -1.
         24    2    1    2    0    0  0.14123490955E+01 -0.20108863391E+02 -0.49370980389E+03  0.50070135770E+03  0.80908083815E+02 0.  0.
        -11    1    3    3    0    0 -0.33249307040E+02 -0.46561606855E+01 -0.10723827762E+03  0.11237101245E+03  0.00000000000E+00 0.  1.
         12    1    3    3    0    0  0.34661656136E+02 -0.15452702706E+02 -0.38647152627E+03  0.38833034525E+03  0.00000000000E+00 0. -1.
          1    1    1    2  501    0 -0.14123490955E+01  0.20108863391E+02 -0.35885805342E+03  0.35942379390E+03  0.00000000000E+00 0. -1.
<mgrwt>
<rscale>  1 0.83381528E+02</rscale>
<asrwt>0</asrwt>
<pdfrwt beam="1">  1       21 0.58133049E-03 0.83381528E+02</pdfrwt>
<pdfrwt beam="2">  1        2 0.13174558E+00 0.83381528E+02</pdfrwt>
<totfact> 0.33463387E+06</totfact>
</mgrwt>
</event>
<event>
 6    2  0.8544106E+000  0.8855733E+02  0.7546771E-02  0.1306383E+00
         -1   -1    0    0    0  501 -0.00000000000E+00  0.00000000000E+00  0.10696671550E+03  0.10696671550E+03  0.00000000000E+00 0.  1.
         21   -1    0    0  501  502  0.00000000000E+00 -0.00000000000E+00 -0.54063002999E+02  0.54063002999E+02  0.00000000000E+00 0. -1.
         24    2    1    2    0    0  0.37289910908E+02 -0.91517394636E+00  0.76388479295E+02  0.11695127399E+03  0.80318277626E+02 0.  0.
        -11    1    3    3    0    0  0.50960848580E+02  0.36362052506E+01  0.85715939411E+02  0.99787034958E+02  0.00000000000E+00 0.  1.
         12    1    3    3    0    0 -0.13670937672E+02 -0.45513791970E+01 -0.93274601166E+01  0.17164239035E+02  0.00000000000E+00 0. -1.
         -2    1    1    2    0  502 -0.37289910908E+02  0.91517394636E+00 -0.23484766792E+02  0.44078444507E+02  0.00000000000E+00 0.  1.
<mgrwt>
<rscale>  1 0.88557330E+02</rscale>
<asrwt>0</asrwt>
<pdfrwt beam="1">  1       21 0.83173851E-02 0.88557330E+02</pdfrwt>
<pdfrwt beam="2">  1       -1 0.16456418E-01 0.88557330E+02</pdfrwt>
<totfact> 0.26425157E+05</totfact>
</mgrwt>
</event>
<event>
 6    2  0.8544106E+000  0.1105741E+03  0.7546771E-02  0.1259510E+00
          2   -1    0    0  502    0 -0.00000000000E+00  0.00000000000E+00  0.84179213979E+03  0.84179213979E+03  0.00000000000E+00 0. -1.
         21   -1    0    0  501  502  0.00000000000E+00 -0.00000000000E+00 -0.78595536432E+02  0.78595536432E+02  0.00000000000E+00 0. -1.
         24    2    1    2    0    0  0.15134848940E+02 -0.74219200027E+02  0.81892058761E+03  0.82635196106E+03  0.80554834874E+02 0.  0.
        -11    1    3    3    0    0 -0.31328476735E+02 -0.13494177638E+02  0.25066591119E+03  0.25297621492E+03  0.00000000000E+00 0.  1.
         12    1    3    3    0    0  0.46463325675E+02 -0.60725022389E+02  0.56825467643E+03  0.57337574614E+03  0.00000000000E+00 0. -1.
          1    1    1    2  501    0 -0.15134848940E+02  0.74219200027E+02 -0.55723984256E+02  0.94035715164E+02  0.00000000000E+00 0. -1.
<mgrwt>
<rscale>  1 0.11057411E+03</rscale>
<asrwt>0</asrwt>
<pdfrwt beam="1">  1       21 0.12091622E-01 0.11057411E+03</pdfrwt>
<pdfrwt beam="2">  1        2 0.12950648E+00 0.11057411E+03</pdfrwt>
<totfact> 0.24667358E+04</totfact>
</mgrwt>
</event>
<event>
 6    2  0.8544106E+000  0.8768961E+02  0.7546771E-02  0.1308545E+00
          4   -1    0    0  502    0 -0.00000000000E+00  0.00000000000E+00  0.65249743074E+02  0.65249743074E+02  0.00000000000E+00 0. -1.
         21   -1    0    0  501  502  0.00000000000E+00 -0.00000000000E+00 -0.60654380127E+02  0.60654380127E+02  0.00000000000E+00 0.  1.
         24    2    1    2    0    0 -0.26593345711E+02 -0.21534734045E+02  0.17342020113E+02  0.89387988748E+02  0.80737327577E+02 0.  0.
        -13    1    3    3    0    0 -0.48420830001E+02 -0.18220549700E+02  0.33846148517E+02  0.61823353022E+02  0.00000000000E+00 0.  1.
         14    1    3    3    0    0  0.21827484290E+02 -0.33141843455E+01 -0.16504128405E+02  0.27564635726E+02  0.00000000000E+00 0. -1.
          3    1    1    2  501    0  0.26593345711E+02  0.21534734045E+02 -0.12746657166E+02  0.36516134453E+02  0.00000000000E+00 0. -1.
<mgrwt>
<rscale>  1 0.87689605E+02</rscale>
<asrwt>0</asrwt>
<pdfrwt beam="1">  1       21 0.93314431E-02 0.87689605E+02</pdfrwt>
<pdfrwt beam="2">  1        4 0.10038422E-01 0.87689605E+02</pdfrwt>
<totfact> 0.25614678E+05</totfact>
</mgrwt>
</event>
<event>
 6    2  0.8544106E+000  0.9071999E+02  0.7546771E-02  0.1301117E+00
          2   -1    0    0  502    0 -0.00000000000E+00  0.00000000000E+00  0.36450391287E+03  0.36450391287E+03  0.00000000000E+00 0. -1.
         21   -1    0    0  501  502  0.00000000000E+00 -0.00000000000E+00 -0.15601889036E+02  0.15601889036E+02  0.00000000000E+00 0. -1.
         24    2    1    2    0    0  0.41949382201E+02 -0.60797974456E+01  0.30844587055E+03  0.32151045275E+03  0.80208488107E+02 0.  0.
        -13    1    3    3    0    0 -0.86166966555E+01  0.10396908625E+02  0.66272950274E+01  0.15042081292E+02  0.00000000000E+00 0.  1.
         14    1    3    3    0    0  0.50566078856E+02 -0.16476706071E+02  0.30181857552E+03  0.30646837146E+03  0.00000000000E+00 0. -1.
          1    1    1    2  501    0 -0.41949382201E+02  0.60797974456E+01  0.40456153281E+02  0.58595349152E+02  0.00000000000E+00 0. -1.
<mgrwt>
<rscale>  1 0.90719988E+02</rscale>
<asrwt>0</asrwt>
<pdfrwt beam="1">  1       21 0.24002909E-02 0.90719988E+02</pdfrwt>
<pdfrwt beam="2">  1        2 0.56077519E-01 0.90719988E+02</pdfrwt>
<totfact> 0.94438838E+05</totfact>
</mgrwt>
</event>
<event>
 6    2  0.8544106E+000  0.9344882E+02  0.7546771E-02  0.1294708E+00
         21   -1    0    0  501  502  0.00000000000E+00  0.00000000000E+00  0.66973809910E+01  0.66973809910E+01  0.00000000000E+00 0. -1.
         -1   -1    0    0    0  501 -0.00000000000E+00 -0.00000000000E+00 -0.77127443417E+03  0.77127443417E+03  0.00000000000E+00 0.  1.
         24    2    1    2    0    0 -0.43773710280E+02  0.18768422244E+02 -0.57257826679E+03  0.58015390556E+03  0.80400815589E+02 0.  0.
        -13    1    3    3    0    0 -0.33431373502E+02 -0.14973439632E+02 -0.47463474066E+03  0.47604621380E+03  0.00000000000E+00 0.  1.
         14    1    3    3    0    0 -0.10342336778E+02  0.33741861876E+02 -0.97943526132E+02  0.10410769176E+03  0.00000000000E+00 0. -1.
         -2    1    1    2    0  502  0.43773710280E+02 -0.18768422244E+02 -0.19199878639E+03  0.19781790960E+03  0.00000000000E+00 0.  1.
<mgrwt>
<rscale>  1 0.93448823E+02</rscale>
<asrwt>0</asrwt>
<pdfrwt beam="1">  1       21 0.10303672E-02 0.93448823E+02</pdfrwt>
<pdfrwt beam="2">  1       -1 0.11865750E+00 0.93448823E+02</pdfrwt>
<totfact> 0.21852695E+05</totfact>
</mgrwt>
</event>
<event>
 6    2  0.8544106E+000  0.8185330E+02  0.7546771E-02  0.1323873E+00
         21   -1    0    0  501  502  0.00000000000E+00  0.00000000000E+00  0.34247516456E+01  0.34247516456E+01  0.00000000000E+00 0. -1.
          2   -1    0    0  502    0 -0.00000000000E+00 -0.00000000000E+00 -0.28132264501E+04  0.28132264501E+04  0.00000000000E+00 0. -1.
         24    2    1    2    0    0 -0.29609573884E+02  0.53806661761E+01 -0.27320889620E+04  0.27333148481E+04  0.76120194723E+02 0.  0.
        -11    1    3    3    0    0  0.20455303457E+02  0.19621396960E+02 -0.12232366704E+04  0.12235650250E+04  0.00000000000E+00 0.  1.
         12    1    3    3    0    0 -0.50064877341E+02 -0.14240730784E+02 -0.15088522916E+04  0.15097498231E+04  0.00000000000E+00 0. -1.
          1    1    1    2  501    0  0.29609573884E+02 -0.53806661761E+01 -0.77712736444E+02  0.83336353650E+02  0.00000000000E+00 0. -1.
<mgrwt>
<rscale>  1 0.81853299E+02</rscale>
<asrwt>0</asrwt>
<pdfrwt beam="1">  1       21 0.52688510E-03 0.81853299E+02</pdfrwt>
<pdfrwt beam="2">  1        2 0.43280388E+00 0.81853299E+02</pdfrwt>
<totfact> 0.36388375E+05</totfact>
</mgrwt>
</event>
<event>
 6    2  0.8544106E+000  0.9395782E+02  0.7546771E-02  0.1293541E+00
         21   -1    0    0  501  502  0.00000000000E+00  0.00000000000E+00  0.28484156425E+01  0.28484156425E+01  0.00000000000E+00 0.  1.
          2   -1    0    0  502    0 -0.00000000000E+00 -0.00000000000E+00 -0.28635333167E+04  0.28635333167E+04  0.00000000000E+00 0. -1.
         24    2    1    2    0    0  0.24586235497E+02  0.52116153582E+02 -0.24352639302E+04  0.24370758055E+04  0.74212500404E+02 0.  0.
        -11    1    3    3    0    0  0.16606079167E+02  0.59411587830E+02 -0.10747769348E+04  0.10765458459E+04  0.00000000000E+00 0.  1.
         12    1    3    3    0    0  0.79801563299E+01 -0.72954342485E+01 -0.13604869954E+04  0.13605299596E+04  0.00000000000E+00 0. -1.
          1    1    1    2  501    0 -0.24586235497E+02 -0.52116153582E+02 -0.42542097076E+03  0.42930592682E+03  0.00000000000E+00 0. -1.
<mgrwt>
<rscale>  1 0.93957818E+02</rscale>
<asrwt>0</asrwt>
<pdfrwt beam="1">  1       21 0.43821827E-03 0.93957818E+02</pdfrwt>
<pdfrwt beam="2">  1        2 0.44054310E+00 0.93957818E+02</pdfrwt>
<totfact> 0.45288517E+05</totfact>
</mgrwt>
</event>
<event>
 6    2  0.8544106E+000  0.9187229E+02  0.7546771E-02  0.1298380E+00
         21   -1    0    0  501  502  0.00000000000E+00  0.00000000000E+00  0.12149365789E+02  0.12149365789E+02  0.00000000000E+00 0. -1.
          2   -1    0    0  502    0 -0.00000000000E+00 -0.00000000000E+00 -0.39483122144E+03  0.39483122144E+03  0.00000000000E+00 0. -1.
         24    2    1    2    0    0  0.31155912718E+02 -0.28039240925E+02 -0.30717680640E+03  0.32062143953E+03  0.81753453551E+02 0.  0.
        -11    1    3    3    0    0 -0.13445794173E+02  0.12109686817E+02 -0.18903861524E+02  0.26168490142E+02  0.00000000000E+00 0.  1.
         12    1    3    3    0    0  0.44601706891E+02 -0.40148927742E+02 -0.28827294488E+03  0.29445294939E+03  0.00000000000E+00 0. -1.
          1    1    1    2  501    0 -0.31155912718E+02  0.28039240925E+02 -0.75505049254E+02  0.86359147702E+02  0.00000000000E+00 0. -1.
<mgrwt>
<rscale>  1 0.91872287E+02</rscale>
<asrwt>0</asrwt>
<pdfrwt beam="1">  1       21 0.18691332E-02 0.91872287E+02</pdfrwt>
<pdfrwt beam="2">  1        2 0.60743264E-01 0.91872287E+02</pdfrwt>
<totfact> 0.12985556E+06</totfact>
</mgrwt>
</event>
<event>
 6    2  0.8544106E+000  0.8484750E+02  0.7546771E-02  0.1315832E+00
          2   -1    0    0  502    0 -0.00000000000E+00  0.00000000000E+00  0.14002902783E+04  0.14002902783E+04  0.00000000000E+00 0. -1.
         21   -1    0    0  501  502  0.00000000000E+00 -0.00000000000E+00 -0.20392659022E+01  0.20392659022E+01  0.00000000000E+00 0.  1.
         24    2    1    2    0    0 -0.17603267513E+02  0.99588785788E+01  0.12168572569E+04  0.12198117401E+04  0.82401718823E+02 0.  0.
        -13    1    3    3    0    0 -0.41064457934E+02 -0.24333117638E+01  0.32950357665E+03  0.33206146680E+03  0.00000000000E+00 0.  1.
         14    1    3    3    0    0  0.23461190422E+02  0.12392190343E+02  0.88735368028E+03  0.88775027330E+03  0.00000000000E+00 0. -1.
          1    1    1    2  501    0  0.17603267513E+02 -0.99588785788E+01  0.18139375542E+03  0.18251780405E+03  0.00000000000E+00 0. -1.
<mgrwt>
<rscale>  1 0.84847496E+02</rscale>
<asrwt>0</asrwt>
<pdfrwt beam="1">  1       21 0.31373433E-03 0.84847496E+02</pdfrwt>
<pdfrwt beam="2">  1        2 0.21542851E+00 0.84847496E+02</pdfrwt>
<totfact> 0.42515760E+06</totfact>
</mgrwt>
</event>
<event>
 6    2  0.8544106E+000  0.8992517E+02  0.7546771E-02  0.1303033E+00
         -1   -1    0    0    0  501 -0.00000000000E+00  0.00000000000E+00  0.25871083688E+02  0.25871083688E+02  0.00000000000E+00 0.  1.
         21   -1    0    0  501  502  0.00000000000E+00 -0.00000000000E+00 -0.22325143122E+03  0.22325143122E+03  0.00000000000E+00 0. -1.
         24    2    1    2    0    0 -0.13303629342E+02  0.36645952720E+02 -0.64563982015E+02  0.11070250424E+03  0.81034710259E+02 0.  0.
        -13    1    3    3    0    0 -0.26341023926E+02 -0.13164330162E+02 -0.48548038105E+02  0.56780816601E+02  0.00000000000E+00 0.  1.
         14    1    3    3    0    0  0.13037394584E+02  0.49810282883E+02 -0.16015943911E+02  0.53921687638E+02  0.00000000000E+00 0. -1.
         -2    1    1    2    0  502  0.13303629342E+02 -0.36645952720E+02 -0.13281636552E+03  0.13842001067E+03  0.00000000000E+00 0.  1.
<mgrwt>
<rscale>  1 0.89925173E+02</rscale>
<asrwt>0</asrwt>
<pdfrwt beam="1">  1       21 0.34346374E-01 0.89925173E+02</pdfrwt>
<pdfrwt beam="2">  1       -1 0.39801667E-02 0.89925173E+02</pdfrwt>
<totfact> 0.16999235E+05</totfact>
</mgrwt>
</event>
<event>
 6    2  0.8544106E+000  0.9669130E+02  0.7546771E-02  0.1287412E+00
         21   -1    0    0  501  502  0.00000000000E+00  0.00000000000E+00  0.32057395466E+01  0.32057395466E+01  0.00000000000E+00 0. -1.
          2   -1    0    0  502    0 -0.00000000000E+00 -0.00000000000E+00 -0.31052404283E+04  0.31052404283E+04  0.00000000000E+00 0. -1.
         24    2    1    2    0    0 -0.31934324236E+02  0.39191164167E+02 -0.28361666942E+04  0.28378144274E+04  0.82422440023E+02 0.  0.
        -11    1    3    3    0    0 -0.77816522061E+01 -0.47203297611E+01 -0.33925588555E+02  0.35125221465E+02  0.00000000000E+00 0.  1.
         12    1    3    3    0    0 -0.24152672030E+02  0.43911493928E+02 -0.28022411056E+04  0.28026892059E+04  0.00000000000E+00 0. -1.
          1    1    1    2  501    0  0.31934324236E+02 -0.39191164167E+02 -0.26586799458E+03  0.27063174048E+03  0.00000000000E+00 0. -1.
<mgrwt>
<rscale>  1 0.96691298E+02</rscale>
<asrwt>0</asrwt>
<pdfrwt beam="1">  1       21 0.49319063E-03 0.96691298E+02</pdfrwt>
<pdfrwt beam="2">  1        2 0.47772936E+00 0.96691298E+02</pdfrwt>
<totfact> 0.27532384E+05</totfact>
</mgrwt>
</event>
<event>
 6    2  0.8544106E+000  0.9199338E+02  0.7546771E-02  0.1298095E+00
         21   -1    0    0  501  502  0.00000000000E+00  0.00000000000E+00  0.12728314171E+04  0.12728314171E+04  0.00000000000E+00 0.  1.
          4   -1    0    0  502    0 -0.00000000000E+00 -0.00000000000E+00 -0.29209820017E+01  0.29209820017E+01  0.00000000000E+00 0. -1.
         24    2    1    2    0    0 -0.27016776450E+02  0.60679794740E+01  0.85954034027E+03  0.86444917602E+03  0.87727161088E+02 0.  0.
        -11    1    3    3    0    0 -0.52409370351E+02  0.13579663185E+02  0.74155602082E+03  0.74352974478E+03  0.00000000000E+00 0.  1.
         12    1    3    3    0    0  0.25392593901E+02 -0.75116837105E+01  0.11798431945E+03  0.12091943125E+03  0.00000000000E+00 0. -1.
          3    1    1    2  501    0  0.27016776450E+02 -0.60679794740E+01  0.41037009480E+03  0.41130322305E+03  0.00000000000E+00 0. -1.
<mgrwt>
<rscale>  1 0.91993377E+02</rscale>
<asrwt>0</asrwt>
<pdfrwt beam="1">  1       21 0.19581978E+00 0.91993377E+02</pdfrwt>
<pdfrwt beam="2">  1        4 0.44938286E-03 0.91993377E+02</pdfrwt>
<totfact> 0.56281963E+04</totfact>
</mgrwt>
</event>
<event>
 6    2  0.8544106E+000  0.8147813E+02  0.7546771E-02  0.1324908E+00
         21   -1    0    0  501  502  0.00000000000E+00  0.00000000000E+00  0.31364386856E+03  0.31364386856E+03  0.00000000000E+00 0. -1.
          2   -1    0    0  502    0 -0.00000000000E+00 -0.00000000000E+00 -0.20361556520E+02  0.20361556520E+02  0.00000000000E+00 0. -1.
         24    2    1    2    0    0 -0.12445936053E+02  0.19524762406E+02  0.64136336716E+02  0.10369260373E+03  0.78118939506E+02 0.  0.
        -11    1    3    3    0    0  0.30914094540E+01 -0.18929740105E+02  0.58832375271E+02  0.61880047292E+02  0.00000000000E+00 0.  1.
         12    1    3    3    0    0 -0.15537345507E+02  0.38454502511E+02  0.53039614446E+01  0.41812556437E+02  0.00000000000E+00 0. -1.
          1    1    1    2  501    0  0.12445936053E+02 -0.19524762406E+02  0.22914597533E+03  0.23031282135E+03  0.00000000000E+00 0. -1.
<mgrwt>
<rscale>  1 0.81478134E+02</rscale>
<asrwt>0</asrwt>
<pdfrwt beam="1">  1       21 0.48252899E-01 0.81478134E+02</pdfrwt>
<pdfrwt beam="2">  1        2 0.31325474E-02 0.81478134E+02</pdfrwt>
<totfact> 0.13823368E+05</totfact>
</mgrwt>
</event>
<event>
 6    2  0.8544106E+000  0.9409855E+02  0.7546771E-02  0.1293219E+00
         21   -1    0    0  501  502  0.00000000000E+00  0.00000000000E+00  0.84381262612E+03  0.84381262612E+03  0.00000000000E+00 0. -1.
          2   -1    0    0  502    0 -0.00000000000E+00 -0.00000000000E+00 -0.76696313214E+01  0.76696313214E+01  0.00000000000E+00 0. -1.
         24    2    1    2    0    0 -0.14177945866E+01 -0.47671559882E+02  0.71699694620E+03  0.72314532332E+03  0.81116891067E+02 0.  0.
        -11    1    3    3    0    0  0.29714629828E+02 -0.10472171326E+02  0.49057069922E+03  0.49158136308E+03  0.00000000000E+00 0.  1.
         12    1    3    3    0    0 -0.31132424415E+02 -0.37199388556E+02  0.22642624698E+03  0.23156396024E+03  0.00000000000E+00 0. -1.
          1    1    1    2  501    0  0.14177945866E+01  0.47671559882E+02  0.11914604860E+03  0.12833693412E+03  0.00000000000E+00 0. -1.
<mgrwt>
<rscale>  1 0.94098554E+02</rscale>
<asrwt>0</asrwt>
<pdfrwt beam="1">  1       21 0.12981725E+00 0.94098554E+02</pdfrwt>
<pdfrwt beam="2">  1        2 0.11799439E-02 0.94098554E+02</pdfrwt>
<totfact> 0.57872556E+04</totfact>
</mgrwt>
</event>
<event>
 6    2  0.8544106E+000  0.8309137E+02  0.7546771E-02  0.1320501E+00
         21   -1    0    0  501  502  0.00000000000E+00  0.00000000000E+00  0.18438460929E+02  0.18438460929E+02  0.00000000000E+00 0.  1.
          4   -1    0    0  502    0 -0.00000000000E+00 -0.00000000000E+00 -0.15438661011E+03  0.15438661011E+03  0.00000000000E+00 0. -1.
         24    2    1    2    0    0 -0.76227540392E+01 -0.22051384744E+02 -0.11116810211E+03  0.13878949140E+03  0.79748392141E+02 0.  0.
        -11    1    3    3    0    0 -0.14971064868E+02  0.15585127879E+02 -0.44661829958E+00  0.21615468123E+02  0.00000000000E+00 0.  1.
         12    1    3    3    0    0  0.73483108285E+01 -0.37636512623E+02 -0.11072148381E+03  0.11717402328E+03  0.00000000000E+00 0. -1.
          3    1    1    2  501    0  0.76227540392E+01  0.22051384744E+02 -0.24780047069E+02  0.34035579634E+02  0.00000000000E+00 0. -1.
<mgrwt>
<rscale>  1 0.83091371E+02</rscale>
<asrwt>0</asrwt>
<pdfrwt beam="1">  1       21 0.28366864E-02 0.83091371E+02</pdfrwt>
<pdfrwt beam="2">  1        4 0.23751785E-01 0.83091371E+02</pdfrwt>
<totfact> 0.41319646E+05</totfact>
</mgrwt>
</event>
<event>
 6    2  0.8544106E+000  0.9337994E+02  0.7546771E-02  0.1294867E+00
         21   -1    0    0  501  502  0.00000000000E+00  0.00000000000E+00  0.12448776423E+02  0.12448776423E+02  0.00000000000E+00 0. -1.
          2   -1    0    0  502    0 -0.00000000000E+00 -0.00000000000E+00 -0.39310362993E+03  0.39310362993E+03  0.00000000000E+00 0. -1.
         24    2    1    2    0    0 -0.18795236069E+02 -0.41343770872E+02 -0.27904654256E+03  0.29425632762E+03  0.81591942850E+02 0.  0.
        -13    1    3    3    0    0  0.12863114011E+02 -0.16859574125E+02 -0.12281626553E+02  0.24505984831E+02  0.00000000000E+00 0.  1.
         14    1    3    3    0    0 -0.31658350081E+02 -0.24484196747E+02 -0.26676491601E+03  0.26975034279E+03  0.00000000000E+00 0. -1.
          1    1    1    2  501    0  0.18795236069E+02  0.41343770872E+02 -0.10160831095E+03  0.11129607874E+03  0.00000000000E+00 0. -1.
<mgrwt>
<rscale>  1 0.93379941E+02</rscale>
<asrwt>0</asrwt>
<pdfrwt beam="1">  1       21 0.19151965E-02 0.93379941E+02</pdfrwt>
<pdfrwt beam="2">  1        2 0.60477478E-01 0.93379941E+02</pdfrwt>
<totfact> 0.12568842E+06</totfact>
</mgrwt>
</event>
<event>
 6    2  0.8544106E+000  0.1167041E+03  0.7546771E-02  0.1248635E+00
          4   -1    0    0  502    0 -0.00000000000E+00  0.00000000000E+00  0.22470420957E+03  0.22470420957E+03  0.00000000000E+00 0. -1.
         21   -1    0    0  501  502  0.00000000000E+00 -0.00000000000E+00 -0.31915871002E+02  0.31915871002E+02  0.00000000000E+00 0. -1.
         24    2    1    2    0    0 -0.27546560843E+02 -0.44574352725E+02  0.13960363923E+03  0.18195885785E+03  0.10427925933E+03 0.  0.
        -13    1    3    3    0    0 -0.11766016254E+02  0.34029767742E+02  0.35524609718E+02  0.50581242835E+02  0.00000000000E+00 0.  1.
         14    1    3    3    0    0 -0.15780544589E+02 -0.78604120467E+02  0.10407902952E+03  0.13137761502E+03  0.00000000000E+00 0. -1.
          3    1    1    2  501    0  0.27546560843E+02  0.44574352725E+02  0.53184699335E+02  0.74661222723E+02  0.00000000000E+00 0. -1.
<mgrwt>
<rscale>  1 0.11670411E+03</rscale>
<asrwt>0</asrwt>
<pdfrwt beam="1">  1       21 0.49101341E-02 0.11670411E+03</pdfrwt>
<pdfrwt beam="2">  1        4 0.34569877E-01 0.11670411E+03</pdfrwt>
<totfact> 0.88408614E+04</totfact>
</mgrwt>
</event>
<event>
 6    2  0.8544106E+000  0.1003102E+03  0.7546771E-02  0.1279645E+00
          2   -1    0    0  502    0 -0.00000000000E+00  0.00000000000E+00  0.16481291932E+03  0.16481291932E+03  0.00000000000E+00 0. -1.
         21   -1    0    0  501  502  0.00000000000E+00 -0.00000000000E+00 -0.63475834817E+02  0.63475834817E+02  0.00000000000E+00 0. -1.
         24    2    1    2    0    0  0.61823021691E+02  0.71316816180E+01 -0.99298050183E+01  0.10080045037E+03  0.78671359930E+02 0.  0.
        -11    1    3    3    0    0  0.43861130544E+02 -0.32800672627E+02 -0.14828351906E+02  0.56741192423E+02  0.00000000000E+00 0.  1.
         12    1    3    3    0    0  0.17961891147E+02  0.39932354245E+02  0.48985468872E+01  0.44059257946E+02  0.00000000000E+00 0. -1.
          1    1    1    2  501    0 -0.61823021691E+02 -0.71316816180E+01  0.11126688952E+03  0.12748830377E+03  0.00000000000E+00 0. -1.
<mgrwt>
<rscale>  1 0.10031017E+03</rscale>
<asrwt>0</asrwt>
<pdfrwt beam="1">  1       21 0.97655131E-02 0.10031017E+03</pdfrwt>
<pdfrwt beam="2">  1        2 0.25355834E-01 0.10031017E+03</pdfrwt>
<totfact> 0.21271100E+05</totfact>
</mgrwt>
</event>
<event>
 6    2  0.8544106E+000  0.9228472E+02  0.7546771E-02  0.1297411E+00
          4   -1    0    0  502    0 -0.00000000000E+00  0.00000000000E+00  0.47553578157E+01  0.47553578157E+01  0.00000000000E+00 0. -1.
         21   -1    0    0  501  502  0.00000000000E+00 -0.00000000000E+00 -0.10296943412E+04  0.10296943412E+04  0.00000000000E+00 0. -1.
         24    2    1    2    0    0 -0.39277658226E+01 -0.45451270419E+02 -0.59777924689E+03  0.60486072592E+03  0.80219850510E+02 0.  0.
        -11    1    3    3    0    0 -0.27019523301E+02 -0.32063434164E+02 -0.53502773461E+03  0.53666823574E+03  0.00000000000E+00 0.  1.
         12    1    3    3    0    0  0.23091757479E+02 -0.13387836254E+02 -0.62751512283E+02  0.68192490179E+02  0.00000000000E+00 0. -1.
          3    1    1    2  501    0  0.39277658226E+01  0.45451270419E+02 -0.42715973645E+03  0.42958897306E+03  0.00000000000E+00 0. -1.
<mgrwt>
<rscale>  1 0.92284721E+02</rscale>
<asrwt>0</asrwt>
<pdfrwt beam="1">  1       21 0.15841461E+00 0.92284721E+02</pdfrwt>
<pdfrwt beam="2">  1        4 0.73159307E-03 0.92284721E+02</pdfrwt>
<totfact> 0.48691591E+04</totfact>
</mgrwt>
</event>
<event>
 6    2  0.8544106E+000  0.9369879E+02  0.7546771E-02  0.1294134E+00
         21   -1    0    0  501  502  0.00000000000E+00  0.00000000000E+00  0.49392921233E+01  0.49392921233E+01  0.00000000000E+00 0. -1.
          2   -1    0    0  502    0 -0.00000000000E+00 -0.00000000000E+00 -0.21439792921E+04  0.21439792921E+04  0.00000000000E+00 0. -1.
         24    2    1    2    0    0 -0.37530072291E+02 -0.28548947313E+02 -0.19981741815E+04  0.20003698463E+04  0.80968597089E+02 0.  0.
        -13    1    3    3    0    0 -0.39083737891E+02 -0.67262028094E+01 -0.38305047954E+03  0.38509797487E+03  0.00000000000E+00 0.  1.
         14    1    3    3    0    0  0.15536655997E+01 -0.21822744504E+02 -0.16151237020E+04  0.16152718715E+04  0.00000000000E+00 0. -1.
          1    1    1    2  501    0  0.37530072291E+02  0.28548947313E+02 -0.14086581847E+03  0.14854873790E+03  0.00000000000E+00 0. -1.
<mgrwt>
<rscale>  1 0.93698786E+02</rscale>
<asrwt>0</asrwt>
<pdfrwt beam="1">  1       21 0.75989184E-03 0.93698786E+02</pdfrwt>
<pdfrwt beam="2">  1        2 0.32984264E+00 0.93698786E+02</pdfrwt>
<totfact> 0.46521282E+05</totfact>
</mgrwt>
</event>
<event>
 6    2  0.8544106E+000  0.9139429E+02  0.7546771E-02  0.1299510E+00
          2   -1    0    0  502    0 -0.00000000000E+00  0.00000000000E+00  0.32326844101E+02  0.32326844101E+02  0.00000000000E+00 0. -1.
         21   -1    0    0  501  502  0.00000000000E+00 -0.00000000000E+00 -0.18693049345E+03  0.18693049345E+03  0.00000000000E+00 0. -1.
         24    2    1    2    0    0  0.34733247857E+02 -0.10610670709E+02 -0.41331848683E+02  0.10030572694E+03  0.83868541794E+02 0.  0.
        -13    1    3    3    0    0  0.37413023462E+01 -0.15363339457E+02 -0.61184594621E+02  0.63194811191E+02  0.00000000000E+00 0.  1.
         14    1    3    3    0    0  0.30991945511E+02  0.47526687486E+01  0.19852745938E+02  0.37110915754E+02  0.00000000000E+00 0. -1.
          1    1    1    2  501    0 -0.34733247857E+02  0.10610670709E+02 -0.11327180067E+03  0.11895161061E+03  0.00000000000E+00 0. -1.
<mgrwt>
<rscale>  1 0.91394295E+02</rscale>
<asrwt>0</asrwt>
<pdfrwt beam="1">  1       21 0.28758537E-01 0.91394295E+02</pdfrwt>
<pdfrwt beam="2">  1        2 0.49733608E-02 0.91394295E+02</pdfrwt>
<totfact> 0.21000022E+05</totfact>
</mgrwt>
</event>
<event>
 6    2  0.8544106E+000  0.9485641E+02  0.7546771E-02  0.1291500E+00
         21   -1    0    0  501  502  0.00000000000E+00  0.00000000000E+00  0.25331897994E+01  0.25331897994E+01  0.00000000000E+00 0. -1.
          2   -1    0    0  502    0 -0.00000000000E+00 -0.00000000000E+00 -0.20932955578E+04  0.20932955578E+04  0.00000000000E+00 0. -1.
         24    2    1    2    0    0  0.24845876079E+02  0.44278257073E+02 -0.13736261074E+04  0.13768973893E+04  0.80124005501E+02 0.  0.
        -11    1    3    3    0    0 -0.24071862163E+01 -0.21314356830E+02 -0.46741384539E+03  0.46790575890E+03  0.00000000000E+00 0.  1.
         12    1    3    3    0    0  0.27253062295E+02  0.65592613902E+02 -0.90621226200E+03  0.90899163043E+03  0.00000000000E+00 0. -1.
          1    1    1    2  501    0 -0.24845876079E+02 -0.44278257073E+02 -0.71713626059E+03  0.71893135824E+03  0.00000000000E+00 0. -1.
<mgrwt>
<rscale>  1 0.94856407E+02</rscale>
<asrwt>0</asrwt>
<pdfrwt beam="1">  1       21 0.38972181E-03 0.94856407E+02</pdfrwt>
<pdfrwt beam="2">  1        2 0.32204522E+00 0.94856407E+02</pdfrwt>
<totfact> 0.13785155E+06</totfact>
</mgrwt>
</event>
<event>
 6    2  0.8544106E+000  0.8720052E+02  0.7546771E-02  0.1309776E+00
         -3   -1    0    0    0  501 -0.00000000000E+00  0.00000000000E+00  0.13512287895E+03  0.13512287895E+03  0.00000000000E+00 0.  1.
         21   -1    0    0  501  502  0.00000000000E+00 -0.00000000000E+00 -0.40074307939E+02  0.40074307939E+02  0.00000000000E+00 0. -1.
         24    2    1    2    0    0  0.12938532272E+02 -0.41480945300E+02  0.98566834070E+02  0.13160300591E+03  0.75603279997E+02 0.  0.
        -13    1    3    3    0    0  0.23927222546E+02 -0.12073572046E+01  0.84061612338E+02  0.87408948964E+02  0.00000000000E+00 0.  1.
         14    1    3    3    0    0 -0.10988690274E+02 -0.40273588096E+02  0.14505221732E+02  0.44194056948E+02  0.00000000000E+00 0. -1.
         -4    1    1    2    0  502 -0.12938532272E+02  0.41480945300E+02 -0.35182630563E+01  0.43594180980E+02  0.00000000000E+00 0.  1.
<mgrwt>
<rscale>  1 0.87200518E+02</rscale>
<asrwt>0</asrwt>
<pdfrwt beam="1">  1       21 0.61652782E-02 0.87200518E+02</pdfrwt>
<pdfrwt beam="2">  1       -3 0.20788135E-01 0.87200518E+02</pdfrwt>
<totfact> 0.17544299E+05</totfact>
</mgrwt>
</event>
<event>
 6    2  0.8544106E+000  0.8485643E+02  0.7546771E-02  0.1315808E+00
         21   -1    0    0  501  502  0.00000000000E+00  0.00000000000E+00  0.18230291329E+03  0.18230291329E+03  0.00000000000E+00 0.  1.
          4   -1    0    0  502    0 -0.00000000000E+00 -0.00000000000E+00 -0.17579143582E+02  0.17579143582E+02  0.00000000000E+00 0. -1.
         24    2    1    2    0    0 -0.71193195245E+01  0.26530472775E+02  0.13458992375E+03  0.15910707228E+03  0.80287372473E+02 0.  0.
        -13    1    3    3    0    0 -0.37963324682E+02  0.15579315378E+02  0.11215320481E+03  0.11942474802E+03  0.00000000000E+00 0.  1.
         14    1    3    3    0    0  0.30844005157E+02  0.10951157397E+02  0.22436718935E+02  0.39682324264E+02  0.00000000000E+00 0. -1.
          3    1    1    2  501    0  0.71193195245E+01 -0.26530472775E+02  0.30133845954E+02  0.40774984587E+02  0.00000000000E+00 0. -1.
<mgrwt>
<rscale>  1 0.84856425E+02</rscale>
<asrwt>0</asrwt>
<pdfrwt beam="1">  1       21 0.28046601E-01 0.84856425E+02</pdfrwt>
<pdfrwt beam="2">  1        4 0.27044837E-02 0.84856425E+02</pdfrwt>
<totfact> 0.28643203E+05</totfact>
</mgrwt>
</event>
<event>
 6    2  0.1034596E+001  0.9670091E+02  0.7546771E-02  0.1287391E+00
         -1   -1    0    0    0  501 -0.00000000000E+00  0.00000000000E+00  0.74875544011E+03  0.74875544011E+03  0.00000000000E+00 0.  1.
         21   -1    0    0  501  502  0.00000000000E+00 -0.00000000000E+00 -0.91741208007E+01  0.91741208007E+01  0.00000000000E+00 0.  1.
         24    2    1    2    0    0  0.52623762003E+02  0.72414681921E+01  0.61411211822E+03  0.62167898436E+03  0.80804496528E+02 0.  0.
        -13    1    3    3    0    0  0.61107066080E+02  0.13321757366E+02  0.60371815855E+03  0.60694905693E+03  0.00000000000E+00 0.  1.
         14    1    3    3    0    0 -0.84833040770E+01 -0.60802891736E+01  0.10393959676E+02  0.14729927435E+02  0.00000000000E+00 0. -1.
         -2    1    1    2    0  502 -0.52623762003E+02 -0.72414681921E+01  0.12546920109E+03  0.13625057655E+03  0.00000000000E+00 0.  1.
<mgrwt>
<rscale>  1 0.96700909E+02</rscale>
<asrwt>0</asrwt>
<pdfrwt beam="1">  1       21 0.14114038E-02 0.96700909E+02</pdfrwt>
<pdfrwt beam="2">  1       -1 0.11519310E+00 0.96700909E+02</pdfrwt>
<totfact> 0.14292069E+05</totfact>
</mgrwt>
</event>
<event>
 6    2  0.8544106E+000  0.1043473E+03  0.7546771E-02  0.1271411E+00
         -3   -1    0    0    0  501 -0.00000000000E+00  0.00000000000E+00  0.18967876945E+03  0.18967876945E+03  0.00000000000E+00 0.  1.
         21   -1    0    0  501  502  0.00000000000E+00 -0.00000000000E+00 -0.40407978422E+02  0.40407978422E+02  0.00000000000E+00 0.  1.
         24    2    1    2    0    0 -0.64666873741E+02  0.28451476756E+02  0.92774035476E+02  0.13962584761E+03  0.76792347095E+02 0.  0.
        -13    1    3    3    0    0 -0.62782655691E+02 -0.40936350702E+01  0.85619693974E+02  0.10625041976E+03  0.00000000000E+00 0.  1.
         14    1    3    3    0    0 -0.18842180502E+01  0.32545111826E+02  0.71543415028E+01  0.33375427844E+02  0.00000000000E+00 0. -1.
         -4    1    1    2    0  502  0.64666873741E+02 -0.28451476756E+02  0.56496755553E+02  0.90460900267E+02  0.00000000000E+00 0.  1.
<mgrwt>
<rscale>  1 0.10434728E+03</rscale>
<asrwt>0</asrwt>
<pdfrwt beam="1">  1       21 0.62166122E-02 0.10434728E+03</pdfrwt>
<pdfrwt beam="2">  1       -3 0.29181349E-01 0.10434728E+03</pdfrwt>
<totfact> 0.96691668E+04</totfact>
</mgrwt>
</event>
<event>
 6    2  0.8544106E+000  0.8471709E+02  0.7546771E-02  0.1316174E+00
         21   -1    0    0  501  502  0.00000000000E+00  0.00000000000E+00  0.37706278022E+01  0.37706278022E+01  0.00000000000E+00 0.  1.
         -1   -1    0    0    0  501 -0.00000000000E+00 -0.00000000000E+00 -0.10859722099E+04  0.10859722099E+04  0.00000000000E+00 0.  1.
         24    2    1    2    0    0  0.17210963792E+02 -0.21454708228E+02 -0.98751713467E+03  0.99114432674E+03  0.80127794017E+02 0.  0.
        -13    1    3    3    0    0  0.41252146028E+02 -0.29959639104E+02 -0.42461451646E+03  0.42766436269E+03  0.00000000000E+00 0.  1.
         14    1    3    3    0    0 -0.24041182236E+02  0.85049308763E+01 -0.56290261821E+03  0.56347996405E+03  0.00000000000E+00 0. -1.
         -2    1    1    2    0  502 -0.17210963792E+02  0.21454708228E+02 -0.94684447388E+02  0.98598510926E+02  0.00000000000E+00 0.  1.
<mgrwt>
<rscale>  1 0.84717089E+02</rscale>
<asrwt>0</asrwt>
<pdfrwt beam="1">  1       21 0.58009612E-03 0.84717089E+02</pdfrwt>
<pdfrwt beam="2">  1       -1 0.16707278E+00 0.84717089E+02</pdfrwt>
<totfact> 0.22492115E+05</totfact>
</mgrwt>
</event>
<event>
 6    2  0.8544106E+000  0.1335466E+03  0.7546771E-02  0.1222286E+00
         -3   -1    0    0    0  501 -0.00000000000E+00  0.00000000000E+00  0.13856870994E+04  0.13856870994E+04  0.00000000000E+00 0.  1.
         21   -1    0    0  501  502  0.00000000000E+00 -0.00000000000E+00 -0.50676293055E+02  0.50676293055E+02  0.00000000000E+00 0.  1.
         24    2    1    2    0    0  0.57795069374E+02  0.89565194548E+02  0.13222862154E+04  0.13290129880E+04  0.80451803913E+02 0.  0.
        -11    1    3    3    0    0  0.17811156787E+01  0.60106886322E+02  0.90045121625E+03  0.90245687044E+03  0.00000000000E+00 0.  1.
         12    1    3    3    0    0  0.56013953695E+02  0.29458308226E+02  0.42183499913E+03  0.42655611755E+03  0.00000000000E+00 0. -1.
         -4    1    1    2    0  502 -0.57795069374E+02 -0.89565194548E+02  0.12724590941E+02  0.10735040444E+03  0.00000000000E+00 0.  1.
<mgrwt>
<rscale>  1 0.13354657E+03</rscale>
<asrwt>0</asrwt>
<pdfrwt beam="1">  1       21 0.77963538E-02 0.13354657E+03</pdfrwt>
<pdfrwt beam="2">  1       -3 0.21318260E+00 0.13354657E+03</pdfrwt>
<totfact> 0.83448292E+02</totfact>
</mgrwt>
</event>
<event>
 6    2  0.8544106E+000  0.8375952E+02  0.7546771E-02  0.1318709E+00
          2   -1    0    0  502    0 -0.00000000000E+00  0.00000000000E+00  0.69921406168E+03  0.69921406168E+03  0.00000000000E+00 0. -1.
         21   -1    0    0  501  502  0.00000000000E+00 -0.00000000000E+00 -0.48381059091E+01  0.48381059091E+01  0.00000000000E+00 0.  1.
         24    2    1    2    0    0  0.65661228989E+01  0.25636660505E+02  0.41130868955E+03  0.41975051522E+03  0.79468890766E+02 0.  0.
        -13    1    3    3    0    0 -0.31770820519E+02 -0.58880342574E+01  0.12154400617E+03  0.12576565278E+03  0.00000000000E+00 0.  1.
         14    1    3    3    0    0  0.38336943418E+02  0.31524694763E+02  0.28976468338E+03  0.29398486244E+03  0.00000000000E+00 0. -1.
          1    1    1    2  501    0 -0.65661228989E+01 -0.25636660505E+02  0.28306726622E+03  0.28430165236E+03  0.00000000000E+00 0. -1.
<mgrwt>
<rscale>  1 0.83759518E+02</rscale>
<asrwt>0</asrwt>
<pdfrwt beam="1">  1       21 0.74432454E-03 0.83759518E+02</pdfrwt>
<pdfrwt beam="2">  1        2 0.10757131E+00 0.83759518E+02</pdfrwt>
<totfact> 0.29195363E+06</totfact>
</mgrwt>
</event>
<event>
 6    2  0.8544106E+000  0.8445983E+02  0.7546771E-02  0.1316851E+00
          2   -1    0    0  502    0 -0.00000000000E+00  0.00000000000E+00  0.11494626083E+04  0.11494626083E+04  0.00000000000E+00 0. -1.
         21   -1    0    0  501  502  0.00000000000E+00 -0.00000000000E+00 -0.25642910106E+01  0.25642910106E+01  0.00000000000E+00 0.  1.
         24    2    1    2    0    0  0.21023229688E+02  0.11299109180E+02  0.92548286000E+03  0.92932878351E+03  0.81017391034E+02 0.  0.
        -11    1    3    3    0    0  0.47851338686E+01 -0.94475601684E+01  0.14451006269E+02  0.17916067690E+02  0.00000000000E+00 0.  1.
         12    1    3    3    0    0  0.16238095819E+02  0.20746669349E+02  0.91103185373E+03  0.91141271582E+03  0.00000000000E+00 0. -1.
          1    1    1    2  501    0 -0.21023229688E+02 -0.11299109180E+02  0.22141545726E+03  0.22269811578E+03  0.00000000000E+00 0. -1.
<mgrwt>
<rscale>  1 0.84459835E+02</rscale>
<asrwt>0</asrwt>
<pdfrwt beam="1">  1       21 0.39450723E-03 0.84459835E+02</pdfrwt>
<pdfrwt beam="2">  1        2 0.17683999E+00 0.84459835E+02</pdfrwt>
<totfact> 0.40803962E+06</totfact>
</mgrwt>
</event>
<event>
 6    2  0.8544106E+000  0.1016878E+03  0.7546771E-02  0.1276786E+00
          4   -1    0    0  502    0 -0.00000000000E+00  0.00000000000E+00  0.47028240128E+03  0.47028240128E+03  0.00000000000E+00 0. -1.
         21   -1    0    0  501  502  0.00000000000E+00 -0.00000000000E+00 -0.20048309971E+02  0.20048309971E+02  0.00000000000E+00 0. -1.
         24    2    1    2    0    0 -0.37746010491E+01 -0.61340650240E+02  0.39440081551E+03  0.40729892414E+03  0.81015352510E+02 0.  0.
        -11    1    3    3    0    0  0.36566568750E+02 -0.28488366899E+02  0.23799970174E+03  0.24247176955E+03  0.00000000000E+00 0.  1.
         12    1    3    3    0    0 -0.40341169799E+02 -0.32852283340E+02  0.15640111377E+03  0.16482715459E+03  0.00000000000E+00 0. -1.
          3    1    1    2  501    0  0.37746010491E+01  0.61340650240E+02  0.55833275794E+02  0.83031787111E+02  0.00000000000E+00 0. -1.
<mgrwt>
<rscale>  1 0.10168781E+03</rscale>
<asrwt>0</asrwt>
<pdfrwt beam="1">  1       21 0.30843557E-02 0.10168781E+03</pdfrwt>
<pdfrwt beam="2">  1        4 0.72351130E-01 0.10168781E+03</pdfrwt>
<totfact> 0.41682960E+04</totfact>
</mgrwt>
</event>
<event>
 6    2  0.8544106E+000  0.9822967E+02  0.7546771E-02  0.1284063E+00
          2   -1    0    0  502    0 -0.00000000000E+00  0.00000000000E+00  0.83202536327E+03  0.83202536327E+03  0.00000000000E+00 0. -1.
         21   -1    0    0  501  502  0.00000000000E+00 -0.00000000000E+00 -0.96548791587E+01  0.96548791587E+01  0.00000000000E+00 0.  1.
         24    2    1    2    0    0 -0.16016134549E+02 -0.55206386445E+02  0.28934937962E+03  0.30556853812E+03  0.79654292593E+02 0.  0.
        -13    1    3    3    0    0 -0.46315083707E+02 -0.22101586334E+02  0.12309886596E+03  0.13336752940E+03  0.00000000000E+00 0.  1.
         14    1    3    3    0    0  0.30298949157E+02 -0.33104800111E+02  0.16625051366E+03  0.17220100872E+03  0.00000000000E+00 0. -1.
          1    1    1    2  501    0  0.16016134549E+02  0.55206386445E+02  0.53302110449E+03  0.53611170431E+03  0.00000000000E+00 0. -1.
<mgrwt>
<rscale>  1 0.98229670E+02</rscale>
<asrwt>0</asrwt>
<pdfrwt beam="1">  1       21 0.14853667E-02 0.98229670E+02</pdfrwt>
<pdfrwt beam="2">  1        2 0.12800385E+00 0.98229670E+02</pdfrwt>
<totfact> 0.81554292E+05</totfact>
</mgrwt>
</event>
<event>
 6    2  0.8544106E+000  0.8377435E+02  0.7546771E-02  0.1318669E+00
         21   -1    0    0  501  502  0.00000000000E+00  0.00000000000E+00  0.58462730911E+01  0.58462730911E+01  0.00000000000E+00 0. -1.
          2   -1    0    0  502    0 -0.00000000000E+00 -0.00000000000E+00 -0.34498965803E+04  0.34498965803E+04  0.00000000000E+00 0. -1.
         24    2    1    2    0    0 -0.22285538198E+02 -0.54569580314E+01 -0.34247114731E+04  0.34257359524E+04  0.80571198130E+02 0.  0.
        -13    1    3    3    0    0 -0.14761924485E+02  0.29361993517E+02 -0.68033388550E+03  0.68112718110E+03  0.00000000000E+00 0.  1.
         14    1    3    3    0    0 -0.75236137127E+01 -0.34818951548E+02 -0.27443775876E+04  0.27446087713E+04  0.00000000000E+00 0. -1.
          1    1    1    2  501    0  0.22285538198E+02  0.54569580314E+01 -0.19338834166E+02  0.30006901050E+02  0.00000000000E+00 0. -1.
<mgrwt>
<rscale>  1 0.83774349E+02</rscale>
<asrwt>0</asrwt>
<pdfrwt beam="1">  1       21 0.89942369E-03 0.83774349E+02</pdfrwt>
<pdfrwt beam="2">  1        2 0.53075506E+00 0.83774349E+02</pdfrwt>
<totfact> 0.67678289E+04</totfact>
</mgrwt>
</event>
<event>
 6    2  0.9077669E+000  0.9432033E+02  0.7546771E-02  0.1292714E+00
         -3   -1    0    0    0  501 -0.00000000000E+00  0.00000000000E+00  0.42647195332E+03  0.42647195332E+03  0.00000000000E+00 0.  1.
         21   -1    0    0  501  502  0.00000000000E+00 -0.00000000000E+00 -0.32180002495E+02  0.32180002495E+02  0.00000000000E+00 0.  1.
         24    2    1    2    0    0  0.28966402454E+02 -0.35509535058E+02  0.40135178221E+03  0.41228579606E+03  0.82439947815E+02 0.  0.
        -13    1    3    3    0    0  0.32695500037E+02 -0.57032773994E+02  0.35511559025E+03  0.36114929803E+03  0.00000000000E+00 0.  1.
         14    1    3    3    0    0 -0.37290975830E+01  0.21523238936E+02  0.46236191965E+02  0.51136498028E+02  0.00000000000E+00 0. -1.
         -4    1    1    2    0  502 -0.28966402454E+02  0.35509535058E+02 -0.70598313891E+01  0.46366159755E+02  0.00000000000E+00 0.  1.
<mgrwt>
<rscale>  1 0.94320329E+02</rscale>
<asrwt>0</asrwt>
<pdfrwt beam="1">  1       21 0.49507699E-02 0.94320329E+02</pdfrwt>
<pdfrwt beam="2">  1       -3 0.65611066E-01 0.94320329E+02</pdfrwt>
<totfact> 0.28976998E+04</totfact>
</mgrwt>
</event>
<event>
 6    2  0.8544106E+000  0.1013679E+03  0.7546771E-02  0.1277445E+00
         21   -1    0    0  501  502  0.00000000000E+00  0.00000000000E+00  0.56303214347E+01  0.56303214347E+01  0.00000000000E+00 0. -1.
          2   -1    0    0  502    0 -0.00000000000E+00 -0.00000000000E+00 -0.13196284313E+04  0.13196284313E+04  0.00000000000E+00 0. -1.
         24    2    1    2    0    0  0.55437194407E+02 -0.19543424844E+02 -0.10454428707E+04  0.10503457765E+04  0.82584662590E+02 0.  0.
        -11    1    3    3    0    0  0.44443246368E+01 -0.20202045360E+01 -0.16383322912E+01  0.51495029412E+01  0.00000000000E+00 0.  1.
         12    1    3    3    0    0  0.50992869770E+02 -0.17523220308E+02 -0.10438045384E+04  0.10451962736E+04  0.00000000000E+00 0. -1.
          1    1    1    2  501    0 -0.55437194407E+02  0.19543424844E+02 -0.26855523924E+03  0.27491297624E+03  0.00000000000E+00 0. -1.
<mgrwt>
<rscale>  1 0.10136792E+03</rscale>
<asrwt>0</asrwt>
<pdfrwt beam="1">  1       21 0.86620172E-03 0.10136792E+03</pdfrwt>
<pdfrwt beam="2">  1        2 0.20302013E+00 0.10136792E+03</pdfrwt>
<totfact> 0.99976091E+05</totfact>
</mgrwt>
</event>
<event>
 6    2  0.8544106E+000  0.8979538E+02  0.7546771E-02  0.1303348E+00
          2   -1    0    0  502    0 -0.00000000000E+00  0.00000000000E+00  0.70473803284E+02  0.70473803284E+02  0.00000000000E+00 0. -1.
         21   -1    0    0  501  502  0.00000000000E+00 -0.00000000000E+00 -0.54998555315E+02  0.54998555315E+02  0.00000000000E+00 0.  1.
         24    2    1    2    0    0  0.22537809771E+02 -0.19559288875E+02  0.26556092321E+02  0.93639926048E+02  0.84691741394E+02 0.  0.
        -11    1    3    3    0    0 -0.39892265885E+01 -0.47877403136E+02  0.27604559949E+01  0.48122549570E+02  0.00000000000E+00 0.  1.
         12    1    3    3    0    0  0.26527036359E+02  0.28318114260E+02  0.23795636326E+02  0.45517376478E+02  0.00000000000E+00 0. -1.
          1    1    1    2  501    0 -0.22537809771E+02  0.19559288875E+02 -0.11080844352E+02  0.31832432551E+02  0.00000000000E+00 0. -1.
<mgrwt>
<rscale>  1 0.89795377E+02</rscale>
<asrwt>0</asrwt>
<pdfrwt beam="1">  1       21 0.84613162E-02 0.89795377E+02</pdfrwt>
<pdfrwt beam="2">  1        2 0.10842124E-01 0.89795377E+02</pdfrwt>
<totfact> 0.71369172E+05</totfact>
</mgrwt>
</event>
<event>
 6    2  0.8544106E+000  0.1144554E+03  0.7546771E-02  0.1252535E+00
          2   -1    0    0  502    0 -0.00000000000E+00  0.00000000000E+00  0.19661424676E+04  0.19661424676E+04  0.00000000000E+00 0. -1.
         21   -1    0    0  501  502  0.00000000000E+00 -0.00000000000E+00 -0.71238354118E+01  0.71238354118E+01  0.00000000000E+00 0. -1.
         24    2    1    2    0    0  0.54364923814E+02 -0.67948527540E+02  0.15904930600E+04  0.15946059741E+04  0.74347100727E+02 0.  0.
        -13    1    3    3    0    0 -0.16068688542E+02  0.16213829498E+00  0.27504509215E+03  0.27551412261E+03  0.00000000000E+00 0.  1.
         14    1    3    3    0    0  0.70433612355E+02 -0.68110665835E+02  0.13154479678E+04  0.13190918515E+04  0.00000000000E+00 0. -1.
          1    1    1    2  501    0 -0.54364923814E+02  0.67948527540E+02  0.36852557219E+03  0.37866032892E+03  0.00000000000E+00 0. -1.
<mgrwt>
<rscale>  1 0.11445540E+03</rscale>
<asrwt>0</asrwt>
<pdfrwt beam="1">  1       21 0.10959762E-02 0.11445540E+03</pdfrwt>
<pdfrwt beam="2">  1        2 0.30248302E+00 0.11445540E+03</pdfrwt>
<totfact> 0.32424405E+05</totfact>
</mgrwt>
</event>
<event>
 6    2  0.8544106E+000  0.9849348E+02  0.7546771E-02  0.1283496E+00
          2   -1    0    0  502    0 -0.00000000000E+00  0.00000000000E+00  0.13144254744E+03  0.13144254744E+03  0.00000000000E+00 0. -1.
         21   -1    0    0  501  502  0.00000000000E+00 -0.00000000000E+00 -0.42985108721E+02  0.42985108721E+02  0.00000000000E+00 0.  1.
         24    2    1    2    0    0 -0.27653016551E+02 -0.10571332044E+02  0.10207078595E+03  0.14184291114E+03  0.93938936079E+02 0.  0.
        -13    1    3    3    0    0 -0.57283410047E+02 -0.20521598639E+02  0.41408462275E+02  0.73601534123E+02  0.00000000000E+00 0.  1.
         14    1    3    3    0    0  0.29630393496E+02  0.99502665957E+01  0.60662323672E+02  0.68241377018E+02  0.00000000000E+00 0. -1.
          1    1    1    2  501    0  0.27653016551E+02  0.10571332044E+02 -0.13613347225E+02  0.32584745023E+02  0.00000000000E+00 0. -1.
<mgrwt>
<rscale>  1 0.98493483E+02</rscale>
<asrwt>0</asrwt>
<pdfrwt beam="1">  1       21 0.66130937E-02 0.98493483E+02</pdfrwt>
<pdfrwt beam="2">  1        2 0.20221930E-01 0.98493483E+02</pdfrwt>
<totfact> 0.53180720E+05</totfact>
</mgrwt>
</event>
<event>
 6    2  0.8544106E+000  0.8487512E+02  0.7546771E-02  0.1315759E+00
          2   -1    0    0  502    0 -0.00000000000E+00  0.00000000000E+00  0.14330114510E+03  0.14330114510E+03  0.00000000000E+00 0. -1.
         21   -1    0    0  501  502  0.00000000000E+00 -0.00000000000E+00 -0.20670418983E+02  0.20670418983E+02  0.00000000000E+00 0.  1.
         24    2    1    2    0    0 -0.23076661645E+02 -0.51260860648E+01  0.90381494689E+02  0.12398629181E+03  0.81516727754E+02 0.  0.
        -13    1    3    3    0    0  0.28331604070E+02  0.11883170788E+02  0.32197650058E+02  0.44503687560E+02  0.00000000000E+00 0.  1.
         14    1    3    3    0    0 -0.51408265715E+02 -0.17009256853E+02  0.58183844631E+02  0.79482604251E+02  0.00000000000E+00 0. -1.
          1    1    1    2  501    0  0.23076661645E+02  0.51260860648E+01  0.32249231425E+02  0.39985272270E+02  0.00000000000E+00 0. -1.
<mgrwt>
<rscale>  1 0.84875120E+02</rscale>
<asrwt>0</asrwt>
<pdfrwt beam="1">  1       21 0.31800646E-02 0.84875120E+02</pdfrwt>
<pdfrwt beam="2">  1        2 0.22046329E-01 0.84875120E+02</pdfrwt>
<totfact> 0.16016490E+06</totfact>
</mgrwt>
</event>
<event>
 6    2  0.8544106E+000  0.9020442E+02  0.7546771E-02  0.1302357E+00
          2   -1    0    0  502    0 -0.00000000000E+00  0.00000000000E+00  0.13197986081E+04  0.13197986081E+04  0.00000000000E+00 0. -1.
         21   -1    0    0  501  502  0.00000000000E+00 -0.00000000000E+00 -0.35552847983E+01  0.35552847983E+01  0.00000000000E+00 0.  1.
         24    2    1    2    0    0  0.21835697883E+02  0.31994662253E+02  0.68359422197E+03  0.68952004911E+03  0.81463990206E+02 0.  0.
        -11    1    3    3    0    0  0.12552607941E+01  0.55131568881E+02  0.33034769883E+03  0.33491889718E+03  0.00000000000E+00 0.  1.
         12    1    3    3    0    0  0.20580437089E+02 -0.23136906628E+02  0.35324652314E+03  0.35460115193E+03  0.00000000000E+00 0. -1.
          1    1    1    2  501    0 -0.21835697883E+02 -0.31994662253E+02  0.63264910133E+03  0.63383384379E+03  0.00000000000E+00 0. -1.
<mgrwt>
<rscale>  1 0.90204422E+02</rscale>
<asrwt>0</asrwt>
<pdfrwt beam="1">  1       21 0.54696794E-03 0.90204422E+02</pdfrwt>
<pdfrwt beam="2">  1        2 0.20304555E+00 0.90204422E+02</pdfrwt>
<totfact> 0.20190368E+06</totfact>
</mgrwt>
</event>
<event>
 6    2  0.8544106E+000  0.1037126E+03  0.7546771E-02  0.1272677E+00
         21   -1    0    0  501  502  0.00000000000E+00  0.00000000000E+00  0.44052276942E+02  0.44052276942E+02  0.00000000000E+00 0. -1.
          4   -1    0    0  502    0 -0.00000000000E+00 -0.00000000000E+00 -0.16451806321E+03  0.16451806321E+03  0.00000000000E+00 0. -1.
         24    2    1    2    0    0 -0.11746813060E+02  0.64906224553E+02 -0.82000428269E+02  0.13221335377E+03  0.80034336859E+02 0.  0.
        -13    1    3    3    0    0  0.58125296943E+01 -0.21714568209E+00  0.13843051623E+02  0.15015416475E+02  0.00000000000E+00 0.  1.
         14    1    3    3    0    0 -0.17559342754E+02  0.65123370235E+02 -0.95843479892E+02  0.11719793730E+03  0.00000000000E+00 0. -1.
          3    1    1    2  501    0  0.11746813060E+02 -0.64906224553E+02 -0.38465357994E+02  0.76356986376E+02  0.00000000000E+00 0. -1.
<mgrwt>
<rscale>  1 0.10371259E+03</rscale>
<asrwt>0</asrwt>
<pdfrwt beam="1">  1       21 0.67772734E-02 0.10371259E+03</pdfrwt>
<pdfrwt beam="2">  1        4 0.25310471E-01 0.10371259E+03</pdfrwt>
<totfact> 0.90600206E+04</totfact>
</mgrwt>
</event>
<event>
 6    2  0.8544106E+000  0.8263037E+02  0.7546771E-02  0.1321748E+00
         21   -1    0    0  501  502  0.00000000000E+00  0.00000000000E+00  0.12373019860E+02  0.12373019860E+02  0.00000000000E+00 0.  1.
         -1   -1    0    0    0  501 -0.00000000000E+00 -0.00000000000E+00 -0.24160922187E+03  0.24160922187E+03  0.00000000000E+00 0.  1.
         24    2    1    2    0    0  0.15672795189E+02  0.16188665086E+02 -0.20427998537E+03  0.22035900370E+03  0.79498859771E+02 0.  0.
        -11    1    3    3    0    0  0.21127753731E+02  0.26100058717E+02 -0.20617184376E+03  0.20888854493E+03  0.00000000000E+00 0.  1.
         12    1    3    3    0    0 -0.54549585416E+01 -0.99113936311E+01  0.18918583896E+01  0.11470458778E+02  0.00000000000E+00 0. -1.
         -2    1    1    2    0  502 -0.15672795189E+02 -0.16188665086E+02 -0.24956216639E+02  0.33623238024E+02  0.00000000000E+00 0.  1.
<mgrwt>
<rscale>  1 0.82630370E+02</rscale>
<asrwt>0</asrwt>
<pdfrwt beam="1">  1       21 0.19035416E-02 0.82630370E+02</pdfrwt>
<pdfrwt beam="2">  1       -1 0.37170649E-01 0.82630370E+02</pdfrwt>
<totfact> 0.79075633E+05</totfact>
</mgrwt>
</event>
<event>
 6    2  0.8544106E+000  0.8510415E+02  0.7546771E-02  0.1315160E+00
          2   -1    0    0  502    0 -0.00000000000E+00  0.00000000000E+00  0.43542318709E+03  0.43542318709E+03  0.00000000000E+00 0. -1.
         21   -1    0    0  501  502  0.00000000000E+00 -0.00000000000E+00 -0.66833792938E+01  0.66833792938E+01  0.00000000000E+00 0.  1.
         24    2    1    2    0    0  0.12990016598E+02  0.18389257722E+02  0.35119274281E+03  0.36135724676E+03  0.82071991914E+02 0.  0.
        -13    1    3    3    0    0  0.35563724738E+02  0.21439478152E+02  0.89382211245E+02  0.98557645201E+02  0.00000000000E+00 0.  1.
         14    1    3    3    0    0 -0.22573708139E+02 -0.30502204298E+01  0.26181053156E+03  0.26279960156E+03  0.00000000000E+00 0. -1.
          1    1    1    2  501    0 -0.12990016598E+02 -0.18389257722E+02  0.77547064988E+02  0.80749319620E+02  0.00000000000E+00 0. -1.
<mgrwt>
<rscale>  1 0.85104155E+02</rscale>
<asrwt>0</asrwt>
<pdfrwt beam="1">  1       21 0.10282125E-02 0.85104155E+02</pdfrwt>
<pdfrwt beam="2">  1        2 0.66988161E-01 0.85104155E+02</pdfrwt>
<totfact> 0.29818022E+06</totfact>
</mgrwt>
</event>
<event>
 6    2  0.8544106E+000  0.8448271E+02  0.7546771E-02  0.1316791E+00
         21   -1    0    0  501  502  0.00000000000E+00  0.00000000000E+00  0.37698582096E+02  0.37698582096E+02  0.00000000000E+00 0. -1.
         -1   -1    0    0    0  501 -0.00000000000E+00 -0.00000000000E+00 -0.88351718745E+02  0.88351718745E+02  0.00000000000E+00 0.  1.
         24    2    1    2    0    0  0.28129452166E+01 -0.23748679654E+02 -0.56241873668E+02  0.10149126121E+03  0.81027250368E+02 0.  0.
        -11    1    3    3    0    0 -0.27205240285E+02  0.10986611952E+02 -0.45828949415E+02  0.54416204807E+02  0.00000000000E+00 0.  1.
         12    1    3    3    0    0  0.30018185502E+02 -0.34735291606E+02 -0.10412924253E+02  0.47075056402E+02  0.00000000000E+00 0. -1.
         -2    1    1    2    0  502 -0.28129452166E+01  0.23748679654E+02  0.55887370186E+01  0.24559039631E+02  0.00000000000E+00 0.  1.
<mgrwt>
<rscale>  1 0.84482707E+02</rscale>
<asrwt>0</asrwt>
<pdfrwt beam="1">  1       21 0.57997819E-02 0.84482707E+02</pdfrwt>
<pdfrwt beam="2">  1       -1 0.13592572E-01 0.84482707E+02</pdfrwt>
<totfact> 0.65062136E+05</totfact>
</mgrwt>
</event>
<event>
 6    2  0.8544106E+000  0.9068269E+02  0.7546771E-02  0.1301207E+00
          2   -1    0    0  502    0 -0.00000000000E+00  0.00000000000E+00  0.66316740451E+03  0.66316740451E+03  0.00000000000E+00 0. -1.
         21   -1    0    0  501  502  0.00000000000E+00 -0.00000000000E+00 -0.11312821457E+02  0.11312821457E+02  0.00000000000E+00 0.  1.
         24    2    1    2    0    0 -0.12267434496E+02 -0.40984966126E+02  0.60197496166E+03  0.60876695464E+03  0.79956820891E+02 0.  0.
        -13    1    3    3    0    0  0.17321699027E+02 -0.45275222662E+02  0.20441099990E+03  0.21008032732E+03  0.00000000000E+00 0.  1.
         14    1    3    3    0    0 -0.29589133523E+02  0.42902565364E+01  0.39756396175E+03  0.39868662733E+03  0.00000000000E+00 0. -1.
          1    1    1    2  501    0  0.12267434496E+02  0.40984966126E+02  0.49879621399E+02  0.65713271326E+02  0.00000000000E+00 0. -1.
<mgrwt>
<rscale>  1 0.90682692E+02</rscale>
<asrwt>0</asrwt>
<pdfrwt beam="1">  1       21 0.17404346E-02 0.90682692E+02</pdfrwt>
<pdfrwt beam="2">  1        2 0.10202572E+00 0.90682692E+02</pdfrwt>
<totfact> 0.82580295E+05</totfact>
</mgrwt>
</event>
<event>
 6    2  0.8544106E+000  0.8817367E+02  0.7546771E-02  0.1307336E+00
          2   -1    0    0  502    0 -0.00000000000E+00  0.00000000000E+00  0.29779022627E+04  0.29779022627E+04  0.00000000000E+00 0. -1.
         21   -1    0    0  501  502  0.00000000000E+00 -0.00000000000E+00 -0.13108570584E+01  0.13108570584E+01  0.00000000000E+00 0. -1.
         24    2    1    2    0    0  0.15340786115E+02  0.33431788013E+02  0.21042528701E+04  0.21060994131E+04  0.80134713805E+02 0.  0.
        -11    1    3    3    0    0  0.37809686506E+02  0.13136119162E+02  0.51323032061E+03  0.51478878389E+03  0.00000000000E+00 0.  1.
         12    1    3    3    0    0 -0.22468900391E+02  0.20295668852E+02  0.15910225495E+04  0.15913106292E+04  0.00000000000E+00 0. -1.
          1    1    1    2  501    0 -0.15340786115E+02 -0.33431788013E+02  0.87233853558E+03  0.87311370669E+03  0.00000000000E+00 0. -1.
<mgrwt>
<rscale>  1 0.88173673E+02</rscale>
<asrwt>0</asrwt>
<pdfrwt beam="1">  1       21 0.20167270E-03 0.88173673E+02</pdfrwt>
<pdfrwt beam="2">  1        2 0.45813339E+00 0.88173673E+02</pdfrwt>
<totfact> 0.12625502E+06</totfact>
</mgrwt>
</event>
<event>
 6    2  0.8544106E+000  0.9345347E+02  0.7546771E-02  0.1294698E+00
         21   -1    0    0  501  502  0.00000000000E+00  0.00000000000E+00  0.34805349910E+01  0.34805349910E+01  0.00000000000E+00 0.  1.
          2   -1    0    0  502    0 -0.00000000000E+00 -0.00000000000E+00 -0.24896094608E+04  0.24896094608E+04  0.00000000000E+00 0. -1.
         24    2    1    2    0    0  0.49041523509E+02  0.69839064139E+01 -0.69252401274E+03  0.69880115891E+03  0.79244592833E+02 0.  0.
        -11    1    3    3    0    0  0.24754153002E+02 -0.19120451632E+02 -0.91080717876E+02  0.96301905123E+02  0.00000000000E+00 0.  1.
         12    1    3    3    0    0  0.24287370507E+02  0.26104358046E+02 -0.60144329487E+03  0.60249925379E+03  0.00000000000E+00 0. -1.
          1    1    1    2  501    0 -0.49041523509E+02 -0.69839064139E+01 -0.17936049131E+04  0.17942888369E+04  0.00000000000E+00 0. -1.
<mgrwt>
<rscale>  1 0.93453472E+02</rscale>
<asrwt>0</asrwt>
<pdfrwt beam="1">  1       21 0.53546758E-03 0.93453472E+02</pdfrwt>
<pdfrwt beam="2">  1        2 0.38301637E+00 0.93453472E+02</pdfrwt>
<totfact> 0.52997232E+05</totfact>
</mgrwt>
</event>
<event>
 6    2  0.8544106E+000  0.8119323E+02  0.7546771E-02  0.1325699E+00
         21   -1    0    0  501  502  0.00000000000E+00  0.00000000000E+00  0.53061928949E+03  0.53061928949E+03  0.00000000000E+00 0. -1.
          2   -1    0    0  502    0 -0.00000000000E+00 -0.00000000000E+00 -0.11732357109E+02  0.11732357109E+02  0.00000000000E+00 0. -1.
         24    2    1    2    0    0 -0.30681721847E+02 -0.10571418733E+02  0.13821419953E+03  0.16029817850E+03  0.74425923772E+02 0.  0.
        -11    1    3    3    0    0  0.54536906050E+01 -0.28906338189E+02  0.10129773122E+03  0.10548246052E+03  0.00000000000E+00 0.  1.
         12    1    3    3    0    0 -0.36135412452E+02  0.18334919455E+02  0.36916468314E+02  0.54815717976E+02  0.00000000000E+00 0. -1.
          1    1    1    2  501    0  0.30681721847E+02  0.10571418733E+02  0.38067273285E+03  0.38205346810E+03  0.00000000000E+00 0. -1.
<mgrwt>
<rscale>  1 0.81193233E+02</rscale>
<asrwt>0</asrwt>
<pdfrwt beam="1">  1       21 0.81633718E-01 0.81193233E+02</pdfrwt>
<pdfrwt beam="2">  1        2 0.18049784E-02 0.81193233E+02</pdfrwt>
<totfact> 0.95023615E+04</totfact>
</mgrwt>
</event>
<event>
 6    2  0.8544106E+000  0.7752294E+02  0.7546771E-02  0.1336232E+00
         21   -1    0    0  501  502  0.00000000000E+00  0.00000000000E+00  0.10304178257E+03  0.10304178257E+03  0.00000000000E+00 0. -1.
          4   -1    0    0  502    0 -0.00000000000E+00 -0.00000000000E+00 -0.59794789586E+02  0.59794789586E+02  0.00000000000E+00 0. -1.
         24    2    1    2    0    0 -0.52320466691E+02  0.22823320162E+02 -0.17505372696E+02  0.79474799659E+02  0.52454461485E+02 0.  0.
        -11    1    3    3    0    0 -0.20522766775E+01  0.20306248865E+01  0.15553087059E+02  0.15818779791E+02  0.00000000000E+00 0.  1.
         12    1    3    3    0    0 -0.50268190013E+02  0.20792695276E+02 -0.33058459756E+02  0.63656019868E+02  0.00000000000E+00 0. -1.
          3    1    1    2  501    0  0.52320466691E+02 -0.22823320162E+02  0.60752365677E+02  0.83361772494E+02  0.00000000000E+00 0. -1.
<mgrwt>
<rscale>  1 0.77522937E+02</rscale>
<asrwt>0</asrwt>
<pdfrwt beam="1">  1       21 0.15852582E-01 0.77522937E+02</pdfrwt>
<pdfrwt beam="2">  1        4 0.91991984E-02 0.77522937E+02</pdfrwt>
<totfact> 0.11435987E+05</totfact>
</mgrwt>
</event>
<event>
 6    2  0.8544106E+000  0.9499947E+02  0.7546771E-02  0.1291177E+00
         21   -1    0    0  501  502  0.00000000000E+00  0.00000000000E+00  0.23142592310E+01  0.23142592310E+01  0.00000000000E+00 0.  1.
          2   -1    0    0  502    0 -0.00000000000E+00 -0.00000000000E+00 -0.17422070069E+04  0.17422070069E+04  0.00000000000E+00 0. -1.
         24    2    1    2    0    0 -0.15264446511E+01 -0.26773022937E+02 -0.15259738539E+04  0.15289280893E+04  0.91136022689E+02 0.  0.
        -11    1    3    3    0    0 -0.16549680940E+02 -0.46706316849E+02 -0.45984421893E+03  0.46250630013E+03  0.00000000000E+00 0.  1.
         12    1    3    3    0    0  0.15023236289E+02  0.19933293911E+02 -0.10661296350E+04  0.10664217892E+04  0.00000000000E+00 0. -1.
          1    1    1    2  501    0  0.15264446511E+01  0.26773022937E+02 -0.21391889370E+03  0.21559317678E+03  0.00000000000E+00 0. -1.
<mgrwt>
<rscale>  1 0.94999471E+02</rscale>
<asrwt>0</asrwt>
<pdfrwt beam="1">  1       21 0.35603941E-03 0.94999471E+02</pdfrwt>
<pdfrwt beam="2">  1        2 0.26803220E+00 0.94999471E+02</pdfrwt>
<totfact> 0.23762145E+06</totfact>
</mgrwt>
</event>
<event>
 6    2  0.8544106E+000  0.1016690E+03  0.7546771E-02  0.1276825E+00
          2   -1    0    0  502    0 -0.00000000000E+00  0.00000000000E+00  0.16167966751E+03  0.16167966751E+03  0.00000000000E+00 0. -1.
         21   -1    0    0  501  502  0.00000000000E+00 -0.00000000000E+00 -0.57265637798E+02  0.57265637798E+02  0.00000000000E+00 0. -1.
         24    2    1    2    0    0  0.15791974299E+02 -0.59775210898E+02  0.11788263638E+03  0.15566919879E+03  0.80710105948E+02 0.  0.
        -13    1    3    3    0    0 -0.61308931373E+01 -0.20428497618E+02 -0.73683392020E+01  0.22565544269E+02  0.00000000000E+00 0.  1.
         14    1    3    3    0    0  0.21922867436E+02 -0.39346713280E+02  0.12525097559E+03  0.13310365453E+03  0.00000000000E+00 0. -1.
          1    1    1    2  501    0 -0.15791974299E+02  0.59775210898E+02 -0.13468606671E+02  0.63276106516E+02  0.00000000000E+00 0. -1.
<mgrwt>
<rscale>  1 0.10166899E+03</rscale>
<asrwt>0</asrwt>
<pdfrwt beam="1">  1       21 0.88100982E-02 0.10166899E+03</pdfrwt>
<pdfrwt beam="2">  1        2 0.24873795E-01 0.10166899E+03</pdfrwt>
<totfact> 0.25978617E+05</totfact>
</mgrwt>
</event>
<event>
 6    2  0.8544106E+000  0.9443541E+02  0.7546771E-02  0.1292453E+00
         21   -1    0    0  501  502  0.00000000000E+00  0.00000000000E+00  0.60868280453E+01  0.60868280453E+01  0.00000000000E+00 0.  1.
          2   -1    0    0  502    0 -0.00000000000E+00 -0.00000000000E+00 -0.22946842779E+04  0.22946842779E+04  0.00000000000E+00 0. -1.
         24    2    1    2    0    0 -0.42732912666E+02 -0.21048666190E+02 -0.37928880011E+03  0.39086831571E+03  0.81540776062E+02 0.  0.
        -11    1    3    3    0    0 -0.47291608581E+01 -0.84460125322E+01 -0.21129745809E+00  0.96821865677E+01  0.00000000000E+00 0.  1.
         12    1    3    3    0    0 -0.38003751808E+02 -0.12602653657E+02 -0.37907750265E+03  0.38118612914E+03  0.00000000000E+00 0. -1.
          1    1    1    2  501    0  0.42732912666E+02  0.21048666190E+02 -0.19093086497E+04  0.19099027902E+04  0.00000000000E+00 0. -1.
<mgrwt>
<rscale>  1 0.94435408E+02</rscale>
<asrwt>0</asrwt>
<pdfrwt beam="1">  1       21 0.93643458E-03 0.94435408E+02</pdfrwt>
<pdfrwt beam="2">  1        2 0.35302854E+00 0.94435408E+02</pdfrwt>
<totfact> 0.28157075E+05</totfact>
</mgrwt>
</event>
<event>
 6    2  0.8544106E+000  0.8813406E+02  0.7546771E-02  0.1307434E+00
         21   -1    0    0  501  502  0.00000000000E+00  0.00000000000E+00  0.11301324556E+02  0.11301324556E+02  0.00000000000E+00 0. -1.
          2   -1    0    0  502    0 -0.00000000000E+00 -0.00000000000E+00 -0.35411725778E+03  0.35411725778E+03  0.00000000000E+00 0. -1.
         24    2    1    2    0    0  0.33962898181E+02  0.13848876776E+02 -0.21282115402E+03  0.23034855434E+03  0.80139522401E+02 0.  0.
        -13    1    3    3    0    0  0.16153670439E+02 -0.33226152675E+02 -0.74558984131E+02  0.83210338329E+02  0.00000000000E+00 0.  1.
         14    1    3    3    0    0  0.17809227741E+02  0.47075029450E+02 -0.13826216988E+03  0.14713821601E+03  0.00000000000E+00 0. -1.
          1    1    1    2  501    0 -0.33962898181E+02 -0.13848876776E+02 -0.12999477921E+03  0.13507002800E+03  0.00000000000E+00 0. -1.
<mgrwt>
<rscale>  1 0.88134062E+02</rscale>
<asrwt>0</asrwt>
<pdfrwt beam="1">  1       21 0.17386653E-02 0.88134062E+02</pdfrwt>
<pdfrwt beam="2">  1        2 0.54479580E-01 0.88134062E+02</pdfrwt>
<totfact> 0.16259753E+06</totfact>
</mgrwt>
</event>
<event>
 6    2  0.8544106E+000  0.9791007E+02  0.7546771E-02  0.1284753E+00
         -1   -1    0    0    0  501 -0.00000000000E+00  0.00000000000E+00  0.44559373819E+03  0.44559373819E+03  0.00000000000E+00 0.  1.
         21   -1    0    0  501  502  0.00000000000E+00 -0.00000000000E+00 -0.14069258586E+02  0.14069258586E+02  0.00000000000E+00 0. -1.
         24    2    1    2    0    0  0.28982066270E+02 -0.50812153987E+02  0.23397973891E+03  0.25363930946E+03  0.78514622372E+02 0.  0.
        -11    1    3    3    0    0  0.15956644696E+02 -0.53162716383E+01  0.18415777297E+03  0.18492420772E+03  0.00000000000E+00 0.  1.
         12    1    3    3    0    0  0.13025421575E+02 -0.45495882349E+02  0.49821965939E+02  0.68715101746E+02  0.00000000000E+00 0. -1.
         -2    1    1    2    0  502 -0.28982066270E+02  0.50812153987E+02  0.19754474070E+03  0.20602368732E+03  0.00000000000E+00 0.  1.
<mgrwt>
<rscale>  1 0.97910066E+02</rscale>
<asrwt>0</asrwt>
<pdfrwt beam="1">  1       21 0.21645017E-02 0.97910066E+02</pdfrwt>
<pdfrwt beam="2">  1       -1 0.68552872E-01 0.97910066E+02</pdfrwt>
<totfact> 0.21553265E+05</totfact>
</mgrwt>
</event>
<event>
 6    2  0.8544106E+000  0.1165791E+03  0.7546771E-02  0.1248850E+00
          2   -1    0    0  502    0 -0.00000000000E+00  0.00000000000E+00  0.13532932343E+04  0.13532932343E+04  0.00000000000E+00 0. -1.
         21   -1    0    0  501  502  0.00000000000E+00 -0.00000000000E+00 -0.10201453216E+02  0.10201453216E+02  0.00000000000E+00 0.  1.
         24    2    1    2    0    0 -0.47368896427E+02 -0.74562490606E+02  0.41062882583E+03  0.42685679576E+03  0.76074398640E+02 0.  0.
        -11    1    3    3    0    0 -0.37175710137E+02 -0.89520123430E+02  0.31678532600E+03  0.33128360764E+03  0.00000000000E+00 0.  1.
         12    1    3    3    0    0 -0.10193186290E+02  0.14957632824E+02  0.93843499836E+02  0.95573188123E+02  0.00000000000E+00 0. -1.
          1    1    1    2  501    0  0.47368896427E+02  0.74562490606E+02  0.93246295527E+03  0.93663789178E+03  0.00000000000E+00 0. -1.
<mgrwt>
<rscale>  1 0.11657912E+03</rscale>
<asrwt>0</asrwt>
<pdfrwt beam="1">  1       21 0.15694554E-02 0.11657912E+03</pdfrwt>
<pdfrwt beam="2">  1        2 0.20819882E+00 0.11657912E+03</pdfrwt>
<totfact> 0.37831537E+05</totfact>
</mgrwt>
</event>
<event>
 6    2  0.8544106E+000  0.8405887E+02  0.7546771E-02  0.1317912E+00
          2   -1    0    0  502    0 -0.00000000000E+00  0.00000000000E+00  0.13945283719E+04  0.13945283719E+04  0.00000000000E+00 0. -1.
         21   -1    0    0  501  502  0.00000000000E+00 -0.00000000000E+00 -0.35726518640E+01  0.35726518640E+01  0.00000000000E+00 0. -1.
         24    2    1    2    0    0 -0.51263468156E+01  0.21495751029E+02  0.13390643844E+04  0.13417001598E+04  0.81102074208E+02 0.  0.
        -11    1    3    3    0    0 -0.25931489250E+02  0.35659832439E+01  0.14653266211E+03  0.14885220669E+03  0.00000000000E+00 0.  1.
         12    1    3    3    0    0  0.20805142434E+02  0.17929767785E+02  0.11925317223E+04  0.11928479531E+04  0.00000000000E+00 0. -1.
          1    1    1    2  501    0  0.51263468156E+01 -0.21495751029E+02  0.51891335624E+02  0.56400863972E+02  0.00000000000E+00 0. -1.
<mgrwt>
<rscale>  1 0.84058867E+02</rscale>
<asrwt>0</asrwt>
<pdfrwt beam="1">  1       21 0.54963986E-03 0.84058867E+02</pdfrwt>
<pdfrwt beam="2">  1        2 0.21454239E+00 0.84058867E+02</pdfrwt>
<totfact> 0.18211101E+06</totfact>
</mgrwt>
</event>
<event>
 6    2  0.8544106E+000  0.8256399E+02  0.7546771E-02  0.1321929E+00
         21   -1    0    0  501  502  0.00000000000E+00  0.00000000000E+00  0.46918182527E+02  0.46918182527E+02  0.00000000000E+00 0.  1.
          2   -1    0    0  502    0 -0.00000000000E+00 -0.00000000000E+00 -0.58311025962E+02  0.58311025962E+02  0.00000000000E+00 0. -1.
         24    2    1    2    0    0  0.17467955585E+02 -0.12632950276E+02 -0.13131894624E+02  0.83601790611E+02  0.79700011493E+02 0.  0.
        -13    1    3    3    0    0  0.17579688678E+02  0.18345295145E+02  0.24201129638E+02  0.35089741859E+02  0.00000000000E+00 0.  1.
         14    1    3    3    0    0 -0.11173309315E+00 -0.30978245421E+02 -0.37333024262E+02  0.48512048753E+02  0.00000000000E+00 0. -1.
          1    1    1    2  501    0 -0.17467955585E+02  0.12632950276E+02  0.17390511887E+01  0.21627417877E+02  0.00000000000E+00 0. -1.
<mgrwt>
<rscale>  1 0.82563992E+02</rscale>
<asrwt>0</asrwt>
<pdfrwt beam="1">  1       21 0.72181819E-02 0.82563992E+02</pdfrwt>
<pdfrwt beam="2">  1        2 0.89709271E-02 0.82563992E+02</pdfrwt>
<totfact> 0.11656094E+06</totfact>
</mgrwt>
</event>
<event>
 6    2  0.8544106E+000  0.8980898E+02  0.7546771E-02  0.1303315E+00
         -3   -1    0    0    0  501 -0.00000000000E+00  0.00000000000E+00  0.77150484457E+03  0.77150484457E+03  0.00000000000E+00 0.  1.
         21   -1    0    0  501  502  0.00000000000E+00 -0.00000000000E+00 -0.61273152242E+01  0.61273152242E+01  0.00000000000E+00 0.  1.
         24    2    1    2    0    0  0.22228902742E+02 -0.26580626897E+02  0.67307144976E+03  0.67903669250E+03  0.82855292106E+02 0.  0.
        -11    1    3    3    0    0  0.42433067811E+02 -0.37142147177E+02  0.59605776246E+03  0.59871943390E+03  0.00000000000E+00 0.  1.
         12    1    3    3    0    0 -0.20204165069E+02  0.10561520279E+02  0.77013687300E+02  0.80317258595E+02  0.00000000000E+00 0. -1.
         -4    1    1    2    0  502 -0.22228902742E+02  0.26580626897E+02  0.92306079587E+02  0.98595467299E+02  0.00000000000E+00 0.  1.
<mgrwt>
<rscale>  1 0.89808982E+02</rscale>
<asrwt>0</asrwt>
<pdfrwt beam="1">  1       21 0.94266449E-03 0.89808982E+02</pdfrwt>
<pdfrwt beam="2">  1       -3 0.11869298E+00 0.89808982E+02</pdfrwt>
<totfact> 0.11276916E+05</totfact>
</mgrwt>
</event>
<event>
 6    2  0.8544106E+000  0.8017228E+02  0.7546771E-02  0.1328563E+00
         21   -1    0    0  501  502  0.00000000000E+00  0.00000000000E+00  0.14708165192E+01  0.14708165192E+01  0.00000000000E+00 0. -1.
          2   -1    0    0  502    0 -0.00000000000E+00 -0.00000000000E+00 -0.20505759191E+04  0.20505759191E+04  0.00000000000E+00 0. -1.
         24    2    1    2    0    0  0.14582216149E+02 -0.14801180291E+02 -0.18738432701E+04  0.18755575691E+04  0.77433056449E+02 0.  0.
        -11    1    3    3    0    0  0.20771261416E+02  0.20978405097E+02 -0.33848106810E+03  0.33976605517E+03  0.00000000000E+00 0.  1.
         12    1    3    3    0    0 -0.61890452676E+01 -0.35779585388E+02 -0.15353622020E+04  0.15357915140E+04  0.00000000000E+00 0. -1.
          1    1    1    2  501    0 -0.14582216149E+02  0.14801180291E+02 -0.17526183245E+03  0.17648916646E+03  0.00000000000E+00 0. -1.
<mgrwt>
<rscale>  1 0.80172278E+02</rscale>
<asrwt>0</asrwt>
<pdfrwt beam="1">  1       21 0.22627974E-03 0.80172278E+02</pdfrwt>
<pdfrwt beam="2">  1        2 0.31547283E+00 0.80172278E+02</pdfrwt>
<totfact> 0.32584451E+06</totfact>
</mgrwt>
</event>
<event>
 6    2  0.8544106E+000  0.9511075E+02  0.7546771E-02  0.1290927E+00
         21   -1    0    0  501  502  0.00000000000E+00  0.00000000000E+00  0.32220143989E+01  0.32220143989E+01  0.00000000000E+00 0. -1.
          2   -1    0    0  502    0 -0.00000000000E+00 -0.00000000000E+00 -0.25756809568E+04  0.25756809568E+04  0.00000000000E+00 0. -1.
         24    2    1    2    0    0  0.30972434126E+01  0.51154399664E+02 -0.22803470106E+04  0.22823296308E+04  0.80122964582E+02 0.  0.
        -13    1    3    3    0    0  0.49968284341E+01 -0.18350841992E+02 -0.92930277051E+03  0.92949737007E+03  0.00000000000E+00 0.  1.
         14    1    3    3    0    0 -0.18995850216E+01  0.69505241656E+02 -0.13510442401E+04  0.13528322607E+04  0.00000000000E+00 0. -1.
          1    1    1    2  501    0 -0.30972434126E+01 -0.51154399664E+02 -0.29211193179E+03  0.29657334036E+03  0.00000000000E+00 0. -1.
<mgrwt>
<rscale>  1 0.95110751E+02</rscale>
<asrwt>0</asrwt>
<pdfrwt beam="1">  1       21 0.49569404E-03 0.95110751E+02</pdfrwt>
<pdfrwt beam="2">  1        2 0.39625900E+00 0.95110751E+02</pdfrwt>
<totfact> 0.53752515E+05</totfact>
</mgrwt>
</event>
<event>
 6    2  0.8544106E+000  0.8801623E+02  0.7546771E-02  0.1307728E+00
         21   -1    0    0  501  502  0.00000000000E+00  0.00000000000E+00  0.18431528262E+01  0.18431528262E+01  0.00000000000E+00 0. -1.
         -1   -1    0    0    0  501 -0.00000000000E+00 -0.00000000000E+00 -0.21706251869E+04  0.21706251869E+04  0.00000000000E+00 0.  1.
         24    2    1    2    0    0  0.19065713442E+02 -0.33070774674E+02 -0.14402383408E+04  0.14429252700E+04  0.79307496160E+02 0.  0.
        -11    1    3    3    0    0  0.11193971549E+02 -0.48652846395E+02 -0.13549070355E+04  0.13558264931E+04  0.00000000000E+00 0.  1.
         12    1    3    3    0    0  0.78717418934E+01  0.15582071721E+02 -0.85331305232E+02  0.87098776870E+02  0.00000000000E+00 0. -1.
         -2    1    1    2    0  502 -0.19065713442E+02  0.33070774674E+02 -0.72854369328E+03  0.72954306972E+03  0.00000000000E+00 0.  1.
<mgrwt>
<rscale>  1 0.88016229E+02</rscale>
<asrwt>0</asrwt>
<pdfrwt beam="1">  1       21 0.28356195E-03 0.88016229E+02</pdfrwt>
<pdfrwt beam="2">  1       -1 0.33394237E+00 0.88016229E+02</pdfrwt>
<totfact> 0.60259239E+04</totfact>
</mgrwt>
</event>
<event>
 6    2  0.8544106E+000  0.8878592E+02  0.7546771E-02  0.1305819E+00
         -1   -1    0    0    0  501 -0.00000000000E+00  0.00000000000E+00  0.10730786087E+03  0.10730786087E+03  0.00000000000E+00 0.  1.
         21   -1    0    0  501  502  0.00000000000E+00 -0.00000000000E+00 -0.35964098330E+02  0.35964098330E+02  0.00000000000E+00 0. -1.
         24    2    1    2    0    0  0.17031333478E+01  0.34485247986E+02  0.43253592171E+02  0.98761391204E+02  0.81797348154E+02 0.  0.
        -11    1    3    3    0    0 -0.26498350757E+02  0.16999677122E+02  0.55156312697E+02  0.63508821792E+02  0.00000000000E+00 0.  1.
         12    1    3    3    0    0  0.28201484105E+02  0.17485570864E+02 -0.11902720527E+02  0.35252569412E+02  0.00000000000E+00 0. -1.
         -2    1    1    2    0  502 -0.17031333478E+01 -0.34485247986E+02  0.28090170367E+02  0.44510567994E+02  0.00000000000E+00 0.  1.
<mgrwt>
<rscale>  1 0.88785918E+02</rscale>
<asrwt>0</asrwt>
<pdfrwt beam="1">  1       21 0.55329383E-02 0.88785918E+02</pdfrwt>
<pdfrwt beam="2">  1       -1 0.16508902E-01 0.88785918E+02</pdfrwt>
<totfact> 0.52402779E+05</totfact>
</mgrwt>
</event>
<event>
 6    2  0.8544106E+000  0.9011243E+02  0.7546771E-02  0.1302580E+00
          2   -1    0    0  502    0 -0.00000000000E+00  0.00000000000E+00  0.30833197171E+03  0.30833197171E+03  0.00000000000E+00 0. -1.
         21   -1    0    0  501  502  0.00000000000E+00 -0.00000000000E+00 -0.13594925012E+02  0.13594925012E+02  0.00000000000E+00 0. -1.
         24    2    1    2    0    0  0.38217523729E+02 -0.85996056239E+01  0.19699073549E+03  0.21662317556E+03  0.81152436699E+02 0.  0.
        -11    1    3    3    0    0  0.10453761260E+02  0.35672151438E+02  0.69010938443E+02  0.78385541635E+02  0.00000000000E+00 0.  1.
         12    1    3    3    0    0  0.27763762469E+02 -0.44271757062E+02  0.12797979705E+03  0.13823763392E+03  0.00000000000E+00 0. -1.
          1    1    1    2  501    0 -0.38217523729E+02  0.85996056239E+01  0.97746311204E+02  0.10530372116E+03  0.00000000000E+00 0. -1.
<mgrwt>
<rscale>  1 0.90112432E+02</rscale>
<asrwt>0</asrwt>
<pdfrwt beam="1">  1       21 0.20915272E-02 0.90112432E+02</pdfrwt>
<pdfrwt beam="2">  1        2 0.47435683E-01 0.90112432E+02</pdfrwt>
<totfact> 0.14026550E+06</totfact>
</mgrwt>
</event>
<event>
 6    2  0.8544106E+000  0.8954894E+02  0.7546771E-02  0.1303948E+00
         21   -1    0    0  501  502  0.00000000000E+00  0.00000000000E+00  0.15604611663E+03  0.15604611663E+03  0.00000000000E+00 0. -1.
          4   -1    0    0  502    0 -0.00000000000E+00 -0.00000000000E+00 -0.52593095739E+02  0.52593095739E+02  0.00000000000E+00 0. -1.
         24    2    1    2    0    0  0.22237381337E+02  0.32310043131E+02 -0.85603155830E+01  0.89957168387E+02  0.80502006965E+02 0.  0.
        -11    1    3    3    0    0  0.41389055343E-01  0.17352583627E+01  0.33427792839E+02  0.33472827319E+02  0.00000000000E+00 0.  1.
         12    1    3    3    0    0  0.22195992282E+02  0.30574784768E+02 -0.41988108422E+02  0.56484341068E+02  0.00000000000E+00 0. -1.
          3    1    1    2  501    0 -0.22237381337E+02 -0.32310043131E+02  0.11201333647E+03  0.11868204398E+03  0.00000000000E+00 0. -1.
<mgrwt>
<rscale>  1 0.89548943E+02</rscale>
<asrwt>0</asrwt>
<pdfrwt beam="1">  1       21 0.24007095E-01 0.89548943E+02</pdfrwt>
<pdfrwt beam="2">  1        4 0.80912456E-02 0.89548943E+02</pdfrwt>
<totfact> 0.67878308E+04</totfact>
</mgrwt>
</event>
<event>
 6    2  0.8544106E+000  0.1243494E+03  0.7546771E-02  0.1236090E+00
         -1   -1    0    0    0  501 -0.00000000000E+00  0.00000000000E+00  0.70335775043E+02  0.70335775043E+02  0.00000000000E+00 0.  1.
         21   -1    0    0  501  502  0.00000000000E+00 -0.00000000000E+00 -0.22673236503E+03  0.22673236503E+03  0.00000000000E+00 0.  1.
         24    2    1    2    0    0  0.86469873904E+02  0.39438223185E+02 -0.12987560026E+02  0.12502581268E+03  0.80189554053E+02 0.  0.
        -13    1    3    3    0    0  0.54197745039E+01  0.26581535216E+02  0.22858643682E+02  0.35474914532E+02  0.00000000000E+00 0.  1.
         14    1    3    3    0    0  0.81050099400E+02  0.12856687969E+02 -0.35846203708E+02  0.89550898145E+02  0.00000000000E+00 0. -1.
         -2    1    1    2    0  502 -0.86469873904E+02 -0.39438223185E+02 -0.14340902996E+03  0.17204232739E+03  0.00000000000E+00 0.  1.
<mgrwt>
<rscale>  1 0.12434942E+03</rscale>
<asrwt>0</asrwt>
<pdfrwt beam="1">  1       21 0.34881903E-01 0.12434942E+03</pdfrwt>
<pdfrwt beam="2">  1       -1 0.10820888E-01 0.12434942E+03</pdfrwt>
<totfact> 0.37895586E+04</totfact>
</mgrwt>
</event>
<event>
 6    2  0.8544106E+000  0.8362078E+02  0.7546771E-02  0.1319079E+00
         21   -1    0    0  501  502  0.00000000000E+00  0.00000000000E+00  0.41105315178E+02  0.41105315178E+02  0.00000000000E+00 0.  1.
         -3   -1    0    0    0  501 -0.00000000000E+00 -0.00000000000E+00 -0.10988892684E+04  0.10988892684E+04  0.00000000000E+00 0.  1.
         24    2    1    2    0    0 -0.13384410179E+02 -0.22538481369E+02 -0.10929441596E+04  0.10961383902E+04  0.79405974541E+02 0.  0.
        -13    1    3    3    0    0  0.12436603533E+02 -0.17513677243E+02 -0.97746640720E+03  0.97770239603E+03  0.00000000000E+00 0.  1.
         14    1    3    3    0    0 -0.25821013711E+02 -0.50248041268E+01 -0.11547775244E+03  0.11843599416E+03  0.00000000000E+00 0. -1.
         -4    1    1    2    0  502  0.13384410179E+02  0.22538481369E+02  0.35160206445E+02  0.43856193355E+02  0.00000000000E+00 0.  1.
<mgrwt>
<rscale>  1 0.83620777E+02</rscale>
<asrwt>0</asrwt>
<pdfrwt beam="1">  1       21 0.63238948E-02 0.83620777E+02</pdfrwt>
<pdfrwt beam="2">  1       -3 0.16905988E+00 0.83620777E+02</pdfrwt>
<totfact> 0.21994932E+03</totfact>
</mgrwt>
</event>
<event>
 6    2  0.8544106E+000  0.9271838E+02  0.7546771E-02  0.1296399E+00
          2   -1    0    0  502    0 -0.00000000000E+00  0.00000000000E+00  0.13947487406E+04  0.13947487406E+04  0.00000000000E+00 0. -1.
         21   -1    0    0  501  502  0.00000000000E+00 -0.00000000000E+00 -0.34451143936E+01  0.34451143936E+01  0.00000000000E+00 0. -1.
         24    2    1    2    0    0  0.38567108133E+02  0.24897558978E+02  0.92138268393E+03  0.92603604000E+03  0.80556730657E+02 0.  0.
        -11    1    3    3    0    0  0.18106159211E+02  0.44314521463E+02  0.28221634433E+03  0.28624757609E+03  0.00000000000E+00 0.  1.
         12    1    3    3    0    0  0.20460948922E+02 -0.19416962484E+02  0.63916633960E+03  0.63978846390E+03  0.00000000000E+00 0. -1.
          1    1    1    2  501    0 -0.38567108133E+02 -0.24897558978E+02  0.46992094233E+03  0.47215781505E+03  0.00000000000E+00 0. -1.
<mgrwt>
<rscale>  1 0.92718375E+02</rscale>
<asrwt>0</asrwt>
<pdfrwt beam="1">  1       21 0.53001871E-03 0.92718375E+02</pdfrwt>
<pdfrwt beam="2">  1        2 0.21457628E+00 0.92718375E+02</pdfrwt>
<totfact> 0.19405905E+06</totfact>
</mgrwt>
</event>
<event>
 6    2  0.8544106E+000  0.8822213E+02  0.7546771E-02  0.1307215E+00
          2   -1    0    0  502    0 -0.00000000000E+00  0.00000000000E+00  0.10378045481E+04  0.10378045481E+04  0.00000000000E+00 0. -1.
         21   -1    0    0  501  502  0.00000000000E+00 -0.00000000000E+00 -0.24207668158E+02  0.24207668158E+02  0.00000000000E+00 0. -1.
         24    2    1    2    0    0 -0.28507228053E+01  0.21074354079E+02  0.10308556763E+04  0.10346238781E+04  0.85620609945E+02 0.  0.
        -11    1    3    3    0    0 -0.59343812745E+01  0.25799716747E+02  0.91538755990E+02  0.95290010565E+02  0.00000000000E+00 0.  1.
         12    1    3    3    0    0  0.30836584692E+01 -0.47253626675E+01  0.93931692027E+03  0.93933386754E+03  0.00000000000E+00 0. -1.
          1    1    1    2  501    0  0.28507228053E+01 -0.21074354079E+02 -0.17258796275E+02  0.27388338197E+02  0.00000000000E+00 0. -1.
<mgrwt>
<rscale>  1 0.88222128E+02</rscale>
<asrwt>0</asrwt>
<pdfrwt beam="1">  1       21 0.37242574E-02 0.88222128E+02</pdfrwt>
<pdfrwt beam="2">  1        2 0.15966220E+00 0.88222128E+02</pdfrwt>
<totfact> 0.13815246E+05</totfact>
</mgrwt>
</event>
<event>
 6    2  0.8544106E+000  0.1244026E+03  0.7546771E-02  0.1236006E+00
         21   -1    0    0  501  502  0.00000000000E+00  0.00000000000E+00  0.35467001933E+01  0.35467001933E+01  0.00000000000E+00 0.  1.
          2   -1    0    0  502    0 -0.00000000000E+00 -0.00000000000E+00 -0.34451466579E+04  0.34451466579E+04  0.00000000000E+00 0. -1.
         24    2    1    2    0    0  0.14324346943E+02 -0.95210501171E+02 -0.20413137985E+04  0.20451009834E+04  0.78776787033E+02 0.  0.
        -11    1    3    3    0    0  0.13255141924E+02 -0.98917639036E+02 -0.13167012656E+04  0.13204781789E+04  0.00000000000E+00 0.  1.
         12    1    3    3    0    0  0.10692050191E+01  0.37071378646E+01 -0.72461253286E+03  0.72462280453E+03  0.00000000000E+00 0. -1.
          1    1    1    2  501    0 -0.14324346943E+02  0.95210501171E+02 -0.14002861593E+04  0.14035923747E+04  0.00000000000E+00 0. -1.
<mgrwt>
<rscale>  1 0.12440261E+03</rscale>
<asrwt>0</asrwt>
<pdfrwt beam="1">  1       21 0.54564651E-03 0.12440261E+03</pdfrwt>
<pdfrwt beam="2">  1        2 0.53002225E+00 0.12440261E+03</pdfrwt>
<totfact> 0.14541104E+05</totfact>
</mgrwt>
</event>
<event>
 6    2  0.8544106E+000  0.8555906E+02  0.7546771E-02  0.1313977E+00
          2   -1    0    0  502    0 -0.00000000000E+00  0.00000000000E+00  0.33432193033E+03  0.33432193033E+03  0.00000000000E+00 0. -1.
         21   -1    0    0  501  502  0.00000000000E+00 -0.00000000000E+00 -0.98175126559E+01  0.98175126559E+01  0.00000000000E+00 0.  1.
         24    2    1    2    0    0  0.11272779656E+02 -0.25901185626E+02  0.26014984028E+03  0.27385816091E+03  0.80761413583E+02 0.  0.
        -13    1    3    3    0    0  0.28953110511E+02 -0.48425132666E+02  0.18610885414E+03  0.19447308727E+03  0.00000000000E+00 0.  1.
         14    1    3    3    0    0 -0.17680330855E+02  0.22523947040E+02  0.74040986133E+02  0.79385073641E+02  0.00000000000E+00 0. -1.
          1    1    1    2  501    0 -0.11272779656E+02  0.25901185626E+02  0.64354577401E+02  0.70281282077E+02  0.00000000000E+00 0. -1.
<mgrwt>
<rscale>  1 0.85559061E+02</rscale>
<asrwt>0</asrwt>
<pdfrwt beam="1">  1       21 0.15103868E-02 0.85559061E+02</pdfrwt>
<pdfrwt beam="2">  1        2 0.51434134E-01 0.85559061E+02</pdfrwt>
<totfact> 0.21509611E+06</totfact>
</mgrwt>
</event>
<event>
 6    2  0.8544106E+000  0.8187574E+02  0.7546771E-02  0.1323811E+00
          2   -1    0    0  502    0 -0.00000000000E+00  0.00000000000E+00  0.88817452735E+03  0.88817452735E+03  0.00000000000E+00 0. -1.
         21   -1    0    0  501  502  0.00000000000E+00 -0.00000000000E+00 -0.63154783729E+01  0.63154783729E+01  0.00000000000E+00 0. -1.
         24    2    1    2    0    0  0.21700655367E+02 -0.48959031559E+01  0.85789029029E+03  0.86178848123E+03  0.78795608363E+02 0.  0.
        -11    1    3    3    0    0 -0.24534760899E+02  0.93323957143E+01  0.15260834046E+03  0.15484945489E+03  0.00000000000E+00 0.  1.
         12    1    3    3    0    0  0.46235416267E+02 -0.14228298870E+02  0.70528194983E+03  0.70693902634E+03  0.00000000000E+00 0. -1.
          1    1    1    2  501    0 -0.21700655367E+02  0.48959031559E+01  0.23968758686E+02  0.32701524491E+02  0.00000000000E+00 0. -1.
<mgrwt>
<rscale>  1 0.81875736E+02</rscale>
<asrwt>0</asrwt>
<pdfrwt beam="1">  1       21 0.97161276E-03 0.81875736E+02</pdfrwt>
<pdfrwt beam="2">  1        2 0.13664214E+00 0.81875736E+02</pdfrwt>
<totfact> 0.14414529E+06</totfact>
</mgrwt>
</event>
<event>
 6    2  0.8544106E+000  0.8406784E+02  0.7546771E-02  0.1317888E+00
         21   -1    0    0  501  502  0.00000000000E+00  0.00000000000E+00  0.13769651142E+03  0.13769651142E+03  0.00000000000E+00 0. -1.
          2   -1    0    0  502    0 -0.00000000000E+00 -0.00000000000E+00 -0.17388794932E+04  0.17388794932E+04  0.00000000000E+00 0. -1.
         24    2    1    2    0    0 -0.24338209409E+02  0.26722929564E+01 -0.17367662444E+04  0.17387996980E+04  0.80423332847E+02 0.  0.
        -11    1    3    3    0    0 -0.53317413934E+02 -0.39854474328E+01 -0.99148423272E+03  0.99292477769E+03  0.00000000000E+00 0.  1.
         12    1    3    3    0    0  0.28979204525E+02  0.66577403892E+01 -0.74528201168E+03  0.74587492030E+03  0.00000000000E+00 0. -1.
          1    1    1    2  501    0  0.24338209409E+02 -0.26722929564E+01  0.13558326258E+03  0.13777630667E+03  0.00000000000E+00 0. -1.
<mgrwt>
<rscale>  1 0.84067842E+02</rscale>
<asrwt>0</asrwt>
<pdfrwt beam="1">  1       21 0.21184080E-01 0.84067842E+02</pdfrwt>
<pdfrwt beam="2">  1        2 0.26751990E+00 0.84067842E+02</pdfrwt>
<totfact> 0.29632495E+03</totfact>
</mgrwt>
</event>
<event>
 6    2  0.8544106E+000  0.8500695E+02  0.7546771E-02  0.1315414E+00
         21   -1    0    0  501  502  0.00000000000E+00  0.00000000000E+00  0.94569606503E+01  0.94569606503E+01  0.00000000000E+00 0. -1.
          2   -1    0    0  502    0 -0.00000000000E+00 -0.00000000000E+00 -0.13267243062E+04  0.13267243062E+04  0.00000000000E+00 0. -1.
         24    2    1    2    0    0 -0.27134641600E+02  0.11091908930E+01 -0.13024953318E+04  0.13052663599E+04  0.80552231944E+02 0.  0.
        -13    1    3    3    0    0  0.28097422388E+02  0.15766574820E+01 -0.32706672282E+03  0.32827517751E+03  0.00000000000E+00 0.  1.
         14    1    3    3    0    0 -0.55232063988E+02 -0.46746658902E+00 -0.97542860894E+03  0.97699118243E+03  0.00000000000E+00 0. -1.
          1    1    1    2  501    0  0.27134641600E+02 -0.11091908930E+01 -0.14772013843E+02  0.30914906957E+02  0.00000000000E+00 0. -1.
<mgrwt>
<rscale>  1 0.85006948E+02</rscale>
<asrwt>0</asrwt>
<pdfrwt beam="1">  1       21 0.14549168E-02 0.85006948E+02</pdfrwt>
<pdfrwt beam="2">  1        2 0.20411146E+00 0.85006948E+02</pdfrwt>
<totfact> 0.43481512E+05</totfact>
</mgrwt>
</event>
<event>
 6    2  0.8544106E+000  0.8375361E+02  0.7546771E-02  0.1318725E+00
         21   -1    0    0  501  502  0.00000000000E+00  0.00000000000E+00  0.62209103845E+00  0.62209103845E+00  0.00000000000E+00 0. -1.
          2   -1    0    0  502    0 -0.00000000000E+00 -0.00000000000E+00 -0.46022781631E+04  0.46022781631E+04  0.00000000000E+00 0. -1.
         24    2    1    2    0    0  0.13888612226E+02 -0.18633198369E+02 -0.36394517401E+04  0.36404153108E+04  0.80464757808E+02 0.  0.
        -13    1    3    3    0    0 -0.10093052449E+02  0.23048968494E+02 -0.53524206972E+03  0.53583318100E+03  0.00000000000E+00 0.  1.
         14    1    3    3    0    0  0.23981664675E+02 -0.41682166864E+02 -0.31042096704E+04  0.31045821298E+04  0.00000000000E+00 0. -1.
          1    1    1    2  501    0 -0.13888612226E+02  0.18633198369E+02 -0.96220433198E+03  0.96248494332E+03  0.00000000000E+00 0. -1.
<mgrwt>
<rscale>  1 0.83753608E+02</rscale>
<asrwt>0</asrwt>
<pdfrwt beam="1">  1       21 0.95708151E-04 0.83753608E+02</pdfrwt>
<pdfrwt beam="2">  1        2 0.70802920E+00 0.83753608E+02</pdfrwt>
<totfact> 0.26839997E+05</totfact>
</mgrwt>
</event>
<event>
 6    2  0.8544106E+000  0.1114977E+03  0.7546771E-02  0.1257821E+00
         21   -1    0    0  501  502  0.00000000000E+00  0.00000000000E+00  0.40505190462E+02  0.40505190462E+02  0.00000000000E+00 0. -1.
          2   -1    0    0  502    0 -0.00000000000E+00 -0.00000000000E+00 -0.22039068999E+03  0.22039068999E+03  0.00000000000E+00 0. -1.
         24    2    1    2    0    0 -0.36693904426E+02  0.68221514517E+02 -0.10531942389E+03  0.15337510432E+03  0.80194288512E+02 0.  0.
        -13    1    3    3    0    0  0.25052681339E+02  0.25089674657E+02 -0.25815012751E+02  0.43858220438E+02  0.00000000000E+00 0.  1.
         14    1    3    3    0    0 -0.61746585765E+02  0.43131839861E+02 -0.79504411143E+02  0.10951688388E+03  0.00000000000E+00 0. -1.
          1    1    1    2  501    0  0.36693904426E+02 -0.68221514517E+02 -0.74566075635E+02  0.10752077613E+03  0.00000000000E+00 0. -1.
<mgrwt>
<rscale>  1 0.11149772E+03</rscale>
<asrwt>0</asrwt>
<pdfrwt beam="1">  1       21 0.62315677E-02 0.11149772E+03</pdfrwt>
<pdfrwt beam="2">  1        2 0.33906260E-01 0.11149772E+03</pdfrwt>
<totfact> 0.33816073E+05</totfact>
</mgrwt>
</event>
<event>
 6    2  0.8544106E+000  0.8650312E+02  0.7546771E-02  0.1311548E+00
         21   -1    0    0  501  502  0.00000000000E+00  0.00000000000E+00  0.91444373126E+03  0.91444373126E+03  0.00000000000E+00 0.  1.
         -3   -1    0    0    0  501 -0.00000000000E+00 -0.00000000000E+00 -0.61402038268E+01  0.61402038268E+01  0.00000000000E+00 0.  1.
         24    2    1    2    0    0  0.16127442045E+02  0.21465078383E+02  0.31466435356E+03  0.32633793154E+03  0.82231053637E+02 0.  0.
        -13    1    3    3    0    0  0.10331119113E+02  0.15790292540E+02  0.96102258558E+01  0.21175972272E+02  0.00000000000E+00 0.  1.
         14    1    3    3    0    0  0.57963229315E+01  0.56747858427E+01  0.30505412771E+03  0.30516195927E+03  0.00000000000E+00 0. -1.
         -4    1    1    2    0  502 -0.16127442045E+02 -0.21465078383E+02  0.59363917387E+03  0.59424600354E+03  0.00000000000E+00 0.  1.
<mgrwt>
<rscale>  1 0.86503122E+02</rscale>
<asrwt>0</asrwt>
<pdfrwt beam="1">  1       21 0.14068354E+00 0.86503122E+02</pdfrwt>
<pdfrwt beam="2">  1       -3 0.94464747E-03 0.86503122E+02</pdfrwt>
<totfact> 0.49240434E+04</totfact>
</mgrwt>
</event>
<event>
 6    2  0.8544106E+000  0.1017374E+03  0.7546771E-02  0.1276684E+00
         -3   -1    0    0    0  501 -0.00000000000E+00  0.00000000000E+00  0.40335138457E+02  0.40335138457E+02  0.00000000000E+00 0.  1.
         21   -1    0    0  501  502  0.00000000000E+00 -0.00000000000E+00 -0.21374215157E+03  0.21374215157E+03  0.00000000000E+00 0.  1.
         24    2    1    2    0    0  0.59391974410E+02  0.17138601046E+02 -0.44357867811E+02  0.11098703818E+03  0.80804479686E+02 0.  0.
        -11    1    3    3    0    0  0.44229349890E+02  0.16403811130E+02  0.15171222341E+02  0.49552864687E+02  0.00000000000E+00 0.  1.
         12    1    3    3    0    0  0.15162624519E+02  0.73478991622E+00 -0.59529090153E+02  0.61434173494E+02  0.00000000000E+00 0. -1.
         -4    1    1    2    0  502 -0.59391974410E+02 -0.17138601046E+02 -0.12904914530E+03  0.14309025184E+03  0.00000000000E+00 0.  1.
<mgrwt>
<rscale>  1 0.10173742E+03</rscale>
<asrwt>0</asrwt>
<pdfrwt beam="1">  1       21 0.32883408E-01 0.10173742E+03</pdfrwt>
<pdfrwt beam="2">  1       -3 0.62054059E-02 0.10173742E+03</pdfrwt>
<totfact> 0.66610478E+04</totfact>
</mgrwt>
</event>
<event>
 6    2  0.8544106E+000  0.9155149E+02  0.7546771E-02  0.1299137E+00
         21   -1    0    0  501  502  0.00000000000E+00  0.00000000000E+00  0.13972085922E+02  0.13972085922E+02  0.00000000000E+00 0. -1.
         -1   -1    0    0    0  501 -0.00000000000E+00 -0.00000000000E+00 -0.27137968766E+03  0.27137968766E+03  0.00000000000E+00 0.  1.
         24    2    1    2    0    0  0.93957594613E+01 -0.24953803427E+02 -0.22779245807E+03  0.24550168781E+03  0.87582544861E+02 0.  0.
        -13    1    3    3    0    0 -0.26375450950E+02  0.16156739706E+02 -0.12920389287E+03  0.13285462198E+03  0.00000000000E+00 0.  1.
         14    1    3    3    0    0  0.35771210411E+02 -0.41110543133E+02 -0.98588565199E+02  0.11264706583E+03  0.00000000000E+00 0. -1.
         -2    1    1    2    0  502 -0.93957594613E+01  0.24953803427E+02 -0.29615143669E+02  0.39850085770E+02  0.00000000000E+00 0.  1.
<mgrwt>
<rscale>  1 0.91551487E+02</rscale>
<asrwt>0</asrwt>
<pdfrwt beam="1">  1       21 0.21495517E-02 0.91551487E+02</pdfrwt>
<pdfrwt beam="2">  1       -1 0.41750722E-01 0.91551487E+02</pdfrwt>
<totfact> 0.53899756E+05</totfact>
</mgrwt>
</event>
<event>
 6    2  0.8544106E+000  0.8440535E+02  0.7546771E-02  0.1316995E+00
          2   -1    0    0  502    0 -0.00000000000E+00  0.00000000000E+00  0.29900792710E+03  0.29900792710E+03  0.00000000000E+00 0. -1.
         21   -1    0    0  501  502  0.00000000000E+00 -0.00000000000E+00 -0.10806905047E+02  0.10806905047E+02  0.00000000000E+00 0. -1.
         24    2    1    2    0    0 -0.26875521038E+01 -0.28506700467E+02  0.19995577576E+03  0.21704049086E+03  0.79400299149E+02 0.  0.
        -11    1    3    3    0    0 -0.85421610566E+01  0.14602182700E+02  0.55168509613E+01  0.17794041128E+02  0.00000000000E+00 0.  1.
         12    1    3    3    0    0  0.58546089528E+01 -0.43108883168E+02  0.19443892479E+03  0.19924644973E+03  0.00000000000E+00 0. -1.
          1    1    1    2  501    0  0.26875521038E+01  0.28506700467E+02  0.88245246303E+02  0.92774341296E+02  0.00000000000E+00 0. -1.
<mgrwt>
<rscale>  1 0.84405346E+02</rscale>
<asrwt>0</asrwt>
<pdfrwt beam="1">  1       21 0.16626010E-02 0.84405346E+02</pdfrwt>
<pdfrwt beam="2">  1        2 0.46001213E-01 0.84405346E+02</pdfrwt>
<totfact> 0.20719321E+06</totfact>
</mgrwt>
</event>
<event>
 6    2  0.8544106E+000  0.1180041E+03  0.7546771E-02  0.1246427E+00
          2   -1    0    0  502    0 -0.00000000000E+00  0.00000000000E+00  0.72729665683E+03  0.72729665683E+03  0.00000000000E+00 0. -1.
         21   -1    0    0  501  502  0.00000000000E+00 -0.00000000000E+00 -0.31963169514E+02  0.31963169514E+02  0.00000000000E+00 0. -1.
         24    2    1    2    0    0 -0.39621798378E+02  0.14815732395E+02  0.70587033253E+03  0.71566604306E+03  0.11016154504E+03 0.  0.
        -13    1    3    3    0    0 -0.21672535949E+02 -0.47969813667E+02  0.32687345831E+03  0.33108467133E+03  0.00000000000E+00 0.  1.
         14    1    3    3    0    0 -0.17949262429E+02  0.62785546062E+02  0.37899687422E+03  0.38458137173E+03  0.00000000000E+00 0. -1.
          1    1    1    2  501    0  0.39621798378E+02 -0.14815732395E+02 -0.10536845223E+02  0.43593783277E+02  0.00000000000E+00 0. -1.
<mgrwt>
<rscale>  1 0.11800406E+03</rscale>
<asrwt>0</asrwt>
<pdfrwt beam="1">  1       21 0.49174112E-02 0.11800406E+03</pdfrwt>
<pdfrwt beam="2">  1        2 0.11189178E+00 0.11800406E+03</pdfrwt>
<totfact> 0.13830172E+05</totfact>
</mgrwt>
</event>
<event>
 6    2  0.8544106E+000  0.9258747E+02  0.7546771E-02  0.1296704E+00
          2   -1    0    0  502    0 -0.00000000000E+00  0.00000000000E+00  0.23933425580E+04  0.23933425580E+04  0.00000000000E+00 0. -1.
         21   -1    0    0  501  502  0.00000000000E+00 -0.00000000000E+00 -0.27262036054E+01  0.27262036054E+01  0.00000000000E+00 0. -1.
         24    2    1    2    0    0  0.34601802874E+02 -0.17639779400E+02  0.21758375702E+04  0.21778065965E+04  0.84047565438E+02 0.  0.
        -11    1    3    3    0    0  0.38132535373E+02 -0.33304624430E+02  0.67975126641E+03  0.68163411919E+03  0.00000000000E+00 0.  1.
         12    1    3    3    0    0 -0.35307324987E+01  0.15664845030E+02  0.14960863038E+04  0.14961724773E+04  0.00000000000E+00 0. -1.
          1    1    1    2  501    0 -0.34601802874E+02  0.17639779400E+02  0.21477878420E+03  0.21826216511E+03  0.00000000000E+00 0. -1.
<mgrwt>
<rscale>  1 0.92587471E+02</rscale>
<asrwt>0</asrwt>
<pdfrwt beam="1">  1       21 0.41941785E-03 0.92587471E+02</pdfrwt>
<pdfrwt beam="2">  1        2 0.36820487E+00 0.92587471E+02</pdfrwt>
<totfact> 0.86461487E+05</totfact>
</mgrwt>
</event>
<event>
 6    2  0.8544106E+000  0.8646950E+02  0.7546771E-02  0.1311634E+00
          2   -1    0    0  502    0 -0.00000000000E+00  0.00000000000E+00  0.20154596046E+03  0.20154596046E+03  0.00000000000E+00 0. -1.
         21   -1    0    0  501  502  0.00000000000E+00 -0.00000000000E+00 -0.27335972132E+02  0.27335972132E+02  0.00000000000E+00 0. -1.
         24    2    1    2    0    0 -0.16761520178E+02 -0.20487246304E+02  0.18182439896E+03  0.20133823877E+03  0.82318275713E+02 0.  0.
        -13    1    3    3    0    0  0.10614773391E+02 -0.47477837427E+01 -0.44168654688E+01  0.12438792754E+02  0.00000000000E+00 0.  1.
         14    1    3    3    0    0 -0.27376293569E+02 -0.15739462561E+02  0.18624126443E+03  0.18889944602E+03  0.00000000000E+00 0. -1.
          1    1    1    2  501    0  0.16761520178E+02  0.20487246304E+02 -0.76144106317E+01  0.27543693817E+02  0.00000000000E+00 0. -1.
<mgrwt>
<rscale>  1 0.86469499E+02</rscale>
<asrwt>0</asrwt>
<pdfrwt beam="1">  1       21 0.42055343E-02 0.86469499E+02</pdfrwt>
<pdfrwt beam="2">  1        2 0.31007070E-01 0.86469499E+02</pdfrwt>
<totfact> 0.70213464E+05</totfact>
</mgrwt>
</event>
<event>
 6    2  0.8544106E+000  0.9335159E+02  0.7546771E-02  0.1294932E+00
          2   -1    0    0  502    0 -0.00000000000E+00  0.00000000000E+00  0.13150350644E+04  0.13150350644E+04  0.00000000000E+00 0. -1.
         21   -1    0    0  501  502  0.00000000000E+00 -0.00000000000E+00 -0.38085068389E+01  0.38085068389E+01  0.00000000000E+00 0.  1.
         24    2    1    2    0    0  0.38725207065E+02 -0.27656180193E+02  0.92411938863E+03  0.92882246129E+03  0.80311980406E+02 0.  0.
        -13    1    3    3    0    0  0.47329382149E+02 -0.42110317676E+02  0.45360388696E+03  0.45800637063E+03  0.00000000000E+00 0.  1.
         14    1    3    3    0    0 -0.86041750843E+01  0.14454137483E+02  0.47051550167E+03  0.47081609066E+03  0.00000000000E+00 0. -1.
          1    1    1    2  501    0 -0.38725207065E+02  0.27656180193E+02  0.38710716894E+03  0.39002110996E+03  0.00000000000E+00 0. -1.
<mgrwt>
<rscale>  1 0.93351594E+02</rscale>
<asrwt>0</asrwt>
<pdfrwt beam="1">  1       21 0.58592518E-03 0.93351594E+02</pdfrwt>
<pdfrwt beam="2">  1        2 0.20231272E+00 0.93351594E+02</pdfrwt>
<totfact> 0.18319951E+06</totfact>
</mgrwt>
</event>
<event>
 6    2  0.8544106E+000  0.9356619E+02  0.7546771E-02  0.1294438E+00
          4   -1    0    0  502    0 -0.00000000000E+00  0.00000000000E+00  0.10293241876E+03  0.10293241876E+03  0.00000000000E+00 0. -1.
         21   -1    0    0  501  502  0.00000000000E+00 -0.00000000000E+00 -0.78770112070E+02  0.78770112070E+02  0.00000000000E+00 0. -1.
         24    2    1    2    0    0 -0.14444614178E+02  0.43381735091E+02  0.70081094366E+02  0.11690162899E+03  0.81633383206E+02 0.  0.
        -13    1    3    3    0    0  0.81741175553E+01  0.29178451887E+01 -0.16527197951E+02  0.18667573234E+02  0.00000000000E+00 0.  1.
         14    1    3    3    0    0 -0.22618731733E+02  0.40463889902E+02  0.86608292317E+02  0.98234055751E+02  0.00000000000E+00 0. -1.
          3    1    1    2  501    0  0.14444614178E+02 -0.43381735091E+02 -0.45918787676E+02  0.64800901845E+02  0.00000000000E+00 0. -1.
<mgrwt>
<rscale>  1 0.93566186E+02</rscale>
<asrwt>0</asrwt>
<pdfrwt beam="1">  1       21 0.12118479E-01 0.93566186E+02</pdfrwt>
<pdfrwt beam="2">  1        4 0.15835757E-01 0.93566186E+02</pdfrwt>
<totfact> 0.75609869E+04</totfact>
</mgrwt>
</event>
<event>
 6    2  0.8544106E+000  0.9865373E+02  0.7546771E-02  0.1283153E+00
         21   -1    0    0  501  502  0.00000000000E+00  0.00000000000E+00  0.10830088211E+02  0.10830088211E+02  0.00000000000E+00 0. -1.
          2   -1    0    0  502    0 -0.00000000000E+00 -0.00000000000E+00 -0.92161354687E+03  0.92161354687E+03  0.00000000000E+00 0. -1.
         24    2    1    2    0    0  0.37170813685E+02  0.34071704008E+02 -0.83865522617E+03  0.84443776979E+03  0.84793916404E+02 0.  0.
        -13    1    3    3    0    0  0.44771879770E+02 -0.71128409210E+01 -0.62953555937E+03  0.63116569475E+03  0.00000000000E+00 0.  1.
         14    1    3    3    0    0 -0.76010660844E+01  0.41184544929E+02 -0.20911966680E+03  0.21327207503E+03  0.00000000000E+00 0. -1.
          1    1    1    2  501    0 -0.37170813685E+02 -0.34071704008E+02 -0.72128232489E+02  0.88005865294E+02  0.00000000000E+00 0. -1.
<mgrwt>
<rscale>  1 0.98653731E+02</rscale>
<asrwt>0</asrwt>
<pdfrwt beam="1">  1       21 0.16661672E-02 0.98653731E+02</pdfrwt>
<pdfrwt beam="2">  1        2 0.14178672E+00 0.98653731E+02</pdfrwt>
<totfact> 0.59671515E+05</totfact>
</mgrwt>
</event>
<event>
 6    2  0.8544106E+000  0.8603101E+02  0.7546771E-02  0.1312758E+00
         -3   -1    0    0    0  501 -0.00000000000E+00  0.00000000000E+00  0.63963348147E+03  0.63963348147E+03  0.00000000000E+00 0.  1.
         21   -1    0    0  501  502  0.00000000000E+00 -0.00000000000E+00 -0.34854382015E+02  0.34854382015E+02  0.00000000000E+00 0.  1.
         24    2    1    2    0    0 -0.29215738352E+02 -0.80795226350E+01  0.62951331177E+03  0.63536473335E+03  0.80513952998E+02 0.  0.
        -13    1    3    3    0    0  0.94492008019E+00 -0.40120855490E+02  0.36715537906E+03  0.36934218320E+03  0.00000000000E+00 0.  1.
         14    1    3    3    0    0 -0.30160658433E+02  0.32041332855E+02  0.26235793271E+03  0.26602255014E+03  0.00000000000E+00 0. -1.
         -4    1    1    2    0  502  0.29215738352E+02  0.80795226350E+01 -0.24734212312E+02  0.39123130143E+02  0.00000000000E+00 0.  1.
<mgrwt>
<rscale>  1 0.86031010E+02</rscale>
<asrwt>0</asrwt>
<pdfrwt beam="1">  1       21 0.53622131E-02 0.86031010E+02</pdfrwt>
<pdfrwt beam="2">  1       -3 0.98405142E-01 0.86031010E+02</pdfrwt>
<totfact> 0.10504360E+04</totfact>
</mgrwt>
</event>
<event>
 6    2  0.8544106E+000  0.8956885E+02  0.7546771E-02  0.1303899E+00
          2   -1    0    0  502    0 -0.00000000000E+00  0.00000000000E+00  0.21531027189E+03  0.21531027189E+03  0.00000000000E+00 0. -1.
         21   -1    0    0  501  502  0.00000000000E+00 -0.00000000000E+00 -0.18338325318E+02  0.18338325318E+02  0.00000000000E+00 0. -1.
         24    2    1    2    0    0  0.18389106100E+02 -0.30274019305E+02  0.12971424826E+03  0.15763364177E+03  0.82267267778E+02 0.  0.
        -11    1    3    3    0    0  0.69712503682E+00  0.28281256396E+02  0.37456209785E+02  0.46939142495E+02  0.00000000000E+00 0.  1.
         12    1    3    3    0    0  0.17691981063E+02 -0.58555275701E+02  0.92258038480E+02  0.11069449928E+03  0.00000000000E+00 0. -1.
          1    1    1    2  501    0 -0.18389106100E+02  0.30274019305E+02  0.67257698305E+02  0.76014955432E+02  0.00000000000E+00 0. -1.
<mgrwt>
<rscale>  1 0.89568850E+02</rscale>
<asrwt>0</asrwt>
<pdfrwt beam="1">  1       21 0.28212810E-02 0.89568850E+02</pdfrwt>
<pdfrwt beam="2">  1        2 0.33124655E-01 0.89568850E+02</pdfrwt>
<totfact> 0.12616467E+06</totfact>
</mgrwt>
</event>
<event>
 6    2  0.8544106E+000  0.9244043E+02  0.7546771E-02  0.1297047E+00
         21   -1    0    0  501  502  0.00000000000E+00  0.00000000000E+00  0.22086277777E+02  0.22086277777E+02  0.00000000000E+00 0.  1.
         -3   -1    0    0    0  501 -0.00000000000E+00 -0.00000000000E+00 -0.95861674899E+03  0.95861674899E+03  0.00000000000E+00 0.  1.
         24    2    1    2    0    0 -0.11563338112E+02  0.23035257222E+02 -0.94799664322E+03  0.95249297601E+03  0.88774432860E+02 0.  0.
        -11    1    3    3    0    0 -0.46008702828E+02  0.32579475885E+02 -0.54074080734E+03  0.54367163225E+03  0.00000000000E+00 0.  1.
         12    1    3    3    0    0  0.34445364716E+02 -0.95442186632E+01 -0.40725583587E+03  0.40882134376E+03  0.00000000000E+00 0. -1.
         -4    1    1    2    0  502  0.11563338112E+02 -0.23035257222E+02  0.11466172002E+02  0.28210050761E+02  0.00000000000E+00 0.  1.
<mgrwt>
<rscale>  1 0.92440434E+02</rscale>
<asrwt>0</asrwt>
<pdfrwt beam="1">  1       21 0.33978889E-02 0.92440434E+02</pdfrwt>
<pdfrwt beam="2">  1       -3 0.14747950E+00 0.92440434E+02</pdfrwt>
<totfact> 0.87135509E+03</totfact>
</mgrwt>
</event>
<event>
 6    2  0.8544106E+000  0.1039624E+03  0.7546771E-02  0.1272178E+00
         21   -1    0    0  501  502  0.00000000000E+00  0.00000000000E+00  0.34482133525E+02  0.34482133525E+02  0.00000000000E+00 0. -1.
          2   -1    0    0  502    0 -0.00000000000E+00 -0.00000000000E+00 -0.22083635041E+03  0.22083635041E+03  0.00000000000E+00 0. -1.
         24    2    1    2    0    0  0.33672501074E+02 -0.52651271038E+02 -0.15155490728E+03  0.18378537538E+03  0.83079363341E+02 0.  0.
        -11    1    3    3    0    0  0.65364982669E+01 -0.66429889242E+02 -0.69941971250E+02  0.96682652718E+02  0.00000000000E+00 0.  1.
         12    1    3    3    0    0  0.27136002807E+02  0.13778618204E+02 -0.81612936028E+02  0.87102722662E+02  0.00000000000E+00 0. -1.
          1    1    1    2  501    0 -0.33672501074E+02  0.52651271038E+02 -0.34799309607E+02  0.71533108556E+02  0.00000000000E+00 0. -1.
<mgrwt>
<rscale>  1 0.10396237E+03</rscale>
<asrwt>0</asrwt>
<pdfrwt beam="1">  1       21 0.53049434E-02 0.10396237E+03</pdfrwt>
<pdfrwt beam="2">  1        2 0.33974824E-01 0.10396237E+03</pdfrwt>
<totfact> 0.44020316E+05</totfact>
</mgrwt>
</event>
<event>
 6    2  0.8544106E+000  0.8373729E+02  0.7546771E-02  0.1318768E+00
          2   -1    0    0  502    0 -0.00000000000E+00  0.00000000000E+00  0.34373380286E+03  0.34373380286E+03  0.00000000000E+00 0. -1.
         21   -1    0    0  501  502  0.00000000000E+00 -0.00000000000E+00 -0.87914554071E+01  0.87914554071E+01  0.00000000000E+00 0.  1.
         24    2    1    2    0    0 -0.10700299275E+02 -0.18682222509E+02  0.21625832280E+03  0.23190428351E+03  0.80922263251E+02 0.  0.
        -11    1    3    3    0    0 -0.38282104975E+02 -0.34697127074E+02  0.12628762728E+03  0.13644770058E+03  0.00000000000E+00 0.  1.
         12    1    3    3    0    0  0.27581805700E+02  0.16014904564E+02  0.89970695519E+02  0.95456582937E+02  0.00000000000E+00 0. -1.
          1    1    1    2  501    0  0.10700299275E+02  0.18682222509E+02  0.11868402465E+03  0.12062097475E+03  0.00000000000E+00 0. -1.
<mgrwt>
<rscale>  1 0.83737295E+02</rscale>
<asrwt>0</asrwt>
<pdfrwt beam="1">  1       21 0.13525319E-02 0.83737295E+02</pdfrwt>
<pdfrwt beam="2">  1        2 0.52882113E-01 0.83737295E+02</pdfrwt>
<totfact> 0.24805337E+06</totfact>
</mgrwt>
</event>
<event>
 6    2  0.8544106E+000  0.9504255E+02  0.7546771E-02  0.1291080E+00
          2   -1    0    0  502    0 -0.00000000000E+00  0.00000000000E+00  0.18825960823E+04  0.18825960823E+04  0.00000000000E+00 0. -1.
         21   -1    0    0  501  502  0.00000000000E+00 -0.00000000000E+00 -0.28692844096E+01  0.28692844096E+01  0.00000000000E+00 0.  1.
         24    2    1    2    0    0  0.63591261526E+01 -0.51552913410E+02  0.12238218744E+04  0.12275068498E+04  0.79592365110E+02 0.  0.
        -13    1    3    3    0    0 -0.33628416063E+02 -0.37418704124E+02  0.52716594066E+03  0.52956110014E+03  0.00000000000E+00 0.  1.
         14    1    3    3    0    0  0.39987542215E+02 -0.14134209286E+02  0.69665593374E+03  0.69794574963E+03  0.00000000000E+00 0. -1.
          1    1    1    2  501    0 -0.63591261526E+01  0.51552913410E+02  0.65590492352E+03  0.65795851698E+03  0.00000000000E+00 0. -1.
<mgrwt>
<rscale>  1 0.95042548E+02</rscale>
<asrwt>0</asrwt>
<pdfrwt beam="1">  1       21 0.44142988E-03 0.95042548E+02</pdfrwt>
<pdfrwt beam="2">  1        2 0.28962918E+00 0.95042548E+02</pdfrwt>
<totfact> 0.14554328E+06</totfact>
</mgrwt>
</event>
<event>
 6    2  0.8544106E+000  0.8799701E+02  0.7546771E-02  0.1307776E+00
         21   -1    0    0  501  502  0.00000000000E+00  0.00000000000E+00  0.42823634602E+01  0.42823634602E+01  0.00000000000E+00 0. -1.
          2   -1    0    0  502    0 -0.00000000000E+00 -0.00000000000E+00 -0.98127129720E+03  0.98127129720E+03  0.00000000000E+00 0. -1.
         24    2    1    2    0    0 -0.22852697137E+02  0.22787720662E+02 -0.51711852969E+03  0.52455223496E+03  0.81865422922E+02 0.  0.
        -11    1    3    3    0    0  0.32147451713E+01 -0.28420524986E+02 -0.12396548135E+03  0.12722225196E+03  0.00000000000E+00 0.  1.
         12    1    3    3    0    0 -0.26067442308E+02  0.51208245647E+02 -0.39315304834E+03  0.39732998300E+03  0.00000000000E+00 0. -1.
          1    1    1    2  501    0  0.22852697137E+02 -0.22787720662E+02 -0.45987040405E+03  0.46100142570E+03  0.00000000000E+00 0. -1.
<mgrwt>
<rscale>  1 0.87997008E+02</rscale>
<asrwt>0</asrwt>
<pdfrwt beam="1">  1       21 0.65882587E-03 0.87997008E+02</pdfrwt>
<pdfrwt beam="2">  1        2 0.15096465E+00 0.87997008E+02</pdfrwt>
<totfact> 0.23287704E+06</totfact>
</mgrwt>
</event>
<event>
 6    2  0.8544106E+000  0.8588122E+02  0.7546771E-02  0.1313144E+00
          2   -1    0    0  502    0 -0.00000000000E+00  0.00000000000E+00  0.35138128218E+03  0.35138128218E+03  0.00000000000E+00 0. -1.
         21   -1    0    0  501  502  0.00000000000E+00 -0.00000000000E+00 -0.24014934254E+02  0.24014934254E+02  0.00000000000E+00 0. -1.
         24    2    1    2    0    0 -0.15468181738E+02  0.13163584125E+02  0.34052982502E+03  0.35119246213E+03  0.83444826885E+02 0.  0.
        -11    1    3    3    0    0 -0.67913729570E+01  0.48761700916E+02  0.19767514421E+03  0.20371374245E+03  0.00000000000E+00 0.  1.
         12    1    3    3    0    0 -0.86768087811E+01 -0.35598116791E+02  0.14285468081E+03  0.14747871968E+03  0.00000000000E+00 0. -1.
          1    1    1    2  501    0  0.15468181738E+02 -0.13163584125E+02 -0.13163477095E+02  0.24203754306E+02  0.00000000000E+00 0. -1.
<mgrwt>
<rscale>  1 0.85881219E+02</rscale>
<asrwt>0</asrwt>
<pdfrwt beam="1">  1       21 0.36946055E-02 0.85881219E+02</pdfrwt>
<pdfrwt beam="2">  1        2 0.54058655E-01 0.85881219E+02</pdfrwt>
<totfact> 0.48458218E+05</totfact>
</mgrwt>
</event>
<event>
 6    2  0.8544106E+000  0.7919161E+02  0.7546771E-02  0.1331361E+00
          2   -1    0    0  502    0 -0.00000000000E+00  0.00000000000E+00  0.22603471249E+03  0.22603471249E+03  0.00000000000E+00 0. -1.
         21   -1    0    0  501  502  0.00000000000E+00 -0.00000000000E+00 -0.36455133303E+02  0.36455133303E+02  0.00000000000E+00 0. -1.
         24    2    1    2    0    0 -0.12461284247E+01  0.45876912851E+02  0.20027745242E+03  0.21536566453E+03  0.64537334474E+02 0.  0.
        -11    1    3    3    0    0 -0.12124105727E+01 -0.13040408838E+02  0.83985652887E+02  0.85000659368E+02  0.00000000000E+00 0.  1.
         12    1    3    3    0    0 -0.33717852056E-01  0.58917321689E+02  0.11629179953E+03  0.13036500516E+03  0.00000000000E+00 0. -1.
          1    1    1    2  501    0  0.12461284247E+01 -0.45876912851E+02 -0.10697873227E+02  0.47124181271E+02  0.00000000000E+00 0. -1.
<mgrwt>
<rscale>  1 0.79191613E+02</rscale>
<asrwt>0</asrwt>
<pdfrwt beam="1">  1       21 0.56084822E-02 0.79191613E+02</pdfrwt>
<pdfrwt beam="2">  1        2 0.34774570E-01 0.79191613E+02</pdfrwt>
<totfact> 0.38273190E+05</totfact>
</mgrwt>
</event>
<event>
 6    2  0.8544106E+000  0.8743077E+02  0.7546771E-02  0.1309195E+00
         21   -1    0    0  501  502  0.00000000000E+00  0.00000000000E+00  0.34428788998E+02  0.34428788998E+02  0.00000000000E+00 0.  1.
         -1   -1    0    0    0  501 -0.00000000000E+00 -0.00000000000E+00 -0.11558532454E+03  0.11558532454E+03  0.00000000000E+00 0.  1.
         24    2    1    2    0    0  0.17285649124E+02 -0.28423275982E+02 -0.76971829306E+02  0.11648519991E+03  0.80854579386E+02 0.  0.
        -11    1    3    3    0    0  0.33162318700E+02 -0.42926393219E+02 -0.77941761802E+02  0.94959638000E+02  0.00000000000E+00 0.  1.
         12    1    3    3    0    0 -0.15876669576E+02  0.14503117237E+02  0.96993249565E+00  0.21525561908E+02  0.00000000000E+00 0. -1.
         -2    1    1    2    0  502 -0.17285649124E+02  0.28423275982E+02 -0.41847062406E+01  0.33528913635E+02  0.00000000000E+00 0.  1.
<mgrwt>
<rscale>  1 0.87430769E+02</rscale>
<asrwt>0</asrwt>
<pdfrwt beam="1">  1       21 0.52967367E-02 0.87430769E+02</pdfrwt>
<pdfrwt beam="2">  1       -1 0.17782358E-01 0.87430769E+02</pdfrwt>
<totfact> 0.50087945E+05</totfact>
</mgrwt>
</event>
<event>
 6    2  0.8544106E+000  0.8204992E+02  0.7546771E-02  0.1323333E+00
         21   -1    0    0  501  502  0.00000000000E+00  0.00000000000E+00  0.15063305310E+02  0.15063305310E+02  0.00000000000E+00 0.  1.
         -1   -1    0    0    0  501 -0.00000000000E+00 -0.00000000000E+00 -0.52106794376E+03  0.52106794376E+03  0.00000000000E+00 0.  1.
         24    2    1    2    0    0 -0.19198304904E+02 -0.10000760409E+02 -0.50782234044E+03  0.51440812405E+03  0.79142899377E+02 0.  0.
        -13    1    3    3    0    0 -0.47538637860E+02 -0.18442275828E+02 -0.36607268808E+03  0.36960688925E+03  0.00000000000E+00 0.  1.
         14    1    3    3    0    0  0.28340332956E+02  0.84415154184E+01 -0.14174965236E+03  0.14480123480E+03  0.00000000000E+00 0. -1.
         -2    1    1    2    0  502  0.19198304904E+02  0.10000760409E+02  0.18177019898E+01  0.21723125017E+02  0.00000000000E+00 0.  1.
<mgrwt>
<rscale>  1 0.82049916E+02</rscale>
<asrwt>0</asrwt>
<pdfrwt beam="1">  1       21 0.23174313E-02 0.82049916E+02</pdfrwt>
<pdfrwt beam="2">  1       -1 0.80164310E-01 0.82049916E+02</pdfrwt>
<totfact> 0.13971933E+05</totfact>
</mgrwt>
</event>
<event>
 6    2  0.8544106E+000  0.8515527E+02  0.7546771E-02  0.1315027E+00
         -3   -1    0    0    0  501 -0.00000000000E+00  0.00000000000E+00  0.16933198406E+04  0.16933198406E+04  0.00000000000E+00 0.  1.
         21   -1    0    0  501  502  0.00000000000E+00 -0.00000000000E+00 -0.23674441863E+01  0.23674441863E+01  0.00000000000E+00 0. -1.
         24    2    1    2    0    0 -0.37459030148E+01  0.22886258612E+02  0.15821914447E+04  0.15844813621E+04  0.81936600742E+02 0.  0.
        -11    1    3    3    0    0  0.31594016877E+02 -0.12967689166E+02  0.73853310209E+03  0.73932231520E+03  0.00000000000E+00 0.  1.
         12    1    3    3    0    0 -0.35339919892E+02  0.35853947779E+02  0.84365834258E+03  0.84515904687E+03  0.00000000000E+00 0. -1.
         -4    1    1    2    0  502  0.37459030148E+01 -0.22886258612E+02  0.10876095173E+03  0.11120592270E+03  0.00000000000E+00 0.  1.
<mgrwt>
<rscale>  1 0.85155265E+02</rscale>
<asrwt>0</asrwt>
<pdfrwt beam="1">  1       21 0.36422353E-03 0.85155265E+02</pdfrwt>
<pdfrwt beam="2">  1       -3 0.26050978E+00 0.85155265E+02</pdfrwt>
<totfact> 0.61029787E+04</totfact>
</mgrwt>
</event>
<event>
 6    2  0.8544106E+000  0.8614206E+02  0.7546771E-02  0.1312473E+00
         21   -1    0    0  501  502  0.00000000000E+00  0.00000000000E+00  0.54443440668E+03  0.54443440668E+03  0.00000000000E+00 0. -1.
         -1   -1    0    0    0  501 -0.00000000000E+00 -0.00000000000E+00 -0.65641097718E+01  0.65641097718E+01  0.00000000000E+00 0.  1.
         24    2    1    2    0    0  0.20831025860E+02  0.24581592284E+02  0.42373382442E+03  0.43240121181E+03  0.79889096218E+02 0.  0.
        -13    1    3    3    0    0  0.42473628599E+02  0.36680061227E+02  0.21514462181E+03  0.22234352771E+03  0.00000000000E+00 0.  1.
         14    1    3    3    0    0 -0.21642602739E+02 -0.12098468943E+02  0.20858920261E+03  0.21005768410E+03  0.00000000000E+00 0. -1.
         -2    1    1    2    0  502 -0.20831025860E+02 -0.24581592284E+02  0.11413647249E+03  0.11859730464E+03  0.00000000000E+00 0.  1.
<mgrwt>
<rscale>  1 0.86142057E+02</rscale>
<asrwt>0</asrwt>
<pdfrwt beam="1">  1       21 0.83759104E-01 0.86142057E+02</pdfrwt>
<pdfrwt beam="2">  1       -1 0.10098635E-02 0.86142057E+02</pdfrwt>
<totfact> 0.18961925E+05</totfact>
</mgrwt>
</event>
<event>
 6    2  0.8544106E+000  0.8734521E+02  0.7546771E-02  0.1309411E+00
         -1   -1    0    0    0  501 -0.00000000000E+00  0.00000000000E+00  0.23090964691E+03  0.23090964691E+03  0.00000000000E+00 0.  1.
         21   -1    0    0  501  502  0.00000000000E+00 -0.00000000000E+00 -0.31918080210E+02  0.31918080210E+02  0.00000000000E+00 0.  1.
         24    2    1    2    0    0 -0.21180783661E+02 -0.32273178950E+02  0.20585537467E+03  0.22361936659E+03  0.78351784643E+02 0.  0.
        -13    1    3    3    0    0 -0.12995445068E+02 -0.43380558524E+02  0.20483825712E+03  0.20978433218E+03  0.00000000000E+00 0.  1.
         14    1    3    3    0    0 -0.81853385928E+01  0.11107379574E+02  0.10171175514E+01  0.13835034405E+02  0.00000000000E+00 0. -1.
         -2    1    1    2    0  502  0.21180783661E+02  0.32273178950E+02 -0.68638079663E+01  0.39208360535E+02  0.00000000000E+00 0.  1.
<mgrwt>
<rscale>  1 0.87345211E+02</rscale>
<asrwt>0</asrwt>
<pdfrwt beam="1">  1       21 0.49104740E-02 0.87345211E+02</pdfrwt>
<pdfrwt beam="2">  1       -1 0.35524560E-01 0.87345211E+02</pdfrwt>
<totfact> 0.18413709E+05</totfact>
</mgrwt>
</event>
<event>
 6    2  0.8544106E+000  0.8598254E+02  0.7546771E-02  0.1312883E+00
         21   -1    0    0  501  502  0.00000000000E+00  0.00000000000E+00  0.19723513990E+02  0.19723513990E+02  0.00000000000E+00 0. -1.
          2   -1    0    0  502    0 -0.00000000000E+00 -0.00000000000E+00 -0.35818933479E+03  0.35818933479E+03  0.00000000000E+00 0. -1.
         24    2    1    2    0    0  0.25285756954E+02 -0.14068109539E+02 -0.33821772912E+03  0.34897597334E+03  0.80967379050E+02 0.  0.
        -11    1    3    3    0    0  0.12447206346E+02  0.57961312674E+01 -0.45409167259E+01  0.14461950360E+02  0.00000000000E+00 0.  1.
         12    1    3    3    0    0  0.12838550608E+02 -0.19864240807E+02 -0.33367681239E+03  0.33451402298E+03  0.00000000000E+00 0. -1.
          1    1    1    2  501    0 -0.25285756954E+02  0.14068109539E+02 -0.24809168538E+00  0.28936875440E+02  0.00000000000E+00 0. -1.
<mgrwt>
<rscale>  1 0.85982543E+02</rscale>
<asrwt>0</asrwt>
<pdfrwt beam="1">  1       21 0.30343868E-02 0.85982543E+02</pdfrwt>
<pdfrwt beam="2">  1        2 0.55106051E-01 0.85982543E+02</pdfrwt>
<totfact> 0.65488328E+05</totfact>
</mgrwt>
</event>
<event>
 6    2  0.8544106E+000  0.8324690E+02  0.7546771E-02  0.1320082E+00
          2   -1    0    0  502    0 -0.00000000000E+00  0.00000000000E+00  0.10396812409E+04  0.10396812409E+04  0.00000000000E+00 0. -1.
         21   -1    0    0  501  502  0.00000000000E+00 -0.00000000000E+00 -0.10028946946E+02  0.10028946946E+02  0.00000000000E+00 0. -1.
         24    2    1    2    0    0  0.10400258683E+02 -0.19766835079E+02  0.10230325335E+04  0.10264139568E+04  0.80194470896E+02 0.  0.
        -11    1    3    3    0    0  0.11521949062E+02 -0.23712439845E+02  0.10136459732E+03  0.10473689275E+03  0.00000000000E+00 0.  1.
         12    1    3    3    0    0 -0.11216903793E+01  0.39456047668E+01  0.92166793614E+03  0.92167706410E+03  0.00000000000E+00 0. -1.
          1    1    1    2  501    0 -0.10400258683E+02  0.19766835079E+02  0.66197605056E+01  0.23296231001E+02  0.00000000000E+00 0. -1.
<mgrwt>
<rscale>  1 0.83246900E+02</rscale>
<asrwt>0</asrwt>
<pdfrwt beam="1">  1       21 0.15429157E-02 0.83246900E+02</pdfrwt>
<pdfrwt beam="2">  1        2 0.15995087E+00 0.83246900E+02</pdfrwt>
<totfact> 0.56752511E+05</totfact>
</mgrwt>
</event>
<event>
 6    2  0.8544106E+000  0.9541845E+02  0.7546771E-02  0.1290236E+00
          2   -1    0    0  502    0 -0.00000000000E+00  0.00000000000E+00  0.25481589158E+04  0.25481589158E+04  0.00000000000E+00 0. -1.
         21   -1    0    0  501  502  0.00000000000E+00 -0.00000000000E+00 -0.19301022498E+01  0.19301022498E+01  0.00000000000E+00 0.  1.
         24    2    1    2    0    0 -0.41779031285E+02  0.83713761774E+01  0.19547113130E+04  0.19570388339E+04  0.85376302657E+02 0.  0.
        -11    1    3    3    0    0  0.15971487014E+02 -0.32638992048E+01  0.94557105123E+02  0.95952006570E+02  0.00000000000E+00 0.  1.
         12    1    3    3    0    0 -0.57750518299E+02  0.11635275382E+02  0.18601542078E+04  0.18610868274E+04  0.00000000000E+00 0. -1.
          1    1    1    2  501    0  0.41779031285E+02 -0.83713761774E+01  0.59151750056E+03  0.59305018410E+03  0.00000000000E+00 0. -1.
<mgrwt>
<rscale>  1 0.95418449E+02</rscale>
<asrwt>0</asrwt>
<pdfrwt beam="1">  1       21 0.29694085E-03 0.95418449E+02</pdfrwt>
<pdfrwt beam="2">  1        2 0.39202176E+00 0.95418449E+02</pdfrwt>
<totfact> 0.12138630E+06</totfact>
</mgrwt>
</event>
<event>
 6    2  0.8544106E+000  0.8477179E+02  0.7546771E-02  0.1316030E+00
         21   -1    0    0  501  502  0.00000000000E+00  0.00000000000E+00  0.91101796661E+01  0.91101796661E+01  0.00000000000E+00 0. -1.
          2   -1    0    0  502    0 -0.00000000000E+00 -0.00000000000E+00 -0.42879386378E+03  0.42879386378E+03  0.00000000000E+00 0. -1.
         24    2    1    2    0    0  0.24356489752E+02  0.15821096544E+02 -0.21398113400E+03  0.23016121009E+03  0.79641140322E+02 0.  0.
        -11    1    3    3    0    0 -0.26969114673E+02  0.16898345553E+02 -0.61117099427E+02  0.68907090136E+02  0.00000000000E+00 0.  1.
         12    1    3    3    0    0  0.51325604425E+02 -0.10772490091E+01 -0.15286403458E+03  0.16125411995E+03  0.00000000000E+00 0. -1.
          1    1    1    2  501    0 -0.24356489752E+02 -0.15821096544E+02 -0.20570255011E+03  0.20774283336E+03  0.00000000000E+00 0. -1.
<mgrwt>
<rscale>  1 0.84771793E+02</rscale>
<asrwt>0</asrwt>
<pdfrwt beam="1">  1       21 0.14015661E-02 0.84771793E+02</pdfrwt>
<pdfrwt beam="2">  1        2 0.65968286E-01 0.84771793E+02</pdfrwt>
<totfact> 0.18628004E+06</totfact>
</mgrwt>
</event>
<event>
 6    2  0.8544106E+000  0.1037002E+03  0.7546771E-02  0.1272702E+00
         -1   -1    0    0    0  501 -0.00000000000E+00  0.00000000000E+00  0.11252273861E+03  0.11252273861E+03  0.00000000000E+00 0.  1.
         21   -1    0    0  501  502  0.00000000000E+00 -0.00000000000E+00 -0.58582195575E+02  0.58582195575E+02  0.00000000000E+00 0.  1.
         24    2    1    2    0    0  0.43014683878E+02 -0.37691578108E+02  0.45695531132E+02  0.11332173324E+03  0.86503269132E+02 0.  0.
        -11    1    3    3    0    0  0.30100143553E+02 -0.65260487319E+02  0.40324734361E+02  0.82407730513E+02  0.00000000000E+00 0.  1.
         12    1    3    3    0    0  0.12914540325E+02  0.27568909211E+02  0.53707967713E+01  0.30914002731E+02  0.00000000000E+00 0. -1.
         -2    1    1    2    0  502 -0.43014683878E+02  0.37691578108E+02  0.82450118982E+01  0.57783200937E+02  0.00000000000E+00 0.  1.
<mgrwt>
<rscale>  1 0.10370021E+03</rscale>
<asrwt>0</asrwt>
<pdfrwt beam="1">  1       21 0.90126455E-02 0.10370021E+03</pdfrwt>
<pdfrwt beam="2">  1       -1 0.17311191E-01 0.10370021E+03</pdfrwt>
<totfact> 0.21548919E+05</totfact>
</mgrwt>
</event>
<event>
 6    2  0.8544106E+000  0.8517164E+02  0.7546771E-02  0.1314984E+00
         21   -1    0    0  501  502  0.00000000000E+00  0.00000000000E+00  0.10914447763E+02  0.10914447763E+02  0.00000000000E+00 0.  1.
          2   -1    0    0  502    0 -0.00000000000E+00 -0.00000000000E+00 -0.27979611840E+03  0.27979611840E+03  0.00000000000E+00 0. -1.
         24    2    1    2    0    0 -0.15741040572E+01 -0.25181606982E+02 -0.20157633826E+03  0.21883150871E+03  0.81348742615E+02 0.  0.
        -11    1    3    3    0    0  0.46441747051E+00 -0.47036888623E+02 -0.63519354309E+02  0.79040451332E+02  0.00000000000E+00 0.  1.
         12    1    3    3    0    0 -0.20385215277E+01  0.21855281642E+02 -0.13805698395E+03  0.13979105738E+03  0.00000000000E+00 0. -1.
          1    1    1    2  501    0  0.15741040572E+01  0.25181606982E+02 -0.67305332373E+02  0.71879057448E+02  0.00000000000E+00 0. -1.
<mgrwt>
<rscale>  1 0.85171645E+02</rscale>
<asrwt>0</asrwt>
<pdfrwt beam="1">  1       21 0.16791459E-02 0.85171645E+02</pdfrwt>
<pdfrwt beam="2">  1        2 0.43045555E-01 0.85171645E+02</pdfrwt>
<totfact> 0.21883120E+06</totfact>
</mgrwt>
</event>
<event>
 6    2  0.8544106E+000  0.8679360E+02  0.7546771E-02  0.1310808E+00
          2   -1    0    0  502    0 -0.00000000000E+00  0.00000000000E+00  0.30703796270E+02  0.30703796270E+02  0.00000000000E+00 0. -1.
         21   -1    0    0  501  502  0.00000000000E+00 -0.00000000000E+00 -0.15565152172E+03  0.15565152172E+03  0.00000000000E+00 0.  1.
         24    2    1    2    0    0 -0.23200194283E+02 -0.31866830021E+02 -0.11775765003E+03  0.14628736253E+03  0.77326479455E+02 0.  0.
        -13    1    3    3    0    0 -0.41342182132E+02  0.65812153079E+01 -0.75592327606E+02  0.86410001801E+02  0.00000000000E+00 0.  1.
         14    1    3    3    0    0  0.18141987849E+02 -0.38448045329E+02 -0.42165322427E+02  0.59877360730E+02  0.00000000000E+00 0. -1.
          1    1    1    2  501    0  0.23200194283E+02  0.31866830021E+02 -0.71900754204E+01  0.40067955462E+02  0.00000000000E+00 0. -1.
<mgrwt>
<rscale>  1 0.86793596E+02</rscale>
<asrwt>0</asrwt>
<pdfrwt beam="1">  1       21 0.23946388E-01 0.86793596E+02</pdfrwt>
<pdfrwt beam="2">  1        2 0.47236610E-02 0.86793596E+02</pdfrwt>
<totfact> 0.31538652E+05</totfact>
</mgrwt>
</event>
<event>
 6    2  0.8544106E+000  0.8540150E+02  0.7546771E-02  0.1314386E+00
         21   -1    0    0  501  502  0.00000000000E+00  0.00000000000E+00  0.23684084777E+01  0.23684084777E+01  0.00000000000E+00 0. -1.
          2   -1    0    0  502    0 -0.00000000000E+00 -0.00000000000E+00 -0.21875026241E+04  0.21875026241E+04  0.00000000000E+00 0. -1.
         24    2    1    2    0    0 -0.25168235669E+01 -0.27126878090E+02 -0.20616146770E+04  0.20633827788E+04  0.80939567662E+02 0.  0.
        -11    1    3    3    0    0  0.17465894969E+02 -0.88617153097E+01 -0.12065210010E+03  0.12223140653E+03  0.00000000000E+00 0.  1.
         12    1    3    3    0    0 -0.19982718536E+02 -0.18265162780E+02 -0.19409625769E+04  0.19411513723E+04  0.00000000000E+00 0. -1.
          1    1    1    2  501    0  0.25168235669E+01  0.27126878090E+02 -0.12351953858E+03  0.12648825371E+03  0.00000000000E+00 0. -1.
<mgrwt>
<rscale>  1 0.85401496E+02</rscale>
<asrwt>0</asrwt>
<pdfrwt beam="1">  1       21 0.36437117E-03 0.85401496E+02</pdfrwt>
<pdfrwt beam="2">  1        2 0.33653828E+00 0.85401496E+02</pdfrwt>
<totfact> 0.13608536E+06</totfact>
</mgrwt>
</event>
<event>
 6    2  0.8544106E+000  0.9544068E+02  0.7546771E-02  0.1290187E+00
         21   -1    0    0  501  502  0.00000000000E+00  0.00000000000E+00  0.16981885343E+03  0.16981885343E+03  0.00000000000E+00 0.  1.
          4   -1    0    0  502    0 -0.00000000000E+00 -0.00000000000E+00 -0.31688327571E+02  0.31688327571E+02  0.00000000000E+00 0. -1.
         24    2    1    2    0    0  0.12484884232E+02  0.47009379204E+02  0.10871652958E+03  0.14466584706E+03  0.82116803600E+02 0.  0.
        -13    1    3    3    0    0  0.43297827062E+01  0.64695444557E+02  0.10700223717E+03  0.12511485253E+03  0.00000000000E+00 0.  1.
         14    1    3    3    0    0  0.81551015259E+01 -0.17686065353E+02  0.17142924138E+01  0.19550994529E+02  0.00000000000E+00 0. -1.
          3    1    1    2  501    0 -0.12484884232E+02 -0.47009379204E+02  0.29413996281E+02  0.56841333945E+02  0.00000000000E+00 0. -1.
<mgrwt>
<rscale>  1 0.95440681E+02</rscale>
<asrwt>0</asrwt>
<pdfrwt beam="1">  1       21 0.26125977E-01 0.95440681E+02</pdfrwt>
<pdfrwt beam="2">  1        4 0.48751274E-02 0.95440681E+02</pdfrwt>
<totfact> 0.13270323E+05</totfact>
</mgrwt>
</event>
<event>
 6    2  0.8544106E+000  0.8331470E+02  0.7546771E-02  0.1319900E+00
          4   -1    0    0  502    0 -0.00000000000E+00  0.00000000000E+00  0.33828353064E+02  0.33828353064E+02  0.00000000000E+00 0. -1.
         21   -1    0    0  501  502  0.00000000000E+00 -0.00000000000E+00 -0.11579657299E+03  0.11579657299E+03  0.00000000000E+00 0.  1.
         24    2    1    2    0    0  0.23972669593E+02 -0.97789148156E+01 -0.89877534180E+02  0.12255329304E+03  0.79189787360E+02 0.  0.
        -13    1    3    3    0    0  0.20234788238E+02 -0.23001364814E+01 -0.10409025182E+03  0.10606374407E+03  0.00000000000E+00 0.  1.
         14    1    3    3    0    0  0.37378813554E+01 -0.74787783342E+01  0.14212717640E+02  0.16489548966E+02  0.00000000000E+00 0. -1.
          3    1    1    2  501    0 -0.23972669593E+02  0.97789148156E+01  0.79093142500E+01  0.27071633019E+02  0.00000000000E+00 0. -1.
<mgrwt>
<rscale>  1 0.83314695E+02</rscale>
<asrwt>0</asrwt>
<pdfrwt beam="1">  1       21 0.17814857E-01 0.83314695E+02</pdfrwt>
<pdfrwt beam="2">  1        4 0.52043621E-02 0.83314695E+02</pdfrwt>
<totfact> 0.23663826E+05</totfact>
</mgrwt>
</event>
<event>
 6    2  0.8544106E+000  0.7979295E+02  0.7546771E-02  0.1329640E+00
         21   -1    0    0  501  502  0.00000000000E+00  0.00000000000E+00  0.21662951730E+02  0.21662951730E+02  0.00000000000E+00 0. -1.
         -1   -1    0    0    0  501 -0.00000000000E+00 -0.00000000000E+00 -0.16322916618E+03  0.16322916618E+03  0.00000000000E+00 0.  1.
         24    2    1    2    0    0  0.23849029961E+02 -0.89660166614E+01 -0.61131607526E+02  0.10051859318E+03  0.75615794982E+02 0.  0.
        -13    1    3    3    0    0  0.40266774790E+02 -0.13434277317E+02 -0.69591872121E+02  0.81516388685E+02  0.00000000000E+00 0.  1.
         14    1    3    3    0    0 -0.16417744828E+02  0.44682606555E+01  0.84602645949E+01  0.19002204492E+02  0.00000000000E+00 0. -1.
         -2    1    1    2    0  502 -0.23849029961E+02  0.89660166614E+01 -0.80434606926E+02  0.84373524735E+02  0.00000000000E+00 0.  1.
<mgrwt>
<rscale>  1 0.79792945E+02</rscale>
<asrwt>0</asrwt>
<pdfrwt beam="1">  1       21 0.33327619E-02 0.79792945E+02</pdfrwt>
<pdfrwt beam="2">  1       -1 0.25112179E-01 0.79792945E+02</pdfrwt>
<totfact> 0.61334385E+05</totfact>
</mgrwt>
</event>
<event>
 6    2  0.8544106E+000  0.8346379E+02  0.7546771E-02  0.1319499E+00
          2   -1    0    0  502    0 -0.00000000000E+00  0.00000000000E+00  0.16357863450E+03  0.16357863450E+03  0.00000000000E+00 0. -1.
         21   -1    0    0  501  502  0.00000000000E+00 -0.00000000000E+00 -0.24267164159E+02  0.24267164159E+02  0.00000000000E+00 0.  1.
         24    2    1    2    0    0  0.11980203557E+02  0.16845259137E+02  0.14419252375E+03  0.16660638447E+03  0.80863560443E+02 0.  0.
        -11    1    3    3    0    0 -0.64294221407E+01  0.25021694692E+02  0.54422751377E+01  0.26401534671E+02  0.00000000000E+00 0.  1.
         12    1    3    3    0    0  0.18409625698E+02 -0.81764355549E+01  0.13875024861E+03  0.14020484980E+03  0.00000000000E+00 0. -1.
          1    1    1    2  501    0 -0.11980203557E+02 -0.16845259137E+02 -0.48810534102E+01  0.21239414188E+02  0.00000000000E+00 0. -1.
<mgrwt>
<rscale>  1 0.83463785E+02</rscale>
<asrwt>0</asrwt>
<pdfrwt beam="1">  1       21 0.37334100E-02 0.83463785E+02</pdfrwt>
<pdfrwt beam="2">  1        2 0.25165943E-01 0.83463785E+02</pdfrwt>
<totfact> 0.10644418E+06</totfact>
</mgrwt>
</event>
<event>
 6    2  0.8544106E+000  0.1168925E+03  0.7546771E-02  0.1248313E+00
         21   -1    0    0  501  502  0.00000000000E+00  0.00000000000E+00  0.21646049113E+03  0.21646049113E+03  0.00000000000E+00 0.  1.
         -3   -1    0    0    0  501 -0.00000000000E+00 -0.00000000000E+00 -0.49492178515E+02  0.49492178515E+02  0.00000000000E+00 0.  1.
         24    2    1    2    0    0  0.85102303051E+02  0.13980599214E+02  0.12093250607E+03  0.16819196883E+03  0.78905058250E+02 0.  0.
        -13    1    3    3    0    0  0.85719950236E+02 -0.11343946033E+02  0.69785001570E+02  0.11111499190E+03  0.00000000000E+00 0.  1.
         14    1    3    3    0    0 -0.61764718433E+00  0.25324545247E+02  0.51147504498E+02  0.57076976938E+02  0.00000000000E+00 0. -1.
         -4    1    1    2    0  502 -0.85102303051E+02 -0.13980599214E+02  0.46035806550E+02  0.97760700815E+02  0.00000000000E+00 0.  1.
<mgrwt>
<rscale>  1 0.11689255E+03</rscale>
<asrwt>0</asrwt>
<pdfrwt beam="1">  1       21 0.33301613E-01 0.11689255E+03</pdfrwt>
<pdfrwt beam="2">  1       -3 0.76141814E-02 0.11689255E+03</pdfrwt>
<totfact> 0.47486555E+04</totfact>
</mgrwt>
</event>
<event>
 6    2  0.8544106E+000  0.9912504E+02  0.7546771E-02  0.1282147E+00
         21   -1    0    0  501  502  0.00000000000E+00  0.00000000000E+00  0.33286536920E+01  0.33286536920E+01  0.00000000000E+00 0.  1.
          2   -1    0    0  502    0 -0.00000000000E+00 -0.00000000000E+00 -0.19771629720E+04  0.19771629720E+04  0.00000000000E+00 0. -1.
         24    2    1    2    0    0 -0.81498013196E+01 -0.59606964145E+02 -0.10366984836E+04  0.10414266747E+04  0.78780476639E+02 0.  0.
        -11    1    3    3    0    0 -0.22944388226E+02 -0.53169341349E+02 -0.36756643120E+03  0.37210012787E+03  0.00000000000E+00 0.  1.
         12    1    3    3    0    0  0.14794586906E+02 -0.64376227961E+01 -0.66913205236E+03  0.66932654682E+03  0.00000000000E+00 0. -1.
          1    1    1    2  501    0  0.81498013196E+01  0.59606964145E+02 -0.93713583479E+03  0.93906495105E+03  0.00000000000E+00 0. -1.
<mgrwt>
<rscale>  1 0.99125037E+02</rscale>
<asrwt>0</asrwt>
<pdfrwt beam="1">  1       21 0.51210024E-03 0.99125037E+02</pdfrwt>
<pdfrwt beam="2">  1        2 0.30417912E+00 0.99125037E+02</pdfrwt>
<totfact> 0.10410773E+06</totfact>
</mgrwt>
</event>
<event>
 6    2  0.8544106E+000  0.8199704E+02  0.7546771E-02  0.1323478E+00
         -3   -1    0    0    0  501 -0.00000000000E+00  0.00000000000E+00  0.11154073757E+03  0.11154073757E+03  0.00000000000E+00 0.  1.
         21   -1    0    0  501  502  0.00000000000E+00 -0.00000000000E+00 -0.35288148243E+02  0.35288148243E+02  0.00000000000E+00 0. -1.
         24    2    1    2    0    0 -0.13690468035E+02  0.25157437710E+02  0.83765613119E+02  0.11721856474E+03  0.76832209341E+02 0.  0.
        -11    1    3    3    0    0  0.21959574853E+02 -0.10924873746E+02  0.51664118886E+02  0.57190532210E+02  0.00000000000E+00 0.  1.
         12    1    3    3    0    0 -0.35650042889E+02  0.36082311456E+02  0.32101494233E+02  0.60028032535E+02  0.00000000000E+00 0. -1.
         -4    1    1    2    0  502  0.13690468035E+02 -0.25157437710E+02 -0.75130237931E+01  0.29610321067E+02  0.00000000000E+00 0.  1.
<mgrwt>
<rscale>  1 0.81997036E+02</rscale>
<asrwt>0</asrwt>
<pdfrwt beam="1">  1       21 0.54289459E-02 0.81997036E+02</pdfrwt>
<pdfrwt beam="2">  1       -3 0.17160113E-01 0.81997036E+02</pdfrwt>
<totfact> 0.29949974E+05</totfact>
</mgrwt>
</event>
<event>
 6    2  0.8544106E+000  0.8319482E+02  0.7546771E-02  0.1320222E+00
          2   -1    0    0  502    0 -0.00000000000E+00  0.00000000000E+00  0.19476817594E+03  0.19476817594E+03  0.00000000000E+00 0. -1.
         21   -1    0    0  501  502  0.00000000000E+00 -0.00000000000E+00 -0.19074579364E+02  0.19074579364E+02  0.00000000000E+00 0.  1.
         24    2    1    2    0    0  0.95889865138E+01  0.19926678035E+02  0.17248082411E+03  0.19149676983E+03  0.80201976344E+02 0.  0.
        -13    1    3    3    0    0 -0.26308161778E+02  0.12616168855E+02  0.21786406690E+02  0.36413385028E+02  0.00000000000E+00 0.  1.
         14    1    3    3    0    0  0.35897148292E+02  0.73105091804E+01  0.15069441742E+03  0.15508338480E+03  0.00000000000E+00 0. -1.
          1    1    1    2  501    0 -0.95889865138E+01 -0.19926678035E+02  0.32127724642E+01  0.22345985474E+02  0.00000000000E+00 0. -1.
<mgrwt>
<rscale>  1 0.83194821E+02</rscale>
<asrwt>0</asrwt>
<pdfrwt beam="1">  1       21 0.29345508E-02 0.83194821E+02</pdfrwt>
<pdfrwt beam="2">  1        2 0.29964333E-01 0.83194821E+02</pdfrwt>
<totfact> 0.13055679E+06</totfact>
</mgrwt>
</event>
<event>
 6    2  0.8544106E+000  0.8703478E+02  0.7546771E-02  0.1310196E+00
         21   -1    0    0  501  502  0.00000000000E+00  0.00000000000E+00  0.22343520194E+02  0.22343520194E+02  0.00000000000E+00 0. -1.
          2   -1    0    0  502    0 -0.00000000000E+00 -0.00000000000E+00 -0.16089505153E+04  0.16089505153E+04  0.00000000000E+00 0. -1.
         24    2    1    2    0    0 -0.18340920182E+02  0.24656604881E+02 -0.15966072660E+04  0.15989777403E+04  0.81429199931E+02 0.  0.
        -13    1    3    3    0    0  0.14602073470E+02 -0.74829180263E+01 -0.79648136241E+02  0.81320601440E+02  0.00000000000E+00 0.  1.
         14    1    3    3    0    0 -0.32942993652E+02  0.32139522907E+02 -0.15169591298E+04  0.15176571389E+04  0.00000000000E+00 0. -1.
          1    1    1    2  501    0  0.18340920182E+02 -0.24656604881E+02  0.10000270894E+02  0.32316295198E+02  0.00000000000E+00 0. -1.
<mgrwt>
<rscale>  1 0.87034775E+02</rscale>
<asrwt>0</asrwt>
<pdfrwt beam="1">  1       21 0.34374635E-02 0.87034775E+02</pdfrwt>
<pdfrwt beam="2">  1        2 0.24753093E+00 0.87034775E+02</pdfrwt>
<totfact> 0.78436767E+04</totfact>
</mgrwt>
</event>
<event>
 6    2  0.8544106E+000  0.8451071E+02  0.7546771E-02  0.1316717E+00
         -1   -1    0    0    0  501 -0.00000000000E+00  0.00000000000E+00  0.19409835923E+02  0.19409835923E+02  0.00000000000E+00 0.  1.
         21   -1    0    0  501  502  0.00000000000E+00 -0.00000000000E+00 -0.15732128268E+03  0.15732128268E+03  0.00000000000E+00 0. -1.
         24    2    1    2    0    0  0.54690866794E+01 -0.25413095963E+02 -0.10432137957E+03  0.13425725642E+03  0.80413458509E+02 0.  0.
        -11    1    3    3    0    0 -0.30776898576E+02  0.16358994716E+01 -0.15306320883E+02  0.34411874579E+02  0.00000000000E+00 0.  1.
         12    1    3    3    0    0  0.36245985255E+02 -0.27048995435E+02 -0.89015058687E+02  0.99845381837E+02  0.00000000000E+00 0. -1.
         -2    1    1    2    0  502 -0.54690866794E+01  0.25413095963E+02 -0.33590067191E+02  0.42473862192E+02  0.00000000000E+00 0.  1.
<mgrwt>
<rscale>  1 0.84510713E+02</rscale>
<asrwt>0</asrwt>
<pdfrwt beam="1">  1       21 0.24203273E-01 0.84510713E+02</pdfrwt>
<pdfrwt beam="2">  1       -1 0.29861287E-02 0.84510713E+02</pdfrwt>
<totfact> 0.49752924E+05</totfact>
</mgrwt>
</event>
<event>
 6    2  0.8544106E+000  0.9499026E+02  0.7546771E-02  0.1291198E+00
          2   -1    0    0  502    0 -0.00000000000E+00  0.00000000000E+00  0.32990941432E+03  0.32990941432E+03  0.00000000000E+00 0. -1.
         21   -1    0    0  501  502  0.00000000000E+00 -0.00000000000E+00 -0.15341783193E+02  0.15341783193E+02  0.00000000000E+00 0. -1.
         24    2    1    2    0    0 -0.23268405249E+01  0.47196190129E+02  0.20602694418E+03  0.22687056028E+03  0.82403002630E+02 0.  0.
        -11    1    3    3    0    0 -0.32641209309E+02  0.11399014517E+01  0.38416495603E+02  0.50423953186E+02  0.00000000000E+00 0.  1.
         12    1    3    3    0    0  0.30314368784E+02  0.46056288677E+02  0.16761044858E+03  0.17644660709E+03  0.00000000000E+00 0. -1.
          1    1    1    2  501    0  0.23268405249E+01 -0.47196190129E+02  0.10854068694E+03  0.11838063723E+03  0.00000000000E+00 0. -1.
<mgrwt>
<rscale>  1 0.94990259E+02</rscale>
<asrwt>0</asrwt>
<pdfrwt beam="1">  1       21 0.23602746E-02 0.94990259E+02</pdfrwt>
<pdfrwt beam="2">  1        2 0.50755289E-01 0.94990259E+02</pdfrwt>
<totfact> 0.10820668E+06</totfact>
</mgrwt>
</event>
<event>
 6    2  0.8544106E+000  0.8896934E+02  0.7546771E-02  0.1305367E+00
         21   -1    0    0  501  502  0.00000000000E+00  0.00000000000E+00  0.92944753583E+01  0.92944753583E+01  0.00000000000E+00 0. -1.
          2   -1    0    0  502    0 -0.00000000000E+00 -0.00000000000E+00 -0.93247288508E+03  0.93247288508E+03  0.00000000000E+00 0. -1.
         24    2    1    2    0    0  0.29389854139E+02  0.19979359859E+02 -0.88555683700E+03  0.89001486213E+03  0.81563502349E+02 0.  0.
        -11    1    3    3    0    0 -0.85754534440E+00  0.34760704158E+02 -0.16268050540E+03  0.16635500827E+03  0.00000000000E+00 0.  1.
         12    1    3    3    0    0  0.30247399483E+02 -0.14781344299E+02 -0.72287633160E+03  0.72365985387E+03  0.00000000000E+00 0. -1.
          1    1    1    2  501    0 -0.29389854139E+02 -0.19979359859E+02 -0.37621572722E+02  0.51752498304E+02  0.00000000000E+00 0. -1.
<mgrwt>
<rscale>  1 0.88969339E+02</rscale>
<asrwt>0</asrwt>
<pdfrwt beam="1">  1       21 0.14299190E-02 0.88969339E+02</pdfrwt>
<pdfrwt beam="2">  1        2 0.14345739E+00 0.88969339E+02</pdfrwt>
<totfact> 0.74373273E+05</totfact>
</mgrwt>
</event>
<event>
 6    2  0.8544106E+000  0.1069975E+03  0.7546771E-02  0.1266233E+00
          2   -1    0    0  502    0 -0.00000000000E+00  0.00000000000E+00  0.24171395270E+03  0.24171395270E+03  0.00000000000E+00 0. -1.
         21   -1    0    0  501  502  0.00000000000E+00 -0.00000000000E+00 -0.36350414611E+02  0.36350414611E+02  0.00000000000E+00 0. -1.
         24    2    1    2    0    0 -0.28006586129E+02 -0.65235084351E+02  0.16424727879E+03  0.19602454847E+03  0.80052919469E+02 0.  0.
        -11    1    3    3    0    0 -0.32701662492E+02  0.68399001996E+01  0.38190113861E+02  0.50741184074E+02  0.00000000000E+00 0.  1.
         12    1    3    3    0    0  0.46950763632E+01 -0.72074984550E+02  0.12605716493E+03  0.14528336440E+03  0.00000000000E+00 0. -1.
          1    1    1    2  501    0  0.28006586129E+02  0.65235084351E+02  0.41116259295E+02  0.82039818839E+02  0.00000000000E+00 0. -1.
<mgrwt>
<rscale>  1 0.10699745E+03</rscale>
<asrwt>0</asrwt>
<pdfrwt beam="1">  1       21 0.55923716E-02 0.10699745E+03</pdfrwt>
<pdfrwt beam="2">  1        2 0.37186761E-01 0.10699745E+03</pdfrwt>
<totfact> 0.36686875E+05</totfact>
</mgrwt>
</event>
<event>
 6    2  0.8544106E+000  0.8400490E+02  0.7546771E-02  0.1318056E+00
         21   -1    0    0  501  502  0.00000000000E+00  0.00000000000E+00  0.79419931223E+01  0.79419931223E+01  0.00000000000E+00 0.  1.
          2   -1    0    0  502    0 -0.00000000000E+00 -0.00000000000E+00 -0.38399415459E+03  0.38399415459E+03  0.00000000000E+00 0. -1.
         24    2    1    2    0    0 -0.13243237686E+02 -0.19523263201E+02 -0.32525747434E+03  0.33593042130E+03  0.80624327539E+02 0.  0.
        -11    1    3    3    0    0  0.32738574833E+02 -0.16956551132E+02 -0.11836369150E+03  0.12397299050E+03  0.00000000000E+00 0.  1.
         12    1    3    3    0    0 -0.45981812518E+02 -0.25667120693E+01 -0.20689378284E+03  0.21195743080E+03  0.00000000000E+00 0. -1.
          1    1    1    2  501    0  0.13243237686E+02  0.19523263201E+02 -0.50794687125E+02  0.56005726408E+02  0.00000000000E+00 0. -1.
<mgrwt>
<rscale>  1 0.84004901E+02</rscale>
<asrwt>0</asrwt>
<pdfrwt beam="1">  1       21 0.12218455E-02 0.84004901E+02</pdfrwt>
<pdfrwt beam="2">  1        2 0.59076007E-01 0.84004901E+02</pdfrwt>
<totfact> 0.25932115E+06</totfact>
</mgrwt>
</event>
<event>
 6    2  0.8544106E+000  0.8601214E+02  0.7546771E-02  0.1312807E+00
          2   -1    0    0  502    0 -0.00000000000E+00  0.00000000000E+00  0.24556655300E+02  0.24556655300E+02  0.00000000000E+00 0. -1.
         21   -1    0    0  501  502  0.00000000000E+00 -0.00000000000E+00 -0.20234185863E+03  0.20234185863E+03  0.00000000000E+00 0.  1.
         24    2    1    2    0    0 -0.16131339777E+02 -0.40151500722E+02 -0.70490385092E+02  0.11120693622E+03  0.74335221388E+02 0.  0.
        -13    1    3    3    0    0 -0.95096345299E+00 -0.19962572337E+02 -0.81308365720E+02  0.83728483575E+02  0.00000000000E+00 0.  1.
         14    1    3    3    0    0 -0.15180376324E+02 -0.20188928385E+02  0.10817980627E+02  0.27478452641E+02  0.00000000000E+00 0. -1.
          1    1    1    2  501    0  0.16131339777E+02  0.40151500722E+02 -0.10729481824E+03  0.11569157772E+03  0.00000000000E+00 0. -1.
<mgrwt>
<rscale>  1 0.86012140E+02</rscale>
<asrwt>0</asrwt>
<pdfrwt beam="1">  1       21 0.31129515E-01 0.86012140E+02</pdfrwt>
<pdfrwt beam="2">  1        2 0.37779472E-02 0.86012140E+02</pdfrwt>
<totfact> 0.25691913E+05</totfact>
</mgrwt>
</event>
<event>
 6    2  0.8544106E+000  0.8614001E+02  0.7546771E-02  0.1312478E+00
          2   -1    0    0  502    0 -0.00000000000E+00  0.00000000000E+00  0.26647691895E+03  0.26647691895E+03  0.00000000000E+00 0. -1.
         21   -1    0    0  501  502  0.00000000000E+00 -0.00000000000E+00 -0.13565468761E+02  0.13565468761E+02  0.00000000000E+00 0.  1.
         24    2    1    2    0    0 -0.63227044516E+00  0.29482341678E+02  0.21764471433E+03  0.23407119135E+03  0.80935114182E+02 0.  0.
        -11    1    3    3    0    0  0.16770170095E+02  0.18279132313E+02  0.12304443636E+02  0.27690514916E+02  0.00000000000E+00 0.  1.
         12    1    3    3    0    0 -0.17402440540E+02  0.11203209365E+02  0.20534027069E+03  0.20638067643E+03  0.00000000000E+00 0. -1.
          1    1    1    2  501    0  0.63227044516E+00 -0.29482341678E+02  0.35266735860E+02  0.45971196362E+02  0.00000000000E+00 0. -1.
<mgrwt>
<rscale>  1 0.86140008E+02</rscale>
<asrwt>0</asrwt>
<pdfrwt beam="1">  1       21 0.20869954E-02 0.86140008E+02</pdfrwt>
<pdfrwt beam="2">  1        2 0.40996445E-01 0.86140008E+02</pdfrwt>
<totfact> 0.16305349E+06</totfact>
</mgrwt>
</event>
<event>
 6    2  0.8544106E+000  0.8474859E+02  0.7546771E-02  0.1316091E+00
          2   -1    0    0  502    0 -0.00000000000E+00  0.00000000000E+00  0.70946106675E+03  0.70946106675E+03  0.00000000000E+00 0. -1.
         21   -1    0    0  501  502  0.00000000000E+00 -0.00000000000E+00 -0.54498441334E+01  0.54498441334E+01  0.00000000000E+00 0. -1.
         24    2    1    2    0    0  0.19287623310E+02 -0.12220870080E+02  0.65912313750E+03  0.66454919662E+03  0.81614718388E+02 0.  0.
        -13    1    3    3    0    0 -0.12201771695E+02  0.17965788929E+02  0.59467374962E+02  0.63308936882E+02  0.00000000000E+00 0.  1.
         14    1    3    3    0    0  0.31489395005E+02 -0.30186659009E+02  0.59965576254E+03  0.60124025974E+03  0.00000000000E+00 0. -1.
          1    1    1    2  501    0 -0.19287623310E+02  0.12220870080E+02  0.44888085117E+02  0.50361714267E+02  0.00000000000E+00 0. -1.
<mgrwt>
<rscale>  1 0.84748595E+02</rscale>
<asrwt>0</asrwt>
<pdfrwt beam="1">  1       21 0.83843812E-03 0.84748595E+02</pdfrwt>
<pdfrwt beam="2">  1        2 0.10914778E+00 0.84748595E+02</pdfrwt>
<totfact> 0.23901659E+06</totfact>
</mgrwt>
</event>
<event>
 6    2  0.8544106E+000  0.8067429E+02  0.7546771E-02  0.1327149E+00
         21   -1    0    0  501  502  0.00000000000E+00  0.00000000000E+00  0.12632453546E+02  0.12632453546E+02  0.00000000000E+00 0.  1.
          2   -1    0    0  502    0 -0.00000000000E+00 -0.00000000000E+00 -0.24151447318E+03  0.24151447318E+03  0.00000000000E+00 0. -1.
         24    2    1    2    0    0 -0.19380685744E+02  0.59374104855E+01 -0.21484217392E+03  0.22948965415E+03  0.78086348640E+02 0.  0.
        -11    1    3    3    0    0 -0.76866480822E+01 -0.58763617342E+01  0.36684713449E+01  0.10347650360E+02  0.00000000000E+00 0.  1.
         12    1    3    3    0    0 -0.11694037662E+02  0.11813772220E+02 -0.21851064526E+03  0.21914200379E+03  0.00000000000E+00 0. -1.
          1    1    1    2  501    0  0.19380685744E+02 -0.59374104855E+01 -0.14039845712E+02  0.24657272574E+02  0.00000000000E+00 0. -1.
<mgrwt>
<rscale>  1 0.80674294E+02</rscale>
<asrwt>0</asrwt>
<pdfrwt beam="1">  1       21 0.19434543E-02 0.80674294E+02</pdfrwt>
<pdfrwt beam="2">  1        2 0.37156075E-01 0.80674294E+02</pdfrwt>
<totfact> 0.20088993E+06</totfact>
</mgrwt>
</event>
<event>
 6    2  0.8544106E+000  0.8527884E+02  0.7546771E-02  0.1314705E+00
          2   -1    0    0  502    0 -0.00000000000E+00  0.00000000000E+00  0.89521261370E+02  0.89521261370E+02  0.00000000000E+00 0. -1.
         21   -1    0    0  501  502  0.00000000000E+00 -0.00000000000E+00 -0.46746332133E+02  0.46746332133E+02  0.00000000000E+00 0.  1.
         24    2    1    2    0    0  0.20518292943E+02  0.17219345853E+02  0.60133921017E+02  0.10434830760E+03  0.80962797785E+02 0.  0.
        -11    1    3    3    0    0  0.47352883897E+02  0.21902109962E+02  0.56438003323E+02  0.76858612095E+02  0.00000000000E+00 0.  1.
         12    1    3    3    0    0 -0.26834590953E+02 -0.46827641086E+01  0.36959176942E+01  0.27489695505E+02  0.00000000000E+00 0. -1.
          1    1    1    2  501    0 -0.20518292943E+02 -0.17219345853E+02 -0.17358991780E+02  0.31919285903E+02  0.00000000000E+00 0. -1.
<mgrwt>
<rscale>  1 0.85278842E+02</rscale>
<asrwt>0</asrwt>
<pdfrwt beam="1">  1       21 0.71917434E-02 0.85278842E+02</pdfrwt>
<pdfrwt beam="2">  1        2 0.13772502E-01 0.85278842E+02</pdfrwt>
<totfact> 0.70546031E+05</totfact>
</mgrwt>
</event>
<event>
 6    2  0.8544106E+000  0.8427159E+02  0.7546771E-02  0.1317348E+00
         21   -1    0    0  501  502  0.00000000000E+00  0.00000000000E+00  0.30696535863E+01  0.30696535863E+01  0.00000000000E+00 0.  1.
          2   -1    0    0  502    0 -0.00000000000E+00 -0.00000000000E+00 -0.12775509185E+04  0.12775509185E+04  0.00000000000E+00 0. -1.
         24    2    1    2    0    0 -0.28970303064E+01 -0.23967339827E+02 -0.62080374108E+03  0.62649739459E+03  0.80739546290E+02 0.  0.
        -11    1    3    3    0    0 -0.36957950123E+02  0.48056065905E+01 -0.21004299731E+03  0.21332380235E+03  0.00000000000E+00 0.  1.
         12    1    3    3    0    0  0.34060919816E+02 -0.28772946417E+02 -0.41076074377E+03  0.41317359224E+03  0.00000000000E+00 0. -1.
          1    1    1    2  501    0  0.28970303064E+01  0.23967339827E+02 -0.65367752379E+03  0.65412317745E+03  0.00000000000E+00 0. -1.
<mgrwt>
<rscale>  1 0.84271588E+02</rscale>
<asrwt>0</asrwt>
<pdfrwt beam="1">  1       21 0.47225375E-03 0.84271588E+02</pdfrwt>
<pdfrwt beam="2">  1        2 0.19654657E+00 0.84271588E+02</pdfrwt>
<totfact> 0.26453500E+06</totfact>
</mgrwt>
</event>
<event>
 6    2  0.8544106E+000  0.9013133E+02  0.7546771E-02  0.1302534E+00
         -1   -1    0    0    0  501 -0.00000000000E+00  0.00000000000E+00  0.40535761332E+02  0.40535761332E+02  0.00000000000E+00 0.  1.
         21   -1    0    0  501  502  0.00000000000E+00 -0.00000000000E+00 -0.11104528876E+03  0.11104528876E+03  0.00000000000E+00 0. -1.
         24    2    1    2    0    0  0.13319542188E+02  0.36147693932E+02 -0.28380223142E+02  0.94493886385E+02  0.81483688661E+02 0.  0.
        -13    1    3    3    0    0  0.21012745628E+02 -0.14723125719E+02  0.12725787667E+02  0.28640034593E+02  0.00000000000E+00 0.  1.
         14    1    3    3    0    0 -0.76932034396E+01  0.50870819651E+02 -0.41106010809E+02  0.65853851792E+02  0.00000000000E+00 0. -1.
         -2    1    1    2    0  502 -0.13319542188E+02 -0.36147693932E+02 -0.42129304289E+02  0.57087163711E+02  0.00000000000E+00 0.  1.
<mgrwt>
<rscale>  1 0.90131335E+02</rscale>
<asrwt>0</asrwt>
<pdfrwt beam="1">  1       21 0.17083890E-01 0.90131335E+02</pdfrwt>
<pdfrwt beam="2">  1       -1 0.62362711E-02 0.90131335E+02</pdfrwt>
<totfact> 0.32481209E+05</totfact>
</mgrwt>
</event>
<event>
 6    2  0.8544106E+000  0.1062718E+03  0.7546771E-02  0.1267634E+00
          2   -1    0    0  502    0 -0.00000000000E+00  0.00000000000E+00  0.26757138613E+03  0.26757138613E+03  0.00000000000E+00 0. -1.
         21   -1    0    0  501  502  0.00000000000E+00 -0.00000000000E+00 -0.48896099999E+02  0.48896099999E+02  0.00000000000E+00 0. -1.
         24    2    1    2    0    0  0.13886453513E+02  0.65895671700E+02  0.22499350549E+03  0.24882879131E+03  0.82210806673E+02 0.  0.
        -13    1    3    3    0    0 -0.16233479452E+01 -0.13372520008E+02  0.48197519180E+01  0.14306975868E+02  0.00000000000E+00 0.  1.
         14    1    3    3    0    0  0.15509801458E+02  0.79268191708E+02  0.22017375357E+03  0.23452181545E+03  0.00000000000E+00 0. -1.
          1    1    1    2  501    0 -0.13886453513E+02 -0.65895671700E+02 -0.63182193621E+01  0.67638694812E+02  0.00000000000E+00 0. -1.
<mgrwt>
<rscale>  1 0.10627177E+03</rscale>
<asrwt>0</asrwt>
<pdfrwt beam="1">  1       21 0.75224770E-02 0.10627177E+03</pdfrwt>
<pdfrwt beam="2">  1        2 0.41164828E-01 0.10627177E+03</pdfrwt>
<totfact> 0.19927237E+05</totfact>
</mgrwt>
</event>
<event>
 6    2  0.8544106E+000  0.1107224E+03  0.7546771E-02  0.1259238E+00
         21   -1    0    0  501  502  0.00000000000E+00  0.00000000000E+00  0.91768402850E+01  0.91768402850E+01  0.00000000000E+00 0. -1.
          2   -1    0    0  502    0 -0.00000000000E+00 -0.00000000000E+00 -0.28411280586E+04  0.28411280586E+04  0.00000000000E+00 0. -1.
         24    2    1    2    0    0 -0.75814756062E+02  0.15966442244E+02 -0.26529013712E+04  0.26552109414E+04  0.79099008862E+02 0.  0.
        -13    1    3    3    0    0  0.14954256196E+02  0.97872602214E+01 -0.64795704382E+03  0.64820347954E+03  0.00000000000E+00 0.  1.
         14    1    3    3    0    0 -0.90769012258E+02  0.61791820231E+01 -0.20049443274E+04  0.20070074618E+04  0.00000000000E+00 0. -1.
          1    1    1    2  501    0  0.75814756062E+02 -0.15966442244E+02 -0.17904984704E+03  0.19509395747E+03  0.00000000000E+00 0. -1.
<mgrwt>
<rscale>  1 0.11072244E+03</rscale>
<asrwt>0</asrwt>
<pdfrwt beam="1">  1       21 0.14118216E-02 0.11072244E+03</pdfrwt>
<pdfrwt beam="2">  1        2 0.43709663E+00 0.11072244E+03</pdfrwt>
<totfact> 0.75212357E+04</totfact>
</mgrwt>
</event>
<event>
 6    2  0.8544106E+000  0.9411614E+02  0.7546771E-02  0.1293179E+00
          2   -1    0    0  502    0 -0.00000000000E+00  0.00000000000E+00  0.13510271386E+04  0.13510271386E+04  0.00000000000E+00 0. -1.
         21   -1    0    0  501  502  0.00000000000E+00 -0.00000000000E+00 -0.14718123595E+02  0.14718123595E+02  0.00000000000E+00 0. -1.
         24    2    1    2    0    0 -0.14481882854E+02  0.45529128855E+02  0.13055176301E+04  0.13089056995E+04  0.81087737052E+02 0.  0.
        -11    1    3    3    0    0 -0.12415160605E+02  0.43536209278E+02  0.30113875535E+03  0.30452272117E+03  0.00000000000E+00 0.  1.
         12    1    3    3    0    0 -0.20667222491E+01  0.19929195767E+01  0.10043788748E+04  0.10043829783E+04  0.00000000000E+00 0. -1.
          1    1    1    2  501    0  0.14481882854E+02 -0.45529128855E+02  0.30791384886E+02  0.56839562705E+02  0.00000000000E+00 0. -1.
<mgrwt>
<rscale>  1 0.94116139E+02</rscale>
<asrwt>0</asrwt>
<pdfrwt beam="1">  1       21 0.22643278E-02 0.94116139E+02</pdfrwt>
<pdfrwt beam="2">  1        2 0.20785023E+00 0.94116139E+02</pdfrwt>
<totfact> 0.20945607E+05</totfact>
</mgrwt>
</event>
<event>
 6    2  0.8544106E+000  0.8206813E+02  0.7546771E-02  0.1323283E+00
         -1   -1    0    0    0  501 -0.00000000000E+00  0.00000000000E+00  0.36681053752E+03  0.36681053752E+03  0.00000000000E+00 0.  1.
         21   -1    0    0  501  502  0.00000000000E+00 -0.00000000000E+00 -0.84383657757E+01  0.84383657757E+01  0.00000000000E+00 0. -1.
         24    2    1    2    0    0 -0.24926323222E+02 -0.84819345902E+00  0.31179158882E+03  0.32241149489E+03  0.78186547155E+02 0.  0.
        -13    1    3    3    0    0 -0.21410464849E+01  0.29380469795E+02  0.23455202064E+03  0.23639468368E+03  0.00000000000E+00 0.  1.
         14    1    3    3    0    0 -0.22785276737E+02 -0.30228663254E+02  0.77239568182E+02  0.86016811212E+02  0.00000000000E+00 0. -1.
         -2    1    1    2    0  502  0.24926323222E+02  0.84819345902E+00  0.46580582918E+02  0.52837408401E+02  0.00000000000E+00 0.  1.
<mgrwt>
<rscale>  1 0.82068125E+02</rscale>
<asrwt>0</asrwt>
<pdfrwt beam="1">  1       21 0.12982104E-02 0.82068125E+02</pdfrwt>
<pdfrwt beam="2">  1       -1 0.56432378E-01 0.82068125E+02</pdfrwt>
<totfact> 0.69042398E+05</totfact>
</mgrwt>
</event>
<event>
 6    2  0.8544106E+000  0.1185147E+03  0.7546771E-02  0.1245568E+00
         21   -1    0    0  501  502  0.00000000000E+00  0.00000000000E+00  0.75072933279E+02  0.75072933279E+02  0.00000000000E+00 0. -1.
          2   -1    0    0  502    0 -0.00000000000E+00 -0.00000000000E+00 -0.22902904021E+03  0.22902904021E+03  0.00000000000E+00 0. -1.
         24    2    1    2    0    0 -0.86815990557E+02 -0.72690499990E+01 -0.17789076980E+03  0.21375418220E+03  0.80348423275E+02 0.  0.
        -11    1    3    3    0    0  0.13005052804E+02  0.17238398526E+01 -0.52512992391E+01  0.14130787875E+02  0.00000000000E+00 0.  1.
         12    1    3    3    0    0 -0.99821043361E+02 -0.89928898516E+01 -0.17263947056E+03  0.19962339432E+03  0.00000000000E+00 0. -1.
          1    1    1    2  501    0  0.86815990557E+02  0.72690499990E+01  0.23934662871E+02  0.90347791290E+02  0.00000000000E+00 0. -1.
<mgrwt>
<rscale>  1 0.11851466E+03</rscale>
<asrwt>0</asrwt>
<pdfrwt beam="1">  1       21 0.11549682E-01 0.11851466E+03</pdfrwt>
<pdfrwt beam="2">  1        2 0.35235237E-01 0.11851466E+03</pdfrwt>
<totfact> 0.11222906E+05</totfact>
</mgrwt>
</event>
<event>
 6    2  0.8544106E+000  0.1033999E+03  0.7546771E-02  0.1273305E+00
          2   -1    0    0  502    0 -0.00000000000E+00  0.00000000000E+00  0.91933482135E+02  0.91933482135E+02  0.00000000000E+00 0. -1.
         21   -1    0    0  501  502  0.00000000000E+00 -0.00000000000E+00 -0.77026385736E+02  0.77026385736E+02  0.00000000000E+00 0.  1.
         24    2    1    2    0    0 -0.29033994271E+02 -0.57486422816E+02  0.28538544747E+01  0.10343931940E+03  0.80894293250E+02 0.  0.
        -11    1    3    3    0    0 -0.23321774256E+02 -0.78135557784E+02 -0.15958709965E+01  0.81557448151E+02  0.00000000000E+00 0.  1.
         12    1    3    3    0    0 -0.57122200147E+01  0.20649134968E+02  0.44497254712E+01  0.21881871245E+02  0.00000000000E+00 0. -1.
          1    1    1    2  501    0  0.29033994271E+02  0.57486422816E+02  0.12053241924E+02  0.65520548474E+02  0.00000000000E+00 0. -1.
<mgrwt>
<rscale>  1 0.10339994E+03</rscale>
<asrwt>0</asrwt>
<pdfrwt beam="1">  1       21 0.11850213E-01 0.10339994E+03</pdfrwt>
<pdfrwt beam="2">  1        2 0.14143613E-01 0.10339994E+03</pdfrwt>
<totfact> 0.29381401E+05</totfact>
</mgrwt>
</event>
<event>
 6    2  0.8544106E+000  0.8323137E+02  0.7546771E-02  0.1320124E+00
         -1   -1    0    0    0  501 -0.00000000000E+00  0.00000000000E+00  0.23991794018E+03  0.23991794018E+03  0.00000000000E+00 0.  1.
         21   -1    0    0  501  502  0.00000000000E+00 -0.00000000000E+00 -0.38998645203E+02  0.38998645203E+02  0.00000000000E+00 0.  1.
         24    2    1    2    0    0  0.23913081232E+02  0.98742309503E+01  0.22724404568E+03  0.24200685238E+03  0.79108308081E+02 0.  0.
        -13    1    3    3    0    0  0.47463266210E+02  0.11468461362E+02  0.20039134803E+03  0.20625464748E+03  0.00000000000E+00 0.  1.
         14    1    3    3    0    0 -0.23550184978E+02 -0.15942304118E+01  0.26852697658E+02  0.35752204892E+02  0.00000000000E+00 0. -1.
         -2    1    1    2    0  502 -0.23913081232E+02 -0.98742309503E+01 -0.26324750707E+02  0.36909733007E+02  0.00000000000E+00 0.  1.
<mgrwt>
<rscale>  1 0.83231366E+02</rscale>
<asrwt>0</asrwt>
<pdfrwt beam="1">  1       21 0.59997917E-02 0.83231366E+02</pdfrwt>
<pdfrwt beam="2">  1       -1 0.36910451E-01 0.83231366E+02</pdfrwt>
<totfact> 0.12303041E+05</totfact>
</mgrwt>
</event>
<event>
 6    2  0.8544106E+000  0.8543141E+02  0.7546771E-02  0.1314308E+00
          2   -1    0    0  502    0 -0.00000000000E+00  0.00000000000E+00  0.41008649364E+03  0.41008649364E+03  0.00000000000E+00 0. -1.
         21   -1    0    0  501  502  0.00000000000E+00 -0.00000000000E+00 -0.13171783960E+02  0.13171783960E+02  0.00000000000E+00 0.  1.
         24    2    1    2    0    0 -0.18309351445E+02 -0.25980844598E+02  0.37510561054E+03  0.38471124864E+03  0.79298733495E+02 0.  0.
        -13    1    3    3    0    0 -0.26409280817E+02  0.15483653953E+02  0.66270894953E+02  0.73000172403E+02  0.00000000000E+00 0.  1.
         14    1    3    3    0    0  0.80999293720E+01 -0.41464498552E+02  0.30883471559E+03  0.31171107624E+03  0.00000000000E+00 0. -1.
          1    1    1    2  501    0  0.18309351445E+02  0.25980844598E+02  0.21809099138E+02  0.38547028959E+02  0.00000000000E+00 0. -1.
<mgrwt>
<rscale>  1 0.85431410E+02</rscale>
<asrwt>0</asrwt>
<pdfrwt beam="1">  1       21 0.20264286E-02 0.85431410E+02</pdfrwt>
<pdfrwt beam="2">  1        2 0.63090220E-01 0.85431410E+02</pdfrwt>
<totfact> 0.10883287E+06</totfact>
</mgrwt>
</event>
<event>
 6    2  0.8544106E+000  0.8424312E+02  0.7546771E-02  0.1317424E+00
         21   -1    0    0  501  502  0.00000000000E+00  0.00000000000E+00  0.18069656757E+02  0.18069656757E+02  0.00000000000E+00 0. -1.
          4   -1    0    0  502    0 -0.00000000000E+00 -0.00000000000E+00 -0.15933191823E+03  0.15933191823E+03  0.00000000000E+00 0. -1.
         24    2    1    2    0    0  0.17669385316E+02 -0.14388155618E+02 -0.11626276808E+03  0.14357553665E+03  0.81102880861E+02 0.  0.
        -13    1    3    3    0    0 -0.30487589098E+02 -0.39043643908E+01 -0.67863173932E+02  0.74499312255E+02  0.00000000000E+00 0.  1.
         14    1    3    3    0    0  0.48156974415E+02 -0.10483791227E+02 -0.48399594146E+02  0.69076224396E+02  0.00000000000E+00 0. -1.
          3    1    1    2  501    0 -0.17669385316E+02  0.14388155618E+02 -0.24999493393E+02  0.33826038335E+02  0.00000000000E+00 0. -1.
<mgrwt>
<rscale>  1 0.84243121E+02</rscale>
<asrwt>0</asrwt>
<pdfrwt beam="1">  1       21 0.27799472E-02 0.84243121E+02</pdfrwt>
<pdfrwt beam="2">  1        4 0.24512603E-01 0.84243121E+02</pdfrwt>
<totfact> 0.40431398E+05</totfact>
</mgrwt>
</event>
<event>
 6    2  0.8544106E+000  0.8657280E+02  0.7546771E-02  0.1311370E+00
         21   -1    0    0  501  502  0.00000000000E+00  0.00000000000E+00  0.64349842490E+02  0.64349842490E+02  0.00000000000E+00 0.  1.
          2   -1    0    0  502    0 -0.00000000000E+00 -0.00000000000E+00 -0.75663775083E+02  0.75663775083E+02  0.00000000000E+00 0. -1.
         24    2    1    2    0    0 -0.26326827391E+02  0.27397821383E+02 -0.37001558763E+02  0.94148635340E+02  0.77788866353E+02 0.  0.
        -13    1    3    3    0    0 -0.28478737821E+02  0.51761523823E+02 -0.36964986046E+02  0.69690057036E+02  0.00000000000E+00 0.  1.
         14    1    3    3    0    0  0.21519104296E+01 -0.24363702440E+02 -0.36572716870E-01  0.24458578304E+02  0.00000000000E+00 0. -1.
          1    1    1    2  501    0  0.26326827391E+02 -0.27397821383E+02  0.25687626170E+02  0.45864982233E+02  0.00000000000E+00 0. -1.
<mgrwt>
<rscale>  1 0.86572803E+02</rscale>
<asrwt>0</asrwt>
<pdfrwt beam="1">  1       21 0.98999758E-02 0.86572803E+02</pdfrwt>
<pdfrwt beam="2">  1        2 0.11640581E-01 0.86572803E+02</pdfrwt>
<totfact> 0.49842341E+05</totfact>
</mgrwt>
</event>
<event>
 6    2  0.8544106E+000  0.8749839E+02  0.7546771E-02  0.1309025E+00
         21   -1    0    0  501  502  0.00000000000E+00  0.00000000000E+00  0.11711359394E+03  0.11711359394E+03  0.00000000000E+00 0. -1.
          2   -1    0    0  502    0 -0.00000000000E+00 -0.00000000000E+00 -0.30139904124E+03  0.30139904124E+03  0.00000000000E+00 0. -1.
         24    2    1    2    0    0 -0.25753784609E+02 -0.22877803764E+02 -0.29231198528E+03  0.30512663854E+03  0.80432067501E+02 0.  0.
        -13    1    3    3    0    0 -0.62474225419E+00  0.45273018690E+01  0.42511440410E+01  0.62417137674E+01  0.00000000000E+00 0.  1.
         14    1    3    3    0    0 -0.25129042355E+02 -0.27405105632E+02 -0.29656312932E+03  0.29888492477E+03  0.00000000000E+00 0. -1.
          1    1    1    2  501    0  0.25753784609E+02  0.22877803764E+02  0.10802653798E+03  0.11338599664E+03  0.00000000000E+00 0. -1.
<mgrwt>
<rscale>  1 0.87498393E+02</rscale>
<asrwt>0</asrwt>
<pdfrwt beam="1">  1       21 0.18017476E-01 0.87498393E+02</pdfrwt>
<pdfrwt beam="2">  1        2 0.46369083E-01 0.87498393E+02</pdfrwt>
<totfact> 0.37677991E+04</totfact>
</mgrwt>
</event>
<event>
 6    2  0.8544106E+000  0.8976281E+02  0.7546771E-02  0.1303427E+00
         21   -1    0    0  501  502  0.00000000000E+00  0.00000000000E+00  0.12793194281E+03  0.12793194281E+03  0.00000000000E+00 0. -1.
          2   -1    0    0  502    0 -0.00000000000E+00 -0.00000000000E+00 -0.36341199083E+02  0.36341199083E+02  0.00000000000E+00 0. -1.
         24    2    1    2    0    0 -0.24747618058E+02  0.16101714927E+01  0.24947592277E+02  0.93165147356E+02  0.86268911375E+02 0.  0.
        -11    1    3    3    0    0 -0.19144959542E+02  0.40021881634E+02  0.30660172117E+02  0.53928903565E+02  0.00000000000E+00 0.  1.
         12    1    3    3    0    0 -0.56026585165E+01 -0.38411710142E+02 -0.57125798408E+01  0.39236243792E+02  0.00000000000E+00 0. -1.
          1    1    1    2  501    0  0.24747618058E+02 -0.16101714927E+01  0.66643151453E+02  0.71107994539E+02  0.00000000000E+00 0. -1.
<mgrwt>
<rscale>  1 0.89762811E+02</rscale>
<asrwt>0</asrwt>
<pdfrwt beam="1">  1       21 0.19681837E-01 0.89762811E+02</pdfrwt>
<pdfrwt beam="2">  1        2 0.55909538E-02 0.89762811E+02</pdfrwt>
<totfact> 0.36566209E+05</totfact>
</mgrwt>
</event>
<event>
 6    2  0.8544106E+000  0.9505824E+02  0.7546771E-02  0.1291045E+00
         21   -1    0    0  501  502  0.00000000000E+00  0.00000000000E+00  0.18237534654E+02  0.18237534654E+02  0.00000000000E+00 0. -1.
          2   -1    0    0  502    0 -0.00000000000E+00 -0.00000000000E+00 -0.30291930899E+03  0.30291930899E+03  0.00000000000E+00 0. -1.
         24    2    1    2    0    0 -0.46858759410E+02 -0.20096004177E+02 -0.15519144245E+03  0.18199025725E+03  0.80227658610E+02 0.  0.
        -13    1    3    3    0    0  0.13968534436E+02  0.15295029715E+02 -0.60942511476E+02  0.64366509874E+02  0.00000000000E+00 0.  1.
         14    1    3    3    0    0 -0.60827293847E+02 -0.35391033893E+02 -0.94248930976E+02  0.11762374738E+03  0.00000000000E+00 0. -1.
          1    1    1    2  501    0  0.46858759410E+02  0.20096004177E+02 -0.12949033188E+03  0.13916658639E+03  0.00000000000E+00 0. -1.
<mgrwt>
<rscale>  1 0.95058245E+02</rscale>
<asrwt>0</asrwt>
<pdfrwt beam="1">  1       21 0.28057747E-02 0.95058245E+02</pdfrwt>
<pdfrwt beam="2">  1        2 0.46602969E-01 0.95058245E+02</pdfrwt>
<totfact> 0.89460306E+05</totfact>
</mgrwt>
</event>
<event>
 6    2  0.8544106E+000  0.9135990E+02  0.7546771E-02  0.1299592E+00
          2   -1    0    0  502    0 -0.00000000000E+00  0.00000000000E+00  0.70671858016E+02  0.70671858016E+02  0.00000000000E+00 0. -1.
         21   -1    0    0  501  502  0.00000000000E+00 -0.00000000000E+00 -0.59594153738E+02  0.59594153738E+02  0.00000000000E+00 0. -1.
         24    2    1    2    0    0  0.37683062446E+02  0.75033993240E+00  0.14155414352E+02  0.92450029621E+02  0.83222929630E+02 0.  0.
        -13    1    3    3    0    0  0.62548586372E+02  0.48166071120E+01 -0.15630709046E+01  0.62753235389E+02  0.00000000000E+00 0.  1.
         14    1    3    3    0    0 -0.24865523926E+02 -0.40662671796E+01  0.15718485257E+02  0.29696794232E+02  0.00000000000E+00 0. -1.
          1    1    1    2  501    0 -0.37683062446E+02 -0.75033993240E+00 -0.30777100749E+01  0.37815982132E+02  0.00000000000E+00 0. -1.
<mgrwt>
<rscale>  1 0.91359905E+02</rscale>
<asrwt>0</asrwt>
<pdfrwt beam="1">  1       21 0.91683314E-02 0.91359905E+02</pdfrwt>
<pdfrwt beam="2">  1        2 0.10872593E-01 0.91359905E+02</pdfrwt>
<totfact> 0.62077310E+05</totfact>
</mgrwt>
</event>
<event>
 6    2  0.8544106E+000  0.8302223E+02  0.7546771E-02  0.1320687E+00
         21   -1    0    0  501  502  0.00000000000E+00  0.00000000000E+00  0.22300723329E+03  0.22300723329E+03  0.00000000000E+00 0.  1.
          4   -1    0    0  502    0 -0.00000000000E+00 -0.00000000000E+00 -0.13407380848E+02  0.13407380848E+02  0.00000000000E+00 0. -1.
         24    2    1    2    0    0 -0.60355223983E+00 -0.25681959530E+02  0.17036982230E+03  0.18952194323E+03  0.78947851726E+02 0.  0.
        -11    1    3    3    0    0 -0.36219343608E+02 -0.24360526441E+02  0.12099588756E+03  0.12862846071E+03  0.00000000000E+00 0.  1.
         12    1    3    3    0    0  0.35615791368E+02 -0.13214330889E+01  0.49373934745E+02  0.60893482512E+02  0.00000000000E+00 0. -1.
          3    1    1    2  501    0  0.60355223983E+00  0.25681959530E+02  0.39230030143E+02  0.46892670916E+02  0.00000000000E+00 0. -1.
<mgrwt>
<rscale>  1 0.83022230E+02</rscale>
<asrwt>0</asrwt>
<pdfrwt beam="1">  1       21 0.34308802E-01 0.83022230E+02</pdfrwt>
<pdfrwt beam="2">  1        4 0.20626741E-02 0.83022230E+02</pdfrwt>
<totfact> 0.29401435E+05</totfact>
</mgrwt>
</event>
<event>
 6    2  0.8544106E+000  0.9060790E+02  0.7546771E-02  0.1301386E+00
          2   -1    0    0  502    0 -0.00000000000E+00  0.00000000000E+00  0.10482143284E+04  0.10482143284E+04  0.00000000000E+00 0. -1.
         21   -1    0    0  501  502  0.00000000000E+00 -0.00000000000E+00 -0.50630652017E+01  0.50630652017E+01  0.00000000000E+00 0. -1.
         24    2    1    2    0    0  0.32767861390E+02 -0.31281639875E+02  0.85324810009E+03  0.85804551841E+03  0.78469851645E+02 0.  0.
        -13    1    3    3    0    0 -0.12351139815E+02 -0.22173214130E+02  0.60712397529E+03  0.60765427954E+03  0.00000000000E+00 0.  1.
         14    1    3    3    0    0  0.45119001205E+02 -0.91084257451E+01  0.24612412481E+03  0.25039123887E+03  0.00000000000E+00 0. -1.
          1    1    1    2  501    0 -0.32767861390E+02  0.31281639875E+02  0.18990316308E+03  0.19523187517E+03  0.00000000000E+00 0. -1.
<mgrwt>
<rscale>  1 0.90607899E+02</rscale>
<asrwt>0</asrwt>
<pdfrwt beam="1">  1       21 0.77893394E-03 0.90607899E+02</pdfrwt>
<pdfrwt beam="2">  1        2 0.16126357E+00 0.90607899E+02</pdfrwt>
<totfact> 0.16476406E+06</totfact>
</mgrwt>
</event>
<event>
 6    2  0.8544106E+000  0.8094756E+02  0.7546771E-02  0.1326384E+00
          2   -1    0    0  502    0 -0.00000000000E+00  0.00000000000E+00  0.13961355224E+03  0.13961355224E+03  0.00000000000E+00 0. -1.
         21   -1    0    0  501  502  0.00000000000E+00 -0.00000000000E+00 -0.35504723837E+02  0.35504723837E+02  0.00000000000E+00 0. -1.
         24    2    1    2    0    0  0.54736241410E+02 -0.40043910351E+01  0.38665654878E+02  0.89708087973E+02  0.59501402583E+02 0.  0.
        -13    1    3    3    0    0  0.81036650934E+00  0.19127801920E+02 -0.51445991579E+00  0.19151871167E+02  0.00000000000E+00 0.  1.
         14    1    3    3    0    0  0.53925874901E+02 -0.23132192955E+02  0.39180114794E+02  0.70556216806E+02  0.00000000000E+00 0. -1.
          1    1    1    2  501    0 -0.54736241410E+02  0.40043910351E+01  0.65443173529E+02  0.85410188109E+02  0.00000000000E+00 0. -1.
<mgrwt>
<rscale>  1 0.80947564E+02</rscale>
<asrwt>0</asrwt>
<pdfrwt beam="1">  1       21 0.54622653E-02 0.80947564E+02</pdfrwt>
<pdfrwt beam="2">  1        2 0.21479008E-01 0.80947564E+02</pdfrwt>
<totfact> 0.67291672E+05</totfact>
</mgrwt>
</event>
<event>
 6    2  0.8544106E+000  0.8559434E+02  0.7546771E-02  0.1313886E+00
         21   -1    0    0  501  502  0.00000000000E+00  0.00000000000E+00  0.18910809176E+01  0.18910809176E+01  0.00000000000E+00 0.  1.
          2   -1    0    0  502    0 -0.00000000000E+00 -0.00000000000E+00 -0.19530550541E+04  0.19530550541E+04  0.00000000000E+00 0. -1.
         24    2    1    2    0    0 -0.25407787986E+02 -0.14815087511E+02 -0.11217591931E+04  0.11250200348E+04  0.80382516825E+02 0.  0.
        -11    1    3    3    0    0 -0.23423449544E+02  0.30342564171E+02 -0.39464119270E+03  0.39649842391E+03  0.00000000000E+00 0.  1.
         12    1    3    3    0    0 -0.19843384420E+01 -0.45157651682E+02 -0.72711800037E+03  0.72852161091E+03  0.00000000000E+00 0. -1.
          1    1    1    2  501    0  0.25407787986E+02  0.14815087511E+02 -0.82940478012E+03  0.82992610020E+03  0.00000000000E+00 0. -1.
<mgrwt>
<rscale>  1 0.85594343E+02</rscale>
<asrwt>0</asrwt>
<pdfrwt beam="1">  1       21 0.29093584E-03 0.85594343E+02</pdfrwt>
<pdfrwt beam="2">  1        2 0.30046969E+00 0.85594343E+02</pdfrwt>
<totfact> 0.25107143E+06</totfact>
</mgrwt>
</event>
<event>
 6    2  0.8544106E+000  0.8703549E+02  0.7546771E-02  0.1310194E+00
          2   -1    0    0  502    0 -0.00000000000E+00  0.00000000000E+00  0.11393595887E+04  0.11393595887E+04  0.00000000000E+00 0. -1.
         21   -1    0    0  501  502  0.00000000000E+00 -0.00000000000E+00 -0.34887467160E+01  0.34887467160E+01  0.00000000000E+00 0.  1.
         24    2    1    2    0    0 -0.19448028626E+02 -0.31570432911E+02  0.69682155682E+03  0.70223604229E+03  0.78741723304E+02 0.  0.
        -13    1    3    3    0    0  0.18555589013E+01 -0.53498344046E+02  0.35004276825E+03  0.35411220753E+03  0.00000000000E+00 0.  1.
         14    1    3    3    0    0 -0.21303587527E+02  0.21927911135E+02  0.34677878856E+03  0.34812383476E+03  0.00000000000E+00 0. -1.
          1    1    1    2  501    0  0.19448028626E+02  0.31570432911E+02  0.43904928515E+03  0.44061229311E+03  0.00000000000E+00 0. -1.
<mgrwt>
<rscale>  1 0.87035493E+02</rscale>
<asrwt>0</asrwt>
<pdfrwt beam="1">  1       21 0.53673118E-03 0.87035493E+02</pdfrwt>
<pdfrwt beam="2">  1        2 0.17528579E+00 0.87035493E+02</pdfrwt>
<totfact> 0.25908192E+06</totfact>
</mgrwt>
</event>
<event>
 6    2  0.8544106E+000  0.1116351E+03  0.7546771E-02  0.1257572E+00
         21   -1    0    0  501  502  0.00000000000E+00  0.00000000000E+00  0.11585056552E+02  0.11585056552E+02  0.00000000000E+00 0. -1.
          2   -1    0    0  502    0 -0.00000000000E+00 -0.00000000000E+00 -0.82471852876E+03  0.82471852876E+03  0.00000000000E+00 0. -1.
         24    2    1    2    0    0  0.67944646450E+02 -0.38150135198E+02 -0.37382290884E+03  0.39013581543E+03  0.79940474789E+02 0.  0.
        -11    1    3    3    0    0  0.64200525447E+02 -0.22127708474E+02 -0.36539002809E+03  0.37164662729E+03  0.00000000000E+00 0.  1.
         12    1    3    3    0    0  0.37441210031E+01 -0.16022426725E+02 -0.84328807519E+01  0.18489188138E+02  0.00000000000E+00 0. -1.
          1    1    1    2  501    0 -0.67944646450E+02  0.38150135198E+02 -0.43931056337E+03  0.44616776988E+03  0.00000000000E+00 0. -1.
<mgrwt>
<rscale>  1 0.11163506E+03</rscale>
<asrwt>0</asrwt>
<pdfrwt beam="1">  1       21 0.17823159E-02 0.11163506E+03</pdfrwt>
<pdfrwt beam="2">  1        2 0.12687981E+00 0.11163506E+03</pdfrwt>
<totfact> 0.62227858E+05</totfact>
</mgrwt>
</event>
<event>
 6    2  0.8544106E+000  0.8290317E+02  0.7546771E-02  0.1321009E+00
         21   -1    0    0  501  502  0.00000000000E+00  0.00000000000E+00  0.37599527052E+02  0.37599527052E+02  0.00000000000E+00 0.  1.
          2   -1    0    0  502    0 -0.00000000000E+00 -0.00000000000E+00 -0.10070120862E+03  0.10070120862E+03  0.00000000000E+00 0. -1.
         24    2    1    2    0    0 -0.22382186830E+02  0.50588708632E+01 -0.13966477315E+02  0.84071382378E+02  0.79664172529E+02 0.  0.
        -13    1    3    3    0    0  0.45822418626E+01  0.17243708663E+01  0.31081185435E+02  0.31464432037E+02  0.00000000000E+00 0.  1.
         14    1    3    3    0    0 -0.26964428692E+02  0.33344999969E+01 -0.45047662750E+02  0.52606950341E+02  0.00000000000E+00 0. -1.
          1    1    1    2  501    0  0.22382186830E+02 -0.50588708632E+01 -0.49135204258E+02  0.54229353298E+02  0.00000000000E+00 0. -1.
<mgrwt>
<rscale>  1 0.82903165E+02</rscale>
<asrwt>0</asrwt>
<pdfrwt beam="1">  1       21 0.57845425E-02 0.82903165E+02</pdfrwt>
<pdfrwt beam="2">  1        2 0.15492494E-01 0.82903165E+02</pdfrwt>
<totfact> 0.88556148E+05</totfact>
</mgrwt>
</event>
<event>
 6    2  0.8544106E+000  0.8591698E+02  0.7546771E-02  0.1313052E+00
         21   -1    0    0  501  502  0.00000000000E+00  0.00000000000E+00  0.36384574296E+02  0.36384574296E+02  0.00000000000E+00 0.  1.
         -3   -1    0    0    0  501 -0.00000000000E+00 -0.00000000000E+00 -0.98605971485E+02  0.98605971485E+02  0.00000000000E+00 0.  1.
         24    2    1    2    0    0  0.24511084640E+02  0.12937171941E+02 -0.64125914511E+02  0.10720942136E+03  0.81323818329E+02 0.  0.
        -11    1    3    3    0    0 -0.18405899254E+02  0.28205402152E+02 -0.48509274529E+02  0.59054818205E+02  0.00000000000E+00 0.  1.
         12    1    3    3    0    0  0.42916983894E+02 -0.15268230211E+02 -0.15616639981E+02  0.48154603151E+02  0.00000000000E+00 0. -1.
         -4    1    1    2    0  502 -0.24511084640E+02 -0.12937171941E+02  0.19045173221E+01  0.27781124424E+02  0.00000000000E+00 0.  1.
<mgrwt>
<rscale>  1 0.85916978E+02</rscale>
<asrwt>0</asrwt>
<pdfrwt beam="1">  1       21 0.55976268E-02 0.85916978E+02</pdfrwt>
<pdfrwt beam="2">  1       -3 0.15170149E-01 0.85916978E+02</pdfrwt>
<totfact> 0.35387049E+05</totfact>
</mgrwt>
</event>
<event>
 6    2  0.8544106E+000  0.8753890E+02  0.7546771E-02  0.1308923E+00
         21   -1    0    0  501  502  0.00000000000E+00  0.00000000000E+00  0.12935273236E+02  0.12935273236E+02  0.00000000000E+00 0.  1.
          2   -1    0    0  502    0 -0.00000000000E+00 -0.00000000000E+00 -0.27885799880E+03  0.27885799880E+03  0.00000000000E+00 0. -1.
         24    2    1    2    0    0 -0.15542248127E+02  0.28556101097E+02 -0.19819190148E+03  0.21666353813E+03  0.81277589487E+02 0.  0.
        -11    1    3    3    0    0 -0.13670267992E+02  0.76844102187E+01  0.16111444156E+01  0.15764586062E+02  0.00000000000E+00 0.  1.
         12    1    3    3    0    0 -0.18719801355E+01  0.20871690878E+02 -0.19980304590E+03  0.20089895206E+03  0.00000000000E+00 0. -1.
          1    1    1    2  501    0  0.15542248127E+02 -0.28556101097E+02 -0.67730824077E+02  0.75129733907E+02  0.00000000000E+00 0. -1.
<mgrwt>
<rscale>  1 0.87538900E+02</rscale>
<asrwt>0</asrwt>
<pdfrwt beam="1">  1       21 0.19900421E-02 0.87538900E+02</pdfrwt>
<pdfrwt beam="2">  1        2 0.42901229E-01 0.87538900E+02</pdfrwt>
<totfact> 0.16811581E+06</totfact>
</mgrwt>
</event>
<event>
 6    2  0.8544106E+000  0.8555108E+02  0.7546771E-02  0.1313998E+00
         21   -1    0    0  501  502  0.00000000000E+00  0.00000000000E+00  0.92408771983E+02  0.92408771983E+02  0.00000000000E+00 0.  1.
          4   -1    0    0  502    0 -0.00000000000E+00 -0.00000000000E+00 -0.49083434476E+02  0.49083434476E+02  0.00000000000E+00 0. -1.
         24    2    1    2    0    0  0.46449055072E+00 -0.29210446549E+02 -0.42573275211E+01  0.85656949227E+02  0.80408470786E+02 0.  0.
        -13    1    3    3    0    0  0.38113044972E+02 -0.28897297688E+01  0.57227777667E+01  0.38648478890E+02  0.00000000000E+00 0.  1.
         14    1    3    3    0    0 -0.37648554421E+02 -0.26320716780E+02 -0.99801052877E+01  0.47008470336E+02  0.00000000000E+00 0. -1.
          3    1    1    2  501    0 -0.46449055072E+00  0.29210446549E+02  0.47582665028E+02  0.55835257232E+02  0.00000000000E+00 0. -1.
<mgrwt>
<rscale>  1 0.85551085E+02</rscale>
<asrwt>0</asrwt>
<pdfrwt beam="1">  1       21 0.14216734E-01 0.85551085E+02</pdfrwt>
<pdfrwt beam="2">  1        4 0.75512976E-02 0.85551085E+02</pdfrwt>
<totfact> 0.19539598E+05</totfact>
</mgrwt>
</event>
<event>
 6    2  0.8544106E+000  0.8578901E+02  0.7546771E-02  0.1313382E+00
         21   -1    0    0  501  502  0.00000000000E+00  0.00000000000E+00  0.21757344754E+02  0.21757344754E+02  0.00000000000E+00 0.  1.
          2   -1    0    0  502    0 -0.00000000000E+00 -0.00000000000E+00 -0.16919603849E+03  0.16919603849E+03  0.00000000000E+00 0. -1.
         24    2    1    2    0    0  0.30328469757E+02  0.14760085902E+02 -0.89955181612E+02  0.12430482452E+03  0.78880152680E+02 0.  0.
        -11    1    3    3    0    0  0.48955216805E+02  0.32718183665E+02 -0.53197868848E+02  0.79354307033E+02  0.00000000000E+00 0.  1.
         12    1    3    3    0    0 -0.18626747048E+02 -0.17958097763E+02 -0.36757312764E+02  0.44950517489E+02  0.00000000000E+00 0. -1.
          1    1    1    2  501    0 -0.30328469757E+02 -0.14760085902E+02 -0.57483512119E+02  0.66648558718E+02  0.00000000000E+00 0. -1.
<mgrwt>
<rscale>  1 0.85789013E+02</rscale>
<asrwt>0</asrwt>
<pdfrwt beam="1">  1       21 0.33472837E-02 0.85789013E+02</pdfrwt>
<pdfrwt beam="2">  1        2 0.26030161E-01 0.85789013E+02</pdfrwt>
<totfact> 0.12305201E+06</totfact>
</mgrwt>
</event>
<event>
 6    2  0.8544106E+000  0.1051173E+03  0.7546771E-02  0.1269889E+00
          2   -1    0    0  502    0 -0.00000000000E+00  0.00000000000E+00  0.67331597699E+03  0.67331597699E+03  0.00000000000E+00 0. -1.
         21   -1    0    0  501  502  0.00000000000E+00 -0.00000000000E+00 -0.11239121008E+02  0.11239121008E+02  0.00000000000E+00 0. -1.
         24    2    1    2    0    0  0.67135574370E+02 -0.82978308472E+01  0.44132921163E+03  0.45367512522E+03  0.80458727702E+02 0.  0.
        -13    1    3    3    0    0 -0.93352335435E+01  0.21191153688E+02  0.96253748230E+02  0.98999977920E+02  0.00000000000E+00 0.  1.
         14    1    3    3    0    0  0.76470807914E+02 -0.29488984535E+02  0.34507546340E+03  0.35467514730E+03  0.00000000000E+00 0. -1.
          1    1    1    2  501    0 -0.67135574370E+02  0.82978308472E+01  0.22074764436E+03  0.23087997278E+03  0.00000000000E+00 0. -1.
<mgrwt>
<rscale>  1 0.10511730E+03</rscale>
<asrwt>0</asrwt>
<pdfrwt beam="1">  1       21 0.17290961E-02 0.10511730E+03</pdfrwt>
<pdfrwt beam="2">  1        2 0.10358704E+00 0.10511730E+03</pdfrwt>
<totfact> 0.82982302E+05</totfact>
</mgrwt>
</event>
<event>
 6    2  0.8544106E+000  0.9708744E+02  0.7546771E-02  0.1286543E+00
          2   -1    0    0  502    0 -0.00000000000E+00  0.00000000000E+00  0.22570006372E+03  0.22570006372E+03  0.00000000000E+00 0. -1.
         21   -1    0    0  501  502  0.00000000000E+00 -0.00000000000E+00 -0.18260888499E+02  0.18260888499E+02  0.00000000000E+00 0.  1.
         24    2    1    2    0    0  0.19627343615E+02  0.17955991900E+02  0.13121277344E+03  0.16322611097E+03  0.93371950430E+02 0.  0.
        -11    1    3    3    0    0 -0.20718972306E+01  0.49451150550E+02  0.37772435841E+02  0.62261271736E+02  0.00000000000E+00 0.  1.
         12    1    3    3    0    0  0.21699240846E+02 -0.31495158649E+02  0.93440337596E+02  0.10096483923E+03  0.00000000000E+00 0. -1.
          1    1    1    2  501    0 -0.19627343615E+02 -0.17955991900E+02  0.76226401789E+02  0.80734841253E+02  0.00000000000E+00 0. -1.
<mgrwt>
<rscale>  1 0.97087442E+02</rscale>
<asrwt>0</asrwt>
<pdfrwt beam="1">  1       21 0.28093676E-02 0.97087442E+02</pdfrwt>
<pdfrwt beam="2">  1        2 0.34723085E-01 0.97087442E+02</pdfrwt>
<totfact> 0.12190487E+06</totfact>
</mgrwt>
</event>
<event>
 6    2  0.8544106E+000  0.8459873E+02  0.7546771E-02  0.1316485E+00
          2   -1    0    0  502    0 -0.00000000000E+00  0.00000000000E+00  0.27803982595E+04  0.27803982595E+04  0.00000000000E+00 0. -1.
         21   -1    0    0  501  502  0.00000000000E+00 -0.00000000000E+00 -0.12488268358E+01  0.12488268358E+01  0.00000000000E+00 0. -1.
         24    2    1    2    0    0  0.46755075724E+01 -0.27863655168E+02  0.23777771101E+04  0.23792815996E+04  0.79741462894E+02 0.  0.
        -11    1    3    3    0    0 -0.17510099478E+01  0.86558347881E+01  0.31581803484E+02  0.32793289299E+02  0.00000000000E+00 0.  1.
         12    1    3    3    0    0  0.64265175202E+01 -0.36519489956E+02  0.23461953066E+04  0.23464883103E+04  0.00000000000E+00 0. -1.
          1    1    1    2  501    0 -0.46755075724E+01  0.27863655168E+02  0.40137232250E+03  0.40236548674E+03  0.00000000000E+00 0. -1.
<mgrwt>
<rscale>  1 0.84598727E+02</rscale>
<asrwt>0</asrwt>
<pdfrwt beam="1">  1       21 0.19212943E-03 0.84598727E+02</pdfrwt>
<pdfrwt beam="2">  1        2 0.42774862E+00 0.84598727E+02</pdfrwt>
<totfact> 0.17452418E+06</totfact>
</mgrwt>
</event>
<event>
 6    2  0.8544106E+000  0.8251937E+02  0.7546771E-02  0.1322050E+00
         -3   -1    0    0    0  501 -0.00000000000E+00  0.00000000000E+00  0.29748891426E+03  0.29748891426E+03  0.00000000000E+00 0.  1.
         21   -1    0    0  501  502  0.00000000000E+00 -0.00000000000E+00 -0.17165247843E+02  0.17165247843E+02  0.00000000000E+00 0.  1.
         24    2    1    2    0    0  0.14024412080E+02 -0.14986658886E+02  0.28222461241E+03  0.29404111588E+03  0.79925977647E+02 0.  0.
        -13    1    3    3    0    0  0.58457140677E+01 -0.38075375797E+02  0.25296930700E+03  0.25588547614E+03  0.00000000000E+00 0.  1.
         14    1    3    3    0    0  0.81786980122E+01  0.23088716911E+02  0.29255305406E+02  0.38155639743E+02  0.00000000000E+00 0. -1.
         -4    1    1    2    0  502 -0.14024412080E+02  0.14986658886E+02 -0.19009459911E+01  0.20613046219E+02  0.00000000000E+00 0.  1.
<mgrwt>
<rscale>  1 0.82519367E+02</rscale>
<asrwt>0</asrwt>
<pdfrwt beam="1">  1       21 0.26408076E-02 0.82519367E+02</pdfrwt>
<pdfrwt beam="2">  1       -3 0.45767521E-01 0.82519367E+02</pdfrwt>
<totfact> 0.16428908E+05</totfact>
</mgrwt>
</event>
<event>
 6    2  0.8544106E+000  0.8754955E+02  0.7546771E-02  0.1308897E+00
         21   -1    0    0  501  502  0.00000000000E+00  0.00000000000E+00  0.40764727066E+02  0.40764727066E+02  0.00000000000E+00 0.  1.
          2   -1    0    0  502    0 -0.00000000000E+00 -0.00000000000E+00 -0.12838306632E+03  0.12838306632E+03  0.00000000000E+00 0. -1.
         24    2    1    2    0    0 -0.74051209433E+00 -0.33582210631E+02 -0.10039739526E+03  0.13320871297E+03  0.80849310484E+02 0.  0.
        -13    1    3    3    0    0  0.68935685186E+01 -0.19376120122E+02  0.91292570017E+01  0.22501081114E+02  0.00000000000E+00 0.  1.
         14    1    3    3    0    0 -0.76340806129E+01 -0.14206090510E+02 -0.10952665226E+03  0.11070763185E+03  0.00000000000E+00 0. -1.
          1    1    1    2  501    0  0.74051209433E+00  0.33582210631E+02  0.12779056007E+02  0.35939080421E+02  0.00000000000E+00 0. -1.
<mgrwt>
<rscale>  1 0.87549553E+02</rscale>
<asrwt>0</asrwt>
<pdfrwt beam="1">  1       21 0.62714965E-02 0.87549553E+02</pdfrwt>
<pdfrwt beam="2">  1        2 0.19751241E-01 0.87549553E+02</pdfrwt>
<totfact> 0.59066254E+05</totfact>
</mgrwt>
</event>
<event>
 6    2  0.8544106E+000  0.8772334E+02  0.7546771E-02  0.1308461E+00
         21   -1    0    0  501  502  0.00000000000E+00  0.00000000000E+00  0.64537661734E+02  0.64537661734E+02  0.00000000000E+00 0. -1.
          2   -1    0    0  502    0 -0.00000000000E+00 -0.00000000000E+00 -0.15065404970E+04  0.15065404970E+04  0.00000000000E+00 0. -1.
         24    2    1    2    0    0  0.21097987206E+02  0.35245191999E+02 -0.14985889871E+04  0.15011543345E+04  0.77511517398E+02 0.  0.
        -13    1    3    3    0    0 -0.98992271427E+01 -0.60966511044E+01 -0.40126257739E+02  0.41776553386E+02  0.00000000000E+00 0.  1.
         14    1    3    3    0    0  0.30997214348E+02  0.41341843104E+02 -0.14584627293E+04  0.14593777812E+04  0.00000000000E+00 0. -1.
          1    1    1    2  501    0 -0.21097987206E+02 -0.35245191999E+02  0.56586151765E+02  0.69923824229E+02  0.00000000000E+00 0. -1.
<mgrwt>
<rscale>  1 0.87723338E+02</rscale>
<asrwt>0</asrwt>
<pdfrwt beam="1">  1       21 0.99288712E-02 0.87723338E+02</pdfrwt>
<pdfrwt beam="2">  1        2 0.23177546E+00 0.87723338E+02</pdfrwt>
<totfact> 0.14903351E+04</totfact>
</mgrwt>
</event>
<event>
 6    2  0.8544106E+000  0.8590299E+02  0.7546771E-02  0.1313088E+00
         21   -1    0    0  501  502  0.00000000000E+00  0.00000000000E+00  0.25730431146E+02  0.25730431146E+02  0.00000000000E+00 0. -1.
          2   -1    0    0  502    0 -0.00000000000E+00 -0.00000000000E+00 -0.25271191254E+03  0.25271191254E+03  0.00000000000E+00 0. -1.
         24    2    1    2    0    0  0.23048671525E+01 -0.24010266517E+02 -0.23717782660E+03  0.25225511844E+03  0.82447062007E+02 0.  0.
        -13    1    3    3    0    0  0.27070060604E+02 -0.44104769612E+02 -0.11730991882E+03  0.12821714369E+03  0.00000000000E+00 0.  1.
         14    1    3    3    0    0 -0.24765193451E+02  0.20094503095E+02 -0.11986790779E+03  0.12403797474E+03  0.00000000000E+00 0. -1.
          1    1    1    2  501    0 -0.23048671525E+01  0.24010266517E+02  0.10196345207E+02  0.26187225252E+02  0.00000000000E+00 0. -1.
<mgrwt>
<rscale>  1 0.85902988E+02</rscale>
<asrwt>0</asrwt>
<pdfrwt beam="1">  1       21 0.39585280E-02 0.85902988E+02</pdfrwt>
<pdfrwt beam="2">  1        2 0.38878755E-01 0.85902988E+02</pdfrwt>
<totfact> 0.61043633E+05</totfact>
</mgrwt>
</event>
<event>
 6    2  0.8544106E+000  0.9861382E+02  0.7546771E-02  0.1283238E+00
          2   -1    0    0  502    0 -0.00000000000E+00  0.00000000000E+00  0.39281062837E+03  0.39281062837E+03  0.00000000000E+00 0. -1.
         21   -1    0    0  501  502  0.00000000000E+00 -0.00000000000E+00 -0.17573813374E+02  0.17573813374E+02  0.00000000000E+00 0. -1.
         24    2    1    2    0    0 -0.56440423799E+02 -0.13219728452E+02  0.29747089036E+03  0.31339051568E+03  0.79777202555E+02 0.  0.
        -13    1    3    3    0    0  0.11290726049E+02 -0.18250196986E+02  0.14363031245E+03  0.14522471153E+03  0.00000000000E+00 0.  1.
         14    1    3    3    0    0 -0.67731149848E+02  0.50304685332E+01  0.15384057791E+03  0.16816580415E+03  0.00000000000E+00 0. -1.
          1    1    1    2  501    0  0.56440423799E+02  0.13219728452E+02  0.77765924637E+02  0.96993926066E+02  0.00000000000E+00 0. -1.
<mgrwt>
<rscale>  1 0.98613816E+02</rscale>
<asrwt>0</asrwt>
<pdfrwt beam="1">  1       21 0.27036639E-02 0.98613816E+02</pdfrwt>
<pdfrwt beam="2">  1        2 0.60432398E-01 0.98613816E+02</pdfrwt>
<totfact> 0.72571005E+05</totfact>
</mgrwt>
</event>
<event>
 6    2  0.8544106E+000  0.8718632E+02  0.7546771E-02  0.1309812E+00
         21   -1    0    0  501  502  0.00000000000E+00  0.00000000000E+00  0.78817025974E+01  0.78817025974E+01  0.00000000000E+00 0.  1.
         -1   -1    0    0    0  501 -0.00000000000E+00 -0.00000000000E+00 -0.95421903048E+03  0.95421903048E+03  0.00000000000E+00 0.  1.
         24    2    1    2    0    0 -0.34788798288E+02  0.31066631374E+00 -0.89971031182E+03  0.90392483062E+03  0.79944338238E+02 0.  0.
        -13    1    3    3    0    0 -0.18415504597E+02 -0.34207986797E+02 -0.66425096224E+03  0.66538609694E+03  0.00000000000E+00 0.  1.
         14    1    3    3    0    0 -0.16373293691E+02  0.34518653111E+02 -0.23545934958E+03  0.23853873368E+03  0.00000000000E+00 0. -1.
         -2    1    1    2    0  502  0.34788798288E+02 -0.31066631374E+00 -0.46627016065E+02  0.58175902460E+02  0.00000000000E+00 0.  1.
<mgrwt>
<rscale>  1 0.87186319E+02</rscale>
<asrwt>0</asrwt>
<pdfrwt beam="1">  1       21 0.12125701E-02 0.87186319E+02</pdfrwt>
<pdfrwt beam="2">  1       -1 0.14680287E+00 0.87186319E+02</pdfrwt>
<totfact> 0.10058103E+05</totfact>
</mgrwt>
</event>
<event>
 6    2  0.8544106E+000  0.8553553E+02  0.7546771E-02  0.1314038E+00
         21   -1    0    0  501  502  0.00000000000E+00  0.00000000000E+00  0.99368771075E+01  0.99368771075E+01  0.00000000000E+00 0. -1.
          2   -1    0    0  502    0 -0.00000000000E+00 -0.00000000000E+00 -0.56863218431E+03  0.56863218431E+03  0.00000000000E+00 0. -1.
         24    2    1    2    0    0 -0.11924694049E+02 -0.32253107003E+02 -0.51921333095E+03  0.52621175353E+03  0.78318996978E+02 0.  0.
        -13    1    3    3    0    0  0.16760853702E+02 -0.47498567999E+02 -0.24826780280E+03  0.25332576277E+03  0.00000000000E+00 0.  1.
         14    1    3    3    0    0 -0.28685547751E+02  0.15245460996E+02 -0.27094552815E+03  0.27288599076E+03  0.00000000000E+00 0. -1.
          1    1    1    2  501    0  0.11924694049E+02  0.32253107003E+02 -0.39481976256E+02  0.52357307881E+02  0.00000000000E+00 0. -1.
<mgrwt>
<rscale>  1 0.85535528E+02</rscale>
<asrwt>0</asrwt>
<pdfrwt beam="1">  1       21 0.15287506E-02 0.85535528E+02</pdfrwt>
<pdfrwt beam="2">  1        2 0.87481856E-01 0.85535528E+02</pdfrwt>
<totfact> 0.11994162E+06</totfact>
</mgrwt>
</event>
<event>
 6    2  0.8544106E+000  0.8186706E+02  0.7546771E-02  0.1323835E+00
          2   -1    0    0  502    0 -0.00000000000E+00  0.00000000000E+00  0.66702141710E+03  0.66702141710E+03  0.00000000000E+00 0. -1.
         21   -1    0    0  501  502  0.00000000000E+00 -0.00000000000E+00 -0.42946956347E+01  0.42946956347E+01  0.00000000000E+00 0. -1.
         24    2    1    2    0    0 -0.15375666900E+02 -0.19237370318E+02  0.53638041387E+03  0.54259207849E+03  0.78075141414E+02 0.  0.
        -13    1    3    3    0    0  0.16374302222E+02  0.19115117925E+02  0.29836969351E+03  0.29942942325E+03  0.00000000000E+00 0.  1.
         14    1    3    3    0    0 -0.31749969122E+02 -0.38352488243E+02  0.23801072037E+03  0.24316265524E+03  0.00000000000E+00 0. -1.
          1    1    1    2  501    0  0.15375666900E+02  0.19237370318E+02  0.12634630759E+03  0.12872403424E+03  0.00000000000E+00 0. -1.
<mgrwt>
<rscale>  1 0.81867058E+02</rscale>
<asrwt>0</asrwt>
<pdfrwt beam="1">  1       21 0.66072293E-03 0.81867058E+02</pdfrwt>
<pdfrwt beam="2">  1        2 0.10261860E+00 0.81867058E+02</pdfrwt>
<totfact> 0.36946716E+06</totfact>
</mgrwt>
</event>
<event>
 6    2  0.8544106E+000  0.8969117E+02  0.7546771E-02  0.1303601E+00
          2   -1    0    0  502    0 -0.00000000000E+00  0.00000000000E+00  0.12077541318E+04  0.12077541318E+04  0.00000000000E+00 0. -1.
         21   -1    0    0  501  502  0.00000000000E+00 -0.00000000000E+00 -0.32776165217E+01  0.32776165217E+01  0.00000000000E+00 0.  1.
         24    2    1    2    0    0  0.43999125981E+00  0.30500583265E+02  0.10309850966E+04  0.10348791113E+04  0.84344688255E+02 0.  0.
        -11    1    3    3    0    0  0.11931115581E+02  0.54969498197E+02  0.48980614438E+03  0.49302541144E+03  0.00000000000E+00 0.  1.
         12    1    3    3    0    0 -0.11491124321E+02 -0.24468914932E+02  0.54117895226E+03  0.54185369991E+03  0.00000000000E+00 0. -1.
          1    1    1    2  501    0 -0.43999125981E+00 -0.30500583265E+02  0.17349141860E+03  0.17615263694E+03  0.00000000000E+00 0. -1.
<mgrwt>
<rscale>  1 0.89691168E+02</rscale>
<asrwt>0</asrwt>
<pdfrwt beam="1">  1       21 0.50424966E-03 0.89691168E+02</pdfrwt>
<pdfrwt beam="2">  1        2 0.18580797E+00 0.89691168E+02</pdfrwt>
<totfact> 0.26234946E+06</totfact>
</mgrwt>
</event>
<event>
 6    2  0.8544106E+000  0.8293720E+02  0.7546771E-02  0.1320917E+00
          2   -1    0    0  502    0 -0.00000000000E+00  0.00000000000E+00  0.89865976102E+02  0.89865976102E+02  0.00000000000E+00 0. -1.
         21   -1    0    0  501  502  0.00000000000E+00 -0.00000000000E+00 -0.35513324091E+02  0.35513324091E+02  0.00000000000E+00 0.  1.
         24    2    1    2    0    0  0.14902145689E+02 -0.13546183496E+02  0.19613468396E+02  0.85224799677E+02  0.80454989305E+02 0.  0.
        -11    1    3    3    0    0  0.65656574144E+01  0.25130612609E+02 -0.17223695648E+02  0.31165866572E+02  0.00000000000E+00 0.  1.
         12    1    3    3    0    0  0.83364882742E+01 -0.38676796105E+02  0.36837164044E+02  0.54058933105E+02  0.00000000000E+00 0. -1.
          1    1    1    2  501    0 -0.14902145689E+02  0.13546183496E+02  0.34739183616E+02  0.40154500516E+02  0.00000000000E+00 0. -1.
<mgrwt>
<rscale>  1 0.82937195E+02</rscale>
<asrwt>0</asrwt>
<pdfrwt beam="1">  1       21 0.54635884E-02 0.82937195E+02</pdfrwt>
<pdfrwt beam="2">  1        2 0.13825535E-01 0.82937195E+02</pdfrwt>
<totfact> 0.11112609E+06</totfact>
</mgrwt>
</event>
<event>
 6    2  0.9521842E+000  0.8626351E+02  0.7546771E-02  0.1312161E+00
         -1   -1    0    0    0  501 -0.00000000000E+00  0.00000000000E+00  0.26728302448E+04  0.26728302448E+04  0.00000000000E+00 0.  1.
         21   -1    0    0  501  502  0.00000000000E+00 -0.00000000000E+00 -0.16765076424E+01  0.16765076424E+01  0.00000000000E+00 0. -1.
         24    2    1    2    0    0 -0.14707961095E+02  0.29909712938E+02  0.12551758686E+04  0.12581366599E+04  0.79564304840E+02 0.  0.
        -13    1    3    3    0    0 -0.12618081988E+02  0.27439709453E+02  0.12544592242E+04  0.12548227360E+04  0.00000000000E+00 0.  1.
         14    1    3    3    0    0 -0.20898791073E+01  0.24700034854E+01  0.71664443338E+00  0.33139238290E+01  0.00000000000E+00 0. -1.
         -2    1    1    2    0  502  0.14707961095E+02 -0.29909712938E+02  0.14159778685E+04  0.14163700926E+04  0.00000000000E+00 0.  1.
<mgrwt>
<rscale>  1 0.86263513E+02</rscale>
<asrwt>0</asrwt>
<pdfrwt beam="1">  1       21 0.25792639E-03 0.86263513E+02</pdfrwt>
<pdfrwt beam="2">  1       -1 0.41120124E+00 0.86263513E+02</pdfrwt>
<totfact> 0.22362605E+04</totfact>
</mgrwt>
</event>
<event>
 6    2  0.8544106E+000  0.9707013E+02  0.7546771E-02  0.1286581E+00
         21   -1    0    0  501  502  0.00000000000E+00  0.00000000000E+00  0.18209830435E+02  0.18209830435E+02  0.00000000000E+00 0.  1.
          2   -1    0    0  502    0 -0.00000000000E+00 -0.00000000000E+00 -0.33402693391E+03  0.33402693391E+03  0.00000000000E+00 0. -1.
         24    2    1    2    0    0 -0.75143055911E+01  0.30707891440E+02 -0.12223265631E+03  0.15608789851E+03  0.91777831785E+02 0.  0.
        -13    1    3    3    0    0 -0.71393582721E+01 -0.24062897123E+02 -0.35152551134E+01  0.25344634008E+02  0.00000000000E+00 0.  1.
         14    1    3    3    0    0 -0.37494731901E+00  0.54770788563E+02 -0.11871740120E+03  0.13074326450E+03  0.00000000000E+00 0. -1.
          1    1    1    2  501    0  0.75143055911E+01 -0.30707891440E+02 -0.19358444717E+03  0.19614886584E+03  0.00000000000E+00 0. -1.
<mgrwt>
<rscale>  1 0.97070128E+02</rscale>
<asrwt>0</asrwt>
<pdfrwt beam="1">  1       21 0.28015127E-02 0.97070128E+02</pdfrwt>
<pdfrwt beam="2">  1        2 0.51388754E-01 0.97070128E+02</pdfrwt>
<totfact> 0.81114918E+05</totfact>
</mgrwt>
</event>
<event>
 6    2  0.8544106E+000  0.9280518E+02  0.7546771E-02  0.1296197E+00
         21   -1    0    0  501  502  0.00000000000E+00  0.00000000000E+00  0.74676228379E+02  0.74676228379E+02  0.00000000000E+00 0. -1.
         -1   -1    0    0    0  501 -0.00000000000E+00 -0.00000000000E+00 -0.67904171087E+02  0.67904171087E+02  0.00000000000E+00 0.  1.
         24    2    1    2    0    0 -0.32602314336E+02  0.28080085484E+02  0.24592350695E+02  0.96008251590E+02  0.82227723791E+02 0.  0.
        -11    1    3    3    0    0  0.16907845248E+02  0.42999666082E+01 -0.19067654624E+02  0.25844542879E+02  0.00000000000E+00 0.  1.
         12    1    3    3    0    0 -0.49510159583E+02  0.23780118876E+02  0.43660005319E+02  0.70163708711E+02  0.00000000000E+00 0. -1.
         -2    1    1    2    0  502  0.32602314336E+02 -0.28080085484E+02 -0.17820293404E+02  0.46572147876E+02  0.00000000000E+00 0.  1.
<mgrwt>
<rscale>  1 0.92805176E+02</rscale>
<asrwt>0</asrwt>
<pdfrwt beam="1">  1       21 0.11488651E-01 0.92805176E+02</pdfrwt>
<pdfrwt beam="2">  1       -1 0.10446796E-01 0.92805176E+02</pdfrwt>
<totfact> 0.30498079E+05</totfact>
</mgrwt>
</event>
<event>
 6    2  0.8544106E+000  0.8606985E+02  0.7546771E-02  0.1312658E+00
          2   -1    0    0  502    0 -0.00000000000E+00  0.00000000000E+00  0.10020905863E+04  0.10020905863E+04  0.00000000000E+00 0. -1.
         21   -1    0    0  501  502  0.00000000000E+00 -0.00000000000E+00 -0.58181701196E+01  0.58181701196E+01  0.00000000000E+00 0. -1.
         24    2    1    2    0    0 -0.29782976333E+02 -0.92224452322E+01  0.93692442714E+03  0.94086949197E+03  0.80224307831E+02 0.  0.
        -13    1    3    3    0    0 -0.12019828297E+02 -0.44059129797E+02  0.58476755299E+03  0.58654818576E+03  0.00000000000E+00 0.  1.
         14    1    3    3    0    0 -0.17763148036E+02  0.34836684565E+02  0.35215687415E+03  0.35432130621E+03  0.00000000000E+00 0. -1.
          1    1    1    2  501    0  0.29782976333E+02  0.92224452322E+01  0.59347989045E+02  0.67039264458E+02  0.00000000000E+00 0. -1.
<mgrwt>
<rscale>  1 0.86069848E+02</rscale>
<asrwt>0</asrwt>
<pdfrwt beam="1">  1       21 0.89510389E-03 0.86069848E+02</pdfrwt>
<pdfrwt beam="2">  1        2 0.15416765E+00 0.86069848E+02</pdfrwt>
<totfact> 0.14052629E+06</totfact>
</mgrwt>
</event>
<event>
 6    2  0.8544106E+000  0.8473526E+02  0.7546771E-02  0.1316126E+00
         21   -1    0    0  501  502  0.00000000000E+00  0.00000000000E+00  0.12030916518E+02  0.12030916518E+02  0.00000000000E+00 0.  1.
          4   -1    0    0  502    0 -0.00000000000E+00 -0.00000000000E+00 -0.29592450719E+03  0.29592450719E+03  0.00000000000E+00 0. -1.
         24    2    1    2    0    0  0.77715851222E+01 -0.29512559240E+02 -0.23979827273E+03  0.25432907055E+03  0.79048566309E+02 0.  0.
        -13    1    3    3    0    0  0.43174311347E+02 -0.14470045599E+02 -0.11316379855E+03  0.12198134563E+03  0.00000000000E+00 0.  1.
         14    1    3    3    0    0 -0.35402726224E+02 -0.15042513641E+02 -0.12663447418E+03  0.13234772492E+03  0.00000000000E+00 0. -1.
          3    1    1    2  501    0 -0.77715851222E+01  0.29512559240E+02 -0.44095317936E+02  0.53626353149E+02  0.00000000000E+00 0. -1.
<mgrwt>
<rscale>  1 0.84735261E+02</rscale>
<asrwt>0</asrwt>
<pdfrwt beam="1">  1       21 0.18509104E-02 0.84735261E+02</pdfrwt>
<pdfrwt beam="2">  1        4 0.45526844E-01 0.84735261E+02</pdfrwt>
<totfact> 0.23984113E+05</totfact>
</mgrwt>
</event>
<event>
 6    2  0.8544106E+000  0.8644871E+02  0.7546771E-02  0.1311687E+00
         21   -1    0    0  501  502  0.00000000000E+00  0.00000000000E+00  0.55427203700E+03  0.55427203700E+03  0.00000000000E+00 0.  1.
         -3   -1    0    0    0  501 -0.00000000000E+00 -0.00000000000E+00 -0.15428192664E+02  0.15428192664E+02  0.00000000000E+00 0.  1.
         24    2    1    2    0    0  0.30285857438E+02 -0.58612612925E+01  0.11074494038E+03  0.14049135381E+03  0.80757607261E+02 0.  0.
        -13    1    3    3    0    0  0.53475629207E+02 -0.96804986713E+01  0.44625538203E+02  0.70319226628E+02  0.00000000000E+00 0.  1.
         14    1    3    3    0    0 -0.23189771769E+02  0.38192373788E+01  0.66119402179E+02  0.70172127183E+02  0.00000000000E+00 0. -1.
         -4    1    1    2    0  502 -0.30285857438E+02  0.58612612925E+01  0.42809890396E+03  0.42920887586E+03  0.00000000000E+00 0.  1.
<mgrwt>
<rscale>  1 0.86448705E+02</rscale>
<asrwt>0</asrwt>
<pdfrwt beam="1">  1       21 0.85272605E-01 0.86448705E+02</pdfrwt>
<pdfrwt beam="2">  1       -3 0.23735685E-02 0.86448705E+02</pdfrwt>
<totfact> 0.40431060E+04</totfact>
</mgrwt>
</event>
<event>
 6    2  0.8544106E+000  0.8235885E+02  0.7546771E-02  0.1322488E+00
          2   -1    0    0  502    0 -0.00000000000E+00  0.00000000000E+00  0.28598866133E+02  0.28598866133E+02  0.00000000000E+00 0. -1.
         21   -1    0    0  501  502  0.00000000000E+00 -0.00000000000E+00 -0.11229633573E+03  0.11229633573E+03  0.00000000000E+00 0. -1.
         24    2    1    2    0    0 -0.21728940877E+01 -0.24676123033E+02 -0.42136738340E+02  0.92512075680E+02  0.78545190254E+02 0.  0.
        -13    1    3    3    0    0 -0.51344664826E+01  0.11605254032E+02 -0.53020293761E+02  0.54517852285E+02  0.00000000000E+00 0.  1.
         14    1    3    3    0    0  0.29615723949E+01 -0.36281377065E+02  0.10883555421E+02  0.37994223395E+02  0.00000000000E+00 0. -1.
          1    1    1    2  501    0  0.21728940877E+01  0.24676123033E+02 -0.41560731254E+02  0.48383126181E+02  0.00000000000E+00 0. -1.
<mgrwt>
<rscale>  1 0.82358845E+02</rscale>
<asrwt>0</asrwt>
<pdfrwt beam="1">  1       21 0.17276359E-01 0.82358845E+02</pdfrwt>
<pdfrwt beam="2">  1        2 0.43998256E-02 0.82358845E+02</pdfrwt>
<totfact> 0.62526961E+05</totfact>
</mgrwt>
</event>
<event>
 6    2  0.8544106E+000  0.8346284E+02  0.7546771E-02  0.1319502E+00
          2   -1    0    0  502    0 -0.00000000000E+00  0.00000000000E+00  0.23678792301E+04  0.23678792301E+04  0.00000000000E+00 0. -1.
         21   -1    0    0  501  502  0.00000000000E+00 -0.00000000000E+00 -0.22866028237E+01  0.22866028237E+01  0.00000000000E+00 0. -1.
         24    2    1    2    0    0 -0.79611822650E+01 -0.32176306440E+02  0.21826119794E+04  0.21842072014E+04  0.76598636846E+02 0.  0.
        -13    1    3    3    0    0 -0.33826731214E+02  0.73145159088E+01  0.71642096979E+03  0.71725640871E+03  0.00000000000E+00 0.  1.
         14    1    3    3    0    0  0.25865548949E+02 -0.39490822349E+02  0.14661910096E+04  0.14669507927E+04  0.00000000000E+00 0. -1.
          1    1    1    2  501    0  0.79611822650E+01  0.32176306440E+02  0.18298064792E+03  0.18595863151E+03  0.00000000000E+00 0. -1.
<mgrwt>
<rscale>  1 0.83462844E+02</rscale>
<asrwt>0</asrwt>
<pdfrwt beam="1">  1       21 0.35178694E-03 0.83462844E+02</pdfrwt>
<pdfrwt beam="2">  1        2 0.36428715E+00 0.83462844E+02</pdfrwt>
<totfact> 0.11598704E+06</totfact>
</mgrwt>
</event>
<event>
 6    2  0.8544106E+000  0.8250759E+02  0.7546771E-02  0.1322082E+00
         -1   -1    0    0    0  501 -0.00000000000E+00  0.00000000000E+00  0.32235829254E+03  0.32235829254E+03  0.00000000000E+00 0.  1.
         21   -1    0    0  501  502  0.00000000000E+00 -0.00000000000E+00 -0.10069292424E+02  0.10069292424E+02  0.00000000000E+00 0.  1.
         24    2    1    2    0    0 -0.21510034735E+02  0.74710398356E+01  0.28592535642E+03  0.29759168769E+03  0.79303247743E+02 0.  0.
        -13    1    3    3    0    0 -0.33327207432E+01  0.41926605789E+02  0.17639340257E+03  0.18133830199E+03  0.00000000000E+00 0.  1.
         14    1    3    3    0    0 -0.18177313991E+02 -0.34455565954E+02  0.10953195386E+03  0.11625338569E+03  0.00000000000E+00 0. -1.
         -2    1    1    2    0  502  0.21510034735E+02 -0.74710398356E+01  0.26363643688E+02  0.34835897276E+02  0.00000000000E+00 0.  1.
<mgrwt>
<rscale>  1 0.82507594E+02</rscale>
<asrwt>0</asrwt>
<pdfrwt beam="1">  1       21 0.15491222E-02 0.82507594E+02</pdfrwt>
<pdfrwt beam="2">  1       -1 0.49593576E-01 0.82507594E+02</pdfrwt>
<totfact> 0.66162849E+05</totfact>
</mgrwt>
</event>
<event>
 6    2  0.8544106E+000  0.1255584E+03  0.7546771E-02  0.1234199E+00
          2   -1    0    0  502    0 -0.00000000000E+00  0.00000000000E+00  0.17977106449E+04  0.17977106449E+04  0.00000000000E+00 0. -1.
         21   -1    0    0  501  502  0.00000000000E+00 -0.00000000000E+00 -0.92083805226E+01  0.92083805226E+01  0.00000000000E+00 0. -1.
         24    2    1    2    0    0 -0.27246088496E+01  0.97901683524E+02  0.14227923303E+04  0.14283217209E+04  0.78566914287E+02 0.  0.
        -13    1    3    3    0    0 -0.56683647508E+01 -0.13193902494E+02  0.14885253460E+03  0.14954359391E+03  0.00000000000E+00 0.  1.
         14    1    3    3    0    0  0.29437559013E+01  0.11109558602E+03  0.12739397957E+04  0.12787781270E+04  0.00000000000E+00 0. -1.
          1    1    1    2  501    0  0.27246088496E+01 -0.97901683524E+02  0.36570993405E+03  0.37859730452E+03  0.00000000000E+00 0. -1.
<mgrwt>
<rscale>  1 0.12555845E+03</rscale>
<asrwt>0</asrwt>
<pdfrwt beam="1">  1       21 0.14166754E-02 0.12555845E+03</pdfrwt>
<pdfrwt beam="2">  1        2 0.27657059E+00 0.12555845E+03</pdfrwt>
<totfact> 0.26325475E+05</totfact>
</mgrwt>
</event>
<event>
 6    2  0.8544106E+000  0.8879427E+02  0.7546771E-02  0.1305798E+00
         21   -1    0    0  501  502  0.00000000000E+00  0.00000000000E+00  0.10466462576E+02  0.10466462576E+02  0.00000000000E+00 0. -1.
          2   -1    0    0  502    0 -0.00000000000E+00 -0.00000000000E+00 -0.71888728564E+03  0.71888728564E+03  0.00000000000E+00 0. -1.
         24    2    1    2    0    0 -0.33528697703E+02  0.12581148737E+02 -0.67352188332E+03  0.67934979969E+03  0.81252471647E+02 0.  0.
        -13    1    3    3    0    0  0.55192509661E+01 -0.89125374022E+01 -0.50267480089E+03  0.50278409969E+03  0.00000000000E+00 0.  1.
         14    1    3    3    0    0 -0.39047948669E+02  0.21493686140E+02 -0.17084708243E+03  0.17656570000E+03  0.00000000000E+00 0. -1.
          1    1    1    2  501    0  0.33528697703E+02 -0.12581148737E+02 -0.34898939741E+02  0.50003948527E+02  0.00000000000E+00 0. -1.
<mgrwt>
<rscale>  1 0.88794274E+02</rscale>
<asrwt>0</asrwt>
<pdfrwt beam="1">  1       21 0.16102250E-02 0.88794274E+02</pdfrwt>
<pdfrwt beam="2">  1        2 0.11059804E+00 0.88794274E+02</pdfrwt>
<totfact> 0.84930874E+05</totfact>
</mgrwt>
</event>
<event>
 6    2  0.8544106E+000  0.8119448E+02  0.7546771E-02  0.1325695E+00
          2   -1    0    0  502    0 -0.00000000000E+00  0.00000000000E+00  0.61083571551E+03  0.61083571551E+03  0.00000000000E+00 0. -1.
         21   -1    0    0  501  502  0.00000000000E+00 -0.00000000000E+00 -0.48146602546E+01  0.48146602546E+01  0.00000000000E+00 0.  1.
         24    2    1    2    0    0  0.74411900443E+01  0.20662714091E+02  0.38073516937E+03  0.38929656104E+03  0.78167922939E+02 0.  0.
        -11    1    3    3    0    0 -0.22232336633E+02  0.14066882380E+02  0.44538393192E+02  0.51728352382E+02  0.00000000000E+00 0.  1.
         12    1    3    3    0    0  0.29673526677E+02  0.65958317112E+01  0.33619677618E+03  0.33756820866E+03  0.00000000000E+00 0. -1.
          1    1    1    2  501    0 -0.74411900443E+01 -0.20662714091E+02  0.22528588588E+03  0.22635381472E+03  0.00000000000E+00 0. -1.
<mgrwt>
<rscale>  1 0.81194478E+02</rscale>
<asrwt>0</asrwt>
<pdfrwt beam="1">  1       21 0.74071745E-03 0.81194478E+02</pdfrwt>
<pdfrwt beam="2">  1        2 0.93974664E-01 0.81194478E+02</pdfrwt>
<totfact> 0.34179932E+06</totfact>
</mgrwt>
</event>
<event>
 6    2  0.8544106E+000  0.1015211E+03  0.7546771E-02  0.1277129E+00
         -3   -1    0    0    0  501 -0.00000000000E+00  0.00000000000E+00  0.66620227639E+03  0.66620227639E+03  0.00000000000E+00 0.  1.
         21   -1    0    0  501  502  0.00000000000E+00 -0.00000000000E+00 -0.97454615492E+01  0.97454615492E+01  0.00000000000E+00 0.  1.
         24    2    1    2    0    0 -0.46545847024E+02 -0.35136050697E+02  0.45696567917E+03  0.46810700290E+03  0.83099195444E+02 0.  0.
        -13    1    3    3    0    0 -0.55383866669E+02 -0.23798886831E+02  0.44592607771E+03  0.44998202907E+03  0.00000000000E+00 0.  1.
         14    1    3    3    0    0  0.88380196447E+01 -0.11337163866E+02  0.11039601460E+02  0.18124973825E+02  0.00000000000E+00 0. -1.
         -4    1    1    2    0  502  0.46545847024E+02  0.35136050697E+02  0.19949113567E+03  0.20784073504E+03  0.00000000000E+00 0.  1.
<mgrwt>
<rscale>  1 0.10152110E+03</rscale>
<asrwt>0</asrwt>
<pdfrwt beam="1">  1       21 0.14993023E-02 0.10152110E+03</pdfrwt>
<pdfrwt beam="2">  1       -3 0.10249262E+00 0.10152110E+03</pdfrwt>
<totfact> 0.77355824E+04</totfact>
</mgrwt>
</event>
<event>
 6    2  0.8544106E+000  0.9859393E+02  0.7546771E-02  0.1283281E+00
         21   -1    0    0  501  502  0.00000000000E+00  0.00000000000E+00  0.26158824185E+01  0.26158824185E+01  0.00000000000E+00 0.  1.
          2   -1    0    0  502    0 -0.00000000000E+00 -0.00000000000E+00 -0.29638854010E+04  0.29638854010E+04  0.00000000000E+00 0. -1.
         24    2    1    2    0    0 -0.57696872527E+02 -0.60985831472E+01 -0.24440558679E+04  0.24460437134E+04  0.79715997548E+02 0.  0.
        -11    1    3    3    0    0 -0.41839409918E+02 -0.28033665387E+02 -0.71309860459E+03  0.71487484393E+03  0.00000000000E+00 0.  1.
         12    1    3    3    0    0 -0.15857462609E+02  0.21935082240E+02 -0.17309572633E+04  0.17311688694E+04  0.00000000000E+00 0. -1.
          1    1    1    2  501    0  0.57696872527E+02  0.60985831472E+01 -0.51721365061E+03  0.52045757002E+03  0.00000000000E+00 0. -1.
<mgrwt>
<rscale>  1 0.98593925E+02</rscale>
<asrwt>0</asrwt>
<pdfrwt beam="1">  1       21 0.40244227E-03 0.98593925E+02</pdfrwt>
<pdfrwt beam="2">  1        2 0.45598370E+00 0.98593925E+02</pdfrwt>
<totfact> 0.45315033E+05</totfact>
</mgrwt>
</event>
<event>
 6    2  0.8544106E+000  0.8536810E+02  0.7546771E-02  0.1314473E+00
          2   -1    0    0  502    0 -0.00000000000E+00  0.00000000000E+00  0.48116452850E+03  0.48116452850E+03  0.00000000000E+00 0. -1.
         21   -1    0    0  501  502  0.00000000000E+00 -0.00000000000E+00 -0.69656525782E+01  0.69656525782E+01  0.00000000000E+00 0.  1.
         24    2    1    2    0    0 -0.18681660824E+02 -0.23168602328E+02  0.37307842832E+03  0.38272081950E+03  0.80012020449E+02 0.  0.
        -11    1    3    3    0    0 -0.56689751286E+01 -0.33827324163E+02  0.59397903313E+02  0.68589620622E+02  0.00000000000E+00 0.  1.
         12    1    3    3    0    0 -0.13012685696E+02  0.10658721835E+02  0.31368052501E+03  0.31413119888E+03  0.00000000000E+00 0. -1.
          1    1    1    2  501    0  0.18681660824E+02  0.23168602328E+02  0.10112044759E+03  0.10540936157E+03  0.00000000000E+00 0. -1.
<mgrwt>
<rscale>  1 0.85368097E+02</rscale>
<asrwt>0</asrwt>
<pdfrwt beam="1">  1       21 0.10716392E-02 0.85368097E+02</pdfrwt>
<pdfrwt beam="2">  1        2 0.74025286E-01 0.85368097E+02</pdfrwt>
<totfact> 0.25140526E+06</totfact>
</mgrwt>
</event>
<event>
 6    2  0.8544106E+000  0.1257488E+03  0.7546771E-02  0.1233904E+00
         21   -1    0    0  501  502  0.00000000000E+00  0.00000000000E+00  0.56033509484E+02  0.56033509484E+02  0.00000000000E+00 0. -1.
          2   -1    0    0  502    0 -0.00000000000E+00 -0.00000000000E+00 -0.40193644943E+03  0.40193644943E+03  0.00000000000E+00 0. -1.
         24    2    1    2    0    0 -0.54087794951E+02 -0.80280127215E+02 -0.33824882399E+03  0.36086705536E+03  0.80264415079E+02 0.  0.
        -11    1    3    3    0    0 -0.28856259532E+01 -0.14054119871E+02 -0.21588273972E+01  0.14508813122E+02  0.00000000000E+00 0.  1.
         12    1    3    3    0    0 -0.51202168997E+02 -0.66226007344E+02 -0.33608999659E+03  0.34635824224E+03  0.00000000000E+00 0. -1.
          1    1    1    2  501    0  0.54087794951E+02  0.80280127215E+02 -0.76541159629E+01  0.97102903558E+02  0.00000000000E+00 0. -1.
<mgrwt>
<rscale>  1 0.12574882E+03</rscale>
<asrwt>0</asrwt>
<pdfrwt beam="1">  1       21 0.86205398E-02 0.12574882E+03</pdfrwt>
<pdfrwt beam="2">  1        2 0.61836377E-01 0.12574882E+03</pdfrwt>
<totfact> 0.10331398E+05</totfact>
</mgrwt>
</event>
<event>
 6    2  0.8544106E+000  0.8422111E+02  0.7546771E-02  0.1317482E+00
         21   -1    0    0  501  502  0.00000000000E+00  0.00000000000E+00  0.26351631791E+03  0.26351631791E+03  0.00000000000E+00 0.  1.
         -3   -1    0    0    0  501 -0.00000000000E+00 -0.00000000000E+00 -0.11727859785E+02  0.11727859785E+02  0.00000000000E+00 0.  1.
         24    2    1    2    0    0  0.45841954960E+01 -0.26460503677E+02  0.19599251256E+03  0.21332196323E+03  0.79824945428E+02 0.  0.
        -11    1    3    3    0    0  0.25970492829E+02 -0.31134212415E+02  0.44277865544E+02  0.60036114611E+02  0.00000000000E+00 0.  1.
         12    1    3    3    0    0 -0.21386297333E+02  0.46737087381E+01  0.15171464702E+03  0.15328584862E+03  0.00000000000E+00 0. -1.
         -4    1    1    2    0  502 -0.45841954960E+01  0.26460503677E+02  0.55795945569E+02  0.61922214472E+02  0.00000000000E+00 0.  1.
<mgrwt>
<rscale>  1 0.84221108E+02</rscale>
<asrwt>0</asrwt>
<pdfrwt beam="1">  1       21 0.40540967E-01 0.84221108E+02</pdfrwt>
<pdfrwt beam="2">  1       -3 0.18042863E-02 0.84221108E+02</pdfrwt>
<totfact> 0.28956703E+05</totfact>
</mgrwt>
</event>
<event>
 6    2  0.8544106E+000  0.8722015E+02  0.7546771E-02  0.1309727E+00
          2   -1    0    0  502    0 -0.00000000000E+00  0.00000000000E+00  0.12132246123E+04  0.12132246123E+04  0.00000000000E+00 0. -1.
         21   -1    0    0  501  502  0.00000000000E+00 -0.00000000000E+00 -0.37926572104E+01  0.37926572104E+01  0.00000000000E+00 0.  1.
         24    2    1    2    0    0 -0.37579898753E+01  0.23531058591E+02  0.11450481307E+04  0.11483651752E+04  0.83901852499E+02 0.  0.
        -13    1    3    3    0    0 -0.15054442907E+02  0.45715055590E+02  0.39758855596E+03  0.40049115145E+03  0.00000000000E+00 0.  1.
         14    1    3    3    0    0  0.11296453031E+02 -0.22183996998E+02  0.74745957475E+03  0.74787402378E+03  0.00000000000E+00 0. -1.
          1    1    1    2  501    0  0.37579898753E+01 -0.23531058591E+02  0.64383824404E+02  0.68652094296E+02  0.00000000000E+00 0. -1.
<mgrwt>
<rscale>  1 0.87220147E+02</rscale>
<asrwt>0</asrwt>
<pdfrwt beam="1">  1       21 0.58348669E-03 0.87220147E+02</pdfrwt>
<pdfrwt beam="2">  1        2 0.18664963E+00 0.87220147E+02</pdfrwt>
<totfact> 0.20772808E+06</totfact>
</mgrwt>
</event>
<event>
 6    2  0.8544106E+000  0.1102966E+03  0.7546771E-02  0.1260022E+00
          2   -1    0    0  502    0 -0.00000000000E+00  0.00000000000E+00  0.93413331220E+03  0.93413331220E+03  0.00000000000E+00 0. -1.
         21   -1    0    0  501  502  0.00000000000E+00 -0.00000000000E+00 -0.99606921735E+01  0.99606921735E+01  0.00000000000E+00 0. -1.
         24    2    1    2    0    0  0.69028828153E+02  0.29520192497E+02  0.67169836277E+03  0.68069379279E+03  0.80801782923E+02 0.  0.
        -11    1    3    3    0    0  0.24109159609E+02  0.49227778999E+02  0.23802318015E+03  0.24425327038E+03  0.00000000000E+00 0.  1.
         12    1    3    3    0    0  0.44919668544E+02 -0.19707586503E+02  0.43367518262E+03  0.43644052242E+03  0.00000000000E+00 0. -1.
          1    1    1    2  501    0 -0.69028828153E+02 -0.29520192497E+02  0.25247425726E+03  0.26340021157E+03  0.00000000000E+00 0. -1.
<mgrwt>
<rscale>  1 0.11029664E+03</rscale>
<asrwt>0</asrwt>
<pdfrwt beam="1">  1       21 0.15324149E-02 0.11029664E+03</pdfrwt>
<pdfrwt beam="2">  1        2 0.14371275E+00 0.11029664E+03</pdfrwt>
<totfact> 0.67469356E+05</totfact>
</mgrwt>
</event>
<event>
 6    2  0.8544106E+000  0.8464658E+02  0.7546771E-02  0.1316359E+00
         -1   -1    0    0    0  501 -0.00000000000E+00  0.00000000000E+00  0.16741264594E+03  0.16741264594E+03  0.00000000000E+00 0.  1.
         21   -1    0    0  501  502  0.00000000000E+00 -0.00000000000E+00 -0.19954776886E+02  0.19954776886E+02  0.00000000000E+00 0. -1.
         24    2    1    2    0    0 -0.29264566874E+02 -0.99900523790E+01  0.10616230864E+03  0.13577731398E+03  0.78796111546E+02 0.  0.
        -11    1    3    3    0    0  0.35382205343E+01  0.28685727351E+02  0.62492645941E+02  0.68852892132E+02  0.00000000000E+00 0.  1.
         12    1    3    3    0    0 -0.32802787408E+02 -0.38675779730E+02  0.43669662701E+02  0.66924421849E+02  0.00000000000E+00 0. -1.
         -2    1    1    2    0  502  0.29264566874E+02  0.99900523790E+01  0.41295560413E+02  0.51590108846E+02  0.00000000000E+00 0.  1.
<mgrwt>
<rscale>  1 0.84646578E+02</rscale>
<asrwt>0</asrwt>
<pdfrwt beam="1">  1       21 0.30699658E-02 0.84646578E+02</pdfrwt>
<pdfrwt beam="2">  1       -1 0.25755791E-01 0.84646578E+02</pdfrwt>
<totfact> 0.67745745E+05</totfact>
</mgrwt>
</event>
<event>
 6    2  0.8544106E+000  0.8273162E+02  0.7546771E-02  0.1321473E+00
         21   -1    0    0  501  502  0.00000000000E+00  0.00000000000E+00  0.42626906694E+02  0.42626906694E+02  0.00000000000E+00 0.  1.
         -1   -1    0    0    0  501 -0.00000000000E+00 -0.00000000000E+00 -0.11735879710E+03  0.11735879710E+03  0.00000000000E+00 0.  1.
         24    2    1    2    0    0 -0.26581027377E+02  0.50733013908E+01 -0.95148950519E+02  0.12608665149E+03  0.78180761669E+02 0.  0.
        -11    1    3    3    0    0 -0.53493817504E+02  0.23767821759E+01 -0.48931141646E+02  0.72536158070E+02  0.00000000000E+00 0.  1.
         12    1    3    3    0    0  0.26912790128E+02  0.26965192149E+01 -0.46217808872E+02  0.53550493418E+02  0.00000000000E+00 0. -1.
         -2    1    1    2    0  502  0.26581027377E+02 -0.50733013908E+01  0.20417060115E+02  0.33899052304E+02  0.00000000000E+00 0.  1.
<mgrwt>
<rscale>  1 0.82731620E+02</rscale>
<asrwt>0</asrwt>
<pdfrwt beam="1">  1       21 0.65579856E-02 0.82731620E+02</pdfrwt>
<pdfrwt beam="2">  1       -1 0.18055200E-01 0.82731620E+02</pdfrwt>
<totfact> 0.33990143E+05</totfact>
</mgrwt>
</event>
<event>
 6    2  0.8544106E+000  0.8334422E+02  0.7546771E-02  0.1319820E+00
         21   -1    0    0  501  502  0.00000000000E+00  0.00000000000E+00  0.42779623460E+01  0.42779623460E+01  0.00000000000E+00 0. -1.
         -1   -1    0    0    0  501 -0.00000000000E+00 -0.00000000000E+00 -0.84609042925E+03  0.84609042925E+03  0.00000000000E+00 0.  1.
         24    2    1    2    0    0 -0.20991539181E+02 -0.12647398918E+02 -0.76983023622E+03  0.77432864573E+03  0.79659635882E+02 0.  0.
        -11    1    3    3    0    0 -0.10976261846E+02 -0.29893345507E+02 -0.71930962490E+03  0.72001418521E+03  0.00000000000E+00 0.  1.
         12    1    3    3    0    0 -0.10015277335E+02  0.17245946589E+02 -0.50520611317E+02  0.54314460520E+02  0.00000000000E+00 0. -1.
         -2    1    1    2    0  502  0.20991539181E+02  0.12647398918E+02 -0.71982230690E+02  0.76039745868E+02  0.00000000000E+00 0.  1.
<mgrwt>
<rscale>  1 0.83344220E+02</rscale>
<asrwt>0</asrwt>
<pdfrwt beam="1">  1       21 0.65814844E-03 0.83344220E+02</pdfrwt>
<pdfrwt beam="2">  1       -1 0.13016768E+00 0.83344220E+02</pdfrwt>
<totfact> 0.34878658E+05</totfact>
</mgrwt>
</event>
<event>
 6    2  0.8544106E+000  0.8094346E+02  0.7546771E-02  0.1326395E+00
         21   -1    0    0  501  502  0.00000000000E+00  0.00000000000E+00  0.96525269107E+01  0.96525269107E+01  0.00000000000E+00 0. -1.
          2   -1    0    0  502    0 -0.00000000000E+00 -0.00000000000E+00 -0.29537163669E+03  0.29537163669E+03  0.00000000000E+00 0. -1.
         24    2    1    2    0    0 -0.10735964346E+02  0.19132846392E+02 -0.25297954589E+03  0.26561343175E+03  0.77913527352E+02 0.  0.
        -11    1    3    3    0    0 -0.13601865024E+01 -0.27572004772E+02 -0.49954530023E+02  0.57074693379E+02  0.00000000000E+00 0.  1.
         12    1    3    3    0    0 -0.93757778439E+01  0.46704851165E+02 -0.20302501587E+03  0.20853873837E+03  0.00000000000E+00 0. -1.
          1    1    1    2  501    0  0.10735964346E+02 -0.19132846392E+02 -0.32739563887E+02  0.39410731851E+02  0.00000000000E+00 0. -1.
<mgrwt>
<rscale>  1 0.80943465E+02</rscale>
<asrwt>0</asrwt>
<pdfrwt beam="1">  1       21 0.14850042E-02 0.80943465E+02</pdfrwt>
<pdfrwt beam="2">  1        2 0.45441788E-01 0.80943465E+02</pdfrwt>
<totfact> 0.24958897E+06</totfact>
</mgrwt>
</event>
<event>
 6    2  0.8544106E+000  0.8707543E+02  0.7546771E-02  0.1310093E+00
         -3   -1    0    0    0  501 -0.00000000000E+00  0.00000000000E+00  0.12535496777E+03  0.12535496777E+03  0.00000000000E+00 0.  1.
         21   -1    0    0  501  502  0.00000000000E+00 -0.00000000000E+00 -0.38397032327E+02  0.38397032327E+02  0.00000000000E+00 0. -1.
         24    2    1    2    0    0  0.31222915211E+02  0.22611050115E+01  0.97497551482E+02  0.13072070378E+03  0.81253595750E+02 0.  0.
        -13    1    3    3    0    0  0.46357783961E+02 -0.11146498686E+02  0.99568388661E+02  0.11039543735E+03  0.00000000000E+00 0.  1.
         14    1    3    3    0    0 -0.15134868751E+02  0.13407603697E+02 -0.20708371792E+01  0.20325266434E+02  0.00000000000E+00 0. -1.
         -4    1    1    2    0  502 -0.31222915211E+02 -0.22611050115E+01 -0.10539616037E+02  0.33031296316E+02  0.00000000000E+00 0.  1.
<mgrwt>
<rscale>  1 0.87075426E+02</rscale>
<asrwt>0</asrwt>
<pdfrwt beam="1">  1       21 0.59072358E-02 0.87075426E+02</pdfrwt>
<pdfrwt beam="2">  1       -3 0.19285379E-01 0.87075426E+02</pdfrwt>
<totfact> 0.21478772E+05</totfact>
</mgrwt>
</event>
<event>
 6    2  0.8544106E+000  0.8410423E+02  0.7546771E-02  0.1317792E+00
          2   -1    0    0  502    0 -0.00000000000E+00  0.00000000000E+00  0.17065534547E+04  0.17065534547E+04  0.00000000000E+00 0. -1.
         21   -1    0    0  501  502  0.00000000000E+00 -0.00000000000E+00 -0.22446436748E+01  0.22446436748E+01  0.00000000000E+00 0.  1.
         24    2    1    2    0    0 -0.33057704962E+02  0.13748721898E+02  0.97892273813E+03  0.98252900640E+03  0.76103100946E+02 0.  0.
        -11    1    3    3    0    0 -0.35964926814E+02  0.24921122671E+02  0.27080164926E+03  0.27431381948E+03  0.00000000000E+00 0.  1.
         12    1    3    3    0    0  0.29072218513E+01 -0.11172400773E+02  0.70812108887E+03  0.70821518692E+03  0.00000000000E+00 0. -1.
          1    1    1    2  501    0  0.33057704962E+02 -0.13748721898E+02  0.72538607291E+03  0.72626909199E+03  0.00000000000E+00 0. -1.
<mgrwt>
<rscale>  1 0.84104228E+02</rscale>
<asrwt>0</asrwt>
<pdfrwt beam="1">  1       21 0.34533116E-03 0.84104228E+02</pdfrwt>
<pdfrwt beam="2">  1        2 0.26254565E+00 0.84104228E+02</pdfrwt>
<totfact> 0.25694338E+06</totfact>
</mgrwt>
</event>
<event>
 6    2  0.8544106E+000  0.8870866E+02  0.7546771E-02  0.1306009E+00
         -3   -1    0    0    0  501 -0.00000000000E+00  0.00000000000E+00  0.17396683137E+04  0.17396683137E+04  0.00000000000E+00 0.  1.
         21   -1    0    0  501  502  0.00000000000E+00 -0.00000000000E+00 -0.24754782374E+01  0.24754782374E+01  0.00000000000E+00 0. -1.
         24    2    1    2    0    0  0.31897143449E+02 -0.18445187743E+02  0.96381864675E+03  0.96789235443E+03  0.80694319721E+02 0.  0.
        -11    1    3    3    0    0  0.30882279910E+02  0.21254592571E+02  0.70968534511E+03  0.71067486376E+03  0.00000000000E+00 0.  1.
         12    1    3    3    0    0  0.10148635383E+01 -0.39699780315E+02  0.25413330164E+03  0.25721749068E+03  0.00000000000E+00 0. -1.
         -4    1    1    2    0  502 -0.31897143449E+02  0.18445187743E+02  0.77337418873E+03  0.77425143752E+03  0.00000000000E+00 0.  1.
<mgrwt>
<rscale>  1 0.88708658E+02</rscale>
<asrwt>0</asrwt>
<pdfrwt beam="1">  1       21 0.38084420E-03 0.88708658E+02</pdfrwt>
<pdfrwt beam="2">  1       -3 0.26764030E+00 0.88708658E+02</pdfrwt>
<totfact> 0.52548349E+04</totfact>
</mgrwt>
</event>
<event>
 6    2  0.8544106E+000  0.9665026E+02  0.7546771E-02  0.1287502E+00
         21   -1    0    0  501  502  0.00000000000E+00  0.00000000000E+00  0.55610707954E+01  0.55610707954E+01  0.00000000000E+00 0. -1.
          2   -1    0    0  502    0 -0.00000000000E+00 -0.00000000000E+00 -0.18079598204E+04  0.18079598204E+04  0.00000000000E+00 0. -1.
         24    2    1    2    0    0 -0.49542474493E+02 -0.22323176389E+02 -0.16276818601E+04  0.16305488375E+04  0.79928046059E+02 0.  0.
        -13    1    3    3    0    0  0.20180799518E+02 -0.17419983387E+02 -0.48253033758E+03  0.48326622805E+03  0.00000000000E+00 0.  1.
         14    1    3    3    0    0 -0.69723274011E+02 -0.49031930015E+01 -0.11451515226E+04  0.11472826094E+04  0.00000000000E+00 0. -1.
          1    1    1    2  501    0  0.49542474493E+02  0.22323176389E+02 -0.17471688952E+03  0.18297205378E+03  0.00000000000E+00 0. -1.
<mgrwt>
<rscale>  1 0.96650264E+02</rscale>
<asrwt>0</asrwt>
<pdfrwt beam="1">  1       21 0.85554818E-03 0.96650264E+02</pdfrwt>
<pdfrwt beam="2">  1        2 0.27814805E+00 0.96650264E+02</pdfrwt>
<totfact> 0.57191808E+05</totfact>
</mgrwt>
</event>
<event>
 6    2  0.8544106E+000  0.9048288E+02  0.7546771E-02  0.1301687E+00
          2   -1    0    0  502    0 -0.00000000000E+00  0.00000000000E+00  0.93076600317E+03  0.93076600317E+03  0.00000000000E+00 0. -1.
         21   -1    0    0  501  502  0.00000000000E+00 -0.00000000000E+00 -0.52846799355E+01  0.52846799355E+01  0.00000000000E+00 0.  1.
         24    2    1    2    0    0 -0.28809772929E+02  0.34089532074E+02  0.48965971118E+03  0.49794957977E+03  0.78708652786E+02 0.  0.
        -11    1    3    3    0    0 -0.53708070531E+01  0.41509577130E+02  0.11323840106E+03  0.12072624419E+03  0.00000000000E+00 0.  1.
         12    1    3    3    0    0 -0.23438965876E+02 -0.74200450559E+01  0.37642131012E+03  0.37722333557E+03  0.00000000000E+00 0. -1.
          1    1    1    2  501    0  0.28809772929E+02 -0.34089532074E+02  0.43582161206E+03  0.43810110334E+03  0.00000000000E+00 0. -1.
<mgrwt>
<rscale>  1 0.90482878E+02</rscale>
<asrwt>0</asrwt>
<pdfrwt beam="1">  1       21 0.81302842E-03 0.90482878E+02</pdfrwt>
<pdfrwt beam="2">  1        2 0.14319464E+00 0.90482878E+02</pdfrwt>
<totfact> 0.18079289E+06</totfact>
</mgrwt>
</event>
<event>
 6    2  0.8544106E+000  0.8538777E+02  0.7546771E-02  0.1314422E+00
         21   -1    0    0  501  502  0.00000000000E+00  0.00000000000E+00  0.22315519240E+01  0.22315519240E+01  0.00000000000E+00 0. -1.
          2   -1    0    0  502    0 -0.00000000000E+00 -0.00000000000E+00 -0.15695986460E+04  0.15695986460E+04  0.00000000000E+00 0. -1.
         24    2    1    2    0    0 -0.29787892907E+02 -0.52239075359E+01 -0.12890058264E+04  0.12918309067E+04  0.79852758876E+02 0.  0.
        -11    1    3    3    0    0  0.98802736033E+01  0.28410128799E+02 -0.31349518880E+03  0.31493489585E+03  0.00000000000E+00 0.  1.
         12    1    3    3    0    0 -0.39668166510E+02 -0.33634036335E+02 -0.97551063761E+03  0.97689601080E+03  0.00000000000E+00 0. -1.
          1    1    1    2  501    0  0.29787892907E+02  0.52239075359E+01 -0.27836126767E+03  0.27999929127E+03  0.00000000000E+00 0. -1.
<mgrwt>
<rscale>  1 0.85387768E+02</rscale>
<asrwt>0</asrwt>
<pdfrwt beam="1">  1       21 0.34331395E-03 0.85387768E+02</pdfrwt>
<pdfrwt beam="2">  1        2 0.24147793E+00 0.85387768E+02</pdfrwt>
<totfact> 0.30417094E+06</totfact>
</mgrwt>
</event>
<event>
 6    2  0.8544106E+000  0.8621406E+02  0.7546771E-02  0.1312288E+00
         21   -1    0    0  501  502  0.00000000000E+00  0.00000000000E+00  0.13952259008E+02  0.13952259008E+02  0.00000000000E+00 0. -1.
          2   -1    0    0  502    0 -0.00000000000E+00 -0.00000000000E+00 -0.52369748023E+03  0.52369748023E+03  0.00000000000E+00 0. -1.
         24    2    1    2    0    0 -0.59764470945E+01 -0.30464258918E+02 -0.49644538714E+03  0.50387586505E+03  0.80430566161E+02 0.  0.
        -11    1    3    3    0    0  0.50225928067E+00  0.23210857109E+02 -0.64324104850E+02  0.68385573164E+02  0.00000000000E+00 0.  1.
         12    1    3    3    0    0 -0.64787063751E+01 -0.53675116027E+02 -0.43212128229E+03  0.43549029188E+03  0.00000000000E+00 0. -1.
          1    1    1    2  501    0  0.59764470945E+01  0.30464258918E+02 -0.13299834083E+02  0.33773874192E+02  0.00000000000E+00 0. -1.
<mgrwt>
<rscale>  1 0.86214065E+02</rscale>
<asrwt>0</asrwt>
<pdfrwt beam="1">  1       21 0.21465016E-02 0.86214065E+02</pdfrwt>
<pdfrwt beam="2">  1        2 0.80568835E-01 0.86214065E+02</pdfrwt>
<totfact> 0.76517168E+05</totfact>
</mgrwt>
</event>
<event>
 6    2  0.8544106E+000  0.1027432E+03  0.7546771E-02  0.1274631E+00
         21   -1    0    0  501  502  0.00000000000E+00  0.00000000000E+00  0.17399789276E+02  0.17399789276E+02  0.00000000000E+00 0. -1.
         -1   -1    0    0    0  501 -0.00000000000E+00 -0.00000000000E+00 -0.53451943970E+03  0.53451943970E+03  0.00000000000E+00 0.  1.
         24    2    1    2    0    0  0.48139536233E+02 -0.43089487054E+02 -0.43740875403E+03  0.44931345016E+03  0.79887668291E+02 0.  0.
        -11    1    3    3    0    0  0.72426691196E+01 -0.40330481084E+01 -0.30771871436E+03  0.30783035734E+03  0.00000000000E+00 0.  1.
         12    1    3    3    0    0  0.40896867114E+02 -0.39056438946E+02 -0.12969003967E+03  0.14148309282E+03  0.00000000000E+00 0. -1.
         -2    1    1    2    0  502 -0.48139536233E+02  0.43089487054E+02 -0.79710896395E+02  0.10260577882E+03  0.00000000000E+00 0.  1.
<mgrwt>
<rscale>  1 0.10274317E+03</rscale>
<asrwt>0</asrwt>
<pdfrwt beam="1">  1       21 0.26768910E-02 0.10274317E+03</pdfrwt>
<pdfrwt beam="2">  1       -1 0.82233750E-01 0.10274317E+03</pdfrwt>
<totfact> 0.10670689E+05</totfact>
</mgrwt>
</event>
<event>
 6    2  0.8544106E+000  0.8756508E+02  0.7546771E-02  0.1308858E+00
         21   -1    0    0  501  502  0.00000000000E+00  0.00000000000E+00  0.77879974224E+01  0.77879974224E+01  0.00000000000E+00 0. -1.
          2   -1    0    0  502    0 -0.00000000000E+00 -0.00000000000E+00 -0.14613519409E+04  0.14613519409E+04  0.00000000000E+00 0. -1.
         24    2    1    2    0    0 -0.18424846161E+02  0.28168545223E+02 -0.14159882403E+04  0.14186931806E+04  0.80837504127E+02 0.  0.
        -13    1    3    3    0    0 -0.15098403053E+02 -0.99239030677E+01 -0.74482439308E+02  0.76642542964E+02  0.00000000000E+00 0.  1.
         14    1    3    3    0    0 -0.33264431083E+01  0.38092448291E+02 -0.13415058010E+04  0.13420506376E+04  0.00000000000E+00 0. -1.
          1    1    1    2  501    0  0.18424846161E+02 -0.28168545223E+02 -0.37575703142E+02  0.50446757702E+02  0.00000000000E+00 0. -1.
<mgrwt>
<rscale>  1 0.87565084E+02</rscale>
<asrwt>0</asrwt>
<pdfrwt beam="1">  1       21 0.11981542E-02 0.87565084E+02</pdfrwt>
<pdfrwt beam="2">  1        2 0.22482324E+00 0.87565084E+02</pdfrwt>
<totfact> 0.50352948E+05</totfact>
</mgrwt>
</event>
<event>
 6    2  0.8544106E+000  0.1393546E+03  0.7546771E-02  0.1214200E+00
          2   -1    0    0  502    0 -0.00000000000E+00  0.00000000000E+00  0.22604403090E+03  0.22604403090E+03  0.00000000000E+00 0. -1.
         21   -1    0    0  501  502  0.00000000000E+00 -0.00000000000E+00 -0.80588509764E+02  0.80588509764E+02  0.00000000000E+00 0.  1.
         24    2    1    2    0    0  0.27533521099E+02 -0.11087063631E+03  0.26773923936E+02  0.14190332560E+03  0.79808007332E+02 0.  0.
        -13    1    3    3    0    0  0.12602602897E+02 -0.11654086881E+03  0.83454448180E+01  0.11751700367E+03  0.00000000000E+00 0.  1.
         14    1    3    3    0    0  0.14930918202E+02  0.56702324957E+01  0.18428479118E+02  0.24386321935E+02  0.00000000000E+00 0. -1.
          1    1    1    2  501    0 -0.27533521099E+02  0.11087063631E+03  0.11868159720E+03  0.16472921506E+03  0.00000000000E+00 0. -1.
<mgrwt>
<rscale>  1 0.13935462E+03</rscale>
<asrwt>0</asrwt>
<pdfrwt beam="1">  1       21 0.12398232E-01 0.13935462E+03</pdfrwt>
<pdfrwt beam="2">  1        2 0.34776005E-01 0.13935462E+03</pdfrwt>
<totfact> 0.10095938E+05</totfact>
</mgrwt>
</event>
<event>
 6    2  0.8544106E+000  0.8505858E+02  0.7546771E-02  0.1315279E+00
          2   -1    0    0  502    0 -0.00000000000E+00  0.00000000000E+00  0.63242710322E+03  0.63242710322E+03  0.00000000000E+00 0. -1.
         21   -1    0    0  501  502  0.00000000000E+00 -0.00000000000E+00 -0.11397037901E+02  0.11397037901E+02  0.00000000000E+00 0. -1.
         24    2    1    2    0    0  0.29400455240E+02 -0.97019624909E+01  0.60091150254E+03  0.60690163561E+03  0.79224027798E+02 0.  0.
        -11    1    3    3    0    0  0.13413251508E+02  0.16847209557E+02  0.42628488650E+02  0.47759102069E+02  0.00000000000E+00 0.  1.
         12    1    3    3    0    0  0.15987203731E+02 -0.26549172048E+02  0.55828301389E+03  0.55914253355E+03  0.00000000000E+00 0. -1.
          1    1    1    2  501    0 -0.29400455240E+02  0.97019624909E+01  0.20118562774E+02  0.36922505502E+02  0.00000000000E+00 0. -1.
<mgrwt>
<rscale>  1 0.85058576E+02</rscale>
<asrwt>0</asrwt>
<pdfrwt beam="1">  1       21 0.17533909E-02 0.85058576E+02</pdfrwt>
<pdfrwt beam="2">  1        2 0.97296450E-01 0.85058576E+02</pdfrwt>
<totfact> 0.85658251E+05</totfact>
</mgrwt>
</event>
<event>
 6    2  0.8544106E+000  0.9638378E+02  0.7546771E-02  0.1288090E+00
         -1   -1    0    0    0  501 -0.00000000000E+00  0.00000000000E+00  0.26874231893E+04  0.26874231893E+04  0.00000000000E+00 0.  1.
         21   -1    0    0  501  502  0.00000000000E+00 -0.00000000000E+00 -0.68547376434E+01  0.68547376434E+01  0.00000000000E+00 0.  1.
         24    2    1    2    0    0  0.14698563022E+02 -0.52078322272E+02  0.25634647763E+04  0.25652761045E+04  0.79759850295E+02 0.  0.
        -11    1    3    3    0    0 -0.11510278015E+02  0.93412701918E+01  0.12717367519E+04  0.12718231449E+04  0.00000000000E+00 0.  1.
         12    1    3    3    0    0  0.26208841037E+02 -0.61419592464E+02  0.12917280244E+04  0.12934529596E+04  0.00000000000E+00 0. -1.
         -2    1    1    2    0  502 -0.14698563022E+02  0.52078322272E+02  0.11710367539E+03  0.12900182245E+03  0.00000000000E+00 0.  1.
<mgrwt>
<rscale>  1 0.96383780E+02</rscale>
<asrwt>0</asrwt>
<pdfrwt beam="1">  1       21 0.10545772E-02 0.96383780E+02</pdfrwt>
<pdfrwt beam="2">  1       -1 0.41344888E+00 0.96383780E+02</pdfrwt>
<totfact> 0.24837589E+03</totfact>
</mgrwt>
</event>
<event>
 6    2  0.8544106E+000  0.9938658E+02  0.7546771E-02  0.1281591E+00
         -1   -1    0    0    0  501 -0.00000000000E+00  0.00000000000E+00  0.60006096823E+03  0.60006096823E+03  0.00000000000E+00 0.  1.
         21   -1    0    0  501  502  0.00000000000E+00 -0.00000000000E+00 -0.19060301994E+02  0.19060301994E+02  0.00000000000E+00 0.  1.
         24    2    1    2    0    0 -0.31432676879E+02  0.47484027381E+02  0.53970241292E+03  0.54877717482E+03  0.81455184324E+02 0.  0.
        -11    1    3    3    0    0 -0.45968457678E+02  0.86691315153E+01  0.40885046242E+03  0.41151786542E+03  0.00000000000E+00 0.  1.
         12    1    3    3    0    0  0.14535780799E+02  0.38814895865E+02  0.13085195050E+03  0.13725930939E+03  0.00000000000E+00 0. -1.
         -2    1    1    2    0  502  0.31432676879E+02 -0.47484027381E+02  0.41298253315E+02  0.70344095409E+02  0.00000000000E+00 0.  1.
<mgrwt>
<rscale>  1 0.99386584E+02</rscale>
<asrwt>0</asrwt>
<pdfrwt beam="1">  1       21 0.29323546E-02 0.99386584E+02</pdfrwt>
<pdfrwt beam="2">  1       -1 0.92317057E-01 0.99386584E+02</pdfrwt>
<totfact> 0.72164707E+04</totfact>
</mgrwt>
</event>
<event>
 6    2  0.8544106E+000  0.8735536E+02  0.7546771E-02  0.1309385E+00
         21   -1    0    0  501  502  0.00000000000E+00  0.00000000000E+00  0.43876693894E+01  0.43876693894E+01  0.00000000000E+00 0.  1.
          2   -1    0    0  502    0 -0.00000000000E+00 -0.00000000000E+00 -0.90765155675E+03  0.90765155675E+03  0.00000000000E+00 0. -1.
         24    2    1    2    0    0  0.26786054269E+02  0.18336619898E+02 -0.76717688591E+03  0.77213427163E+03  0.81100153008E+02 0.  0.
        -13    1    3    3    0    0 -0.90921588978E+01  0.17561982181E+02 -0.46072491739E+02  0.50137461709E+02  0.00000000000E+00 0.  1.
         14    1    3    3    0    0  0.35878213167E+02  0.77463771757E+00 -0.72110439417E+03  0.72199680992E+03  0.00000000000E+00 0. -1.
          1    1    1    2  501    0 -0.26786054269E+02 -0.18336619898E+02 -0.13608700146E+03  0.13990495452E+03  0.00000000000E+00 0. -1.
<mgrwt>
<rscale>  1 0.87355361E+02</rscale>
<asrwt>0</asrwt>
<pdfrwt beam="1">  1       21 0.67502630E-03 0.87355361E+02</pdfrwt>
<pdfrwt beam="2">  1        2 0.13963865E+00 0.87355361E+02</pdfrwt>
<totfact> 0.24823658E+06</totfact>
</mgrwt>
</event>
<event>
 6    2  0.8544106E+000  0.8541495E+02  0.7546771E-02  0.1314351E+00
         -1   -1    0    0    0  501 -0.00000000000E+00  0.00000000000E+00  0.22713063096E+02  0.22713063096E+02  0.00000000000E+00 0.  1.
         21   -1    0    0  501  502  0.00000000000E+00 -0.00000000000E+00 -0.45803305606E+03  0.45803305606E+03  0.00000000000E+00 0.  1.
         24    2    1    2    0    0  0.18544093133E+02 -0.21193709405E+02 -0.60027083813E+02  0.10439810951E+03  0.80639058582E+02 0.  0.
        -13    1    3    3    0    0  0.25228037116E+02  0.66693530857E+01  0.10611093025E+02  0.28169654284E+02  0.00000000000E+00 0.  1.
         14    1    3    3    0    0 -0.66839439825E+01 -0.27863062491E+02 -0.70638176839E+02  0.76228455223E+02  0.00000000000E+00 0. -1.
         -2    1    1    2    0  502 -0.18544093133E+02  0.21193709405E+02 -0.37529290915E+03  0.37634800965E+03  0.00000000000E+00 0.  1.
<mgrwt>
<rscale>  1 0.85414955E+02</rscale>
<asrwt>0</asrwt>
<pdfrwt beam="1">  1       21 0.70466615E-01 0.85414955E+02</pdfrwt>
<pdfrwt beam="2">  1       -1 0.34943178E-02 0.85414955E+02</pdfrwt>
<totfact> 0.47249054E+04</totfact>
</mgrwt>
</event>
<event>
 6    2  0.8544106E+000  0.1207565E+03  0.7546771E-02  0.1241854E+00
         21   -1    0    0  501  502  0.00000000000E+00  0.00000000000E+00  0.25978352938E+02  0.25978352938E+02  0.00000000000E+00 0. -1.
          2   -1    0    0  502    0 -0.00000000000E+00 -0.00000000000E+00 -0.71398322391E+03  0.71398322391E+03  0.00000000000E+00 0. -1.
         24    2    1    2    0    0  0.21344088657E+02 -0.86422742110E+02 -0.60926069282E+03  0.62111248738E+03  0.81594544489E+02 0.  0.
        -11    1    3    3    0    0 -0.32589680069E+01 -0.33882863466E+02 -0.61530062930E+02  0.70317977455E+02  0.00000000000E+00 0.  1.
         12    1    3    3    0    0  0.24603056663E+02 -0.52539878644E+02 -0.54773062989E+03  0.55079450993E+03  0.00000000000E+00 0. -1.
          1    1    1    2  501    0 -0.21344088657E+02  0.86422742110E+02 -0.78744178150E+02  0.11884908947E+03  0.00000000000E+00 0. -1.
<mgrwt>
<rscale>  1 0.12075649E+03</rscale>
<asrwt>0</asrwt>
<pdfrwt beam="1">  1       21 0.39966704E-02 0.12075649E+03</pdfrwt>
<pdfrwt beam="2">  1        2 0.10984355E+00 0.12075649E+03</pdfrwt>
<totfact> 0.19987642E+05</totfact>
</mgrwt>
</event>
<event>
 6    2  0.8544106E+000  0.8475269E+02  0.7546771E-02  0.1316081E+00
         21   -1    0    0  501  502  0.00000000000E+00  0.00000000000E+00  0.73494846737E+02  0.73494846737E+02  0.00000000000E+00 0. -1.
         -1   -1    0    0    0  501 -0.00000000000E+00 -0.00000000000E+00 -0.47125449581E+02  0.47125449581E+02  0.00000000000E+00 0.  1.
         24    2    1    2    0    0  0.29985465724E+02  0.11664924287E+02  0.25219125036E+02  0.88425238634E+02  0.78408034962E+02 0.  0.
        -11    1    3    3    0    0 -0.22459182849E+02  0.17944951563E+02 -0.23503686296E+01  0.28843723989E+02  0.00000000000E+00 0.  1.
         12    1    3    3    0    0  0.52444648572E+02 -0.62800272768E+01  0.27569493666E+02  0.59581514646E+02  0.00000000000E+00 0. -1.
         -2    1    1    2    0  502 -0.29985465724E+02 -0.11664924287E+02  0.11502721195E+01  0.32195057683E+02  0.00000000000E+00 0.  1.
<mgrwt>
<rscale>  1 0.84752691E+02</rscale>
<asrwt>0</asrwt>
<pdfrwt beam="1">  1       21 0.11306899E-01 0.84752691E+02</pdfrwt>
<pdfrwt beam="2">  1       -1 0.72500692E-02 0.84752691E+02</pdfrwt>
<totfact> 0.53688992E+05</totfact>
</mgrwt>
</event>
<event>
 6    2  0.8544106E+000  0.8987655E+02  0.7546771E-02  0.1303151E+00
          2   -1    0    0  502    0 -0.00000000000E+00  0.00000000000E+00  0.16336528759E+03  0.16336528759E+03  0.00000000000E+00 0. -1.
         21   -1    0    0  501  502  0.00000000000E+00 -0.00000000000E+00 -0.33622861698E+02  0.33622861698E+02  0.00000000000E+00 0. -1.
         24    2    1    2    0    0  0.15922227742E+02  0.15683362117E+02  0.14452541876E+03  0.17019221561E+03  0.87053480138E+02 0.  0.
        -13    1    3    3    0    0 -0.24375856161E+02 -0.18578452369E+02  0.25234708622E+02  0.39700526133E+02  0.00000000000E+00 0.  1.
         14    1    3    3    0    0  0.40298083904E+02  0.34261814486E+02  0.11929071014E+03  0.13049168948E+03  0.00000000000E+00 0. -1.
          1    1    1    2  501    0 -0.15922227742E+02 -0.15683362117E+02 -0.14782992865E+02  0.26795933677E+02  0.00000000000E+00 0. -1.
<mgrwt>
<rscale>  1 0.89876546E+02</rscale>
<asrwt>0</asrwt>
<pdfrwt beam="1">  1       21 0.51727481E-02 0.89876546E+02</pdfrwt>
<pdfrwt beam="2">  1        2 0.25133121E-01 0.89876546E+02</pdfrwt>
<totfact> 0.62689479E+05</totfact>
</mgrwt>
</event>
<event>
 6    2  0.8544106E+000  0.1098428E+03  0.7546771E-02  0.1260861E+00
          2   -1    0    0  502    0 -0.00000000000E+00  0.00000000000E+00  0.12771754403E+04  0.12771754403E+04  0.00000000000E+00 0. -1.
         21   -1    0    0  501  502  0.00000000000E+00 -0.00000000000E+00 -0.67088602657E+01  0.67088602657E+01  0.00000000000E+00 0. -1.
         24    2    1    2    0    0 -0.60965427181E+02 -0.43310636683E+02  0.80171801070E+03  0.80920776247E+03  0.80453959542E+02 0.  0.
        -11    1    3    3    0    0 -0.21039177796E+02  0.18928507975E+02  0.11131929535E+03  0.11486044112E+03  0.00000000000E+00 0.  1.
         12    1    3    3    0    0 -0.39926249385E+02 -0.62239144658E+02  0.69039871535E+03  0.69434732136E+03  0.00000000000E+00 0. -1.
          1    1    1    2  501    0  0.60965427181E+02  0.43310636683E+02  0.46874856929E+03  0.47467653804E+03  0.00000000000E+00 0. -1.
<mgrwt>
<rscale>  1 0.10984277E+03</rscale>
<asrwt>0</asrwt>
<pdfrwt beam="1">  1       21 0.10321334E-02 0.10984277E+03</pdfrwt>
<pdfrwt beam="2">  1        2 0.19648834E+00 0.10984277E+03</pdfrwt>
<totfact> 0.80436645E+05</totfact>
</mgrwt>
</event>
<event>
 6    2  0.8544106E+000  0.8172790E+02  0.7546771E-02  0.1324218E+00
         21   -1    0    0  501  502  0.00000000000E+00  0.00000000000E+00  0.25767465781E+03  0.25767465781E+03  0.00000000000E+00 0. -1.
          2   -1    0    0  502    0 -0.00000000000E+00 -0.00000000000E+00 -0.96628781117E+02  0.96628781117E+02  0.00000000000E+00 0. -1.
         24    2    1    2    0    0 -0.23445691229E+02 -0.62874095989E+00 -0.78672279670E+02  0.11344063515E+03  0.78290193274E+02 0.  0.
        -13    1    3    3    0    0  0.26381319364E+02  0.13823136877E+02 -0.30868861441E+02  0.42894518661E+02  0.00000000000E+00 0.  1.
         14    1    3    3    0    0 -0.49827010593E+02 -0.14451877837E+02 -0.47803418228E+02  0.70546116491E+02  0.00000000000E+00 0. -1.
          1    1    1    2  501    0  0.23445691229E+02  0.62874095989E+00  0.23971815637E+03  0.24086280378E+03  0.00000000000E+00 0. -1.
<mgrwt>
<rscale>  1 0.81727903E+02</rscale>
<asrwt>0</asrwt>
<pdfrwt beam="1">  1       21 0.39642255E-01 0.81727903E+02</pdfrwt>
<pdfrwt beam="2">  1        2 0.14865966E-01 0.81727903E+02</pdfrwt>
<totfact> 0.29317953E+04</totfact>
</mgrwt>
</event>
<event>
 6    2  0.8544106E+000  0.8250309E+02  0.7546771E-02  0.1322094E+00
          2   -1    0    0  502    0 -0.00000000000E+00  0.00000000000E+00  0.42302160340E+03  0.42302160340E+03  0.00000000000E+00 0. -1.
         21   -1    0    0  501  502  0.00000000000E+00 -0.00000000000E+00 -0.82198987787E+01  0.82198987787E+01  0.00000000000E+00 0.  1.
         24    2    1    2    0    0 -0.12680871642E+02 -0.16330273238E+02  0.21359149251E+03  0.22897180156E+03  0.79870381922E+02 0.  0.
        -11    1    3    3    0    0 -0.42098132870E+02 -0.50085184333E+01  0.68992958194E+02  0.80977566822E+02  0.00000000000E+00 0.  1.
         12    1    3    3    0    0  0.29417261228E+02 -0.11321754805E+02  0.14459853431E+03  0.14799423474E+03  0.00000000000E+00 0. -1.
          1    1    1    2  501    0  0.12680871642E+02  0.16330273238E+02  0.20121021211E+03  0.20226970062E+03  0.00000000000E+00 0. -1.
<mgrwt>
<rscale>  1 0.82503092E+02</rscale>
<asrwt>0</asrwt>
<pdfrwt beam="1">  1       21 0.12646001E-02 0.82503092E+02</pdfrwt>
<pdfrwt beam="2">  1        2 0.65080229E-01 0.82503092E+02</pdfrwt>
<totfact> 0.22144491E+06</totfact>
</mgrwt>
</event>
<event>
 6    2  0.8544106E+000  0.8936390E+02  0.7546771E-02  0.1304399E+00
          2   -1    0    0  502    0 -0.00000000000E+00  0.00000000000E+00  0.60671225465E+03  0.60671225465E+03  0.00000000000E+00 0. -1.
         21   -1    0    0  501  502  0.00000000000E+00 -0.00000000000E+00 -0.80499848918E+01  0.80499848918E+01  0.00000000000E+00 0.  1.
         24    2    1    2    0    0 -0.40554345700E+01  0.37174228099E+02  0.52049436191E+03  0.52811010972E+03  0.81163645987E+02 0.  0.
        -13    1    3    3    0    0 -0.28313914849E+02  0.78119511654E+01  0.68728953264E+02  0.74742045542E+02  0.00000000000E+00 0.  1.
         14    1    3    3    0    0  0.24258480279E+02  0.29362276934E+02  0.45176540864E+03  0.45336806418E+03  0.00000000000E+00 0. -1.
          1    1    1    2  501    0  0.40554345700E+01 -0.37174228099E+02  0.78167907849E+02  0.86652129817E+02  0.00000000000E+00 0. -1.
<mgrwt>
<rscale>  1 0.89363903E+02</rscale>
<asrwt>0</asrwt>
<pdfrwt beam="1">  1       21 0.12384597E-02 0.89363903E+02</pdfrwt>
<pdfrwt beam="2">  1        2 0.93340311E-01 0.89363903E+02</pdfrwt>
<totfact> 0.15628504E+06</totfact>
</mgrwt>
</event>
<event>
 6    2  0.9024080E+000  0.8494613E+02  0.7546771E-02  0.1315573E+00
         -1   -1    0    0    0  501 -0.00000000000E+00  0.00000000000E+00  0.11910070398E+04  0.11910070398E+04  0.00000000000E+00 0.  1.
         21   -1    0    0  501  502  0.00000000000E+00 -0.00000000000E+00 -0.24222736131E+02  0.24222736131E+02  0.00000000000E+00 0.  1.
         24    2    1    2    0    0 -0.10395683695E+02 -0.27035350614E+02  0.11802391399E+04  0.11832921330E+04  0.79855269954E+02 0.  0.
        -13    1    3    3    0    0  0.76067946329E+01 -0.29987901840E+02  0.11181618169E+04  0.11185897310E+04  0.00000000000E+00 0.  1.
         14    1    3    3    0    0 -0.18002478328E+02  0.29525512266E+01  0.62077323000E+02  0.64702401930E+02  0.00000000000E+00 0. -1.
         -2    1    1    2    0  502  0.10395683695E+02  0.27035350614E+02 -0.13454836215E+02  0.31937642992E+02  0.00000000000E+00 0.  1.
<mgrwt>
<rscale>  1 0.84946127E+02</rscale>
<asrwt>0</asrwt>
<pdfrwt beam="1">  1       21 0.37265757E-02 0.84946127E+02</pdfrwt>
<pdfrwt beam="2">  1       -1 0.18323181E+00 0.84946127E+02</pdfrwt>
<totfact> 0.91796347E+03</totfact>
</mgrwt>
</event>
<event>
 6    2  0.8544106E+000  0.9068365E+02  0.7546771E-02  0.1301205E+00
         21   -1    0    0  501  502  0.00000000000E+00  0.00000000000E+00  0.46340811522E+02  0.46340811522E+02  0.00000000000E+00 0. -1.
          2   -1    0    0  502    0 -0.00000000000E+00 -0.00000000000E+00 -0.94046636010E+02  0.94046636010E+02  0.00000000000E+00 0. -1.
         24    2    1    2    0    0  0.16289110209E+02  0.38003987401E+02 -0.32418872360E+02  0.96304241262E+02  0.80708645324E+02 0.  0.
        -13    1    3    3    0    0  0.97597722148E+01 -0.82538118329E+01  0.21468926127E+02  0.24985863053E+02  0.00000000000E+00 0.  1.
         14    1    3    3    0    0  0.65293379943E+01  0.46257799234E+02 -0.53887798487E+02  0.71318378209E+02  0.00000000000E+00 0. -1.
          1    1    1    2  501    0 -0.16289110209E+02 -0.38003987401E+02 -0.15286952128E+02  0.44083206271E+02  0.00000000000E+00 0. -1.
<mgrwt>
<rscale>  1 0.90683646E+02</rscale>
<asrwt>0</asrwt>
<pdfrwt beam="1">  1       21 0.71293557E-02 0.90683646E+02</pdfrwt>
<pdfrwt beam="2">  1        2 0.14468713E-01 0.90683646E+02</pdfrwt>
<totfact> 0.68041448E+05</totfact>
</mgrwt>
</event>
<event>
 6    2  0.8544106E+000  0.8231419E+02  0.7546771E-02  0.1322609E+00
          2   -1    0    0  502    0 -0.00000000000E+00  0.00000000000E+00  0.26385462611E+04  0.26385462611E+04  0.00000000000E+00 0. -1.
         21   -1    0    0  501  502  0.00000000000E+00 -0.00000000000E+00 -0.11178385024E+01  0.11178385024E+01  0.00000000000E+00 0.  1.
         24    2    1    2    0    0  0.25799480239E+02 -0.13283381488E+01  0.18966853300E+04  0.18984706654E+04  0.78155285887E+02 0.  0.
        -11    1    3    3    0    0  0.52351438216E+02  0.94025541312E+01  0.11311411333E+04  0.11323909858E+04  0.00000000000E+00 0.  1.
         12    1    3    3    0    0 -0.26551957977E+02 -0.10730892280E+02  0.76554419666E+03  0.76607967964E+03  0.00000000000E+00 0. -1.
          1    1    1    2  501    0 -0.25799480239E+02  0.13283381488E+01  0.74074309263E+03  0.74119343423E+03  0.00000000000E+00 0. -1.
<mgrwt>
<rscale>  1 0.82314193E+02</rscale>
<asrwt>0</asrwt>
<pdfrwt beam="1">  1       21 0.17197727E-03 0.82314193E+02</pdfrwt>
<pdfrwt beam="2">  1        2 0.40592521E+00 0.82314193E+02</pdfrwt>
<totfact> 0.24522068E+06</totfact>
</mgrwt>
</event>
<event>
 6    2  0.8544106E+000  0.8255956E+02  0.7546771E-02  0.1321941E+00
         21   -1    0    0  501  502  0.00000000000E+00  0.00000000000E+00  0.21873629852E+01  0.21873629852E+01  0.00000000000E+00 0. -1.
          2   -1    0    0  502    0 -0.00000000000E+00 -0.00000000000E+00 -0.22906672572E+04  0.22906672572E+04  0.00000000000E+00 0. -1.
         24    2    1    2    0    0  0.19754376984E+02 -0.71030399084E+01 -0.22121653791E+04  0.22137054332E+04  0.79846050825E+02 0.  0.
        -11    1    3    3    0    0 -0.34035167824E+01 -0.30878681802E+02 -0.38917015717E+03  0.39040810462E+03  0.00000000000E+00 0.  1.
         12    1    3    3    0    0  0.23157893766E+02  0.23775641893E+02 -0.18229952219E+04  0.18232973285E+04  0.00000000000E+00 0. -1.
          1    1    1    2  501    0 -0.19754376984E+02  0.71030399084E+01 -0.76314515142E+02  0.79149187029E+02  0.00000000000E+00 0. -1.
<mgrwt>
<rscale>  1 0.82559557E+02</rscale>
<asrwt>0</asrwt>
<pdfrwt beam="1">  1       21 0.33651678E-03 0.82559557E+02</pdfrwt>
<pdfrwt beam="2">  1        2 0.35241097E+00 0.82559557E+02</pdfrwt>
<totfact> 0.13581630E+06</totfact>
</mgrwt>
</event>
<event>
 6    2  0.8544106E+000  0.8233547E+02  0.7546771E-02  0.1322551E+00
         21   -1    0    0  501  502  0.00000000000E+00  0.00000000000E+00  0.14307630972E+03  0.14307630972E+03  0.00000000000E+00 0. -1.
          4   -1    0    0  502    0 -0.00000000000E+00 -0.00000000000E+00 -0.36420997791E+02  0.36420997791E+02  0.00000000000E+00 0. -1.
         24    2    1    2    0    0 -0.69841290691E+01  0.19033631811E+02  0.12614977975E+02  0.83296259654E+02  0.79800200528E+02 0.  0.
        -11    1    3    3    0    0 -0.17427327335E+02  0.76344758984E+00  0.42960957876E+02  0.46367429214E+02  0.00000000000E+00 0.  1.
         12    1    3    3    0    0  0.10443198266E+02  0.18270184221E+02 -0.30345979901E+02  0.36928830440E+02  0.00000000000E+00 0. -1.
          3    1    1    2  501    0  0.69841290691E+01 -0.19033631811E+02  0.94040333952E+02  0.96201047856E+02  0.00000000000E+00 0. -1.
<mgrwt>
<rscale>  1 0.82335467E+02</rscale>
<asrwt>0</asrwt>
<pdfrwt beam="1">  1       21 0.22011740E-01 0.82335467E+02</pdfrwt>
<pdfrwt beam="2">  1        4 0.56032305E-02 0.82335467E+02</pdfrwt>
<totfact> 0.14266568E+05</totfact>
</mgrwt>
</event>
<event>
 6    2  0.8544106E+000  0.8902554E+02  0.7546771E-02  0.1305229E+00
          2   -1    0    0  502    0 -0.00000000000E+00  0.00000000000E+00  0.30032822589E+03  0.30032822589E+03  0.00000000000E+00 0. -1.
         21   -1    0    0  501  502  0.00000000000E+00 -0.00000000000E+00 -0.37817232775E+02  0.37817232775E+02  0.00000000000E+00 0. -1.
         24    2    1    2    0    0 -0.18359203449E+02  0.15667630532E+02  0.28894593464E+03  0.30234963305E+03  0.85691379151E+02 0.  0.
        -11    1    3    3    0    0  0.13437654000E+02 -0.25493307098E+02  0.49129792567E+02  0.56958017605E+02  0.00000000000E+00 0.  1.
         12    1    3    3    0    0 -0.31796857449E+02  0.41160937630E+02  0.23981614207E+03  0.24539161544E+03  0.00000000000E+00 0. -1.
          1    1    1    2  501    0  0.18359203449E+02 -0.15667630532E+02 -0.26434941530E+02  0.35795825615E+02  0.00000000000E+00 0. -1.
<mgrwt>
<rscale>  1 0.89025544E+02</rscale>
<asrwt>0</asrwt>
<pdfrwt beam="1">  1       21 0.58180360E-02 0.89025544E+02</pdfrwt>
<pdfrwt beam="2">  1        2 0.46204341E-01 0.89025544E+02</pdfrwt>
<totfact> 0.26978617E+05</totfact>
</mgrwt>
</event>
<event>
 6    2  0.8544106E+000  0.8779078E+02  0.7546771E-02  0.1308292E+00
         21   -1    0    0  501  502  0.00000000000E+00  0.00000000000E+00  0.18654464167E+02  0.18654464167E+02  0.00000000000E+00 0. -1.
         -1   -1    0    0    0  501 -0.00000000000E+00 -0.00000000000E+00 -0.28763286058E+03  0.28763286058E+03  0.00000000000E+00 0.  1.
         24    2    1    2    0    0 -0.17051718869E+02 -0.27193180003E+02 -0.25773702398E+03  0.27227852281E+03  0.81712852705E+02 0.  0.
        -11    1    3    3    0    0 -0.61900736463E+01 -0.22919227795E+02 -0.25940376037E+03  0.26048784791E+03  0.00000000000E+00 0.  1.
         12    1    3    3    0    0 -0.10861645223E+02 -0.42739522078E+01  0.16667363875E+01  0.11790674900E+02  0.00000000000E+00 0. -1.
         -2    1    1    2    0  502  0.17051718869E+02  0.27193180003E+02 -0.11241372431E+02  0.34008801937E+02  0.00000000000E+00 0.  1.
<mgrwt>
<rscale>  1 0.87790777E+02</rscale>
<asrwt>0</asrwt>
<pdfrwt beam="1">  1       21 0.28699178E-02 0.87790777E+02</pdfrwt>
<pdfrwt beam="2">  1       -1 0.44251206E-01 0.87790777E+02</pdfrwt>
<totfact> 0.30404869E+05</totfact>
</mgrwt>
</event>
<event>
 6    2  0.8544106E+000  0.7699597E+02  0.7546771E-02  0.1337799E+00
          2   -1    0    0  502    0 -0.00000000000E+00  0.00000000000E+00  0.17676282259E+02  0.17676282259E+02  0.00000000000E+00 0. -1.
         21   -1    0    0  501  502  0.00000000000E+00 -0.00000000000E+00 -0.16162211908E+03  0.16162211908E+03  0.00000000000E+00 0.  1.
         24    2    1    2    0    0  0.25876998301E+02 -0.39172070463E+01 -0.12565400981E+03  0.14736793802E+03  0.72411431577E+02 0.  0.
        -13    1    3    3    0    0  0.43968524701E+02 -0.21141776302E+02 -0.10151836793E+03  0.11263296541E+03  0.00000000000E+00 0.  1.
         14    1    3    3    0    0 -0.18091526399E+02  0.17224569255E+02 -0.24135641886E+02  0.34734972618E+02  0.00000000000E+00 0. -1.
          1    1    1    2  501    0 -0.25876998301E+02  0.39172070463E+01 -0.18291827003E+02  0.31930463311E+02  0.00000000000E+00 0. -1.
<mgrwt>
<rscale>  1 0.76995967E+02</rscale>
<asrwt>0</asrwt>
<pdfrwt beam="1">  1       21 0.24864943E-01 0.76995967E+02</pdfrwt>
<pdfrwt beam="2">  1        2 0.27194279E-02 0.76995967E+02</pdfrwt>
<totfact> 0.59933198E+05</totfact>
</mgrwt>
</event>
<event>
 6    2  0.8544106E+000  0.8310238E+02  0.7546771E-02  0.1320471E+00
         21   -1    0    0  501  502  0.00000000000E+00  0.00000000000E+00  0.37940397818E+03  0.37940397818E+03  0.00000000000E+00 0.  1.
          2   -1    0    0  502    0 -0.00000000000E+00 -0.00000000000E+00 -0.86969391235E+01  0.86969391235E+01  0.00000000000E+00 0. -1.
         24    2    1    2    0    0 -0.22810878567E+02  0.20521465037E+01  0.21125635456E+03  0.22701377234E+03  0.79884028463E+02 0.  0.
        -11    1    3    3    0    0  0.34878580970E+01  0.54521916029E+01  0.19661718929E+03  0.19672369118E+03  0.00000000000E+00 0.  1.
         12    1    3    3    0    0 -0.26298736664E+02 -0.34000450992E+01  0.14639165270E+02  0.30290081159E+02  0.00000000000E+00 0. -1.
          1    1    1    2  501    0  0.22810878567E+02 -0.20521465037E+01  0.15945068449E+03  0.16108714496E+03  0.00000000000E+00 0. -1.
<mgrwt>
<rscale>  1 0.83102380E+02</rscale>
<asrwt>0</asrwt>
<pdfrwt beam="1">  1       21 0.58369830E-01 0.83102380E+02</pdfrwt>
<pdfrwt beam="2">  1        2 0.13379909E-02 0.83102380E+02</pdfrwt>
<totfact> 0.29322432E+05</totfact>
</mgrwt>
</event>
<event>
 6    2  0.8544106E+000  0.8653834E+02  0.7546771E-02  0.1311458E+00
         21   -1    0    0  501  502  0.00000000000E+00  0.00000000000E+00  0.13490895670E+04  0.13490895670E+04  0.00000000000E+00 0.  1.
          2   -1    0    0  502    0 -0.00000000000E+00 -0.00000000000E+00 -0.21380684067E+01  0.21380684067E+01  0.00000000000E+00 0. -1.
         24    2    1    2    0    0  0.20796032634E+02  0.15078073131E+01  0.10736759431E+04  0.10771577945E+04  0.83988898293E+02 0.  0.
        -11    1    3    3    0    0  0.36757966720E+02  0.45106018018E+01  0.10282298283E+04  0.10288965319E+04  0.00000000000E+00 0.  1.
         12    1    3    3    0    0 -0.15961934085E+02 -0.30027944887E+01  0.45446114839E+02  0.48261262607E+02  0.00000000000E+00 0. -1.
          1    1    1    2  501    0 -0.20796032634E+02 -0.15078073131E+01  0.27327555547E+03  0.27406984086E+03  0.00000000000E+00 0. -1.
<mgrwt>
<rscale>  1 0.86538335E+02</rscale>
<asrwt>0</asrwt>
<pdfrwt beam="1">  1       21 0.20755156E+00 0.86538335E+02</pdfrwt>
<pdfrwt beam="2">  1        2 0.32893468E-03 0.86538335E+02</pdfrwt>
<totfact> 0.96791558E+04</totfact>
</mgrwt>
</event>
<event>
 6    2  0.8544106E+000  0.9951694E+02  0.7546771E-02  0.1281315E+00
          2   -1    0    0  502    0 -0.00000000000E+00  0.00000000000E+00  0.33915000275E+03  0.33915000275E+03  0.00000000000E+00 0. -1.
         21   -1    0    0  501  502  0.00000000000E+00 -0.00000000000E+00 -0.26713644101E+02  0.26713644101E+02  0.00000000000E+00 0. -1.
         24    2    1    2    0    0 -0.24816695514E+02  0.27626869582E+02  0.31329141418E+03  0.32871740318E+03  0.92328265730E+02 0.  0.
        -11    1    3    3    0    0  0.52330669886E+01  0.37267101800E+02  0.45380983599E+02  0.58954690560E+02  0.00000000000E+00 0.  1.
         12    1    3    3    0    0 -0.30049762503E+02 -0.96402322178E+01  0.26791043058E+03  0.26976271262E+03  0.00000000000E+00 0. -1.
          1    1    1    2  501    0  0.24816695514E+02 -0.27626869582E+02 -0.85505553172E+00  0.37146243674E+02  0.00000000000E+00 0. -1.
<mgrwt>
<rscale>  1 0.99516938E+02</rscale>
<asrwt>0</asrwt>
<pdfrwt beam="1">  1       21 0.41097917E-02 0.99516938E+02</pdfrwt>
<pdfrwt beam="2">  1        2 0.52176920E-01 0.99516938E+02</pdfrwt>
<totfact> 0.42704807E+05</totfact>
</mgrwt>
</event>
<event>
 6    2  0.8544106E+000  0.8613845E+02  0.7546771E-02  0.1312482E+00
         -3   -1    0    0    0  501 -0.00000000000E+00  0.00000000000E+00  0.59628285532E+02  0.59628285532E+02  0.00000000000E+00 0.  1.
         21   -1    0    0  501  502  0.00000000000E+00 -0.00000000000E+00 -0.67982581648E+02  0.67982581648E+02  0.00000000000E+00 0.  1.
         24    2    1    2    0    0  0.33927971978E+02  0.13393342862E+02  0.10106741367E+02  0.86729345431E+02  0.78034250315E+02 0.  0.
        -11    1    3    3    0    0  0.33120316600E+02  0.43905842603E+02  0.11451123086E+02  0.56176566345E+02  0.00000000000E+00 0.  1.
         12    1    3    3    0    0  0.80765537833E+00 -0.30512499741E+02 -0.13443817188E+01  0.30552779086E+02  0.00000000000E+00 0. -1.
         -4    1    1    2    0  502 -0.33927971978E+02 -0.13393342862E+02 -0.18461037483E+02  0.40881521749E+02  0.00000000000E+00 0.  1.
<mgrwt>
<rscale>  1 0.86138453E+02</rscale>
<asrwt>0</asrwt>
<pdfrwt beam="1">  1       21 0.10458859E-01 0.86138453E+02</pdfrwt>
<pdfrwt beam="2">  1       -3 0.91735824E-02 0.86138453E+02</pdfrwt>
<totfact> 0.28117681E+05</totfact>
</mgrwt>
</event>
<event>
 6    2  0.8544106E+000  0.9731931E+02  0.7546771E-02  0.1286036E+00
          4   -1    0    0  502    0 -0.00000000000E+00  0.00000000000E+00  0.19594264273E+03  0.19594264273E+03  0.00000000000E+00 0. -1.
         21   -1    0    0  501  502  0.00000000000E+00 -0.00000000000E+00 -0.48682072610E+02  0.48682072610E+02  0.00000000000E+00 0. -1.
         24    2    1    2    0    0 -0.28913483529E+02 -0.36376761728E+02  0.16767449763E+03  0.19387053562E+03  0.85509000126E+02 0.  0.
        -13    1    3    3    0    0 -0.22402350402E+02 -0.17032744556E+02  0.34158668468E+01  0.28348683161E+02  0.00000000000E+00 0.  1.
         14    1    3    3    0    0 -0.65111331275E+01 -0.19344017172E+02  0.16425863078E+03  0.16552185246E+03  0.00000000000E+00 0. -1.
          3    1    1    2  501    0  0.28913483529E+02  0.36376761728E+02 -0.20413927504E+02  0.50754179726E+02  0.00000000000E+00 0. -1.
<mgrwt>
<rscale>  1 0.97319307E+02</rscale>
<asrwt>0</asrwt>
<pdfrwt beam="1">  1       21 0.74895497E-02 0.97319307E+02</pdfrwt>
<pdfrwt beam="2">  1        4 0.30145022E-01 0.97319307E+02</pdfrwt>
<totfact> 0.54712226E+04</totfact>
</mgrwt>
</event>
<event>
 6    2  0.8544106E+000  0.8730280E+02  0.7546771E-02  0.1309518E+00
          2   -1    0    0  502    0 -0.00000000000E+00  0.00000000000E+00  0.67526621604E+03  0.67526621604E+03  0.00000000000E+00 0. -1.
         21   -1    0    0  501  502  0.00000000000E+00 -0.00000000000E+00 -0.85222565239E+02  0.85222565239E+02  0.00000000000E+00 0. -1.
         24    2    1    2    0    0  0.11207063301E+02  0.25957468597E+02  0.67000867020E+03  0.67567255186E+03  0.82597764784E+02 0.  0.
        -13    1    3    3    0    0 -0.82131320632E+01 -0.14538472603E+02  0.32086266609E+02  0.36171138064E+02  0.00000000000E+00 0.  1.
         14    1    3    3    0    0  0.19420195364E+02  0.40495941200E+02  0.63792240359E+03  0.63950141380E+03  0.00000000000E+00 0. -1.
          1    1    1    2  501    0 -0.11207063301E+02 -0.25957468597E+02 -0.79965019405E+02  0.84816229415E+02  0.00000000000E+00 0. -1.
<mgrwt>
<rscale>  1 0.87302802E+02</rscale>
<asrwt>0</asrwt>
<pdfrwt beam="1">  1       21 0.13111164E-01 0.87302802E+02</pdfrwt>
<pdfrwt beam="2">  1        2 0.10388711E+00 0.87302802E+02</pdfrwt>
<totfact> 0.27939462E+04</totfact>
</mgrwt>
</event>
<event>
 6    2  0.8544106E+000  0.8598490E+02  0.7546771E-02  0.1312877E+00
         21   -1    0    0  501  502  0.00000000000E+00  0.00000000000E+00  0.18511133633E+02  0.18511133633E+02  0.00000000000E+00 0. -1.
          2   -1    0    0  502    0 -0.00000000000E+00 -0.00000000000E+00 -0.28287443007E+03  0.28287443007E+03  0.00000000000E+00 0. -1.
         24    2    1    2    0    0  0.25105276042E+02 -0.16560242647E+02 -0.25616812169E+03  0.27021382313E+03  0.80553628820E+02 0.  0.
        -11    1    3    3    0    0  0.11040409498E+02  0.15812019004E+02 -0.10373521781E+02  0.21897957462E+02  0.00000000000E+00 0.  1.
         12    1    3    3    0    0  0.14064866544E+02 -0.32372261651E+02 -0.24579459991E+03  0.24831586567E+03  0.00000000000E+00 0. -1.
          1    1    1    2  501    0 -0.25105276042E+02  0.16560242647E+02 -0.81951747494E+01  0.31171740581E+02  0.00000000000E+00 0. -1.
<mgrwt>
<rscale>  1 0.85984904E+02</rscale>
<asrwt>0</asrwt>
<pdfrwt beam="1">  1       21 0.28478665E-02 0.85984904E+02</pdfrwt>
<pdfrwt beam="2">  1        2 0.43519146E-01 0.85984904E+02</pdfrwt>
<totfact> 0.92858871E+05</totfact>
</mgrwt>
</event>
<event>
 6    2  0.8544106E+000  0.8464992E+02  0.7546771E-02  0.1316351E+00
          2   -1    0    0  502    0 -0.00000000000E+00  0.00000000000E+00  0.35783343179E+03  0.35783343179E+03  0.00000000000E+00 0. -1.
         21   -1    0    0  501  502  0.00000000000E+00 -0.00000000000E+00 -0.15104310022E+02  0.15104310022E+02  0.00000000000E+00 0. -1.
         24    2    1    2    0    0  0.19899747455E+02  0.77686711148E+01  0.34117426454E+03  0.35151883006E+03  0.81910053748E+02 0.  0.
        -13    1    3    3    0    0 -0.16405298951E+02  0.25979068071E+02  0.59833571482E+02  0.67261445776E+02  0.00000000000E+00 0.  1.
         14    1    3    3    0    0  0.36305046406E+02 -0.18210396956E+02  0.28134069306E+03  0.28425738429E+03  0.00000000000E+00 0. -1.
          1    1    1    2  501    0 -0.19899747455E+02 -0.77686711148E+01  0.15548572321E+01  0.21418911753E+02  0.00000000000E+00 0. -1.
<mgrwt>
<rscale>  1 0.84649921E+02</rscale>
<asrwt>0</asrwt>
<pdfrwt beam="1">  1       21 0.23237403E-02 0.84649921E+02</pdfrwt>
<pdfrwt beam="2">  1        2 0.55051291E-01 0.84649921E+02</pdfrwt>
<totfact> 0.10071674E+06</totfact>
</mgrwt>
</event>
<event>
 6    2  0.8544106E+000  0.8496928E+02  0.7546771E-02  0.1315513E+00
          2   -1    0    0  502    0 -0.00000000000E+00  0.00000000000E+00  0.16196570775E+04  0.16196570775E+04  0.00000000000E+00 0. -1.
         21   -1    0    0  501  502  0.00000000000E+00 -0.00000000000E+00 -0.24529878788E+01  0.24529878788E+01  0.00000000000E+00 0.  1.
         24    2    1    2    0    0  0.28890606967E+02 -0.73802005118E+00  0.82176952525E+03  0.82615067066E+03  0.79903480263E+02 0.  0.
        -13    1    3    3    0    0  0.23963219000E+02  0.14441352710E+01  0.63880809833E+02  0.68242796370E+02  0.00000000000E+00 0.  1.
         14    1    3    3    0    0  0.49273879666E+01 -0.21821553222E+01  0.75788871541E+03  0.75790787429E+03  0.00000000000E+00 0. -1.
          1    1    1    2  501    0 -0.28890606967E+02  0.73802005118E+00  0.79543456439E+03  0.79595939474E+03  0.00000000000E+00 0. -1.
<mgrwt>
<rscale>  1 0.84969277E+02</rscale>
<asrwt>0</asrwt>
<pdfrwt beam="1">  1       21 0.37738405E-03 0.84969277E+02</pdfrwt>
<pdfrwt beam="2">  1        2 0.24917716E+00 0.84969277E+02</pdfrwt>
<totfact> 0.24850198E+06</totfact>
</mgrwt>
</event>
<event>
 6    2  0.8544106E+000  0.7060984E+02  0.7546771E-02  0.1358031E+00
         21   -1    0    0  501  502  0.00000000000E+00  0.00000000000E+00  0.27250353263E+02  0.27250353263E+02  0.00000000000E+00 0.  1.
          2   -1    0    0  502    0 -0.00000000000E+00 -0.00000000000E+00 -0.91758937464E+02  0.91758937464E+02  0.00000000000E+00 0. -1.
         24    2    1    2    0    0  0.47463565923E+01  0.28427066373E+02 -0.39845803500E+02  0.81076735377E+02  0.64460243246E+02 0.  0.
        -11    1    3    3    0    0  0.28427602771E+02  0.34967325848E+02 -0.32057702354E+02  0.55304057323E+02  0.00000000000E+00 0.  1.
         12    1    3    3    0    0 -0.23681246178E+02 -0.65402594752E+01 -0.77881011465E+01  0.25772678053E+02  0.00000000000E+00 0. -1.
          1    1    1    2  501    0 -0.47463565923E+01 -0.28427066373E+02 -0.24662780702E+02  0.37932555350E+02  0.00000000000E+00 0. -1.
<mgrwt>
<rscale>  1 0.70609836E+02</rscale>
<asrwt>0</asrwt>
<pdfrwt beam="1">  1       21 0.41923620E-02 0.70609836E+02</pdfrwt>
<pdfrwt beam="2">  1        2 0.14116760E-01 0.70609836E+02</pdfrwt>
<totfact> 0.16463630E+06</totfact>
</mgrwt>
</event>
<event>
 6    2  0.8544106E+000  0.9140259E+02  0.7546771E-02  0.1299490E+00
         21   -1    0    0  501  502  0.00000000000E+00  0.00000000000E+00  0.69288103678E+01  0.69288103678E+01  0.00000000000E+00 0.  1.
          2   -1    0    0  502    0 -0.00000000000E+00 -0.00000000000E+00 -0.67879400001E+03  0.67879400001E+03  0.00000000000E+00 0. -1.
         24    2    1    2    0    0 -0.27315303442E+02 -0.26033710911E+02 -0.35335502239E+03  0.36498521272E+03  0.83249947464E+02 0.  0.
        -11    1    3    3    0    0  0.26312243170E+02 -0.27038112186E+02 -0.14077430837E+03  0.14574223667E+03  0.00000000000E+00 0.  1.
         12    1    3    3    0    0 -0.53627546612E+02  0.10044012756E+01 -0.21258071402E+03  0.21924297605E+03  0.00000000000E+00 0. -1.
          1    1    1    2  501    0  0.27315303442E+02  0.26033710911E+02 -0.31851016725E+03  0.32073759765E+03  0.00000000000E+00 0. -1.
<mgrwt>
<rscale>  1 0.91402591E+02</rscale>
<asrwt>0</asrwt>
<pdfrwt beam="1">  1       21 0.10659707E-02 0.91402591E+02</pdfrwt>
<pdfrwt beam="2">  1        2 0.10442986E+00 0.91402591E+02</pdfrwt>
<totfact> 0.17445956E+06</totfact>
</mgrwt>
</event>
<event>
 6    2  0.8544106E+000  0.9399594E+02  0.7546771E-02  0.1293454E+00
         21   -1    0    0  501  502  0.00000000000E+00  0.00000000000E+00  0.12680395761E+02  0.12680395761E+02  0.00000000000E+00 0. -1.
          2   -1    0    0  502    0 -0.00000000000E+00 -0.00000000000E+00 -0.70191613141E+03  0.70191613141E+03  0.00000000000E+00 0. -1.
         24    2    1    2    0    0 -0.38637348361E+02 -0.29052182809E+02 -0.63510213519E+03  0.64202021759E+03  0.80612428627E+02 0.  0.
        -13    1    3    3    0    0 -0.46160162621E+00  0.25312419229E+02 -0.11920208593E+03  0.12186085891E+03  0.00000000000E+00 0.  1.
         14    1    3    3    0    0 -0.38175746735E+02 -0.54364602038E+02 -0.51590004926E+03  0.52015935868E+03  0.00000000000E+00 0. -1.
          1    1    1    2  501    0  0.38637348361E+02  0.29052182809E+02 -0.54133600452E+02  0.72576309580E+02  0.00000000000E+00 0. -1.
<mgrwt>
<rscale>  1 0.93995945E+02</rscale>
<asrwt>0</asrwt>
<pdfrwt beam="1">  1       21 0.19508293E-02 0.93995945E+02</pdfrwt>
<pdfrwt beam="2">  1        2 0.10798714E+00 0.93995945E+02</pdfrwt>
<totfact> 0.64631180E+05</totfact>
</mgrwt>
</event>
<event>
 6    2  0.8544106E+000  0.8665771E+02  0.7546771E-02  0.1311153E+00
          2   -1    0    0  502    0 -0.00000000000E+00  0.00000000000E+00  0.12566522027E+04  0.12566522027E+04  0.00000000000E+00 0. -1.
         21   -1    0    0  501  502  0.00000000000E+00 -0.00000000000E+00 -0.62410904147E+01  0.62410904147E+01  0.00000000000E+00 0. -1.
         24    2    1    2    0    0  0.27766493519E+02  0.13759763380E+02  0.12038355554E+04  0.12069505389E+04  0.80927434352E+02 0.  0.
        -13    1    3    3    0    0  0.42243607224E+00 -0.26446583513E+01 -0.14521304748E-01  0.26782234594E+01  0.00000000000E+00 0.  1.
         14    1    3    3    0    0  0.27344057447E+02  0.16404421731E+02  0.12038500768E+04  0.12042723155E+04  0.00000000000E+00 0. -1.
          1    1    1    2  501    0 -0.27766493519E+02 -0.13759763380E+02  0.46575556859E+02  0.55942754199E+02  0.00000000000E+00 0. -1.
<mgrwt>
<rscale>  1 0.86657711E+02</rscale>
<asrwt>0</asrwt>
<pdfrwt beam="1">  1       21 0.96016875E-03 0.86657711E+02</pdfrwt>
<pdfrwt beam="2">  1        2 0.19333091E+00 0.86657711E+02</pdfrwt>
<totfact> 0.91006669E+05</totfact>
</mgrwt>
</event>
<event>
 6    2  0.8544106E+000  0.9403177E+02  0.7546771E-02  0.1293372E+00
         21   -1    0    0  501  502  0.00000000000E+00  0.00000000000E+00  0.93664647662E+02  0.93664647662E+02  0.00000000000E+00 0. -1.
          2   -1    0    0  502    0 -0.00000000000E+00 -0.00000000000E+00 -0.65167886433E+02  0.65167886433E+02  0.00000000000E+00 0. -1.
         24    2    1    2    0    0 -0.45718228586E+02 -0.69988602169E+01 -0.15143209850E+02  0.95243324749E+02  0.81870835072E+02 0.  0.
        -13    1    3    3    0    0  0.20730986415E+02  0.10243773078E+02 -0.13070563916E+02  0.26562159658E+02  0.00000000000E+00 0.  1.
         14    1    3    3    0    0 -0.66449215001E+02 -0.17242633295E+02 -0.20726459333E+01  0.68681165091E+02  0.00000000000E+00 0. -1.
          1    1    1    2  501    0  0.45718228586E+02  0.69988602169E+01  0.43639971079E+02  0.63589209345E+02  0.00000000000E+00 0. -1.
<mgrwt>
<rscale>  1 0.94031772E+02</rscale>
<asrwt>0</asrwt>
<pdfrwt beam="1">  1       21 0.14409946E-01 0.94031772E+02</pdfrwt>
<pdfrwt beam="2">  1        2 0.10025829E-01 0.94031772E+02</pdfrwt>
<totfact> 0.31089454E+05</totfact>
</mgrwt>
</event>
<event>
 6    2  0.8544106E+000  0.8073560E+02  0.7546771E-02  0.1326977E+00
          2   -1    0    0  502    0 -0.00000000000E+00  0.00000000000E+00  0.27045516609E+04  0.27045516609E+04  0.00000000000E+00 0. -1.
         21   -1    0    0  501  502  0.00000000000E+00 -0.00000000000E+00 -0.10237765804E+01  0.10237765804E+01  0.00000000000E+00 0.  1.
         24    2    1    2    0    0 -0.18466122711E+02 -0.12590176859E+02  0.18597770213E+04  0.18615286206E+04  0.77580449293E+02 0.  0.
        -11    1    3    3    0    0 -0.50193593247E+01 -0.78262718188E+01  0.24634456003E+02  0.26330608067E+02  0.00000000000E+00 0.  1.
         12    1    3    3    0    0 -0.13446763386E+02 -0.47639050407E+01  0.18351425653E+04  0.18351980125E+04  0.00000000000E+00 0. -1.
          1    1    1    2  501    0  0.18466122711E+02  0.12590176859E+02  0.84375086301E+03  0.84404681688E+03  0.00000000000E+00 0. -1.
<mgrwt>
<rscale>  1 0.80735595E+02</rscale>
<asrwt>0</asrwt>
<pdfrwt beam="1">  1       21 0.15750625E-03 0.80735595E+02</pdfrwt>
<pdfrwt beam="2">  1        2 0.41607915E+00 0.80735595E+02</pdfrwt>
<totfact> 0.25738525E+06</totfact>
</mgrwt>
</event>
<event>
 6    2  0.8544106E+000  0.8572578E+02  0.7546771E-02  0.1313545E+00
          2   -1    0    0  502    0 -0.00000000000E+00  0.00000000000E+00  0.78793836944E+03  0.78793836944E+03  0.00000000000E+00 0. -1.
         21   -1    0    0  501  502  0.00000000000E+00 -0.00000000000E+00 -0.42423422133E+02  0.42423422133E+02  0.00000000000E+00 0. -1.
         24    2    1    2    0    0 -0.24295571953E+02 -0.15468643450E+02  0.78041642810E+03  0.78511063570E+03  0.80742524687E+02 0.  0.
        -13    1    3    3    0    0  0.64844070251E+01  0.28744451424E+02  0.19403105541E+03  0.19625580625E+03  0.00000000000E+00 0.  1.
         14    1    3    3    0    0 -0.30779978978E+02 -0.44213094875E+02  0.58638537269E+03  0.58885482945E+03  0.00000000000E+00 0. -1.
          1    1    1    2  501    0  0.24295571953E+02  0.15468643450E+02 -0.34901480791E+02  0.45251155876E+02  0.00000000000E+00 0. -1.
<mgrwt>
<rscale>  1 0.85725778E+02</rscale>
<asrwt>0</asrwt>
<pdfrwt beam="1">  1       21 0.65266809E-02 0.85725778E+02</pdfrwt>
<pdfrwt beam="2">  1        2 0.12122128E+00 0.85725778E+02</pdfrwt>
<totfact> 0.77444399E+04</totfact>
</mgrwt>
</event>
<event>
 6    2  0.8544106E+000  0.1039571E+03  0.7546771E-02  0.1272188E+00
          2   -1    0    0  502    0 -0.00000000000E+00  0.00000000000E+00  0.10265036182E+04  0.10265036182E+04  0.00000000000E+00 0. -1.
         21   -1    0    0  501  502  0.00000000000E+00 -0.00000000000E+00 -0.11233128138E+02  0.11233128138E+02  0.00000000000E+00 0. -1.
         24    2    1    2    0    0 -0.16278187549E+02  0.63148716083E+02  0.89417873577E+03  0.90020146835E+03  0.80958831442E+02 0.  0.
        -11    1    3    3    0    0 -0.19590269896E+02 -0.45485237485E+00  0.51225125318E+02  0.54845227952E+02  0.00000000000E+00 0.  1.
         12    1    3    3    0    0  0.33120823471E+01  0.63603568458E+02  0.84295361045E+03  0.84535624040E+03  0.00000000000E+00 0. -1.
          1    1    1    2  501    0  0.16278187549E+02 -0.63148716083E+02  0.12109175428E+03  0.13753527798E+03  0.00000000000E+00 0. -1.
<mgrwt>
<rscale>  1 0.10395707E+03</rscale>
<asrwt>0</asrwt>
<pdfrwt beam="1">  1       21 0.17281744E-02 0.10395707E+03</pdfrwt>
<pdfrwt beam="2">  1        2 0.15792356E+00 0.10395707E+03</pdfrwt>
<totfact> 0.48884084E+05</totfact>
</mgrwt>
</event>
<event>
 6    2  0.8544106E+000  0.9447587E+02  0.7546771E-02  0.1292361E+00
         -3   -1    0    0    0  501 -0.00000000000E+00  0.00000000000E+00  0.31215827350E+02  0.31215827350E+02  0.00000000000E+00 0.  1.
         21   -1    0    0  501  502  0.00000000000E+00 -0.00000000000E+00 -0.31592217308E+03  0.31592217308E+03  0.00000000000E+00 0.  1.
         24    2    1    2    0    0  0.14567181818E+02 -0.45732207358E+02 -0.48677937392E+02  0.10627902277E+03  0.81375988577E+02 0.  0.
        -13    1    3    3    0    0  0.36736679017E+02 -0.54077086551E+02 -0.18554115042E+02  0.67957119274E+02  0.00000000000E+00 0.  1.
         14    1    3    3    0    0 -0.22169497199E+02  0.83448791927E+01 -0.30123822350E+02  0.38321903499E+02  0.00000000000E+00 0. -1.
         -4    1    1    2    0  502 -0.14567181818E+02  0.45732207358E+02 -0.23602840834E+03  0.24085897766E+03  0.00000000000E+00 0.  1.
<mgrwt>
<rscale>  1 0.94475865E+02</rscale>
<asrwt>0</asrwt>
<pdfrwt beam="1">  1       21 0.48603411E-01 0.94475865E+02</pdfrwt>
<pdfrwt beam="2">  1       -3 0.48024350E-02 0.94475865E+02</pdfrwt>
<totfact> 0.45610154E+04</totfact>
</mgrwt>
</event>
<event>
 6    2  0.8544106E+000  0.8499570E+02  0.7546771E-02  0.1315444E+00
         -1   -1    0    0    0  501 -0.00000000000E+00  0.00000000000E+00  0.39706702760E+02  0.39706702760E+02  0.00000000000E+00 0.  1.
         21   -1    0    0  501  502  0.00000000000E+00 -0.00000000000E+00 -0.95230890453E+02  0.95230890453E+02  0.00000000000E+00 0.  1.
         24    2    1    2    0    0 -0.78408664379E+01 -0.26811182157E+02 -0.15921132470E+02  0.86473991839E+02  0.80274218341E+02 0.  0.
        -13    1    3    3    0    0 -0.11121199351E+02 -0.15379130899E+02  0.31942201235E+02  0.37155120265E+02  0.00000000000E+00 0.  1.
         14    1    3    3    0    0  0.32803329127E+01 -0.11432051257E+02 -0.47863333705E+02  0.49318871573E+02  0.00000000000E+00 0. -1.
         -2    1    1    2    0  502  0.78408664379E+01  0.26811182157E+02 -0.39603055223E+02  0.48463601374E+02  0.00000000000E+00 0.  1.
<mgrwt>
<rscale>  1 0.84995699E+02</rscale>
<asrwt>0</asrwt>
<pdfrwt beam="1">  1       21 0.14650906E-01 0.84995699E+02</pdfrwt>
<pdfrwt beam="2">  1       -1 0.61087235E-02 0.84995699E+02</pdfrwt>
<totfact> 0.43827714E+05</totfact>
</mgrwt>
</event>
<event>
 6    2  0.8676480E+000  0.9918794E+02  0.7546771E-02  0.1282013E+00
         21   -1    0    0  501  502  0.00000000000E+00  0.00000000000E+00  0.65032128924E+01  0.65032128924E+01  0.00000000000E+00 0.  1.
         -1   -1    0    0    0  501 -0.00000000000E+00 -0.00000000000E+00 -0.18153724015E+04  0.18153724015E+04  0.00000000000E+00 0.  1.
         24    2    1    2    0    0  0.27184577175E+02  0.52119275578E+02 -0.16413128662E+04  0.16443072014E+04  0.79892600514E+02 0.  0.
        -11    1    3    3    0    0  0.45209626980E+02  0.44250223088E+02 -0.15273564146E+04  0.15286659575E+04  0.00000000000E+00 0.  1.
         12    1    3    3    0    0 -0.18025049805E+02  0.78690524899E+01 -0.11395645166E+03  0.11564124386E+03  0.00000000000E+00 0. -1.
         -2    1    1    2    0  502 -0.27184577175E+02 -0.52119275578E+02 -0.16755632241E+03  0.17756841302E+03  0.00000000000E+00 0.  1.
<mgrwt>
<rscale>  1 0.99187942E+02</rscale>
<asrwt>0</asrwt>
<pdfrwt beam="1">  1       21 0.10004946E-02 0.99187942E+02</pdfrwt>
<pdfrwt beam="2">  1       -1 0.27928797E+00 0.99187942E+02</pdfrwt>
<totfact> 0.18760070E+04</totfact>
</mgrwt>
</event>
<event>
 6    2  0.8544106E+000  0.1031434E+03  0.7546771E-02  0.1273821E+00
         21   -1    0    0  501  502  0.00000000000E+00  0.00000000000E+00  0.27983919112E+03  0.27983919112E+03  0.00000000000E+00 0.  1.
          2   -1    0    0  502    0 -0.00000000000E+00 -0.00000000000E+00 -0.26857742313E+02  0.26857742313E+02  0.00000000000E+00 0. -1.
         24    2    1    2    0    0  0.14181683629E+02  0.61249200643E+02  0.19765999957E+03  0.22295299350E+03  0.81767824662E+02 0.  0.
        -11    1    3    3    0    0  0.19905312990E+02  0.75149541220E+02  0.19155268293E+03  0.20672712780E+03  0.00000000000E+00 0.  1.
         12    1    3    3    0    0 -0.57236293601E+01 -0.13900340578E+02  0.61073166461E+01  0.16225865704E+02  0.00000000000E+00 0. -1.
          1    1    1    2  501    0 -0.14181683629E+02 -0.61249200643E+02  0.55321449233E+02  0.83743939931E+02  0.00000000000E+00 0. -1.
<mgrwt>
<rscale>  1 0.10314340E+03</rscale>
<asrwt>0</asrwt>
<pdfrwt beam="1">  1       21 0.43052181E-01 0.10314340E+03</pdfrwt>
<pdfrwt beam="2">  1        2 0.41319605E-02 0.10314340E+03</pdfrwt>
<totfact> 0.12252595E+05</totfact>
</mgrwt>
</event>
<event>
 6    2  0.8544106E+000  0.8304494E+02  0.7546771E-02  0.1320626E+00
         -1   -1    0    0    0  501 -0.00000000000E+00  0.00000000000E+00  0.11581354307E+03  0.11581354307E+03  0.00000000000E+00 0.  1.
         21   -1    0    0  501  502  0.00000000000E+00 -0.00000000000E+00 -0.32358789503E+02  0.32358789503E+02  0.00000000000E+00 0.  1.
         24    2    1    2    0    0  0.38981386682E+01  0.32443364196E+02  0.80005458883E+02  0.11531407639E+03  0.76345893132E+02 0.  0.
        -13    1    3    3    0    0  0.36555076464E+02  0.48026428945E+00  0.27753232094E+02  0.45899304578E+02  0.00000000000E+00 0.  1.
         14    1    3    3    0    0 -0.32656937796E+02  0.31963099907E+02  0.52252226788E+02  0.69414771816E+02  0.00000000000E+00 0. -1.
         -2    1    1    2    0  502 -0.38981386682E+01 -0.32443364196E+02  0.34492946869E+01  0.32858256181E+02  0.00000000000E+00 0.  1.
<mgrwt>
<rscale>  1 0.83044944E+02</rscale>
<asrwt>0</asrwt>
<pdfrwt beam="1">  1       21 0.49782754E-02 0.83044944E+02</pdfrwt>
<pdfrwt beam="2">  1       -1 0.17817468E-01 0.83044944E+02</pdfrwt>
<totfact> 0.55040045E+05</totfact>
</mgrwt>
</event>
<event>
 6    2  0.8544106E+000  0.8618319E+02  0.7546771E-02  0.1312367E+00
         21   -1    0    0  501  502  0.00000000000E+00  0.00000000000E+00  0.36273585502E+02  0.36273585502E+02  0.00000000000E+00 0. -1.
          2   -1    0    0  502    0 -0.00000000000E+00 -0.00000000000E+00 -0.13086122802E+03  0.13086122802E+03  0.00000000000E+00 0. -1.
         24    2    1    2    0    0 -0.20777880276E+02 -0.77979271428E+01 -0.11027475950E+03  0.13995736669E+03  0.83276731043E+02 0.  0.
        -11    1    3    3    0    0  0.17842586606E+02  0.13117168062E+02 -0.97889016276E+00  0.22167007482E+02  0.00000000000E+00 0.  1.
         12    1    3    3    0    0 -0.38620466882E+02 -0.20915095205E+02 -0.10929586934E+03  0.11779035921E+03  0.00000000000E+00 0. -1.
          1    1    1    2  501    0  0.20777880276E+02  0.77979271428E+01  0.15687116984E+02  0.27177446822E+02  0.00000000000E+00 0. -1.
<mgrwt>
<rscale>  1 0.86183188E+02</rscale>
<asrwt>0</asrwt>
<pdfrwt beam="1">  1       21 0.55805518E-02 0.86183188E+02</pdfrwt>
<pdfrwt beam="2">  1        2 0.20132496E-01 0.86183188E+02</pdfrwt>
<totfact> 0.70210544E+05</totfact>
</mgrwt>
</event>
<event>
 6    2  0.8544106E+000  0.9078704E+02  0.7546771E-02  0.1300957E+00
         21   -1    0    0  501  502  0.00000000000E+00  0.00000000000E+00  0.15132816148E+01  0.15132816148E+01  0.00000000000E+00 0.  1.
          2   -1    0    0  502    0 -0.00000000000E+00 -0.00000000000E+00 -0.29143812873E+04  0.29143812873E+04  0.00000000000E+00 0. -1.
         24    2    1    2    0    0  0.18398890256E+02 -0.36357126784E+02 -0.18124027946E+04  0.18146752262E+04  0.81129076743E+02 0.  0.
        -11    1    3    3    0    0 -0.23577482061E+02 -0.32492657631E+02 -0.50506265641E+03  0.50665565955E+03  0.00000000000E+00 0.  1.
         12    1    3    3    0    0  0.41976372317E+02 -0.38644691526E+01 -0.13073401382E+04  0.13080195667E+04  0.00000000000E+00 0. -1.
          1    1    1    2  501    0 -0.18398890256E+02  0.36357126784E+02 -0.11004652111E+04  0.11012193427E+04  0.00000000000E+00 0. -1.
<mgrwt>
<rscale>  1 0.90787042E+02</rscale>
<asrwt>0</asrwt>
<pdfrwt beam="1">  1       21 0.23281127E-03 0.90787042E+02</pdfrwt>
<pdfrwt beam="2">  1        2 0.44836883E+00 0.90787042E+02</pdfrwt>
<totfact> 0.11059404E+06</totfact>
</mgrwt>
</event>
<event>
 6    2  0.8544106E+000  0.8640517E+02  0.7546771E-02  0.1311798E+00
         -1   -1    0    0    0  501 -0.00000000000E+00  0.00000000000E+00  0.90805249544E+02  0.90805249544E+02  0.00000000000E+00 0.  1.
         21   -1    0    0  501  502  0.00000000000E+00 -0.00000000000E+00 -0.18429214240E+03  0.18429214240E+03  0.00000000000E+00 0.  1.
         24    2    1    2    0    0 -0.24748600912E+02  0.15285014814E+02  0.68659235594E+02  0.11036278145E+03  0.81361710720E+02 0.  0.
        -11    1    3    3    0    0 -0.68839646974E+01 -0.24087311337E+02  0.61672258799E+02  0.66566170408E+02  0.00000000000E+00 0.  1.
         12    1    3    3    0    0 -0.17864636215E+02  0.39372326151E+02  0.69869767943E+01  0.43796611038E+02  0.00000000000E+00 0. -1.
         -2    1    1    2    0  502  0.24748600912E+02 -0.15285014814E+02 -0.16214612845E+03  0.16473461050E+03  0.00000000000E+00 0.  1.
<mgrwt>
<rscale>  1 0.86405167E+02</rscale>
<asrwt>0</asrwt>
<pdfrwt beam="1">  1       21 0.28352637E-01 0.86405167E+02</pdfrwt>
<pdfrwt beam="2">  1       -1 0.13970038E-01 0.86405167E+02</pdfrwt>
<totfact> 0.37756865E+04</totfact>
</mgrwt>
</event>
<event>
 6    2  0.8544106E+000  0.9129714E+02  0.7546771E-02  0.1299741E+00
          2   -1    0    0  502    0 -0.00000000000E+00  0.00000000000E+00  0.88730730533E+03  0.88730730533E+03  0.00000000000E+00 0. -1.
         21   -1    0    0  501  502  0.00000000000E+00 -0.00000000000E+00 -0.73803074328E+01  0.73803074328E+01  0.00000000000E+00 0. -1.
         24    2    1    2    0    0 -0.21379090709E+02  0.40599790348E+02  0.77243776649E+03  0.77781441924E+03  0.78928823507E+02 0.  0.
        -11    1    3    3    0    0  0.22275892470E+02 -0.10042724374E+02  0.20523497485E+03  0.20668446144E+03  0.00000000000E+00 0.  1.
         12    1    3    3    0    0 -0.43654983179E+02  0.50642514722E+02  0.56720279164E+03  0.57112995780E+03  0.00000000000E+00 0. -1.
          1    1    1    2  501    0  0.21379090709E+02 -0.40599790348E+02  0.10748923140E+03  0.11687319352E+03  0.00000000000E+00 0. -1.
<mgrwt>
<rscale>  1 0.91297139E+02</rscale>
<asrwt>0</asrwt>
<pdfrwt beam="1">  1       21 0.11354326E-02 0.91297139E+02</pdfrwt>
<pdfrwt beam="2">  1        2 0.13650873E+00 0.91297139E+02</pdfrwt>
<totfact> 0.11424137E+06</totfact>
</mgrwt>
</event>
<event>
 6    2  0.8544106E+000  0.9771642E+02  0.7546771E-02  0.1285173E+00
         21   -1    0    0  501  502  0.00000000000E+00  0.00000000000E+00  0.10179334287E+02  0.10179334287E+02  0.00000000000E+00 0.  1.
          4   -1    0    0  502    0 -0.00000000000E+00 -0.00000000000E+00 -0.59691455621E+03  0.59691455621E+03  0.00000000000E+00 0. -1.
         24    2    1    2    0    0 -0.42701559363E+02 -0.35382022720E+02 -0.31708164862E+03  0.33179703200E+03  0.80456123746E+02 0.  0.
        -11    1    3    3    0    0 -0.89110070551E+01 -0.84226016428E+01 -0.49367208245E+00  0.12271510799E+02  0.00000000000E+00 0.  1.
         12    1    3    3    0    0 -0.33790552308E+02 -0.26959421077E+02 -0.31658797654E+03  0.31952552120E+03  0.00000000000E+00 0. -1.
          3    1    1    2  501    0  0.42701559363E+02  0.35382022720E+02 -0.26965357331E+03  0.27529685850E+03  0.00000000000E+00 0. -1.
<mgrwt>
<rscale>  1 0.97716419E+02</rscale>
<asrwt>0</asrwt>
<pdfrwt beam="1">  1       21 0.15660510E-02 0.97716419E+02</pdfrwt>
<pdfrwt beam="2">  1        4 0.91833036E-01 0.97716419E+02</pdfrwt>
<totfact> 0.72962897E+04</totfact>
</mgrwt>
</event>
<event>
 6    2  0.8544106E+000  0.1003959E+03  0.7546771E-02  0.1279466E+00
          2   -1    0    0  502    0 -0.00000000000E+00  0.00000000000E+00  0.21531660023E+03  0.21531660023E+03  0.00000000000E+00 0. -1.
         21   -1    0    0  501  502  0.00000000000E+00 -0.00000000000E+00 -0.40141920164E+02  0.40141920164E+02  0.00000000000E+00 0.  1.
         24    2    1    2    0    0  0.50060821835E+02 -0.27362129104E+02  0.38801973316E+02  0.10763332925E+03  0.82610946245E+02 0.  0.
        -11    1    3    3    0    0  0.27687240570E+02 -0.44855109238E+02 -0.75726991636E+01  0.53253261757E+02  0.00000000000E+00 0.  1.
         12    1    3    3    0    0  0.22373581265E+02  0.17492980133E+02  0.46374672479E+02  0.54380067489E+02  0.00000000000E+00 0. -1.
          1    1    1    2  501    0 -0.50060821835E+02  0.27362129104E+02  0.13637270675E+03  0.14782519115E+03  0.00000000000E+00 0. -1.
<mgrwt>
<rscale>  1 0.10039592E+03</rscale>
<asrwt>0</asrwt>
<pdfrwt beam="1">  1       21 0.61756801E-02 0.10039592E+03</pdfrwt>
<pdfrwt beam="2">  1        2 0.33125630E-01 0.10039592E+03</pdfrwt>
<totfact> 0.34931337E+05</totfact>
</mgrwt>
</event>
<event>
 6    2  0.8544106E+000  0.1098107E+03  0.7546771E-02  0.1260921E+00
          2   -1    0    0  502    0 -0.00000000000E+00  0.00000000000E+00  0.16385996762E+03  0.16385996762E+03  0.00000000000E+00 0. -1.
         21   -1    0    0  501  502  0.00000000000E+00 -0.00000000000E+00 -0.15735752715E+03  0.15735752715E+03  0.00000000000E+00 0. -1.
         24    2    1    2    0    0 -0.71098068798E+02  0.17629343574E+02  0.13456579521E+03  0.17368461041E+03  0.81808688498E+02 0.  0.
        -11    1    3    3    0    0 -0.62604565205E+01  0.60492322710E+01 -0.10931258342E+02  0.13974223981E+02  0.00000000000E+00 0.  1.
         12    1    3    3    0    0 -0.64837612278E+02  0.11580111303E+02  0.14549705355E+03  0.15971038643E+03  0.00000000000E+00 0. -1.
          1    1    1    2  501    0  0.71098068798E+02 -0.17629343574E+02 -0.12806335474E+03  0.14753288436E+03  0.00000000000E+00 0. -1.
<mgrwt>
<rscale>  1 0.10981070E+03</rscale>
<asrwt>0</asrwt>
<pdfrwt beam="1">  1       21 0.24208850E-01 0.10981070E+03</pdfrwt>
<pdfrwt beam="2">  1        2 0.25209226E-01 0.10981070E+03</pdfrwt>
<totfact> 0.41947360E+04</totfact>
</mgrwt>
</event>
<event>
 6    2  0.8544106E+000  0.8429811E+02  0.7546771E-02  0.1317278E+00
         21   -1    0    0  501  502  0.00000000000E+00  0.00000000000E+00  0.11204430702E+02  0.11204430702E+02  0.00000000000E+00 0. -1.
         -3   -1    0    0    0  501 -0.00000000000E+00 -0.00000000000E+00 -0.33364066845E+03  0.33364066845E+03  0.00000000000E+00 0.  1.
         24    2    1    2    0    0  0.11424130926E+02  0.19260610003E+02 -0.30508159978E+03  0.31651375037E+03  0.81269242526E+02 0.  0.
        -13    1    3    3    0    0  0.45296457921E+02  0.11061095125E+01 -0.18301568302E+03  0.18854106399E+03  0.00000000000E+00 0.  1.
         14    1    3    3    0    0 -0.33872326995E+02  0.18154500490E+02 -0.12206591676E+03  0.12797268638E+03  0.00000000000E+00 0. -1.
         -4    1    1    2    0  502 -0.11424130926E+02 -0.19260610003E+02 -0.17354637969E+02  0.28331348788E+02  0.00000000000E+00 0.  1.
<mgrwt>
<rscale>  1 0.84298112E+02</rscale>
<asrwt>0</asrwt>
<pdfrwt beam="1">  1       21 0.17237585E-02 0.84298112E+02</pdfrwt>
<pdfrwt beam="2">  1       -3 0.51329335E-01 0.84298112E+02</pdfrwt>
<totfact> 0.26051422E+05</totfact>
</mgrwt>
</event>
<event>
 6    2  0.8544106E+000  0.8464202E+02  0.7546771E-02  0.1316371E+00
         21   -1    0    0  501  502  0.00000000000E+00  0.00000000000E+00  0.11222830559E+02  0.11222830559E+02  0.00000000000E+00 0.  1.
          2   -1    0    0  502    0 -0.00000000000E+00 -0.00000000000E+00 -0.31203948954E+03  0.31203948954E+03  0.00000000000E+00 0. -1.
         24    2    1    2    0    0 -0.23569058835E+01  0.26833561580E+02 -0.17247966185E+03  0.19212887713E+03  0.80241364911E+02 0.  0.
        -13    1    3    3    0    0 -0.40651465930E+02  0.75168941152E+01 -0.75216966838E+02  0.85829117901E+02  0.00000000000E+00 0.  1.
         14    1    3    3    0    0  0.38294560046E+02  0.19316667464E+02 -0.97262695015E+02  0.10629975923E+03  0.00000000000E+00 0. -1.
          1    1    1    2  501    0  0.23569058835E+01 -0.26833561580E+02 -0.12833699712E+03  0.13113344296E+03  0.00000000000E+00 0. -1.
<mgrwt>
<rscale>  1 0.84642021E+02</rscale>
<asrwt>0</asrwt>
<pdfrwt beam="1">  1       21 0.17265896E-02 0.84642021E+02</pdfrwt>
<pdfrwt beam="2">  1        2 0.48006069E-01 0.84642021E+02</pdfrwt>
<totfact> 0.18671787E+06</totfact>
</mgrwt>
</event>
<event>
 6    2  0.8544106E+000  0.1339147E+03  0.7546771E-02  0.1221760E+00
         21   -1    0    0  501  502  0.00000000000E+00  0.00000000000E+00  0.23967091885E+02  0.23967091885E+02  0.00000000000E+00 0. -1.
          2   -1    0    0  502    0 -0.00000000000E+00 -0.00000000000E+00 -0.72311749130E+03  0.72311749130E+03  0.00000000000E+00 0. -1.
         24    2    1    2    0    0  0.94229602503E+02  0.48578341521E+02 -0.53630347045E+03  0.55276990148E+03  0.81817347260E+02 0.  0.
        -11    1    3    3    0    0  0.32969531969E+02 -0.17658460735E+02 -0.90418054634E+02  0.97848024393E+02  0.00000000000E+00 0.  1.
         12    1    3    3    0    0  0.61260070533E+02  0.66236802256E+02 -0.44588541582E+03  0.45492187709E+03  0.00000000000E+00 0. -1.
          1    1    1    2  501    0 -0.94229602503E+02 -0.48578341521E+02 -0.16284692896E+03  0.19431468170E+03  0.00000000000E+00 0. -1.
<mgrwt>
<rscale>  1 0.13391472E+03</rscale>
<asrwt>0</asrwt>
<pdfrwt beam="1">  1       21 0.36872454E-02 0.13391472E+03</pdfrwt>
<pdfrwt beam="2">  1        2 0.11124883E+00 0.13391472E+03</pdfrwt>
<totfact> 0.22589374E+05</totfact>
</mgrwt>
</event>
<event>
 6    2  0.8544106E+000  0.8700627E+02  0.7546771E-02  0.1310268E+00
         21   -1    0    0  501  502  0.00000000000E+00  0.00000000000E+00  0.51254310820E+01  0.51254310820E+01  0.00000000000E+00 0. -1.
          2   -1    0    0  502    0 -0.00000000000E+00 -0.00000000000E+00 -0.25747541973E+04  0.25747541973E+04  0.00000000000E+00 0. -1.
         24    2    1    2    0    0  0.14090363880E+02 -0.29581503610E+02 -0.25126166363E+04  0.25141226009E+04  0.80600790557E+02 0.  0.
        -13    1    3    3    0    0 -0.31704126900E+02 -0.19799301985E+02 -0.80979554451E+03  0.81065775018E+03  0.00000000000E+00 0.  1.
         14    1    3    3    0    0  0.45794490781E+02 -0.97822016251E+01 -0.17028210918E+04  0.17034648507E+04  0.00000000000E+00 0. -1.
          1    1    1    2  501    0 -0.14090363880E+02  0.29581503610E+02 -0.57012129889E+02  0.65757027492E+02  0.00000000000E+00 0. -1.
<mgrwt>
<rscale>  1 0.87006271E+02</rscale>
<asrwt>0</asrwt>
<pdfrwt beam="1">  1       21 0.78852757E-03 0.87006271E+02</pdfrwt>
<pdfrwt beam="2">  1        2 0.39611617E+00 0.87006271E+02</pdfrwt>
<totfact> 0.26280898E+05</totfact>
</mgrwt>
</event>
<event>
 6    2  0.8544106E+000  0.8703905E+02  0.7546771E-02  0.1310185E+00
         21   -1    0    0  501  502  0.00000000000E+00  0.00000000000E+00  0.19701540273E+03  0.19701540273E+03  0.00000000000E+00 0. -1.
          2   -1    0    0  502    0 -0.00000000000E+00 -0.00000000000E+00 -0.29042712577E+02  0.29042712577E+02  0.00000000000E+00 0. -1.
         24    2    1    2    0    0  0.21888906076E+02 -0.24125608170E+02  0.43328310546E+02  0.97227255083E+02  0.80713242144E+02 0.  0.
        -13    1    3    3    0    0 -0.25767419365E+01  0.10490615139E+02  0.52715565681E+02  0.53810997669E+02  0.00000000000E+00 0.  1.
         14    1    3    3    0    0  0.24465648013E+02 -0.34616223309E+02 -0.93872551352E+01  0.43416257414E+02  0.00000000000E+00 0. -1.
          1    1    1    2  501    0 -0.21888906076E+02  0.24125608170E+02  0.12464437961E+03  0.12883086023E+03  0.00000000000E+00 0. -1.
<mgrwt>
<rscale>  1 0.87039052E+02</rscale>
<asrwt>0</asrwt>
<pdfrwt beam="1">  1       21 0.30310061E-01 0.87039052E+02</pdfrwt>
<pdfrwt beam="2">  1        2 0.44681097E-02 0.87039052E+02</pdfrwt>
<totfact> 0.21744268E+05</totfact>
</mgrwt>
</event>
<event>
 6    2  0.8544106E+000  0.8896793E+02  0.7546771E-02  0.1305370E+00
         21   -1    0    0  501  502  0.00000000000E+00  0.00000000000E+00  0.17608140579E+02  0.17608140579E+02  0.00000000000E+00 0. -1.
          2   -1    0    0  502    0 -0.00000000000E+00 -0.00000000000E+00 -0.14680352761E+04  0.14680352761E+04  0.00000000000E+00 0. -1.
         24    2    1    2    0    0  0.88662354336E+01 -0.37638567817E+02 -0.14436457099E+04  0.14463845368E+04  0.80125031010E+02 0.  0.
        -13    1    3    3    0    0  0.19681855799E+02  0.68722713908E+01 -0.11033374078E+03  0.11228596491E+03  0.00000000000E+00 0.  1.
         14    1    3    3    0    0 -0.10815620365E+02 -0.44510839207E+02 -0.13333119691E+04  0.13340985718E+04  0.00000000000E+00 0. -1.
          1    1    1    2  501    0 -0.88662354336E+01  0.37638567817E+02 -0.67814256260E+01  0.39258879907E+02  0.00000000000E+00 0. -1.
<mgrwt>
<rscale>  1 0.88967930E+02</rscale>
<asrwt>0</asrwt>
<pdfrwt beam="1">  1       21 0.27089461E-02 0.88967930E+02</pdfrwt>
<pdfrwt beam="2">  1        2 0.22585147E+00 0.88967930E+02</pdfrwt>
<totfact> 0.13625392E+05</totfact>
</mgrwt>
</event>
<event>
 6    2  0.8544106E+000  0.8495982E+02  0.7546771E-02  0.1315538E+00
         21   -1    0    0  501  502  0.00000000000E+00  0.00000000000E+00  0.72849156321E+01  0.72849156321E+01  0.00000000000E+00 0. -1.
          2   -1    0    0  502    0 -0.00000000000E+00 -0.00000000000E+00 -0.77992187309E+03  0.77992187309E+03  0.00000000000E+00 0. -1.
         24    2    1    2    0    0  0.10981310092E+01 -0.28239297390E+02 -0.73624275021E+03  0.74112857120E+03  0.80121832246E+02 0.  0.
        -13    1    3    3    0    0 -0.37960856606E+01  0.26630857037E+02 -0.34190663698E+03  0.34296320681E+03  0.00000000000E+00 0.  1.
         14    1    3    3    0    0  0.48942166697E+01 -0.54870154428E+02 -0.39433611323E+03  0.39816536439E+03  0.00000000000E+00 0. -1.
          1    1    1    2  501    0 -0.10981310092E+01  0.28239297390E+02 -0.36394207245E+02  0.46078217520E+02  0.00000000000E+00 0. -1.
<mgrwt>
<rscale>  1 0.84959825E+02</rscale>
<asrwt>0</asrwt>
<pdfrwt beam="1">  1       21 0.11207571E-02 0.84959825E+02</pdfrwt>
<pdfrwt beam="2">  1        2 0.11998789E+00 0.84959825E+02</pdfrwt>
<totfact> 0.13590888E+06</totfact>
</mgrwt>
</event>
<event>
 6    2  0.8544106E+000  0.1022340E+03  0.7546771E-02  0.1275667E+00
          2   -1    0    0  502    0 -0.00000000000E+00  0.00000000000E+00  0.30362458131E+04  0.30362458131E+04  0.00000000000E+00 0. -1.
         21   -1    0    0  501  502  0.00000000000E+00 -0.00000000000E+00 -0.24384622050E+01  0.24384622050E+01  0.00000000000E+00 0. -1.
         24    2    1    2    0    0  0.52160082679E+02  0.31232429423E+02  0.23351091528E+04  0.23373460467E+04  0.82192747195E+02 0.  0.
        -13    1    3    3    0    0  0.26101708223E+01 -0.26133359555E+02  0.54413699745E+03  0.54477044474E+03  0.00000000000E+00 0.  1.
         14    1    3    3    0    0  0.49549911857E+02  0.57365788977E+02  0.17909721553E+04  0.17925756019E+04  0.00000000000E+00 0. -1.
          1    1    1    2  501    0 -0.52160082679E+02 -0.31232429423E+02  0.69869819812E+03  0.70133822862E+03  0.00000000000E+00 0. -1.
<mgrwt>
<rscale>  1 0.10223398E+03</rscale>
<asrwt>0</asrwt>
<pdfrwt beam="1">  1       21 0.37515046E-03 0.10223398E+03</pdfrwt>
<pdfrwt beam="2">  1        2 0.46711171E+00 0.10223398E+03</pdfrwt>
<totfact> 0.45861723E+05</totfact>
</mgrwt>
</event>
<event>
 6    2  0.1929491E+001  0.6451498E+02  0.7546771E-02  0.1379805E+00
         21   -1    0    0  501  502  0.00000000000E+00  0.00000000000E+00  0.36895797413E+02  0.36895797413E+02  0.00000000000E+00 0. -1.
          2   -1    0    0  502    0 -0.00000000000E+00 -0.00000000000E+00 -0.49891372460E+02  0.49891372460E+02  0.00000000000E+00 0. -1.
         24    2    1    2    0    0 -0.18555819674E+02  0.79370807549E+01 -0.15772334380E+02  0.66414980813E+02  0.61276973244E+02 0.  0.
        -11    1    3    3    0    0  0.18484273259E+02  0.66701639252E+01  0.92275782446E+01  0.21709621023E+02  0.00000000000E+00 0.  1.
         12    1    3    3    0    0 -0.37040092933E+02  0.12669168297E+01 -0.24999912625E+02  0.44705359791E+02  0.00000000000E+00 0. -1.
          1    1    1    2  501    0  0.18555819674E+02 -0.79370807549E+01  0.27767593340E+01  0.20372189060E+02  0.00000000000E+00 0. -1.
<mgrwt>
<rscale>  1 0.64514984E+02</rscale>
<asrwt>0</asrwt>
<pdfrwt beam="1">  1       21 0.56762766E-02 0.64514984E+02</pdfrwt>
<pdfrwt beam="2">  1        2 0.76755957E-02 0.64514984E+02</pdfrwt>
<totfact> 0.20409595E+06</totfact>
</mgrwt>
</event>
<event>
 6    2  0.8544106E+000  0.8878682E+02  0.7546771E-02  0.1305816E+00
         21   -1    0    0  501  502  0.00000000000E+00  0.00000000000E+00  0.68121993007E+02  0.68121993007E+02  0.00000000000E+00 0. -1.
          2   -1    0    0  502    0 -0.00000000000E+00 -0.00000000000E+00 -0.70027145522E+02  0.70027145522E+02  0.00000000000E+00 0. -1.
         24    2    1    2    0    0  0.20146873061E+02 -0.36968653640E+02 -0.22038097757E+02  0.91481019538E+02  0.78169823697E+02 0.  0.
        -11    1    3    3    0    0  0.11871879504E+02  0.83420369126E+01  0.22913529229E+02  0.27121226457E+02  0.00000000000E+00 0.  1.
         12    1    3    3    0    0  0.82749935568E+01 -0.45310690553E+02 -0.44951626986E+02  0.64359793081E+02  0.00000000000E+00 0. -1.
          1    1    1    2  501    0 -0.20146873061E+02  0.36968653640E+02  0.20132945241E+02  0.46668118991E+02  0.00000000000E+00 0. -1.
<mgrwt>
<rscale>  1 0.88786819E+02</rscale>
<asrwt>0</asrwt>
<pdfrwt beam="1">  1       21 0.10480307E-01 0.88786819E+02</pdfrwt>
<pdfrwt beam="2">  1        2 0.10773407E-01 0.88786819E+02</pdfrwt>
<totfact> 0.49655832E+05</totfact>
</mgrwt>
</event>
<event>
 6    2  0.8544106E+000  0.8912480E+02  0.7546771E-02  0.1304985E+00
         21   -1    0    0  501  502  0.00000000000E+00  0.00000000000E+00  0.24163771266E+01  0.24163771266E+01  0.00000000000E+00 0. -1.
          2   -1    0    0  502    0 -0.00000000000E+00 -0.00000000000E+00 -0.18876164709E+04  0.18876164709E+04  0.00000000000E+00 0. -1.
         24    2    1    2    0    0 -0.64707492835E+01 -0.39148123365E+02 -0.15364465333E+04  0.15390292980E+04  0.79804663911E+02 0.  0.
        -11    1    3    3    0    0  0.29265552867E+02  0.73759518011E+01 -0.58113330695E+03  0.58191648688E+03  0.00000000000E+00 0.  1.
         12    1    3    3    0    0 -0.35736302150E+02 -0.46524075166E+02 -0.95531322634E+03  0.95711281116E+03  0.00000000000E+00 0. -1.
          1    1    1    2  501    0  0.64707492835E+01  0.39148123365E+02 -0.34875356052E+03  0.35100355003E+03  0.00000000000E+00 0. -1.
<mgrwt>
<rscale>  1 0.89124803E+02</rscale>
<asrwt>0</asrwt>
<pdfrwt beam="1">  1       21 0.37174922E-03 0.89124803E+02</pdfrwt>
<pdfrwt beam="2">  1        2 0.29040340E+00 0.89124803E+02</pdfrwt>
<totfact> 0.18728176E+06</totfact>
</mgrwt>
</event>
<event>
 6    2  0.8544106E+000  0.8417445E+02  0.7546771E-02  0.1317606E+00
         21   -1    0    0  501  502  0.00000000000E+00  0.00000000000E+00  0.20968672402E+02  0.20968672402E+02  0.00000000000E+00 0. -1.
          2   -1    0    0  502    0 -0.00000000000E+00 -0.00000000000E+00 -0.37904552632E+03  0.37904552632E+03  0.00000000000E+00 0. -1.
         24    2    1    2    0    0 -0.22021122748E+02  0.67616702751E+01 -0.36607619703E+03  0.37562896707E+03  0.80961032841E+02 0.  0.
        -13    1    3    3    0    0 -0.16730569086E+02 -0.12108288373E+02 -0.19196920370E+02  0.28196530655E+02  0.00000000000E+00 0.  1.
         14    1    3    3    0    0 -0.52905536618E+01  0.18869958649E+02 -0.34687927666E+03  0.34743243642E+03  0.00000000000E+00 0. -1.
          1    1    1    2  501    0  0.22021122748E+02 -0.67616702751E+01  0.79993431199E+01  0.24385231644E+02  0.00000000000E+00 0. -1.
<mgrwt>
<rscale>  1 0.84174455E+02</rscale>
<asrwt>0</asrwt>
<pdfrwt beam="1">  1       21 0.32259498E-02 0.84174455E+02</pdfrwt>
<pdfrwt beam="2">  1        2 0.58314693E-01 0.84174455E+02</pdfrwt>
<totfact> 0.55767635E+05</totfact>
</mgrwt>
</event>
<event>
 6    2  0.8544106E+000  0.1196677E+03  0.7546771E-02  0.1243646E+00
         21   -1    0    0  501  502  0.00000000000E+00  0.00000000000E+00  0.26386399361E+02  0.26386399361E+02  0.00000000000E+00 0. -1.
          2   -1    0    0  502    0 -0.00000000000E+00 -0.00000000000E+00 -0.36980756102E+03  0.36980756102E+03  0.00000000000E+00 0. -1.
         24    2    1    2    0    0  0.40018791652E+02 -0.44338258661E+02 -0.29808573159E+03  0.32120938806E+03  0.10369658979E+03 0.  0.
        -13    1    3    3    0    0  0.32219310837E+02 -0.19196917581E+01 -0.16331109459E+02  0.36172839858E+02  0.00000000000E+00 0.  1.
         14    1    3    3    0    0  0.77994808147E+01 -0.42418566903E+02 -0.28175462213E+03  0.28503654820E+03  0.00000000000E+00 0. -1.
          1    1    1    2  501    0 -0.40018791652E+02  0.44338258661E+02 -0.45335430071E+02  0.74984572321E+02  0.00000000000E+00 0. -1.
<mgrwt>
<rscale>  1 0.11966774E+03</rscale>
<asrwt>0</asrwt>
<pdfrwt beam="1">  1       21 0.40594459E-02 0.11966774E+03</pdfrwt>
<pdfrwt beam="2">  1        2 0.56893474E-01 0.11966774E+03</pdfrwt>
<totfact> 0.40305266E+05</totfact>
</mgrwt>
</event>
<event>
 6    2  0.8544106E+000  0.9525995E+02  0.7546771E-02  0.1290592E+00
          4   -1    0    0  502    0 -0.00000000000E+00  0.00000000000E+00  0.16960908061E+03  0.16960908061E+03  0.00000000000E+00 0. -1.
         21   -1    0    0  501  502  0.00000000000E+00 -0.00000000000E+00 -0.39112787152E+02  0.39112787152E+02  0.00000000000E+00 0.  1.
         24    2    1    2    0    0 -0.23855674634E+02 -0.50914165522E+02  0.42532871607E+02  0.10432402752E+03  0.76896762534E+02 0.  0.
        -13    1    3    3    0    0  0.45384968602E+01 -0.39275843373E+01 -0.20134684356E+02  0.21010221003E+02  0.00000000000E+00 0.  1.
         14    1    3    3    0    0 -0.28394171494E+02 -0.46986581184E+02  0.62667555963E+02  0.83313806519E+02  0.00000000000E+00 0. -1.
          3    1    1    2  501    0  0.23855674634E+02  0.50914165522E+02  0.87963421851E+02  0.10439784024E+03  0.00000000000E+00 0. -1.
<mgrwt>
<rscale>  1 0.95259947E+02</rscale>
<asrwt>0</asrwt>
<pdfrwt beam="1">  1       21 0.60173520E-02 0.95259947E+02</pdfrwt>
<pdfrwt beam="2">  1        4 0.26093704E-01 0.95259947E+02</pdfrwt>
<totfact> 0.10332169E+05</totfact>
</mgrwt>
</event>
<event>
 6    2  0.8544106E+000  0.8628970E+02  0.7546771E-02  0.1312094E+00
          2   -1    0    0  502    0 -0.00000000000E+00  0.00000000000E+00  0.20482430089E+03  0.20482430089E+03  0.00000000000E+00 0. -1.
         21   -1    0    0  501  502  0.00000000000E+00 -0.00000000000E+00 -0.16590402939E+02  0.16590402939E+02  0.00000000000E+00 0.  1.
         24    2    1    2    0    0  0.25287386995E+02 -0.47436587847E+01  0.11486799049E+03  0.14366825299E+03  0.82364782763E+02 0.  0.
        -13    1    3    3    0    0 -0.10485266439E+01  0.17836004278E+02 -0.52653495785E+01  0.18626496260E+02  0.00000000000E+00 0.  1.
         14    1    3    3    0    0  0.26335913639E+02 -0.22579663063E+02  0.12013334007E+03  0.12504175673E+03  0.00000000000E+00 0. -1.
          1    1    1    2  501    0 -0.25287386995E+02  0.47436587847E+01  0.73365907462E+02  0.77746450835E+02  0.00000000000E+00 0. -1.
<mgrwt>
<rscale>  1 0.86289696E+02</rscale>
<asrwt>0</asrwt>
<pdfrwt beam="1">  1       21 0.25523698E-02 0.86289696E+02</pdfrwt>
<pdfrwt beam="2">  1        2 0.31511429E-01 0.86289696E+02</pdfrwt>
<totfact> 0.15573339E+06</totfact>
</mgrwt>
</event>
<event>
 6    2  0.8544106E+000  0.8304592E+02  0.7546771E-02  0.1320623E+00
         21   -1    0    0  501  502  0.00000000000E+00  0.00000000000E+00  0.22664489175E+02  0.22664489175E+02  0.00000000000E+00 0.  1.
          2   -1    0    0  502    0 -0.00000000000E+00 -0.00000000000E+00 -0.29318552936E+03  0.29318552936E+03  0.00000000000E+00 0. -1.
         24    2    1    2    0    0 -0.80949068768E+01  0.34315854477E+02 -0.26792109154E+03  0.28049658703E+03  0.75189884040E+02 0.  0.
        -13    1    3    3    0    0 -0.26631914169E+02  0.51363896460E+02 -0.18789790092E+03  0.19660399254E+03  0.00000000000E+00 0.  1.
         14    1    3    3    0    0  0.18537007292E+02 -0.17048041983E+02 -0.80023190618E+02  0.83892594497E+02  0.00000000000E+00 0. -1.
          1    1    1    2  501    0  0.80949068768E+01 -0.34315854477E+02 -0.25999486463E+01  0.35353431499E+02  0.00000000000E+00 0. -1.
<mgrwt>
<rscale>  1 0.83045915E+02</rscale>
<asrwt>0</asrwt>
<pdfrwt beam="1">  1       21 0.34868447E-02 0.83045915E+02</pdfrwt>
<pdfrwt beam="2">  1        2 0.45105463E-01 0.83045915E+02</pdfrwt>
<totfact> 0.64141561E+05</totfact>
</mgrwt>
</event>
<event>
 6    2  0.8544106E+000  0.8938206E+02  0.7546771E-02  0.1304355E+00
         21   -1    0    0  501  502  0.00000000000E+00  0.00000000000E+00  0.44024285739E+02  0.44024285739E+02  0.00000000000E+00 0. -1.
          2   -1    0    0  502    0 -0.00000000000E+00 -0.00000000000E+00 -0.95400428861E+02  0.95400428861E+02  0.00000000000E+00 0. -1.
         24    2    1    2    0    0  0.39915458864E+02 -0.43666021871E+01 -0.33199393349E+02  0.95348583835E+02  0.79855129138E+02 0.  0.
        -11    1    3    3    0    0 -0.88528222363E+00 -0.19751065278E+02  0.18939799269E+02  0.27378902472E+02  0.00000000000E+00 0.  1.
         12    1    3    3    0    0  0.40800741087E+02  0.15384463091E+02 -0.52139192617E+02  0.67969681363E+02  0.00000000000E+00 0. -1.
          1    1    1    2  501    0 -0.39915458864E+02  0.43666021871E+01 -0.18176749773E+02  0.44076130766E+02  0.00000000000E+00 0. -1.
<mgrwt>
<rscale>  1 0.89382060E+02</rscale>
<asrwt>0</asrwt>
<pdfrwt beam="1">  1       21 0.67729670E-02 0.89382060E+02</pdfrwt>
<pdfrwt beam="2">  1        2 0.14676989E-01 0.89382060E+02</pdfrwt>
<totfact> 0.72885404E+05</totfact>
</mgrwt>
</event>
<event>
 6    2  0.8544106E+000  0.1043476E+03  0.7546771E-02  0.1271410E+00
         21   -1    0    0  501  502  0.00000000000E+00  0.00000000000E+00  0.80975240013E+01  0.80975240013E+01  0.00000000000E+00 0. -1.
          4   -1    0    0  502    0 -0.00000000000E+00 -0.00000000000E+00 -0.11254853430E+04  0.11254853430E+04  0.00000000000E+00 0. -1.
         24    2    1    2    0    0 -0.44217761966E+02 -0.56609518647E+02 -0.86175080086E+03  0.86804542498E+03  0.75687310461E+02 0.  0.
        -11    1    3    3    0    0 -0.10234973307E+02  0.17281914955E+02 -0.10237935858E+03  0.10433097492E+03  0.00000000000E+00 0.  1.
         12    1    3    3    0    0 -0.33982788659E+02 -0.73891433603E+02 -0.75937144227E+03  0.76371445006E+03  0.00000000000E+00 0. -1.
          3    1    1    2  501    0  0.44217761966E+02  0.56609518647E+02 -0.25563701816E+03  0.26553744205E+03  0.00000000000E+00 0. -1.
<mgrwt>
<rscale>  1 0.10434758E+03</rscale>
<asrwt>0</asrwt>
<pdfrwt beam="1">  1       21 0.12457731E-02 0.10434758E+03</pdfrwt>
<pdfrwt beam="2">  1        4 0.17315157E+00 0.10434758E+03</pdfrwt>
<totfact> 0.22739505E+04</totfact>
</mgrwt>
</event>
<event>
 6    2  0.8544106E+000  0.8611436E+02  0.7546771E-02  0.1312544E+00
          2   -1    0    0  502    0 -0.00000000000E+00  0.00000000000E+00  0.33977773648E+04  0.33977773648E+04  0.00000000000E+00 0. -1.
         21   -1    0    0  501  502  0.00000000000E+00 -0.00000000000E+00 -0.10444172903E+01  0.10444172903E+01  0.00000000000E+00 0. -1.
         24    2    1    2    0    0 -0.31885586571E+02  0.48424000024E+01  0.22884203420E+04  0.22900400312E+04  0.79847001016E+02 0.  0.
        -11    1    3    3    0    0  0.12398409661E+02 -0.28202110736E+02  0.85815240386E+03  0.85870520428E+03  0.00000000000E+00 0.  1.
         12    1    3    3    0    0 -0.44283996232E+02  0.33044510739E+02  0.14302679381E+04  0.14313348269E+04  0.00000000000E+00 0. -1.
          1    1    1    2  501    0  0.31885586571E+02 -0.48424000024E+01  0.11083126056E+04  0.11087817509E+04  0.00000000000E+00 0. -1.
<mgrwt>
<rscale>  1 0.86114360E+02</rscale>
<asrwt>0</asrwt>
<pdfrwt beam="1">  1       21 0.16068230E-03 0.86114360E+02</pdfrwt>
<pdfrwt beam="2">  1        2 0.52272613E+00 0.86114360E+02</pdfrwt>
<totfact> 0.10000296E+06</totfact>
</mgrwt>
</event>
<event>
 6    2  0.8544106E+000  0.6118863E+02  0.7546771E-02  0.1392910E+00
         21   -1    0    0  501  502  0.00000000000E+00  0.00000000000E+00  0.52225144823E+01  0.52225144823E+01  0.00000000000E+00 0. -1.
          2   -1    0    0  502    0 -0.00000000000E+00 -0.00000000000E+00 -0.13162668888E+04  0.13162668888E+04  0.00000000000E+00 0. -1.
         24    2    1    2    0    0 -0.16420980647E+02  0.17536209232E+02 -0.12834276384E+04  0.12848854234E+04  0.56275048257E+02 0.  0.
        -13    1    3    3    0    0  0.50830441225E+01 -0.12579059667E+02 -0.10448360925E+03  0.10536078341E+03  0.00000000000E+00 0.  1.
         14    1    3    3    0    0 -0.21504024769E+02  0.30115268899E+02 -0.11789440291E+04  0.11795246400E+04  0.00000000000E+00 0. -1.
          1    1    1    2  501    0  0.16420980647E+02 -0.17536209232E+02 -0.27616735934E+02  0.36603979883E+02  0.00000000000E+00 0. -1.
<mgrwt>
<rscale>  1 0.61188629E+02</rscale>
<asrwt>0</asrwt>
<pdfrwt beam="1">  1       21 0.80346404E-03 0.61188629E+02</pdfrwt>
<pdfrwt beam="2">  1        2 0.20250253E+00 0.61188629E+02</pdfrwt>
<totfact> 0.10859039E+06</totfact>
</mgrwt>
</event>
<event>
 6    2  0.8544106E+000  0.1067459E+03  0.7546771E-02  0.1266717E+00
         21   -1    0    0  501  502  0.00000000000E+00  0.00000000000E+00  0.38226234689E+02  0.38226234689E+02  0.00000000000E+00 0.  1.
          2   -1    0    0  502    0 -0.00000000000E+00 -0.00000000000E+00 -0.22581773379E+03  0.22581773379E+03  0.00000000000E+00 0. -1.
         24    2    1    2    0    0  0.18050428891E+02 -0.68047902592E+02 -0.72194813038E+02  0.12886730561E+03  0.80239369358E+02 0.  0.
        -13    1    3    3    0    0  0.26035400984E+02 -0.80221152549E+02 -0.39610716208E+02  0.93178775798E+02  0.00000000000E+00 0.  1.
         14    1    3    3    0    0 -0.79849720930E+01  0.12173249957E+02 -0.32584096830E+02  0.35688529811E+02  0.00000000000E+00 0. -1.
          1    1    1    2  501    0 -0.18050428891E+02  0.68047902592E+02 -0.11539668606E+03  0.13517666287E+03  0.00000000000E+00 0. -1.
<mgrwt>
<rscale>  1 0.10674592E+03</rscale>
<asrwt>0</asrwt>
<pdfrwt beam="1">  1       21 0.58809593E-02 0.10674592E+03</pdfrwt>
<pdfrwt beam="2">  1        2 0.34741189E-01 0.10674592E+03</pdfrwt>
<totfact> 0.36224616E+05</totfact>
</mgrwt>
</event>
<event>
 6    2  0.8544106E+000  0.1067125E+03  0.7546771E-02  0.1266782E+00
          2   -1    0    0  502    0 -0.00000000000E+00  0.00000000000E+00  0.76613124453E+03  0.76613124453E+03  0.00000000000E+00 0. -1.
         21   -1    0    0  501  502  0.00000000000E+00 -0.00000000000E+00 -0.10347076094E+02  0.10347076094E+02  0.00000000000E+00 0.  1.
         24    2    1    2    0    0 -0.68025722606E+02 -0.20105356818E+02  0.42744722903E+03  0.44056632309E+03  0.79723441518E+02 0.  0.
        -13    1    3    3    0    0 -0.18228996143E+01  0.18190515282E+02  0.25316913885E+02  0.31227614988E+02  0.00000000000E+00 0.  1.
         14    1    3    3    0    0 -0.66202822991E+02 -0.38295872100E+02  0.40213031514E+03  0.40933870810E+03  0.00000000000E+00 0. -1.
          1    1    1    2  501    0  0.68025722606E+02  0.20105356818E+02  0.32833693941E+03  0.33591199753E+03  0.00000000000E+00 0. -1.
<mgrwt>
<rscale>  1 0.10671247E+03</rscale>
<asrwt>0</asrwt>
<pdfrwt beam="1">  1       21 0.15918585E-02 0.10671247E+03</pdfrwt>
<pdfrwt beam="2">  1        2 0.11786630E+00 0.10671247E+03</pdfrwt>
<totfact> 0.81346982E+05</totfact>
</mgrwt>
</event>
<event>
 6    2  0.8544106E+000  0.7895457E+02  0.7546771E-02  0.1332045E+00
          2   -1    0    0  502    0 -0.00000000000E+00  0.00000000000E+00  0.18552546719E+03  0.18552546719E+03  0.00000000000E+00 0. -1.
         21   -1    0    0  501  502  0.00000000000E+00 -0.00000000000E+00 -0.15299004554E+02  0.15299004554E+02  0.00000000000E+00 0. -1.
         24    2    1    2    0    0  0.24429236504E+01  0.21381464775E+02  0.15652935876E+03  0.17531475661E+03  0.75965049975E+02 0.  0.
        -13    1    3    3    0    0 -0.95264073048E+01  0.40373662015E+02  0.43620536902E+02  0.60195815970E+02  0.00000000000E+00 0.  1.
         14    1    3    3    0    0  0.11969330955E+02 -0.18992197240E+02  0.11290882186E+03  0.11511894064E+03  0.00000000000E+00 0. -1.
          1    1    1    2  501    0 -0.24429236504E+01 -0.21381464775E+02  0.13697103875E+02  0.25509715138E+02  0.00000000000E+00 0. -1.
<mgrwt>
<rscale>  1 0.78954568E+02</rscale>
<asrwt>0</asrwt>
<pdfrwt beam="1">  1       21 0.23536931E-02 0.78954568E+02</pdfrwt>
<pdfrwt beam="2">  1        2 0.28542378E-01 0.78954568E+02</pdfrwt>
<totfact> 0.19496650E+06</totfact>
</mgrwt>
</event>
<event>
 6    2  0.8544106E+000  0.8305287E+02  0.7546771E-02  0.1320604E+00
          2   -1    0    0  502    0 -0.00000000000E+00  0.00000000000E+00  0.13247180633E+04  0.13247180633E+04  0.00000000000E+00 0. -1.
         21   -1    0    0  501  502  0.00000000000E+00 -0.00000000000E+00 -0.20214806518E+01  0.20214806518E+01  0.00000000000E+00 0.  1.
         24    2    1    2    0    0 -0.15515548863E+02 -0.12800421490E+02  0.11042409935E+04  0.11073599016E+04  0.80580375441E+02 0.  0.
        -11    1    3    3    0    0 -0.31333587342E+02 -0.88896134351E+01  0.17675379389E+03  0.17972958180E+03  0.00000000000E+00 0.  1.
         12    1    3    3    0    0  0.15818038479E+02 -0.39108080549E+01  0.92748719963E+03  0.92763031982E+03  0.00000000000E+00 0. -1.
          1    1    1    2  501    0  0.15515548863E+02  0.12800421490E+02  0.21845558913E+03  0.21937964233E+03  0.00000000000E+00 0. -1.
<mgrwt>
<rscale>  1 0.83052874E+02</rscale>
<asrwt>0</asrwt>
<pdfrwt beam="1">  1       21 0.31099808E-03 0.83052874E+02</pdfrwt>
<pdfrwt beam="2">  1        2 0.20380209E+00 0.83052874E+02</pdfrwt>
<totfact> 0.47056992E+06</totfact>
</mgrwt>
</event>
<event>
 6    2  0.8544106E+000  0.6686330E+02  0.7546771E-02  0.1371096E+00
          2   -1    0    0  502    0 -0.00000000000E+00  0.00000000000E+00  0.14310241749E+04  0.14310241749E+04  0.00000000000E+00 0. -1.
         21   -1    0    0  501  502  0.00000000000E+00 -0.00000000000E+00 -0.30527816152E+01  0.30527816152E+01  0.00000000000E+00 0. -1.
         24    2    1    2    0    0 -0.29720795876E+02 -0.73732556361E+01  0.13240684427E+04  0.13257556117E+04  0.59439131397E+02 0.  0.
        -11    1    3    3    0    0 -0.51599790012E+01 -0.28211964576E+02  0.35671965645E+03  0.35787072195E+03  0.00000000000E+00 0.  1.
         12    1    3    3    0    0 -0.24560816874E+02  0.20838708940E+02  0.96734878627E+03  0.96788488976E+03  0.00000000000E+00 0. -1.
          1    1    1    2  501    0  0.29720795876E+02  0.73732556361E+01  0.10390295053E+03  0.10832134478E+03  0.00000000000E+00 0. -1.
<mgrwt>
<rscale>  1 0.66863300E+02</rscale>
<asrwt>0</asrwt>
<pdfrwt beam="1">  1       21 0.46965985E-03 0.66863300E+02</pdfrwt>
<pdfrwt beam="2">  1        2 0.22015703E+00 0.66863300E+02</pdfrwt>
<totfact> 0.21724152E+06</totfact>
</mgrwt>
</event>
<event>
 6    2  0.8544106E+000  0.9327820E+02  0.7546771E-02  0.1295102E+00
          2   -1    0    0  502    0 -0.00000000000E+00  0.00000000000E+00  0.46038743867E+03  0.46038743867E+03  0.00000000000E+00 0. -1.
         21   -1    0    0  501  502  0.00000000000E+00 -0.00000000000E+00 -0.15968913125E+02  0.15968913125E+02  0.00000000000E+00 0.  1.
         24    2    1    2    0    0 -0.22476455898E+01 -0.37423582277E+02  0.13163412993E+03  0.16133309144E+03  0.85412211140E+02 0.  0.
        -11    1    3    3    0    0  0.24394869090E+02 -0.16179213200E+02  0.43833053041E+01  0.29598816582E+02  0.00000000000E+00 0.  1.
         12    1    3    3    0    0 -0.26642514680E+02 -0.21244369077E+02  0.12725082462E+03  0.13173427486E+03  0.00000000000E+00 0. -1.
          1    1    1    2  501    0  0.22476455898E+01  0.37423582277E+02  0.31278439562E+03  0.31502326035E+03  0.00000000000E+00 0. -1.
<mgrwt>
<rscale>  1 0.93278198E+02</rscale>
<asrwt>0</asrwt>
<pdfrwt beam="1">  1       21 0.24567562E-02 0.93278198E+02</pdfrwt>
<pdfrwt beam="2">  1        2 0.70828827E-01 0.93278198E+02</pdfrwt>
<totfact> 0.71255220E+05</totfact>
</mgrwt>
</event>
<event>
 6    2  0.8544106E+000  0.9376594E+02  0.7546771E-02  0.1293980E+00
          2   -1    0    0  502    0 -0.00000000000E+00  0.00000000000E+00  0.44452212269E+03  0.44452212269E+03  0.00000000000E+00 0. -1.
         21   -1    0    0  501  502  0.00000000000E+00 -0.00000000000E+00 -0.20132089521E+02  0.20132089521E+02  0.00000000000E+00 0. -1.
         24    2    1    2    0    0 -0.35526348301E+02 -0.33942080588E+02  0.39797028180E+03  0.40886721085E+03  0.79861534260E+02 0.  0.
        -13    1    3    3    0    0 -0.17076782304E+02 -0.53146811222E+02  0.16095576191E+03  0.17036125537E+03  0.00000000000E+00 0.  1.
         14    1    3    3    0    0 -0.18449565997E+02  0.19204730634E+02  0.23701451989E+03  0.23850595548E+03  0.00000000000E+00 0. -1.
          1    1    1    2  501    0  0.35526348301E+02  0.33942080588E+02  0.26419751367E+02  0.55787001358E+02  0.00000000000E+00 0. -1.
<mgrwt>
<rscale>  1 0.93765937E+02</rscale>
<asrwt>0</asrwt>
<pdfrwt beam="1">  1       21 0.30972449E-02 0.93765937E+02</pdfrwt>
<pdfrwt beam="2">  1        2 0.68388011E-01 0.93765937E+02</pdfrwt>
<totfact> 0.50830175E+05</totfact>
</mgrwt>
</event>
<event>
 6    2  0.8544106E+000  0.8968597E+02  0.7546771E-02  0.1303614E+00
         21   -1    0    0  501  502  0.00000000000E+00  0.00000000000E+00  0.63250613152E+01  0.63250613152E+01  0.00000000000E+00 0. -1.
          2   -1    0    0  502    0 -0.00000000000E+00 -0.00000000000E+00 -0.10979573888E+04  0.10979573888E+04  0.00000000000E+00 0. -1.
         24    2    1    2    0    0  0.17610209335E+02 -0.34114487242E+02 -0.10110709592E+04  0.10150409140E+04  0.81053407072E+02 0.  0.
        -13    1    3    3    0    0  0.38044747925E+02 -0.91049713448E+00 -0.24122971891E+03  0.24421304047E+03  0.00000000000E+00 0.  1.
         14    1    3    3    0    0 -0.20434538590E+02 -0.33203990107E+02 -0.76984124029E+03  0.77082787351E+03  0.00000000000E+00 0. -1.
          1    1    1    2  501    0 -0.17610209335E+02  0.34114487242E+02 -0.80561368300E+02  0.89241536153E+02  0.00000000000E+00 0. -1.
<mgrwt>
<rscale>  1 0.89685966E+02</rscale>
<asrwt>0</asrwt>
<pdfrwt beam="1">  1       21 0.97308604E-03 0.89685966E+02</pdfrwt>
<pdfrwt beam="2">  1        2 0.16891658E+00 0.89685966E+02</pdfrwt>
<totfact> 0.10910568E+06</totfact>
</mgrwt>
</event>
<event>
 6    2  0.8544106E+000  0.8028178E+02  0.7546771E-02  0.1328254E+00
         21   -1    0    0  501  502  0.00000000000E+00  0.00000000000E+00  0.29142231071E+01  0.29142231071E+01  0.00000000000E+00 0.  1.
          2   -1    0    0  502    0 -0.00000000000E+00 -0.00000000000E+00 -0.10817487633E+04  0.10817487633E+04  0.00000000000E+00 0. -1.
         24    2    1    2    0    0 -0.23266084915E+02  0.18820516958E+01 -0.61171697164E+03  0.61696257409E+03  0.76813485899E+02 0.  0.
        -13    1    3    3    0    0 -0.19248611810E+02  0.16989076020E+02 -0.63101280498E+02  0.68124220077E+02  0.00000000000E+00 0.  1.
         14    1    3    3    0    0 -0.40174731045E+01 -0.15107024324E+02 -0.54861569114E+03  0.54883835401E+03  0.00000000000E+00 0. -1.
          1    1    1    2  501    0  0.23266084915E+02 -0.18820516958E+01 -0.46711756855E+03  0.46770041231E+03  0.00000000000E+00 0. -1.
<mgrwt>
<rscale>  1 0.80281782E+02</rscale>
<asrwt>0</asrwt>
<pdfrwt beam="1">  1       21 0.44834177E-03 0.80281782E+02</pdfrwt>
<pdfrwt beam="2">  1        2 0.16642298E+00 0.80281782E+02</pdfrwt>
<totfact> 0.36419285E+06</totfact>
</mgrwt>
</event>
<event>
 6    2  0.8544106E+000  0.7550893E+02  0.7546771E-02  0.1342302E+00
         21   -1    0    0  501  502  0.00000000000E+00  0.00000000000E+00  0.58435702996E+01  0.58435702996E+01  0.00000000000E+00 0.  1.
         -3   -1    0    0    0  501 -0.00000000000E+00 -0.00000000000E+00 -0.50561311565E+03  0.50561311565E+03  0.00000000000E+00 0.  1.
         24    2    1    2    0    0  0.37251845039E+01  0.20970120460E+02 -0.46170407958E+03  0.46783785245E+03  0.72442916367E+02 0.  0.
        -13    1    3    3    0    0 -0.20774019964E+02  0.12944364928E+02 -0.40275382546E+03  0.40349691500E+03  0.00000000000E+00 0.  1.
         14    1    3    3    0    0  0.24499204468E+02  0.80257555318E+01 -0.58950254113E+02  0.64340937446E+02  0.00000000000E+00 0. -1.
         -4    1    1    2    0  502 -0.37251845039E+01 -0.20970120460E+02 -0.38065465775E+02  0.43618833505E+02  0.00000000000E+00 0.  1.
<mgrwt>
<rscale>  1 0.75508934E+02</rscale>
<asrwt>0</asrwt>
<pdfrwt beam="1">  1       21 0.89901075E-03 0.75508934E+02</pdfrwt>
<pdfrwt beam="2">  1       -3 0.77786639E-01 0.75508934E+02</pdfrwt>
<totfact> 0.30219931E+05</totfact>
</mgrwt>
</event>
<event>
 6    2  0.8544106E+000  0.9057244E+02  0.7546771E-02  0.1301471E+00
          2   -1    0    0  502    0 -0.00000000000E+00  0.00000000000E+00  0.32991740945E+02  0.32991740945E+02  0.00000000000E+00 0. -1.
         21   -1    0    0  501  502  0.00000000000E+00 -0.00000000000E+00 -0.12944102346E+03  0.12944102346E+03  0.00000000000E+00 0.  1.
         24    2    1    2    0    0 -0.39696871630E+02 -0.45572500335E+01 -0.70670043656E+02  0.11488090534E+03  0.81281961069E+02 0.  0.
        -13    1    3    3    0    0 -0.81567983269E+01 -0.77764531071E+01 -0.80812199716E+02  0.81594228993E+02  0.00000000000E+00 0.  1.
         14    1    3    3    0    0 -0.31540073303E+02  0.32192030737E+01  0.10142156060E+02  0.33286676343E+02  0.00000000000E+00 0. -1.
          1    1    1    2  501    0  0.39696871630E+02  0.45572500335E+01 -0.25779238863E+02  0.47551859074E+02  0.00000000000E+00 0. -1.
<mgrwt>
<rscale>  1 0.90572442E+02</rscale>
<asrwt>0</asrwt>
<pdfrwt beam="1">  1       21 0.19914004E-01 0.90572442E+02</pdfrwt>
<pdfrwt beam="2">  1        2 0.50756525E-02 0.90572442E+02</pdfrwt>
<totfact> 0.40552478E+05</totfact>
</mgrwt>
</event>
<event>
 6    2  0.8544106E+000  0.9325936E+02  0.7546771E-02  0.1295145E+00
         21   -1    0    0  501  502  0.00000000000E+00  0.00000000000E+00  0.36291801301E+01  0.36291801301E+01  0.00000000000E+00 0. -1.
          2   -1    0    0  502    0 -0.00000000000E+00 -0.00000000000E+00 -0.13842968267E+04  0.13842968267E+04  0.00000000000E+00 0. -1.
         24    2    1    2    0    0  0.44259777455E+02  0.14115257163E+02 -0.80416240510E+03  0.80955202589E+03  0.80864952003E+02 0.  0.
        -11    1    3    3    0    0  0.50174604817E+01 -0.32151259874E+02 -0.26806677590E+03  0.27003458068E+03  0.00000000000E+00 0.  1.
         12    1    3    3    0    0  0.39242316973E+02  0.46266517037E+02 -0.53609562919E+03  0.53951744521E+03  0.00000000000E+00 0. -1.
          1    1    1    2  501    0 -0.44259777455E+02 -0.14115257163E+02 -0.57650524143E+03  0.57837398090E+03  0.00000000000E+00 0. -1.
<mgrwt>
<rscale>  1 0.93259363E+02</rscale>
<asrwt>0</asrwt>
<pdfrwt beam="1">  1       21 0.55833579E-03 0.93259363E+02</pdfrwt>
<pdfrwt beam="2">  1        2 0.21296860E+00 0.93259363E+02</pdfrwt>
<totfact> 0.18147913E+06</totfact>
</mgrwt>
</event>
<event>
 6    2  0.8544106E+000  0.1388593E+03  0.7546771E-02  0.1214872E+00
         21   -1    0    0  501  502  0.00000000000E+00  0.00000000000E+00  0.56925672235E+02  0.56925672235E+02  0.00000000000E+00 0.  1.
         -1   -1    0    0    0  501 -0.00000000000E+00 -0.00000000000E+00 -0.29436279606E+03  0.29436279606E+03  0.00000000000E+00 0.  1.
         24    2    1    2    0    0 -0.81875868435E+02  0.70821322671E+02 -0.80098944893E+02  0.16030517027E+03  0.86963147736E+02 0.  0.
        -11    1    3    3    0    0 -0.97268940282E+02  0.74834431453E+02 -0.67882306187E+02  0.14024780343E+03  0.00000000000E+00 0.  1.
         12    1    3    3    0    0  0.15393071847E+02 -0.40131087826E+01 -0.12216638706E+02  0.20057366833E+02  0.00000000000E+00 0. -1.
         -2    1    1    2    0  502  0.81875868435E+02 -0.70821322671E+02 -0.15733817894E+03  0.19098329803E+03  0.00000000000E+00 0.  1.
<mgrwt>
<rscale>  1 0.13885931E+03</rscale>
<asrwt>0</asrwt>
<pdfrwt beam="1">  1       21 0.87577957E-02 0.13885931E+03</pdfrwt>
<pdfrwt beam="2">  1       -1 0.45286584E-01 0.13885931E+03</pdfrwt>
<totfact> 0.46294612E+04</totfact>
</mgrwt>
</event>
<event>
 6    2  0.8544106E+000  0.8534596E+02  0.7546771E-02  0.1314530E+00
         -3   -1    0    0    0  501 -0.00000000000E+00  0.00000000000E+00  0.11407222118E+02  0.11407222118E+02  0.00000000000E+00 0.  1.
         21   -1    0    0  501  502  0.00000000000E+00 -0.00000000000E+00 -0.32952422140E+03  0.32952422140E+03  0.00000000000E+00 0. -1.
         24    2    1    2    0    0  0.25374077952E+02  0.12296441861E+02 -0.17075151676E+03  0.19089267602E+03  0.80553627892E+02 0.  0.
        -11    1    3    3    0    0 -0.18832447238E+02 -0.17418107626E+02 -0.25447680311E+02  0.36133585145E+02  0.00000000000E+00 0.  1.
         12    1    3    3    0    0  0.44206525190E+02  0.29714549486E+02 -0.14530383645E+03  0.15475909087E+03  0.00000000000E+00 0. -1.
         -4    1    1    2    0  502 -0.25374077952E+02 -0.12296441861E+02 -0.14736548252E+03  0.15003876750E+03  0.00000000000E+00 0.  1.
<mgrwt>
<rscale>  1 0.85345962E+02</rscale>
<asrwt>0</asrwt>
<pdfrwt beam="1">  1       21 0.50696034E-01 0.85345962E+02</pdfrwt>
<pdfrwt beam="2">  1       -3 0.17549573E-02 0.85345962E+02</pdfrwt>
<totfact> 0.19299583E+05</totfact>
</mgrwt>
</event>
<event>
 6    2  0.8544106E+000  0.8714177E+02  0.7546771E-02  0.1309925E+00
         21   -1    0    0  501  502  0.00000000000E+00  0.00000000000E+00  0.87690595381E+02  0.87690595381E+02  0.00000000000E+00 0.  1.
         -1   -1    0    0    0  501 -0.00000000000E+00 -0.00000000000E+00 -0.38594464453E+02  0.38594464453E+02  0.00000000000E+00 0.  1.
         24    2    1    2    0    0  0.49619952641E+00  0.26800625334E+02  0.47932544550E+02  0.99454598312E+02  0.82916636244E+02 0.  0.
        -13    1    3    3    0    0 -0.13337483366E+02  0.52583477680E+02  0.16939361918E+02  0.56831791892E+02  0.00000000000E+00 0.  1.
         14    1    3    3    0    0  0.13833682892E+02 -0.25782852345E+02  0.30993182632E+02  0.42622806420E+02  0.00000000000E+00 0. -1.
         -2    1    1    2    0  502 -0.49619952641E+00 -0.26800625334E+02  0.11635863775E+01  0.26830461523E+02  0.00000000000E+00 0.  1.
<mgrwt>
<rscale>  1 0.87141771E+02</rscale>
<asrwt>0</asrwt>
<pdfrwt beam="1">  1       21 0.13490861E-01 0.87141771E+02</pdfrwt>
<pdfrwt beam="2">  1       -1 0.59376099E-02 0.87141771E+02</pdfrwt>
<totfact> 0.53045855E+05</totfact>
</mgrwt>
</event>
<event>
 6    2  0.8544106E+000  0.8625251E+02  0.7546771E-02  0.1312189E+00
         21   -1    0    0  501  502  0.00000000000E+00  0.00000000000E+00  0.65956644480E+02  0.65956644480E+02  0.00000000000E+00 0.  1.
          4   -1    0    0  502    0 -0.00000000000E+00 -0.00000000000E+00 -0.48585945254E+02  0.48585945254E+02  0.00000000000E+00 0. -1.
         24    2    1    2    0    0  0.15161919791E+02  0.22197945461E+02  0.15108332333E+02  0.87565731162E+02  0.81956469992E+02 0.  0.
        -11    1    3    3    0    0 -0.24574419769E+02 -0.14839221959E+02  0.16719616596E+02  0.33221231080E+02  0.00000000000E+00 0.  1.
         12    1    3    3    0    0  0.39736339560E+02  0.37037167420E+02 -0.16112842635E+01  0.54344500082E+02  0.00000000000E+00 0. -1.
          3    1    1    2  501    0 -0.15161919791E+02 -0.22197945461E+02  0.22623668933E+01  0.26976858572E+02  0.00000000000E+00 0. -1.
<mgrwt>
<rscale>  1 0.86252511E+02</rscale>
<asrwt>0</asrwt>
<pdfrwt beam="1">  1       21 0.10147176E-01 0.86252511E+02</pdfrwt>
<pdfrwt beam="2">  1        4 0.74747608E-02 0.86252511E+02</pdfrwt>
<totfact> 0.35935578E+05</totfact>
</mgrwt>
</event>
<event>
 6    2  0.8544106E+000  0.9910804E+02  0.7546771E-02  0.1282183E+00
          2   -1    0    0  502    0 -0.00000000000E+00  0.00000000000E+00  0.31193489695E+04  0.31193489695E+04  0.00000000000E+00 0. -1.
         21   -1    0    0  501  502  0.00000000000E+00 -0.00000000000E+00 -0.19713131621E+01  0.19713131621E+01  0.00000000000E+00 0. -1.
         24    2    1    2    0    0 -0.14044653114E+02 -0.55101958930E+02  0.21335998552E+04  0.21359004533E+04  0.81172199585E+02 0.  0.
        -11    1    3    3    0    0 -0.26623393263E+02  0.95373162821E+01  0.99188723271E+03  0.99229030424E+03  0.00000000000E+00 0.  1.
         12    1    3    3    0    0  0.12578740149E+02 -0.64639275212E+02  0.11417126225E+04  0.11436101490E+04  0.00000000000E+00 0. -1.
          1    1    1    2  501    0  0.14044653114E+02  0.55101958930E+02  0.98377780109E+03  0.98541982935E+03  0.00000000000E+00 0. -1.
<mgrwt>
<rscale>  1 0.99108043E+02</rscale>
<asrwt>0</asrwt>
<pdfrwt beam="1">  1       21 0.30328144E-03 0.99108043E+02</pdfrwt>
<pdfrwt beam="2">  1        2 0.47989589E+00 0.99108043E+02</pdfrwt>
<totfact> 0.56707016E+05</totfact>
</mgrwt>
</event>
<event>
 6    2  0.8544106E+000  0.8791217E+02  0.7546771E-02  0.1307988E+00
          4   -1    0    0  502    0 -0.00000000000E+00  0.00000000000E+00  0.11123463114E+04  0.11123463114E+04  0.00000000000E+00 0. -1.
         21   -1    0    0  501  502  0.00000000000E+00 -0.00000000000E+00 -0.41850676527E+01  0.41850676527E+01  0.00000000000E+00 0.  1.
         24    2    1    2    0    0 -0.31833140319E+01 -0.28230169953E+02  0.49735960731E+03  0.50506943007E+03  0.83195397830E+02 0.  0.
        -11    1    3    3    0    0 -0.25248866204E+02 -0.43378736469E+02  0.18902162959E+03  0.19557197262E+03  0.00000000000E+00 0.  1.
         12    1    3    3    0    0  0.22065552172E+02  0.15148566516E+02  0.30833797772E+03  0.30949745745E+03  0.00000000000E+00 0. -1.
          3    1    1    2  501    0  0.31833140319E+01  0.28230169953E+02  0.61080163642E+03  0.61146194897E+03  0.00000000000E+00 0. -1.
<mgrwt>
<rscale>  1 0.87912173E+02</rscale>
<asrwt>0</asrwt>
<pdfrwt beam="1">  1       21 0.64385745E-03 0.87912173E+02</pdfrwt>
<pdfrwt beam="2">  1        4 0.17112997E+00 0.87912173E+02</pdfrwt>
<totfact> 0.64160145E+04</totfact>
</mgrwt>
</event>
<event>
 6    2  0.8544106E+000  0.8449640E+02  0.7546771E-02  0.1316755E+00
          4   -1    0    0  502    0 -0.00000000000E+00  0.00000000000E+00  0.69999041508E+02  0.69999041508E+02  0.00000000000E+00 0. -1.
         21   -1    0    0  501  502  0.00000000000E+00 -0.00000000000E+00 -0.50721000427E+02  0.50721000427E+02  0.00000000000E+00 0. -1.
         24    2    1    2    0    0 -0.32667575420E+02  0.30154165697E+01  0.23346139731E+02  0.87662325022E+02  0.77867693988E+02 0.  0.
        -13    1    3    3    0    0 -0.57210235832E+01  0.38456700983E+02  0.17920178961E+02  0.42810988955E+02  0.00000000000E+00 0.  1.
         14    1    3    3    0    0 -0.26946551837E+02 -0.35441284413E+02  0.54259607704E+01  0.44851336067E+02  0.00000000000E+00 0. -1.
          3    1    1    2  501    0  0.32667575420E+02 -0.30154165697E+01 -0.40680986504E+01  0.33057716914E+02  0.00000000000E+00 0. -1.
<mgrwt>
<rscale>  1 0.84496396E+02</rscale>
<asrwt>0</asrwt>
<pdfrwt beam="1">  1       21 0.78032308E-02 0.84496396E+02</pdfrwt>
<pdfrwt beam="2">  1        4 0.10769083E-01 0.84496396E+02</pdfrwt>
<totfact> 0.30711913E+05</totfact>
</mgrwt>
</event>
<event>
 6    2  0.8544106E+000  0.8903910E+02  0.7546771E-02  0.1305195E+00
         21   -1    0    0  501  502  0.00000000000E+00  0.00000000000E+00  0.51234779874E+02  0.51234779874E+02  0.00000000000E+00 0. -1.
          2   -1    0    0  502    0 -0.00000000000E+00 -0.00000000000E+00 -0.13818578564E+03  0.13818578564E+03  0.00000000000E+00 0. -1.
         24    2    1    2    0    0 -0.24265972647E+02  0.32430472878E+02 -0.11101257553E+03  0.14230865471E+03  0.79293053157E+02 0.  0.
        -13    1    3    3    0    0  0.39464249322E+01 -0.97527964133E+01  0.78098493979E+01  0.13102864391E+02  0.00000000000E+00 0.  1.
         14    1    3    3    0    0 -0.28212397579E+02  0.42183269292E+02 -0.11882242493E+03  0.12920579032E+03  0.00000000000E+00 0. -1.
          1    1    1    2  501    0  0.24265972647E+02 -0.32430472878E+02  0.24061569771E+02  0.47111910802E+02  0.00000000000E+00 0. -1.
<mgrwt>
<rscale>  1 0.89039100E+02</rscale>
<asrwt>0</asrwt>
<pdfrwt beam="1">  1       21 0.78822738E-02 0.89039100E+02</pdfrwt>
<pdfrwt beam="2">  1        2 0.21259352E-01 0.89039100E+02</pdfrwt>
<totfact> 0.37004725E+05</totfact>
</mgrwt>
</event>
<event>
 6    2  0.8544106E+000  0.8362335E+02  0.7546771E-02  0.1319072E+00
         -3   -1    0    0    0  501 -0.00000000000E+00  0.00000000000E+00  0.81127640661E+03  0.81127640661E+03  0.00000000000E+00 0.  1.
         21   -1    0    0  501  502  0.00000000000E+00 -0.00000000000E+00 -0.60712302244E+01  0.60712302244E+01  0.00000000000E+00 0.  1.
         24    2    1    2    0    0 -0.23225480376E+02  0.51345300695E+01  0.77192317972E+03  0.77643947579E+03  0.80169057886E+02 0.  0.
        -13    1    3    3    0    0 -0.88050921169E+01  0.42527636265E+02  0.38094979199E+03  0.38341736203E+03  0.00000000000E+00 0.  1.
         14    1    3    3    0    0 -0.14420388260E+02 -0.37393106196E+02  0.39097338773E+03  0.39302211376E+03  0.00000000000E+00 0. -1.
         -4    1    1    2    0  502  0.23225480376E+02 -0.51345300695E+01  0.33281996665E+02  0.40908161041E+02  0.00000000000E+00 0.  1.
<mgrwt>
<rscale>  1 0.83623347E+02</rscale>
<asrwt>0</asrwt>
<pdfrwt beam="1">  1       21 0.93403606E-03 0.83623347E+02</pdfrwt>
<pdfrwt beam="2">  1       -3 0.12481167E+00 0.83623347E+02</pdfrwt>
<totfact> 0.10062338E+05</totfact>
</mgrwt>
</event>
<event>
 6    2  0.8544106E+000  0.9028448E+02  0.7546771E-02  0.1302164E+00
         -1   -1    0    0    0  501 -0.00000000000E+00  0.00000000000E+00  0.98135578654E+02  0.98135578654E+02  0.00000000000E+00 0.  1.
         21   -1    0    0  501  502  0.00000000000E+00 -0.00000000000E+00 -0.46399352795E+02  0.46399352795E+02  0.00000000000E+00 0.  1.
         24    2    1    2    0    0  0.93281523873E+01 -0.36693468974E+02  0.56300275734E+02  0.10640022752E+03  0.81962566316E+02 0.  0.
        -13    1    3    3    0    0 -0.14009113442E+02 -0.47016215182E+02  0.63161107535E+02  0.79975654136E+02  0.00000000000E+00 0.  1.
         14    1    3    3    0    0  0.23337265830E+02  0.10322746208E+02 -0.68608318015E+01  0.26424573387E+02  0.00000000000E+00 0. -1.
         -2    1    1    2    0  502 -0.93281523873E+01  0.36693468974E+02 -0.45640498749E+01  0.38134703926E+02  0.00000000000E+00 0.  1.
<mgrwt>
<rscale>  1 0.90284480E+02</rscale>
<asrwt>0</asrwt>
<pdfrwt beam="1">  1       21 0.71383620E-02 0.90284480E+02</pdfrwt>
<pdfrwt beam="2">  1       -1 0.15097781E-01 0.90284480E+02</pdfrwt>
<totfact> 0.39279825E+05</totfact>
</mgrwt>
</event>
<event>
 6    2  0.8544106E+000  0.8744800E+02  0.7546771E-02  0.1309152E+00
          2   -1    0    0  502    0 -0.00000000000E+00  0.00000000000E+00  0.43657021810E+03  0.43657021810E+03  0.00000000000E+00 0. -1.
         21   -1    0    0  501  502  0.00000000000E+00 -0.00000000000E+00 -0.73971807385E+01  0.73971807385E+01  0.00000000000E+00 0. -1.
         24    2    1    2    0    0 -0.11914163850E+02 -0.21831854774E+02  0.35967680604E+03  0.37015477559E+03  0.83836602417E+02 0.  0.
        -11    1    3    3    0    0  0.30778703072E+02  0.85338811444E+01  0.91660724290E+02  0.97066183955E+02  0.00000000000E+00 0.  1.
         12    1    3    3    0    0 -0.42692866922E+02 -0.30365735919E+02  0.26801608175E+03  0.27308859163E+03  0.00000000000E+00 0. -1.
          1    1    1    2  501    0  0.11914163850E+02  0.21831854774E+02  0.69496231325E+02  0.73812623253E+02  0.00000000000E+00 0. -1.
<mgrwt>
<rscale>  1 0.87448002E+02</rscale>
<asrwt>0</asrwt>
<pdfrwt beam="1">  1       21 0.11380282E-02 0.87448002E+02</pdfrwt>
<pdfrwt beam="2">  1        2 0.67164629E-01 0.87448002E+02</pdfrwt>
<totfact> 0.25455846E+06</totfact>
</mgrwt>
</event>
<event>
 6    2  0.8544106E+000  0.8563877E+02  0.7546771E-02  0.1313770E+00
         21   -1    0    0  501  502  0.00000000000E+00  0.00000000000E+00  0.17458437068E+02  0.17458437068E+02  0.00000000000E+00 0. -1.
          2   -1    0    0  502    0 -0.00000000000E+00 -0.00000000000E+00 -0.95610320668E+03  0.95610320668E+03  0.00000000000E+00 0. -1.
         24    2    1    2    0    0 -0.52844103345E+01  0.45412242336E+02 -0.92033822550E+03  0.92431404174E+03  0.72414098713E+02 0.  0.
        -13    1    3    3    0    0  0.25603455137E+02  0.48246966331E+02 -0.58956718825E+03  0.59209186461E+03  0.00000000000E+00 0.  1.
         14    1    3    3    0    0 -0.30887865471E+02 -0.28347239946E+01 -0.33077103725E+03  0.33222217713E+03  0.00000000000E+00 0. -1.
          1    1    1    2  501    0  0.52844103345E+01 -0.45412242336E+02 -0.18306544116E+02  0.49247602013E+02  0.00000000000E+00 0. -1.
<mgrwt>
<rscale>  1 0.85638767E+02</rscale>
<asrwt>0</asrwt>
<pdfrwt beam="1">  1       21 0.26859136E-02 0.85638767E+02</pdfrwt>
<pdfrwt beam="2">  1        2 0.14709279E+00 0.85638767E+02</pdfrwt>
<totfact> 0.26229531E+05</totfact>
</mgrwt>
</event>
<event>
 6    2  0.8544106E+000  0.8370638E+02  0.7546771E-02  0.1318851E+00
         21   -1    0    0  501  502  0.00000000000E+00  0.00000000000E+00  0.23360750932E+01  0.23360750932E+01  0.00000000000E+00 0.  1.
          2   -1    0    0  502    0 -0.00000000000E+00 -0.00000000000E+00 -0.18884251691E+04  0.18884251691E+04  0.00000000000E+00 0. -1.
         24    2    1    2    0    0 -0.24712376055E+02 -0.30228935472E+02 -0.15763538683E+04  0.15785747613E+04  0.74042344484E+02 0.  0.
        -11    1    3    3    0    0 -0.49273120063E+02 -0.15106986988E+02 -0.78132305126E+03  0.78302092683E+03  0.00000000000E+00 0.  1.
         12    1    3    3    0    0  0.24560744008E+02 -0.15121948484E+02 -0.79503081704E+03  0.79555383446E+03  0.00000000000E+00 0. -1.
          1    1    1    2  501    0  0.24712376055E+02  0.30228935472E+02 -0.30973522575E+03  0.31218648295E+03  0.00000000000E+00 0. -1.
<mgrwt>
<rscale>  1 0.83706385E+02</rscale>
<asrwt>0</asrwt>
<pdfrwt beam="1">  1       21 0.35939710E-03 0.83706385E+02</pdfrwt>
<pdfrwt beam="2">  1        2 0.29052619E+00 0.83706385E+02</pdfrwt>
<totfact> 0.19612433E+06</totfact>
</mgrwt>
</event>
<event>
 6    2  0.8544106E+000  0.8595213E+02  0.7546771E-02  0.1312961E+00
          2   -1    0    0  502    0 -0.00000000000E+00  0.00000000000E+00  0.17482519850E+04  0.17482519850E+04  0.00000000000E+00 0. -1.
         21   -1    0    0  501  502  0.00000000000E+00 -0.00000000000E+00 -0.21016726013E+01  0.21016726013E+01  0.00000000000E+00 0.  1.
         24    2    1    2    0    0 -0.18651902763E+01  0.26179334931E+02  0.98251549014E+03  0.98626794364E+03  0.81847002244E+02 0.  0.
        -11    1    3    3    0    0  0.29760986307E+02 -0.12957303590E+02  0.52285065172E+03  0.52385724393E+03  0.00000000000E+00 0.  1.
         12    1    3    3    0    0 -0.31626176584E+02  0.39136638521E+02  0.45966483842E+03  0.46241069971E+03  0.00000000000E+00 0. -1.
          1    1    1    2  501    0  0.18651902763E+01 -0.26179334931E+02  0.76363482225E+03  0.76408571395E+03  0.00000000000E+00 0. -1.
<mgrwt>
<rscale>  1 0.85952128E+02</rscale>
<asrwt>0</asrwt>
<pdfrwt beam="1">  1       21 0.32333564E-03 0.85952128E+02</pdfrwt>
<pdfrwt beam="2">  1        2 0.26896068E+00 0.85952128E+02</pdfrwt>
<totfact> 0.27103189E+06</totfact>
</mgrwt>
</event>
<event>
 6    2  0.8544106E+000  0.1036370E+03  0.7546771E-02  0.1272829E+00
         21   -1    0    0  501  502  0.00000000000E+00  0.00000000000E+00  0.41512987198E+02  0.41512987198E+02  0.00000000000E+00 0. -1.
          2   -1    0    0  502    0 -0.00000000000E+00 -0.00000000000E+00 -0.22311466274E+03  0.22311466274E+03  0.00000000000E+00 0. -1.
         24    2    1    2    0    0  0.79896057626E+01 -0.72566649771E+02 -0.15595223026E+03  0.18724776559E+03  0.73558650985E+02 0.  0.
        -11    1    3    3    0    0  0.11287745218E+02 -0.15224159507E+02  0.21135939573E+01  0.19069753649E+02  0.00000000000E+00 0.  1.
         12    1    3    3    0    0 -0.32981394558E+01 -0.57342490263E+02 -0.15806582422E+03  0.16817801194E+03  0.00000000000E+00 0. -1.
          1    1    1    2  501    0 -0.79896057626E+01  0.72566649771E+02 -0.25649445284E+02  0.77379884353E+02  0.00000000000E+00 0. -1.
<mgrwt>
<rscale>  1 0.10363700E+03</rscale>
<asrwt>0</asrwt>
<pdfrwt beam="1">  1       21 0.63866133E-02 0.10363700E+03</pdfrwt>
<pdfrwt beam="2">  1        2 0.34325334E-01 0.10363700E+03</pdfrwt>
<totfact> 0.31851437E+05</totfact>
</mgrwt>
</event>
<event>
 6    2  0.8544106E+000  0.1059161E+03  0.7546771E-02  0.1268325E+00
          2   -1    0    0  502    0 -0.00000000000E+00  0.00000000000E+00  0.51752880719E+03  0.51752880719E+03  0.00000000000E+00 0. -1.
         21   -1    0    0  501  502  0.00000000000E+00 -0.00000000000E+00 -0.12982258288E+03  0.12982258288E+03  0.00000000000E+00 0. -1.
         24    2    1    2    0    0  0.56298926620E+02  0.39577224225E+02  0.50248301619E+03  0.51352449528E+03  0.80512731176E+02 0.  0.
        -13    1    3    3    0    0  0.24631422726E+02  0.29959946120E+02  0.72093606177E+02  0.81864481972E+02  0.00000000000E+00 0.  1.
         14    1    3    3    0    0  0.31667503894E+02  0.96172781057E+01  0.43038941001E+03  0.43166001331E+03  0.00000000000E+00 0. -1.
          1    1    1    2  501    0 -0.56298926620E+02 -0.39577224225E+02 -0.11477679187E+03  0.13382689479E+03  0.00000000000E+00 0. -1.
<mgrwt>
<rscale>  1 0.10591613E+03</rscale>
<asrwt>0</asrwt>
<pdfrwt beam="1">  1       21 0.19972705E-01 0.10591613E+03</pdfrwt>
<pdfrwt beam="2">  1        2 0.79619815E-01 0.10591613E+03</pdfrwt>
<totfact> 0.17601830E+04</totfact>
</mgrwt>
</event>
<event>
 6    2  0.8544106E+000  0.8197494E+02  0.7546771E-02  0.1323538E+00
         -3   -1    0    0    0  501 -0.00000000000E+00  0.00000000000E+00  0.87904093720E+02  0.87904093720E+02  0.00000000000E+00 0.  1.
         21   -1    0    0  501  502  0.00000000000E+00 -0.00000000000E+00 -0.37331591249E+02  0.37331591249E+02  0.00000000000E+00 0.  1.
         24    2    1    2    0    0  0.25235707882E+02  0.69405000652E+00  0.17831259456E+02  0.83891862555E+02  0.77990820815E+02 0.  0.
        -11    1    3    3    0    0 -0.19658147040E+02  0.20176890646E+02 -0.69810007433E+01  0.29022130048E+02  0.00000000000E+00 0.  1.
         12    1    3    3    0    0  0.44893854922E+02 -0.19482840639E+02  0.24812260199E+02  0.54869732506E+02  0.00000000000E+00 0. -1.
         -4    1    1    2    0  502 -0.25235707882E+02 -0.69405000652E+00  0.32741243014E+02  0.41343822414E+02  0.00000000000E+00 0.  1.
<mgrwt>
<rscale>  1 0.81974940E+02</rscale>
<asrwt>0</asrwt>
<pdfrwt beam="1">  1       21 0.57433217E-02 0.81974940E+02</pdfrwt>
<pdfrwt beam="2">  1       -3 0.13523707E-01 0.81974940E+02</pdfrwt>
<totfact> 0.40795829E+05</totfact>
</mgrwt>
</event>
<event>
 6    2  0.8544106E+000  0.8470319E+02  0.7546771E-02  0.1316211E+00
         21   -1    0    0  501  502  0.00000000000E+00  0.00000000000E+00  0.27159874521E+02  0.27159874521E+02  0.00000000000E+00 0.  1.
          2   -1    0    0  502    0 -0.00000000000E+00 -0.00000000000E+00 -0.13012071046E+03  0.13012071046E+03  0.00000000000E+00 0. -1.
         24    2    1    2    0    0  0.12067416593E+02  0.21508954797E+02 -0.10201992990E+03  0.13259976280E+03  0.81033161833E+02 0.  0.
        -13    1    3    3    0    0 -0.41061655368E+01  0.12229112135E+02  0.11667224499E+02  0.17393559341E+02  0.00000000000E+00 0.  1.
         14    1    3    3    0    0  0.16173582130E+02  0.92798426622E+01 -0.11368715440E+03  0.11520620345E+03  0.00000000000E+00 0. -1.
          1    1    1    2  501    0 -0.12067416593E+02 -0.21508954797E+02 -0.94090604111E+00  0.24680822188E+02  0.00000000000E+00 0. -1.
<mgrwt>
<rscale>  1 0.84703194E+02</rscale>
<asrwt>0</asrwt>
<pdfrwt beam="1">  1       21 0.41784422E-02 0.84703194E+02</pdfrwt>
<pdfrwt beam="2">  1        2 0.20018571E-01 0.84703194E+02</pdfrwt>
<totfact> 0.11397306E+06</totfact>
</mgrwt>
</event>
<event>
 6    2  0.8544106E+000  0.8134561E+02  0.7546771E-02  0.1325276E+00
         21   -1    0    0  501  502  0.00000000000E+00  0.00000000000E+00  0.10890211646E+02  0.10890211646E+02  0.00000000000E+00 0. -1.
          2   -1    0    0  502    0 -0.00000000000E+00 -0.00000000000E+00 -0.24444203788E+03  0.24444203788E+03  0.00000000000E+00 0. -1.
         24    2    1    2    0    0 -0.21751616704E+02 -0.16047201996E+01 -0.18147869648E+03  0.19887590535E+03  0.78367088079E+02 0.  0.
        -11    1    3    3    0    0  0.99123686570E+01  0.58671842786E+01  0.27123915387E+01  0.11833679547E+02  0.00000000000E+00 0.  1.
         12    1    3    3    0    0 -0.31663985361E+02 -0.74719044782E+01 -0.18419108802E+03  0.18704222580E+03  0.00000000000E+00 0. -1.
          1    1    1    2  501    0  0.21751616704E+02  0.16047201996E+01 -0.52073129753E+02  0.56456344183E+02  0.00000000000E+00 0. -1.
<mgrwt>
<rscale>  1 0.81345611E+02</rscale>
<asrwt>0</asrwt>
<pdfrwt beam="1">  1       21 0.16754172E-02 0.81345611E+02</pdfrwt>
<pdfrwt beam="2">  1        2 0.37606466E-01 0.81345611E+02</pdfrwt>
<totfact> 0.25140266E+06</totfact>
</mgrwt>
</event>
<event>
 6    2  0.8544106E+000  0.8689224E+02  0.7546771E-02  0.1310557E+00
         21   -1    0    0  501  502  0.00000000000E+00  0.00000000000E+00  0.85711562682E+02  0.85711562682E+02  0.00000000000E+00 0. -1.
          4   -1    0    0  502    0 -0.00000000000E+00 -0.00000000000E+00 -0.56194776368E+02  0.56194776368E+02  0.00000000000E+00 0. -1.
         24    2    1    2    0    0 -0.16009670233E+02 -0.17764000887E+02 -0.17976500801E+02  0.88732270281E+02  0.83536769986E+02 0.  0.
        -13    1    3    3    0    0 -0.35687879101E+02 -0.22965716754E+02  0.19020239246E+02  0.46506111015E+02  0.00000000000E+00 0.  1.
         14    1    3    3    0    0  0.19678208868E+02  0.52017158669E+01 -0.36996740047E+02  0.42226159266E+02  0.00000000000E+00 0. -1.
          3    1    1    2  501    0  0.16009670233E+02  0.17764000887E+02  0.47493287114E+02  0.53174068769E+02  0.00000000000E+00 0. -1.
<mgrwt>
<rscale>  1 0.86892239E+02</rscale>
<asrwt>0</asrwt>
<pdfrwt beam="1">  1       21 0.13186394E-01 0.86892239E+02</pdfrwt>
<pdfrwt beam="2">  1        4 0.86453502E-02 0.86892239E+02</pdfrwt>
<totfact> 0.17928832E+05</totfact>
</mgrwt>
</event>
<event>
 6    2  0.8544106E+000  0.8129266E+02  0.7546771E-02  0.1325423E+00
         -1   -1    0    0    0  501 -0.00000000000E+00  0.00000000000E+00  0.16133165613E+04  0.16133165613E+04  0.00000000000E+00 0.  1.
         21   -1    0    0  501  502  0.00000000000E+00 -0.00000000000E+00 -0.37036448533E+01  0.37036448533E+01  0.00000000000E+00 0.  1.
         24    2    1    2    0    0  0.43644618367E+01 -0.23275902576E+02  0.15592464709E+04  0.15613641642E+04  0.77766831454E+02 0.  0.
        -11    1    3    3    0    0 -0.14233980534E+02 -0.48126263135E+02  0.99372077297E+03  0.99498729541E+03  0.00000000000E+00 0.  1.
         12    1    3    3    0    0  0.18598442371E+02  0.24850360559E+02  0.56552569796E+03  0.56637686882E+03  0.00000000000E+00 0. -1.
         -2    1    1    2    0  502 -0.43644618367E+01  0.23275902576E+02  0.50366445475E+02  0.55656041879E+02  0.00000000000E+00 0.  1.
<mgrwt>
<rscale>  1 0.81292658E+02</rscale>
<asrwt>0</asrwt>
<pdfrwt beam="1">  1       21 0.56979280E-03 0.81292658E+02</pdfrwt>
<pdfrwt beam="2">  1       -1 0.24820199E+00 0.81292658E+02</pdfrwt>
<totfact> 0.68971985E+04</totfact>
</mgrwt>
</event>
<event>
 6    2  0.8544106E+000  0.1027861E+03  0.7546771E-02  0.1274544E+00
          4   -1    0    0  502    0 -0.00000000000E+00  0.00000000000E+00  0.12443987976E+03  0.12443987976E+03  0.00000000000E+00 0. -1.
         21   -1    0    0  501  502  0.00000000000E+00 -0.00000000000E+00 -0.55617836353E+02  0.55617836353E+02  0.00000000000E+00 0. -1.
         24    2    1    2    0    0 -0.61226655525E+02 -0.15602849597E+02  0.48763642831E+02  0.11376675371E+03  0.81072986409E+02 0.  0.
        -13    1    3    3    0    0  0.14197347870E+02 -0.12108520144E+02 -0.69710923933E+01  0.19919263936E+02  0.00000000000E+00 0.  1.
         14    1    3    3    0    0 -0.75424003394E+02 -0.34943294529E+01  0.55734735225E+02  0.93847489774E+02  0.00000000000E+00 0. -1.
          3    1    1    2  501    0  0.61226655525E+02  0.15602849597E+02  0.20058400572E+02  0.66290962399E+02  0.00000000000E+00 0. -1.
<mgrwt>
<rscale>  1 0.10278610E+03</rscale>
<asrwt>0</asrwt>
<pdfrwt beam="1">  1       21 0.85565903E-02 0.10278610E+03</pdfrwt>
<pdfrwt beam="2">  1        4 0.19144597E-01 0.10278610E+03</pdfrwt>
<totfact> 0.10062500E+05</totfact>
</mgrwt>
</event>
<event>
 6    2  0.8544106E+000  0.8438134E+02  0.7546771E-02  0.1317058E+00
         -3   -1    0    0    0  501 -0.00000000000E+00  0.00000000000E+00  0.39050924188E+03  0.39050924188E+03  0.00000000000E+00 0.  1.
         21   -1    0    0  501  502  0.00000000000E+00 -0.00000000000E+00 -0.27875439564E+02  0.27875439564E+02  0.00000000000E+00 0.  1.
         24    2    1    2    0    0 -0.21147152859E+02 -0.54054769032E+01  0.38076902229E+03  0.39000674181E+03  0.81509441579E+02 0.  0.
        -13    1    3    3    0    0 -0.68273269683E+01 -0.36384792566E+02  0.30066294571E+03  0.30293344558E+03  0.00000000000E+00 0.  1.
         14    1    3    3    0    0 -0.14319825891E+02  0.30979315663E+02  0.80106076578E+02  0.87073296235E+02  0.00000000000E+00 0. -1.
         -4    1    1    2    0  502  0.21147152859E+02  0.54054769032E+01 -0.18135219972E+02  0.28377939637E+02  0.00000000000E+00 0.  1.
<mgrwt>
<rscale>  1 0.84381339E+02</rscale>
<asrwt>0</asrwt>
<pdfrwt beam="1">  1       21 0.42885294E-02 0.84381339E+02</pdfrwt>
<pdfrwt beam="2">  1       -3 0.60078341E-01 0.84381339E+02</pdfrwt>
<totfact> 0.43502316E+04</totfact>
</mgrwt>
</event>
<event>
 6    2  0.8544106E+000  0.8577921E+02  0.7546771E-02  0.1313407E+00
          2   -1    0    0  502    0 -0.00000000000E+00  0.00000000000E+00  0.16333506277E+04  0.16333506277E+04  0.00000000000E+00 0. -1.
         21   -1    0    0  501  502  0.00000000000E+00 -0.00000000000E+00 -0.30353532754E+01  0.30353532754E+01  0.00000000000E+00 0.  1.
         24    2    1    2    0    0 -0.27801245128E+02 -0.19730061616E+01  0.15260787337E+04  0.15284876102E+04  0.81125034602E+02 0.  0.
        -11    1    3    3    0    0 -0.29557484677E+02  0.21618404694E+02  0.30655707084E+03  0.30873651874E+03  0.00000000000E+00 0.  1.
         12    1    3    3    0    0  0.17562395495E+01 -0.23591410856E+02  0.12195216628E+04  0.12197510915E+04  0.00000000000E+00 0. -1.
          1    1    1    2  501    0  0.27801245128E+02  0.19730061616E+01  0.10423654074E+03  0.10789837074E+03  0.00000000000E+00 0. -1.
<mgrwt>
<rscale>  1 0.85779212E+02</rscale>
<asrwt>0</asrwt>
<pdfrwt beam="1">  1       21 0.46697873E-03 0.85779212E+02</pdfrwt>
<pdfrwt beam="2">  1        2 0.25128401E+00 0.85779212E+02</pdfrwt>
<totfact> 0.17693964E+06</totfact>
</mgrwt>
</event>
<event>
 6    2  0.8544106E+000  0.9675162E+02  0.7546771E-02  0.1287279E+00
          4   -1    0    0  502    0 -0.00000000000E+00  0.00000000000E+00  0.40921842659E+02  0.40921842659E+02  0.00000000000E+00 0. -1.
         21   -1    0    0  501  502  0.00000000000E+00 -0.00000000000E+00 -0.13464161549E+03  0.13464161549E+03  0.00000000000E+00 0.  1.
         24    2    1    2    0    0 -0.55074406072E+01 -0.51033196859E+02 -0.67095009172E+02  0.11773961252E+03  0.82013151483E+02 0.  0.
        -11    1    3    3    0    0  0.36548754465E+02 -0.19055115448E+02 -0.15919799697E+02  0.44185392383E+02  0.00000000000E+00 0.  1.
         12    1    3    3    0    0 -0.42056195072E+02 -0.31978081411E+02 -0.51175209475E+02  0.73554220133E+02  0.00000000000E+00 0. -1.
          3    1    1    2  501    0  0.55074406072E+01  0.51033196859E+02 -0.26624763656E+02  0.57823845630E+02  0.00000000000E+00 0. -1.
<mgrwt>
<rscale>  1 0.96751621E+02</rscale>
<asrwt>0</asrwt>
<pdfrwt beam="1">  1       21 0.20714095E-01 0.96751621E+02</pdfrwt>
<pdfrwt beam="2">  1        4 0.62956681E-02 0.96751621E+02</pdfrwt>
<totfact> 0.13587788E+05</totfact>
</mgrwt>
</event>
<event>
 6    2  0.8544106E+000  0.9725580E+02  0.7546771E-02  0.1286175E+00
          2   -1    0    0  502    0 -0.00000000000E+00  0.00000000000E+00  0.25759571490E+03  0.25759571490E+03  0.00000000000E+00 0. -1.
         21   -1    0    0  501  502  0.00000000000E+00 -0.00000000000E+00 -0.36001860005E+02  0.36001860005E+02  0.00000000000E+00 0. -1.
         24    2    1    2    0    0  0.19958287740E+02  0.51870082045E+02  0.21703989955E+03  0.23783399207E+03  0.79811347117E+02 0.  0.
        -11    1    3    3    0    0 -0.54433972503E+01  0.17461748595E+02  0.17918659091E+01  0.18378085348E+02  0.00000000000E+00 0.  1.
         12    1    3    3    0    0  0.25401684990E+02  0.34408333450E+02  0.21524803364E+03  0.21945590672E+03  0.00000000000E+00 0. -1.
          1    1    1    2  501    0 -0.19958287740E+02 -0.51870082045E+02  0.45539553464E+01  0.55763582831E+02  0.00000000000E+00 0. -1.
<mgrwt>
<rscale>  1 0.97255796E+02</rscale>
<asrwt>0</asrwt>
<pdfrwt beam="1">  1       21 0.55387479E-02 0.97255796E+02</pdfrwt>
<pdfrwt beam="2">  1        2 0.39630109E-01 0.97255796E+02</pdfrwt>
<totfact> 0.34619020E+05</totfact>
</mgrwt>
</event>
<event>
 6    2  0.8544106E+000  0.9045204E+02  0.7546771E-02  0.1301761E+00
          2   -1    0    0  502    0 -0.00000000000E+00  0.00000000000E+00  0.24738222367E+04  0.24738222367E+04  0.00000000000E+00 0. -1.
         21   -1    0    0  501  502  0.00000000000E+00 -0.00000000000E+00 -0.26585076847E+01  0.26585076847E+01  0.00000000000E+00 0. -1.
         24    2    1    2    0    0 -0.33334986675E+02 -0.14634795037E+02  0.22850601139E+04  0.22868496443E+04  0.82802010293E+02 0.  0.
        -11    1    3    3    0    0 -0.53172592782E+02 -0.16405952400E+02  0.94216568509E+03  0.94380753231E+03  0.00000000000E+00 0.  1.
         12    1    3    3    0    0  0.19837606107E+02  0.17711573626E+01  0.13428944289E+04  0.13430421120E+04  0.00000000000E+00 0. -1.
          1    1    1    2  501    0  0.33334986675E+02  0.14634795037E+02  0.18610361507E+03  0.18963110005E+03  0.00000000000E+00 0. -1.
<mgrwt>
<rscale>  1 0.90452040E+02</rscale>
<asrwt>0</asrwt>
<pdfrwt beam="1">  1       21 0.40900316E-03 0.90452040E+02</pdfrwt>
<pdfrwt beam="2">  1        2 0.38058619E+00 0.90452040E+02</pdfrwt>
<totfact> 0.81514557E+05</totfact>
</mgrwt>
</event>
<event>
 6    2  0.8544106E+000  0.8270423E+02  0.7546771E-02  0.1321548E+00
          2   -1    0    0  502    0 -0.00000000000E+00  0.00000000000E+00  0.12271241873E+04  0.12271241873E+04  0.00000000000E+00 0. -1.
         21   -1    0    0  501  502  0.00000000000E+00 -0.00000000000E+00 -0.12517733150E+02  0.12517733150E+02  0.00000000000E+00 0. -1.
         24    2    1    2    0    0 -0.19042600189E+02  0.13579242772E+02  0.12134075929E+04  0.12162228316E+04  0.79328261680E+02 0.  0.
        -13    1    3    3    0    0  0.14391696867E+02 -0.25433019318E+02  0.31703151645E+03  0.31837547304E+03  0.00000000000E+00 0.  1.
         14    1    3    3    0    0 -0.33434297056E+02  0.39012262089E+02  0.89637607643E+03  0.89784735853E+03  0.00000000000E+00 0. -1.
          1    1    1    2  501    0  0.19042600189E+02 -0.13579242772E+02  0.11988612766E+01  0.23419088893E+02  0.00000000000E+00 0. -1.
<mgrwt>
<rscale>  1 0.82704229E+02</rscale>
<asrwt>0</asrwt>
<pdfrwt beam="1">  1       21 0.19258061E-02 0.82704229E+02</pdfrwt>
<pdfrwt beam="2">  1        2 0.18878824E+00 0.82704229E+02</pdfrwt>
<totfact> 0.31426631E+05</totfact>
</mgrwt>
</event>
<event>
 6    2  0.8544106E+000  0.8740724E+02  0.7546771E-02  0.1309255E+00
          2   -1    0    0  502    0 -0.00000000000E+00  0.00000000000E+00  0.53330859831E+03  0.53330859831E+03  0.00000000000E+00 0. -1.
         21   -1    0    0  501  502  0.00000000000E+00 -0.00000000000E+00 -0.47140060072E+02  0.47140060072E+02  0.00000000000E+00 0. -1.
         24    2    1    2    0    0  0.30016628519E+02  0.15050523479E+02  0.52320532872E+03  0.53045625802E+03  0.80700120359E+02 0.  0.
        -11    1    3    3    0    0 -0.26957715187E+02  0.12142067557E+02  0.14626366976E+03  0.14922201347E+03  0.00000000000E+00 0.  1.
         12    1    3    3    0    0  0.56974343706E+02  0.29084559217E+01  0.37694165896E+03  0.38123424454E+03  0.00000000000E+00 0. -1.
          1    1    1    2  501    0 -0.30016628519E+02 -0.15050523479E+02 -0.37036790484E+02  0.49992400362E+02  0.00000000000E+00 0. -1.
<mgrwt>
<rscale>  1 0.87407240E+02</rscale>
<asrwt>0</asrwt>
<pdfrwt beam="1">  1       21 0.72523173E-02 0.87407240E+02</pdfrwt>
<pdfrwt beam="2">  1        2 0.82047473E-01 0.87407240E+02</pdfrwt>
<totfact> 0.10126940E+05</totfact>
</mgrwt>
</event>
<event>
 6    2  0.8544106E+000  0.8496577E+02  0.7546771E-02  0.1315522E+00
         21   -1    0    0  501  502  0.00000000000E+00  0.00000000000E+00  0.12019384900E+04  0.12019384900E+04  0.00000000000E+00 0. -1.
         -3   -1    0    0    0  501 -0.00000000000E+00 -0.00000000000E+00 -0.27249284854E+01  0.27249284854E+01  0.00000000000E+00 0.  1.
         24    2    1    2    0    0  0.11993255372E+02  0.25734239150E+02  0.96558337411E+03  0.96931441444E+03  0.80081785953E+02 0.  0.
        -13    1    3    3    0    0 -0.73905437667E+01 -0.55483860828E+01  0.12626179263E+02  0.15646888767E+02  0.00000000000E+00 0.  1.
         14    1    3    3    0    0  0.19383799139E+02  0.31282625233E+02  0.95295719484E+03  0.95366752567E+03  0.00000000000E+00 0. -1.
         -4    1    1    2    0  502 -0.11993255372E+02 -0.25734239150E+02  0.23363018737E+03  0.23534900401E+03  0.00000000000E+00 0.  1.
<mgrwt>
<rscale>  1 0.84965768E+02</rscale>
<asrwt>0</asrwt>
<pdfrwt beam="1">  1       21 0.18491319E+00 0.84965768E+02</pdfrwt>
<pdfrwt beam="2">  1       -3 0.41922073E-03 0.84965768E+02</pdfrwt>
<totfact> 0.79127083E+04</totfact>
</mgrwt>
</event>
<event>
 6    2  0.8544106E+000  0.8580088E+02  0.7546771E-02  0.1313351E+00
         21   -1    0    0  501  502  0.00000000000E+00  0.00000000000E+00  0.99525116197E+02  0.99525116197E+02  0.00000000000E+00 0. -1.
          2   -1    0    0  502    0 -0.00000000000E+00 -0.00000000000E+00 -0.13466474028E+03  0.13466474028E+03  0.00000000000E+00 0. -1.
         24    2    1    2    0    0 -0.22157608300E+02 -0.70955220983E+01 -0.11925654148E+03  0.14691464904E+03  0.82586229941E+02 0.  0.
        -11    1    3    3    0    0 -0.25575026654E+02  0.12752446649E+02 -0.27836707481E+01  0.28713336740E+02  0.00000000000E+00 0.  1.
         12    1    3    3    0    0  0.34174183542E+01 -0.19847968747E+02 -0.11647287074E+03  0.11820131230E+03  0.00000000000E+00 0. -1.
          1    1    1    2  501    0  0.22157608300E+02  0.70955220983E+01  0.84116917403E+02  0.87275207435E+02  0.00000000000E+00 0. -1.
<mgrwt>
<rscale>  1 0.85800882E+02</rscale>
<asrwt>0</asrwt>
<pdfrwt beam="1">  1       21 0.15311556E-01 0.85800882E+02</pdfrwt>
<pdfrwt beam="2">  1        2 0.20717652E-01 0.85800882E+02</pdfrwt>
<totfact> 0.11934994E+05</totfact>
</mgrwt>
</event>
<event>
 6    2  0.8544106E+000  0.8914358E+02  0.7546771E-02  0.1304939E+00
         -1   -1    0    0    0  501 -0.00000000000E+00  0.00000000000E+00  0.46268427419E+01  0.46268427419E+01  0.00000000000E+00 0.  1.
         21   -1    0    0  501  502  0.00000000000E+00 -0.00000000000E+00 -0.13699881107E+04  0.13699881107E+04  0.00000000000E+00 0.  1.
         24    2    1    2    0    0 -0.11023261415E+02  0.23453219463E+02 -0.44249885156E+03  0.45138875939E+03  0.85293684823E+02 0.  0.
        -13    1    3    3    0    0 -0.66073963161E+01  0.12194881667E+02 -0.66667445182E+01  0.15388902087E+02  0.00000000000E+00 0.  1.
         14    1    3    3    0    0 -0.44158650986E+01  0.11258337795E+02 -0.43583210705E+03  0.43599985730E+03  0.00000000000E+00 0. -1.
         -2    1    1    2    0  502  0.11023261415E+02 -0.23453219463E+02 -0.92286241642E+03  0.92322619408E+03  0.00000000000E+00 0.  1.
<mgrwt>
<rscale>  1 0.89143583E+02</rscale>
<asrwt>0</asrwt>
<pdfrwt beam="1">  1       21 0.21076779E+00 0.89143583E+02</pdfrwt>
<pdfrwt beam="2">  1       -1 0.71182066E-03 0.89143583E+02</pdfrwt>
<totfact> 0.31008585E+04</totfact>
</mgrwt>
</event>
<event>
 6    2  0.8544106E+000  0.8659474E+02  0.7546771E-02  0.1311314E+00
          2   -1    0    0  502    0 -0.00000000000E+00  0.00000000000E+00  0.49447650571E+03  0.49447650571E+03  0.00000000000E+00 0. -1.
         21   -1    0    0  501  502  0.00000000000E+00 -0.00000000000E+00 -0.14635539440E+02  0.14635539440E+02  0.00000000000E+00 0. -1.
         24    2    1    2    0    0  0.21098318834E+02 -0.91792738430E+01  0.47827403092E+03  0.48605009787E+03  0.83482039152E+02 0.  0.
        -13    1    3    3    0    0 -0.29858047158E+02  0.11934968857E+01  0.10492971626E+03  0.10910166254E+03  0.00000000000E+00 0.  1.
         14    1    3    3    0    0  0.50956365992E+02 -0.10372770729E+02  0.37334431466E+03  0.37694843533E+03  0.00000000000E+00 0. -1.
          1    1    1    2  501    0 -0.21098318834E+02  0.91792738430E+01  0.15669353496E+01  0.23061947279E+02  0.00000000000E+00 0. -1.
<mgrwt>
<rscale>  1 0.86594740E+02</rscale>
<asrwt>0</asrwt>
<pdfrwt beam="1">  1       21 0.22516218E-02 0.86594740E+02</pdfrwt>
<pdfrwt beam="2">  1        2 0.76073296E-01 0.86594740E+02</pdfrwt>
<totfact> 0.75440110E+05</totfact>
</mgrwt>
</event>
<event>
 6    2  0.8544106E+000  0.8926701E+02  0.7546771E-02  0.1304637E+00
         21   -1    0    0  501  502  0.00000000000E+00  0.00000000000E+00  0.37235441754E+01  0.37235441754E+01  0.00000000000E+00 0. -1.
         -1   -1    0    0    0  501 -0.00000000000E+00 -0.00000000000E+00 -0.15185752768E+04  0.15185752768E+04  0.00000000000E+00 0.  1.
         24    2    1    2    0    0  0.21757029476E+02 -0.20909153883E+02 -0.56846951376E+03  0.57543564965E+03  0.84012128617E+02 0.  0.
        -11    1    3    3    0    0  0.97516062241E+01  0.32192448144E+02 -0.26437127072E+03  0.26650256345E+03  0.00000000000E+00 0.  1.
         12    1    3    3    0    0  0.12005423252E+02 -0.53101602027E+02 -0.30409824304E+03  0.30893308620E+03  0.00000000000E+00 0. -1.
         -2    1    1    2    0  502 -0.21757029476E+02  0.20909153883E+02 -0.94638221890E+03  0.94686317137E+03  0.00000000000E+00 0.  1.
<mgrwt>
<rscale>  1 0.89267008E+02</rscale>
<asrwt>0</asrwt>
<pdfrwt beam="1">  1       21 0.57285345E-03 0.89267008E+02</pdfrwt>
<pdfrwt beam="2">  1       -1 0.23362676E+00 0.89267008E+02</pdfrwt>
<totfact> 0.84522286E+04</totfact>
</mgrwt>
</event>
<event>
 6    2  0.8544106E+000  0.9212303E+02  0.7546771E-02  0.1297790E+00
          2   -1    0    0  502    0 -0.00000000000E+00  0.00000000000E+00  0.12229356237E+02  0.12229356237E+02  0.00000000000E+00 0. -1.
         21   -1    0    0  501  502  0.00000000000E+00 -0.00000000000E+00 -0.43016140627E+03  0.43016140627E+03  0.00000000000E+00 0. -1.
         24    2    1    2    0    0 -0.38997043941E+02  0.13273598084E+02 -0.19475968712E+03  0.21544834380E+03  0.82399607254E+02 0.  0.
        -11    1    3    3    0    0  0.84907168416E+01  0.36932754598E+02 -0.64666363335E+02  0.74952379427E+02  0.00000000000E+00 0.  1.
         12    1    3    3    0    0 -0.47487760782E+02 -0.23659156514E+02 -0.13009332379E+03  0.14049596437E+03  0.00000000000E+00 0. -1.
          1    1    1    2  501    0  0.38997043941E+02 -0.13273598084E+02 -0.22317236291E+03  0.22694241871E+03  0.00000000000E+00 0. -1.
<mgrwt>
<rscale>  1 0.92123033E+02</rscale>
<asrwt>0</asrwt>
<pdfrwt beam="1">  1       21 0.66178675E-01 0.92123033E+02</pdfrwt>
<pdfrwt beam="2">  1        2 0.18814395E-02 0.92123033E+02</pdfrwt>
<totfact> 0.14282649E+05</totfact>
</mgrwt>
</event>
<event>
 6    2  0.8544106E+000  0.1053476E+03  0.7546771E-02  0.1269436E+00
         -1   -1    0    0    0  501 -0.00000000000E+00  0.00000000000E+00  0.80149930225E+03  0.80149930225E+03  0.00000000000E+00 0.  1.
         21   -1    0    0  501  502  0.00000000000E+00 -0.00000000000E+00 -0.95531738090E+01  0.95531738090E+01  0.00000000000E+00 0. -1.
         24    2    1    2    0    0 -0.54984875885E+02 -0.40119017754E+02  0.42620210571E+03  0.43902887153E+03  0.80406734578E+02 0.  0.
        -11    1    3    3    0    0  0.18295720122E+02  0.20935199220E+01  0.11826689491E+03  0.11969199903E+03  0.00000000000E+00 0.  1.
         12    1    3    3    0    0 -0.73280596007E+02 -0.42212537676E+02  0.30793521080E+03  0.31933687250E+03  0.00000000000E+00 0. -1.
         -2    1    1    2    0  502  0.54984875885E+02  0.40119017754E+02  0.36574402273E+03  0.37202360453E+03  0.00000000000E+00 0.  1.
<mgrwt>
<rscale>  1 0.10534759E+03</rscale>
<asrwt>0</asrwt>
<pdfrwt beam="1">  1       21 0.14697197E-02 0.10534759E+03</pdfrwt>
<pdfrwt beam="2">  1       -1 0.12330753E+00 0.10534759E+03</pdfrwt>
<totfact> 0.11502031E+05</totfact>
</mgrwt>
</event>
<event>
 6    2  0.8544106E+000  0.7733210E+02  0.7546771E-02  0.1336798E+00
         21   -1    0    0  501  502  0.00000000000E+00  0.00000000000E+00  0.10881348889E+03  0.10881348889E+03  0.00000000000E+00 0. -1.
         -3   -1    0    0    0  501 -0.00000000000E+00 -0.00000000000E+00 -0.30037400379E+02  0.30037400379E+02  0.00000000000E+00 0.  1.
         24    2    1    2    0    0 -0.13716616794E+01 -0.32599071497E+02  0.36678883665E+02  0.85589687874E+02  0.70111862371E+02 0.  0.
        -13    1    3    3    0    0 -0.22973228104E+02  0.12401760860E+02  0.20245841025E+02  0.33037357048E+02  0.00000000000E+00 0.  1.
         14    1    3    3    0    0  0.21601566424E+02 -0.45000832357E+02  0.16433042640E+02  0.52552330826E+02  0.00000000000E+00 0. -1.
         -4    1    1    2    0  502  0.13716616794E+01  0.32599071497E+02  0.42097204845E+02  0.53261201394E+02  0.00000000000E+00 0.  1.
<mgrwt>
<rscale>  1 0.77332103E+02</rscale>
<asrwt>0</asrwt>
<pdfrwt beam="1">  1       21 0.16740537E-01 0.77332103E+02</pdfrwt>
<pdfrwt beam="2">  1       -3 0.46211386E-02 0.77332103E+02</pdfrwt>
<totfact> 0.35778490E+05</totfact>
</mgrwt>
</event>
<event>
 6    2  0.8544106E+000  0.8440080E+02  0.7546771E-02  0.1317007E+00
         21   -1    0    0  501  502  0.00000000000E+00  0.00000000000E+00  0.34883419582E+01  0.34883419582E+01  0.00000000000E+00 0.  1.
          2   -1    0    0  502    0 -0.00000000000E+00 -0.00000000000E+00 -0.80755765697E+03  0.80755765697E+03  0.00000000000E+00 0. -1.
         24    2    1    2    0    0  0.11298332310E+02  0.18543655392E+02 -0.64792038740E+03  0.65339446210E+03  0.81559642183E+02 0.  0.
        -13    1    3    3    0    0  0.17156696909E+02  0.24908546341E+02 -0.81873645089E+02  0.87281622864E+02  0.00000000000E+00 0.  1.
         14    1    3    3    0    0 -0.58583645992E+01 -0.63648909489E+01 -0.56604674231E+03  0.56611283924E+03  0.00000000000E+00 0. -1.
          1    1    1    2  501    0 -0.11298332310E+02 -0.18543655392E+02 -0.15614892761E+03  0.15765153682E+03  0.00000000000E+00 0. -1.
<mgrwt>
<rscale>  1 0.84400798E+02</rscale>
<asrwt>0</asrwt>
<pdfrwt beam="1">  1       21 0.53666750E-03 0.84400798E+02</pdfrwt>
<pdfrwt beam="2">  1        2 0.12423975E+00 0.84400798E+02</pdfrwt>
<totfact> 0.40732659E+06</totfact>
</mgrwt>
</event>
<event>
 6    2  0.8993432E+000  0.8344958E+02  0.7546771E-02  0.1319538E+00
         21   -1    0    0  501  502  0.00000000000E+00  0.00000000000E+00  0.92263242439E+02  0.92263242439E+02  0.00000000000E+00 0. -1.
         -1   -1    0    0    0  501 -0.00000000000E+00 -0.00000000000E+00 -0.74924524654E+02  0.74924524654E+02  0.00000000000E+00 0.  1.
         24    2    1    2    0    0 -0.64996081791E+01  0.22184869383E+02  0.70483626097E+02  0.10923265847E+03  0.80183656641E+02 0.  0.
        -13    1    3    3    0    0  0.16701990035E+02 -0.26071655129E+01 -0.11533901842E+02  0.20464229153E+02  0.00000000000E+00 0.  1.
         14    1    3    3    0    0 -0.23201598214E+02  0.24792034896E+02  0.82017527939E+02  0.88768429316E+02  0.00000000000E+00 0. -1.
         -2    1    1    2    0  502  0.64996081791E+01 -0.22184869383E+02 -0.53144908312E+02  0.57955108623E+02  0.00000000000E+00 0.  1.
<mgrwt>
<rscale>  1 0.83449578E+02</rscale>
<asrwt>0</asrwt>
<pdfrwt beam="1">  1       21 0.14194345E-01 0.83449578E+02</pdfrwt>
<pdfrwt beam="2">  1       -1 0.11526850E-01 0.83449578E+02</pdfrwt>
<totfact> 0.17929124E+05</totfact>
</mgrwt>
</event>
<event>
 6    2  0.8544106E+000  0.8514008E+02  0.7546771E-02  0.1315067E+00
          2   -1    0    0  502    0 -0.00000000000E+00  0.00000000000E+00  0.89163946678E+03  0.89163946678E+03  0.00000000000E+00 0. -1.
         21   -1    0    0  501  502  0.00000000000E+00 -0.00000000000E+00 -0.49744042378E+01  0.49744042378E+01  0.00000000000E+00 0. -1.
         24    2    1    2    0    0 -0.22252840082E+02  0.16445831527E+02  0.82036634673E+03  0.82477255989E+03  0.80518186969E+02 0.  0.
        -11    1    3    3    0    0  0.18515582740E+02 -0.14780550514E+02  0.10850694167E+03  0.11106326066E+03  0.00000000000E+00 0.  1.
         12    1    3    3    0    0 -0.40768422822E+02  0.31226382041E+02  0.71185940506E+03  0.71370929923E+03  0.00000000000E+00 0. -1.
          1    1    1    2  501    0  0.22252840082E+02 -0.16445831527E+02  0.66298715811E+02  0.71841311128E+02  0.00000000000E+00 0. -1.
<mgrwt>
<rscale>  1 0.85140077E+02</rscale>
<asrwt>0</asrwt>
<pdfrwt beam="1">  1       21 0.76529367E-03 0.85140077E+02</pdfrwt>
<pdfrwt beam="2">  1        2 0.13717518E+00 0.85140077E+02</pdfrwt>
<totfact> 0.20860146E+06</totfact>
</mgrwt>
</event>
<event>
 6    2  0.8544106E+000  0.8640402E+02  0.7546771E-02  0.1311801E+00
          2   -1    0    0  502    0 -0.00000000000E+00  0.00000000000E+00  0.34751350110E+03  0.34751350110E+03  0.00000000000E+00 0. -1.
         21   -1    0    0  501  502  0.00000000000E+00 -0.00000000000E+00 -0.19322922150E+02  0.19322922150E+02  0.00000000000E+00 0. -1.
         24    2    1    2    0    0  0.33510484982E+02 -0.34384675822E+01  0.84590463225E+02  0.12091816032E+03  0.79566823253E+02 0.  0.
        -11    1    3    3    0    0 -0.23212439995E+02 -0.12010548122E+02  0.42006222802E+02  0.49473158286E+02  0.00000000000E+00 0.  1.
         12    1    3    3    0    0  0.56722924976E+02  0.85720805399E+01  0.42584240423E+02  0.71445002030E+02  0.00000000000E+00 0. -1.
          1    1    1    2  501    0 -0.33510484982E+02  0.34384675822E+01  0.24360011572E+03  0.24591826293E+03  0.00000000000E+00 0. -1.
<mgrwt>
<rscale>  1 0.86404022E+02</rscale>
<asrwt>0</asrwt>
<pdfrwt beam="1">  1       21 0.29727575E-02 0.86404022E+02</pdfrwt>
<pdfrwt beam="2">  1        2 0.53463611E-01 0.86404022E+02</pdfrwt>
<totfact> 0.69915404E+05</totfact>
</mgrwt>
</event>
<event>
 6    2  0.8544106E+000  0.8591934E+02  0.7546771E-02  0.1313046E+00
          4   -1    0    0  502    0 -0.00000000000E+00  0.00000000000E+00  0.82100931114E+03  0.82100931114E+03  0.00000000000E+00 0. -1.
         21   -1    0    0  501  502  0.00000000000E+00 -0.00000000000E+00 -0.11218741471E+02  0.11218741471E+02  0.00000000000E+00 0. -1.
         24    2    1    2    0    0  0.66037681618E+01 -0.28744994630E+02  0.79426280159E+03  0.79889644522E+03  0.80698498842E+02 0.  0.
        -11    1    3    3    0    0 -0.12222886771E+02 -0.37157340950E+02  0.17619475817E+03  0.18048451389E+03  0.00000000000E+00 0.  1.
         12    1    3    3    0    0  0.18826654932E+02  0.84123463206E+01  0.61806804342E+03  0.61841193133E+03  0.00000000000E+00 0. -1.
          3    1    1    2  501    0 -0.66037681618E+01  0.28744994630E+02  0.15527768080E+02  0.33331607398E+02  0.00000000000E+00 0. -1.
<mgrwt>
<rscale>  1 0.85919335E+02</rscale>
<asrwt>0</asrwt>
<pdfrwt beam="1">  1       21 0.17259609E-02 0.85919335E+02</pdfrwt>
<pdfrwt beam="2">  1        4 0.12630908E+00 0.85919335E+02</pdfrwt>
<totfact> 0.29220607E+04</totfact>
</mgrwt>
</event>
<event>
 6    2  0.8544106E+000  0.8711240E+02  0.7546771E-02  0.1309999E+00
         21   -1    0    0  501  502  0.00000000000E+00  0.00000000000E+00  0.18511472684E+02  0.18511472684E+02  0.00000000000E+00 0. -1.
          2   -1    0    0  502    0 -0.00000000000E+00 -0.00000000000E+00 -0.25215207132E+03  0.25215207132E+03  0.00000000000E+00 0. -1.
         24    2    1    2    0    0  0.16901460685E+02 -0.22068427989E+02 -0.22543512258E+03  0.24168070901E+03  0.82558438256E+02 0.  0.
        -13    1    3    3    0    0  0.16749349948E+02  0.26257651870E+02 -0.43916972538E+02  0.53839627435E+02  0.00000000000E+00 0.  1.
         14    1    3    3    0    0  0.15211073710E+00 -0.48326079860E+02 -0.18151815004E+03  0.18784108157E+03  0.00000000000E+00 0. -1.
          1    1    1    2  501    0 -0.16901460685E+02  0.22068427989E+02 -0.82054760609E+01  0.28982834999E+02  0.00000000000E+00 0. -1.
<mgrwt>
<rscale>  1 0.87112402E+02</rscale>
<asrwt>0</asrwt>
<pdfrwt beam="1">  1       21 0.28479190E-02 0.87112402E+02</pdfrwt>
<pdfrwt beam="2">  1        2 0.38792625E-01 0.87112402E+02</pdfrwt>
<totfact> 0.10486204E+06</totfact>
</mgrwt>
</event>
<event>
 6    2  0.8544106E+000  0.8389137E+02  0.7546771E-02  0.1318357E+00
          2   -1    0    0  502    0 -0.00000000000E+00  0.00000000000E+00  0.33153025748E+04  0.33153025748E+04  0.00000000000E+00 0. -1.
         21   -1    0    0  501  502  0.00000000000E+00 -0.00000000000E+00 -0.96055717834E+00  0.96055717834E+00  0.00000000000E+00 0. -1.
         24    2    1    2    0    0  0.18552397173E+02  0.13141099665E+02  0.29623662798E+04  0.29635539033E+04  0.80751981100E+02 0.  0.
        -11    1    3    3    0    0 -0.11845398320E+02 -0.16538341172E+02  0.24129754069E+03  0.24215353257E+03  0.00000000000E+00 0.  1.
         12    1    3    3    0    0  0.30397795492E+02  0.29679440838E+02  0.27210687391E+04  0.27214003707E+04  0.00000000000E+00 0. -1.
          1    1    1    2  501    0 -0.18552397173E+02 -0.13141099665E+02  0.35197573789E+03  0.35270922869E+03  0.00000000000E+00 0. -1.
<mgrwt>
<rscale>  1 0.83891373E+02</rscale>
<asrwt>0</asrwt>
<pdfrwt beam="1">  1       21 0.14778068E-03 0.83891373E+02</pdfrwt>
<pdfrwt beam="2">  1        2 0.51003739E+00 0.83891373E+02</pdfrwt>
<totfact> 0.12720681E+06</totfact>
</mgrwt>
</event>
<event>
 6    2  0.8544106E+000  0.8780866E+02  0.7546771E-02  0.1308247E+00
         21   -1    0    0  501  502  0.00000000000E+00  0.00000000000E+00  0.11005240639E+04  0.11005240639E+04  0.00000000000E+00 0. -1.
          2   -1    0    0  502    0 -0.00000000000E+00 -0.00000000000E+00 -0.15868800223E+02  0.15868800223E+02  0.00000000000E+00 0. -1.
         24    2    1    2    0    0 -0.35900724607E+02 -0.32170285625E+01  0.10853500936E+03  0.13960733895E+03  0.80069654253E+02 0.  0.
        -13    1    3    3    0    0  0.89254959730E+01  0.29798650440E+02  0.49495520054E+02  0.58458793622E+02  0.00000000000E+00 0.  1.
         14    1    3    3    0    0 -0.44826220580E+02 -0.33015679002E+02  0.59039489309E+02  0.81148545331E+02  0.00000000000E+00 0. -1.
          1    1    1    2  501    0  0.35900724607E+02  0.32170285625E+01  0.97612025433E+03  0.97678552519E+03  0.00000000000E+00 0. -1.
<mgrwt>
<rscale>  1 0.87808660E+02</rscale>
<asrwt>0</asrwt>
<pdfrwt beam="1">  1       21 0.16931133E+00 0.87808660E+02</pdfrwt>
<pdfrwt beam="2">  1        2 0.24413547E-02 0.87808660E+02</pdfrwt>
<totfact> 0.10994801E+04</totfact>
</mgrwt>
</event>
<event>
 6    2  0.8544106E+000  0.8977548E+02  0.7546771E-02  0.1303396E+00
         21   -1    0    0  501  502  0.00000000000E+00  0.00000000000E+00  0.13844673141E+03  0.13844673141E+03  0.00000000000E+00 0.  1.
          2   -1    0    0  502    0 -0.00000000000E+00 -0.00000000000E+00 -0.33521989554E+02  0.33521989554E+02  0.00000000000E+00 0. -1.
         24    2    1    2    0    0 -0.36375712623E+02  0.18668147501E+02  0.93264250566E+02  0.12945214470E+03  0.79924621574E+02 0.  0.
        -11    1    3    3    0    0 -0.56913919610E+02  0.24708918632E+02  0.87528108167E+02  0.10728883737E+03  0.00000000000E+00 0.  1.
         12    1    3    3    0    0  0.20538206987E+02 -0.60407711309E+01  0.57361423995E+01  0.22163307328E+02  0.00000000000E+00 0. -1.
          1    1    1    2  501    0  0.36375712623E+02 -0.18668147501E+02  0.11660491286E+02  0.42516576261E+02  0.00000000000E+00 0. -1.
<mgrwt>
<rscale>  1 0.89775483E+02</rscale>
<asrwt>0</asrwt>
<pdfrwt beam="1">  1       21 0.21299497E-01 0.89775483E+02</pdfrwt>
<pdfrwt beam="2">  1        2 0.51572293E-02 0.89775483E+02</pdfrwt>
<totfact> 0.35085289E+05</totfact>
</mgrwt>
</event>
<event>
 6    2  0.8544106E+000  0.9312149E+02  0.7546771E-02  0.1295464E+00
          2   -1    0    0  502    0 -0.00000000000E+00  0.00000000000E+00  0.65147896924E+03  0.65147896924E+03  0.00000000000E+00 0. -1.
         21   -1    0    0  501  502  0.00000000000E+00 -0.00000000000E+00 -0.70990827719E+01  0.70990827719E+01  0.00000000000E+00 0.  1.
         24    2    1    2    0    0 -0.21731853572E+02  0.36766110385E+02  0.45731779487E+03  0.46670245053E+03  0.82750175163E+02 0.  0.
        -11    1    3    3    0    0  0.12081356772E+02  0.16970666695E+02  0.24690634207E+02  0.32304645596E+02  0.00000000000E+00 0.  1.
         12    1    3    3    0    0 -0.33813210344E+02  0.19795443690E+02  0.43262716066E+03  0.43439780493E+03  0.00000000000E+00 0. -1.
          1    1    1    2  501    0  0.21731853572E+02 -0.36766110385E+02  0.18706209159E+03  0.19187560148E+03  0.00000000000E+00 0. -1.
<mgrwt>
<rscale>  1 0.93121490E+02</rscale>
<asrwt>0</asrwt>
<pdfrwt beam="1">  1       21 0.10921671E-02 0.93121490E+02</pdfrwt>
<pdfrwt beam="2">  1        2 0.10022749E+00 0.93121490E+02</pdfrwt>
<totfact> 0.17639731E+06</totfact>
</mgrwt>
</event>
<event>
 6    2  0.8544106E+000  0.8704445E+02  0.7546771E-02  0.1310171E+00
         21   -1    0    0  501  502  0.00000000000E+00  0.00000000000E+00  0.46974006326E+02  0.46974006326E+02  0.00000000000E+00 0. -1.
          2   -1    0    0  502    0 -0.00000000000E+00 -0.00000000000E+00 -0.90531043056E+02  0.90531043056E+02  0.00000000000E+00 0. -1.
         24    2    1    2    0    0 -0.30120256840E+02  0.35098175576E+01 -0.57300714747E+02  0.10421184622E+03  0.81591594485E+02 0.  0.
        -13    1    3    3    0    0 -0.44201133849E+02  0.17275635785E+02 -0.42769054733E+01  0.47649551369E+02  0.00000000000E+00 0.  1.
         14    1    3    3    0    0  0.14080877009E+02 -0.13765818227E+02 -0.53023809274E+02  0.56562294850E+02  0.00000000000E+00 0. -1.
          1    1    1    2  501    0  0.30120256840E+02 -0.35098175576E+01  0.13743678017E+02  0.33293203163E+02  0.00000000000E+00 0. -1.
<mgrwt>
<rscale>  1 0.87044454E+02</rscale>
<asrwt>0</asrwt>
<pdfrwt beam="1">  1       21 0.72267703E-02 0.87044454E+02</pdfrwt>
<pdfrwt beam="2">  1        2 0.13927853E-01 0.87044454E+02</pdfrwt>
<totfact> 0.69208212E+05</totfact>
</mgrwt>
</event>
<event>
 6    2  0.8544106E+000  0.8707782E+02  0.7546771E-02  0.1310087E+00
         21   -1    0    0  501  502  0.00000000000E+00  0.00000000000E+00  0.50639048948E+01  0.50639048948E+01  0.00000000000E+00 0.  1.
          2   -1    0    0  502    0 -0.00000000000E+00 -0.00000000000E+00 -0.72066648696E+03  0.72066648696E+03  0.00000000000E+00 0. -1.
         24    2    1    2    0    0 -0.15444541453E+02  0.19215999685E+02 -0.64698044757E+03  0.65281409843E+03  0.83515022973E+02 0.  0.
        -13    1    3    3    0    0 -0.19699431143E+02  0.54244057022E+01 -0.34024602963E+02  0.39688353094E+02  0.00000000000E+00 0.  1.
         14    1    3    3    0    0  0.42548896899E+01  0.13791593983E+02 -0.61295584461E+03  0.61312574533E+03  0.00000000000E+00 0. -1.
          1    1    1    2  501    0  0.15444541453E+02 -0.19215999685E+02 -0.68622134494E+02  0.72916293427E+02  0.00000000000E+00 0. -1.
<mgrwt>
<rscale>  1 0.87077825E+02</rscale>
<asrwt>0</asrwt>
<pdfrwt beam="1">  1       21 0.77906264E-03 0.87077825E+02</pdfrwt>
<pdfrwt beam="2">  1        2 0.11087172E+00 0.87077825E+02</pdfrwt>
<totfact> 0.26379620E+06</totfact>
</mgrwt>
</event>
<event>
 6    2  0.8544106E+000  0.8663738E+02  0.7546771E-02  0.1311205E+00
          2   -1    0    0  502    0 -0.00000000000E+00  0.00000000000E+00  0.33507757003E+03  0.33507757003E+03  0.00000000000E+00 0. -1.
         21   -1    0    0  501  502  0.00000000000E+00 -0.00000000000E+00 -0.22620429677E+02  0.22620429677E+02  0.00000000000E+00 0. -1.
         24    2    1    2    0    0  0.60291606813E+01 -0.24737687231E+02  0.31969583801E+03  0.33122721029E+03  0.82811424621E+02 0.  0.
        -11    1    3    3    0    0 -0.29351688100E+01  0.95280559421E+01  0.40527496820E+00  0.99781417998E+01  0.00000000000E+00 0.  1.
         12    1    3    3    0    0  0.89643294912E+01 -0.34265743173E+02  0.31929056304E+03  0.32124906849E+03  0.00000000000E+00 0. -1.
          1    1    1    2  501    0 -0.60291606813E+01  0.24737687231E+02 -0.72386976647E+01  0.26470789409E+02  0.00000000000E+00 0. -1.
<mgrwt>
<rscale>  1 0.86637382E+02</rscale>
<asrwt>0</asrwt>
<pdfrwt beam="1">  1       21 0.34800663E-02 0.86637382E+02</pdfrwt>
<pdfrwt beam="2">  1        2 0.51550392E-01 0.86637382E+02</pdfrwt>
<totfact> 0.56203220E+05</totfact>
</mgrwt>
</event>
<event>
 6    2  0.8544106E+000  0.1866567E+03  0.7546771E-02  0.1161512E+00
         -1   -1    0    0    0  501 -0.00000000000E+00  0.00000000000E+00  0.54762541989E+03  0.54762541989E+03  0.00000000000E+00 0.  1.
         21   -1    0    0  501  502  0.00000000000E+00 -0.00000000000E+00 -0.58605863172E+02  0.58605863172E+02  0.00000000000E+00 0.  1.
         24    2    1    2    0    0  0.11684266986E+03 -0.12139313589E+03  0.21674072490E+03  0.28603717757E+03  0.80325725513E+02 0.  0.
        -11    1    3    3    0    0  0.50431083703E+02 -0.10434741169E+03  0.15669171436E+03  0.19489476616E+03  0.00000000000E+00 0.  1.
         12    1    3    3    0    0  0.66411586154E+02 -0.17045724196E+02  0.60049010548E+02  0.91142411405E+02  0.00000000000E+00 0. -1.
         -2    1    1    2    0  502 -0.11684266986E+03  0.12139313589E+03  0.27227883181E+03  0.32019410549E+03  0.00000000000E+00 0.  1.
<mgrwt>
<rscale>  1 0.18665670E+03</rscale>
<asrwt>0</asrwt>
<pdfrwt beam="1">  1       21 0.90162870E-02 0.18665670E+03</pdfrwt>
<pdfrwt beam="2">  1       -1 0.84250061E-01 0.18665670E+03</pdfrwt>
<totfact> 0.13330046E+04</totfact>
</mgrwt>
</event>
<event>
 6    2  0.8544106E+000  0.8239990E+02  0.7546771E-02  0.1322376E+00
         -1   -1    0    0    0  501 -0.00000000000E+00  0.00000000000E+00  0.92333530320E+01  0.92333530320E+01  0.00000000000E+00 0.  1.
         21   -1    0    0  501  502  0.00000000000E+00 -0.00000000000E+00 -0.49565081896E+03  0.49565081896E+03  0.00000000000E+00 0.  1.
         24    2    1    2    0    0 -0.28162092530E+02 -0.24988729028E+02 -0.20470487704E+03  0.22066678552E+03  0.73295317137E+02 0.  0.
        -11    1    3    3    0    0  0.15120059133E+01 -0.34634949093E+02 -0.39563942528E+02  0.52603910586E+02  0.00000000000E+00 0.  1.
         12    1    3    3    0    0 -0.29674098444E+02  0.96462200653E+01 -0.16514093451E+03  0.16806287493E+03  0.00000000000E+00 0. -1.
         -2    1    1    2    0  502  0.28162092530E+02  0.24988729028E+02 -0.28171258889E+03  0.28421738647E+03  0.00000000000E+00 0.  1.
<mgrwt>
<rscale>  1 0.82399900E+02</rscale>
<asrwt>0</asrwt>
<pdfrwt beam="1">  1       21 0.76253955E-01 0.82399900E+02</pdfrwt>
<pdfrwt beam="2">  1       -1 0.14205162E-02 0.82399900E+02</pdfrwt>
<totfact> 0.14360969E+05</totfact>
</mgrwt>
</event>
<event>
 6    2  0.8544106E+000  0.8742019E+02  0.7546771E-02  0.1309222E+00
         -3   -1    0    0    0  501 -0.00000000000E+00  0.00000000000E+00  0.91120264127E+03  0.91120264127E+03  0.00000000000E+00 0.  1.
         21   -1    0    0  501  502  0.00000000000E+00 -0.00000000000E+00 -0.13830480351E+02  0.13830480351E+02  0.00000000000E+00 0.  1.
         24    2    1    2    0    0  0.24301513625E+02  0.20345521028E+02  0.88756035587E+03  0.89185518756E+03  0.81472611806E+02 0.  0.
        -13    1    3    3    0    0  0.50917540610E+02  0.26318905362E+02  0.69693887297E+03  0.69929183706E+03  0.00000000000E+00 0.  1.
         14    1    3    3    0    0 -0.26616026985E+02 -0.59733843341E+01  0.19062148290E+03  0.19256335050E+03  0.00000000000E+00 0. -1.
         -4    1    1    2    0  502 -0.24301513625E+02 -0.20345521028E+02  0.98118050510E+01  0.33177934064E+02  0.00000000000E+00 0.  1.
<mgrwt>
<rscale>  1 0.87420194E+02</rscale>
<asrwt>0</asrwt>
<pdfrwt beam="1">  1       21 0.21277669E-02 0.87420194E+02</pdfrwt>
<pdfrwt beam="2">  1       -3 0.14018497E+00 0.87420194E+02</pdfrwt>
<totfact> 0.20922669E+04</totfact>
</mgrwt>
</event>
<event>
 6    2  0.8544106E+000  0.8752438E+02  0.7546771E-02  0.1308960E+00
         -1   -1    0    0    0  501 -0.00000000000E+00  0.00000000000E+00  0.35774678414E+03  0.35774678414E+03  0.00000000000E+00 0.  1.
         21   -1    0    0  501  502  0.00000000000E+00 -0.00000000000E+00 -0.43175478232E+02  0.43175478232E+02  0.00000000000E+00 0.  1.
         24    2    1    2    0    0 -0.94109741308E+01 -0.31781498150E+02  0.34499898686E+03  0.35592810912E+03  0.81005480481E+02 0.  0.
        -13    1    3    3    0    0 -0.30203348274E+02 -0.48853223243E+02  0.27507329845E+03  0.28100569244E+03  0.00000000000E+00 0.  1.
         14    1    3    3    0    0  0.20792374144E+02  0.17071725094E+02  0.69925688416E+02  0.74922416677E+02  0.00000000000E+00 0. -1.
         -2    1    1    2    0  502  0.94109741308E+01  0.31781498150E+02 -0.30427680953E+02  0.44994153252E+02  0.00000000000E+00 0.  1.
<mgrwt>
<rscale>  1 0.87524385E+02</rscale>
<asrwt>0</asrwt>
<pdfrwt beam="1">  1       21 0.66423815E-02 0.87524385E+02</pdfrwt>
<pdfrwt beam="2">  1       -1 0.55037965E-01 0.87524385E+02</pdfrwt>
<totfact> 0.51271114E+04</totfact>
</mgrwt>
</event>
<event>
 6    2  0.8544106E+000  0.1661475E+03  0.7546771E-02  0.1181926E+00
         21   -1    0    0  501  502  0.00000000000E+00  0.00000000000E+00  0.16223951219E+02  0.16223951219E+02  0.00000000000E+00 0. -1.
          2   -1    0    0  502    0 -0.00000000000E+00 -0.00000000000E+00 -0.15002773028E+04  0.15002773028E+04  0.00000000000E+00 0. -1.
         24    2    1    2    0    0  0.33634882647E+02  0.14188862964E+03 -0.77550023729E+03  0.79309873514E+03  0.79632261601E+02 0.  0.
        -11    1    3    3    0    0  0.54758429160E+01 -0.94599749729E+01 -0.31619485576E+02  0.33455460693E+02  0.00000000000E+00 0.  1.
         12    1    3    3    0    0  0.28159039731E+02  0.15134860462E+03 -0.74388075171E+03  0.75964327444E+03  0.00000000000E+00 0. -1.
          1    1    1    2  501    0 -0.33634882647E+02 -0.14188862964E+03 -0.70855311430E+03  0.72340251889E+03  0.00000000000E+00 0. -1.
<mgrwt>
<rscale>  1 0.16614748E+03</rscale>
<asrwt>0</asrwt>
<pdfrwt beam="1">  1       21 0.24959932E-02 0.16614748E+03</pdfrwt>
<pdfrwt beam="2">  1        2 0.23081183E+00 0.16614748E+03</pdfrwt>
<totfact> 0.15047014E+05</totfact>
</mgrwt>
</event>
<event>
 6    2  0.8544106E+000  0.8409106E+02  0.7546771E-02  0.1317827E+00
         -1   -1    0    0    0  501 -0.00000000000E+00  0.00000000000E+00  0.29365842094E+01  0.29365842094E+01  0.00000000000E+00 0.  1.
         21   -1    0    0  501  502  0.00000000000E+00 -0.00000000000E+00 -0.10273525400E+04  0.10273525400E+04  0.00000000000E+00 0.  1.
         24    2    1    2    0    0 -0.22458500778E+02  0.10481385088E+02 -0.84400186971E+03  0.84818067809E+03  0.80355851845E+02 0.  0.
        -11    1    3    3    0    0 -0.11573799124E+02 -0.26803063054E+02 -0.63043264936E+03  0.63110829688E+03  0.00000000000E+00 0.  1.
         12    1    3    3    0    0 -0.10884701654E+02  0.37284448142E+02 -0.21356922035E+03  0.21707238121E+03  0.00000000000E+00 0. -1.
         -2    1    1    2    0  502  0.22458500778E+02 -0.10481385088E+02 -0.18041408605E+03  0.18210844609E+03  0.00000000000E+00 0.  1.
<mgrwt>
<rscale>  1 0.84091061E+02</rscale>
<asrwt>0</asrwt>
<pdfrwt beam="1">  1       21 0.15805424E+00 0.84091061E+02</pdfrwt>
<pdfrwt beam="2">  1       -1 0.45178217E-03 0.84091061E+02</pdfrwt>
<totfact> 0.12839024E+05</totfact>
</mgrwt>
</event>
<event>
 6    2  0.8544106E+000  0.1312783E+03  0.7546771E-02  0.1225571E+00
         21   -1    0    0  501  502  0.00000000000E+00  0.00000000000E+00  0.10655418716E+03  0.10655418716E+03  0.00000000000E+00 0. -1.
         -3   -1    0    0    0  501 -0.00000000000E+00 -0.00000000000E+00 -0.13162542507E+03  0.13162542507E+03  0.00000000000E+00 0.  1.
         24    2    1    2    0    0 -0.31809266457E+02 -0.99603426954E+02 -0.29806088952E+01  0.13131208684E+03  0.79380778698E+02 0.  0.
        -13    1    3    3    0    0  0.68208683718E+01  0.73207475581E-01 -0.21733828614E+02  0.22779133234E+02  0.00000000000E+00 0.  1.
         14    1    3    3    0    0 -0.38630134829E+02 -0.99676634429E+02  0.18753219719E+02  0.10853295360E+03  0.00000000000E+00 0. -1.
         -4    1    1    2    0  502  0.31809266457E+02  0.99603426954E+02 -0.22090629010E+02  0.10686752539E+03  0.00000000000E+00 0.  1.
<mgrwt>
<rscale>  1 0.13127825E+03</rscale>
<asrwt>0</asrwt>
<pdfrwt beam="1">  1       21 0.16392952E-01 0.13127825E+03</pdfrwt>
<pdfrwt beam="2">  1       -3 0.20250066E-01 0.13127825E+03</pdfrwt>
<totfact> 0.35050387E+04</totfact>
</mgrwt>
</event>
<event>
 6    2  0.8544106E+000  0.9239179E+02  0.7546771E-02  0.1297161E+00
          2   -1    0    0  502    0 -0.00000000000E+00  0.00000000000E+00  0.10747815881E+04  0.10747815881E+04  0.00000000000E+00 0. -1.
         21   -1    0    0  501  502  0.00000000000E+00 -0.00000000000E+00 -0.32357518100E+01  0.32357518100E+01  0.00000000000E+00 0.  1.
         24    2    1    2    0    0  0.23915850781E+02  0.35187152159E+01  0.90908759431E+03  0.91377048404E+03  0.89173393464E+02 0.  0.
        -11    1    3    3    0    0 -0.25679282349E+02 -0.20975609396E+02  0.22232636113E+03  0.22478525882E+03  0.00000000000E+00 0.  1.
         12    1    3    3    0    0  0.49595133130E+02  0.24494324612E+02  0.68676123318E+03  0.68898522522E+03  0.00000000000E+00 0. -1.
          1    1    1    2  501    0 -0.23915850781E+02 -0.35187152159E+01  0.16245824196E+03  0.16424685585E+03  0.00000000000E+00 0. -1.
<mgrwt>
<rscale>  1 0.92391793E+02</rscale>
<asrwt>0</asrwt>
<pdfrwt beam="1">  1       21 0.49780883E-03 0.92391793E+02</pdfrwt>
<pdfrwt beam="2">  1        2 0.16535073E+00 0.92391793E+02</pdfrwt>
<totfact> 0.31793431E+06</totfact>
</mgrwt>
</event>
<event>
 6    2  0.8544106E+000  0.9299595E+02  0.7546771E-02  0.1295755E+00
          2   -1    0    0  502    0 -0.00000000000E+00  0.00000000000E+00  0.17541749270E+03  0.17541749270E+03  0.00000000000E+00 0. -1.
         21   -1    0    0  501  502  0.00000000000E+00 -0.00000000000E+00 -0.87020614453E+02  0.87020614453E+02  0.00000000000E+00 0.  1.
         24    2    1    2    0    0 -0.18443261063E+01  0.44147258333E+02 -0.57944855275E+02  0.10957122085E+03  0.81828260578E+02 0.  0.
        -13    1    3    3    0    0 -0.39484279194E+01  0.29509734622E+02 -0.78667619971E+02  0.84113072423E+02  0.00000000000E+00 0.  1.
         14    1    3    3    0    0  0.21041018132E+01  0.14637523711E+02  0.20722764696E+02  0.25458148430E+02  0.00000000000E+00 0. -1.
          1    1    1    2  501    0  0.18443261063E+01 -0.44147258333E+02  0.14634173353E+03  0.15286688630E+03  0.00000000000E+00 0. -1.
<mgrwt>
<rscale>  1 0.92995947E+02</rscale>
<asrwt>0</asrwt>
<pdfrwt beam="1">  1       21 0.13387787E-01 0.92995947E+02</pdfrwt>
<pdfrwt beam="2">  1        2 0.26987306E-01 0.92995947E+02</pdfrwt>
<totfact> 0.11389656E+05</totfact>
</mgrwt>
</event>
<event>
 6    2  0.8544106E+000  0.8432030E+02  0.7546771E-02  0.1317220E+00
         21   -1    0    0  501  502  0.00000000000E+00  0.00000000000E+00  0.14992821572E+02  0.14992821572E+02  0.00000000000E+00 0. -1.
          2   -1    0    0  502    0 -0.00000000000E+00 -0.00000000000E+00 -0.20686512737E+03  0.20686512737E+03  0.00000000000E+00 0. -1.
         24    2    1    2    0    0 -0.22738934879E+02 -0.14672386842E+02 -0.14532411009E+03  0.16801491208E+03  0.79859724594E+02 0.  0.
        -13    1    3    3    0    0 -0.10501076628E+01  0.25149711898E+02 -0.13402038665E+02  0.28517106709E+02  0.00000000000E+00 0.  1.
         14    1    3    3    0    0 -0.21688827216E+02 -0.39822098739E+02 -0.13192207142E+03  0.13949780537E+03  0.00000000000E+00 0. -1.
          1    1    1    2  501    0  0.22738934879E+02  0.14672386842E+02 -0.46548195708E+02  0.53843036864E+02  0.00000000000E+00 0. -1.
<mgrwt>
<rscale>  1 0.84320304E+02</rscale>
<asrwt>0</asrwt>
<pdfrwt beam="1">  1       21 0.23065880E-02 0.84320304E+02</pdfrwt>
<pdfrwt beam="2">  1        2 0.31825403E-01 0.84320304E+02</pdfrwt>
<totfact> 0.18085671E+06</totfact>
</mgrwt>
</event>
<event>
 6    2  0.8544106E+000  0.1061665E+03  0.7546771E-02  0.1267838E+00
         21   -1    0    0  501  502  0.00000000000E+00  0.00000000000E+00  0.21857004234E+02  0.21857004234E+02  0.00000000000E+00 0. -1.
          2   -1    0    0  502    0 -0.00000000000E+00 -0.00000000000E+00 -0.48770856167E+03  0.48770856167E+03  0.00000000000E+00 0. -1.
         24    2    1    2    0    0  0.69655562547E+02 -0.63015848426E+01 -0.39875144726E+03  0.41264275047E+03  0.79873121021E+02 0.  0.
        -13    1    3    3    0    0  0.12275485823E+01  0.43643559372E+00  0.39262636931E+01  0.41367738803E+01  0.00000000000E+00 0.  1.
         14    1    3    3    0    0  0.68428013965E+02 -0.67380204363E+01 -0.40267771095E+03  0.40850597659E+03  0.00000000000E+00 0. -1.
          1    1    1    2  501    0 -0.69655562547E+02  0.63015848426E+01 -0.67100110177E+02  0.96922815431E+02  0.00000000000E+00 0. -1.
<mgrwt>
<rscale>  1 0.10616649E+03</rscale>
<asrwt>0</asrwt>
<pdfrwt beam="1">  1       21 0.33626160E-02 0.10616649E+03</pdfrwt>
<pdfrwt beam="2">  1        2 0.75032088E-01 0.10616649E+03</pdfrwt>
<totfact> 0.40590126E+05</totfact>
</mgrwt>
</event>
<event>
 6    2  0.8544106E+000  0.8801989E+02  0.7546771E-02  0.1307719E+00
         21   -1    0    0  501  502  0.00000000000E+00  0.00000000000E+00  0.21140184716E+01  0.21140184716E+01  0.00000000000E+00 0. -1.
          2   -1    0    0  502    0 -0.00000000000E+00 -0.00000000000E+00 -0.17908622928E+04  0.17908622928E+04  0.00000000000E+00 0. -1.
         24    2    1    2    0    0 -0.34392467347E+02 -0.41886764853E+01 -0.12165279330E+04  0.12197080444E+04  0.80914243986E+02 0.  0.
        -13    1    3    3    0    0  0.20296915130E+02  0.19622969834E+02 -0.35939404659E+03  0.36050118784E+03  0.00000000000E+00 0.  1.
         14    1    3    3    0    0 -0.54689382477E+02 -0.23811646319E+02 -0.85713388644E+03  0.85920685655E+03  0.00000000000E+00 0. -1.
          1    1    1    2  501    0  0.34392467347E+02  0.41886764853E+01 -0.57222034131E+03  0.57326826689E+03  0.00000000000E+00 0. -1.
<mgrwt>
<rscale>  1 0.88019894E+02</rscale>
<asrwt>0</asrwt>
<pdfrwt beam="1">  1       21 0.32523395E-03 0.88019894E+02</pdfrwt>
<pdfrwt beam="2">  1        2 0.27551699E+00 0.88019894E+02</pdfrwt>
<totfact> 0.25624209E+06</totfact>
</mgrwt>
</event>
<event>
 6    2  0.8544106E+000  0.9279501E+02  0.7546771E-02  0.1296221E+00
         -3   -1    0    0    0  501 -0.00000000000E+00  0.00000000000E+00  0.80770500150E+02  0.80770500150E+02  0.00000000000E+00 0.  1.
         21   -1    0    0  501  502  0.00000000000E+00 -0.00000000000E+00 -0.12510107700E+03  0.12510107700E+03  0.00000000000E+00 0. -1.
         24    2    1    2    0    0 -0.29092374857E+02 -0.20409449309E+02  0.49759157083E+02  0.10529429379E+03  0.85720491693E+02 0.  0.
        -13    1    3    3    0    0 -0.34457698407E+02  0.21189459765E+02  0.48738334384E+02  0.63338388227E+02  0.00000000000E+00 0.  1.
         14    1    3    3    0    0  0.53653235502E+01 -0.41598909074E+02  0.10208226990E+01  0.41955905567E+02  0.00000000000E+00 0. -1.
         -4    1    1    2    0  502  0.29092374857E+02  0.20409449309E+02 -0.94089733934E+02  0.10057728336E+03  0.00000000000E+00 0.  1.
<mgrwt>
<rscale>  1 0.92795014E+02</rscale>
<asrwt>0</asrwt>
<pdfrwt beam="1">  1       21 0.19246319E-01 0.92795014E+02</pdfrwt>
<pdfrwt beam="2">  1       -3 0.12426231E-01 0.92795014E+02</pdfrwt>
<totfact> 0.58315954E+04</totfact>
</mgrwt>
</event>
<event>
 6    2  0.8544106E+000  0.1741688E+03  0.7546771E-02  0.1173569E+00
         21   -1    0    0  501  502  0.00000000000E+00  0.00000000000E+00  0.48345215369E+02  0.48345215369E+02  0.00000000000E+00 0.  1.
          2   -1    0    0  502    0 -0.00000000000E+00 -0.00000000000E+00 -0.56022832421E+03  0.56022832421E+03  0.00000000000E+00 0. -1.
         24    2    1    2    0    0  0.13591089713E+03 -0.73144319489E+02 -0.29017645887E+03  0.33843338693E+03  0.80702643548E+02 0.  0.
        -11    1    3    3    0    0  0.14111194426E+03 -0.77696053817E+02 -0.28973831038E+03  0.33150798797E+03  0.00000000000E+00 0.  1.
         12    1    3    3    0    0 -0.52010471301E+01  0.45517343274E+01 -0.43814849612E+00  0.69253989590E+01  0.00000000000E+00 0. -1.
          1    1    1    2  501    0 -0.13591089713E+03  0.73144319489E+02 -0.22170664997E+03  0.27014015265E+03  0.00000000000E+00 0. -1.
<mgrwt>
<rscale>  1 0.17416883E+03</rscale>
<asrwt>0</asrwt>
<pdfrwt beam="1">  1       21 0.74377259E-02 0.17416883E+03</pdfrwt>
<pdfrwt beam="2">  1        2 0.86188968E-01 0.17416883E+03</pdfrwt>
<totfact> 0.93353394E+04</totfact>
</mgrwt>
</event>
<event>
 6    2  0.8544106E+000  0.8406108E+02  0.7546771E-02  0.1317906E+00
         -1   -1    0    0    0  501 -0.00000000000E+00  0.00000000000E+00  0.17738396057E+03  0.17738396057E+03  0.00000000000E+00 0.  1.
         21   -1    0    0  501  502  0.00000000000E+00 -0.00000000000E+00 -0.26762921662E+02  0.26762921662E+02  0.00000000000E+00 0.  1.
         24    2    1    2    0    0  0.17846021348E+02 -0.13113864812E+02  0.15949319879E+03  0.18028961607E+03  0.81091376076E+02 0.  0.
        -13    1    3    3    0    0  0.18367306157E+01 -0.14408771595E+02  0.16316780429E+03  0.16381306003E+03  0.00000000000E+00 0.  1.
         14    1    3    3    0    0  0.16009290732E+02  0.12949067832E+01 -0.36746055037E+01  0.16476556040E+02  0.00000000000E+00 0. -1.
         -2    1    1    2    0  502 -0.17846021348E+02  0.13113864812E+02 -0.88721598754E+01  0.23857266170E+02  0.00000000000E+00 0.  1.
<mgrwt>
<rscale>  1 0.84061080E+02</rscale>
<asrwt>0</asrwt>
<pdfrwt beam="1">  1       21 0.41173727E-02 0.84061080E+02</pdfrwt>
<pdfrwt beam="2">  1       -1 0.27289839E-01 0.84061080E+02</pdfrwt>
<totfact> 0.38116929E+05</totfact>
</mgrwt>
</event>
<event>
 6    2  0.8544106E+000  0.8643896E+02  0.7546771E-02  0.1311712E+00
         21   -1    0    0  501  502  0.00000000000E+00  0.00000000000E+00  0.11550524723E+02  0.11550524723E+02  0.00000000000E+00 0. -1.
         -1   -1    0    0    0  501 -0.00000000000E+00 -0.00000000000E+00 -0.32612753670E+03  0.32612753670E+03  0.00000000000E+00 0.  1.
         24    2    1    2    0    0 -0.25377506354E+02 -0.22302125432E+02 -0.19257953020E+03  0.21108900903E+03  0.79563129975E+02 0.  0.
        -13    1    3    3    0    0  0.63866126100E+00  0.25824665314E+02 -0.30200957265E+02  0.39741905421E+02  0.00000000000E+00 0.  1.
         14    1    3    3    0    0 -0.26016167615E+02 -0.48126790745E+02 -0.16237857294E+03  0.17134710361E+03  0.00000000000E+00 0. -1.
         -2    1    1    2    0  502  0.25377506354E+02  0.22302125432E+02 -0.12199748178E+03  0.12658905240E+03  0.00000000000E+00 0.  1.
<mgrwt>
<rscale>  1 0.86438963E+02</rscale>
<asrwt>0</asrwt>
<pdfrwt beam="1">  1       21 0.17770038E-02 0.86438963E+02</pdfrwt>
<pdfrwt beam="2">  1       -1 0.50173469E-01 0.86438963E+02</pdfrwt>
<totfact> 0.52389067E+05</totfact>
</mgrwt>
</event>
<event>
 6    2  0.8544106E+000  0.8340797E+02  0.7546771E-02  0.1319649E+00
          2   -1    0    0  502    0 -0.00000000000E+00  0.00000000000E+00  0.27753440581E+02  0.27753440581E+02  0.00000000000E+00 0. -1.
         21   -1    0    0  501  502  0.00000000000E+00 -0.00000000000E+00 -0.12615626783E+03  0.12615626783E+03  0.00000000000E+00 0.  1.
         24    2    1    2    0    0  0.15576236467E+01 -0.30648890919E+02 -0.88624107990E+02  0.12170095096E+03  0.77557128890E+02 0.  0.
        -13    1    3    3    0    0 -0.28982229258E+01 -0.47776187376E+02 -0.91979771104E+02  0.10368819638E+03  0.00000000000E+00 0.  1.
         14    1    3    3    0    0  0.44558465725E+01  0.17127296457E+02  0.33556631138E+01  0.18012754580E+02  0.00000000000E+00 0. -1.
          1    1    1    2  501    0 -0.15576236467E+01  0.30648890919E+02 -0.97787192557E+01  0.32208757446E+02  0.00000000000E+00 0. -1.
<mgrwt>
<rscale>  1 0.83407967E+02</rscale>
<asrwt>0</asrwt>
<pdfrwt beam="1">  1       21 0.19408656E-01 0.83407967E+02</pdfrwt>
<pdfrwt beam="2">  1        2 0.42697601E-02 0.83407967E+02</pdfrwt>
<totfact> 0.52726011E+05</totfact>
</mgrwt>
</event>
<event>
 6    2  0.8544106E+000  0.8819377E+02  0.7546771E-02  0.1307286E+00
          2   -1    0    0  502    0 -0.00000000000E+00  0.00000000000E+00  0.39347668760E+04  0.39347668760E+04  0.00000000000E+00 0. -1.
         21   -1    0    0  501  502  0.00000000000E+00 -0.00000000000E+00 -0.88196170645E+00  0.88196170645E+00  0.00000000000E+00 0.  1.
         24    2    1    2    0    0 -0.86338386143E+01 -0.21732331883E+02  0.24638632838E+04  0.24654412226E+04  0.85037070655E+02 0.  0.
        -11    1    3    3    0    0  0.41250839144E+01 -0.22094499632E+01  0.67285913169E+01  0.81958481898E+01  0.00000000000E+00 0.  1.
         12    1    3    3    0    0 -0.12758922529E+02 -0.19522881919E+02  0.24571346925E+04  0.24572453744E+04  0.00000000000E+00 0. -1.
          1    1    1    2  501    0  0.86338386143E+01  0.21732331883E+02  0.14700216305E+04  0.14702076152E+04  0.00000000000E+00 0. -1.
<mgrwt>
<rscale>  1 0.88193769E+02</rscale>
<asrwt>0</asrwt>
<pdfrwt beam="1">  1       21 0.13568957E-03 0.88193769E+02</pdfrwt>
<pdfrwt beam="2">  1        2 0.60533469E+00 0.88193769E+02</pdfrwt>
<totfact> 0.56302423E+05</totfact>
</mgrwt>
</event>
<event>
 6    2  0.8544106E+000  0.8358548E+02  0.7546771E-02  0.1319174E+00
          2   -1    0    0  502    0 -0.00000000000E+00  0.00000000000E+00  0.21270907881E+03  0.21270907881E+03  0.00000000000E+00 0. -1.
         21   -1    0    0  501  502  0.00000000000E+00 -0.00000000000E+00 -0.13581551961E+02  0.13581551961E+02  0.00000000000E+00 0.  1.
         24    2    1    2    0    0  0.73845444635E+01  0.22707998537E+02  0.15718936881E+03  0.17803098102E+03  0.80102108845E+02 0.  0.
        -13    1    3    3    0    0 -0.81279236749E+01  0.25880787190E+02  0.83947761230E+01  0.28396312348E+02  0.00000000000E+00 0.  1.
         14    1    3    3    0    0  0.15512468138E+02 -0.31727886530E+01  0.14879459269E+03  0.14963466867E+03  0.00000000000E+00 0. -1.
          1    1    1    2  501    0 -0.73845444635E+01 -0.22707998537E+02  0.41938158043E+02  0.48259649756E+02  0.00000000000E+00 0. -1.
<mgrwt>
<rscale>  1 0.83585480E+02</rscale>
<asrwt>0</asrwt>
<pdfrwt beam="1">  1       21 0.20894697E-02 0.83585480E+02</pdfrwt>
<pdfrwt beam="2">  1        2 0.32724471E-01 0.83585480E+02</pdfrwt>
<totfact> 0.20550733E+06</totfact>
</mgrwt>
</event>
<event>
 6    2  0.8544106E+000  0.9964581E+02  0.7546771E-02  0.1281043E+00
          2   -1    0    0  502    0 -0.00000000000E+00  0.00000000000E+00  0.60974516336E+03  0.60974516336E+03  0.00000000000E+00 0. -1.
         21   -1    0    0  501  502  0.00000000000E+00 -0.00000000000E+00 -0.10118264651E+02  0.10118264651E+02  0.00000000000E+00 0.  1.
         24    2    1    2    0    0  0.10997329739E+02 -0.56004195639E+02  0.36030688348E+03  0.37383196482E+03  0.81681555123E+02 0.  0.
        -11    1    3    3    0    0 -0.20544920184E+01 -0.73862341665E+02  0.31308490665E+03  0.32168622169E+03  0.00000000000E+00 0.  1.
         12    1    3    3    0    0  0.13051821758E+02  0.17858146026E+02  0.47221976829E+02  0.52145743128E+02  0.00000000000E+00 0. -1.
          1    1    1    2  501    0 -0.10997329739E+02  0.56004195639E+02  0.23932001523E+03  0.24603146319E+03  0.00000000000E+00 0. -1.
<mgrwt>
<rscale>  1 0.99645811E+02</rscale>
<asrwt>0</asrwt>
<pdfrwt beam="1">  1       21 0.15566566E-02 0.99645811E+02</pdfrwt>
<pdfrwt beam="2">  1        2 0.93806920E-01 0.99645811E+02</pdfrwt>
<totfact> 0.10939035E+06</totfact>
</mgrwt>
</event>
<event>
 6    2  0.8544106E+000  0.8547902E+02  0.7546771E-02  0.1314185E+00
         21   -1    0    0  501  502  0.00000000000E+00  0.00000000000E+00  0.22552234467E+01  0.22552234467E+01  0.00000000000E+00 0.  1.
          2   -1    0    0  502    0 -0.00000000000E+00 -0.00000000000E+00 -0.18640898604E+04  0.18640898604E+04  0.00000000000E+00 0. -1.
         24    2    1    2    0    0 -0.26037715698E+02 -0.33736823594E+02 -0.13719547748E+04  0.13746150611E+04  0.74098085422E+02 0.  0.
        -11    1    3    3    0    0 -0.32797664728E+02 -0.43576444962E+02 -0.57728943125E+03  0.57986005277E+03  0.00000000000E+00 0.  1.
         12    1    3    3    0    0  0.67599490304E+01  0.98396213680E+01 -0.79466534357E+03  0.79475500837E+03  0.00000000000E+00 0. -1.
          1    1    1    2  501    0  0.26037715698E+02  0.33736823594E+02 -0.48987986214E+03  0.49173002271E+03  0.00000000000E+00 0. -1.
<mgrwt>
<rscale>  1 0.85479016E+02</rscale>
<asrwt>0</asrwt>
<pdfrwt beam="1">  1       21 0.34695795E-03 0.85479016E+02</pdfrwt>
<pdfrwt beam="2">  1        2 0.28678264E+00 0.85479016E+02</pdfrwt>
<totfact> 0.21307275E+06</totfact>
</mgrwt>
</event>
<event>
 6    2  0.8544106E+000  0.1190548E+03  0.7546771E-02  0.1244664E+00
         -3   -1    0    0    0  501 -0.00000000000E+00  0.00000000000E+00  0.12221142251E+03  0.12221142251E+03  0.00000000000E+00 0.  1.
         21   -1    0    0  501  502  0.00000000000E+00 -0.00000000000E+00 -0.97821990115E+02  0.97821990115E+02  0.00000000000E+00 0.  1.
         24    2    1    2    0    0  0.62179653572E+02 -0.60173963057E+02  0.50980753926E+02  0.12951096497E+03  0.81773086204E+02 0.  0.
        -11    1    3    3    0    0 -0.41005793754E+01 -0.51816344091E+02  0.26659067677E+02  0.58416214834E+02  0.00000000000E+00 0.  1.
         12    1    3    3    0    0  0.66280232947E+02 -0.83576189655E+01  0.24321686249E+02  0.71094750132E+02  0.00000000000E+00 0. -1.
         -4    1    1    2    0  502 -0.62179653572E+02  0.60173963057E+02 -0.26591321535E+02  0.90522447654E+02  0.00000000000E+00 0.  1.
<mgrwt>
<rscale>  1 0.11905483E+03</rscale>
<asrwt>0</asrwt>
<pdfrwt beam="1">  1       21 0.15049537E-01 0.11905483E+03</pdfrwt>
<pdfrwt beam="2">  1       -3 0.18801757E-01 0.11905483E+03</pdfrwt>
<totfact> 0.46169969E+04</totfact>
</mgrwt>
</event>
<event>
 6    2  0.8544106E+000  0.9089875E+02  0.7546771E-02  0.1300690E+00
          2   -1    0    0  502    0 -0.00000000000E+00  0.00000000000E+00  0.39293299919E+04  0.39293299919E+04  0.00000000000E+00 0. -1.
         21   -1    0    0  501  502  0.00000000000E+00 -0.00000000000E+00 -0.15225159105E+02  0.15225159105E+02  0.00000000000E+00 0. -1.
         24    2    1    2    0    0 -0.38115753700E+02 -0.10038191606E+01  0.39040696507E+04  0.39051277086E+04  0.82515240269E+02 0.  0.
        -13    1    3    3    0    0  0.94006276834E+01  0.24190969077E+02  0.53532414103E+03  0.53595289975E+03  0.00000000000E+00 0.  1.
         14    1    3    3    0    0 -0.47516381384E+02 -0.25194788237E+02  0.33687455097E+04  0.33691748089E+04  0.00000000000E+00 0. -1.
          1    1    1    2  501    0  0.38115753700E+02  0.10038191606E+01  0.10035182105E+02  0.39427442384E+02  0.00000000000E+00 0. -1.
<mgrwt>
<rscale>  1 0.90898753E+02</rscale>
<asrwt>0</asrwt>
<pdfrwt beam="1">  1       21 0.23423353E-02 0.90898753E+02</pdfrwt>
<pdfrwt beam="2">  1        2 0.60451150E+00 0.90898753E+02</pdfrwt>
<totfact> 0.70473661E+03</totfact>
</mgrwt>
</event>
<event>
 6    2  0.8544106E+000  0.1309688E+03  0.7546771E-02  0.1226025E+00
         21   -1    0    0  501  502  0.00000000000E+00  0.00000000000E+00  0.33109801628E+02  0.33109801628E+02  0.00000000000E+00 0. -1.
          2   -1    0    0  502    0 -0.00000000000E+00 -0.00000000000E+00 -0.41709978007E+03  0.41709978007E+03  0.00000000000E+00 0. -1.
         24    2    1    2    0    0 -0.50070119554E+02 -0.90584491519E+02 -0.19892261108E+03  0.23816596015E+03  0.80251183175E+02 0.  0.
        -13    1    3    3    0    0  0.10198836670E+02 -0.90698589642E+01  0.13323013244E+01  0.13713265033E+02  0.00000000000E+00 0.  1.
         14    1    3    3    0    0 -0.60268956224E+02 -0.81514632555E+02 -0.20025491240E+03  0.22445269512E+03  0.00000000000E+00 0. -1.
          1    1    1    2  501    0  0.50070119554E+02  0.90584491519E+02 -0.18506736737E+03  0.21204362155E+03  0.00000000000E+00 0. -1.
<mgrwt>
<rscale>  1 0.13096877E+03</rscale>
<asrwt>0</asrwt>
<pdfrwt beam="1">  1       21 0.50938154E-02 0.13096877E+03</pdfrwt>
<pdfrwt beam="2">  1        2 0.64169200E-01 0.13096877E+03</pdfrwt>
<totfact> 0.24398803E+05</totfact>
</mgrwt>
</event>
<event>
 6    2  0.8544106E+000  0.8496272E+02  0.7546771E-02  0.1315530E+00
          2   -1    0    0  502    0 -0.00000000000E+00  0.00000000000E+00  0.14011448857E+04  0.14011448857E+04  0.00000000000E+00 0. -1.
         21   -1    0    0  501  502  0.00000000000E+00 -0.00000000000E+00 -0.23674903066E+01  0.23674903066E+01  0.00000000000E+00 0.  1.
         24    2    1    2    0    0  0.16137719571E+02 -0.22757027240E+02  0.11608262806E+04  0.11639314058E+04  0.80251824012E+02 0.  0.
        -11    1    3    3    0    0 -0.20309338927E+02 -0.48166154798E+00  0.90456544879E+02  0.92709696132E+02  0.00000000000E+00 0.  1.
         12    1    3    3    0    0  0.36447058498E+02 -0.22275365692E+02  0.10703697357E+04  0.10712217096E+04  0.00000000000E+00 0. -1.
          1    1    1    2  501    0 -0.16137719571E+02  0.22757027240E+02  0.23795111475E+03  0.23958097022E+03  0.00000000000E+00 0. -1.
<mgrwt>
<rscale>  1 0.84962719E+02</rscale>
<asrwt>0</asrwt>
<pdfrwt beam="1">  1       21 0.36423040E-03 0.84962719E+02</pdfrwt>
<pdfrwt beam="2">  1        2 0.21556009E+00 0.84962719E+02</pdfrwt>
<totfact> 0.33882031E+06</totfact>
</mgrwt>
</event>
<event>
 6    2  0.8544106E+000  0.8762039E+02  0.7546771E-02  0.1308719E+00
         21   -1    0    0  501  502  0.00000000000E+00  0.00000000000E+00  0.35733153404E+02  0.35733153404E+02  0.00000000000E+00 0.  1.
         -1   -1    0    0    0  501 -0.00000000000E+00 -0.00000000000E+00 -0.23855744537E+03  0.23855744537E+03  0.00000000000E+00 0.  1.
         24    2    1    2    0    0 -0.26000339881E+02 -0.21088061029E+02 -0.21989735359E+03  0.23671117055E+03  0.80972885301E+02 0.  0.
        -13    1    3    3    0    0 -0.12467027354E+02 -0.22227486876E+02 -0.22156688886E+03  0.22302774308E+03  0.00000000000E+00 0.  1.
         14    1    3    3    0    0 -0.13533312527E+02  0.11394258476E+01  0.16695352707E+01  0.13683427467E+02  0.00000000000E+00 0. -1.
         -2    1    1    2    0  502  0.26000339881E+02  0.21088061029E+02  0.17073061631E+02  0.37579428220E+02  0.00000000000E+00 0.  1.
<mgrwt>
<rscale>  1 0.87620387E+02</rscale>
<asrwt>0</asrwt>
<pdfrwt beam="1">  1       21 0.54974083E-02 0.87620387E+02</pdfrwt>
<pdfrwt beam="2">  1       -1 0.36701145E-01 0.87620387E+02</pdfrwt>
<totfact> 0.14435826E+05</totfact>
</mgrwt>
</event>
<event>
 6    2  0.8544106E+000  0.8125445E+02  0.7546771E-02  0.1325529E+00
          2   -1    0    0  502    0 -0.00000000000E+00  0.00000000000E+00  0.11479882412E+04  0.11479882412E+04  0.00000000000E+00 0. -1.
         21   -1    0    0  501  502  0.00000000000E+00 -0.00000000000E+00 -0.28851281053E+01  0.28851281053E+01  0.00000000000E+00 0. -1.
         24    2    1    2    0    0  0.25339204292E+01 -0.23187840555E+02  0.10420598818E+04  0.10452229826E+04  0.77834371118E+02 0.  0.
        -11    1    3    3    0    0  0.37905067130E+02  0.12446868128E+01  0.53634898562E+03  0.53768817891E+03  0.00000000000E+00 0.  1.
         12    1    3    3    0    0 -0.35371146700E+02 -0.24432527368E+02  0.50571089619E+03  0.50753480367E+03  0.00000000000E+00 0. -1.
          1    1    1    2  501    0 -0.25339204292E+01  0.23187840555E+02  0.10304323131E+03  0.10565038676E+03  0.00000000000E+00 0. -1.
<mgrwt>
<rscale>  1 0.81254452E+02</rscale>
<asrwt>0</asrwt>
<pdfrwt beam="1">  1       21 0.44386678E-03 0.81254452E+02</pdfrwt>
<pdfrwt beam="2">  1        2 0.17661321E+00 0.81254452E+02</pdfrwt>
<totfact> 0.34021755E+06</totfact>
</mgrwt>
</event>
<event>
 6    2  0.8544106E+000  0.9088770E+02  0.7546771E-02  0.1300716E+00
          4   -1    0    0  502    0 -0.00000000000E+00  0.00000000000E+00  0.69765434271E+03  0.69765434271E+03  0.00000000000E+00 0. -1.
         21   -1    0    0  501  502  0.00000000000E+00 -0.00000000000E+00 -0.68991003148E+01  0.68991003148E+01  0.00000000000E+00 0. -1.
         24    2    1    2    0    0  0.21942903868E+02  0.38412424743E+02  0.53383472846E+03  0.54151647452E+03  0.79395021660E+02 0.  0.
        -11    1    3    3    0    0  0.19036201572E+02 -0.21864366291E+02  0.22314569999E+03  0.22502095659E+03  0.00000000000E+00 0.  1.
         12    1    3    3    0    0  0.29067022966E+01  0.60276791034E+02  0.31068902847E+03  0.31649551793E+03  0.00000000000E+00 0. -1.
          3    1    1    2  501    0 -0.21942903868E+02 -0.38412424743E+02  0.15692051394E+03  0.16303696851E+03  0.00000000000E+00 0. -1.
<mgrwt>
<rscale>  1 0.90887705E+02</rscale>
<asrwt>0</asrwt>
<pdfrwt beam="1">  1       21 0.10614006E-02 0.90887705E+02</pdfrwt>
<pdfrwt beam="2">  1        4 0.10733138E+00 0.90887705E+02</pdfrwt>
<totfact> 0.93213818E+04</totfact>
</mgrwt>
</event>
<event>
 6    2  0.8544106E+000  0.9174881E+02  0.7546771E-02  0.1298671E+00
         21   -1    0    0  501  502  0.00000000000E+00  0.00000000000E+00  0.35262577493E+03  0.35262577493E+03  0.00000000000E+00 0.  1.
         -3   -1    0    0    0  501 -0.00000000000E+00 -0.00000000000E+00 -0.59934562337E+02  0.59934562337E+02  0.00000000000E+00 0.  1.
         24    2    1    2    0    0  0.25684233735E+02  0.30893069465E+02 -0.22785459539E+02  0.94535822075E+02  0.82485046435E+02 0.  0.
        -11    1    3    3    0    0 -0.42870414143E+00  0.53405934201E+02 -0.26924391370E+02  0.59810537916E+02  0.00000000000E+00 0.  1.
         12    1    3    3    0    0  0.26112937877E+02 -0.22512864737E+02  0.41389318310E+01  0.34725284159E+02  0.00000000000E+00 0. -1.
         -4    1    1    2    0  502 -0.25684233735E+02 -0.30893069465E+02  0.31547667213E+03  0.31802451519E+03  0.00000000000E+00 0.  1.
<mgrwt>
<rscale>  1 0.91748812E+02</rscale>
<asrwt>0</asrwt>
<pdfrwt beam="1">  1       21 0.54250118E-01 0.91748812E+02</pdfrwt>
<pdfrwt beam="2">  1       -3 0.92207021E-02 0.91748812E+02</pdfrwt>
<totfact> 0.12833834E+04</totfact>
</mgrwt>
</event>
<event>
 6    2  0.8544106E+000  0.8190052E+02  0.7546771E-02  0.1323743E+00
          2   -1    0    0  502    0 -0.00000000000E+00  0.00000000000E+00  0.14026324064E+04  0.14026324064E+04  0.00000000000E+00 0. -1.
         21   -1    0    0  501  502  0.00000000000E+00 -0.00000000000E+00 -0.95531033149E+01  0.95531033149E+01  0.00000000000E+00 0. -1.
         24    2    1    2    0    0 -0.49872512219E+01  0.19667380812E+02  0.13890960334E+04  0.13915083489E+04  0.79347440662E+02 0.  0.
        -11    1    3    3    0    0  0.78874260713E+01  0.10520566926E+02  0.36099200045E+02  0.38419344898E+02  0.00000000000E+00 0.  1.
         12    1    3    3    0    0 -0.12874677293E+02  0.91468138858E+01  0.13529968334E+04  0.13530890040E+04  0.00000000000E+00 0. -1.
          1    1    1    2  501    0  0.49872512219E+01 -0.19667380812E+02  0.39832696327E+01  0.20677160823E+02  0.00000000000E+00 0. -1.
<mgrwt>
<rscale>  1 0.81900518E+02</rscale>
<asrwt>0</asrwt>
<pdfrwt beam="1">  1       21 0.14697093E-02 0.81900518E+02</pdfrwt>
<pdfrwt beam="2">  1        2 0.21578944E+00 0.81900518E+02</pdfrwt>
<totfact> 0.39007218E+05</totfact>
</mgrwt>
</event>
<event>
 6    2  0.8544106E+000  0.8533153E+02  0.7546771E-02  0.1314568E+00
          2   -1    0    0  502    0 -0.00000000000E+00  0.00000000000E+00  0.46177147101E+02  0.46177147101E+02  0.00000000000E+00 0. -1.
         21   -1    0    0  501  502  0.00000000000E+00 -0.00000000000E+00 -0.12257421915E+03  0.12257421915E+03  0.00000000000E+00 0. -1.
         24    2    1    2    0    0 -0.52173161819E+01 -0.19593273451E+02  0.44040189949E+01  0.85445105582E+02  0.82887598179E+02 0.  0.
        -13    1    3    3    0    0  0.33488164080E+02 -0.60999673564E+01 -0.18238047727E+02  0.38617264534E+02  0.00000000000E+00 0.  1.
         14    1    3    3    0    0 -0.38705480262E+02 -0.13493306095E+02  0.22642066722E+02  0.46827841047E+02  0.00000000000E+00 0. -1.
          1    1    1    2  501    0  0.52173161819E+01  0.19593273451E+02 -0.80801091043E+02  0.83306260668E+02  0.00000000000E+00 0. -1.
<mgrwt>
<rscale>  1 0.85331534E+02</rscale>
<asrwt>0</asrwt>
<pdfrwt beam="1">  1       21 0.18857572E-01 0.85331534E+02</pdfrwt>
<pdfrwt beam="2">  1        2 0.71041765E-02 0.85331534E+02</pdfrwt>
<totfact> 0.29068245E+05</totfact>
</mgrwt>
</event>
<event>
 6    2  0.8544106E+000  0.8468222E+02  0.7546771E-02  0.1316266E+00
          2   -1    0    0  502    0 -0.00000000000E+00  0.00000000000E+00  0.12472776565E+03  0.12472776565E+03  0.00000000000E+00 0. -1.
         21   -1    0    0  501  502  0.00000000000E+00 -0.00000000000E+00 -0.24070451894E+02  0.24070451894E+02  0.00000000000E+00 0.  1.
         24    2    1    2    0    0  0.87017479618E+00  0.22593628846E+02  0.90716652219E+02  0.12409910783E+03  0.81607893654E+02 0.  0.
        -13    1    3    3    0    0  0.14276433800E+02 -0.23109192868E+02  0.74392349470E+01  0.28163692472E+02  0.00000000000E+00 0.  1.
         14    1    3    3    0    0 -0.13406259003E+02  0.45702821714E+02  0.83277417272E+02  0.95935415361E+02  0.00000000000E+00 0. -1.
          1    1    1    2  501    0 -0.87017479618E+00 -0.22593628846E+02  0.99406615341E+01  0.24699109707E+02  0.00000000000E+00 0. -1.
<mgrwt>
<rscale>  1 0.84682215E+02</rscale>
<asrwt>0</asrwt>
<pdfrwt beam="1">  1       21 0.37031465E-02 0.84682215E+02</pdfrwt>
<pdfrwt beam="2">  1        2 0.19188887E-01 0.84682215E+02</pdfrwt>
<totfact> 0.14569238E+06</totfact>
</mgrwt>
</event>
<event>
 6    2  0.8544106E+000  0.8956742E+02  0.7546771E-02  0.1303903E+00
         21   -1    0    0  501  502  0.00000000000E+00  0.00000000000E+00  0.60850490613E+01  0.60850490613E+01  0.00000000000E+00 0.  1.
          2   -1    0    0  502    0 -0.00000000000E+00 -0.00000000000E+00 -0.73621057096E+03  0.73621057096E+03  0.00000000000E+00 0. -1.
         24    2    1    2    0    0 -0.14164730438E+02  0.35741371418E+02 -0.39808517603E+03  0.40803692304E+03  0.80896464536E+02 0.  0.
        -13    1    3    3    0    0  0.13964502716E+01  0.19124343305E+02 -0.15182587748E+02  0.24458159189E+02  0.00000000000E+00 0.  1.
         14    1    3    3    0    0 -0.15561180710E+02  0.16617028113E+02 -0.38290258828E+03  0.38357876385E+03  0.00000000000E+00 0. -1.
          1    1    1    2  501    0  0.14164730438E+02 -0.35741371418E+02 -0.33204034587E+03  0.33425869698E+03  0.00000000000E+00 0. -1.
<mgrwt>
<rscale>  1 0.89567423E+02</rscale>
<asrwt>0</asrwt>
<pdfrwt beam="1">  1       21 0.93616182E-03 0.89567423E+02</pdfrwt>
<pdfrwt beam="2">  1        2 0.11326311E+00 0.89567423E+02</pdfrwt>
<totfact> 0.19393450E+06</totfact>
</mgrwt>
</event>
<event>
 6    2  0.8544106E+000  0.8426543E+02  0.7546771E-02  0.1317365E+00
         -3   -1    0    0    0  501 -0.00000000000E+00  0.00000000000E+00  0.71707218847E+01  0.71707218847E+01  0.00000000000E+00 0.  1.
         21   -1    0    0  501  502  0.00000000000E+00 -0.00000000000E+00 -0.43104390746E+03  0.43104390746E+03  0.00000000000E+00 0. -1.
         24    2    1    2    0    0 -0.23298416604E+02  0.12178192063E+02 -0.30182509077E+03  0.31336727445E+03  0.80059594683E+02 0.  0.
        -13    1    3    3    0    0 -0.38825508569E+02  0.20607973802E+02 -0.83808854938E+02  0.94636318958E+02  0.00000000000E+00 0.  1.
         14    1    3    3    0    0  0.15527091965E+02 -0.84297817389E+01 -0.21801623583E+03  0.21873095549E+03  0.00000000000E+00 0. -1.
         -4    1    1    2    0  502  0.23298416604E+02 -0.12178192063E+02 -0.12204809480E+03  0.12484735489E+03  0.00000000000E+00 0.  1.
<mgrwt>
<rscale>  1 0.84265433E+02</rscale>
<asrwt>0</asrwt>
<pdfrwt beam="1">  1       21 0.66314437E-01 0.84265433E+02</pdfrwt>
<pdfrwt beam="2">  1       -3 0.11031882E-02 0.84265433E+02</pdfrwt>
<totfact> 0.21980951E+05</totfact>
</mgrwt>
</event>
<event>
 6    2  0.8544106E+000  0.9457258E+02  0.7546771E-02  0.1292142E+00
          2   -1    0    0  502    0 -0.00000000000E+00  0.00000000000E+00  0.52291568840E+03  0.52291568840E+03  0.00000000000E+00 0. -1.
         21   -1    0    0  501  502  0.00000000000E+00 -0.00000000000E+00 -0.11986180737E+02  0.11986180737E+02  0.00000000000E+00 0.  1.
         24    2    1    2    0    0  0.59884543180E+02  0.11089774831E+02  0.35827822555E+03  0.37054994324E+03  0.72352138249E+02 0.  0.
        -11    1    3    3    0    0  0.74346695739E+02  0.16378525856E+02  0.25472604067E+03  0.26585906618E+03  0.00000000000E+00 0.  1.
         12    1    3    3    0    0 -0.14462152558E+02 -0.52887510250E+01  0.10355218488E+03  0.10469087705E+03  0.00000000000E+00 0. -1.
          1    1    1    2  501    0 -0.59884543180E+02 -0.11089774831E+02  0.15265128211E+03  0.16435192590E+03  0.00000000000E+00 0. -1.
<mgrwt>
<rscale>  1 0.94572583E+02</rscale>
<asrwt>0</asrwt>
<pdfrwt beam="1">  1       21 0.18440282E-02 0.94572583E+02</pdfrwt>
<pdfrwt beam="2">  1        2 0.80448550E-01 0.94572583E+02</pdfrwt>
<totfact> 0.98545050E+05</totfact>
</mgrwt>
</event>
<event>
 6    2  0.8544106E+000  0.8420750E+02  0.7546771E-02  0.1317518E+00
         21   -1    0    0  501  502  0.00000000000E+00  0.00000000000E+00  0.46258848752E+03  0.46258848752E+03  0.00000000000E+00 0. -1.
         -3   -1    0    0    0  501 -0.00000000000E+00 -0.00000000000E+00 -0.61124400680E+01  0.61124400680E+01  0.00000000000E+00 0.  1.
         24    2    1    2    0    0  0.12420256589E+02 -0.17583967924E+02  0.34166893573E+03  0.35189283025E+03  0.81409112741E+02 0.  0.
        -11    1    3    3    0    0 -0.38826519251E+01  0.11481416905E+02  0.42673351411E+01  0.12849438483E+02  0.00000000000E+00 0.  1.
         12    1    3    3    0    0  0.16302908514E+02 -0.29065384829E+02  0.33740160059E+03  0.33904339176E+03  0.00000000000E+00 0. -1.
         -4    1    1    2    0  502 -0.12420256589E+02  0.17583967924E+02  0.11480711173E+03  0.11680809734E+03  0.00000000000E+00 0.  1.
<mgrwt>
<rscale>  1 0.84207496E+02</rscale>
<asrwt>0</asrwt>
<pdfrwt beam="1">  1       21 0.71167432E-01 0.84207496E+02</pdfrwt>
<pdfrwt beam="2">  1       -3 0.94037576E-03 0.84207496E+02</pdfrwt>
<totfact> 0.23918603E+05</totfact>
</mgrwt>
</event>
<event>
 6    2  0.8544106E+000  0.8948250E+02  0.7546771E-02  0.1304110E+00
          4   -1    0    0  502    0 -0.00000000000E+00  0.00000000000E+00  0.38792659220E+03  0.38792659220E+03  0.00000000000E+00 0. -1.
         21   -1    0    0  501  502  0.00000000000E+00 -0.00000000000E+00 -0.12059702128E+02  0.12059702128E+02  0.00000000000E+00 0.  1.
         24    2    1    2    0    0 -0.36417757347E+02 -0.14721353550E+02  0.19003995617E+03  0.21005309380E+03  0.80399912764E+02 0.  0.
        -13    1    3    3    0    0 -0.38482248894E+02 -0.36554858600E+02  0.69053008051E+02  0.87094541092E+02  0.00000000000E+00 0.  1.
         14    1    3    3    0    0  0.20644915471E+01  0.21833505050E+02  0.12098694812E+03  0.12295855271E+03  0.00000000000E+00 0. -1.
          3    1    1    2  501    0  0.36417757347E+02  0.14721353550E+02  0.18582693390E+03  0.18993320053E+03  0.00000000000E+00 0. -1.
<mgrwt>
<rscale>  1 0.89482497E+02</rscale>
<asrwt>0</asrwt>
<pdfrwt beam="1">  1       21 0.18553391E-02 0.89482497E+02</pdfrwt>
<pdfrwt beam="2">  1        4 0.59681005E-01 0.89482497E+02</pdfrwt>
<totfact> 0.13933576E+05</totfact>
</mgrwt>
</event>
<event>
 6    2  0.8544106E+000  0.8597598E+02  0.7546771E-02  0.1312900E+00
          4   -1    0    0  502    0 -0.00000000000E+00  0.00000000000E+00  0.63043782903E+02  0.63043782903E+02  0.00000000000E+00 0. -1.
         21   -1    0    0  501  502  0.00000000000E+00 -0.00000000000E+00 -0.39510632917E+03  0.39510632917E+03  0.00000000000E+00 0. -1.
         24    2    1    2    0    0  0.30662612942E+02 -0.32638348788E+01  0.32775384478E+02  0.92011389509E+02  0.80255974987E+02 0.  0.
        -13    1    3    3    0    0 -0.13513089762E+02  0.10305464930E+02 -0.17036924451E+02  0.24063727831E+02  0.00000000000E+00 0.  1.
         14    1    3    3    0    0  0.44175702704E+02 -0.13569299809E+02  0.49812308930E+02  0.67947661679E+02  0.00000000000E+00 0. -1.
          3    1    1    2  501    0 -0.30662612942E+02  0.32638348788E+01 -0.36483793075E+03  0.36613872257E+03  0.00000000000E+00 0. -1.
<mgrwt>
<rscale>  1 0.85975985E+02</rscale>
<asrwt>0</asrwt>
<pdfrwt beam="1">  1       21 0.60785589E-01 0.85975985E+02</pdfrwt>
<pdfrwt beam="2">  1        4 0.96990435E-02 0.85975985E+02</pdfrwt>
<totfact> 0.80216758E+03</totfact>
</mgrwt>
</event>
<event>
 6    2  0.8544106E+000  0.8458711E+02  0.7546771E-02  0.1316516E+00
          2   -1    0    0  502    0 -0.00000000000E+00  0.00000000000E+00  0.20493191246E+04  0.20493191246E+04  0.00000000000E+00 0. -1.
         21   -1    0    0  501  502  0.00000000000E+00 -0.00000000000E+00 -0.15216131622E+01  0.15216131622E+01  0.00000000000E+00 0.  1.
         24    2    1    2    0    0  0.15441130416E+02  0.13132208102E+02  0.18660868703E+04  0.18680029941E+04  0.82122439873E+02 0.  0.
        -13    1    3    3    0    0  0.43487521951E+02  0.82988503921E+01  0.61457107941E+03  0.61616365288E+03  0.00000000000E+00 0.  1.
         14    1    3    3    0    0 -0.28046391535E+02  0.48333577101E+01  0.12515157909E+04  0.12518393412E+04  0.00000000000E+00 0. -1.
          1    1    1    2  501    0 -0.15441130416E+02 -0.13132208102E+02  0.18171064115E+03  0.18283774366E+03  0.00000000000E+00 0. -1.
<mgrwt>
<rscale>  1 0.84587106E+02</rscale>
<asrwt>0</asrwt>
<pdfrwt beam="1">  1       21 0.23409597E-03 0.84587106E+02</pdfrwt>
<pdfrwt beam="2">  1        2 0.31527766E+00 0.84587106E+02</pdfrwt>
<totfact> 0.31139824E+06</totfact>
</mgrwt>
</event>
<event>
 6    2  0.8544106E+000  0.1708880E+03  0.7546771E-02  0.1176925E+00
         21   -1    0    0  501  502  0.00000000000E+00  0.00000000000E+00  0.63582987964E+01  0.63582987964E+01  0.00000000000E+00 0. -1.
          2   -1    0    0  502    0 -0.00000000000E+00 -0.00000000000E+00 -0.48056115522E+04  0.48056115522E+04  0.00000000000E+00 0. -1.
         24    2    1    2    0    0  0.11413377975E+03  0.10153565643E+03 -0.16063200785E+04  0.16153844433E+04  0.76594359466E+02 0.  0.
        -11    1    3    3    0    0  0.72631100823E+01  0.41150110500E+02 -0.24466402705E+03  0.24820670921E+03  0.00000000000E+00 0.  1.
         12    1    3    3    0    0  0.10687066967E+03  0.60385545930E+02 -0.13616560514E+04  0.13671777341E+04  0.00000000000E+00 0. -1.
          1    1    1    2  501    0 -0.11413377975E+03 -0.10153565643E+03 -0.31929331750E+04  0.31965854077E+04  0.00000000000E+00 0. -1.
<mgrwt>
<rscale>  1 0.17088799E+03</rscale>
<asrwt>0</asrwt>
<pdfrwt beam="1">  1       21 0.97819799E-03 0.17088799E+03</pdfrwt>
<pdfrwt beam="2">  1        2 0.73932624E+00 0.17088799E+03</pdfrwt>
<totfact> 0.45423861E+03</totfact>
</mgrwt>
</event>
<event>
 6    2  0.8544106E+000  0.7070025E+02  0.7546771E-02  0.1357728E+00
          2   -1    0    0  502    0 -0.00000000000E+00  0.00000000000E+00  0.99410297234E+03  0.99410297234E+03  0.00000000000E+00 0. -1.
         21   -1    0    0  501  502  0.00000000000E+00 -0.00000000000E+00 -0.31492009690E+01  0.31492009690E+01  0.00000000000E+00 0. -1.
         24    2    1    2    0    0  0.58296783171E+01  0.21458063025E+02  0.92403590043E+03  0.92673667807E+03  0.67112529171E+02 0.  0.
        -13    1    3    3    0    0 -0.28108123788E+02  0.23300150098E+02  0.44340989356E+03  0.44491043742E+03  0.00000000000E+00 0.  1.
         14    1    3    3    0    0  0.33937802105E+02 -0.18420870732E+01  0.48062600687E+03  0.48182624065E+03  0.00000000000E+00 0. -1.
          1    1    1    2  501    0 -0.58296783171E+01 -0.21458063025E+02  0.66917870942E+02  0.70515495244E+02  0.00000000000E+00 0. -1.
<mgrwt>
<rscale>  1 0.70700249E+02</rscale>
<asrwt>0</asrwt>
<pdfrwt beam="1">  1       21 0.48449325E-03 0.70700249E+02</pdfrwt>
<pdfrwt beam="2">  1        2 0.15293867E+00 0.70700249E+02</pdfrwt>
<totfact> 0.35780079E+06</totfact>
</mgrwt>
</event>
<event>
 6    2  0.8544106E+000  0.9549178E+02  0.7546771E-02  0.1290072E+00
          2   -1    0    0  502    0 -0.00000000000E+00  0.00000000000E+00  0.59773409714E+03  0.59773409714E+03  0.00000000000E+00 0. -1.
         21   -1    0    0  501  502  0.00000000000E+00 -0.00000000000E+00 -0.86364627714E+01  0.86364627714E+01  0.00000000000E+00 0. -1.
         24    2    1    2    0    0 -0.23500038246E+02 -0.41792812823E+02  0.40902819527E+03  0.42002707627E+03  0.82582015394E+02 0.  0.
        -11    1    3    3    0    0  0.31001418529E+02 -0.18578073742E+02  0.16489511605E+03  0.16880945493E+03  0.00000000000E+00 0.  1.
         12    1    3    3    0    0 -0.54501456775E+02 -0.23214739080E+02  0.24413307922E+03  0.25121762134E+03  0.00000000000E+00 0. -1.
          1    1    1    2  501    0  0.23500038246E+02  0.41792812823E+02  0.18006943909E+03  0.18634348365E+03  0.00000000000E+00 0. -1.
<mgrwt>
<rscale>  1 0.95491781E+02</rscale>
<asrwt>0</asrwt>
<pdfrwt beam="1">  1       21 0.13286871E-02 0.95491781E+02</pdfrwt>
<pdfrwt beam="2">  1        2 0.91959059E-01 0.95491781E+02</pdfrwt>
<totfact> 0.14319210E+06</totfact>
</mgrwt>
</event>
<event>
 6    2  0.8544106E+000  0.1106794E+03  0.7546771E-02  0.1259317E+00
          4   -1    0    0  502    0 -0.00000000000E+00  0.00000000000E+00  0.21141731812E+03  0.21141731812E+03  0.00000000000E+00 0. -1.
         21   -1    0    0  501  502  0.00000000000E+00 -0.00000000000E+00 -0.48170276748E+02  0.48170276748E+02  0.00000000000E+00 0. -1.
         24    2    1    2    0    0  0.74340361426E+02  0.11508724427E+02  0.14457939567E+03  0.18208003994E+03  0.81184969153E+02 0.  0.
        -13    1    3    3    0    0 -0.15056175251E+02  0.14932039611E+02  0.26643087623E+02  0.34051554123E+02  0.00000000000E+00 0.  1.
         14    1    3    3    0    0  0.89396536677E+02 -0.34233151841E+01  0.11793630805E+03  0.14802848581E+03  0.00000000000E+00 0. -1.
          3    1    1    2  501    0 -0.74340361426E+02 -0.11508724427E+02  0.18667645700E+02  0.77507554928E+02  0.00000000000E+00 0. -1.
<mgrwt>
<rscale>  1 0.11067944E+03</rscale>
<asrwt>0</asrwt>
<pdfrwt beam="1">  1       21 0.74108119E-02 0.11067944E+03</pdfrwt>
<pdfrwt beam="2">  1        4 0.32525741E-01 0.11067944E+03</pdfrwt>
<totfact> 0.49152821E+04</totfact>
</mgrwt>
</event>
<event>
 6    2  0.8544106E+000  0.8804603E+02  0.7546771E-02  0.1307654E+00
         21   -1    0    0  501  502  0.00000000000E+00  0.00000000000E+00  0.11614954872E+03  0.11614954872E+03  0.00000000000E+00 0. -1.
          2   -1    0    0  502    0 -0.00000000000E+00 -0.00000000000E+00 -0.55163576926E+02  0.55163576926E+02  0.00000000000E+00 0. -1.
         24    2    1    2    0    0  0.34455075011E+02  0.50892777995E+01 -0.13510912319E+02  0.89076645390E+02  0.80864399210E+02 0.  0.
        -13    1    3    3    0    0  0.11748208012E+02 -0.16578772573E+02  0.29506593926E+02  0.35826180045E+02  0.00000000000E+00 0.  1.
         14    1    3    3    0    0  0.22706866999E+02  0.21668050373E+02 -0.43017506245E+02  0.53250465344E+02  0.00000000000E+00 0. -1.
          1    1    1    2  501    0 -0.34455075011E+02 -0.50892777995E+01  0.74496884113E+02  0.82236480257E+02  0.00000000000E+00 0. -1.
<mgrwt>
<rscale>  1 0.88046033E+02</rscale>
<asrwt>0</asrwt>
<pdfrwt beam="1">  1       21 0.17869161E-01 0.88046033E+02</pdfrwt>
<pdfrwt beam="2">  1        2 0.84867042E-02 0.88046033E+02</pdfrwt>
<totfact> 0.25766440E+05</totfact>
</mgrwt>
</event>
<event>
 6    2  0.8544106E+000  0.8622199E+02  0.7546771E-02  0.1312267E+00
         21   -1    0    0  501  502  0.00000000000E+00  0.00000000000E+00  0.44659008807E+02  0.44659008807E+02  0.00000000000E+00 0. -1.
          4   -1    0    0  502    0 -0.00000000000E+00 -0.00000000000E+00 -0.80975180754E+02  0.80975180754E+02  0.00000000000E+00 0. -1.
         24    2    1    2    0    0  0.37839512371E+01 -0.29498182706E+02 -0.11668062690E+02  0.87007898516E+02  0.80930647145E+02 0.  0.
        -13    1    3    3    0    0  0.34763813438E+02 -0.10324441379E+02 -0.29215686328E+02  0.46569014829E+02  0.00000000000E+00 0.  1.
         14    1    3    3    0    0 -0.30979862201E+02 -0.19173741327E+02  0.17547623638E+02  0.40438883686E+02  0.00000000000E+00 0. -1.
          3    1    1    2  501    0 -0.37839512371E+01  0.29498182706E+02 -0.24648109257E+02  0.38626291045E+02  0.00000000000E+00 0. -1.
<mgrwt>
<rscale>  1 0.86221985E+02</rscale>
<asrwt>0</asrwt>
<pdfrwt beam="1">  1       21 0.68706167E-02 0.86221985E+02</pdfrwt>
<pdfrwt beam="2">  1        4 0.12457720E-01 0.86221985E+02</pdfrwt>
<totfact> 0.29927426E+05</totfact>
</mgrwt>
</event>
<event>
 6    2  0.8544106E+000  0.8629201E+02  0.7546771E-02  0.1312088E+00
          2   -1    0    0  502    0 -0.00000000000E+00  0.00000000000E+00  0.13802058919E+02  0.13802058919E+02  0.00000000000E+00 0. -1.
         21   -1    0    0  501  502  0.00000000000E+00 -0.00000000000E+00 -0.26972014281E+03  0.26972014281E+03  0.00000000000E+00 0.  1.
         24    2    1    2    0    0  0.33391143391E+02  0.63548826137E+01 -0.16043395247E+03  0.18216850252E+03  0.79315554689E+02 0.  0.
        -13    1    3    3    0    0  0.19026367407E+02  0.17868639933E+02 -0.16162628396E+03  0.16372033049E+03  0.00000000000E+00 0.  1.
         14    1    3    3    0    0  0.14364775984E+02 -0.11513757320E+02  0.11923314941E+01  0.18448172025E+02  0.00000000000E+00 0. -1.
          1    1    1    2  501    0 -0.33391143391E+02 -0.63548826137E+01 -0.95484131429E+02  0.10135369922E+03  0.00000000000E+00 0. -1.
<mgrwt>
<rscale>  1 0.86292005E+02</rscale>
<asrwt>0</asrwt>
<pdfrwt beam="1">  1       21 0.41495405E-01 0.86292005E+02</pdfrwt>
<pdfrwt beam="2">  1        2 0.21233938E-02 0.86292005E+02</pdfrwt>
<totfact> 0.31549211E+05</totfact>
</mgrwt>
</event>
<event>
 6    2  0.8544106E+000  0.8574099E+02  0.7546771E-02  0.1313506E+00
          2   -1    0    0  502    0 -0.00000000000E+00  0.00000000000E+00  0.98385908274E+02  0.98385908274E+02  0.00000000000E+00 0. -1.
         21   -1    0    0  501  502  0.00000000000E+00 -0.00000000000E+00 -0.52011244629E+02  0.52011244629E+02  0.00000000000E+00 0. -1.
         24    2    1    2    0    0  0.32946328763E+01 -0.33613650309E+02 -0.82893240464E+01  0.86140763001E+02  0.78808540554E+02 0.  0.
        -13    1    3    3    0    0  0.26744144061E+02  0.46501499000E+01 -0.26288391955E+02  0.37788261236E+02  0.00000000000E+00 0.  1.
         14    1    3    3    0    0 -0.23449511185E+02 -0.38263800209E+02  0.17999067909E+02  0.48352501764E+02  0.00000000000E+00 0. -1.
          1    1    1    2  501    0 -0.32946328763E+01  0.33613650309E+02  0.54663987691E+02  0.64256389902E+02  0.00000000000E+00 0. -1.
<mgrwt>
<rscale>  1 0.85740995E+02</rscale>
<asrwt>0</asrwt>
<pdfrwt beam="1">  1       21 0.80017300E-02 0.85740995E+02</pdfrwt>
<pdfrwt beam="2">  1        2 0.15136294E-01 0.85740995E+02</pdfrwt>
<totfact> 0.52767997E+05</totfact>
</mgrwt>
</event>
<event>
 6    2  0.8544106E+000  0.8542526E+02  0.7546771E-02  0.1314324E+00
         21   -1    0    0  501  502  0.00000000000E+00  0.00000000000E+00  0.13897584346E+03  0.13897584346E+03  0.00000000000E+00 0.  1.
         -1   -1    0    0    0  501 -0.00000000000E+00 -0.00000000000E+00 -0.39874682533E+02  0.39874682533E+02  0.00000000000E+00 0.  1.
         24    2    1    2    0    0 -0.14854821553E+02 -0.16796168667E+02  0.88809315879E+01  0.85885657427E+02  0.82429959363E+02 0.  0.
        -11    1    3    3    0    0  0.11625273915E+00 -0.14403604511E+02 -0.35860534328E+02  0.38645248866E+02  0.00000000000E+00 0.  1.
         12    1    3    3    0    0 -0.14971074292E+02 -0.23925641562E+01  0.44741465916E+02  0.47240408561E+02  0.00000000000E+00 0. -1.
         -2    1    1    2    0  502  0.14854821553E+02  0.16796168667E+02  0.90220229339E+02  0.92964868564E+02  0.00000000000E+00 0.  1.
<mgrwt>
<rscale>  1 0.85425261E+02</rscale>
<asrwt>0</asrwt>
<pdfrwt beam="1">  1       21 0.21380899E-01 0.85425261E+02</pdfrwt>
<pdfrwt beam="2">  1       -1 0.61345666E-02 0.85425261E+02</pdfrwt>
<totfact> 0.22003336E+05</totfact>
</mgrwt>
</event>
<event>
 6    2  0.8544106E+000  0.8651908E+02  0.7546771E-02  0.1311507E+00
          2   -1    0    0  502    0 -0.00000000000E+00  0.00000000000E+00  0.28753148083E+04  0.28753148083E+04  0.00000000000E+00 0. -1.
         21   -1    0    0  501  502  0.00000000000E+00 -0.00000000000E+00 -0.17287605504E+01  0.17287605504E+01  0.00000000000E+00 0.  1.
         24    2    1    2    0    0 -0.17131600023E+02 -0.25787877334E+02  0.11772301031E+04  0.11804051285E+04  0.80790131827E+02 0.  0.
        -13    1    3    3    0    0 -0.57005068715E+01  0.18290059761E+02  0.81195358681E+02  0.83424866413E+02  0.00000000000E+00 0.  1.
         14    1    3    3    0    0 -0.11431093152E+02 -0.44077937094E+02  0.10960347444E+04  0.10969802621E+04  0.00000000000E+00 0. -1.
          1    1    1    2  501    0  0.17131600023E+02  0.25787877334E+02  0.16963559446E+04  0.16966384403E+04  0.00000000000E+00 0. -1.
<mgrwt>
<rscale>  1 0.86519083E+02</rscale>
<asrwt>0</asrwt>
<pdfrwt beam="1">  1       21 0.26596546E-03 0.86519083E+02</pdfrwt>
<pdfrwt beam="2">  1        2 0.44235230E+00 0.86519083E+02</pdfrwt>
<totfact> 0.95059060E+05</totfact>
</mgrwt>
</event>
<event>
 6    2  0.8544106E+000  0.8296969E+02  0.7546771E-02  0.1320829E+00
         -3   -1    0    0    0  501 -0.00000000000E+00  0.00000000000E+00  0.16311983852E+03  0.16311983852E+03  0.00000000000E+00 0.  1.
         21   -1    0    0  501  502  0.00000000000E+00 -0.00000000000E+00 -0.30624719461E+03  0.30624719461E+03  0.00000000000E+00 0.  1.
         24    2    1    2    0    0 -0.40770060764E+02 -0.96921083266E+01  0.15098718332E+03  0.17228203331E+03  0.71608900677E+02 0.  0.
        -11    1    3    3    0    0 -0.54935388378E+02  0.12709213126E+02  0.10616487362E+03  0.12020982234E+03  0.00000000000E+00 0.  1.
         12    1    3    3    0    0  0.14165327614E+02 -0.22401321453E+02  0.44822309698E+02  0.52072210976E+02  0.00000000000E+00 0. -1.
         -4    1    1    2    0  502  0.40770060764E+02  0.96921083266E+01 -0.29411453942E+03  0.29708499982E+03  0.00000000000E+00 0.  1.
<mgrwt>
<rscale>  1 0.82969690E+02</rscale>
<asrwt>0</asrwt>
<pdfrwt beam="1">  1       21 0.47114952E-01 0.82969690E+02</pdfrwt>
<pdfrwt beam="2">  1       -3 0.25095360E-01 0.82969690E+02</pdfrwt>
<totfact> 0.31070780E+03</totfact>
</mgrwt>
</event>
<event>
 6    2  0.8544106E+000  0.1084057E+03  0.7546771E-02  0.1263551E+00
         21   -1    0    0  501  502  0.00000000000E+00  0.00000000000E+00  0.57470848546E+02  0.57470848546E+02  0.00000000000E+00 0. -1.
          2   -1    0    0  502    0 -0.00000000000E+00 -0.00000000000E+00 -0.20767618210E+03  0.20767618210E+03  0.00000000000E+00 0. -1.
         24    2    1    2    0    0 -0.71818187293E+02  0.56863210777E+01 -0.15913725423E+03  0.19255250275E+03  0.81003792243E+02 0.  0.
        -13    1    3    3    0    0  0.72390139812E+01 -0.23051326805E+02 -0.39480009418E+02  0.46286478961E+02  0.00000000000E+00 0.  1.
         14    1    3    3    0    0 -0.79057201275E+02  0.28737647883E+02 -0.11965724481E+03  0.14626602379E+03  0.00000000000E+00 0. -1.
          1    1    1    2  501    0  0.71818187293E+02 -0.56863210777E+01  0.89319206762E+01  0.72594527896E+02  0.00000000000E+00 0. -1.
<mgrwt>
<rscale>  1 0.10840572E+03</rscale>
<asrwt>0</asrwt>
<pdfrwt beam="1">  1       21 0.88416691E-02 0.10840572E+03</pdfrwt>
<pdfrwt beam="2">  1        2 0.31950181E-01 0.10840572E+03</pdfrwt>
<totfact> 0.19776943E+05</totfact>
</mgrwt>
</event>
<event>
 6    2  0.8544106E+000  0.1064147E+03  0.7546771E-02  0.1267357E+00
         21   -1    0    0  501  502  0.00000000000E+00  0.00000000000E+00  0.43997191374E+01  0.43997191374E+01  0.00000000000E+00 0.  1.
          2   -1    0    0  502    0 -0.00000000000E+00 -0.00000000000E+00 -0.17844132418E+04  0.17844132418E+04  0.00000000000E+00 0. -1.
         24    2    1    2    0    0 -0.97655112965E+01 -0.70105172460E+02 -0.10799693488E+04  0.10851994692E+04  0.79460639040E+02 0.  0.
        -13    1    3    3    0    0  0.26074260069E+02 -0.23432760620E+02 -0.18464913314E+03  0.18794750245E+03  0.00000000000E+00 0.  1.
         14    1    3    3    0    0 -0.35839771366E+02 -0.46672411841E+02 -0.89532021568E+03  0.89725196676E+03  0.00000000000E+00 0. -1.
          1    1    1    2  501    0  0.97655112965E+01  0.70105172460E+02 -0.70004417389E+03  0.70361349178E+03  0.00000000000E+00 0. -1.
<mgrwt>
<rscale>  1 0.10641472E+03</rscale>
<asrwt>0</asrwt>
<pdfrwt beam="1">  1       21 0.67687893E-03 0.10641472E+03</pdfrwt>
<pdfrwt beam="2">  1        2 0.27452550E+00 0.10641472E+03</pdfrwt>
<totfact> 0.84930665E+05</totfact>
</mgrwt>
</event>
<event>
 6    2  0.8544106E+000  0.1029759E+03  0.7546771E-02  0.1274160E+00
         -1   -1    0    0    0  501 -0.00000000000E+00  0.00000000000E+00  0.11959191298E+03  0.11959191298E+03  0.00000000000E+00 0.  1.
         21   -1    0    0  501  502  0.00000000000E+00 -0.00000000000E+00 -0.53101410395E+02  0.53101410395E+02  0.00000000000E+00 0.  1.
         24    2    1    2    0    0 -0.43655007578E+02  0.16678973882E+02  0.71980437934E+02  0.12563923485E+03  0.91761026764E+02 0.  0.
        -13    1    3    3    0    0 -0.66262719831E+02  0.26800476657E+02  0.71153369648E+02  0.10085541929E+03  0.00000000000E+00 0.  1.
         14    1    3    3    0    0  0.22607712254E+02 -0.10121502775E+02  0.82706828634E+00  0.24783815560E+02  0.00000000000E+00 0. -1.
         -2    1    1    2    0  502  0.43655007578E+02 -0.16678973882E+02 -0.54899353511E+01  0.47054088521E+02  0.00000000000E+00 0.  1.
<mgrwt>
<rscale>  1 0.10297589E+03</rscale>
<asrwt>0</asrwt>
<pdfrwt beam="1">  1       21 0.81694478E-02 0.10297589E+03</pdfrwt>
<pdfrwt beam="2">  1       -1 0.18398756E-01 0.10297589E+03</pdfrwt>
<totfact> 0.23167352E+05</totfact>
</mgrwt>
</event>
<event>
 6    2  0.8544106E+000  0.7904937E+02  0.7546771E-02  0.1331771E+00
          2   -1    0    0  502    0 -0.00000000000E+00  0.00000000000E+00  0.13048974514E+04  0.13048974514E+04  0.00000000000E+00 0. -1.
         21   -1    0    0  501  502  0.00000000000E+00 -0.00000000000E+00 -0.54586115560E+01  0.54586115560E+01  0.00000000000E+00 0. -1.
         24    2    1    2    0    0 -0.23240608995E+02 -0.46426630446E+01  0.12704741938E+04  0.12729310587E+04  0.75413014143E+02 0.  0.
        -11    1    3    3    0    0 -0.34202553612E+02  0.10198455992E+02  0.27753742225E+03  0.27982287957E+03  0.00000000000E+00 0.  1.
         12    1    3    3    0    0  0.10961944618E+02 -0.14841119036E+02  0.99293677159E+03  0.99310817911E+03  0.00000000000E+00 0. -1.
          1    1    1    2  501    0  0.23240608995E+02  0.46426630446E+01  0.28964645967E+02  0.37425004243E+02  0.00000000000E+00 0. -1.
<mgrwt>
<rscale>  1 0.79049370E+02</rscale>
<asrwt>0</asrwt>
<pdfrwt beam="1">  1       21 0.83978743E-03 0.79049370E+02</pdfrwt>
<pdfrwt beam="2">  1        2 0.20075321E+00 0.79049370E+02</pdfrwt>
<totfact> 0.10498030E+06</totfact>
</mgrwt>
</event>
<event>
 6    2  0.8544106E+000  0.9009998E+02  0.7546771E-02  0.1302610E+00
          2   -1    0    0  502    0 -0.00000000000E+00  0.00000000000E+00  0.53115710580E+03  0.53115710580E+03  0.00000000000E+00 0. -1.
         21   -1    0    0  501  502  0.00000000000E+00 -0.00000000000E+00 -0.89604283269E+01  0.89604283269E+01  0.00000000000E+00 0.  1.
         24    2    1    2    0    0 -0.12705462209E+02  0.39096087389E+02  0.42735754776E+03  0.43675219495E+03  0.80175266413E+02 0.  0.
        -11    1    3    3    0    0 -0.92912423591E+01  0.15868973887E+02  0.15010716959E+02  0.23737589187E+02  0.00000000000E+00 0.  1.
         12    1    3    3    0    0 -0.34142198503E+01  0.23227113502E+02  0.41234683081E+03  0.41301460576E+03  0.00000000000E+00 0. -1.
          1    1    1    2  501    0  0.12705462209E+02 -0.39096087389E+02  0.94839129713E+02  0.10336533918E+03  0.00000000000E+00 0. -1.
<mgrwt>
<rscale>  1 0.90099979E+02</rscale>
<asrwt>0</asrwt>
<pdfrwt beam="1">  1       21 0.13785279E-02 0.90099979E+02</pdfrwt>
<pdfrwt beam="2">  1        2 0.81716453E-01 0.90099979E+02</pdfrwt>
<totfact> 0.15303650E+06</totfact>
</mgrwt>
</event>
<event>
 6    2  0.8544106E+000  0.8837135E+02  0.7546771E-02  0.1306844E+00
         21   -1    0    0  501  502  0.00000000000E+00  0.00000000000E+00  0.86532346884E+01  0.86532346884E+01  0.00000000000E+00 0. -1.
          2   -1    0    0  502    0 -0.00000000000E+00 -0.00000000000E+00 -0.13221537714E+04  0.13221537714E+04  0.00000000000E+00 0. -1.
         24    2    1    2    0    0 -0.10539409592E+02  0.36622831729E+02 -0.12696045229E+04  0.12726763688E+04  0.79731952652E+02 0.  0.
        -13    1    3    3    0    0  0.19447758380E+02 -0.74507642595E+01 -0.11695283352E+03  0.11879265323E+03  0.00000000000E+00 0.  1.
         14    1    3    3    0    0 -0.29987167972E+02  0.44073595989E+02 -0.11526516893E+04  0.11538837156E+04  0.00000000000E+00 0. -1.
          1    1    1    2  501    0  0.10539409592E+02 -0.36622831729E+02 -0.43896013808E+02  0.58130637246E+02  0.00000000000E+00 0. -1.
<mgrwt>
<rscale>  1 0.88371348E+02</rscale>
<asrwt>0</asrwt>
<pdfrwt beam="1">  1       21 0.13312670E-02 0.88371348E+02</pdfrwt>
<pdfrwt beam="2">  1        2 0.20340825E+00 0.88371348E+02</pdfrwt>
<totfact> 0.50400890E+05</totfact>
</mgrwt>
</event>
<event>
 6    2  0.8544106E+000  0.1071282E+03  0.7546771E-02  0.1265982E+00
         21   -1    0    0  501  502  0.00000000000E+00  0.00000000000E+00  0.13660986170E+03  0.13660986170E+03  0.00000000000E+00 0.  1.
          2   -1    0    0  502    0 -0.00000000000E+00 -0.00000000000E+00 -0.79410827703E+02  0.79410827703E+02  0.00000000000E+00 0. -1.
         24    2    1    2    0    0 -0.58617710958E+02 -0.52245428832E+02  0.80626706135E+02  0.13407877893E+03  0.72875457765E+02 0.  0.
        -13    1    3    3    0    0 -0.22805335406E+02 -0.54084753662E+02  0.78685830859E+02  0.98166714724E+02  0.00000000000E+00 0.  1.
         14    1    3    3    0    0 -0.35812375551E+02  0.18393248295E+01  0.19408752756E+01  0.35912064203E+02  0.00000000000E+00 0. -1.
          1    1    1    2  501    0  0.58617710958E+02  0.52245428832E+02 -0.23427672133E+02  0.81941910481E+02  0.00000000000E+00 0. -1.
<mgrwt>
<rscale>  1 0.10712821E+03</rscale>
<asrwt>0</asrwt>
<pdfrwt beam="1">  1       21 0.21016902E-01 0.10712821E+03</pdfrwt>
<pdfrwt beam="2">  1        2 0.12217050E-01 0.10712821E+03</pdfrwt>
<totfact> 0.12467662E+05</totfact>
</mgrwt>
</event>
<event>
 6    2  0.8544106E+000  0.8403819E+02  0.7546771E-02  0.1317967E+00
          4   -1    0    0  502    0 -0.00000000000E+00  0.00000000000E+00  0.37393417136E+02  0.37393417136E+02  0.00000000000E+00 0. -1.
         21   -1    0    0  501  502  0.00000000000E+00 -0.00000000000E+00 -0.10100896189E+03  0.10100896189E+03  0.00000000000E+00 0. -1.
         24    2    1    2    0    0 -0.11387349266E+02 -0.18721753345E+02 -0.15395385033E+02  0.85436733792E+02  0.81131016443E+02 0.  0.
        -11    1    3    3    0    0  0.14274744553E+02 -0.37035189791E+02  0.14239898145E+02  0.42168095927E+02  0.00000000000E+00 0.  1.
         12    1    3    3    0    0 -0.25662093819E+02  0.18313436446E+02 -0.29635283178E+02  0.43268637865E+02  0.00000000000E+00 0. -1.
          3    1    1    2  501    0  0.11387349266E+02  0.18721753345E+02 -0.48220159716E+02  0.52965645230E+02  0.00000000000E+00 0. -1.
<mgrwt>
<rscale>  1 0.84038191E+02</rscale>
<asrwt>0</asrwt>
<pdfrwt beam="1">  1       21 0.15539840E-01 0.84038191E+02</pdfrwt>
<pdfrwt beam="2">  1        4 0.57528334E-02 0.84038191E+02</pdfrwt>
<totfact> 0.25811883E+05</totfact>
</mgrwt>
</event>
<event>
 6    2  0.8544106E+000  0.8518894E+02  0.7546771E-02  0.1314939E+00
          2   -1    0    0  502    0 -0.00000000000E+00  0.00000000000E+00  0.58328873734E+02  0.58328873734E+02  0.00000000000E+00 0. -1.
         21   -1    0    0  501  502  0.00000000000E+00 -0.00000000000E+00 -0.59657112058E+02  0.59657112058E+02  0.00000000000E+00 0.  1.
         24    2    1    2    0    0  0.58169322338E+01 -0.22642717201E+02  0.18682280517E+02  0.87213429722E+02  0.81918406818E+02 0.  0.
        -13    1    3    3    0    0  0.17641527643E+02 -0.51114367818E+02  0.84444229758E+01  0.54728515185E+02  0.00000000000E+00 0.  1.
         14    1    3    3    0    0 -0.11824595409E+02  0.28471650617E+02  0.10237857541E+02  0.32484914537E+02  0.00000000000E+00 0. -1.
          1    1    1    2  501    0 -0.58169322338E+01  0.22642717201E+02 -0.20010518840E+02  0.30772556070E+02  0.00000000000E+00 0. -1.
<mgrwt>
<rscale>  1 0.85188935E+02</rscale>
<asrwt>0</asrwt>
<pdfrwt beam="1">  1       21 0.91780173E-02 0.85188935E+02</pdfrwt>
<pdfrwt beam="2">  1        2 0.89736729E-02 0.85188935E+02</pdfrwt>
<totfact> 0.77617571E+05</totfact>
</mgrwt>
</event>
<event>
 6    2  0.8544106E+000  0.9835712E+02  0.7546771E-02  0.1283789E+00
          2   -1    0    0  502    0 -0.00000000000E+00  0.00000000000E+00  0.24367036822E+04  0.24367036822E+04  0.00000000000E+00 0. -1.
         21   -1    0    0  501  502  0.00000000000E+00 -0.00000000000E+00 -0.32257413984E+01  0.32257413984E+01  0.00000000000E+00 0.  1.
         24    2    1    2    0    0 -0.52706756379E+02  0.19892917175E+02  0.88901570454E+03  0.89444007406E+03  0.80625013678E+02 0.  0.
        -11    1    3    3    0    0 -0.22422457009E+02  0.37025639700E+02  0.20402432312E+03  0.20856555084E+03  0.00000000000E+00 0.  1.
         12    1    3    3    0    0 -0.30284299370E+02 -0.17132722524E+02  0.68499138142E+03  0.68587452321E+03  0.00000000000E+00 0. -1.
          1    1    1    2  501    0  0.52706756379E+02 -0.19892917175E+02  0.15444622363E+04  0.15454893496E+04  0.00000000000E+00 0. -1.
<mgrwt>
<rscale>  1 0.98357120E+02</rscale>
<asrwt>0</asrwt>
<pdfrwt beam="1">  1       21 0.49626985E-03 0.98357120E+02</pdfrwt>
<pdfrwt beam="2">  1        2 0.37487602E+00 0.98357120E+02</pdfrwt>
<totfact> 0.63554582E+05</totfact>
</mgrwt>
</event>
<event>
 6    2  0.8544106E+000  0.8555722E+02  0.7546771E-02  0.1313982E+00
          2   -1    0    0  502    0 -0.00000000000E+00  0.00000000000E+00  0.65389423104E+03  0.65389423104E+03  0.00000000000E+00 0. -1.
         21   -1    0    0  501  502  0.00000000000E+00 -0.00000000000E+00 -0.79458016366E+01  0.79458016366E+01  0.00000000000E+00 0. -1.
         24    2    1    2    0    0  0.17576499705E+01  0.31720651912E+02  0.59945038400E+03  0.60552522718E+03  0.79440221496E+02 0.  0.
        -11    1    3    3    0    0 -0.78690030574E+01 -0.14872985640E+02  0.32643297294E+02  0.36724811357E+02  0.00000000000E+00 0.  1.
         12    1    3    3    0    0  0.96266530279E+01  0.46593637552E+02  0.56680708670E+03  0.56880041583E+03  0.00000000000E+00 0. -1.
          1    1    1    2  501    0 -0.17576499705E+01 -0.31720651912E+02  0.46498045413E+02  0.56314805499E+02  0.00000000000E+00 0. -1.
<mgrwt>
<rscale>  1 0.85557220E+02</rscale>
<asrwt>0</asrwt>
<pdfrwt beam="1">  1       21 0.12224315E-02 0.85557220E+02</pdfrwt>
<pdfrwt beam="2">  1        2 0.10059907E+00 0.85557220E+02</pdfrwt>
<totfact> 0.14590573E+06</totfact>
</mgrwt>
</event>
<event>
 6    2  0.8544106E+000  0.1114399E+03  0.7546771E-02  0.1257926E+00
         21   -1    0    0  501  502  0.00000000000E+00  0.00000000000E+00  0.28744075246E+02  0.28744075246E+02  0.00000000000E+00 0. -1.
          2   -1    0    0  502    0 -0.00000000000E+00 -0.00000000000E+00 -0.30958983274E+03  0.30958983274E+03  0.00000000000E+00 0. -1.
         24    2    1    2    0    0  0.32371869605E+02 -0.69536001462E+02 -0.17861120264E+03  0.21052507555E+03  0.80843381227E+02 0.  0.
        -11    1    3    3    0    0  0.34242043785E+02 -0.86701566972E+00 -0.25477448725E+02  0.42689221969E+02  0.00000000000E+00 0.  1.
         12    1    3    3    0    0 -0.18701741808E+01 -0.68668985792E+02 -0.15313375391E+03  0.16783585359E+03  0.00000000000E+00 0. -1.
          1    1    1    2  501    0 -0.32371869605E+02  0.69536001462E+02 -0.10223455486E+03  0.12780883243E+03  0.00000000000E+00 0. -1.
<mgrwt>
<rscale>  1 0.11143987E+03</rscale>
<asrwt>0</asrwt>
<pdfrwt beam="1">  1       21 0.44221653E-02 0.11143987E+03</pdfrwt>
<pdfrwt beam="2">  1        2 0.47629206E-01 0.11143987E+03</pdfrwt>
<totfact> 0.41976013E+05</totfact>
</mgrwt>
</event>
<event>
 6    2  0.8544106E+000  0.8571479E+02  0.7546771E-02  0.1313574E+00
          2   -1    0    0  502    0 -0.00000000000E+00  0.00000000000E+00  0.17102524116E+04  0.17102524116E+04  0.00000000000E+00 0. -1.
         21   -1    0    0  501  502  0.00000000000E+00 -0.00000000000E+00 -0.21158260758E+01  0.21158260758E+01  0.00000000000E+00 0.  1.
         24    2    1    2    0    0 -0.25509150546E+02 -0.15432732806E+02  0.14467275611E+04  0.14492645242E+04  0.80362547280E+02 0.  0.
        -13    1    3    3    0    0  0.18739943305E+02 -0.77453833533E+01  0.11460328104E+03  0.11638336850E+03  0.00000000000E+00 0.  1.
         14    1    3    3    0    0 -0.44249093851E+02 -0.76873494522E+01  0.13321242800E+04  0.13328811557E+04  0.00000000000E+00 0. -1.
          1    1    1    2  501    0  0.25509150546E+02  0.15432732806E+02  0.26140902446E+03  0.26310371353E+03  0.00000000000E+00 0. -1.
<mgrwt>
<rscale>  1 0.85714789E+02</rscale>
<asrwt>0</asrwt>
<pdfrwt beam="1">  1       21 0.32551307E-03 0.85714789E+02</pdfrwt>
<pdfrwt beam="2">  1        2 0.26311465E+00 0.85714789E+02</pdfrwt>
<totfact> 0.28024567E+06</totfact>
</mgrwt>
</event>
<event>
 6    2  0.8544106E+000  0.8537210E+02  0.7546771E-02  0.1314462E+00
         21   -1    0    0  501  502  0.00000000000E+00  0.00000000000E+00  0.11701646155E+03  0.11701646155E+03  0.00000000000E+00 0. -1.
         -1   -1    0    0    0  501 -0.00000000000E+00 -0.00000000000E+00 -0.39592812570E+02  0.39592812570E+02  0.00000000000E+00 0.  1.
         24    2    1    2    0    0  0.80344736395E+01  0.27651838273E+02  0.13412197390E+02  0.86419225957E+02  0.80369264334E+02 0.  0.
        -11    1    3    3    0    0 -0.22642834157E+01  0.75648250987E+01 -0.33468281905E+02  0.34387198953E+02  0.00000000000E+00 0.  1.
         12    1    3    3    0    0  0.10298757055E+02  0.20087013175E+02  0.46880479295E+02  0.52032027003E+02  0.00000000000E+00 0. -1.
         -2    1    1    2    0  502 -0.80344736395E+01 -0.27651838273E+02  0.64011451587E+02  0.70190048161E+02  0.00000000000E+00 0.  1.
<mgrwt>
<rscale>  1 0.85372101E+02</rscale>
<asrwt>0</asrwt>
<pdfrwt beam="1">  1       21 0.18002532E-01 0.85372101E+02</pdfrwt>
<pdfrwt beam="2">  1       -1 0.60912020E-02 0.85372101E+02</pdfrwt>
<totfact> 0.30428270E+05</totfact>
</mgrwt>
</event>
<event>
 6    2  0.9786556E+000  0.8095439E+02  0.7546771E-02  0.1326365E+00
         21   -1    0    0  501  502  0.00000000000E+00  0.00000000000E+00  0.74226533715E+01  0.74226533715E+01  0.00000000000E+00 0. -1.
         -1   -1    0    0    0  501 -0.00000000000E+00 -0.00000000000E+00 -0.10267756856E+04  0.10267756856E+04  0.00000000000E+00 0.  1.
         24    2    1    2    0    0 -0.27844309461E+02 -0.12553320599E+02 -0.98463487837E+03  0.98795721403E+03  0.74971472182E+02 0.  0.
        -11    1    3    3    0    0 -0.37735651559E+02 -0.11716546053E+02 -0.96630066417E+03  0.96710817928E+03  0.00000000000E+00 0.  1.
         12    1    3    3    0    0  0.98913420972E+01 -0.83677454626E+00 -0.18334214195E+02  0.20849034756E+02  0.00000000000E+00 0. -1.
         -2    1    1    2    0  502  0.27844309461E+02  0.12553320599E+02 -0.34718153848E+02  0.46241124922E+02  0.00000000000E+00 0.  1.
<mgrwt>
<rscale>  1 0.80954389E+02</rscale>
<asrwt>0</asrwt>
<pdfrwt beam="1">  1       21 0.11419470E-02 0.80954389E+02</pdfrwt>
<pdfrwt beam="2">  1       -1 0.15796545E+00 0.80954389E+02</pdfrwt>
<totfact> 0.91066072E+04</totfact>
</mgrwt>
</event>
<event>
 6    2  0.8544106E+000  0.8553382E+02  0.7546771E-02  0.1314042E+00
         21   -1    0    0  501  502  0.00000000000E+00  0.00000000000E+00  0.55443416326E+01  0.55443416326E+01  0.00000000000E+00 0.  1.
          2   -1    0    0  502    0 -0.00000000000E+00 -0.00000000000E+00 -0.58301573784E+03  0.58301573784E+03  0.00000000000E+00 0. -1.
         24    2    1    2    0    0 -0.10567288513E+02  0.25961585823E+02 -0.44740132475E+03  0.45550409496E+03  0.80810665230E+02 0.  0.
        -11    1    3    3    0    0 -0.40388637894E+02  0.15376746222E+01 -0.14070808345E+03  0.14639798927E+03  0.00000000000E+00 0.  1.
         12    1    3    3    0    0  0.29821349382E+02  0.24423911201E+02 -0.30669324130E+03  0.30910610569E+03  0.00000000000E+00 0. -1.
          1    1    1    2  501    0  0.10567288513E+02 -0.25961585823E+02 -0.13007007146E+03  0.13305598451E+03  0.00000000000E+00 0. -1.
<mgrwt>
<rscale>  1 0.85533825E+02</rscale>
<asrwt>0</asrwt>
<pdfrwt beam="1">  1       21 0.85297557E-03 0.85533825E+02</pdfrwt>
<pdfrwt beam="2">  1        2 0.89694736E-01 0.85533825E+02</pdfrwt>
<totfact> 0.29118701E+06</totfact>
</mgrwt>
</event>
<event>
 6    2  0.8544106E+000  0.1499784E+03  0.7546771E-02  0.1200500E+00
         21   -1    0    0  501  502  0.00000000000E+00  0.00000000000E+00  0.50874981359E+02  0.50874981359E+02  0.00000000000E+00 0. -1.
          2   -1    0    0  502    0 -0.00000000000E+00 -0.00000000000E+00 -0.46949578404E+03  0.46949578404E+03  0.00000000000E+00 0. -1.
         24    2    1    2    0    0  0.11246336743E+03 -0.58354786995E+02 -0.33908888710E+03  0.37077592667E+03  0.80251007891E+02 0.  0.
        -13    1    3    3    0    0  0.71642862751E+02 -0.80598196332E+00 -0.11180092169E+03  0.13278853671E+03  0.00000000000E+00 0.  1.
         14    1    3    3    0    0  0.40820504675E+02 -0.57548805032E+02 -0.22728796541E+03  0.23798738997E+03  0.00000000000E+00 0. -1.
          1    1    1    2  501    0 -0.11246336743E+03  0.58354786995E+02 -0.79531915586E+02  0.14959483873E+03  0.00000000000E+00 0. -1.
<mgrwt>
<rscale>  1 0.14997838E+03</rscale>
<asrwt>0</asrwt>
<pdfrwt beam="1">  1       21 0.78269200E-02 0.14997838E+03</pdfrwt>
<pdfrwt beam="2">  1        2 0.72230122E-01 0.14997838E+03</pdfrwt>
<totfact> 0.10375368E+05</totfact>
</mgrwt>
</event>
<event>
 6    2  0.8544106E+000  0.8553857E+02  0.7546771E-02  0.1314030E+00
          2   -1    0    0  502    0 -0.00000000000E+00  0.00000000000E+00  0.15580121807E+03  0.15580121807E+03  0.00000000000E+00 0. -1.
         21   -1    0    0  501  502  0.00000000000E+00 -0.00000000000E+00 -0.24020419331E+02  0.24020419331E+02  0.00000000000E+00 0. -1.
         24    2    1    2    0    0  0.12490380564E+02  0.27376887474E+02  0.12030772407E+03  0.14761705672E+03  0.80070864797E+02 0.  0.
        -13    1    3    3    0    0 -0.14587543409E+02  0.57000048670E+01 -0.58951790684E+01  0.16734384197E+02  0.00000000000E+00 0.  1.
         14    1    3    3    0    0  0.27077923973E+02  0.21676882607E+02  0.12620290314E+03  0.13088267252E+03  0.00000000000E+00 0. -1.
          1    1    1    2  501    0 -0.12490380564E+02 -0.27376887474E+02  0.11473074666E+02  0.32204580679E+02  0.00000000000E+00 0. -1.
<mgrwt>
<rscale>  1 0.85538570E+02</rscale>
<asrwt>0</asrwt>
<pdfrwt beam="1">  1       21 0.36954492E-02 0.85538570E+02</pdfrwt>
<pdfrwt beam="2">  1        2 0.23969418E-01 0.85538570E+02</pdfrwt>
<totfact> 0.11445809E+06</totfact>
</mgrwt>
</event>
<event>
 6    2  0.8544106E+000  0.8979839E+02  0.7546771E-02  0.1303341E+00
          2   -1    0    0  502    0 -0.00000000000E+00  0.00000000000E+00  0.15996470993E+04  0.15996470993E+04  0.00000000000E+00 0. -1.
         21   -1    0    0  501  502  0.00000000000E+00 -0.00000000000E+00 -0.38690279994E+01  0.38690279994E+01  0.00000000000E+00 0. -1.
         24    2    1    2    0    0  0.30467272314E+02 -0.23006508901E+02  0.14514118217E+04  0.14541870673E+04  0.81278511412E+02 0.  0.
        -11    1    3    3    0    0  0.50740198161E+02  0.66301990631E+01  0.67032494235E+03  0.67227528259E+03  0.00000000000E+00 0.  1.
         12    1    3    3    0    0 -0.20272925846E+02 -0.29636707964E+02  0.78108687936E+03  0.78191178473E+03  0.00000000000E+00 0. -1.
          1    1    1    2  501    0 -0.30467272314E+02  0.23006508901E+02  0.14436624955E+03  0.14932905994E+03  0.00000000000E+00 0. -1.
<mgrwt>
<rscale>  1 0.89798388E+02</rscale>
<asrwt>0</asrwt>
<pdfrwt beam="1">  1       21 0.59523635E-03 0.89798388E+02</pdfrwt>
<pdfrwt beam="2">  1        2 0.24609903E+00 0.89798388E+02</pdfrwt>
<totfact> 0.12723026E+06</totfact>
</mgrwt>
</event>
<event>
 6    2  0.8544106E+000  0.8660384E+02  0.7546771E-02  0.1311291E+00
          2   -1    0    0  502    0 -0.00000000000E+00  0.00000000000E+00  0.99843596218E+03  0.99843596218E+03  0.00000000000E+00 0. -1.
         21   -1    0    0  501  502  0.00000000000E+00 -0.00000000000E+00 -0.73480421672E+01  0.73480421672E+01  0.00000000000E+00 0. -1.
         24    2    1    2    0    0  0.25030824230E+02 -0.13827389624E+02  0.95859738289E+03  0.96250151518E+03  0.81746470172E+02 0.  0.
        -11    1    3    3    0    0  0.30424214769E+02 -0.28665250555E+02  0.23219785536E+03  0.23593044201E+03  0.00000000000E+00 0.  1.
         12    1    3    3    0    0 -0.53933905391E+01  0.14837860930E+02  0.72639952753E+03  0.72657107318E+03  0.00000000000E+00 0. -1.
          1    1    1    2  501    0 -0.25030824230E+02  0.13827389624E+02  0.32490537120E+02  0.43282489159E+02  0.00000000000E+00 0. -1.
<mgrwt>
<rscale>  1 0.86603835E+02</rscale>
<asrwt>0</asrwt>
<pdfrwt beam="1">  1       21 0.11304688E-02 0.86603835E+02</pdfrwt>
<pdfrwt beam="2">  1        2 0.15360542E+00 0.86603835E+02</pdfrwt>
<totfact> 0.98131425E+05</totfact>
</mgrwt>
</event>
<event>
 6    2  0.8544106E+000  0.8404132E+02  0.7546771E-02  0.1317959E+00
         21   -1    0    0  501  502  0.00000000000E+00  0.00000000000E+00  0.30425252108E+02  0.30425252108E+02  0.00000000000E+00 0. -1.
          4   -1    0    0  502    0 -0.00000000000E+00 -0.00000000000E+00 -0.16501778514E+03  0.16501778514E+03  0.00000000000E+00 0. -1.
         24    2    1    2    0    0 -0.61633125149E+01  0.22299015880E+02 -0.14689764116E+03  0.16923906396E+03  0.80794252644E+02 0.  0.
        -11    1    3    3    0    0 -0.28924181773E+01 -0.24686815814E+02 -0.98964911411E+02  0.10203851551E+03  0.00000000000E+00 0.  1.
         12    1    3    3    0    0 -0.32708943376E+01  0.46985831693E+02 -0.47932729747E+02  0.67200548440E+02  0.00000000000E+00 0. -1.
          3    1    1    2  501    0  0.61633125149E+01 -0.22299015880E+02  0.12305108125E+02  0.26203973293E+02  0.00000000000E+00 0. -1.
<mgrwt>
<rscale>  1 0.84041322E+02</rscale>
<asrwt>0</asrwt>
<pdfrwt beam="1">  1       21 0.46808080E-02 0.84041322E+02</pdfrwt>
<pdfrwt beam="2">  1        4 0.25387352E-01 0.84041322E+02</pdfrwt>
<totfact> 0.16162975E+05</totfact>
</mgrwt>
</event>
<event>
 6    2  0.8544106E+000  0.9424130E+02  0.7546771E-02  0.1292894E+00
          2   -1    0    0  502    0 -0.00000000000E+00  0.00000000000E+00  0.87000714404E+03  0.87000714404E+03  0.00000000000E+00 0. -1.
         21   -1    0    0  501  502  0.00000000000E+00 -0.00000000000E+00 -0.68149946262E+01  0.68149946262E+01  0.00000000000E+00 0. -1.
         24    2    1    2    0    0  0.73104366492E+01 -0.47734379159E+02  0.70923993339E+03  0.71547376322E+03  0.80928420941E+02 0.  0.
        -13    1    3    3    0    0  0.25132282400E+02 -0.21085417975E+02  0.97045893907E+02  0.10244087072E+03  0.00000000000E+00 0.  1.
         14    1    3    3    0    0 -0.17821845751E+02 -0.26648961184E+02  0.61219403948E+03  0.61303289250E+03  0.00000000000E+00 0. -1.
          1    1    1    2  501    0 -0.73104366492E+01  0.47734379159E+02  0.15395221603E+03  0.16134837544E+03  0.00000000000E+00 0. -1.
<mgrwt>
<rscale>  1 0.94241301E+02</rscale>
<asrwt>0</asrwt>
<pdfrwt beam="1">  1       21 0.10484614E-02 0.94241301E+02</pdfrwt>
<pdfrwt beam="2">  1        2 0.13384716E+00 0.94241301E+02</pdfrwt>
<totfact> 0.13308378E+06</totfact>
</mgrwt>
</event>
<event>
 6    2  0.8544106E+000  0.9235610E+02  0.7546771E-02  0.1297244E+00
          2   -1    0    0  502    0 -0.00000000000E+00  0.00000000000E+00  0.70643471731E+03  0.70643471731E+03  0.00000000000E+00 0. -1.
         21   -1    0    0  501  502  0.00000000000E+00 -0.00000000000E+00 -0.78566683534E+01  0.78566683534E+01  0.00000000000E+00 0.  1.
         24    2    1    2    0    0  0.11029824953E+00  0.40846672557E+02  0.30706564220E+03  0.32065395418E+03  0.82832281650E+02 0.  0.
        -13    1    3    3    0    0  0.15889636958E+01  0.41521411481E+02  0.56763955340E+02  0.70346990290E+02  0.00000000000E+00 0.  1.
         14    1    3    3    0    0 -0.14786654463E+01 -0.67473892418E+00  0.25030168686E+03  0.25030696388E+03  0.00000000000E+00 0. -1.
          1    1    1    2  501    0 -0.11029824953E+00 -0.40846672557E+02  0.39151240675E+03  0.39363743149E+03  0.00000000000E+00 0. -1.
<mgrwt>
<rscale>  1 0.92356103E+02</rscale>
<asrwt>0</asrwt>
<pdfrwt beam="1">  1       21 0.12087188E-02 0.92356103E+02</pdfrwt>
<pdfrwt beam="2">  1        2 0.10868221E+00 0.92356103E+02</pdfrwt>
<totfact> 0.13686284E+06</totfact>
</mgrwt>
</event>
<event>
 6    2  0.8544106E+000  0.1329731E+03  0.7546771E-02  0.1223110E+00
          2   -1    0    0  502    0 -0.00000000000E+00  0.00000000000E+00  0.13610348984E+04  0.13610348984E+04  0.00000000000E+00 0. -1.
         21   -1    0    0  501  502  0.00000000000E+00 -0.00000000000E+00 -0.10622951168E+02  0.10622951168E+02  0.00000000000E+00 0. -1.
         24    2    1    2    0    0  0.10065143823E+02  0.10268935779E+03  0.88590715283E+03  0.89583107925E+03  0.83877457051E+02 0.  0.
        -11    1    3    3    0    0  0.40278126363E+02  0.32898487864E+02  0.24713288925E+03  0.25254564521E+03  0.00000000000E+00 0.  1.
         12    1    3    3    0    0 -0.30212982540E+02  0.69790869930E+02  0.63877426357E+03  0.64328543404E+03  0.00000000000E+00 0. -1.
          1    1    1    2  501    0 -0.10065143823E+02 -0.10268935779E+03  0.46450479446E+03  0.47582677037E+03  0.00000000000E+00 0. -1.
<mgrwt>
<rscale>  1 0.13297308E+03</rscale>
<asrwt>0</asrwt>
<pdfrwt beam="1">  1       21 0.16343013E-02 0.13297308E+03</pdfrwt>
<pdfrwt beam="2">  1        2 0.20938985E+00 0.13297308E+03</pdfrwt>
<totfact> 0.35276781E+05</totfact>
</mgrwt>
</event>
<event>
 6    2  0.8544106E+000  0.9529320E+02  0.7546771E-02  0.1290517E+00
          2   -1    0    0  502    0 -0.00000000000E+00  0.00000000000E+00  0.21325847045E+04  0.21325847045E+04  0.00000000000E+00 0. -1.
         21   -1    0    0  501  502  0.00000000000E+00 -0.00000000000E+00 -0.69435356880E+01  0.69435356880E+01  0.00000000000E+00 0. -1.
         24    2    1    2    0    0  0.18478575749E+02 -0.47199991752E+02  0.20211145076E+04  0.20233597424E+04  0.80693848492E+02 0.  0.
        -11    1    3    3    0    0 -0.12922097838E+02  0.42424526654E+01  0.69689097285E+02  0.71003868187E+02  0.00000000000E+00 0.  1.
         12    1    3    3    0    0  0.31400673588E+02 -0.51442444417E+02  0.19514254103E+04  0.19523558742E+04  0.00000000000E+00 0. -1.
          1    1    1    2  501    0 -0.18478575749E+02  0.47199991752E+02  0.10452666119E+03  0.11616849780E+03  0.00000000000E+00 0. -1.
<mgrwt>
<rscale>  1 0.95293201E+02</rscale>
<asrwt>0</asrwt>
<pdfrwt beam="1">  1       21 0.10682380E-02 0.95293201E+02</pdfrwt>
<pdfrwt beam="2">  1        2 0.32808943E+00 0.95293201E+02</pdfrwt>
<totfact> 0.27724851E+05</totfact>
</mgrwt>
</event>
<event>
 6    2  0.8544106E+000  0.8335760E+02  0.7546771E-02  0.1319784E+00
          2   -1    0    0  502    0 -0.00000000000E+00  0.00000000000E+00  0.16260880322E+04  0.16260880322E+04  0.00000000000E+00 0. -1.
         21   -1    0    0  501  502  0.00000000000E+00 -0.00000000000E+00 -0.24822431187E+01  0.24822431187E+01  0.00000000000E+00 0. -1.
         24    2    1    2    0    0 -0.66935504394E+01 -0.23521542190E+02  0.15129377597E+04  0.15152323766E+04  0.79689545919E+02 0.  0.
        -13    1    3    3    0    0 -0.19553381393E+02  0.21617138100E+02  0.30674477020E+03  0.30812658021E+03  0.00000000000E+00 0.  1.
         14    1    3    3    0    0  0.12859830954E+02 -0.45138680290E+02  0.12061929895E+04  0.12071057964E+04  0.00000000000E+00 0. -1.
          1    1    1    2  501    0  0.66935504394E+01  0.23521542190E+02  0.11066802935E+03  0.11333789871E+03  0.00000000000E+00 0. -1.
<mgrwt>
<rscale>  1 0.83357605E+02</rscale>
<asrwt>0</asrwt>
<pdfrwt beam="1">  1       21 0.38188486E-03 0.83357605E+02</pdfrwt>
<pdfrwt beam="2">  1        2 0.25016654E+00 0.83357605E+02</pdfrwt>
<totfact> 0.24187150E+06</totfact>
</mgrwt>
</event>
<event>
 6    2  0.8544106E+000  0.8602635E+02  0.7546771E-02  0.1312770E+00
         21   -1    0    0  501  502  0.00000000000E+00  0.00000000000E+00  0.24818207163E+03  0.24818207163E+03  0.00000000000E+00 0.  1.
         -1   -1    0    0    0  501 -0.00000000000E+00 -0.00000000000E+00 -0.79623120290E+02  0.79623120290E+02  0.00000000000E+00 0.  1.
         24    2    1    2    0    0 -0.24601065661E+02  0.11407311040E+02 -0.55327646016E+02  0.10228236014E+03  0.81640636977E+02 0.  0.
        -11    1    3    3    0    0 -0.25000461712E+02  0.38878126623E+02 -0.58576429803E+02  0.74617222838E+02  0.00000000000E+00 0.  1.
         12    1    3    3    0    0  0.39939605146E+00 -0.27470815584E+02  0.32487837874E+01  0.27665137306E+02  0.00000000000E+00 0. -1.
         -2    1    1    2    0  502  0.24601065661E+02 -0.11407311040E+02  0.22388659736E+03  0.22552283178E+03  0.00000000000E+00 0.  1.
<mgrwt>
<rscale>  1 0.86026349E+02</rscale>
<asrwt>0</asrwt>
<pdfrwt beam="1">  1       21 0.38181857E-01 0.86026349E+02</pdfrwt>
<pdfrwt beam="2">  1       -1 0.12249711E-01 0.86026349E+02</pdfrwt>
<totfact> 0.26012714E+04</totfact>
</mgrwt>
</event>
<event>
 6    2  0.8544106E+000  0.8603325E+02  0.7546771E-02  0.1312752E+00
         21   -1    0    0  501  502  0.00000000000E+00  0.00000000000E+00  0.17379166540E+01  0.17379166540E+01  0.00000000000E+00 0. -1.
          2   -1    0    0  502    0 -0.00000000000E+00 -0.00000000000E+00 -0.30812557924E+04  0.30812557924E+04  0.00000000000E+00 0. -1.
         24    2    1    2    0    0  0.12056836118E+01  0.28858137408E+02 -0.28906546219E+04  0.28919346228E+04  0.81039952900E+02 0.  0.
        -11    1    3    3    0    0  0.84492861219E+01  0.88497798212E+01 -0.61780366212E+02  0.62980335726E+02  0.00000000000E+00 0.  1.
         12    1    3    3    0    0 -0.72436025100E+01  0.20008357587E+02 -0.28288742557E+04  0.28289542871E+04  0.00000000000E+00 0. -1.
          1    1    1    2  501    0 -0.12056836118E+01 -0.28858137408E+02 -0.18886325390E+03  0.19105908626E+03  0.00000000000E+00 0. -1.
<mgrwt>
<rscale>  1 0.86033248E+02</rscale>
<asrwt>0</asrwt>
<pdfrwt beam="1">  1       21 0.26737419E-03 0.86033248E+02</pdfrwt>
<pdfrwt beam="2">  1        2 0.47403510E+00 0.86033248E+02</pdfrwt>
<totfact> 0.72101682E+05</totfact>
</mgrwt>
</event>
<event>
 6    2  0.8544106E+000  0.8312805E+02  0.7546771E-02  0.1320402E+00
         -1   -1    0    0    0  501 -0.00000000000E+00  0.00000000000E+00  0.11638305777E+03  0.11638305777E+03  0.00000000000E+00 0.  1.
         21   -1    0    0  501  502  0.00000000000E+00 -0.00000000000E+00 -0.33362106972E+02  0.33362106972E+02  0.00000000000E+00 0. -1.
         24    2    1    2    0    0  0.11160141723E+02 -0.24125627219E+02  0.89741766794E+02  0.12232684934E+03  0.78763435113E+02 0.  0.
        -11    1    3    3    0    0 -0.28046935814E+02  0.39702227108E+01  0.58107190559E+02  0.64643939171E+02  0.00000000000E+00 0.  1.
         12    1    3    3    0    0  0.39207077537E+02 -0.28095849929E+02  0.31634576235E+02  0.57682910171E+02  0.00000000000E+00 0. -1.
         -2    1    1    2    0  502 -0.11160141723E+02  0.24125627219E+02 -0.67208159922E+01  0.27418315404E+02  0.00000000000E+00 0.  1.
<mgrwt>
<rscale>  1 0.83128054E+02</rscale>
<asrwt>0</asrwt>
<pdfrwt beam="1">  1       21 0.51326319E-02 0.83128054E+02</pdfrwt>
<pdfrwt beam="2">  1       -1 0.17905086E-01 0.83128054E+02</pdfrwt>
<totfact> 0.51922340E+05</totfact>
</mgrwt>
</event>
<event>
 6    2  0.8544106E+000  0.1052504E+03  0.7546771E-02  0.1269627E+00
          2   -1    0    0  502    0 -0.00000000000E+00  0.00000000000E+00  0.70262395466E+03  0.70262395466E+03  0.00000000000E+00 0. -1.
         21   -1    0    0  501  502  0.00000000000E+00 -0.00000000000E+00 -0.20007103764E+02  0.20007103764E+02  0.00000000000E+00 0.  1.
         24    2    1    2    0    0 -0.31518375976E+02 -0.59506087982E+02  0.62561427894E+03  0.63440591608E+03  0.80890406229E+02 0.  0.
        -13    1    3    3    0    0 -0.28753031977E+02 -0.13733199936E+02  0.70100828712E+02  0.77003011724E+02  0.00000000000E+00 0.  1.
         14    1    3    3    0    0 -0.27653439992E+01 -0.45772888047E+02  0.55551345023E+03  0.55740290436E+03  0.00000000000E+00 0. -1.
          1    1    1    2  501    0  0.31518375976E+02  0.59506087982E+02  0.57002571961E+02  0.88225142342E+02  0.00000000000E+00 0. -1.
<mgrwt>
<rscale>  1 0.10525037E+03</rscale>
<asrwt>0</asrwt>
<pdfrwt beam="1">  1       21 0.30780165E-02 0.10525037E+03</pdfrwt>
<pdfrwt beam="2">  1        2 0.10809597E+00 0.10525037E+03</pdfrwt>
<totfact> 0.31115271E+05</totfact>
</mgrwt>
</event>
<event>
 6    2  0.8544106E+000  0.8390219E+02  0.7546771E-02  0.1318329E+00
         21   -1    0    0  501  502  0.00000000000E+00  0.00000000000E+00  0.16370064471E+02  0.16370064471E+02  0.00000000000E+00 0. -1.
          2   -1    0    0  502    0 -0.00000000000E+00 -0.00000000000E+00 -0.27054213113E+03  0.27054213113E+03  0.00000000000E+00 0. -1.
         24    2    1    2    0    0 -0.20585335718E+02  0.83967116225E+01 -0.25075461844E+03  0.26441909077E+03  0.80903127759E+02 0.  0.
        -11    1    3    3    0    0  0.18492134582E+02  0.17114103009E+02 -0.18996605166E+03  0.19162972720E+03  0.00000000000E+00 0.  1.
         12    1    3    3    0    0 -0.39077470299E+02 -0.87173913862E+01 -0.60788566776E+02  0.72789363565E+02  0.00000000000E+00 0. -1.
          1    1    1    2  501    0  0.20585335718E+02 -0.83967116225E+01 -0.34174482196E+01  0.22493104833E+02  0.00000000000E+00 0. -1.
<mgrwt>
<rscale>  1 0.83902186E+02</rscale>
<asrwt>0</asrwt>
<pdfrwt beam="1">  1       21 0.25184715E-02 0.83902186E+02</pdfrwt>
<pdfrwt beam="2">  1        2 0.41621865E-01 0.83902186E+02</pdfrwt>
<totfact> 0.11832973E+06</totfact>
</mgrwt>
</event>
<event>
 6    2  0.8544106E+000  0.1065988E+03  0.7546771E-02  0.1267001E+00
         -3   -1    0    0    0  501 -0.00000000000E+00  0.00000000000E+00  0.13835120009E+03  0.13835120009E+03  0.00000000000E+00 0.  1.
         21   -1    0    0  501  502  0.00000000000E+00 -0.00000000000E+00 -0.10688305290E+03  0.10688305290E+03  0.00000000000E+00 0. -1.
         24    2    1    2    0    0  0.62660317665E+02  0.27267427494E+02 -0.66608652444E+02  0.12569812189E+03  0.81813674005E+02 0.  0.
        -13    1    3    3    0    0  0.47353588227E+01  0.20369495675E+02  0.14747521467E+02  0.25589633969E+02  0.00000000000E+00 0.  1.
         14    1    3    3    0    0  0.57924958843E+02  0.68979318191E+01 -0.81356173912E+02  0.10010848792E+03  0.00000000000E+00 0. -1.
         -4    1    1    2    0  502 -0.62660317665E+02 -0.27267427494E+02  0.98076799628E+02  0.11953613110E+03  0.00000000000E+00 0.  1.
<mgrwt>
<rscale>  1 0.10659881E+03</rscale>
<asrwt>0</asrwt>
<pdfrwt beam="1">  1       21 0.16443547E-01 0.10659881E+03</pdfrwt>
<pdfrwt beam="2">  1       -3 0.21284800E-01 0.10659881E+03</pdfrwt>
<totfact> 0.31329221E+04</totfact>
</mgrwt>
</event>
<event>
 6    2  0.8544106E+000  0.9189594E+02  0.7546771E-02  0.1298324E+00
         -1   -1    0    0    0  501 -0.00000000000E+00  0.00000000000E+00  0.41933567767E+01  0.41933567767E+01  0.00000000000E+00 0.  1.
         21   -1    0    0  501  502  0.00000000000E+00 -0.00000000000E+00 -0.18732164235E+04  0.18732164235E+04  0.00000000000E+00 0.  1.
         24    2    1    2    0    0  0.46042045100E+02 -0.34347776056E+01 -0.55349844107E+03  0.56107520718E+03  0.79455624329E+02 0.  0.
        -11    1    3    3    0    0  0.65493645022E+02  0.96573942853E+01 -0.34778131586E+03  0.35402616636E+03  0.00000000000E+00 0.  1.
         12    1    3    3    0    0 -0.19451599922E+02 -0.13092171891E+02 -0.20571712520E+03  0.20704904082E+03  0.00000000000E+00 0. -1.
         -2    1    1    2    0  502 -0.46042045100E+02  0.34347776056E+01 -0.13155246256E+04  0.13163345731E+04  0.00000000000E+00 0.  1.
<mgrwt>
<rscale>  1 0.91895940E+02</rscale>
<asrwt>0</asrwt>
<pdfrwt beam="1">  1       21 0.28818743E+00 0.91895940E+02</pdfrwt>
<pdfrwt beam="2">  1       -1 0.64513117E-03 0.91895940E+02</pdfrwt>
<totfact> 0.12981003E+04</totfact>
</mgrwt>
</event>
<event>
 6    2  0.8544106E+000  0.8268743E+02  0.7546771E-02  0.1321593E+00
          2   -1    0    0  502    0 -0.00000000000E+00  0.00000000000E+00  0.20226481949E+03  0.20226481949E+03  0.00000000000E+00 0. -1.
         21   -1    0    0  501  502  0.00000000000E+00 -0.00000000000E+00 -0.16859352205E+02  0.16859352205E+02  0.00000000000E+00 0.  1.
         24    2    1    2    0    0  0.82079462208E+00 -0.33532885888E+02  0.14125339224E+03  0.16367569227E+03  0.75578325471E+02 0.  0.
        -13    1    3    3    0    0 -0.15767514726E+01 -0.25131842779E+02  0.32431949509E+01  0.25389249303E+02  0.00000000000E+00 0.  1.
         14    1    3    3    0    0  0.23975460947E+01 -0.84010431088E+01  0.13801019729E+03  0.13828644297E+03  0.00000000000E+00 0. -1.
          1    1    1    2  501    0 -0.82079462208E+00  0.33532885888E+02  0.44152075048E+02  0.55448479427E+02  0.00000000000E+00 0. -1.
<mgrwt>
<rscale>  1 0.82687432E+02</rscale>
<asrwt>0</asrwt>
<pdfrwt beam="1">  1       21 0.25937466E-02 0.82687432E+02</pdfrwt>
<pdfrwt beam="2">  1        2 0.31117663E-01 0.82687432E+02</pdfrwt>
<totfact> 0.15299435E+06</totfact>
</mgrwt>
</event>
<event>
 6    2  0.8544106E+000  0.8640679E+02  0.7546771E-02  0.1311794E+00
         21   -1    0    0  501  502  0.00000000000E+00  0.00000000000E+00  0.40635783770E+02  0.40635783770E+02  0.00000000000E+00 0. -1.
         -1   -1    0    0    0  501 -0.00000000000E+00 -0.00000000000E+00 -0.25971811699E+03  0.25971811699E+03  0.00000000000E+00 0.  1.
         24    2    1    2    0    0  0.19880755727E+02 -0.15142644482E+02 -0.24771290492E+03  0.26235056188E+03  0.82713904087E+02 0.  0.
        -13    1    3    3    0    0 -0.16629031288E+02 -0.30532620767E+02 -0.18449864104E+03  0.18774587654E+03  0.00000000000E+00 0.  1.
         14    1    3    3    0    0  0.36509787015E+02  0.15389976285E+02 -0.63214263877E+02  0.74604685345E+02  0.00000000000E+00 0. -1.
         -2    1    1    2    0  502 -0.19880755727E+02  0.15142644482E+02  0.28630571695E+02  0.38003338876E+02  0.00000000000E+00 0.  1.
<mgrwt>
<rscale>  1 0.86406794E+02</rscale>
<asrwt>0</asrwt>
<pdfrwt beam="1">  1       21 0.62516594E-02 0.86406794E+02</pdfrwt>
<pdfrwt beam="2">  1       -1 0.39956631E-01 0.86406794E+02</pdfrwt>
<totfact> 0.10044868E+05</totfact>
</mgrwt>
</event>
<event>
 6    2  0.8544106E+000  0.8084112E+02  0.7546771E-02  0.1326681E+00
         21   -1    0    0  501  502  0.00000000000E+00  0.00000000000E+00  0.10103567803E+03  0.10103567803E+03  0.00000000000E+00 0.  1.
         -3   -1    0    0    0  501 -0.00000000000E+00 -0.00000000000E+00 -0.42703200192E+02  0.42703200192E+02  0.00000000000E+00 0.  1.
         24    2    1    2    0    0 -0.19983846377E+02  0.44068792492E+01 -0.11347504539E+01  0.80849086193E+02  0.78208134992E+02 0.  0.
        -13    1    3    3    0    0 -0.59008253126E+00  0.32689322997E+02 -0.23182928905E+02  0.40079773303E+02  0.00000000000E+00 0.  1.
         14    1    3    3    0    0 -0.19393763846E+02 -0.28282443748E+02  0.22048178452E+02  0.40769312890E+02  0.00000000000E+00 0. -1.
         -4    1    1    2    0  502  0.19983846377E+02 -0.44068792492E+01  0.59467228295E+02  0.62889792032E+02  0.00000000000E+00 0.  1.
<mgrwt>
<rscale>  1 0.80841122E+02</rscale>
<asrwt>0</asrwt>
<pdfrwt beam="1">  1       21 0.15543950E-01 0.80841122E+02</pdfrwt>
<pdfrwt beam="2">  1       -3 0.65697231E-02 0.80841122E+02</pdfrwt>
<totfact> 0.23686124E+05</totfact>
</mgrwt>
</event>
<event>
 6    2  0.8544106E+000  0.7711938E+02  0.7546771E-02  0.1337431E+00
         -1   -1    0    0    0  501 -0.00000000000E+00  0.00000000000E+00  0.24116237090E+03  0.24116237090E+03  0.00000000000E+00 0.  1.
         21   -1    0    0  501  502  0.00000000000E+00 -0.00000000000E+00 -0.55657769856E+02  0.55657769856E+02  0.00000000000E+00 0.  1.
         24    2    1    2    0    0 -0.19747659939E+02  0.19984938252E+02  0.23089744917E+03  0.24343588753E+03  0.71819436614E+02 0.  0.
        -13    1    3    3    0    0 -0.11819566385E+02  0.30760013046E+02  0.22717171845E+03  0.22954927623E+03  0.00000000000E+00 0.  1.
         14    1    3    3    0    0 -0.79280935541E+01 -0.10775074793E+02  0.37257307207E+01  0.13886611308E+02  0.00000000000E+00 0. -1.
         -2    1    1    2    0  502  0.19747659939E+02 -0.19984938252E+02 -0.45392848132E+02  0.53384253217E+02  0.00000000000E+00 0.  1.
<mgrwt>
<rscale>  1 0.77119383E+02</rscale>
<asrwt>0</asrwt>
<pdfrwt beam="1">  1       21 0.85627339E-02 0.77119383E+02</pdfrwt>
<pdfrwt beam="2">  1       -1 0.37101903E-01 0.77119383E+02</pdfrwt>
<totfact> 0.66489129E+04</totfact>
</mgrwt>
</event>
<event>
 6    2  0.8544106E+000  0.8493410E+02  0.7546771E-02  0.1315605E+00
          2   -1    0    0  502    0 -0.00000000000E+00  0.00000000000E+00  0.13431191192E+04  0.13431191192E+04  0.00000000000E+00 0. -1.
         21   -1    0    0  501  502  0.00000000000E+00 -0.00000000000E+00 -0.13078297891E+02  0.13078297891E+02  0.00000000000E+00 0. -1.
         24    2    1    2    0    0  0.83256365121E+01  0.31989063122E+02  0.13184297493E+04  0.13211626718E+04  0.78238003598E+02 0.  0.
        -13    1    3    3    0    0  0.76737958903E+01  0.24523111083E+02  0.12048968195E+03  0.12319916224E+03  0.00000000000E+00 0.  1.
         14    1    3    3    0    0  0.65184062187E+00  0.74659520387E+01  0.11979400674E+04  0.11979635096E+04  0.00000000000E+00 0. -1.
          1    1    1    2  501    0 -0.83256365121E+01 -0.31989063122E+02  0.11611072016E+02  0.35034745270E+02  0.00000000000E+00 0. -1.
<mgrwt>
<rscale>  1 0.84934101E+02</rscale>
<asrwt>0</asrwt>
<pdfrwt beam="1">  1       21 0.20120469E-02 0.84934101E+02</pdfrwt>
<pdfrwt beam="2">  1        2 0.20663360E+00 0.84934101E+02</pdfrwt>
<totfact> 0.25472502E+05</totfact>
</mgrwt>
</event>
<event>
 6    2  0.8544106E+000  0.8831397E+02  0.7546771E-02  0.1306987E+00
         21   -1    0    0  501  502  0.00000000000E+00  0.00000000000E+00  0.22653512542E+02  0.22653512542E+02  0.00000000000E+00 0.  1.
         -1   -1    0    0    0  501 -0.00000000000E+00 -0.00000000000E+00 -0.21192709314E+03  0.21192709314E+03  0.00000000000E+00 0.  1.
         24    2    1    2    0    0 -0.26921317757E+02  0.22753579510E+02 -0.17600141613E+03  0.19691585983E+03  0.80974530835E+02 0.  0.
        -11    1    3    3    0    0 -0.53835986640E+02  0.26887165725E+02 -0.10743422317E+03  0.12313953649E+03  0.00000000000E+00 0.  1.
         12    1    3    3    0    0  0.26914668883E+02 -0.41335862158E+01 -0.68567192952E+02  0.73776323339E+02  0.00000000000E+00 0. -1.
         -2    1    1    2    0  502  0.26921317757E+02 -0.22753579510E+02 -0.13272164471E+02  0.37664745851E+02  0.00000000000E+00 0.  1.
<mgrwt>
<rscale>  1 0.88313970E+02</rscale>
<asrwt>0</asrwt>
<pdfrwt beam="1">  1       21 0.34851559E-02 0.88313970E+02</pdfrwt>
<pdfrwt beam="2">  1       -1 0.32604167E-01 0.88313970E+02</pdfrwt>
<totfact> 0.37488533E+05</totfact>
</mgrwt>
</event>
<event>
 6    2  0.8544106E+000  0.8816076E+02  0.7546771E-02  0.1307368E+00
         21   -1    0    0  501  502  0.00000000000E+00  0.00000000000E+00  0.41383740877E+02  0.41383740877E+02  0.00000000000E+00 0. -1.
          2   -1    0    0  502    0 -0.00000000000E+00 -0.00000000000E+00 -0.65148447287E+03  0.65148447287E+03  0.00000000000E+00 0. -1.
         24    2    1    2    0    0  0.12299251485E+02 -0.33551545833E+02 -0.64014157949E+03  0.64618384449E+03  0.80593680102E+02 0.  0.
        -11    1    3    3    0    0  0.95826618042E+00  0.26117095556E+02 -0.24691828394E+03  0.24829752294E+03  0.00000000000E+00 0.  1.
         12    1    3    3    0    0  0.11340985305E+02 -0.59668641388E+02 -0.39322329554E+03  0.39788632154E+03  0.00000000000E+00 0. -1.
          1    1    1    2  501    0 -0.12299251485E+02  0.33551545833E+02  0.30040847496E+02  0.46684369259E+02  0.00000000000E+00 0. -1.
<mgrwt>
<rscale>  1 0.88160757E+02</rscale>
<asrwt>0</asrwt>
<pdfrwt beam="1">  1       21 0.63667294E-02 0.88160757E+02</pdfrwt>
<pdfrwt beam="2">  1        2 0.10022838E+00 0.88160757E+02</pdfrwt>
<totfact> 0.10102590E+05</totfact>
</mgrwt>
</event>
<event>
 6    2  0.8544106E+000  0.9212237E+02  0.7546771E-02  0.1297792E+00
         -3   -1    0    0    0  501 -0.00000000000E+00  0.00000000000E+00  0.16403956817E+03  0.16403956817E+03  0.00000000000E+00 0.  1.
         21   -1    0    0  501  502  0.00000000000E+00 -0.00000000000E+00 -0.33138730760E+02  0.33138730760E+02  0.00000000000E+00 0.  1.
         24    2    1    2    0    0 -0.45358474791E+02  0.29766743348E+01  0.11843372482E+03  0.15004359068E+03  0.80126650408E+02 0.  0.
        -13    1    3    3    0    0 -0.65776450298E+02  0.91332008639E+01  0.10676844070E+03  0.12573566201E+03  0.00000000000E+00 0.  1.
         14    1    3    3    0    0  0.20417975508E+02 -0.61565265291E+01  0.11665284113E+02  0.24307928669E+02  0.00000000000E+00 0. -1.
         -4    1    1    2    0  502  0.45358474791E+02 -0.29766743348E+01  0.12467112598E+02  0.47134708252E+02  0.00000000000E+00 0.  1.
<mgrwt>
<rscale>  1 0.92122375E+02</rscale>
<asrwt>0</asrwt>
<pdfrwt beam="1">  1       21 0.50982664E-02 0.92122375E+02</pdfrwt>
<pdfrwt beam="2">  1       -3 0.25236856E-01 0.92122375E+02</pdfrwt>
<totfact> 0.17249319E+05</totfact>
</mgrwt>
</event>
<event>
 6    2  0.8544106E+000  0.7873039E+02  0.7546771E-02  0.1332694E+00
         -1   -1    0    0    0  501 -0.00000000000E+00  0.00000000000E+00  0.11177416863E+02  0.11177416863E+02  0.00000000000E+00 0.  1.
         21   -1    0    0  501  502  0.00000000000E+00 -0.00000000000E+00 -0.30196439470E+03  0.30196439470E+03  0.00000000000E+00 0. -1.
         24    2    1    2    0    0  0.32304617559E+02  0.18359290593E+02 -0.18668942839E+03  0.20261149143E+03  0.69410531782E+02 0.  0.
        -13    1    3    3    0    0  0.29771538238E+02  0.35461155984E+02 -0.65601899570E+02  0.80295998032E+02  0.00000000000E+00 0.  1.
         14    1    3    3    0    0  0.25330793210E+01 -0.17101865391E+02 -0.12108752882E+03  0.12231549340E+03  0.00000000000E+00 0. -1.
         -2    1    1    2    0  502 -0.32304617559E+02 -0.18359290593E+02 -0.10409754945E+03  0.11053032013E+03  0.00000000000E+00 0.  1.
<mgrwt>
<rscale>  1 0.78730387E+02</rscale>
<asrwt>0</asrwt>
<pdfrwt beam="1">  1       21 0.46456059E-01 0.78730387E+02</pdfrwt>
<pdfrwt beam="2">  1       -1 0.17196026E-02 0.78730387E+02</pdfrwt>
<totfact> 0.30799836E+05</totfact>
</mgrwt>
</event>
<event>
 6    2  0.8544106E+000  0.8704855E+02  0.7546771E-02  0.1310161E+00
          2   -1    0    0  502    0 -0.00000000000E+00  0.00000000000E+00  0.19773792936E+03  0.19773792936E+03  0.00000000000E+00 0. -1.
         21   -1    0    0  501  502  0.00000000000E+00 -0.00000000000E+00 -0.20211484318E+02  0.20211484318E+02  0.00000000000E+00 0.  1.
         24    2    1    2    0    0  0.32554510040E+02 -0.77593050175E+01  0.15447211893E+03  0.17731070195E+03  0.80358238908E+02 0.  0.
        -13    1    3    3    0    0  0.18573047170E+02 -0.34393914577E+02  0.30050831463E+02  0.49304684491E+02  0.00000000000E+00 0.  1.
         14    1    3    3    0    0  0.13981462871E+02  0.26634609559E+02  0.12442128747E+03  0.12800601746E+03  0.00000000000E+00 0. -1.
          1    1    1    2  501    0 -0.32554510040E+02  0.77593050175E+01  0.23054326104E+02  0.40638711722E+02  0.00000000000E+00 0. -1.
<mgrwt>
<rscale>  1 0.87048547E+02</rscale>
<asrwt>0</asrwt>
<pdfrwt beam="1">  1       21 0.31094593E-02 0.87048547E+02</pdfrwt>
<pdfrwt beam="2">  1        2 0.30421219E-01 0.87048547E+02</pdfrwt>
<totfact> 0.11755650E+06</totfact>
</mgrwt>
</event>
<event>
 6    2  0.8544106E+000  0.1037108E+03  0.7546771E-02  0.1272681E+00
         -3   -1    0    0    0  501 -0.00000000000E+00  0.00000000000E+00  0.34293103229E+03  0.34293103229E+03  0.00000000000E+00 0.  1.
         21   -1    0    0  501  502  0.00000000000E+00 -0.00000000000E+00 -0.66940275842E+02  0.66940275842E+02  0.00000000000E+00 0.  1.
         24    2    1    2    0    0  0.64502486172E+02 -0.23830342924E+02  0.31443040328E+03  0.33109274242E+03  0.77636780017E+02 0.  0.
        -11    1    3    3    0    0  0.49029886822E+02  0.44409570020E+01  0.27853486758E+03  0.28285212454E+03  0.00000000000E+00 0.  1.
         12    1    3    3    0    0  0.15472599350E+02 -0.28271299926E+02  0.35895535700E+02  0.48240617879E+02  0.00000000000E+00 0. -1.
         -4    1    1    2    0  502 -0.64502486172E+02  0.23830342924E+02 -0.38439646834E+02  0.78778565708E+02  0.00000000000E+00 0.  1.
<mgrwt>
<rscale>  1 0.10371078E+03</rscale>
<asrwt>0</asrwt>
<pdfrwt beam="1">  1       21 0.10298504E-01 0.10371078E+03</pdfrwt>
<pdfrwt beam="2">  1       -3 0.52758619E-01 0.10371078E+03</pdfrwt>
<totfact> 0.13103990E+04</totfact>
</mgrwt>
</event>
<event>
 6    2  0.8544106E+000  0.8498121E+02  0.7546771E-02  0.1315482E+00
          2   -1    0    0  502    0 -0.00000000000E+00  0.00000000000E+00  0.21685067862E+04  0.21685067862E+04  0.00000000000E+00 0. -1.
         21   -1    0    0  501  502  0.00000000000E+00 -0.00000000000E+00 -0.34439240571E+02  0.34439240571E+02  0.00000000000E+00 0. -1.
         24    2    1    2    0    0 -0.15459938520E+02  0.22159648918E+02  0.21622408643E+04  0.21639102018E+04  0.80571374424E+02 0.  0.
        -13    1    3    3    0    0  0.15649543034E+02 -0.22141510105E+02  0.10532385046E+04  0.10535874441E+04  0.00000000000E+00 0.  1.
         14    1    3    3    0    0 -0.31109481554E+02  0.44301159023E+02  0.11090023597E+04  0.11103227577E+04  0.00000000000E+00 0. -1.
          1    1    1    2  501    0  0.15459938520E+02 -0.22159648918E+02 -0.28173318735E+02  0.39035824927E+02  0.00000000000E+00 0. -1.
<mgrwt>
<rscale>  1 0.84981210E+02</rscale>
<asrwt>0</asrwt>
<pdfrwt beam="1">  1       21 0.52983464E-02 0.84981210E+02</pdfrwt>
<pdfrwt beam="2">  1        2 0.33361632E+00 0.84981210E+02</pdfrwt>
<totfact> 0.20144120E+04</totfact>
</mgrwt>
</event>
<event>
 6    2  0.8544106E+000  0.8603170E+02  0.7546771E-02  0.1312756E+00
          2   -1    0    0  502    0 -0.00000000000E+00  0.00000000000E+00  0.30303789629E+02  0.30303789629E+02  0.00000000000E+00 0. -1.
         21   -1    0    0  501  502  0.00000000000E+00 -0.00000000000E+00 -0.93997560435E+02  0.93997560435E+02  0.00000000000E+00 0. -1.
         24    2    1    2    0    0  0.18763587439E+02  0.72906555591E+01 -0.46310188591E+02  0.97704079477E+02  0.83643455853E+02 0.  0.
        -13    1    3    3    0    0  0.58703119688E+01  0.14276544263E+02 -0.68990331399E+02  0.70696153398E+02  0.00000000000E+00 0.  1.
         14    1    3    3    0    0  0.12893275471E+02 -0.69858887043E+01  0.22680142807E+02  0.27007926079E+02  0.00000000000E+00 0. -1.
          1    1    1    2  501    0 -0.18763587439E+02 -0.72906555591E+01 -0.17383582215E+02  0.26597270587E+02  0.00000000000E+00 0. -1.
<mgrwt>
<rscale>  1 0.86031701E+02</rscale>
<asrwt>0</asrwt>
<pdfrwt beam="1">  1       21 0.14461163E-01 0.86031701E+02</pdfrwt>
<pdfrwt beam="2">  1        2 0.46621215E-02 0.86031701E+02</pdfrwt>
<totfact> 0.80138494E+05</totfact>
</mgrwt>
</event>
<event>
 6    2  0.8544106E+000  0.8704364E+02  0.7546771E-02  0.1310173E+00
          2   -1    0    0  502    0 -0.00000000000E+00  0.00000000000E+00  0.26385716715E+02  0.26385716715E+02  0.00000000000E+00 0. -1.
         21   -1    0    0  501  502  0.00000000000E+00 -0.00000000000E+00 -0.22676554240E+03  0.22676554240E+03  0.00000000000E+00 0. -1.
         24    2    1    2    0    0 -0.35366438400E+02 -0.12109519255E+02 -0.54820263809E+02  0.10286815469E+03  0.78607700029E+02 0.  0.
        -11    1    3    3    0    0 -0.26307615262E+02  0.12167295461E+02 -0.67910515729E+02  0.73837469121E+02  0.00000000000E+00 0.  1.
         12    1    3    3    0    0 -0.90588231385E+01 -0.24276814716E+02  0.13090251919E+02  0.29030685571E+02  0.00000000000E+00 0. -1.
          1    1    1    2  501    0  0.35366438400E+02  0.12109519255E+02 -0.14555956187E+03  0.15028310442E+03  0.00000000000E+00 0. -1.
<mgrwt>
<rscale>  1 0.87043644E+02</rscale>
<asrwt>0</asrwt>
<pdfrwt beam="1">  1       21 0.34887008E-01 0.87043644E+02</pdfrwt>
<pdfrwt beam="2">  1        2 0.40593409E-02 0.87043644E+02</pdfrwt>
<totfact> 0.18791666E+05</totfact>
</mgrwt>
</event>
<event>
 6    2  0.8544106E+000  0.9239744E+02  0.7546771E-02  0.1297148E+00
          2   -1    0    0  502    0 -0.00000000000E+00  0.00000000000E+00  0.63540704668E+03  0.63540704668E+03  0.00000000000E+00 0. -1.
         21   -1    0    0  501  502  0.00000000000E+00 -0.00000000000E+00 -0.10861069469E+02  0.10861069469E+02  0.00000000000E+00 0. -1.
         24    2    1    2    0    0  0.51142539885E+02  0.24416464463E+02  0.51187352638E+03  0.52014593610E+03  0.72976466862E+02 0.  0.
        -11    1    3    3    0    0  0.39042463343E+01  0.19470506902E+02  0.30247719466E+02  0.36183812836E+02  0.00000000000E+00 0.  1.
         12    1    3    3    0    0  0.47238293550E+02  0.49459575607E+01  0.48162580691E+03  0.48396212327E+03  0.00000000000E+00 0. -1.
          1    1    1    2  501    0 -0.51142539885E+02 -0.24416464463E+02  0.11267245083E+03  0.12612218005E+03  0.00000000000E+00 0. -1.
<mgrwt>
<rscale>  1 0.92397445E+02</rscale>
<asrwt>0</asrwt>
<pdfrwt beam="1">  1       21 0.16709343E-02 0.92397445E+02</pdfrwt>
<pdfrwt beam="2">  1        2 0.97754902E-01 0.92397445E+02</pdfrwt>
<totfact> 0.92668731E+05</totfact>
</mgrwt>
</event>
<event>
 6    2  0.8544106E+000  0.8422552E+02  0.7546771E-02  0.1317470E+00
         21   -1    0    0  501  502  0.00000000000E+00  0.00000000000E+00  0.41297623091E+01  0.41297623091E+01  0.00000000000E+00 0.  1.
          2   -1    0    0  502    0 -0.00000000000E+00 -0.00000000000E+00 -0.92646842539E+03  0.92646842539E+03  0.00000000000E+00 0. -1.
         24    2    1    2    0    0 -0.19314559888E+02 -0.16087067629E+02 -0.46479824694E+03  0.47236781074E+03  0.80387140099E+02 0.  0.
        -13    1    3    3    0    0 -0.49162751409E+02 -0.20773775314E+02 -0.32375288182E+03  0.32812262092E+03  0.00000000000E+00 0.  1.
         14    1    3    3    0    0  0.29848191521E+02  0.46867076850E+01 -0.14104536512E+03  0.14424518982E+03  0.00000000000E+00 0. -1.
          1    1    1    2  501    0  0.19314559888E+02  0.16087067629E+02 -0.45754041614E+03  0.45823037696E+03  0.00000000000E+00 0. -1.
<mgrwt>
<rscale>  1 0.84225520E+02</rscale>
<asrwt>0</asrwt>
<pdfrwt beam="1">  1       21 0.63534720E-03 0.84225520E+02</pdfrwt>
<pdfrwt beam="2">  1        2 0.14253379E+00 0.84225520E+02</pdfrwt>
<totfact> 0.26438655E+06</totfact>
</mgrwt>
</event>
<event>
 6    2  0.8544106E+000  0.1016479E+03  0.7546771E-02  0.1276868E+00
         -1   -1    0    0    0  501 -0.00000000000E+00  0.00000000000E+00  0.13227801446E+04  0.13227801446E+04  0.00000000000E+00 0.  1.
         21   -1    0    0  501  502  0.00000000000E+00 -0.00000000000E+00 -0.22128109509E+02  0.22128109509E+02  0.00000000000E+00 0.  1.
         24    2    1    2    0    0  0.27487250073E+02 -0.53711704283E+02  0.12754922496E+04  0.12795361584E+04  0.81803458231E+02 0.  0.
        -13    1    3    3    0    0  0.41112991672E+01  0.17715299369E+02  0.51931727269E+03  0.51963560726E+03  0.00000000000E+00 0.  1.
         14    1    3    3    0    0  0.23375950905E+02 -0.71427003652E+02  0.75617497687E+03  0.75990055111E+03  0.00000000000E+00 0. -1.
         -2    1    1    2    0  502 -0.27487250073E+02  0.53711704283E+02  0.25159785524E+02  0.65372095738E+02  0.00000000000E+00 0.  1.
<mgrwt>
<rscale>  1 0.10164793E+03</rscale>
<asrwt>0</asrwt>
<pdfrwt beam="1">  1       21 0.34043256E-02 0.10164793E+03</pdfrwt>
<pdfrwt beam="2">  1       -1 0.20350458E+00 0.10164793E+03</pdfrwt>
<totfact> 0.78186825E+03</totfact>
</mgrwt>
</event>
<event>
 6    2  0.8544106E+000  0.8948344E+02  0.7546771E-02  0.1304107E+00
         21   -1    0    0  501  502  0.00000000000E+00  0.00000000000E+00  0.27665197150E+01  0.27665197150E+01  0.00000000000E+00 0.  1.
          2   -1    0    0  502    0 -0.00000000000E+00 -0.00000000000E+00 -0.15991641712E+04  0.15991641712E+04  0.00000000000E+00 0. -1.
         24    2    1    2    0    0  0.52084248639E+00 -0.41075987072E+02 -0.12262198058E+04  0.12294804991E+04  0.79497027586E+02 0.  0.
        -13    1    3    3    0    0 -0.22956193525E+02 -0.40186225774E+01 -0.11207762366E+03  0.11447501855E+03  0.00000000000E+00 0.  1.
         14    1    3    3    0    0  0.23477036011E+02 -0.37057364495E+02 -0.11141421822E+04  0.11150054805E+04  0.00000000000E+00 0. -1.
          1    1    1    2  501    0 -0.52084248639E+00  0.41075987072E+02 -0.37017784566E+03  0.37245019185E+03  0.00000000000E+00 0. -1.
<mgrwt>
<rscale>  1 0.89483436E+02</rscale>
<asrwt>0</asrwt>
<pdfrwt beam="1">  1       21 0.42561722E-03 0.89483436E+02</pdfrwt>
<pdfrwt beam="2">  1        2 0.24602595E+00 0.89483436E+02</pdfrwt>
<totfact> 0.21278900E+06</totfact>
</mgrwt>
</event>
<event>
 6    2  0.8544106E+000  0.8235640E+02  0.7546771E-02  0.1322494E+00
         21   -1    0    0  501  502  0.00000000000E+00  0.00000000000E+00  0.45661527921E+01  0.45661527921E+01  0.00000000000E+00 0. -1.
          2   -1    0    0  502    0 -0.00000000000E+00 -0.00000000000E+00 -0.58469837970E+03  0.58469837970E+03  0.00000000000E+00 0. -1.
         24    2    1    2    0    0 -0.18472111407E+02  0.88388534024E+01 -0.43957024296E+03  0.44721871045E+03  0.79769870553E+02 0.  0.
        -13    1    3    3    0    0 -0.10271164096E+02  0.29038156330E+02 -0.64101530831E+02  0.71117632060E+02  0.00000000000E+00 0.  1.
         14    1    3    3    0    0 -0.82009473110E+01 -0.20199302928E+02 -0.37546871213E+03  0.37610107839E+03  0.00000000000E+00 0. -1.
          1    1    1    2  501    0  0.18472111407E+02 -0.88388534024E+01 -0.14056198395E+03  0.14204582204E+03  0.00000000000E+00 0. -1.
<mgrwt>
<rscale>  1 0.82356399E+02</rscale>
<asrwt>0</asrwt>
<pdfrwt beam="1">  1       21 0.70248519E-03 0.82356399E+02</pdfrwt>
<pdfrwt beam="2">  1        2 0.89953578E-01 0.82356399E+02</pdfrwt>
<totfact> 0.39015470E+06</totfact>
</mgrwt>
</event>
<event>
 6    2  0.8544106E+000  0.9332072E+02  0.7546771E-02  0.1295004E+00
         21   -1    0    0  501  502  0.00000000000E+00  0.00000000000E+00  0.23827144024E+02  0.23827144024E+02  0.00000000000E+00 0. -1.
          2   -1    0    0  502    0 -0.00000000000E+00 -0.00000000000E+00 -0.23409406430E+03  0.23409406430E+03  0.00000000000E+00 0. -1.
         24    2    1    2    0    0 -0.32882113126E+02  0.32015704271E+02 -0.18056456421E+03  0.20325432036E+03  0.81255881097E+02 0.  0.
        -11    1    3    3    0    0 -0.19634193290E+02  0.18098032773E+02 -0.56582405190E+01  0.27295714355E+02  0.00000000000E+00 0.  1.
         12    1    3    3    0    0 -0.13247919836E+02  0.13917671498E+02 -0.17490632369E+03  0.17595860601E+03  0.00000000000E+00 0. -1.
          1    1    1    2  501    0  0.32882113126E+02 -0.32015704271E+02 -0.29702356061E+02  0.54666887960E+02  0.00000000000E+00 0. -1.
<mgrwt>
<rscale>  1 0.93320721E+02</rscale>
<asrwt>0</asrwt>
<pdfrwt beam="1">  1       21 0.36657143E-02 0.93320721E+02</pdfrwt>
<pdfrwt beam="2">  1        2 0.36014473E-01 0.93320721E+02</pdfrwt>
<totfact> 0.75661669E+05</totfact>
</mgrwt>
</event>
<event>
 6    2  0.8544106E+000  0.8194810E+02  0.7546771E-02  0.1323612E+00
          2   -1    0    0  502    0 -0.00000000000E+00  0.00000000000E+00  0.13530204643E+02  0.13530204643E+02  0.00000000000E+00 0. -1.
         21   -1    0    0  501  502  0.00000000000E+00 -0.00000000000E+00 -0.64789835184E+03  0.64789835184E+03  0.00000000000E+00 0. -1.
         24    2    1    2    0    0  0.22729193662E+02 -0.21153867394E+02 -0.11542392424E+03  0.14155625592E+03  0.75837912377E+02 0.  0.
        -11    1    3    3    0    0  0.16794573045E+02  0.26486217406E+02 -0.63602982542E+02  0.70914855880E+02  0.00000000000E+00 0.  1.
         12    1    3    3    0    0  0.59346206169E+01 -0.47640084800E+02 -0.51820941699E+02  0.70641400044E+02  0.00000000000E+00 0. -1.
          1    1    1    2  501    0 -0.22729193662E+02  0.21153867394E+02 -0.51894422296E+03  0.51987230056E+03  0.00000000000E+00 0. -1.
<mgrwt>
<rscale>  1 0.81948101E+02</rscale>
<asrwt>0</asrwt>
<pdfrwt beam="1">  1       21 0.99676652E-01 0.81948101E+02</pdfrwt>
<pdfrwt beam="2">  1        2 0.20815703E-02 0.81948101E+02</pdfrwt>
<totfact> 0.50032121E+04</totfact>
</mgrwt>
</event>
<event>
 6    2  0.9102839E+000  0.9079536E+02  0.7546771E-02  0.1300937E+00
         21   -1    0    0  501  502  0.00000000000E+00  0.00000000000E+00  0.96701126329E+01  0.96701126329E+01  0.00000000000E+00 0. -1.
         -1   -1    0    0    0  501 -0.00000000000E+00 -0.00000000000E+00 -0.47729191445E+03  0.47729191445E+03  0.00000000000E+00 0.  1.
         24    2    1    2    0    0  0.32269225548E+02  0.17726857981E+02 -0.24432239003E+03  0.26064770647E+03  0.82995495090E+02 0.  0.
        -13    1    3    3    0    0 -0.10321582128E+02 -0.22380909245E+02 -0.12901486903E+03  0.13134792189E+03  0.00000000000E+00 0.  1.
         14    1    3    3    0    0  0.42590807676E+02  0.40107767226E+02 -0.11530752100E+03  0.12929978457E+03  0.00000000000E+00 0. -1.
         -2    1    1    2    0  502 -0.32269225548E+02 -0.17726857981E+02 -0.22329941178E+03  0.22631432061E+03  0.00000000000E+00 0.  1.
<mgrwt>
<rscale>  1 0.90795356E+02</rscale>
<asrwt>0</asrwt>
<pdfrwt beam="1">  1       21 0.14877100E-02 0.90795356E+02</pdfrwt>
<pdfrwt beam="2">  1       -1 0.73429508E-01 0.90795356E+02</pdfrwt>
<totfact> 0.34038714E+05</totfact>
</mgrwt>
</event>
<event>
 6    2  0.8544106E+000  0.8537997E+02  0.7546771E-02  0.1314442E+00
         21   -1    0    0  501  502  0.00000000000E+00  0.00000000000E+00  0.12891387137E+04  0.12891387137E+04  0.00000000000E+00 0.  1.
         -1   -1    0    0    0  501 -0.00000000000E+00 -0.00000000000E+00 -0.45354938411E+01  0.45354938411E+01  0.00000000000E+00 0.  1.
         24    2    1    2    0    0 -0.19957076154E+02 -0.11107720687E+02  0.41110513779E+03  0.41987756888E+03  0.82268293944E+02 0.  0.
        -13    1    3    3    0    0 -0.11167731605E+01  0.34601307472E+02  0.20665420206E+03  0.20953390392E+03  0.00000000000E+00 0.  1.
         14    1    3    3    0    0 -0.18840302994E+02 -0.45709028158E+02  0.20445093572E+03  0.21034366496E+03  0.00000000000E+00 0. -1.
         -2    1    1    2    0  502  0.19957076154E+02  0.11107720687E+02  0.87349808205E+03  0.87379663863E+03  0.00000000000E+00 0.  1.
<mgrwt>
<rscale>  1 0.85379966E+02</rscale>
<asrwt>0</asrwt>
<pdfrwt beam="1">  1       21 0.19832874E+00 0.85379966E+02</pdfrwt>
<pdfrwt beam="2">  1       -1 0.69776931E-03 0.85379966E+02</pdfrwt>
<totfact> 0.37958756E+04</totfact>
</mgrwt>
</event>
<event>
 6    2  0.8544106E+000  0.7834452E+02  0.7546771E-02  0.1333816E+00
         21   -1    0    0  501  502  0.00000000000E+00  0.00000000000E+00  0.90930226806E+01  0.90930226806E+01  0.00000000000E+00 0. -1.
          2   -1    0    0  502    0 -0.00000000000E+00 -0.00000000000E+00 -0.67552531940E+03  0.67552531940E+03  0.00000000000E+00 0. -1.
         24    2    1    2    0    0  0.24345692498E+02 -0.86674275969E+01 -0.64837738167E+03  0.65309347884E+03  0.73959624178E+02 0.  0.
        -13    1    3    3    0    0 -0.23533517068E+02 -0.13559517516E+02 -0.15379274057E+03  0.15617264163E+03  0.00000000000E+00 0.  1.
         14    1    3    3    0    0  0.47879209566E+02  0.48920899189E+01 -0.49458464109E+03  0.49692083721E+03  0.00000000000E+00 0. -1.
          1    1    1    2  501    0 -0.24345692498E+02  0.86674275969E+01 -0.18054915049E+02  0.31524863232E+02  0.00000000000E+00 0. -1.
<mgrwt>
<rscale>  1 0.78344515E+02</rscale>
<asrwt>0</asrwt>
<pdfrwt beam="1">  1       21 0.13989263E-02 0.78344515E+02</pdfrwt>
<pdfrwt beam="2">  1        2 0.10392699E+00 0.78344515E+02</pdfrwt>
<totfact> 0.11271993E+06</totfact>
</mgrwt>
</event>
<event>
 6    2  0.8544106E+000  0.8906501E+02  0.7546771E-02  0.1305132E+00
         21   -1    0    0  501  502  0.00000000000E+00  0.00000000000E+00  0.48484259267E+01  0.48484259267E+01  0.00000000000E+00 0. -1.
          4   -1    0    0  502    0 -0.00000000000E+00 -0.00000000000E+00 -0.11297511878E+04  0.11297511878E+04  0.00000000000E+00 0. -1.
         24    2    1    2    0    0  0.37386008818E+02 -0.10162813972E+02 -0.99668007713E+03  0.10006516637E+04  0.80197128399E+02 0.  0.
        -11    1    3    3    0    0 -0.62537397606E+01  0.29387706691E+02 -0.36209674396E+03  0.36334116000E+03  0.00000000000E+00 0.  1.
         12    1    3    3    0    0  0.43639748578E+02 -0.39550520663E+02 -0.63458333317E+03  0.63731050366E+03  0.00000000000E+00 0. -1.
          3    1    1    2  501    0 -0.37386008818E+02  0.10162813972E+02 -0.12822268475E+03  0.13394795007E+03  0.00000000000E+00 0. -1.
<mgrwt>
<rscale>  1 0.89065009E+02</rscale>
<asrwt>0</asrwt>
<pdfrwt beam="1">  1       21 0.74591167E-03 0.89065009E+02</pdfrwt>
<pdfrwt beam="2">  1        4 0.17380788E+00 0.89065009E+02</pdfrwt>
<totfact> 0.49164235E+04</totfact>
</mgrwt>
</event>
<event>
 6    2  0.8544106E+000  0.1051011E+03  0.7546771E-02  0.1269921E+00
          4   -1    0    0  502    0 -0.00000000000E+00  0.00000000000E+00  0.65597995509E+02  0.65597995509E+02  0.00000000000E+00 0. -1.
         21   -1    0    0  501  502  0.00000000000E+00 -0.00000000000E+00 -0.12026950054E+03  0.12026950054E+03  0.00000000000E+00 0. -1.
         24    2    1    2    0    0  0.54196741675E+02  0.30057915601E+02 -0.29433922173E+01  0.10514226608E+03  0.84885024946E+02 0.  0.
        -11    1    3    3    0    0  0.39776523576E+02 -0.23708087177E+02 -0.14025907091E+02  0.48383584975E+02  0.00000000000E+00 0.  1.
         12    1    3    3    0    0  0.14420218099E+02  0.53766002778E+02  0.11082514874E+02  0.56758681104E+02  0.00000000000E+00 0. -1.
          3    1    1    2  501    0 -0.54196741675E+02 -0.30057915601E+02 -0.51728112815E+02  0.80725229971E+02  0.00000000000E+00 0. -1.
<mgrwt>
<rscale>  1 0.10510106E+03</rscale>
<asrwt>0</asrwt>
<pdfrwt beam="1">  1       21 0.18503000E-01 0.10510106E+03</pdfrwt>
<pdfrwt beam="2">  1        4 0.10091999E-01 0.10510106E+03</pdfrwt>
<totfact> 0.77819458E+04</totfact>
</mgrwt>
</event>
<event>
 6    2  0.8544106E+000  0.8435495E+02  0.7546771E-02  0.1317128E+00
         21   -1    0    0  501  502  0.00000000000E+00  0.00000000000E+00  0.84017307321E+02  0.84017307321E+02  0.00000000000E+00 0.  1.
         -1   -1    0    0    0  501 -0.00000000000E+00 -0.00000000000E+00 -0.59007197849E+02  0.59007197849E+02  0.00000000000E+00 0.  1.
         24    2    1    2    0    0  0.87035180957E+01  0.28698437526E+02 -0.22079190362E+02  0.87196611582E+02  0.78844193703E+02 0.  0.
        -11    1    3    3    0    0 -0.51732542295E+01  0.14196009895E+02 -0.50325629756E+02  0.52544821501E+02  0.00000000000E+00 0.  1.
         12    1    3    3    0    0  0.13876772325E+02  0.14502427631E+02  0.28246439394E+02  0.34651790081E+02  0.00000000000E+00 0. -1.
         -2    1    1    2    0  502 -0.87035180957E+01 -0.28698437526E+02  0.47089299833E+02  0.55827893588E+02  0.00000000000E+00 0.  1.
<mgrwt>
<rscale>  1 0.84354955E+02</rscale>
<asrwt>0</asrwt>
<pdfrwt beam="1">  1       21 0.12925740E-01 0.84354955E+02</pdfrwt>
<pdfrwt beam="2">  1       -1 0.90780304E-02 0.84354955E+02</pdfrwt>
<totfact> 0.30360361E+05</totfact>
</mgrwt>
</event>
<event>
 6    2  0.8544106E+000  0.8758273E+02  0.7546771E-02  0.1308813E+00
          2   -1    0    0  502    0 -0.00000000000E+00  0.00000000000E+00  0.11339564225E+04  0.11339564225E+04  0.00000000000E+00 0. -1.
         21   -1    0    0  501  502  0.00000000000E+00 -0.00000000000E+00 -0.34128934845E+01  0.34128934845E+01  0.00000000000E+00 0.  1.
         24    2    1    2    0    0 -0.11674087014E+02 -0.31123970094E+02  0.68292387899E+03  0.68851707202E+03  0.81029304254E+02 0.  0.
        -13    1    3    3    0    0 -0.34550369124E+01 -0.42428250632E+02  0.16493913965E+03  0.17034380975E+03  0.00000000000E+00 0.  1.
         14    1    3    3    0    0 -0.82190501013E+01  0.11304280539E+02  0.51798473934E+03  0.51817326227E+03  0.00000000000E+00 0. -1.
          1    1    1    2  501    0  0.11674087014E+02  0.31123970094E+02  0.44761965001E+03  0.44885224394E+03  0.00000000000E+00 0. -1.
<mgrwt>
<rscale>  1 0.87582726E+02</rscale>
<asrwt>0</asrwt>
<pdfrwt beam="1">  1       21 0.52506144E-03 0.87582726E+02</pdfrwt>
<pdfrwt beam="2">  1        2 0.17445453E+00 0.87582726E+02</pdfrwt>
<totfact> 0.26998314E+06</totfact>
</mgrwt>
</event>
<event>
 6    2  0.8544106E+000  0.8376356E+02  0.7546771E-02  0.1318698E+00
          2   -1    0    0  502    0 -0.00000000000E+00  0.00000000000E+00  0.39717048433E+03  0.39717048433E+03  0.00000000000E+00 0. -1.
         21   -1    0    0  501  502  0.00000000000E+00 -0.00000000000E+00 -0.79024146780E+01  0.79024146780E+01  0.00000000000E+00 0. -1.
         24    2    1    2    0    0 -0.12641505434E+02  0.21488840742E+02  0.33561674408E+03  0.34591174054E+03  0.79967214519E+02 0.  0.
        -11    1    3    3    0    0  0.33225934198E+02  0.22912267041E+01  0.15763620126E+03  0.16111605870E+03  0.00000000000E+00 0.  1.
         12    1    3    3    0    0 -0.45867439631E+02  0.19197614037E+02  0.17798054282E+03  0.18479568183E+03  0.00000000000E+00 0. -1.
          1    1    1    2  501    0  0.12641505434E+02 -0.21488840742E+02  0.53651325571E+02  0.59161158470E+02  0.00000000000E+00 0. -1.
<mgrwt>
<rscale>  1 0.83763556E+02</rscale>
<asrwt>0</asrwt>
<pdfrwt beam="1">  1       21 0.12157564E-02 0.83763556E+02</pdfrwt>
<pdfrwt beam="2">  1        2 0.61103136E-01 0.83763556E+02</pdfrwt>
<totfact> 0.25219369E+06</totfact>
</mgrwt>
</event>
<event>
 6    2  0.8544106E+000  0.8384785E+02  0.7546771E-02  0.1318473E+00
         21   -1    0    0  501  502  0.00000000000E+00  0.00000000000E+00  0.21709454888E+03  0.21709454888E+03  0.00000000000E+00 0. -1.
          2   -1    0    0  502    0 -0.00000000000E+00 -0.00000000000E+00 -0.14919152934E+02  0.14919152934E+02  0.00000000000E+00 0. -1.
         24    2    1    2    0    0  0.19553167321E+02 -0.11574361452E+02  0.11754368875E+03  0.14438483637E+03  0.80710408341E+02 0.  0.
        -13    1    3    3    0    0  0.25539973994E+02  0.30943875512E+02  0.46950318125E+02  0.61758773266E+02  0.00000000000E+00 0.  1.
         14    1    3    3    0    0 -0.59868066729E+01 -0.42518236963E+02  0.70593370624E+02  0.82626063107E+02  0.00000000000E+00 0. -1.
          1    1    1    2  501    0 -0.19553167321E+02  0.11574361452E+02  0.84631707193E+02  0.87628865437E+02  0.00000000000E+00 0. -1.
<mgrwt>
<rscale>  1 0.83847852E+02</rscale>
<asrwt>0</asrwt>
<pdfrwt beam="1">  1       21 0.33399159E-01 0.83847852E+02</pdfrwt>
<pdfrwt beam="2">  1        2 0.22952545E-02 0.83847852E+02</pdfrwt>
<totfact> 0.43343883E+05</totfact>
</mgrwt>
</event>
<event>
 6    2  0.8544106E+000  0.8480389E+02  0.7546771E-02  0.1315946E+00
         21   -1    0    0  501  502  0.00000000000E+00  0.00000000000E+00  0.26564725131E+01  0.26564725131E+01  0.00000000000E+00 0. -1.
          2   -1    0    0  502    0 -0.00000000000E+00 -0.00000000000E+00 -0.15931806088E+04  0.15931806088E+04  0.00000000000E+00 0. -1.
         24    2    1    2    0    0 -0.24486453841E+02  0.35428960610E+02 -0.90633611045E+03  0.91029492188E+03  0.73054103308E+02 0.  0.
        -11    1    3    3    0    0  0.14847956286E+02 -0.14779322096E+02 -0.20821264038E+03  0.20926393330E+03  0.00000000000E+00 0.  1.
         12    1    3    3    0    0 -0.39334410127E+02  0.50208282706E+02 -0.69812347008E+03  0.70103098858E+03  0.00000000000E+00 0. -1.
          1    1    1    2  501    0  0.24486453841E+02 -0.35428960610E+02 -0.68418802588E+03  0.68554215948E+03  0.00000000000E+00 0. -1.
<mgrwt>
<rscale>  1 0.84803890E+02</rscale>
<asrwt>0</asrwt>
<pdfrwt beam="1">  1       21 0.40868796E-03 0.84803890E+02</pdfrwt>
<pdfrwt beam="2">  1        2 0.24510478E+00 0.84803890E+02</pdfrwt>
<totfact> 0.22697236E+06</totfact>
</mgrwt>
</event>
<event>
 6    2  0.8544106E+000  0.2220513E+03  0.7546771E-02  0.1132363E+00
          2   -1    0    0  502    0 -0.00000000000E+00  0.00000000000E+00  0.41097261120E+03  0.41097261120E+03  0.00000000000E+00 0. -1.
         21   -1    0    0  501  502  0.00000000000E+00 -0.00000000000E+00 -0.11371698281E+03  0.11371698281E+03  0.00000000000E+00 0. -1.
         24    2    1    2    0    0 -0.87612393745E+02 -0.18607631998E+03  0.19250966335E+03  0.29388221634E+03  0.83704588901E+02 0.  0.
        -11    1    3    3    0    0 -0.43957282301E+02 -0.42361437596E+02  0.10095960312E+03  0.11798125073E+03  0.00000000000E+00 0.  1.
         12    1    3    3    0    0 -0.43655111444E+02 -0.14371488238E+03  0.91550060230E+02  0.17590096561E+03  0.00000000000E+00 0. -1.
          1    1    1    2  501    0  0.87612393745E+02  0.18607631998E+03  0.10474596504E+03  0.23080737767E+03  0.00000000000E+00 0. -1.
<mgrwt>
<rscale>  1 0.22205132E+03</rscale>
<asrwt>0</asrwt>
<pdfrwt beam="1">  1       21 0.17494921E-01 0.22205132E+03</pdfrwt>
<pdfrwt beam="2">  1        2 0.63226555E-01 0.22205132E+03</pdfrwt>
<totfact> 0.28510963E+04</totfact>
</mgrwt>
</event>
<event>
 6    2  0.8544106E+000  0.8534744E+02  0.7546771E-02  0.1314526E+00
         21   -1    0    0  501  502  0.00000000000E+00  0.00000000000E+00  0.17112514373E+01  0.17112514373E+01  0.00000000000E+00 0.  1.
          2   -1    0    0  502    0 -0.00000000000E+00 -0.00000000000E+00 -0.18018118601E+04  0.18018118601E+04  0.00000000000E+00 0. -1.
         24    2    1    2    0    0  0.15728398902E+02  0.19277183819E+02 -0.14786934949E+04  0.14811544947E+04  0.81640632935E+02 0.  0.
        -13    1    3    3    0    0 -0.10252789212E+02  0.42572765219E+02 -0.52510207065E+03  0.52692479979E+03  0.00000000000E+00 0.  1.
         14    1    3    3    0    0  0.25981188114E+02 -0.23295581400E+02 -0.95359142421E+03  0.95422969487E+03  0.00000000000E+00 0. -1.
          1    1    1    2  501    0 -0.15728398902E+02 -0.19277183819E+02 -0.32140711381E+03  0.32236861689E+03  0.00000000000E+00 0. -1.
<mgrwt>
<rscale>  1 0.85347439E+02</rscale>
<asrwt>0</asrwt>
<pdfrwt beam="1">  1       21 0.26326968E-03 0.85347439E+02</pdfrwt>
<pdfrwt beam="2">  1        2 0.27720159E+00 0.85347439E+02</pdfrwt>
<totfact> 0.34732497E+06</totfact>
</mgrwt>
</event>
<event>
 6    2  0.8544106E+000  0.8320265E+02  0.7546771E-02  0.1320201E+00
         21   -1    0    0  501  502  0.00000000000E+00  0.00000000000E+00  0.65356991584E+01  0.65356991584E+01  0.00000000000E+00 0. -1.
         -1   -1    0    0    0  501 -0.00000000000E+00 -0.00000000000E+00 -0.47965638453E+03  0.47965638453E+03  0.00000000000E+00 0.  1.
         24    2    1    2    0    0 -0.14102462230E+02 -0.24447060094E+02 -0.33108106344E+03  0.34137567444E+03  0.78269677045E+02 0.  0.
        -13    1    3    3    0    0 -0.10609174119E+02  0.27705761120E+02 -0.14979555363E+03  0.15270517890E+03  0.00000000000E+00 0.  1.
         14    1    3    3    0    0 -0.34932881106E+01 -0.52152821214E+02 -0.18128550981E+03  0.18867049554E+03  0.00000000000E+00 0. -1.
         -2    1    1    2    0  502  0.14102462230E+02  0.24447060094E+02 -0.14203962194E+03  0.14481640925E+03  0.00000000000E+00 0.  1.
<mgrwt>
<rscale>  1 0.83202647E+02</rscale>
<asrwt>0</asrwt>
<pdfrwt beam="1">  1       21 0.10054923E-02 0.83202647E+02</pdfrwt>
<pdfrwt beam="2">  1       -1 0.73793283E-01 0.83202647E+02</pdfrwt>
<totfact> 0.61822982E+05</totfact>
</mgrwt>
</event>
<event>
 6    2  0.8544106E+000  0.8525345E+02  0.7546771E-02  0.1314771E+00
          2   -1    0    0  502    0 -0.00000000000E+00  0.00000000000E+00  0.58782262626E+02  0.58782262626E+02  0.00000000000E+00 0. -1.
         21   -1    0    0  501  502  0.00000000000E+00 -0.00000000000E+00 -0.11408420778E+03  0.11408420778E+03  0.00000000000E+00 0. -1.
         24    2    1    2    0    0  0.12969866429E+02 -0.20812426090E+02  0.25048551924E+02  0.88857084648E+02  0.81650333886E+02 0.  0.
        -11    1    3    3    0    0 -0.23332586011E+02 -0.14171441364E+02 -0.17582379296E+02  0.32471208509E+02  0.00000000000E+00 0.  1.
         12    1    3    3    0    0  0.36302452440E+02 -0.66409847266E+01  0.42630931220E+02  0.56385876139E+02  0.00000000000E+00 0. -1.
          1    1    1    2  501    0 -0.12969866429E+02  0.20812426090E+02 -0.80350497082E+02  0.84009385763E+02  0.00000000000E+00 0. -1.
<mgrwt>
<rscale>  1 0.85253455E+02</rscale>
<asrwt>0</asrwt>
<pdfrwt beam="1">  1       21 0.17551416E-01 0.85253455E+02</pdfrwt>
<pdfrwt beam="2">  1        2 0.90434251E-02 0.85253455E+02</pdfrwt>
<totfact> 0.24557572E+05</totfact>
</mgrwt>
</event>
<event>
 6    2  0.8544106E+000  0.8720919E+02  0.7546771E-02  0.1309754E+00
          4   -1    0    0  502    0 -0.00000000000E+00  0.00000000000E+00  0.16104447540E+02  0.16104447540E+02  0.00000000000E+00 0. -1.
         21   -1    0    0  501  502  0.00000000000E+00 -0.00000000000E+00 -0.79107350565E+03  0.79107350565E+03  0.00000000000E+00 0. -1.
         24    2    1    2    0    0 -0.19000365260E+02 -0.12406872438E+02 -0.10357379222E+03  0.13539930853E+03  0.84205094567E+02 0.  0.
        -13    1    3    3    0    0 -0.26945973158E+02  0.30895372235E+02 -0.34969668472E+02  0.53884016257E+02  0.00000000000E+00 0.  1.
         14    1    3    3    0    0  0.79456078985E+01 -0.43302244673E+02 -0.68604123746E+02  0.81515292268E+02  0.00000000000E+00 0. -1.
          3    1    1    2  501    0  0.19000365260E+02  0.12406872438E+02 -0.67139526589E+03  0.67177864466E+03  0.00000000000E+00 0. -1.
<mgrwt>
<rscale>  1 0.87209187E+02</rscale>
<asrwt>0</asrwt>
<pdfrwt beam="1">  1       21 0.12170363E+00 0.87209187E+02</pdfrwt>
<pdfrwt beam="2">  1        4 0.24776070E-02 0.87209187E+02</pdfrwt>
<totfact> 0.14885689E+04</totfact>
</mgrwt>
</event>
<event>
 6    2  0.8544106E+000  0.8290711E+02  0.7546771E-02  0.1320998E+00
         21   -1    0    0  501  502  0.00000000000E+00  0.00000000000E+00  0.90152738066E+01  0.90152738066E+01  0.00000000000E+00 0. -1.
          2   -1    0    0  502    0 -0.00000000000E+00 -0.00000000000E+00 -0.10532639992E+04  0.10532639992E+04  0.00000000000E+00 0. -1.
         24    2    1    2    0    0  0.24208548280E+00  0.23446383138E+02 -0.10329135823E+04  0.10362355222E+04  0.79522307619E+02 0.  0.
        -11    1    3    3    0    0 -0.55747399869E+01  0.33171749210E+02 -0.17258866671E+03  0.17583597627E+03  0.00000000000E+00 0.  1.
         12    1    3    3    0    0  0.58168254697E+01 -0.97253660717E+01 -0.86032491559E+03  0.86039954590E+03  0.00000000000E+00 0. -1.
          1    1    1    2  501    0 -0.24208548280E+00 -0.23446383138E+02 -0.11335143049E+02  0.26043750797E+02  0.00000000000E+00 0. -1.
<mgrwt>
<rscale>  1 0.82907110E+02</rscale>
<asrwt>0</asrwt>
<pdfrwt beam="1">  1       21 0.13869652E-02 0.82907110E+02</pdfrwt>
<pdfrwt beam="2">  1        2 0.16204061E+00 0.82907110E+02</pdfrwt>
<totfact> 0.65943664E+05</totfact>
</mgrwt>
</event>
<event>
 6    2  0.8544106E+000  0.9306279E+02  0.7546771E-02  0.1295600E+00
         -3   -1    0    0    0  501 -0.00000000000E+00  0.00000000000E+00  0.38286318708E+02  0.38286318708E+02  0.00000000000E+00 0.  1.
         21   -1    0    0  501  502  0.00000000000E+00 -0.00000000000E+00 -0.13127221077E+03  0.13127221077E+03  0.00000000000E+00 0. -1.
         24    2    1    2    0    0  0.34642760821E+02  0.33825236924E+02 -0.66394297345E+02  0.11431922789E+03  0.79475880716E+02 0.  0.
        -11    1    3    3    0    0  0.13830113160E+02 -0.25060899025E+02 -0.10451768781E+02  0.30472285123E+02  0.00000000000E+00 0.  1.
         12    1    3    3    0    0  0.20812647661E+02  0.58886135948E+02 -0.55942528564E+02  0.83846942769E+02  0.00000000000E+00 0. -1.
         -4    1    1    2    0  502 -0.34642760821E+02 -0.33825236924E+02 -0.26591594717E+02  0.55239301587E+02  0.00000000000E+00 0.  1.
<mgrwt>
<rscale>  1 0.93062791E+02</rscale>
<asrwt>0</asrwt>
<pdfrwt beam="1">  1       21 0.20195725E-01 0.93062791E+02</pdfrwt>
<pdfrwt beam="2">  1       -3 0.58902028E-02 0.93062791E+02</pdfrwt>
<totfact> 0.17916755E+05</totfact>
</mgrwt>
</event>
<event>
 6    2  0.8544106E+000  0.8598767E+02  0.7546771E-02  0.1312870E+00
         -3   -1    0    0    0  501 -0.00000000000E+00  0.00000000000E+00  0.14801948569E+02  0.14801948569E+02  0.00000000000E+00 0.  1.
         21   -1    0    0  501  502  0.00000000000E+00 -0.00000000000E+00 -0.38045249346E+03  0.38045249346E+03  0.00000000000E+00 0.  1.
         24    2    1    2    0    0 -0.40510243458E+01 -0.32538301422E+02 -0.12114302032E+03  0.14855810758E+03  0.79490427715E+02 0.  0.
        -13    1    3    3    0    0 -0.78876199651E+01 -0.30471968606E+02 -0.44564266904E+01  0.31790173927E+02  0.00000000000E+00 0.  1.
         14    1    3    3    0    0  0.38365956193E+01 -0.20663328162E+01 -0.11668659363E+03  0.11676793365E+03  0.00000000000E+00 0. -1.
         -4    1    1    2    0  502  0.40510243458E+01  0.32538301422E+02 -0.24450752457E+03  0.24669633445E+03  0.00000000000E+00 0.  1.
<mgrwt>
<rscale>  1 0.85987673E+02</rscale>
<asrwt>0</asrwt>
<pdfrwt beam="1">  1       21 0.58531158E-01 0.85987673E+02</pdfrwt>
<pdfrwt beam="2">  1       -3 0.22772227E-02 0.85987673E+02</pdfrwt>
<totfact> 0.96943523E+04</totfact>
</mgrwt>
</event>
<event>
 6    2  0.8544106E+000  0.8215636E+02  0.7546771E-02  0.1323041E+00
         21   -1    0    0  501  502  0.00000000000E+00  0.00000000000E+00  0.38276811965E+01  0.38276811965E+01  0.00000000000E+00 0.  1.
          2   -1    0    0  502    0 -0.00000000000E+00 -0.00000000000E+00 -0.83107322497E+03  0.83107322497E+03  0.00000000000E+00 0. -1.
         24    2    1    2    0    0  0.20117846186E+02 -0.12268602790E+02 -0.73938616141E+03  0.74393653171E+03  0.78704645290E+02 0.  0.
        -11    1    3    3    0    0  0.18930619244E+02  0.10294869886E+02 -0.53477718090E+02  0.57656040647E+02  0.00000000000E+00 0.  1.
         12    1    3    3    0    0  0.11872269414E+01 -0.22563472676E+02 -0.68590844332E+03  0.68628049107E+03  0.00000000000E+00 0. -1.
          1    1    1    2  501    0 -0.20117846186E+02  0.12268602790E+02 -0.87859382368E+02  0.90964374453E+02  0.00000000000E+00 0. -1.
<mgrwt>
<rscale>  1 0.82156360E+02</rscale>
<asrwt>0</asrwt>
<pdfrwt beam="1">  1       21 0.58887365E-03 0.82156360E+02</pdfrwt>
<pdfrwt beam="2">  1        2 0.12785750E+00 0.82156360E+02</pdfrwt>
<totfact> 0.33992164E+06</totfact>
</mgrwt>
</event>
<event>
 6    2  0.8544106E+000  0.8750428E+02  0.7546771E-02  0.1309010E+00
         -1   -1    0    0    0  501 -0.00000000000E+00  0.00000000000E+00  0.79744261493E+02  0.79744261493E+02  0.00000000000E+00 0.  1.
         21   -1    0    0  501  502  0.00000000000E+00 -0.00000000000E+00 -0.50235749634E+02  0.50235749634E+02  0.00000000000E+00 0.  1.
         24    2    1    2    0    0 -0.20323492769E+02  0.29469400294E+02  0.34048940399E+02  0.93895313493E+02  0.79846788549E+02 0.  0.
        -13    1    3    3    0    0 -0.40475896699E+02  0.57577790897E+01  0.45100288353E+02  0.60872705239E+02  0.00000000000E+00 0.  1.
         14    1    3    3    0    0  0.20152403930E+02  0.23711621204E+02 -0.11051347954E+02  0.33022608253E+02  0.00000000000E+00 0. -1.
         -2    1    1    2    0  502  0.20323492769E+02 -0.29469400294E+02 -0.45404285403E+01  0.36084697634E+02  0.00000000000E+00 0.  1.
<mgrwt>
<rscale>  1 0.87504283E+02</rscale>
<asrwt>0</asrwt>
<pdfrwt beam="1">  1       21 0.77285769E-02 0.87504283E+02</pdfrwt>
<pdfrwt beam="2">  1       -1 0.12268348E-01 0.87504283E+02</pdfrwt>
<totfact> 0.47068817E+05</totfact>
</mgrwt>
</event>
<event>
 6    2  0.8544106E+000  0.8680122E+02  0.7546771E-02  0.1310788E+00
          2   -1    0    0  502    0 -0.00000000000E+00  0.00000000000E+00  0.83626408724E+03  0.83626408724E+03  0.00000000000E+00 0. -1.
         21   -1    0    0  501  502  0.00000000000E+00 -0.00000000000E+00 -0.16321956517E+02  0.16321956517E+02  0.00000000000E+00 0. -1.
         24    2    1    2    0    0 -0.18352028056E+02  0.28334165025E+02  0.81362464492E+03  0.81824172155E+03  0.79967682269E+02 0.  0.
        -11    1    3    3    0    0 -0.30862831096E+02 -0.15527567466E+02  0.20326332789E+03  0.20617856378E+03  0.00000000000E+00 0.  1.
         12    1    3    3    0    0  0.12510803040E+02  0.43861732491E+02  0.61036131703E+03  0.61206315777E+03  0.00000000000E+00 0. -1.
          1    1    1    2  501    0  0.18352028056E+02 -0.28334165025E+02  0.63174858002E+01  0.34344322213E+02  0.00000000000E+00 0. -1.
<mgrwt>
<rscale>  1 0.86801221E+02</rscale>
<asrwt>0</asrwt>
<pdfrwt beam="1">  1       21 0.25110709E-02 0.86801221E+02</pdfrwt>
<pdfrwt beam="2">  1        2 0.12865598E+00 0.86801221E+02</pdfrwt>
<totfact> 0.34716674E+05</totfact>
</mgrwt>
</event>
<event>
 6    2  0.8544106E+000  0.8888717E+02  0.7546771E-02  0.1305569E+00
         -1   -1    0    0    0  501 -0.00000000000E+00  0.00000000000E+00  0.26084723920E+03  0.26084723920E+03  0.00000000000E+00 0.  1.
         21   -1    0    0  501  502  0.00000000000E+00 -0.00000000000E+00 -0.15726870089E+02  0.15726870089E+02  0.00000000000E+00 0. -1.
         24    2    1    2    0    0 -0.35312480518E+02 -0.66372483498E+01  0.14361523599E+03  0.16889720185E+03  0.81301318797E+02 0.  0.
        -13    1    3    3    0    0 -0.48959990789E+01 -0.19613537321E+02  0.13246574574E+03  0.13399938600E+03  0.00000000000E+00 0.  1.
         14    1    3    3    0    0 -0.30416481439E+02  0.12976288971E+02  0.11149490255E+02  0.34897815856E+02  0.00000000000E+00 0. -1.
         -2    1    1    2    0  502  0.35312480518E+02  0.66372483498E+01  0.10150513312E+03  0.10767690744E+03  0.00000000000E+00 0.  1.
<mgrwt>
<rscale>  1 0.88887169E+02</rscale>
<asrwt>0</asrwt>
<pdfrwt beam="1">  1       21 0.24195187E-02 0.88887169E+02</pdfrwt>
<pdfrwt beam="2">  1       -1 0.40130341E-01 0.88887169E+02</pdfrwt>
<totfact> 0.47591942E+05</totfact>
</mgrwt>
</event>
<event>
 6    2  0.8544106E+000  0.8363929E+02  0.7546771E-02  0.1319030E+00
          2   -1    0    0  502    0 -0.00000000000E+00  0.00000000000E+00  0.58043707561E+01  0.58043707561E+01  0.00000000000E+00 0. -1.
         21   -1    0    0  501  502  0.00000000000E+00 -0.00000000000E+00 -0.74583524594E+03  0.74583524594E+03  0.00000000000E+00 0. -1.
         24    2    1    2    0    0  0.19789185238E+02 -0.54464290458E+01 -0.30897689358E+03  0.32009725435E+03  0.81081786087E+02 0.  0.
        -11    1    3    3    0    0  0.21759922926E+02 -0.70111829811E+00 -0.31288506311E+03  0.31364159247E+03  0.00000000000E+00 0.  1.
         12    1    3    3    0    0 -0.19707376885E+01 -0.47453107477E+01  0.39081695329E+01  0.64556618737E+01  0.00000000000E+00 0. -1.
          1    1    1    2  501    0 -0.19789185238E+02  0.54464290458E+01 -0.43105398160E+03  0.43154236234E+03  0.00000000000E+00 0. -1.
<mgrwt>
<rscale>  1 0.83639294E+02</rscale>
<asrwt>0</asrwt>
<pdfrwt beam="1">  1       21 0.11474388E+00 0.83639294E+02</pdfrwt>
<pdfrwt beam="2">  1        2 0.89298013E-03 0.83639294E+02</pdfrwt>
<totfact> 0.11357773E+05</totfact>
</mgrwt>
</event>
<event>
 6    2  0.8544106E+000  0.8666643E+02  0.7546771E-02  0.1311131E+00
         21   -1    0    0  501  502  0.00000000000E+00  0.00000000000E+00  0.37013801173E+02  0.37013801173E+02  0.00000000000E+00 0. -1.
          2   -1    0    0  502    0 -0.00000000000E+00 -0.00000000000E+00 -0.20090424397E+03  0.20090424397E+03  0.00000000000E+00 0. -1.
         24    2    1    2    0    0  0.24958737637E+02  0.18517423384E+01 -0.18556754369E+03  0.20480816387E+03  0.82974111527E+02 0.  0.
        -13    1    3    3    0    0 -0.10262019176E+02 -0.28152638109E+00  0.47041456160E+01  0.11292354965E+02  0.00000000000E+00 0.  1.
         14    1    3    3    0    0  0.35220756813E+02  0.21332687195E+01 -0.19027168931E+03  0.19351580891E+03  0.00000000000E+00 0. -1.
          1    1    1    2  501    0 -0.24958737637E+02 -0.18517423384E+01  0.21677100898E+02  0.33109881266E+02  0.00000000000E+00 0. -1.
<mgrwt>
<rscale>  1 0.86666434E+02</rscale>
<asrwt>0</asrwt>
<pdfrwt beam="1">  1       21 0.56944311E-02 0.86666434E+02</pdfrwt>
<pdfrwt beam="2">  1        2 0.30908345E-01 0.86666434E+02</pdfrwt>
<totfact> 0.42597286E+05</totfact>
</mgrwt>
</event>
<event>
 6    2  0.8544106E+000  0.1443171E+03  0.7546771E-02  0.1207635E+00
          2   -1    0    0  502    0 -0.00000000000E+00  0.00000000000E+00  0.69857251215E+03  0.69857251215E+03  0.00000000000E+00 0. -1.
         21   -1    0    0  501  502  0.00000000000E+00 -0.00000000000E+00 -0.30805212287E+02  0.30805212287E+02  0.00000000000E+00 0. -1.
         24    2    1    2    0    0  0.68361663240E+02  0.97695556129E+02  0.51916919579E+03  0.53885440507E+03  0.81299922017E+02 0.  0.
        -11    1    3    3    0    0 -0.31157515006E+00 -0.10833253858E+02  0.14517941826E+02  0.18117039027E+02  0.00000000000E+00 0.  1.
         12    1    3    3    0    0  0.68673238390E+02  0.10852880999E+03  0.50465125396E+03  0.52073736604E+03  0.00000000000E+00 0. -1.
          1    1    1    2  501    0 -0.68361663240E+02 -0.97695556129E+02  0.14859810407E+03  0.19052331937E+03  0.00000000000E+00 0. -1.
<mgrwt>
<rscale>  1 0.14431707E+03</rscale>
<asrwt>0</asrwt>
<pdfrwt beam="1">  1       21 0.47392639E-02 0.14431707E+03</pdfrwt>
<pdfrwt beam="2">  1        2 0.10747268E+00 0.14431707E+03</pdfrwt>
<totfact> 0.15525373E+05</totfact>
</mgrwt>
</event>
<event>
 6    2  0.8544106E+000  0.1041606E+03  0.7546771E-02  0.1271782E+00
         21   -1    0    0  501  502  0.00000000000E+00  0.00000000000E+00  0.27129790744E+02  0.27129790744E+02  0.00000000000E+00 0. -1.
          2   -1    0    0  502    0 -0.00000000000E+00 -0.00000000000E+00 -0.14216969503E+04  0.14216969503E+04  0.00000000000E+00 0. -1.
         24    2    1    2    0    0  0.65550443841E+02 -0.18700881226E+02 -0.13735509078E+04  0.13774946551E+04  0.78758141745E+02 0.  0.
        -13    1    3    3    0    0 -0.42026504560E+01  0.14728302423E+02 -0.70241711465E+02  0.71892163638E+02  0.00000000000E+00 0.  1.
         14    1    3    3    0    0  0.69753094297E+02 -0.33429183649E+02 -0.13033091964E+04  0.13056024915E+04  0.00000000000E+00 0. -1.
          1    1    1    2  501    0 -0.65550443841E+02  0.18700881226E+02 -0.21016251762E+02  0.71332085940E+02  0.00000000000E+00 0. -1.
<mgrwt>
<rscale>  1 0.10416059E+03</rscale>
<asrwt>0</asrwt>
<pdfrwt beam="1">  1       21 0.41738134E-02 0.10416059E+03</pdfrwt>
<pdfrwt beam="2">  1        2 0.21872264E+00 0.10416059E+03</pdfrwt>
<totfact> 0.71021789E+04</totfact>
</mgrwt>
</event>
<event>
 6    2  0.8544106E+000  0.8426701E+02  0.7546771E-02  0.1317361E+00
         -1   -1    0    0    0  501 -0.00000000000E+00  0.00000000000E+00  0.18236204461E+04  0.18236204461E+04  0.00000000000E+00 0.  1.
         21   -1    0    0  501  502  0.00000000000E+00 -0.00000000000E+00 -0.89796416728E+01  0.89796416728E+01  0.00000000000E+00 0.  1.
         24    2    1    2    0    0  0.27228696893E+02  0.27618241624E+01  0.17992081268E+04  0.18011803942E+04  0.79698802233E+02 0.  0.
        -11    1    3    3    0    0 -0.35821763062E-01 -0.20153402211E+01  0.16058317855E+04  0.16058330505E+04  0.00000000000E+00 0.  1.
         12    1    3    3    0    0  0.27264518656E+02  0.47771643835E+01  0.19337634135E+03  0.19534734365E+03  0.00000000000E+00 0. -1.
         -2    1    1    2    0  502 -0.27228696893E+02 -0.27618241624E+01  0.15432677560E+02  0.31419693568E+02  0.00000000000E+00 0.  1.
<mgrwt>
<rscale>  1 0.84267008E+02</rscale>
<asrwt>0</asrwt>
<pdfrwt beam="1">  1       21 0.13814848E-02 0.84267008E+02</pdfrwt>
<pdfrwt beam="2">  1       -1 0.28055670E+00 0.84267008E+02</pdfrwt>
<totfact> 0.11087608E+04</totfact>
</mgrwt>
</event>
<event>
 6    2  0.8544106E+000  0.8438942E+02  0.7546771E-02  0.1317037E+00
          2   -1    0    0  502    0 -0.00000000000E+00  0.00000000000E+00  0.67581199248E+03  0.67581199248E+03  0.00000000000E+00 0. -1.
         21   -1    0    0  501  502  0.00000000000E+00 -0.00000000000E+00 -0.43894468904E+01  0.43894468904E+01  0.00000000000E+00 0.  1.
         24    2    1    2    0    0 -0.10212389748E+02  0.21976188263E+02  0.54187300105E+03  0.54840489068E+03  0.80835197195E+02 0.  0.
        -13    1    3    3    0    0 -0.22342077433E+01  0.29557024867E+02  0.65387417968E+02  0.71792226820E+02  0.00000000000E+00 0.  1.
         14    1    3    3    0    0 -0.79781820044E+01 -0.75808366047E+01  0.47648558308E+03  0.47661266386E+03  0.00000000000E+00 0. -1.
          1    1    1    2  501    0  0.10212389748E+02 -0.21976188263E+02  0.12954954454E+03  0.13179654869E+03  0.00000000000E+00 0. -1.
<mgrwt>
<rscale>  1 0.84389424E+02</rscale>
<asrwt>0</asrwt>
<pdfrwt beam="1">  1       21 0.67530006E-03 0.84389424E+02</pdfrwt>
<pdfrwt beam="2">  1        2 0.10397099E+00 0.84389424E+02</pdfrwt>
<totfact> 0.35325033E+06</totfact>
</mgrwt>
</event>
<event>
 6    2  0.8544106E+000  0.8540582E+02  0.7546771E-02  0.1314375E+00
         21   -1    0    0  501  502  0.00000000000E+00  0.00000000000E+00  0.87026768017E+02  0.87026768017E+02  0.00000000000E+00 0. -1.
          2   -1    0    0  502    0 -0.00000000000E+00 -0.00000000000E+00 -0.10642533485E+04  0.10642533485E+04  0.00000000000E+00 0. -1.
         24    2    1    2    0    0  0.23712709368E+02 -0.16404969132E+02 -0.10600995012E+04  0.10635342528E+04  0.80391161342E+02 0.  0.
        -13    1    3    3    0    0  0.29209929786E+02 -0.32460963777E+02 -0.29199563454E+03  0.29524292499E+03  0.00000000000E+00 0.  1.
         14    1    3    3    0    0 -0.54972204184E+01  0.16055994645E+02 -0.76810386666E+03  0.76829132780E+03  0.00000000000E+00 0. -1.
          1    1    1    2  501    0 -0.23712709368E+02  0.16404969132E+02  0.82872920760E+02  0.87745863681E+02  0.00000000000E+00 0. -1.
<mgrwt>
<rscale>  1 0.85405822E+02</rscale>
<asrwt>0</asrwt>
<pdfrwt beam="1">  1       21 0.13388735E-01 0.85405822E+02</pdfrwt>
<pdfrwt beam="2">  1        2 0.16373127E+00 0.85405822E+02</pdfrwt>
<totfact> 0.15216785E+04</totfact>
</mgrwt>
</event>
<event>
 6    2  0.8544106E+000  0.8539496E+02  0.7546771E-02  0.1314403E+00
          4   -1    0    0  502    0 -0.00000000000E+00  0.00000000000E+00  0.52697658361E+03  0.52697658361E+03  0.00000000000E+00 0. -1.
         21   -1    0    0  501  502  0.00000000000E+00 -0.00000000000E+00 -0.19251546956E+02  0.19251546956E+02  0.00000000000E+00 0. -1.
         24    2    1    2    0    0 -0.19192756971E+02  0.21042705828E+02  0.51051790751E+03  0.51761069679E+03  0.80505541100E+02 0.  0.
        -11    1    3    3    0    0 -0.45981415317E+02  0.36275860433E+00  0.19817759966E+03  0.20344233373E+03  0.00000000000E+00 0.  1.
         12    1    3    3    0    0  0.26788658346E+02  0.20679947224E+02  0.31234030785E+03  0.31416836305E+03  0.00000000000E+00 0. -1.
          3    1    1    2  501    0  0.19192756971E+02 -0.21042705828E+02 -0.27928708545E+01  0.28617433783E+02  0.00000000000E+00 0. -1.
<mgrwt>
<rscale>  1 0.85394962E+02</rscale>
<asrwt>0</asrwt>
<pdfrwt beam="1">  1       21 0.29617769E-02 0.85394962E+02</pdfrwt>
<pdfrwt beam="2">  1        4 0.81073309E-01 0.85394962E+02</pdfrwt>
<totfact> 0.33883650E+04</totfact>
</mgrwt>
</event>
<event>
 6    2  0.8544106E+000  0.8887961E+02  0.7546771E-02  0.1305588E+00
          2   -1    0    0  502    0 -0.00000000000E+00  0.00000000000E+00  0.76707749914E+03  0.76707749914E+03  0.00000000000E+00 0. -1.
         21   -1    0    0  501  502  0.00000000000E+00 -0.00000000000E+00 -0.38825231531E+02  0.38825231531E+02  0.00000000000E+00 0. -1.
         24    2    1    2    0    0 -0.19207055188E+01 -0.32183284245E+02  0.75730530403E+03  0.76250305533E+03  0.82825919781E+02 0.  0.
        -11    1    3    3    0    0  0.17471810371E+02  0.21062798759E+02  0.37785272377E+03  0.37884242965E+03  0.00000000000E+00 0.  1.
         12    1    3    3    0    0 -0.19392515890E+02 -0.53246083005E+02  0.37945258027E+03  0.38366062568E+03  0.00000000000E+00 0. -1.
          1    1    1    2  501    0  0.19207055188E+01  0.32183284245E+02 -0.29053036418E+02  0.43399675340E+02  0.00000000000E+00 0. -1.
<mgrwt>
<rscale>  1 0.88879615E+02</rscale>
<asrwt>0</asrwt>
<pdfrwt beam="1">  1       21 0.59731131E-02 0.88879615E+02</pdfrwt>
<pdfrwt beam="2">  1        2 0.11801191E+00 0.88879615E+02</pdfrwt>
<totfact> 0.92935788E+04</totfact>
</mgrwt>
</event>
<event>
 6    2  0.8544106E+000  0.8754530E+02  0.7546771E-02  0.1308907E+00
         21   -1    0    0  501  502  0.00000000000E+00  0.00000000000E+00  0.22749920164E+02  0.22749920164E+02  0.00000000000E+00 0.  1.
          2   -1    0    0  502    0 -0.00000000000E+00 -0.00000000000E+00 -0.18853556835E+03  0.18853556835E+03  0.00000000000E+00 0. -1.
         24    2    1    2    0    0 -0.24602224185E+02  0.30596513134E+02 -0.13707818398E+03  0.16264872719E+03  0.78248091884E+02 0.  0.
        -11    1    3    3    0    0 -0.11919299769E+02  0.10057164943E+01  0.77714142491E+01  0.14264503219E+02  0.00000000000E+00 0.  1.
         12    1    3    3    0    0 -0.12682924416E+02  0.29590796640E+02 -0.14484959823E+03  0.14838422397E+03  0.00000000000E+00 0. -1.
          1    1    1    2  501    0  0.24602224185E+02 -0.30596513134E+02 -0.28707464213E+02  0.48636761327E+02  0.00000000000E+00 0. -1.
<mgrwt>
<rscale>  1 0.87545302E+02</rscale>
<asrwt>0</asrwt>
<pdfrwt beam="1">  1       21 0.34999876E-02 0.87545302E+02</pdfrwt>
<pdfrwt beam="2">  1        2 0.29005473E-01 0.87545302E+02</pdfrwt>
<totfact> 0.10205786E+06</totfact>
</mgrwt>
</event>
<event>
 6    2  0.8544106E+000  0.8759917E+02  0.7546771E-02  0.1308772E+00
         21   -1    0    0  501  502  0.00000000000E+00  0.00000000000E+00  0.56191629198E+01  0.56191629198E+01  0.00000000000E+00 0. -1.
          2   -1    0    0  502    0 -0.00000000000E+00 -0.00000000000E+00 -0.92554845023E+03  0.92554845023E+03  0.00000000000E+00 0. -1.
         24    2    1    2    0    0 -0.31985220913E+02 -0.97724916679E+01 -0.37024386076E+03  0.38046567552E+03  0.80963311853E+02 0.  0.
        -13    1    3    3    0    0  0.24721115090E+02 -0.40593541872E+01 -0.59833120015E+02  0.64866124738E+02  0.00000000000E+00 0.  1.
         14    1    3    3    0    0 -0.56706336003E+02 -0.57131374808E+01 -0.31041074075E+03  0.31559955078E+03  0.00000000000E+00 0. -1.
          1    1    1    2  501    0  0.31985220913E+02  0.97724916679E+01 -0.54968542655E+03  0.55070193763E+03  0.00000000000E+00 0. -1.
<mgrwt>
<rscale>  1 0.87599166E+02</rscale>
<asrwt>0</asrwt>
<pdfrwt beam="1">  1       21 0.86448766E-03 0.87599166E+02</pdfrwt>
<pdfrwt beam="2">  1        2 0.14239190E+00 0.87599166E+02</pdfrwt>
<totfact> 0.16503870E+06</totfact>
</mgrwt>
</event>
<event>
 6    2  0.8544106E+000  0.8237836E+02  0.7546771E-02  0.1322434E+00
         21   -1    0    0  501  502  0.00000000000E+00  0.00000000000E+00  0.16646668996E+01  0.16646668996E+01  0.00000000000E+00 0.  1.
          2   -1    0    0  502    0 -0.00000000000E+00 -0.00000000000E+00 -0.17133348573E+04  0.17133348573E+04  0.00000000000E+00 0. -1.
         24    2    1    2    0    0 -0.22693608124E+02  0.16038627158E+01 -0.14518538464E+04  0.14541890474E+04  0.79174629127E+02 0.  0.
        -11    1    3    3    0    0 -0.47745624454E+02 -0.16225662361E+02 -0.77662767906E+03  0.77826311018E+03  0.00000000000E+00 0.  1.
         12    1    3    3    0    0  0.25052016330E+02  0.17829525077E+02 -0.67522616738E+03  0.67592593721E+03  0.00000000000E+00 0. -1.
          1    1    1    2  501    0  0.22693608124E+02 -0.16038627158E+01 -0.25981634395E+03  0.26081047680E+03  0.00000000000E+00 0. -1.
<mgrwt>
<rscale>  1 0.82378360E+02</rscale>
<asrwt>0</asrwt>
<pdfrwt beam="1">  1       21 0.25610306E-03 0.82378360E+02</pdfrwt>
<pdfrwt beam="2">  1        2 0.26358950E+00 0.82378360E+02</pdfrwt>
<totfact> 0.39961029E+06</totfact>
</mgrwt>
</event>
<event>
 6    2  0.8544106E+000  0.9800827E+02  0.7546771E-02  0.1284541E+00
          2   -1    0    0  502    0 -0.00000000000E+00  0.00000000000E+00  0.16317246417E+03  0.16317246417E+03  0.00000000000E+00 0. -1.
         21   -1    0    0  501  502  0.00000000000E+00 -0.00000000000E+00 -0.54890901021E+02  0.54890901021E+02  0.00000000000E+00 0. -1.
         24    2    1    2    0    0  0.54624044779E+02 -0.51806289475E+01  0.12670235525E+03  0.16018460600E+03  0.81209580660E+02 0.  0.
        -11    1    3    3    0    0  0.43607784810E+02  0.32352945487E+02  0.48766776158E+02  0.72983220226E+02  0.00000000000E+00 0.  1.
         12    1    3    3    0    0  0.11016259969E+02 -0.37533574434E+02  0.77935579088E+02  0.87201385776E+02  0.00000000000E+00 0. -1.
          1    1    1    2  501    0 -0.54624044779E+02  0.51806289475E+01 -0.18420792094E+02  0.57878759192E+02  0.00000000000E+00 0. -1.
<mgrwt>
<rscale>  1 0.98008271E+02</rscale>
<asrwt>0</asrwt>
<pdfrwt beam="1">  1       21 0.84447540E-02 0.98008271E+02</pdfrwt>
<pdfrwt beam="2">  1        2 0.25103456E-01 0.98008271E+02</pdfrwt>
<totfact> 0.27593327E+05</totfact>
</mgrwt>
</event>
<event>
 6    2  0.8544106E+000  0.8553033E+02  0.7546771E-02  0.1314051E+00
          2   -1    0    0  502    0 -0.00000000000E+00  0.00000000000E+00  0.23841674977E+04  0.23841674977E+04  0.00000000000E+00 0. -1.
         21   -1    0    0  501  502  0.00000000000E+00 -0.00000000000E+00 -0.16332894927E+01  0.16332894927E+01  0.00000000000E+00 0.  1.
         24    2    1    2    0    0 -0.23284750590E+02  0.19330071110E+02  0.12816708100E+04  0.12845215071E+04  0.79997535748E+02 0.  0.
        -13    1    3    3    0    0 -0.17294661547E+02  0.31847088169E+02  0.23666848584E+03  0.23942705473E+03  0.00000000000E+00 0.  1.
         14    1    3    3    0    0 -0.59900890432E+01 -0.12517017060E+02  0.10450023242E+04  0.10450944524E+04  0.00000000000E+00 0. -1.
          1    1    1    2  501    0  0.23284750590E+02 -0.19330071110E+02  0.11008633982E+04  0.11012792801E+04  0.00000000000E+00 0. -1.
<mgrwt>
<rscale>  1 0.85530328E+02</rscale>
<asrwt>0</asrwt>
<pdfrwt beam="1">  1       21 0.25127721E-03 0.85530328E+02</pdfrwt>
<pdfrwt beam="2">  1        2 0.36679222E+00 0.85530328E+02</pdfrwt>
<totfact> 0.18932280E+06</totfact>
</mgrwt>
</event>
<event>
 6    2  0.8544106E+000  0.8601767E+02  0.7546771E-02  0.1312792E+00
         21   -1    0    0  501  502  0.00000000000E+00  0.00000000000E+00  0.64428534762E+01  0.64428534762E+01  0.00000000000E+00 0. -1.
          2   -1    0    0  502    0 -0.00000000000E+00 -0.00000000000E+00 -0.55541264007E+03  0.55541264007E+03  0.00000000000E+00 0. -1.
         24    2    1    2    0    0 -0.26408406427E+02 -0.19553685985E+02 -0.42404241754E+03  0.43267887761E+03  0.79493953810E+02 0.  0.
        -13    1    3    3    0    0  0.12718303043E+02  0.21486748958E+02 -0.20086051284E+03  0.20240647527E+03  0.00000000000E+00 0.  1.
         14    1    3    3    0    0 -0.39126709470E+02 -0.41040434943E+02 -0.22318190470E+03  0.23027240234E+03  0.00000000000E+00 0. -1.
          1    1    1    2  501    0  0.26408406427E+02  0.19553685985E+02 -0.12492736905E+03  0.12917661593E+03  0.00000000000E+00 0. -1.
<mgrwt>
<rscale>  1 0.86017668E+02</rscale>
<asrwt>0</asrwt>
<pdfrwt beam="1">  1       21 0.99120789E-03 0.86017668E+02</pdfrwt>
<pdfrwt beam="2">  1        2 0.85448127E-01 0.86017668E+02</pdfrwt>
<totfact> 0.24330167E+06</totfact>
</mgrwt>
</event>
<event>
 6    2  0.8544106E+000  0.8520923E+02  0.7546771E-02  0.1314886E+00
         21   -1    0    0  501  502  0.00000000000E+00  0.00000000000E+00  0.60571441239E+02  0.60571441239E+02  0.00000000000E+00 0. -1.
          2   -1    0    0  502    0 -0.00000000000E+00 -0.00000000000E+00 -0.36325173911E+03  0.36325173911E+03  0.00000000000E+00 0. -1.
         24    2    1    2    0    0 -0.98783915482E+01  0.28501516496E+02 -0.35410032973E+03  0.36420825991E+03  0.79691241761E+02 0.  0.
        -11    1    3    3    0    0  0.15521960901E+02  0.59083099458E+01 -0.12164512564E+02  0.20586761828E+02  0.00000000000E+00 0.  1.
         12    1    3    3    0    0 -0.25400352450E+02  0.22593206550E+02 -0.34193581716E+03  0.34362149808E+03  0.00000000000E+00 0. -1.
          1    1    1    2  501    0  0.98783915482E+01 -0.28501516496E+02  0.51420031858E+02  0.59614920434E+02  0.00000000000E+00 0. -1.
<mgrwt>
<rscale>  1 0.85209231E+02</rscale>
<asrwt>0</asrwt>
<pdfrwt beam="1">  1       21 0.93186836E-02 0.85209231E+02</pdfrwt>
<pdfrwt beam="2">  1        2 0.55884881E-01 0.85209231E+02</pdfrwt>
<totfact> 0.99133774E+04</totfact>
</mgrwt>
</event>
<event>
 6    2  0.8544106E+000  0.8371443E+02  0.7546771E-02  0.1318829E+00
          2   -1    0    0  502    0 -0.00000000000E+00  0.00000000000E+00  0.51788632483E+02  0.51788632483E+02  0.00000000000E+00 0. -1.
         21   -1    0    0  501  502  0.00000000000E+00 -0.00000000000E+00 -0.22708846716E+03  0.22708846716E+03  0.00000000000E+00 0. -1.
         24    2    1    2    0    0 -0.26909781124E+02  0.81644776600E+01  0.16247510021E+02  0.85276530749E+02  0.78849921364E+02 0.  0.
        -11    1    3    3    0    0  0.69156453251E+01 -0.22279926149E+02 -0.17043436770E+02  0.28891175061E+02  0.00000000000E+00 0.  1.
         12    1    3    3    0    0 -0.33825426449E+02  0.30444403809E+02  0.33290946791E+02  0.56385355687E+02  0.00000000000E+00 0. -1.
          1    1    1    2  501    0  0.26909781124E+02 -0.81644776600E+01 -0.19154734470E+03  0.19360056889E+03  0.00000000000E+00 0. -1.
<mgrwt>
<rscale>  1 0.83714426E+02</rscale>
<asrwt>0</asrwt>
<pdfrwt beam="1">  1       21 0.34936687E-01 0.83714426E+02</pdfrwt>
<pdfrwt beam="2">  1        2 0.79674821E-02 0.83714426E+02</pdfrwt>
<totfact> 0.79211379E+04</totfact>
</mgrwt>
</event>
<event>
 6    2  0.8544106E+000  0.8689056E+02  0.7546771E-02  0.1310561E+00
          2   -1    0    0  502    0 -0.00000000000E+00  0.00000000000E+00  0.55595910997E+03  0.55595910997E+03  0.00000000000E+00 0. -1.
         21   -1    0    0  501  502  0.00000000000E+00 -0.00000000000E+00 -0.68021545627E+01  0.68021545627E+01  0.00000000000E+00 0.  1.
         24    2    1    2    0    0  0.23287602440E+02  0.22329939910E+02  0.45520992115E+03  0.46342857158E+03  0.80678559716E+02 0.  0.
        -11    1    3    3    0    0  0.21032694682E+02  0.53406027239E+01  0.25953556147E+02  0.33830213711E+02  0.00000000000E+00 0.  1.
         12    1    3    3    0    0  0.22549077584E+01  0.16989337186E+02  0.42925636500E+03  0.42959835787E+03  0.00000000000E+00 0. -1.
          1    1    1    2  501    0 -0.23287602440E+02 -0.22329939910E+02  0.93947034253E+02  0.99332692950E+02  0.00000000000E+00 0. -1.
<mgrwt>
<rscale>  1 0.86890556E+02</rscale>
<asrwt>0</asrwt>
<pdfrwt beam="1">  1       21 0.10464858E-02 0.86890556E+02</pdfrwt>
<pdfrwt beam="2">  1        2 0.85532135E-01 0.86890556E+02</pdfrwt>
<totfact> 0.22354886E+06</totfact>
</mgrwt>
</event>
<event>
 6    2  0.8544106E+000  0.8562025E+02  0.7546771E-02  0.1313818E+00
         21   -1    0    0  501  502  0.00000000000E+00  0.00000000000E+00  0.31474602626E+01  0.31474602626E+01  0.00000000000E+00 0.  1.
          2   -1    0    0  502    0 -0.00000000000E+00 -0.00000000000E+00 -0.12269306497E+04  0.12269306497E+04  0.00000000000E+00 0. -1.
         24    2    1    2    0    0 -0.26250406109E+02 -0.71435043450E+01 -0.64527571042E+03  0.65093130927E+03  0.81183209179E+02 0.  0.
        -11    1    3    3    0    0 -0.55094487761E+02 -0.40230647757E+01 -0.36476149492E+03  0.36892077172E+03  0.00000000000E+00 0.  1.
         12    1    3    3    0    0  0.28844081652E+02 -0.31204395693E+01 -0.28051421550E+03  0.28201053755E+03  0.00000000000E+00 0. -1.
          1    1    1    2  501    0  0.26250406109E+02  0.71435043450E+01 -0.57850747897E+03  0.57914680064E+03  0.00000000000E+00 0. -1.
<mgrwt>
<rscale>  1 0.85620248E+02</rscale>
<asrwt>0</asrwt>
<pdfrwt beam="1">  1       21 0.48422560E-03 0.85620248E+02</pdfrwt>
<pdfrwt beam="2">  1        2 0.18875820E+00 0.85620248E+02</pdfrwt>
<totfact> 0.27135112E+06</totfact>
</mgrwt>
</event>
<event>
 6    2  0.8544106E+000  0.9301330E+02  0.7546771E-02  0.1295714E+00
         21   -1    0    0  501  502  0.00000000000E+00  0.00000000000E+00  0.51772989753E+02  0.51772989753E+02  0.00000000000E+00 0. -1.
          4   -1    0    0  502    0 -0.00000000000E+00 -0.00000000000E+00 -0.13559363999E+03  0.13559363999E+03  0.00000000000E+00 0. -1.
         24    2    1    2    0    0  0.86195441293E+01 -0.43259146004E+02 -0.10342407321E+03  0.13909713165E+03  0.81889088780E+02 0.  0.
        -11    1    3    3    0    0 -0.13894290770E+02  0.12418926683E+01  0.86595109407E+01  0.16418914189E+02  0.00000000000E+00 0.  1.
         12    1    3    3    0    0  0.22513834899E+02 -0.44501038672E+02 -0.11208358415E+03  0.12267821746E+03  0.00000000000E+00 0. -1.
          3    1    1    2  501    0 -0.86195441293E+01  0.43259146004E+02  0.19603422968E+02  0.48269498092E+02  0.00000000000E+00 0. -1.
<mgrwt>
<rscale>  1 0.93013295E+02</rscale>
<asrwt>0</asrwt>
<pdfrwt beam="1">  1       21 0.79650755E-02 0.93013295E+02</pdfrwt>
<pdfrwt beam="2">  1        4 0.20860560E-01 0.93013295E+02</pdfrwt>
<totfact> 0.96071229E+04</totfact>
</mgrwt>
</event>
<event>
 6    2  0.8544106E+000  0.8727723E+02  0.7546771E-02  0.1309583E+00
         21   -1    0    0  501  502  0.00000000000E+00  0.00000000000E+00  0.15542924183E+02  0.15542924183E+02  0.00000000000E+00 0.  1.
          2   -1    0    0  502    0 -0.00000000000E+00 -0.00000000000E+00 -0.26564154176E+03  0.26564154176E+03  0.00000000000E+00 0. -1.
         24    2    1    2    0    0 -0.28043057320E+02 -0.10125050578E+02 -0.12417029482E+03  0.15177475925E+03  0.82026737820E+02 0.  0.
        -13    1    3    3    0    0 -0.56313895427E+02 -0.13401177388E+02 -0.72388799697E+02  0.92687564944E+02  0.00000000000E+00 0.  1.
         14    1    3    3    0    0  0.28270838108E+02  0.32761268098E+01 -0.51781495120E+02  0.59087194307E+02  0.00000000000E+00 0. -1.
          1    1    1    2  501    0  0.28043057320E+02  0.10125050578E+02 -0.12592832276E+03  0.12940970669E+03  0.00000000000E+00 0. -1.
<mgrwt>
<rscale>  1 0.87277233E+02</rscale>
<asrwt>0</asrwt>
<pdfrwt beam="1">  1       21 0.23912192E-02 0.87277233E+02</pdfrwt>
<pdfrwt beam="2">  1        2 0.40867929E-01 0.87277233E+02</pdfrwt>
<totfact> 0.13169753E+06</totfact>
</mgrwt>
</event>
<event>
 6    2  0.8544106E+000  0.9439255E+02  0.7546771E-02  0.1292550E+00
         21   -1    0    0  501  502  0.00000000000E+00  0.00000000000E+00  0.24490497141E+03  0.24490497141E+03  0.00000000000E+00 0. -1.
          2   -1    0    0  502    0 -0.00000000000E+00 -0.00000000000E+00 -0.34347216611E+02  0.34347216611E+02  0.00000000000E+00 0. -1.
         24    2    1    2    0    0  0.47294689990E+02  0.76189980543E+01  0.40743641705E+02  0.10281049839E+03  0.81333372042E+02 0.  0.
        -13    1    3    3    0    0 -0.22924766136E+02 -0.38217219610E+01  0.95319797520E+01  0.25119894489E+02  0.00000000000E+00 0.  1.
         14    1    3    3    0    0  0.70219456126E+02  0.11440720015E+02  0.31211661953E+02  0.77690603904E+02  0.00000000000E+00 0. -1.
          1    1    1    2  501    0 -0.47294689990E+02 -0.76189980543E+01  0.16981411310E+03  0.17644168963E+03  0.00000000000E+00 0. -1.
<mgrwt>
<rscale>  1 0.94392554E+02</rscale>
<asrwt>0</asrwt>
<pdfrwt beam="1">  1       21 0.37677687E-01 0.94392554E+02</pdfrwt>
<pdfrwt beam="2">  1        2 0.52841873E-02 0.94392554E+02</pdfrwt>
<totfact> 0.11546653E+05</totfact>
</mgrwt>
</event>
<event>
 6    2  0.8544106E+000  0.9917235E+02  0.7546771E-02  0.1282046E+00
          2   -1    0    0  502    0 -0.00000000000E+00  0.00000000000E+00  0.10584052682E+03  0.10584052682E+03  0.00000000000E+00 0. -1.
         21   -1    0    0  501  502  0.00000000000E+00 -0.00000000000E+00 -0.72379252582E+02  0.72379252582E+02  0.00000000000E+00 0.  1.
         24    2    1    2    0    0 -0.57987756579E+02 -0.77799384956E+01  0.57873420186E+02  0.11482372096E+03  0.80075256949E+02 0.  0.
        -13    1    3    3    0    0 -0.78032620551E+02 -0.10994880920E+02  0.47710036182E+02  0.92120707927E+02  0.00000000000E+00 0.  1.
         14    1    3    3    0    0  0.20044863972E+02  0.32149424248E+01  0.10163384004E+02  0.22703013035E+02  0.00000000000E+00 0. -1.
          1    1    1    2  501    0  0.57987756579E+02  0.77799384956E+01 -0.24412145947E+02  0.63396058440E+02  0.00000000000E+00 0. -1.
<mgrwt>
<rscale>  1 0.99172346E+02</rscale>
<asrwt>0</asrwt>
<pdfrwt beam="1">  1       21 0.11135270E-01 0.99172346E+02</pdfrwt>
<pdfrwt beam="2">  1        2 0.16283158E-01 0.99172346E+02</pdfrwt>
<totfact> 0.27751269E+05</totfact>
</mgrwt>
</event>
<event>
 6    2  0.8544106E+000  0.8601380E+02  0.7546771E-02  0.1312802E+00
          2   -1    0    0  502    0 -0.00000000000E+00  0.00000000000E+00  0.15892525194E+04  0.15892525194E+04  0.00000000000E+00 0. -1.
         21   -1    0    0  501  502  0.00000000000E+00 -0.00000000000E+00 -0.61599124139E+01  0.61599124139E+01  0.00000000000E+00 0. -1.
         24    2    1    2    0    0  0.22110061717E+02 -0.26496012174E+02  0.15279007394E+04  0.15303199151E+04  0.78787558987E+02 0.  0.
        -11    1    3    3    0    0 -0.66934792659E+01  0.22006657001E+02  0.76088301703E+03  0.76123062289E+03  0.00000000000E+00 0.  1.
         12    1    3    3    0    0  0.28803540982E+02 -0.48502669175E+02  0.76701772240E+03  0.76908929219E+03  0.00000000000E+00 0. -1.
          1    1    1    2  501    0 -0.22110061717E+02  0.26496012174E+02  0.55191867551E+02  0.65092516728E+02  0.00000000000E+00 0. -1.
<mgrwt>
<rscale>  1 0.86013795E+02</rscale>
<asrwt>0</asrwt>
<pdfrwt beam="1">  1       21 0.94768010E-03 0.86013795E+02</pdfrwt>
<pdfrwt beam="2">  1        2 0.24450006E+00 0.86013795E+02</pdfrwt>
<totfact> 0.62510348E+05</totfact>
</mgrwt>
</event>
<event>
 6    2  0.8544106E+000  0.8303826E+02  0.7546771E-02  0.1320644E+00
         -1   -1    0    0    0  501 -0.00000000000E+00  0.00000000000E+00  0.35073820900E+01  0.35073820900E+01  0.00000000000E+00 0.  1.
         21   -1    0    0  501  502  0.00000000000E+00 -0.00000000000E+00 -0.10814466996E+04  0.10814466996E+04  0.00000000000E+00 0. -1.
         24    2    1    2    0    0  0.60086379974E+01 -0.21666511304E+02 -0.52227630150E+03  0.52883635242E+03  0.79936293971E+02 0.  0.
        -13    1    3    3    0    0 -0.26047996688E+02 -0.26761828018E+02 -0.13109396236E+03  0.13630964946E+03  0.00000000000E+00 0.  1.
         14    1    3    3    0    0  0.32056634686E+02  0.50953167135E+01 -0.39118233914E+03  0.39252670296E+03  0.00000000000E+00 0. -1.
         -2    1    1    2    0  502 -0.60086379974E+01  0.21666511304E+02 -0.55566301602E+03  0.55611772927E+03  0.00000000000E+00 0.  1.
<mgrwt>
<rscale>  1 0.83038259E+02</rscale>
<asrwt>0</asrwt>
<pdfrwt beam="1">  1       21 0.16637627E+00 0.83038259E+02</pdfrwt>
<pdfrwt beam="2">  1       -1 0.53959771E-03 0.83038259E+02</pdfrwt>
<totfact> 0.87608101E+04</totfact>
</mgrwt>
</event>
<event>
 6    2  0.8544106E+000  0.9503890E+02  0.7546771E-02  0.1291088E+00
         21   -1    0    0  501  502  0.00000000000E+00  0.00000000000E+00  0.19089766103E+03  0.19089766103E+03  0.00000000000E+00 0. -1.
         -1   -1    0    0    0  501 -0.00000000000E+00 -0.00000000000E+00 -0.56468223696E+02  0.56468223696E+02  0.00000000000E+00 0.  1.
         24    2    1    2    0    0  0.39100110078E+02  0.31945198125E+02 -0.88503296453E+01  0.95450099118E+02  0.80517568240E+02 0.  0.
        -11    1    3    3    0    0 -0.17836855420E+02  0.31128596570E+02 -0.13465572472E+02  0.38320550331E+02  0.00000000000E+00 0.  1.
         12    1    3    3    0    0  0.56936965498E+02  0.81660155566E+00  0.46152428272E+01  0.57129548787E+02  0.00000000000E+00 0. -1.
         -2    1    1    2    0  502 -0.39100110078E+02 -0.31945198125E+02  0.14327976698E+03  0.15191578561E+03  0.00000000000E+00 0.  1.
<mgrwt>
<rscale>  1 0.95038903E+02</rscale>
<asrwt>0</asrwt>
<pdfrwt beam="1">  1       21 0.29368871E-01 0.95038903E+02</pdfrwt>
<pdfrwt beam="2">  1       -1 0.86874191E-02 0.95038903E+02</pdfrwt>
<totfact> 0.72960090E+04</totfact>
</mgrwt>
</event>
<event>
 6    2  0.8544106E+000  0.8267425E+02  0.7546771E-02  0.1321629E+00
         21   -1    0    0  501  502  0.00000000000E+00  0.00000000000E+00  0.75196521282E+02  0.75196521282E+02  0.00000000000E+00 0. -1.
         -1   -1    0    0    0  501 -0.00000000000E+00 -0.00000000000E+00 -0.35680985975E+02  0.35680985975E+02  0.00000000000E+00 0.  1.
         24    2    1    2    0    0  0.17795775271E+02 -0.10262643738E+02  0.35359281311E+02  0.89918358390E+02  0.80081339442E+02 0.  0.
        -13    1    3    3    0    0  0.41643709405E+02 -0.26031141064E+02  0.69248768201E+01  0.49596096187E+02  0.00000000000E+00 0.  1.
         14    1    3    3    0    0 -0.23847934134E+02  0.15768497326E+02  0.28434404491E+02  0.40322262203E+02  0.00000000000E+00 0. -1.
         -2    1    1    2    0  502 -0.17795775271E+02  0.10262643738E+02  0.41562539965E+01  0.20959148867E+02  0.00000000000E+00 0.  1.
<mgrwt>
<rscale>  1 0.82674255E+02</rscale>
<asrwt>0</asrwt>
<pdfrwt beam="1">  1       21 0.11568696E-01 0.82674255E+02</pdfrwt>
<pdfrwt beam="2">  1       -1 0.54893825E-02 0.82674255E+02</pdfrwt>
<totfact> 0.77488783E+05</totfact>
</mgrwt>
</event>
<event>
 6    2  0.8544106E+000  0.1928367E+03  0.7546771E-02  0.1155927E+00
          2   -1    0    0  502    0 -0.00000000000E+00  0.00000000000E+00  0.12990253473E+04  0.12990253473E+04  0.00000000000E+00 0. -1.
         21   -1    0    0  501  502  0.00000000000E+00 -0.00000000000E+00 -0.28017019713E+02  0.28017019713E+02  0.00000000000E+00 0. -1.
         24    2    1    2    0    0 -0.58303641266E+02  0.16510070969E+03  0.48850017725E+03  0.52518417240E+03  0.80798718057E+02 0.  0.
        -11    1    3    3    0    0 -0.30920342866E+02  0.79550043013E+01  0.10746402359E+03  0.11210649429E+03  0.00000000000E+00 0.  1.
         12    1    3    3    0    0 -0.27383298399E+02  0.15714570539E+03  0.38103615367E+03  0.41307767811E+03  0.00000000000E+00 0. -1.
          1    1    1    2  501    0  0.58303641266E+02 -0.16510070969E+03  0.78250815038E+03  0.80185819466E+03  0.00000000000E+00 0. -1.
<mgrwt>
<rscale>  1 0.19283670E+03</rscale>
<asrwt>0</asrwt>
<pdfrwt beam="1">  1       21 0.43103117E-02 0.19283670E+03</pdfrwt>
<pdfrwt beam="2">  1        2 0.19985001E+00 0.19283670E+03</pdfrwt>
<totfact> 0.77784273E+04</totfact>
</mgrwt>
</event>
<event>
 6    2  0.8544106E+000  0.9182480E+02  0.7546771E-02  0.1298492E+00
          2   -1    0    0  502    0 -0.00000000000E+00  0.00000000000E+00  0.15807252657E+04  0.15807252657E+04  0.00000000000E+00 0. -1.
         21   -1    0    0  501  502  0.00000000000E+00 -0.00000000000E+00 -0.38894646432E+01  0.38894646432E+01  0.00000000000E+00 0. -1.
         24    2    1    2    0    0 -0.23593660680E+02  0.38118205701E+02  0.62348886566E+03  0.63021437532E+03  0.80138223296E+02 0.  0.
        -11    1    3    3    0    0 -0.48358917463E+02  0.28842589596E+01  0.30398387259E+03  0.30781991269E+03  0.00000000000E+00 0.  1.
         12    1    3    3    0    0  0.24765256783E+02  0.35233946741E+02  0.31950499306E+03  0.32239446264E+03  0.00000000000E+00 0. -1.
          1    1    1    2  501    0  0.23593660680E+02 -0.38118205701E+02  0.95334693541E+03  0.95440035503E+03  0.00000000000E+00 0. -1.
<mgrwt>
<rscale>  1 0.91824797E+02</rscale>
<asrwt>0</asrwt>
<pdfrwt beam="1">  1       21 0.59838044E-03 0.91824797E+02</pdfrwt>
<pdfrwt beam="2">  1        2 0.24318799E+00 0.91824797E+02</pdfrwt>
<totfact> 0.12920577E+06</totfact>
</mgrwt>
</event>
<event>
 6    2  0.8544106E+000  0.8403543E+02  0.7546771E-02  0.1317974E+00
          2   -1    0    0  502    0 -0.00000000000E+00  0.00000000000E+00  0.80119909653E+03  0.80119909653E+03  0.00000000000E+00 0. -1.
         21   -1    0    0  501  502  0.00000000000E+00 -0.00000000000E+00 -0.40258645372E+01  0.40258645372E+01  0.00000000000E+00 0. -1.
         24    2    1    2    0    0  0.20348111967E+02  0.13306267811E+02  0.70130304048E+03  0.70631997614E+03  0.80441604146E+02 0.  0.
        -11    1    3    3    0    0 -0.56844572001E+01 -0.72872992665E+01  0.80025000523E+01  0.12225293099E+02  0.00000000000E+00 0.  1.
         12    1    3    3    0    0  0.26032569167E+02  0.20593567077E+02  0.69330054043E+03  0.69409468304E+03  0.00000000000E+00 0. -1.
          1    1    1    2  501    0 -0.20348111967E+02 -0.13306267811E+02  0.95870191512E+02  0.98904984931E+02  0.00000000000E+00 0. -1.
<mgrwt>
<rscale>  1 0.84035434E+02</rscale>
<asrwt>0</asrwt>
<pdfrwt beam="1">  1       21 0.61936441E-03 0.84035434E+02</pdfrwt>
<pdfrwt beam="2">  1        2 0.12326127E+00 0.84035434E+02</pdfrwt>
<totfact> 0.32985515E+06</totfact>
</mgrwt>
</event>
<event>
 6    2  0.8544106E+000  0.1051206E+03  0.7546771E-02  0.1269882E+00
          2   -1    0    0  502    0 -0.00000000000E+00  0.00000000000E+00  0.11191308961E+04  0.11191308961E+04  0.00000000000E+00 0. -1.
         21   -1    0    0  501  502  0.00000000000E+00 -0.00000000000E+00 -0.73232760671E+01  0.73232760671E+01  0.00000000000E+00 0. -1.
         24    2    1    2    0    0 -0.11779735224E+02 -0.67693534715E+02  0.81756842209E+03  0.82429877769E+03  0.79556101608E+02 0.  0.
        -11    1    3    3    0    0 -0.74092940902E+01 -0.59305080192E+01  0.81328179629E+01  0.12498451596E+02  0.00000000000E+00 0.  1.
         12    1    3    3    0    0 -0.43704411336E+01 -0.61763026696E+02  0.80943560413E+03  0.81180032610E+03  0.00000000000E+00 0. -1.
          1    1    1    2  501    0  0.11779735224E+02  0.67693534715E+02  0.29423919796E+03  0.30215539449E+03  0.00000000000E+00 0. -1.
<mgrwt>
<rscale>  1 0.10512065E+03</rscale>
<asrwt>0</asrwt>
<pdfrwt beam="1">  1       21 0.11266587E-02 0.10512065E+03</pdfrwt>
<pdfrwt beam="2">  1        2 0.17217385E+00 0.10512065E+03</pdfrwt>
<totfact> 0.85319793E+05</totfact>
</mgrwt>
</event>
<event>
 6    2  0.8544106E+000  0.9177159E+02  0.7546771E-02  0.1298617E+00
         21   -1    0    0  501  502  0.00000000000E+00  0.00000000000E+00  0.54760707382E+02  0.54760707382E+02  0.00000000000E+00 0.  1.
          2   -1    0    0  502    0 -0.00000000000E+00 -0.00000000000E+00 -0.88425203321E+02  0.88425203321E+02  0.00000000000E+00 0. -1.
         24    2    1    2    0    0  0.46268662189E+02 -0.52594830387E+01 -0.29668469375E+02  0.96448136998E+02  0.79079540925E+02 0.  0.
        -11    1    3    3    0    0  0.64002478592E+02  0.12952373299E+02 -0.14649277591E+02  0.66922959991E+02  0.00000000000E+00 0.  1.
         12    1    3    3    0    0 -0.17733816403E+02 -0.18211856338E+02 -0.15019191784E+02  0.29525177008E+02  0.00000000000E+00 0. -1.
          1    1    1    2  501    0 -0.46268662189E+02  0.52594830387E+01 -0.39960265644E+01  0.46737773705E+02  0.00000000000E+00 0. -1.
<mgrwt>
<rscale>  1 0.91771592E+02</rscale>
<asrwt>0</asrwt>
<pdfrwt beam="1">  1       21 0.84247242E-02 0.91771592E+02</pdfrwt>
<pdfrwt beam="2">  1        2 0.13603877E-01 0.91771592E+02</pdfrwt>
<totfact> 0.55059771E+05</totfact>
</mgrwt>
</event>
<event>
 6    2  0.8544106E+000  0.9279184E+02  0.7546771E-02  0.1296228E+00
         21   -1    0    0  501  502  0.00000000000E+00  0.00000000000E+00  0.48776647274E+03  0.48776647274E+03  0.00000000000E+00 0. -1.
          2   -1    0    0  502    0 -0.00000000000E+00 -0.00000000000E+00 -0.36734157125E+02  0.36734157125E+02  0.00000000000E+00 0. -1.
         24    2    1    2    0    0  0.35238731320E+02  0.90580840702E+01  0.23898489607E+02  0.95819953379E+02  0.85361048424E+02 0.  0.
        -13    1    3    3    0    0  0.34538090074E+02  0.47251119156E+01  0.54614680919E+02  0.64791741143E+02  0.00000000000E+00 0.  1.
         14    1    3    3    0    0  0.70064124606E+00  0.43329721547E+01 -0.30716191312E+02  0.31028212236E+02  0.00000000000E+00 0. -1.
          1    1    1    2  501    0 -0.35238731320E+02 -0.90580840702E+01  0.42713382601E+03  0.42868067648E+03  0.00000000000E+00 0. -1.
<mgrwt>
<rscale>  1 0.92791840E+02</rscale>
<asrwt>0</asrwt>
<pdfrwt beam="1">  1       21 0.75040991E-01 0.92791840E+02</pdfrwt>
<pdfrwt beam="2">  1        2 0.56514091E-02 0.92791840E+02</pdfrwt>
<totfact> 0.25476580E+04</totfact>
</mgrwt>
</event>
<event>
 6    2  0.8544106E+000  0.8067410E+02  0.7546771E-02  0.1327149E+00
          2   -1    0    0  502    0 -0.00000000000E+00  0.00000000000E+00  0.12997693732E+04  0.12997693732E+04  0.00000000000E+00 0. -1.
         21   -1    0    0  501  502  0.00000000000E+00 -0.00000000000E+00 -0.70647651535E+01  0.70647651535E+01  0.00000000000E+00 0. -1.
         24    2    1    2    0    0  0.56869210010E+01  0.22455463580E+02  0.12753269629E+04  0.12778760399E+04  0.77276919007E+02 0.  0.
        -13    1    3    3    0    0  0.50197294410E+01 -0.13178307955E+02  0.47923635802E+02  0.49955383620E+02  0.00000000000E+00 0.  1.
         14    1    3    3    0    0  0.66719155997E+00  0.35633771535E+02  0.12274033271E+04  0.12279206563E+04  0.00000000000E+00 0. -1.
          1    1    1    2  501    0 -0.56869210010E+01 -0.22455463580E+02  0.17377645213E+02  0.28958098491E+02  0.00000000000E+00 0. -1.
<mgrwt>
<rscale>  1 0.80674104E+02</rscale>
<asrwt>0</asrwt>
<pdfrwt beam="1">  1       21 0.10868880E-02 0.80674104E+02</pdfrwt>
<pdfrwt beam="2">  1        2 0.19996433E+00 0.80674104E+02</pdfrwt>
<totfact> 0.70812731E+05</totfact>
</mgrwt>
</event>
<event>
 6    2  0.8544106E+000  0.9716770E+02  0.7546771E-02  0.1286367E+00
          2   -1    0    0  502    0 -0.00000000000E+00  0.00000000000E+00  0.46932882441E+03  0.46932882441E+03  0.00000000000E+00 0. -1.
         21   -1    0    0  501  502  0.00000000000E+00 -0.00000000000E+00 -0.13907378684E+02  0.13907378684E+02  0.00000000000E+00 0.  1.
         24    2    1    2    0    0 -0.17144673433E+02  0.60704216704E+02  0.30564908101E+03  0.32072250217E+03  0.73909545583E+02 0.  0.
        -13    1    3    3    0    0 -0.31910146881E+02  0.67966554558E+02  0.19680564014E+03  0.21064227971E+03  0.00000000000E+00 0.  1.
         14    1    3    3    0    0  0.14765473448E+02 -0.72623378537E+01  0.10884344086E+03  0.11008022246E+03  0.00000000000E+00 0. -1.
          1    1    1    2  501    0  0.17144673433E+02 -0.60704216704E+02  0.14977236472E+03  0.16251370092E+03  0.00000000000E+00 0. -1.
<mgrwt>
<rscale>  1 0.97167704E+02</rscale>
<asrwt>0</asrwt>
<pdfrwt beam="1">  1       21 0.21395971E-02 0.97167704E+02</pdfrwt>
<pdfrwt beam="2">  1        2 0.72204422E-01 0.97167704E+02</pdfrwt>
<totfact> 0.87512839E+05</totfact>
</mgrwt>
</event>
<event>
 6    2  0.8544106E+000  0.1259621E+03  0.7546771E-02  0.1233573E+00
         -1   -1    0    0    0  501 -0.00000000000E+00  0.00000000000E+00  0.79967551236E+02  0.79967551236E+02  0.00000000000E+00 0.  1.
         21   -1    0    0  501  502  0.00000000000E+00 -0.00000000000E+00 -0.18327037676E+03  0.18327037676E+03  0.00000000000E+00 0.  1.
         24    2    1    2    0    0  0.72828995196E+01  0.10625180050E+03 -0.18953108227E+02  0.12738005909E+03  0.67260489206E+02 0.  0.
        -13    1    3    3    0    0  0.12033372647E+02  0.86164060989E+02  0.14372587532E+02  0.88179468901E+02  0.00000000000E+00 0.  1.
         14    1    3    3    0    0 -0.47504731272E+01  0.20087739511E+02 -0.33325695759E+02  0.39200590192E+02  0.00000000000E+00 0. -1.
         -2    1    1    2    0  502 -0.72828995196E+01 -0.10625180050E+03 -0.84349717299E+02  0.13585786891E+03  0.00000000000E+00 0.  1.
<mgrwt>
<rscale>  1 0.12596213E+03</rscale>
<asrwt>0</asrwt>
<pdfrwt beam="1">  1       21 0.28195442E-01 0.12596213E+03</pdfrwt>
<pdfrwt beam="2">  1       -1 0.12302700E-01 0.12596213E+03</pdfrwt>
<totfact> 0.47012136E+04</totfact>
</mgrwt>
</event>
<event>
 6    2  0.8544106E+000  0.8828314E+02  0.7546771E-02  0.1307063E+00
         21   -1    0    0  501  502  0.00000000000E+00  0.00000000000E+00  0.33563620011E+03  0.33563620011E+03  0.00000000000E+00 0. -1.
         -1   -1    0    0    0  501 -0.00000000000E+00 -0.00000000000E+00 -0.10527238629E+02  0.10527238629E+02  0.00000000000E+00 0.  1.
         24    2    1    2    0    0  0.23005593666E+02  0.20057743793E+02  0.23597706938E+03  0.25195057011E+03  0.82839254458E+02 0.  0.
        -11    1    3    3    0    0 -0.13678254106E+02 -0.25818834517E+02  0.68500054089E+02  0.74471231099E+02  0.00000000000E+00 0.  1.
         12    1    3    3    0    0  0.36683847772E+02  0.45876578310E+02  0.16747701529E+03  0.17747933901E+03  0.00000000000E+00 0. -1.
         -2    1    1    2    0  502 -0.23005593666E+02 -0.20057743793E+02  0.89131892098E+02  0.94212868627E+02  0.00000000000E+00 0.  1.
<mgrwt>
<rscale>  1 0.88283138E+02</rscale>
<asrwt>0</asrwt>
<pdfrwt beam="1">  1       21 0.51636330E-01 0.88283138E+02</pdfrwt>
<pdfrwt beam="2">  1       -1 0.16195754E-02 0.88283138E+02</pdfrwt>
<totfact> 0.27348237E+05</totfact>
</mgrwt>
</event>
<event>
 6    2  0.8598011E+000  0.8400508E+02  0.7546771E-02  0.1318055E+00
         -1   -1    0    0    0  501 -0.00000000000E+00  0.00000000000E+00  0.49062651475E+02  0.49062651475E+02  0.00000000000E+00 0.  1.
         21   -1    0    0  501  502  0.00000000000E+00 -0.00000000000E+00 -0.93535033672E+02  0.93535033672E+02  0.00000000000E+00 0. -1.
         24    2    1    2    0    0 -0.19321132591E+02  0.17973350900E+02 -0.67352180440E+02  0.10767158209E+03  0.79752779716E+02 0.  0.
        -13    1    3    3    0    0 -0.14335906417E+02  0.48771923036E+01  0.16651425547E+02  0.22507225291E+02  0.00000000000E+00 0.  1.
         14    1    3    3    0    0 -0.49852261737E+01  0.13096158597E+02 -0.84003605987E+02  0.85164356798E+02  0.00000000000E+00 0. -1.
         -2    1    1    2    0  502  0.19321132591E+02 -0.17973350900E+02  0.22879798243E+02  0.34926103058E+02  0.00000000000E+00 0.  1.
<mgrwt>
<rscale>  1 0.84005079E+02</rscale>
<asrwt>0</asrwt>
<pdfrwt beam="1">  1       21 0.14390005E-01 0.84005079E+02</pdfrwt>
<pdfrwt beam="2">  1       -1 0.75481004E-02 0.84005079E+02</pdfrwt>
<totfact> 0.33056744E+05</totfact>
</mgrwt>
</event>
<event>
 6    2  0.8743107E+000  0.8686762E+02  0.7546771E-02  0.1310620E+00
         21   -1    0    0  501  502  0.00000000000E+00  0.00000000000E+00  0.43159900714E+01  0.43159900714E+01  0.00000000000E+00 0. -1.
         -1   -1    0    0    0  501 -0.00000000000E+00 -0.00000000000E+00 -0.81399302593E+03  0.81399302593E+03  0.00000000000E+00 0.  1.
         24    2    1    2    0    0 -0.98008847936E+01  0.27495965246E+02 -0.52485545511E+03  0.53199551945E+03  0.81816248437E+02 0.  0.
        -13    1    3    3    0    0  0.21642050008E+02  0.85977057232E+00 -0.39854070522E+03  0.39912881537E+03  0.00000000000E+00 0.  1.
         14    1    3    3    0    0 -0.31442934802E+02  0.26636194674E+02 -0.12631474989E+03  0.13286670409E+03  0.00000000000E+00 0. -1.
         -2    1    1    2    0  502  0.98008847936E+01 -0.27495965246E+02 -0.28482158074E+03  0.28631349655E+03  0.00000000000E+00 0.  1.
<mgrwt>
<rscale>  1 0.86867623E+02</rscale>
<asrwt>0</asrwt>
<pdfrwt beam="1">  1       21 0.66399896E-03 0.86867623E+02</pdfrwt>
<pdfrwt beam="2">  1       -1 0.12522960E+00 0.86867623E+02</pdfrwt>
<totfact> 0.37877275E+05</totfact>
</mgrwt>
</event>
<event>
 6    2  0.8544106E+000  0.8067193E+02  0.7546771E-02  0.1327155E+00
         21   -1    0    0  501  502  0.00000000000E+00  0.00000000000E+00  0.77211524674E+02  0.77211524674E+02  0.00000000000E+00 0.  1.
          2   -1    0    0  502    0 -0.00000000000E+00 -0.00000000000E+00 -0.38306051530E+02  0.38306051530E+02  0.00000000000E+00 0. -1.
         24    2    1    2    0    0  0.18558226795E+02 -0.88075125740E+01  0.11835101792E+02  0.81535447597E+02  0.78012688204E+02 0.  0.
        -13    1    3    3    0    0 -0.18734298585E+02 -0.31705724618E+02  0.35615086259E+01  0.36998800801E+02  0.00000000000E+00 0.  1.
         14    1    3    3    0    0  0.37292525379E+02  0.22898212044E+02  0.82735931664E+01  0.44536646796E+02  0.00000000000E+00 0. -1.
          1    1    1    2  501    0 -0.18558226795E+02  0.88075125740E+01  0.27070371352E+02  0.33982128607E+02  0.00000000000E+00 0. -1.
<mgrwt>
<rscale>  1 0.80671926E+02</rscale>
<asrwt>0</asrwt>
<pdfrwt beam="1">  1       21 0.11878696E-01 0.80671926E+02</pdfrwt>
<pdfrwt beam="2">  1        2 0.58932387E-02 0.80671926E+02</pdfrwt>
<totfact> 0.83326211E+05</totfact>
</mgrwt>
</event>
<event>
 6    2  0.8544106E+000  0.8428468E+02  0.7546771E-02  0.1317314E+00
          2   -1    0    0  502    0 -0.00000000000E+00  0.00000000000E+00  0.20205597917E+04  0.20205597917E+04  0.00000000000E+00 0. -1.
         21   -1    0    0  501  502  0.00000000000E+00 -0.00000000000E+00 -0.18205597461E+01  0.18205597461E+01  0.00000000000E+00 0.  1.
         24    2    1    2    0    0 -0.45624790559E+01  0.25114377050E+02  0.18278317382E+04  0.18297739670E+04  0.80326577601E+02 0.  0.
        -11    1    3    3    0    0 -0.37321456030E+02 -0.74890453626E+01  0.82977704897E+03  0.83064970227E+03  0.00000000000E+00 0.  1.
         12    1    3    3    0    0  0.32758976974E+02  0.32603422413E+02  0.99805468925E+03  0.99912426478E+03  0.00000000000E+00 0. -1.
          1    1    1    2  501    0  0.45624790559E+01 -0.25114377050E+02  0.19090749378E+03  0.19260638445E+03  0.00000000000E+00 0. -1.
<mgrwt>
<rscale>  1 0.84284680E+02</rscale>
<asrwt>0</asrwt>
<pdfrwt beam="1">  1       21 0.28008773E-03 0.84284680E+02</pdfrwt>
<pdfrwt beam="2">  1        2 0.31085356E+00 0.84284680E+02</pdfrwt>
<totfact> 0.24570412E+06</totfact>
</mgrwt>
</event>
<event>
 6    2  0.8544106E+000  0.9903786E+02  0.7546771E-02  0.1282332E+00
         21   -1    0    0  501  502  0.00000000000E+00  0.00000000000E+00  0.11625188583E+02  0.11625188583E+02  0.00000000000E+00 0. -1.
          2   -1    0    0  502    0 -0.00000000000E+00 -0.00000000000E+00 -0.47079074876E+03  0.47079074876E+03  0.00000000000E+00 0. -1.
         24    2    1    2    0    0 -0.72154305667E+01  0.29283256653E+02 -0.42695088901E+03  0.43828707381E+03  0.94334118331E+02 0.  0.
        -11    1    3    3    0    0 -0.21104006918E+02 -0.28823686382E+02 -0.10699659452E+03  0.11280272711E+03  0.00000000000E+00 0.  1.
         12    1    3    3    0    0  0.13888576351E+02  0.58106943035E+02 -0.31995429449E+03  0.32548434670E+03  0.00000000000E+00 0. -1.
          1    1    1    2  501    0  0.72154305667E+01 -0.29283256653E+02 -0.32214671165E+02  0.44128863533E+02  0.00000000000E+00 0. -1.
<mgrwt>
<rscale>  1 0.99037859E+02</rscale>
<asrwt>0</asrwt>
<pdfrwt beam="1">  1       21 0.17884906E-02 0.99037859E+02</pdfrwt>
<pdfrwt beam="2">  1        2 0.72429343E-01 0.99037859E+02</pdfrwt>
<totfact> 0.11643189E+06</totfact>
</mgrwt>
</event>
<event>
 6    2  0.8544106E+000  0.9504875E+02  0.7546771E-02  0.1291066E+00
         21   -1    0    0  501  502  0.00000000000E+00  0.00000000000E+00  0.33947835669E+02  0.33947835669E+02  0.00000000000E+00 0.  1.
          2   -1    0    0  502    0 -0.00000000000E+00 -0.00000000000E+00 -0.16429411888E+03  0.16429411888E+03  0.00000000000E+00 0. -1.
         24    2    1    2    0    0  0.37780193248E+02 -0.30094299086E+02 -0.58304003537E+02  0.11150614937E+03  0.81861191536E+02 0.  0.
        -13    1    3    3    0    0 -0.11920485173E+02 -0.25962878652E-01  0.14240265244E+02  0.18571047225E+02  0.00000000000E+00 0.  1.
         14    1    3    3    0    0  0.49700678421E+02 -0.30068336208E+02 -0.72544268781E+02  0.92935102145E+02  0.00000000000E+00 0. -1.
          1    1    1    2  501    0 -0.37780193248E+02  0.30094299086E+02 -0.72042279673E+02  0.86735805178E+02  0.00000000000E+00 0. -1.
<mgrwt>
<rscale>  1 0.95048748E+02</rscale>
<asrwt>0</asrwt>
<pdfrwt beam="1">  1       21 0.52227440E-02 0.95048748E+02</pdfrwt>
<pdfrwt beam="2">  1        2 0.25276018E-01 0.95048748E+02</pdfrwt>
<totfact> 0.61631985E+05</totfact>
</mgrwt>
</event>
<event>
 6    2  0.8544106E+000  0.8328824E+02  0.7546771E-02  0.1319971E+00
         21   -1    0    0  501  502  0.00000000000E+00  0.00000000000E+00  0.35130139764E+01  0.35130139764E+01  0.00000000000E+00 0.  1.
          2   -1    0    0  502    0 -0.00000000000E+00 -0.00000000000E+00 -0.77831700388E+03  0.77831700388E+03  0.00000000000E+00 0. -1.
         24    2    1    2    0    0 -0.15002619208E+02 -0.14622766890E+02 -0.59222167715E+03  0.59804970111E+03  0.80610335636E+02 0.  0.
        -13    1    3    3    0    0 -0.52193645699E+01 -0.14283227674E+01  0.18588382744E+00  0.54144644461E+01  0.00000000000E+00 0.  1.
         14    1    3    3    0    0 -0.97832546380E+01 -0.13194444122E+02 -0.59240756098E+03  0.59263523666E+03  0.00000000000E+00 0. -1.
          1    1    1    2  501    0  0.15002619208E+02  0.14622766890E+02 -0.18258231275E+03  0.18378031675E+03  0.00000000000E+00 0. -1.
<mgrwt>
<rscale>  1 0.83288235E+02</rscale>
<asrwt>0</asrwt>
<pdfrwt beam="1">  1       21 0.54046361E-03 0.83288235E+02</pdfrwt>
<pdfrwt beam="2">  1        2 0.11974110E+00 0.83288235E+02</pdfrwt>
<totfact> 0.42069488E+06</totfact>
</mgrwt>
</event>
<event>
 6    2  0.8544106E+000  0.9040873E+02  0.7546771E-02  0.1301865E+00
          2   -1    0    0  502    0 -0.00000000000E+00  0.00000000000E+00  0.66749637083E+01  0.66749637083E+01  0.00000000000E+00 0. -1.
         21   -1    0    0  501  502  0.00000000000E+00 -0.00000000000E+00 -0.70253212853E+03  0.70253212853E+03  0.00000000000E+00 0.  1.
         24    2    1    2    0    0  0.41153283174E+02  0.81822997512E+01 -0.38173397682E+03  0.39229398114E+03  0.80082431502E+02 0.  0.
        -13    1    3    3    0    0  0.43872972614E+02  0.10312625101E+02 -0.38494687926E+03  0.38757617034E+03  0.00000000000E+00 0.  1.
         14    1    3    3    0    0 -0.27196894399E+01 -0.21303253501E+01  0.32129024354E+01  0.47178108065E+01  0.00000000000E+00 0. -1.
          1    1    1    2  501    0 -0.41153283174E+02 -0.81822997512E+01 -0.31412318799E+03  0.31691311109E+03  0.00000000000E+00 0. -1.
<mgrwt>
<rscale>  1 0.90408731E+02</rscale>
<asrwt>0</asrwt>
<pdfrwt beam="1">  1       21 0.10808189E+00 0.90408731E+02</pdfrwt>
<pdfrwt beam="2">  1        2 0.10269173E-02 0.90408731E+02</pdfrwt>
<totfact> 0.10848587E+05</totfact>
</mgrwt>
</event>
<event>
 6    2  0.8544106E+000  0.8441603E+02  0.7546771E-02  0.1316967E+00
         -1   -1    0    0    0  501 -0.00000000000E+00  0.00000000000E+00  0.37644351960E+01  0.37644351960E+01  0.00000000000E+00 0.  1.
         21   -1    0    0  501  502  0.00000000000E+00 -0.00000000000E+00 -0.11357022795E+04  0.11357022795E+04  0.00000000000E+00 0.  1.
         24    2    1    2    0    0 -0.32637662720E+01  0.25559739214E+02 -0.50557123210E+03  0.51257032348E+03  0.80387271030E+02 0.  0.
        -13    1    3    3    0    0 -0.32101491977E+01  0.51041600755E+02 -0.22008042141E+03  0.22594455505E+03  0.00000000000E+00 0.  1.
         14    1    3    3    0    0 -0.53617074327E-01 -0.25481861540E+02 -0.28549081069E+03  0.28662576843E+03  0.00000000000E+00 0. -1.
         -2    1    1    2    0  502  0.32637662720E+01 -0.25559739214E+02 -0.62636661218E+03  0.62689639120E+03  0.00000000000E+00 0.  1.
<mgrwt>
<rscale>  1 0.84416028E+02</rscale>
<asrwt>0</asrwt>
<pdfrwt beam="1">  1       21 0.17472345E+00 0.84416028E+02</pdfrwt>
<pdfrwt beam="2">  1       -1 0.57914380E-03 0.84416028E+02</pdfrwt>
<totfact> 0.69749745E+04</totfact>
</mgrwt>
</event>
<event>
 6    2  0.8544106E+000  0.2359230E+03  0.7546771E-02  0.1122539E+00
         21   -1    0    0  501  502  0.00000000000E+00  0.00000000000E+00  0.82767941351E+02  0.82767941351E+02  0.00000000000E+00 0. -1.
          2   -1    0    0  502    0 -0.00000000000E+00 -0.00000000000E+00 -0.63162263806E+03  0.63162263806E+03  0.00000000000E+00 0. -1.
         24    2    1    2    0    0  0.21820206738E+03  0.37124453503E+02 -0.27927197175E+03  0.36558517112E+03  0.81665879533E+02 0.  0.
        -13    1    3    3    0    0  0.25729363894E+02 -0.20974371638E+02 -0.25703407869E+02  0.41983206263E+02  0.00000000000E+00 0.  1.
         14    1    3    3    0    0  0.19247270349E+03  0.58098825142E+02 -0.25356856388E+03  0.32360196485E+03  0.00000000000E+00 0. -1.
          1    1    1    2  501    0 -0.21820206738E+03 -0.37124453503E+02 -0.26958272496E+03  0.34880540829E+03  0.00000000000E+00 0. -1.
<mgrwt>
<rscale>  1 0.23592304E+03</rscale>
<asrwt>0</asrwt>
<pdfrwt beam="1">  1       21 0.12733530E-01 0.23592304E+03</pdfrwt>
<pdfrwt beam="2">  1        2 0.97172712E-01 0.23592304E+03</pdfrwt>
<totfact> 0.31356972E+04</totfact>
</mgrwt>
</event>
<event>
 6    2  0.8544106E+000  0.8965976E+02  0.7546771E-02  0.1303678E+00
          2   -1    0    0  502    0 -0.00000000000E+00  0.00000000000E+00  0.15402501089E+04  0.15402501089E+04  0.00000000000E+00 0. -1.
         21   -1    0    0  501  502  0.00000000000E+00 -0.00000000000E+00 -0.27174786145E+01  0.27174786145E+01  0.00000000000E+00 0.  1.
         24    2    1    2    0    0  0.29529227739E+02  0.26577683074E+02  0.10596923942E+04  0.10634786515E+04  0.80377380921E+02 0.  0.
        -13    1    3    3    0    0  0.50504803439E+02 -0.59669802302E+01  0.62445170165E+03  0.62651916787E+03  0.00000000000E+00 0.  1.
         14    1    3    3    0    0 -0.20975575700E+02  0.32544663304E+02  0.43524069257E+03  0.43695948365E+03  0.00000000000E+00 0. -1.
          1    1    1    2  501    0 -0.29529227739E+02 -0.26577683074E+02  0.47784023605E+03  0.47948893597E+03  0.00000000000E+00 0. -1.
<mgrwt>
<rscale>  1 0.89659756E+02</rscale>
<asrwt>0</asrwt>
<pdfrwt beam="1">  1       21 0.41807486E-03 0.89659756E+02</pdfrwt>
<pdfrwt beam="2">  1        2 0.23696086E+00 0.89659756E+02</pdfrwt>
<totfact> 0.23427663E+06</totfact>
</mgrwt>
</event>
<event>
 6    2  0.8544106E+000  0.8933304E+02  0.7546771E-02  0.1304475E+00
         21   -1    0    0  501  502  0.00000000000E+00  0.00000000000E+00  0.62864816478E+01  0.62864816478E+01  0.00000000000E+00 0.  1.
          2   -1    0    0  502    0 -0.00000000000E+00 -0.00000000000E+00 -0.77284707396E+03  0.77284707396E+03  0.00000000000E+00 0. -1.
         24    2    1    2    0    0 -0.35806717546E+02 -0.20020116684E+02 -0.37796626571E+03  0.38837982656E+03  0.79356572345E+02 0.  0.
        -13    1    3    3    0    0 -0.35514188877E+02 -0.39242799896E+02 -0.14052731315E+03  0.15016384617E+03  0.00000000000E+00 0.  1.
         14    1    3    3    0    0 -0.29252866881E+00  0.19222683213E+02 -0.23743895255E+03  0.23821598039E+03  0.00000000000E+00 0. -1.
          1    1    1    2  501    0  0.35806717546E+02  0.20020116684E+02 -0.38859432661E+03  0.39075372905E+03  0.00000000000E+00 0. -1.
<mgrwt>
<rscale>  1 0.89333038E+02</rscale>
<asrwt>0</asrwt>
<pdfrwt beam="1">  1       21 0.96715139E-03 0.89333038E+02</pdfrwt>
<pdfrwt beam="2">  1        2 0.11889951E+00 0.89333038E+02</pdfrwt>
<totfact> 0.17388906E+06</totfact>
</mgrwt>
</event>
<event>
 6    2  0.8544106E+000  0.9074932E+02  0.7546771E-02  0.1301047E+00
          2   -1    0    0  502    0 -0.00000000000E+00  0.00000000000E+00  0.48275979715E+03  0.48275979715E+03  0.00000000000E+00 0. -1.
         21   -1    0    0  501  502  0.00000000000E+00 -0.00000000000E+00 -0.10628016010E+02  0.10628016010E+02  0.00000000000E+00 0.  1.
         24    2    1    2    0    0  0.18704262292E+02  0.36745327919E+02  0.22121129517E+03  0.23910222798E+03  0.80841633840E+02 0.  0.
        -13    1    3    3    0    0  0.24395401216E+02  0.17430368338E+02  0.18156660838E+02  0.35051642953E+02  0.00000000000E+00 0.  1.
         14    1    3    3    0    0 -0.56911389247E+01  0.19314959581E+02  0.20305463433E+03  0.20405058503E+03  0.00000000000E+00 0. -1.
          1    1    1    2  501    0 -0.18704262292E+02 -0.36745327919E+02  0.25092048597E+03  0.25428558518E+03  0.00000000000E+00 0. -1.
<mgrwt>
<rscale>  1 0.90749316E+02</rscale>
<asrwt>0</asrwt>
<pdfrwt beam="1">  1       21 0.16350798E-02 0.90749316E+02</pdfrwt>
<pdfrwt beam="2">  1        2 0.74270721E-01 0.90749316E+02</pdfrwt>
<totfact> 0.12961904E+06</totfact>
</mgrwt>
</event>
<event>
 6    2  0.8544106E+000  0.8754847E+02  0.7546771E-02  0.1308899E+00
         21   -1    0    0  501  502  0.00000000000E+00  0.00000000000E+00  0.44329745552E+01  0.44329745552E+01  0.00000000000E+00 0.  1.
          2   -1    0    0  502    0 -0.00000000000E+00 -0.00000000000E+00 -0.79494968465E+03  0.79494968465E+03  0.00000000000E+00 0. -1.
         24    2    1    2    0    0 -0.63370532037E+01 -0.26621170926E+02 -0.67579751045E+03  0.68144479526E+03  0.83161823405E+02 0.  0.
        -13    1    3    3    0    0 -0.23112582826E+02  0.21023680672E+02 -0.14956444123E+03  0.15279302574E+03  0.00000000000E+00 0.  1.
         14    1    3    3    0    0  0.16775529622E+02 -0.47644851598E+02 -0.52623306922E+03  0.52865176952E+03  0.00000000000E+00 0. -1.
          1    1    1    2  501    0  0.63370532037E+01  0.26621170926E+02 -0.11471919964E+03  0.11793786394E+03  0.00000000000E+00 0. -1.
<mgrwt>
<rscale>  1 0.87548466E+02</rscale>
<asrwt>0</asrwt>
<pdfrwt beam="1">  1       21 0.68199675E-03 0.87548466E+02</pdfrwt>
<pdfrwt beam="2">  1        2 0.12229983E+00 0.87548466E+02</pdfrwt>
<totfact> 0.28842135E+06</totfact>
</mgrwt>
</event>
<event>
 6    2  0.8544106E+000  0.8311033E+02  0.7546771E-02  0.1320450E+00
         21   -1    0    0  501  502  0.00000000000E+00  0.00000000000E+00  0.24582209036E+01  0.24582209036E+01  0.00000000000E+00 0. -1.
          2   -1    0    0  502    0 -0.00000000000E+00 -0.00000000000E+00 -0.33060726477E+04  0.33060726477E+04  0.00000000000E+00 0. -1.
         24    2    1    2    0    0  0.18975592552E+02 -0.89047968816E+01 -0.32485316949E+04  0.32495946669E+04  0.80423614249E+02 0.  0.
        -11    1    3    3    0    0  0.27056865729E+02  0.23272864640E+02 -0.25741387653E+04  0.25743861566E+04  0.00000000000E+00 0.  1.
         12    1    3    3    0    0 -0.80812731768E+01 -0.32177661522E+02 -0.67439292962E+03  0.67520851031E+03  0.00000000000E+00 0. -1.
          1    1    1    2  501    0 -0.18975592552E+02  0.89047968816E+01 -0.55082731876E+02  0.58936201702E+02  0.00000000000E+00 0. -1.
<mgrwt>
<rscale>  1 0.83110326E+02</rscale>
<asrwt>0</asrwt>
<pdfrwt beam="1">  1       21 0.37818870E-03 0.83110326E+02</pdfrwt>
<pdfrwt beam="2">  1        2 0.50862539E+00 0.83110326E+02</pdfrwt>
<totfact> 0.31420659E+05</totfact>
</mgrwt>
</event>
<event>
 6    2  0.8544106E+000  0.8841539E+02  0.7546771E-02  0.1306735E+00
         -1   -1    0    0    0  501 -0.00000000000E+00  0.00000000000E+00  0.12882667918E+03  0.12882667918E+03  0.00000000000E+00 0.  1.
         21   -1    0    0  501  502  0.00000000000E+00 -0.00000000000E+00 -0.32529250901E+02  0.32529250901E+02  0.00000000000E+00 0. -1.
         24    2    1    2    0    0 -0.39417162055E+02  0.20212653637E+01  0.54473837327E+02  0.10384931361E+03  0.79116893301E+02 0.  0.
        -13    1    3    3    0    0 -0.41146224039E+02 -0.15109687372E+02  0.68714973903E+02  0.81504981711E+02  0.00000000000E+00 0.  1.
         14    1    3    3    0    0  0.17290619843E+01  0.17130952736E+02 -0.14241136576E+02  0.22344331898E+02  0.00000000000E+00 0. -1.
         -2    1    1    2    0  502  0.39417162055E+02 -0.20212653637E+01  0.41823590957E+02  0.57506616477E+02  0.00000000000E+00 0.  1.
<mgrwt>
<rscale>  1 0.88415389E+02</rscale>
<asrwt>0</asrwt>
<pdfrwt beam="1">  1       21 0.50045002E-02 0.88415389E+02</pdfrwt>
<pdfrwt beam="2">  1       -1 0.19819489E-01 0.88415389E+02</pdfrwt>
<totfact> 0.46451723E+05</totfact>
</mgrwt>
</event>
<event>
 6    2  0.8544106E+000  0.7460222E+02  0.7546771E-02  0.1345107E+00
          2   -1    0    0  502    0 -0.00000000000E+00  0.00000000000E+00  0.95392988374E+03  0.95392988374E+03  0.00000000000E+00 0. -1.
         21   -1    0    0  501  502  0.00000000000E+00 -0.00000000000E+00 -0.43966584658E+01  0.43966584658E+01  0.00000000000E+00 0.  1.
         24    2    1    2    0    0 -0.52468445626E+02  0.14565360735E+02  0.50811511684E+03  0.51356252166E+03  0.50994158207E+02 0.  0.
        -13    1    3    3    0    0 -0.50184177306E+02 -0.61997844867E+01  0.41855022916E+03  0.42159362342E+03  0.00000000000E+00 0.  1.
         14    1    3    3    0    0 -0.22842683200E+01  0.20765145222E+02  0.89564887677E+02  0.91968898235E+02  0.00000000000E+00 0. -1.
          1    1    1    2  501    0  0.52468445626E+02 -0.14565360735E+02  0.44141810844E+03  0.44476402055E+03  0.00000000000E+00 0. -1.
<mgrwt>
<rscale>  1 0.74602223E+02</rscale>
<asrwt>0</asrwt>
<pdfrwt beam="1">  1       21 0.67640975E-03 0.74602223E+02</pdfrwt>
<pdfrwt beam="2">  1        2 0.14675828E+00 0.74602223E+02</pdfrwt>
<totfact> 0.22815320E+06</totfact>
</mgrwt>
</event>
<event>
 6    2  0.8544106E+000  0.8769414E+02  0.7546771E-02  0.1308534E+00
         21   -1    0    0  501  502  0.00000000000E+00  0.00000000000E+00  0.62580108174E+03  0.62580108174E+03  0.00000000000E+00 0. -1.
         -1   -1    0    0    0  501 -0.00000000000E+00 -0.00000000000E+00 -0.29452381369E+02  0.29452381369E+02  0.00000000000E+00 0.  1.
         24    2    1    2    0    0  0.88205084294E+01 -0.18580452292E+02  0.36434720982E+02  0.94961843600E+02  0.85248039688E+02 0.  0.
        -13    1    3    3    0    0 -0.76405051846E+01  0.15442140011E+02 -0.20403296098E+02  0.26704522075E+02  0.00000000000E+00 0.  1.
         14    1    3    3    0    0  0.16461013614E+02 -0.34022592303E+02  0.56838017080E+02  0.68257321525E+02  0.00000000000E+00 0. -1.
         -2    1    1    2    0  502 -0.88205084294E+01  0.18580452292E+02  0.55991397939E+03  0.56029161951E+03  0.00000000000E+00 0.  1.
<mgrwt>
<rscale>  1 0.87694144E+02</rscale>
<asrwt>0</asrwt>
<pdfrwt beam="1">  1       21 0.96277080E-01 0.87694144E+02</pdfrwt>
<pdfrwt beam="2">  1       -1 0.45311361E-02 0.87694144E+02</pdfrwt>
<totfact> 0.16223562E+04</totfact>
</mgrwt>
</event>
<event>
 6    2  0.8544106E+000  0.8204195E+02  0.7546771E-02  0.1323355E+00
          2   -1    0    0  502    0 -0.00000000000E+00  0.00000000000E+00  0.10983494927E+03  0.10983494927E+03  0.00000000000E+00 0. -1.
         21   -1    0    0  501  502  0.00000000000E+00 -0.00000000000E+00 -0.86588951700E+02  0.86588951700E+02  0.00000000000E+00 0. -1.
         24    2    1    2    0    0  0.20289903231E+02  0.60050534005E+01  0.92715998707E+02  0.12380281659E+03  0.79266261048E+02 0.  0.
        -13    1    3    3    0    0  0.17606199238E+02  0.12620459741E+02 -0.78073628227E+01  0.23026271298E+02  0.00000000000E+00 0.  1.
         14    1    3    3    0    0  0.26837039931E+01 -0.66154063401E+01  0.10052336153E+03  0.10077654529E+03  0.00000000000E+00 0. -1.
          1    1    1    2  501    0 -0.20289903231E+02 -0.60050534005E+01 -0.69470001132E+02  0.72621084382E+02  0.00000000000E+00 0. -1.
<mgrwt>
<rscale>  1 0.82041946E+02</rscale>
<asrwt>0</asrwt>
<pdfrwt beam="1">  1       21 0.13321377E-01 0.82041946E+02</pdfrwt>
<pdfrwt beam="2">  1        2 0.16897684E-01 0.82041946E+02</pdfrwt>
<totfact> 0.19158167E+05</totfact>
</mgrwt>
</event>
<event>
 6    2  0.8544106E+000  0.8307395E+02  0.7546771E-02  0.1320548E+00
         -3   -1    0    0    0  501 -0.00000000000E+00  0.00000000000E+00  0.13905105178E+02  0.13905105178E+02  0.00000000000E+00 0.  1.
         21   -1    0    0  501  502  0.00000000000E+00 -0.00000000000E+00 -0.12838148980E+04  0.12838148980E+04  0.00000000000E+00 0.  1.
         24    2    1    2    0    0 -0.22454803071E+01  0.21670405596E+02 -0.11119598941E+03  0.13880140083E+03  0.80166278136E+02 0.  0.
        -11    1    3    3    0    0 -0.29321808622E+02  0.20212695525E+02 -0.14631319319E+02  0.38501909385E+02  0.00000000000E+00 0.  1.
         12    1    3    3    0    0  0.27076328315E+02  0.14577100712E+01 -0.96564670093E+02  0.10029949144E+03  0.00000000000E+00 0. -1.
         -4    1    1    2    0  502  0.22454803071E+01 -0.21670405596E+02 -0.11587138034E+04  0.11589186024E+04  0.00000000000E+00 0.  1.
<mgrwt>
<rscale>  1 0.83073948E+02</rscale>
<asrwt>0</asrwt>
<pdfrwt beam="1">  1       21 0.19750990E+00 0.83073948E+02</pdfrwt>
<pdfrwt beam="2">  1       -3 0.21392478E-02 0.83073948E+02</pdfrwt>
<totfact> 0.59293325E+03</totfact>
</mgrwt>
</event>
<event>
 6    2  0.8544106E+000  0.8993858E+02  0.7546771E-02  0.1303001E+00
          2   -1    0    0  502    0 -0.00000000000E+00  0.00000000000E+00  0.11655548143E+04  0.11655548143E+04  0.00000000000E+00 0. -1.
         21   -1    0    0  501  502  0.00000000000E+00 -0.00000000000E+00 -0.37807991947E+01  0.37807991947E+01  0.00000000000E+00 0.  1.
         24    2    1    2    0    0  0.39765283201E+02  0.11974733417E+02  0.86657842767E+03  0.87123310289E+03  0.79776414290E+02 0.  0.
        -11    1    3    3    0    0  0.59348908249E+02  0.26586019225E+02  0.66766774429E+03  0.67082734447E+03  0.00000000000E+00 0.  1.
         12    1    3    3    0    0 -0.19583625048E+02 -0.14611285808E+02  0.19891068339E+03  0.20040575842E+03  0.00000000000E+00 0. -1.
          1    1    1    2  501    0 -0.39765283201E+02 -0.11974733417E+02  0.29519558742E+03  0.29810251059E+03  0.00000000000E+00 0. -1.
<mgrwt>
<rscale>  1 0.89938581E+02</rscale>
<asrwt>0</asrwt>
<pdfrwt beam="1">  1       21 0.58166234E-03 0.89938581E+02</pdfrwt>
<pdfrwt beam="2">  1        2 0.17931584E+00 0.89938581E+02</pdfrwt>
<totfact> 0.22220342E+06</totfact>
</mgrwt>
</event>
<event>
 6    2  0.8544106E+000  0.7181028E+02  0.7546771E-02  0.1354043E+00
         21   -1    0    0  501  502  0.00000000000E+00  0.00000000000E+00  0.34153516894E+03  0.34153516894E+03  0.00000000000E+00 0.  1.
         -3   -1    0    0    0  501 -0.00000000000E+00 -0.00000000000E+00 -0.89062344890E+01  0.89062344890E+01  0.00000000000E+00 0.  1.
         24    2    1    2    0    0 -0.56084829529E+01 -0.29649812466E+02  0.16253729275E+03  0.17769380421E+03  0.65162489661E+02 0.  0.
        -11    1    3    3    0    0  0.21359910212E+02 -0.26066118905E+02  0.40627237310E+02  0.52785042677E+02  0.00000000000E+00 0.  1.
         12    1    3    3    0    0 -0.26968393165E+02 -0.35836935616E+01  0.12191005544E+03  0.12490876153E+03  0.00000000000E+00 0. -1.
         -4    1    1    2    0  502  0.56084829529E+01  0.29649812466E+02  0.17009164170E+03  0.17274759922E+03  0.00000000000E+00 0.  1.
<mgrwt>
<rscale>  1 0.71810281E+02</rscale>
<asrwt>0</asrwt>
<pdfrwt beam="1">  1       21 0.52543862E-01 0.71810281E+02</pdfrwt>
<pdfrwt beam="2">  1       -3 0.13701902E-02 0.71810281E+02</pdfrwt>
<totfact> 0.25301256E+05</totfact>
</mgrwt>
</event>
<event>
 6    2  0.8544106E+000  0.8815604E+02  0.7546771E-02  0.1307380E+00
         21   -1    0    0  501  502  0.00000000000E+00  0.00000000000E+00  0.55414404627E+01  0.55414404627E+01  0.00000000000E+00 0.  1.
          2   -1    0    0  502    0 -0.00000000000E+00 -0.00000000000E+00 -0.54652202539E+03  0.54652202539E+03  0.00000000000E+00 0. -1.
         24    2    1    2    0    0  0.20333558270E+02  0.95495960189E+00 -0.47115085670E+03  0.47932725421E+03  0.85773663324E+02 0.  0.
        -13    1    3    3    0    0  0.39827872687E+02 -0.29026138388E+02 -0.20806379540E+03  0.21382076398E+03  0.00000000000E+00 0.  1.
         14    1    3    3    0    0 -0.19494314417E+02  0.29981097990E+02 -0.26308706130E+03  0.26550649023E+03  0.00000000000E+00 0. -1.
          1    1    1    2  501    0 -0.20333558270E+02 -0.95495960189E+00 -0.69829728228E+02  0.72736211643E+02  0.00000000000E+00 0. -1.
<mgrwt>
<rscale>  1 0.88156037E+02</rscale>
<asrwt>0</asrwt>
<pdfrwt beam="1">  1       21 0.85252932E-03 0.88156037E+02</pdfrwt>
<pdfrwt beam="2">  1        2 0.84080310E-01 0.88156037E+02</pdfrwt>
<totfact> 0.31410164E+06</totfact>
</mgrwt>
</event>
<event>
 6    2  0.8544106E+000  0.8435123E+02  0.7546771E-02  0.1317138E+00
          2   -1    0    0  502    0 -0.00000000000E+00  0.00000000000E+00  0.74036112317E+03  0.74036112317E+03  0.00000000000E+00 0. -1.
         21   -1    0    0  501  502  0.00000000000E+00 -0.00000000000E+00 -0.46547728360E+01  0.46547728360E+01  0.00000000000E+00 0. -1.
         24    2    1    2    0    0 -0.10886681199E+02  0.30999875608E+02  0.50929910980E+03  0.51623707119E+03  0.77689241974E+02 0.  0.
        -13    1    3    3    0    0 -0.18581792066E+02 -0.17669096733E+02  0.77409005965E+02  0.81545289136E+02  0.00000000000E+00 0.  1.
         14    1    3    3    0    0  0.76951108671E+01  0.48668972341E+02  0.43189010383E+03  0.43469178206E+03  0.00000000000E+00 0. -1.
          1    1    1    2  501    0  0.10886681199E+02 -0.30999875608E+02  0.22640724053E+03  0.22877882481E+03  0.00000000000E+00 0. -1.
<mgrwt>
<rscale>  1 0.84351233E+02</rscale>
<asrwt>0</asrwt>
<pdfrwt beam="1">  1       21 0.71611949E-03 0.84351233E+02</pdfrwt>
<pdfrwt beam="2">  1        2 0.11390162E+00 0.84351233E+02</pdfrwt>
<totfact> 0.29005868E+06</totfact>
</mgrwt>
</event>
<event>
 6    2  0.8544106E+000  0.8300573E+02  0.7546771E-02  0.1320732E+00
         -1   -1    0    0    0  501 -0.00000000000E+00  0.00000000000E+00  0.43751589229E+02  0.43751589229E+02  0.00000000000E+00 0.  1.
         21   -1    0    0  501  502  0.00000000000E+00 -0.00000000000E+00 -0.81032663679E+02  0.81032663679E+02  0.00000000000E+00 0. -1.
         24    2    1    2    0    0  0.27742330890E+02  0.21052701853E+02 -0.34358745005E+02  0.89835816778E+02  0.75346515774E+02 0.  0.
        -11    1    3    3    0    0 -0.11825408409E+01  0.13111126490E+02  0.22203299202E+02  0.25812526729E+02  0.00000000000E+00 0.  1.
         12    1    3    3    0    0  0.28924871731E+02  0.79415753631E+01 -0.56562044206E+02  0.64023290049E+02  0.00000000000E+00 0. -1.
         -2    1    1    2    0  502 -0.27742330890E+02 -0.21052701853E+02 -0.29223294460E+01  0.34948436130E+02  0.00000000000E+00 0.  1.
<mgrwt>
<rscale>  1 0.83005726E+02</rscale>
<asrwt>0</asrwt>
<pdfrwt beam="1">  1       21 0.12466564E-01 0.83005726E+02</pdfrwt>
<pdfrwt beam="2">  1       -1 0.67310138E-02 0.83005726E+02</pdfrwt>
<totfact> 0.50397216E+05</totfact>
</mgrwt>
</event>
<event>
 6    2  0.8544106E+000  0.8558121E+02  0.7546771E-02  0.1313920E+00
         21   -1    0    0  501  502  0.00000000000E+00  0.00000000000E+00  0.20375174848E+02  0.20375174848E+02  0.00000000000E+00 0. -1.
         -3   -1    0    0    0  501 -0.00000000000E+00 -0.00000000000E+00 -0.27127007193E+03  0.27127007193E+03  0.00000000000E+00 0.  1.
         24    2    1    2    0    0 -0.11636689102E+02 -0.29196419377E+02 -0.24519678973E+03  0.25970292587E+03  0.79600882994E+02 0.  0.
        -11    1    3    3    0    0 -0.41480066544E+02 -0.31541705444E+01 -0.16627146595E+03  0.17139645592E+03  0.00000000000E+00 0.  1.
         12    1    3    3    0    0  0.29843377441E+02 -0.26042248833E+02 -0.78925323782E+02  0.88306469952E+02  0.00000000000E+00 0. -1.
         -4    1    1    2    0  502  0.11636689102E+02  0.29196419377E+02 -0.56981073529E+01  0.31942320910E+02  0.00000000000E+00 0.  1.
<mgrwt>
<rscale>  1 0.85581213E+02</rscale>
<asrwt>0</asrwt>
<pdfrwt beam="1">  1       21 0.31346426E-02 0.85581213E+02</pdfrwt>
<pdfrwt beam="2">  1       -3 0.41733853E-01 0.85581213E+02</pdfrwt>
<totfact> 0.14958610E+05</totfact>
</mgrwt>
</event>
<event>
 6    2  0.8544106E+000  0.8278520E+02  0.7546771E-02  0.1321328E+00
          2   -1    0    0  502    0 -0.00000000000E+00  0.00000000000E+00  0.16957586504E+04  0.16957586504E+04  0.00000000000E+00 0. -1.
         21   -1    0    0  501  502  0.00000000000E+00 -0.00000000000E+00 -0.17421637911E+01  0.17421637911E+01  0.00000000000E+00 0.  1.
         24    2    1    2    0    0  0.18080082583E+02 -0.85933762585E+01  0.10842572690E+04  0.10874130836E+04  0.80328410946E+02 0.  0.
        -11    1    3    3    0    0 -0.61390974962E+01 -0.35126170965E+02  0.26751171867E+03  0.26987785391E+03  0.00000000000E+00 0.  1.
         12    1    3    3    0    0  0.24219180079E+02  0.26532794707E+02  0.81674555033E+03  0.81753522974E+03  0.00000000000E+00 0. -1.
          1    1    1    2  501    0 -0.18080082583E+02  0.85933762585E+01  0.60975921756E+03  0.61008773050E+03  0.00000000000E+00 0. -1.
<mgrwt>
<rscale>  1 0.82785199E+02</rscale>
<asrwt>0</asrwt>
<pdfrwt beam="1">  1       21 0.26802655E-03 0.82785199E+02</pdfrwt>
<pdfrwt beam="2">  1        2 0.26088463E+00 0.82785199E+02</pdfrwt>
<totfact> 0.38097049E+06</totfact>
</mgrwt>
</event>
<event>
 6    2  0.8544106E+000  0.1067699E+03  0.7546771E-02  0.1266671E+00
          2   -1    0    0  502    0 -0.00000000000E+00  0.00000000000E+00  0.61105112056E+03  0.61105112056E+03  0.00000000000E+00 0. -1.
         21   -1    0    0  501  502  0.00000000000E+00 -0.00000000000E+00 -0.13663109479E+02  0.13663109479E+02  0.00000000000E+00 0.  1.
         24    2    1    2    0    0  0.73099052702E+02  0.56628801321E+01  0.30040938278E+03  0.31881907581E+03  0.77616145982E+02 0.  0.
        -13    1    3    3    0    0  0.49196188456E+02  0.79469209743E+01  0.63614125508E+02  0.80809501147E+02  0.00000000000E+00 0.  1.
         14    1    3    3    0    0  0.23902864247E+02 -0.22840408422E+01  0.23679525728E+03  0.23800957466E+03  0.00000000000E+00 0. -1.
          1    1    1    2  501    0 -0.73099052702E+02 -0.56628801321E+01  0.29697862830E+03  0.30589515423E+03  0.00000000000E+00 0. -1.
<mgrwt>
<rscale>  1 0.10676987E+03</rscale>
<asrwt>0</asrwt>
<pdfrwt beam="1">  1       21 0.21020173E-02 0.10676987E+03</pdfrwt>
<pdfrwt beam="2">  1        2 0.94007844E-01 0.10676987E+03</pdfrwt>
<totfact> 0.67892373E+05</totfact>
</mgrwt>
</event>
<event>
 6    2  0.8544106E+000  0.8172240E+02  0.7546771E-02  0.1324233E+00
         21   -1    0    0  501  502  0.00000000000E+00  0.00000000000E+00  0.40031262808E+02  0.40031262808E+02  0.00000000000E+00 0. -1.
         -1   -1    0    0    0  501 -0.00000000000E+00 -0.00000000000E+00 -0.70940421562E+02  0.70940421562E+02  0.00000000000E+00 0.  1.
         24    2    1    2    0    0 -0.18332530524E+02  0.16777449002E+02 -0.24236865198E+02  0.85240691934E+02  0.77852331091E+02 0.  0.
        -11    1    3    3    0    0  0.34059682423E+01 -0.24817081478E+01 -0.47711471827E+02  0.47897223708E+02  0.00000000000E+00 0.  1.
         12    1    3    3    0    0 -0.21738498767E+02  0.19259157150E+02  0.23474606630E+02  0.37343468226E+02  0.00000000000E+00 0. -1.
         -2    1    1    2    0  502  0.18332530524E+02 -0.16777449002E+02 -0.66722935561E+01  0.25730992436E+02  0.00000000000E+00 0.  1.
<mgrwt>
<rscale>  1 0.81722396E+02</rscale>
<asrwt>0</asrwt>
<pdfrwt beam="1">  1       21 0.61586558E-02 0.81722396E+02</pdfrwt>
<pdfrwt beam="2">  1       -1 0.10913911E-01 0.81722396E+02</pdfrwt>
<totfact> 0.81873807E+05</totfact>
</mgrwt>
</event>
<event>
 6    2  0.8544106E+000  0.1109446E+03  0.7546771E-02  0.1258831E+00
         21   -1    0    0  501  502  0.00000000000E+00  0.00000000000E+00  0.46650766192E+02  0.46650766192E+02  0.00000000000E+00 0. -1.
          2   -1    0    0  502    0 -0.00000000000E+00 -0.00000000000E+00 -0.19204787177E+03  0.19204787177E+03  0.00000000000E+00 0. -1.
         24    2    1    2    0    0 -0.68800192931E+02 -0.35674416302E+02 -0.96681810503E+02  0.14716006413E+03  0.79388799370E+02 0.  0.
        -11    1    3    3    0    0  0.12688188242E+02 -0.78319215356E+01  0.32323816946E+01  0.15257044511E+02  0.00000000000E+00 0.  1.
         12    1    3    3    0    0 -0.81488381173E+02 -0.27842494767E+02 -0.99914192197E+02  0.13190301961E+03  0.00000000000E+00 0. -1.
          1    1    1    2  501    0  0.68800192931E+02  0.35674416302E+02 -0.48715295077E+02  0.91538573838E+02  0.00000000000E+00 0. -1.
<mgrwt>
<rscale>  1 0.11094463E+03</rscale>
<asrwt>0</asrwt>
<pdfrwt beam="1">  1       21 0.71770409E-02 0.11094463E+03</pdfrwt>
<pdfrwt beam="2">  1        2 0.29545827E-01 0.11094463E+03</pdfrwt>
<totfact> 0.30815713E+05</totfact>
</mgrwt>
</event>
<event>
 6    2  0.8544106E+000  0.6844373E+02  0.7546771E-02  0.1365467E+00
          2   -1    0    0  502    0 -0.00000000000E+00  0.00000000000E+00  0.24233174839E+03  0.24233174839E+03  0.00000000000E+00 0. -1.
         21   -1    0    0  501  502  0.00000000000E+00 -0.00000000000E+00 -0.21911355261E+02  0.21911355261E+02  0.00000000000E+00 0. -1.
         24    2    1    2    0    0 -0.16316832332E+02  0.12565934967E+02  0.23111531995E+03  0.24103700104E+03  0.65271762760E+02 0.  0.
        -11    1    3    3    0    0  0.96125561414E+01  0.21081266283E+02  0.29151377946E+02  0.37237398672E+02  0.00000000000E+00 0.  1.
         12    1    3    3    0    0 -0.25929388474E+02 -0.85153313165E+01  0.20196394201E+03  0.20379960237E+03  0.00000000000E+00 0. -1.
          1    1    1    2  501    0  0.16316832332E+02 -0.12565934967E+02 -0.10694926819E+02  0.23206102616E+02  0.00000000000E+00 0. -1.
<mgrwt>
<rscale>  1 0.68443734E+02</rscale>
<asrwt>0</asrwt>
<pdfrwt beam="1">  1       21 0.33709779E-02 0.68443734E+02</pdfrwt>
<pdfrwt beam="2">  1        2 0.37281806E-01 0.68443734E+02</pdfrwt>
<totfact> 0.80990763E+05</totfact>
</mgrwt>
</event>
<event>
 6    2  0.8544106E+000  0.7146880E+02  0.7546771E-02  0.1355168E+00
         21   -1    0    0  501  502  0.00000000000E+00  0.00000000000E+00  0.16594914027E+02  0.16594914027E+02  0.00000000000E+00 0.  1.
         -3   -1    0    0    0  501 -0.00000000000E+00 -0.00000000000E+00 -0.13436471853E+03  0.13436471853E+03  0.00000000000E+00 0.  1.
         24    2    1    2    0    0 -0.78283367387E+00  0.21119642771E+02 -0.10219685201E+03  0.12470760428E+03  0.68272526434E+02 0.  0.
        -13    1    3    3    0    0  0.21914603567E+02  0.33346099902E+02 -0.84469081327E+02  0.93419687050E+02  0.00000000000E+00 0.  1.
         14    1    3    3    0    0 -0.22697437241E+02 -0.12226457131E+02 -0.17727770679E+02  0.31287917229E+02  0.00000000000E+00 0. -1.
         -4    1    1    2    0  502  0.78283367387E+00 -0.21119642771E+02 -0.15572952500E+02  0.26252028282E+02  0.00000000000E+00 0.  1.
<mgrwt>
<rscale>  1 0.71468804E+02</rscale>
<asrwt>0</asrwt>
<pdfrwt beam="1">  1       21 0.25530637E-02 0.71468804E+02</pdfrwt>
<pdfrwt beam="2">  1       -3 0.20671495E-01 0.71468804E+02</pdfrwt>
<totfact> 0.72634004E+05</totfact>
</mgrwt>
</event>
<event>
 6    2  0.8544106E+000  0.9863055E+02  0.7546771E-02  0.1283202E+00
          2   -1    0    0  502    0 -0.00000000000E+00  0.00000000000E+00  0.62586119106E+03  0.62586119106E+03  0.00000000000E+00 0. -1.
         21   -1    0    0  501  502  0.00000000000E+00 -0.00000000000E+00 -0.10375111154E+02  0.10375111154E+02  0.00000000000E+00 0.  1.
         24    2    1    2    0    0  0.10828137479E+02  0.53030478835E+02  0.48575864313E+03  0.49567070152E+03  0.82453045550E+02 0.  0.
        -13    1    3    3    0    0 -0.11517623548E+02 -0.14792070573E+02  0.39360782985E+02  0.43597388010E+02  0.00000000000E+00 0.  1.
         14    1    3    3    0    0  0.22345761027E+02  0.67822549408E+02  0.44639786014E+03  0.45207331351E+03  0.00000000000E+00 0. -1.
          1    1    1    2  501    0 -0.10828137479E+02 -0.53030478835E+02  0.12972743678E+03  0.14056560070E+03  0.00000000000E+00 0. -1.
<mgrwt>
<rscale>  1 0.98630548E+02</rscale>
<asrwt>0</asrwt>
<pdfrwt beam="1">  1       21 0.15961714E-02 0.98630548E+02</pdfrwt>
<pdfrwt beam="2">  1        2 0.96286308E-01 0.98630548E+02</pdfrwt>
<totfact> 0.10196755E+06</totfact>
</mgrwt>
</event>
<event>
 6    2  0.8544106E+000  0.1009978E+03  0.7546771E-02  0.1278212E+00
          2   -1    0    0  502    0 -0.00000000000E+00  0.00000000000E+00  0.70397382677E+02  0.70397382677E+02  0.00000000000E+00 0. -1.
         21   -1    0    0  501  502  0.00000000000E+00 -0.00000000000E+00 -0.10790541058E+03  0.10790541058E+03  0.00000000000E+00 0.  1.
         24    2    1    2    0    0 -0.56861972736E+02 -0.21245723209E+02  0.96188940813E+01  0.10145481688E+03  0.80721075598E+02 0.  0.
        -11    1    3    3    0    0 -0.28645526354E+02  0.13978334215E+02 -0.28210677552E+02  0.42565271472E+02  0.00000000000E+00 0.  1.
         12    1    3    3    0    0 -0.28216446382E+02 -0.35224057424E+02  0.37829571633E+02  0.58889545403E+02  0.00000000000E+00 0. -1.
          1    1    1    2  501    0  0.56861972736E+02  0.21245723209E+02 -0.47126921982E+02  0.76847976379E+02  0.00000000000E+00 0. -1.
<mgrwt>
<rscale>  1 0.10099781E+03</rscale>
<asrwt>0</asrwt>
<pdfrwt beam="1">  1       21 0.16600832E-01 0.10099781E+03</pdfrwt>
<pdfrwt beam="2">  1        2 0.10830367E-01 0.10099781E+03</pdfrwt>
<totfact> 0.22084182E+05</totfact>
</mgrwt>
</event>
<event>
 6    2  0.8544106E+000  0.9030487E+02  0.7546771E-02  0.1302115E+00
         21   -1    0    0  501  502  0.00000000000E+00  0.00000000000E+00  0.18199881810E+02  0.18199881810E+02  0.00000000000E+00 0.  1.
          2   -1    0    0  502    0 -0.00000000000E+00 -0.00000000000E+00 -0.23284865082E+03  0.23284865082E+03  0.00000000000E+00 0. -1.
         24    2    1    2    0    0 -0.76627345975E+00  0.39840737939E+02 -0.14589230812E+03  0.17157952931E+03  0.81037631599E+02 0.  0.
        -11    1    3    3    0    0 -0.13782213666E+01  0.32411545475E+02 -0.79037557308E+01  0.33389775814E+02  0.00000000000E+00 0.  1.
         12    1    3    3    0    0  0.61194790681E+00  0.74291924639E+01 -0.13798855239E+03  0.13818975350E+03  0.00000000000E+00 0. -1.
          1    1    1    2  501    0  0.76627345975E+00 -0.39840737939E+02 -0.68756460892E+02  0.79469003322E+02  0.00000000000E+00 0. -1.
<mgrwt>
<rscale>  1 0.90304869E+02</rscale>
<asrwt>0</asrwt>
<pdfrwt beam="1">  1       21 0.27999818E-02 0.90304869E+02</pdfrwt>
<pdfrwt beam="2">  1        2 0.35822870E-01 0.90304869E+02</pdfrwt>
<totfact> 0.11767901E+06</totfact>
</mgrwt>
</event>
<event>
 6    2  0.8544106E+000  0.8505702E+02  0.7546771E-02  0.1315283E+00
          2   -1    0    0  502    0 -0.00000000000E+00  0.00000000000E+00  0.28479106222E+02  0.28479106222E+02  0.00000000000E+00 0. -1.
         21   -1    0    0  501  502  0.00000000000E+00 -0.00000000000E+00 -0.13574586734E+03  0.13574586734E+03  0.00000000000E+00 0.  1.
         24    2    1    2    0    0 -0.25237350742E+02 -0.98940598538E+01 -0.44808545058E+02  0.96137933340E+02  0.80621834659E+02 0.  0.
        -11    1    3    3    0    0 -0.17390054295E+02 -0.41680083695E+02 -0.44490592307E+02  0.63396026445E+02  0.00000000000E+00 0.  1.
         12    1    3    3    0    0 -0.78472964466E+01  0.31786023841E+02 -0.31795275091E+00  0.32741906895E+02  0.00000000000E+00 0. -1.
          1    1    1    2  501    0  0.25237350742E+02  0.98940598538E+01 -0.62458216063E+02  0.68087040225E+02  0.00000000000E+00 0. -1.
<mgrwt>
<rscale>  1 0.85057019E+02</rscale>
<asrwt>0</asrwt>
<pdfrwt beam="1">  1       21 0.20883980E-01 0.85057019E+02</pdfrwt>
<pdfrwt beam="2">  1        2 0.43814009E-02 0.85057019E+02</pdfrwt>
<totfact> 0.44683913E+05</totfact>
</mgrwt>
</event>
<event>
 6    2  0.8544106E+000  0.1068442E+03  0.7546771E-02  0.1266528E+00
         21   -1    0    0  501  502  0.00000000000E+00  0.00000000000E+00  0.21709359707E+02  0.21709359707E+02  0.00000000000E+00 0.  1.
          2   -1    0    0  502    0 -0.00000000000E+00 -0.00000000000E+00 -0.82019136841E+03  0.82019136841E+03  0.00000000000E+00 0. -1.
         24    2    1    2    0    0 -0.94185106423E+00  0.71129302036E+02 -0.12401599452E+03  0.16369377667E+03  0.79720893963E+02 0.  0.
        -13    1    3    3    0    0  0.55741314604E+01  0.83927695044E+02 -0.75261993401E+02  0.11286849245E+03  0.00000000000E+00 0.  1.
         14    1    3    3    0    0 -0.65159825246E+01 -0.12798393008E+02 -0.48754001115E+02  0.50825284225E+02  0.00000000000E+00 0. -1.
          1    1    1    2  501    0  0.94185106423E+00 -0.71129302036E+02 -0.67446601419E+03  0.67820695145E+03  0.00000000000E+00 0. -1.
<mgrwt>
<rscale>  1 0.10684421E+03</rscale>
<asrwt>0</asrwt>
<pdfrwt beam="1">  1       21 0.33399017E-02 0.10684421E+03</pdfrwt>
<pdfrwt beam="2">  1        2 0.12618328E+00 0.10684421E+03</pdfrwt>
<totfact> 0.22599787E+05</totfact>
</mgrwt>
</event>
<event>
 6    2  0.8544106E+000  0.8368129E+02  0.7546771E-02  0.1318918E+00
          2   -1    0    0  502    0 -0.00000000000E+00  0.00000000000E+00  0.33692060648E+04  0.33692060648E+04  0.00000000000E+00 0. -1.
         21   -1    0    0  501  502  0.00000000000E+00 -0.00000000000E+00 -0.30018803372E+01  0.30018803372E+01  0.00000000000E+00 0. -1.
         24    2    1    2    0    0 -0.19196007987E+02  0.22417929073E+02  0.32804490999E+04  0.32815162432E+04  0.78303941548E+02 0.  0.
        -13    1    3    3    0    0  0.27708047003E+01  0.48665815272E+02  0.21323534571E+04  0.21329105244E+04  0.00000000000E+00 0.  1.
         14    1    3    3    0    0 -0.21966812687E+02 -0.26247886199E+02  0.11480956428E+04  0.11486057189E+04  0.00000000000E+00 0. -1.
          1    1    1    2  501    0  0.19196007987E+02 -0.22417929073E+02  0.85755084519E+02  0.90691701867E+02  0.00000000000E+00 0. -1.
<mgrwt>
<rscale>  1 0.83681285E+02</rscale>
<asrwt>0</asrwt>
<pdfrwt beam="1">  1       21 0.46183044E-03 0.83681285E+02</pdfrwt>
<pdfrwt beam="2">  1        2 0.51833637E+00 0.83681285E+02</pdfrwt>
<totfact> 0.21209771E+05</totfact>
</mgrwt>
</event>
<event>
 6    2  0.8544106E+000  0.7593926E+02  0.7546771E-02  0.1340987E+00
          2   -1    0    0  502    0 -0.00000000000E+00  0.00000000000E+00  0.17867422929E+04  0.17867422929E+04  0.00000000000E+00 0. -1.
         21   -1    0    0  501  502  0.00000000000E+00 -0.00000000000E+00 -0.41179721160E+01  0.41179721160E+01  0.00000000000E+00 0. -1.
         24    2    1    2    0    0 -0.23861597144E+02  0.14067723252E+01  0.17425124943E+04  0.17441664384E+04  0.72079240770E+02 0.  0.
        -11    1    3    3    0    0  0.49343026791E+01  0.15526110546E+02  0.98273650693E+02  0.99614847649E+02  0.00000000000E+00 0.  1.
         12    1    3    3    0    0 -0.28795899823E+02 -0.14119338220E+02  0.16442388436E+04  0.16445515907E+04  0.00000000000E+00 0. -1.
          1    1    1    2  501    0  0.23861597144E+02 -0.14067723252E+01  0.40111826422E+02  0.46693826632E+02  0.00000000000E+00 0. -1.
<mgrwt>
<rscale>  1 0.75939264E+02</rscale>
<asrwt>0</asrwt>
<pdfrwt beam="1">  1       21 0.63353560E-03 0.75939264E+02</pdfrwt>
<pdfrwt beam="2">  1        2 0.27488281E+00 0.75939264E+02</pdfrwt>
<totfact> 0.92200349E+05</totfact>
</mgrwt>
</event>
<event>
 6    2  0.8544106E+000  0.9470225E+02  0.7546771E-02  0.1291848E+00
         21   -1    0    0  501  502  0.00000000000E+00  0.00000000000E+00  0.39744312673E+01  0.39744312673E+01  0.00000000000E+00 0. -1.
          2   -1    0    0  502    0 -0.00000000000E+00 -0.00000000000E+00 -0.12755579765E+04  0.12755579765E+04  0.00000000000E+00 0. -1.
         24    2    1    2    0    0  0.21479976313E+02  0.36482674377E+02 -0.10225326775E+04  0.10269087556E+04  0.84712105844E+02 0.  0.
        -11    1    3    3    0    0 -0.12569147548E+02 -0.21230160891E+02 -0.40510031869E+03  0.40585092263E+03  0.00000000000E+00 0.  1.
         12    1    3    3    0    0  0.34049123861E+02  0.57712835268E+02 -0.61743235885E+03  0.62105783301E+03  0.00000000000E+00 0. -1.
          1    1    1    2  501    0 -0.21479976313E+02 -0.36482674377E+02 -0.24905086774E+03  0.25262365217E+03  0.00000000000E+00 0. -1.
<mgrwt>
<rscale>  1 0.94702248E+02</rscale>
<asrwt>0</asrwt>
<pdfrwt beam="1">  1       21 0.61145021E-03 0.94702248E+02</pdfrwt>
<pdfrwt beam="2">  1        2 0.19623993E+00 0.94702248E+02</pdfrwt>
<totfact> 0.18022755E+06</totfact>
</mgrwt>
</event>
<event>
 6    2  0.8544106E+000  0.8579198E+02  0.7546771E-02  0.1313374E+00
         21   -1    0    0  501  502  0.00000000000E+00  0.00000000000E+00  0.23863803223E+03  0.23863803223E+03  0.00000000000E+00 0. -1.
          2   -1    0    0  502    0 -0.00000000000E+00 -0.00000000000E+00 -0.30222046537E+02  0.30222046537E+02  0.00000000000E+00 0. -1.
         24    2    1    2    0    0  0.20387234663E+02  0.90500558423E+01  0.32823737529E+02  0.91856744156E+02  0.82841540628E+02 0.  0.
        -11    1    3    3    0    0  0.44369439214E+02 -0.19484840215E+02  0.20226799759E+02  0.52511232731E+02  0.00000000000E+00 0.  1.
         12    1    3    3    0    0 -0.23982204551E+02  0.28534896058E+02  0.12596937770E+02  0.39345511425E+02  0.00000000000E+00 0. -1.
          1    1    1    2  501    0 -0.20387234663E+02 -0.90500558423E+01  0.17559224816E+03  0.17700333461E+03  0.00000000000E+00 0. -1.
<mgrwt>
<rscale>  1 0.85791979E+02</rscale>
<asrwt>0</asrwt>
<pdfrwt beam="1">  1       21 0.36713542E-01 0.85791979E+02</pdfrwt>
<pdfrwt beam="2">  1        2 0.46495458E-02 0.85791979E+02</pdfrwt>
<totfact> 0.14248267E+05</totfact>
</mgrwt>
</event>
<event>
 6    2  0.8544106E+000  0.8399651E+02  0.7546771E-02  0.1318078E+00
         21   -1    0    0  501  502  0.00000000000E+00  0.00000000000E+00  0.78621687191E+01  0.78621687191E+01  0.00000000000E+00 0.  1.
          2   -1    0    0  502    0 -0.00000000000E+00 -0.00000000000E+00 -0.35686049331E+03  0.35686049331E+03  0.00000000000E+00 0. -1.
         24    2    1    2    0    0 -0.19055194560E+02  0.10809887462E+02 -0.28044350320E+03  0.29275240677E+03  0.81089204422E+02 0.  0.
        -11    1    3    3    0    0  0.49115773104E+01  0.20410314981E+02 -0.14395409052E+02  0.25454515337E+02  0.00000000000E+00 0.  1.
         12    1    3    3    0    0 -0.23966771870E+02 -0.96004275184E+01 -0.26604809415E+03  0.26729789143E+03  0.00000000000E+00 0. -1.
          1    1    1    2  501    0  0.19055194560E+02 -0.10809887462E+02 -0.68554821392E+02  0.71970255264E+02  0.00000000000E+00 0. -1.
<mgrwt>
<rscale>  1 0.83996507E+02</rscale>
<asrwt>0</asrwt>
<pdfrwt beam="1">  1       21 0.12095644E-02 0.83996507E+02</pdfrwt>
<pdfrwt beam="2">  1        2 0.54901616E-01 0.83996507E+02</pdfrwt>
<totfact> 0.28444664E+06</totfact>
</mgrwt>
</event>
<event>
 6    2  0.8544106E+000  0.8923742E+02  0.7546771E-02  0.1304709E+00
          4   -1    0    0  502    0 -0.00000000000E+00  0.00000000000E+00  0.28042320574E+03  0.28042320574E+03  0.00000000000E+00 0. -1.
         21   -1    0    0  501  502  0.00000000000E+00 -0.00000000000E+00 -0.17419947899E+02  0.17419947899E+02  0.00000000000E+00 0. -1.
         24    2    1    2    0    0 -0.33629113774E+02 -0.21556141126E+02  0.22759399012E+03  0.24446337512E+03  0.79798075957E+02 0.  0.
        -11    1    3    3    0    0  0.46252652758E+01 -0.99169147934E+01 -0.22463948294E+01  0.11170701304E+02  0.00000000000E+00 0.  1.
         12    1    3    3    0    0 -0.38254379050E+02 -0.11639226333E+02  0.22984038495E+03  0.23329267382E+03  0.00000000000E+00 0. -1.
          3    1    1    2  501    0  0.33629113774E+02  0.21556141126E+02  0.35409267726E+02  0.53379778516E+02  0.00000000000E+00 0. -1.
<mgrwt>
<rscale>  1 0.89237422E+02</rscale>
<asrwt>0</asrwt>
<pdfrwt beam="1">  1       21 0.26799922E-02 0.89237422E+02</pdfrwt>
<pdfrwt beam="2">  1        4 0.43142028E-01 0.89237422E+02</pdfrwt>
<totfact> 0.14878823E+05</totfact>
</mgrwt>
</event>
<event>
 6    2  0.8544106E+000  0.9170968E+02  0.7546771E-02  0.1298763E+00
         21   -1    0    0  501  502  0.00000000000E+00  0.00000000000E+00  0.10162597583E+02  0.10162597583E+02  0.00000000000E+00 0.  1.
          2   -1    0    0  502    0 -0.00000000000E+00 -0.00000000000E+00 -0.72691865242E+03  0.72691865242E+03  0.00000000000E+00 0. -1.
         24    2    1    2    0    0 -0.41542484489E+01 -0.36926307639E+02 -0.21234067576E+03  0.23129899979E+03  0.83844229068E+02 0.  0.
        -13    1    3    3    0    0 -0.21290451939E+02  0.42415542127E+01 -0.96427563773E+01  0.23754091784E+02  0.00000000000E+00 0.  1.
         14    1    3    3    0    0  0.17136203490E+02 -0.41167861852E+02 -0.20269791938E+03  0.20754490801E+03  0.00000000000E+00 0. -1.
          1    1    1    2  501    0  0.41542484489E+01  0.36926307639E+02 -0.50441537907E+03  0.50578225020E+03  0.00000000000E+00 0. -1.
<mgrwt>
<rscale>  1 0.91709676E+02</rscale>
<asrwt>0</asrwt>
<pdfrwt beam="1">  1       21 0.15634766E-02 0.91709676E+02</pdfrwt>
<pdfrwt beam="2">  1        2 0.11183364E+00 0.91709676E+02</pdfrwt>
<totfact> 0.88079491E+05</totfact>
</mgrwt>
</event>
<event>
 6    2  0.8544106E+000  0.8747036E+02  0.7546771E-02  0.1309096E+00
          2   -1    0    0  502    0 -0.00000000000E+00  0.00000000000E+00  0.73089517876E+02  0.73089517876E+02  0.00000000000E+00 0. -1.
         21   -1    0    0  501  502  0.00000000000E+00 -0.00000000000E+00 -0.51945146079E+02  0.51945146079E+02  0.00000000000E+00 0.  1.
         24    2    1    2    0    0  0.23775154223E+02 -0.26200597304E+02  0.19494686731E+02  0.89616438163E+02  0.79995836897E+02 0.  0.
        -13    1    3    3    0    0  0.31734251901E+02 -0.51276916348E+02  0.77270200263E+01  0.60795491053E+02  0.00000000000E+00 0.  1.
         14    1    3    3    0    0 -0.79590976781E+01  0.25076319044E+02  0.11767666705E+02  0.28820947110E+02  0.00000000000E+00 0. -1.
          1    1    1    2  501    0 -0.23775154223E+02  0.26200597304E+02  0.16496850657E+01  0.35418225792E+02  0.00000000000E+00 0. -1.
<mgrwt>
<rscale>  1 0.87470356E+02</rscale>
<asrwt>0</asrwt>
<pdfrwt beam="1">  1       21 0.79915609E-02 0.87470356E+02</pdfrwt>
<pdfrwt beam="2">  1        2 0.11244541E-01 0.87470356E+02</pdfrwt>
<totfact> 0.75117386E+05</totfact>
</mgrwt>
</event>
<event>
 6    2  0.8544106E+000  0.1302337E+03  0.7546771E-02  0.1227109E+00
         -1   -1    0    0    0  501 -0.00000000000E+00  0.00000000000E+00  0.43942191044E+03  0.43942191044E+03  0.00000000000E+00 0.  1.
         21   -1    0    0  501  502  0.00000000000E+00 -0.00000000000E+00 -0.31662826072E+02  0.31662826072E+02  0.00000000000E+00 0. -1.
         24    2    1    2    0    0  0.98254955315E+02  0.29557079835E+02  0.18982170364E+03  0.23020227735E+03  0.80206933072E+02 0.  0.
        -11    1    3    3    0    0  0.10346042098E+02  0.10040455073E+02  0.10664994823E+03  0.10761999249E+03  0.00000000000E+00 0.  1.
         12    1    3    3    0    0  0.87908913216E+02  0.19516624762E+02  0.83171755410E+02  0.12258228487E+03  0.00000000000E+00 0. -1.
         -2    1    1    2    0  502 -0.98254955315E+02 -0.29557079835E+02  0.21793738073E+03  0.24088245916E+03  0.00000000000E+00 0.  1.
<mgrwt>
<rscale>  1 0.13023367E+03</rscale>
<asrwt>0</asrwt>
<pdfrwt beam="1">  1       21 0.48712043E-02 0.13023367E+03</pdfrwt>
<pdfrwt beam="2">  1       -1 0.67603367E-01 0.13023367E+03</pdfrwt>
<totfact> 0.59482429E+04</totfact>
</mgrwt>
</event>
<event>
 6    2  0.8544106E+000  0.1007523E+03  0.7546771E-02  0.1278722E+00
         21   -1    0    0  501  502  0.00000000000E+00  0.00000000000E+00  0.67822566004E+02  0.67822566004E+02  0.00000000000E+00 0.  1.
         -3   -1    0    0    0  501 -0.00000000000E+00 -0.00000000000E+00 -0.15239453592E+03  0.15239453592E+03  0.00000000000E+00 0.  1.
         24    2    1    2    0    0 -0.18616176792E+02 -0.40640521957E+02 -0.12458294279E+03  0.16022466895E+03  0.90292972274E+02 0.  0.
        -13    1    3    3    0    0 -0.63080216958E+01 -0.59241164948E+02 -0.12438863473E+03  0.13791968392E+03  0.00000000000E+00 0.  1.
         14    1    3    3    0    0 -0.12308155096E+02  0.18600642990E+02 -0.19430805867E+00  0.22304985029E+02  0.00000000000E+00 0. -1.
         -4    1    1    2    0  502  0.18616176792E+02  0.40640521957E+02  0.40010972878E+02  0.59992432972E+02  0.00000000000E+00 0.  1.
<mgrwt>
<rscale>  1 0.10075234E+03</rscale>
<asrwt>0</asrwt>
<pdfrwt beam="1">  1       21 0.10434241E-01 0.10075234E+03</pdfrwt>
<pdfrwt beam="2">  1       -3 0.23445313E-01 0.10075234E+03</pdfrwt>
<totfact> 0.58795213E+04</totfact>
</mgrwt>
</event>
<event>
 6    2  0.8544106E+000  0.8740650E+02  0.7546771E-02  0.1309257E+00
         -1   -1    0    0    0  501 -0.00000000000E+00  0.00000000000E+00  0.92169862551E+03  0.92169862551E+03  0.00000000000E+00 0.  1.
         21   -1    0    0  501  502  0.00000000000E+00 -0.00000000000E+00 -0.98659653935E+01  0.98659653935E+01  0.00000000000E+00 0.  1.
         24    2    1    2    0    0  0.28240394959E+02 -0.17301722359E+02  0.88397938201E+03  0.88829018039E+03  0.80888981014E+02 0.  0.
        -13    1    3    3    0    0  0.39908320006E+02  0.10754447445E+02  0.23551595075E+03  0.23911523415E+03  0.00000000000E+00 0.  1.
         14    1    3    3    0    0 -0.11667925046E+02 -0.28056169804E+02  0.64846343126E+03  0.64917494624E+03  0.00000000000E+00 0. -1.
         -2    1    1    2    0  502 -0.28240394959E+02  0.17301722359E+02  0.27853278099E+02  0.43274410509E+02  0.00000000000E+00 0.  1.
<mgrwt>
<rscale>  1 0.87406503E+02</rscale>
<asrwt>0</asrwt>
<pdfrwt beam="1">  1       21 0.15178416E-02 0.87406503E+02</pdfrwt>
<pdfrwt beam="2">  1       -1 0.14179972E+00 0.87406503E+02</pdfrwt>
<totfact> 0.77035111E+04</totfact>
</mgrwt>
</event>
<event>
 6    2  0.8544106E+000  0.8083541E+02  0.7546771E-02  0.1326697E+00
         -3   -1    0    0    0  501 -0.00000000000E+00  0.00000000000E+00  0.22321209885E+02  0.22321209885E+02  0.00000000000E+00 0.  1.
         21   -1    0    0  501  502  0.00000000000E+00 -0.00000000000E+00 -0.20434183743E+03  0.20434183743E+03  0.00000000000E+00 0. -1.
         24    2    1    2    0    0 -0.17170018461E+02  0.19578741629E+02 -0.56880357213E+02  0.98841985215E+02  0.76525984782E+02 0.  0.
        -11    1    3    3    0    0  0.13223638589E+02 -0.13528053442E+02  0.74803025104E+01  0.20342757264E+02  0.00000000000E+00 0.  1.
         12    1    3    3    0    0 -0.30393657051E+02  0.33106795071E+02 -0.64360659724E+02  0.78499227951E+02  0.00000000000E+00 0. -1.
         -4    1    1    2    0  502  0.17170018461E+02 -0.19578741629E+02 -0.12514027033E+03  0.12782106210E+03  0.00000000000E+00 0.  1.
<mgrwt>
<rscale>  1 0.80835407E+02</rscale>
<asrwt>0</asrwt>
<pdfrwt beam="1">  1       21 0.31437207E-01 0.80835407E+02</pdfrwt>
<pdfrwt beam="2">  1       -3 0.34340322E-02 0.80835407E+02</pdfrwt>
<totfact> 0.17769296E+05</totfact>
</mgrwt>
</event>
<event>
 6    2  0.8544106E+000  0.8376344E+02  0.7546771E-02  0.1318698E+00
         -3   -1    0    0    0  501 -0.00000000000E+00  0.00000000000E+00  0.10191673961E+02  0.10191673961E+02  0.00000000000E+00 0.  1.
         21   -1    0    0  501  502  0.00000000000E+00 -0.00000000000E+00 -0.69866549287E+03  0.69866549287E+03  0.00000000000E+00 0.  1.
         24    2    1    2    0    0 -0.12624879899E+02  0.17411253539E+02 -0.16595701386E+03  0.18589794194E+03  0.80955389106E+02 0.  0.
        -13    1    3    3    0    0 -0.13759185996E+02  0.48191784099E+02 -0.78094083699E+02  0.92792505962E+02  0.00000000000E+00 0.  1.
         14    1    3    3    0    0  0.11343060970E+01 -0.30780530560E+02 -0.87862930161E+02  0.93105435976E+02  0.00000000000E+00 0. -1.
         -4    1    1    2    0  502  0.12624879899E+02 -0.17411253539E+02 -0.52251680504E+03  0.52295922489E+03  0.00000000000E+00 0.  1.
<mgrwt>
<rscale>  1 0.83763443E+02</rscale>
<asrwt>0</asrwt>
<pdfrwt beam="1">  1       21 0.10748703E+00 0.83763443E+02</pdfrwt>
<pdfrwt beam="2">  1       -3 0.15679493E-02 0.83763443E+02</pdfrwt>
<totfact> 0.44318277E+04</totfact>
</mgrwt>
</event>
<event>
 6    2  0.8544106E+000  0.8415192E+02  0.7546771E-02  0.1317665E+00
          4   -1    0    0  502    0 -0.00000000000E+00  0.00000000000E+00  0.32354804779E+02  0.32354804779E+02  0.00000000000E+00 0. -1.
         21   -1    0    0  501  502  0.00000000000E+00 -0.00000000000E+00 -0.93776419590E+02  0.93776419590E+02  0.00000000000E+00 0.  1.
         24    2    1    2    0    0 -0.20860323147E+02  0.10991322510E+02 -0.58237341325E+02  0.10233832942E+03  0.80781083752E+02 0.  0.
        -13    1    3    3    0    0 -0.46792302570E+02  0.47691175185E+00 -0.57779628596E+02  0.74352084741E+02  0.00000000000E+00 0.  1.
         14    1    3    3    0    0  0.25931979424E+02  0.10514410759E+02 -0.45771272900E+00  0.27986244682E+02  0.00000000000E+00 0. -1.
          3    1    1    2  501    0  0.20860323147E+02 -0.10991322510E+02 -0.31842734863E+01  0.23792894947E+02  0.00000000000E+00 0. -1.
<mgrwt>
<rscale>  1 0.84151921E+02</rscale>
<asrwt>0</asrwt>
<pdfrwt beam="1">  1       21 0.14427142E-01 0.84151921E+02</pdfrwt>
<pdfrwt beam="2">  1        4 0.49776622E-02 0.84151921E+02</pdfrwt>
<totfact> 0.37135677E+05</totfact>
</mgrwt>
</event>
<event>
 6    2  0.8544106E+000  0.9596440E+02  0.7546771E-02  0.1289019E+00
         -1   -1    0    0    0  501 -0.00000000000E+00  0.00000000000E+00  0.20478918122E+02  0.20478918122E+02  0.00000000000E+00 0.  1.
         21   -1    0    0  501  502  0.00000000000E+00 -0.00000000000E+00 -0.62308532398E+03  0.62308532398E+03  0.00000000000E+00 0.  1.
         24    2    1    2    0    0  0.23127602478E+02 -0.47892082830E+02 -0.10164887478E+03  0.13979149023E+03  0.79878842008E+02 0.  0.
        -11    1    3    3    0    0  0.23944835356E+02 -0.46105374157E+01  0.48218454552E+01  0.24856837874E+02  0.00000000000E+00 0.  1.
         12    1    3    3    0    0 -0.81723287771E+00 -0.43281545414E+02 -0.10647072024E+03  0.11493465235E+03  0.00000000000E+00 0. -1.
         -2    1    1    2    0  502 -0.23127602478E+02  0.47892082830E+02 -0.50095753107E+03  0.50377275187E+03  0.00000000000E+00 0.  1.
<mgrwt>
<rscale>  1 0.95964405E+02</rscale>
<asrwt>0</asrwt>
<pdfrwt beam="1">  1       21 0.95859267E-01 0.95964405E+02</pdfrwt>
<pdfrwt beam="2">  1       -1 0.31506032E-02 0.95964405E+02</pdfrwt>
<totfact> 0.27785238E+04</totfact>
</mgrwt>
</event>
<event>
 6    2  0.8544106E+000  0.8255648E+02  0.7546771E-02  0.1321949E+00
         21   -1    0    0  501  502  0.00000000000E+00  0.00000000000E+00  0.26914410675E+02  0.26914410675E+02  0.00000000000E+00 0.  1.
          4   -1    0    0  502    0 -0.00000000000E+00 -0.00000000000E+00 -0.11575147152E+03  0.11575147152E+03  0.00000000000E+00 0. -1.
         24    2    1    2    0    0  0.20014080074E+02  0.71173858125E+01 -0.45168807596E+02  0.94105230183E+02  0.79776892557E+02 0.  0.
        -13    1    3    3    0    0  0.24171649697E+02  0.41259599448E+02 -0.30471713075E+02  0.56702279438E+02  0.00000000000E+00 0.  1.
         14    1    3    3    0    0 -0.41575696224E+01 -0.34142213635E+02 -0.14697094521E+02  0.37402950745E+02  0.00000000000E+00 0. -1.
          3    1    1    2  501    0 -0.20014080074E+02 -0.71173858125E+01 -0.43668253254E+02  0.48560652017E+02  0.00000000000E+00 0. -1.
<mgrwt>
<rscale>  1 0.82556485E+02</rscale>
<asrwt>0</asrwt>
<pdfrwt beam="1">  1       21 0.41406784E-02 0.82556485E+02</pdfrwt>
<pdfrwt beam="2">  1        4 0.17807919E-01 0.82556485E+02</pdfrwt>
<totfact> 0.37230054E+05</totfact>
</mgrwt>
</event>
<event>
 6    2  0.8544106E+000  0.8492479E+02  0.7546771E-02  0.1315629E+00
          4   -1    0    0  502    0 -0.00000000000E+00  0.00000000000E+00  0.30225570180E+02  0.30225570180E+02  0.00000000000E+00 0. -1.
         21   -1    0    0  501  502  0.00000000000E+00 -0.00000000000E+00 -0.14636748066E+03  0.14636748066E+03  0.00000000000E+00 0. -1.
         24    2    1    2    0    0 -0.28521743724E+02  0.19796082619E+02 -0.42039031990E+02  0.94760225198E+02  0.77503840659E+02 0.  0.
        -13    1    3    3    0    0  0.90562637230E+00 -0.26474009305E+02 -0.27167512462E+02  0.37944262560E+02  0.00000000000E+00 0.  1.
         14    1    3    3    0    0 -0.29427370096E+02  0.46270091924E+02 -0.14871519528E+02  0.56815962638E+02  0.00000000000E+00 0. -1.
          3    1    1    2  501    0  0.28521743724E+02 -0.19796082619E+02 -0.74102878492E+02  0.81832825644E+02  0.00000000000E+00 0. -1.
<mgrwt>
<rscale>  1 0.84924791E+02</rscale>
<asrwt>0</asrwt>
<pdfrwt beam="1">  1       21 0.22518074E-01 0.84924791E+02</pdfrwt>
<pdfrwt beam="2">  1        4 0.46500877E-02 0.84924791E+02</pdfrwt>
<totfact> 0.18509555E+05</totfact>
</mgrwt>
</event>
<event>
 6    2  0.8544106E+000  0.8232253E+02  0.7546771E-02  0.1322587E+00
          4   -1    0    0  502    0 -0.00000000000E+00  0.00000000000E+00  0.76200838388E+02  0.76200838388E+02  0.00000000000E+00 0. -1.
         21   -1    0    0  501  502  0.00000000000E+00 -0.00000000000E+00 -0.36316402381E+02  0.36316402381E+02  0.00000000000E+00 0. -1.
         24    2    1    2    0    0 -0.18112533791E+02 -0.93567156760E+01  0.41261426694E+02  0.92084225526E+02  0.79758305206E+02 0.  0.
        -13    1    3    3    0    0 -0.25685717557E+02  0.31466624567E+02  0.17331830086E+02  0.44162165733E+02  0.00000000000E+00 0.  1.
         14    1    3    3    0    0  0.75731837663E+01 -0.40823340243E+02  0.23929596608E+02  0.47922059793E+02  0.00000000000E+00 0. -1.
          3    1    1    2  501    0  0.18112533791E+02  0.93567156760E+01 -0.13769906872E+01  0.20433015243E+02  0.00000000000E+00 0. -1.
<mgrwt>
<rscale>  1 0.82322532E+02</rscale>
<asrwt>0</asrwt>
<pdfrwt beam="1">  1       21 0.55871389E-02 0.82322532E+02</pdfrwt>
<pdfrwt beam="2">  1        4 0.11723206E-01 0.82322532E+02</pdfrwt>
<totfact> 0.46505376E+05</totfact>
</mgrwt>
</event>
<event>
 6    2  0.8544106E+000  0.9196362E+02  0.7546771E-02  0.1298165E+00
         21   -1    0    0  501  502  0.00000000000E+00  0.00000000000E+00  0.10377012516E+03  0.10377012516E+03  0.00000000000E+00 0.  1.
         -1   -1    0    0    0  501 -0.00000000000E+00 -0.00000000000E+00 -0.44027904296E+02  0.44027904296E+02  0.00000000000E+00 0.  1.
         24    2    1    2    0    0 -0.42444653599E+02  0.36703841923E+00  0.33394313535E+02  0.97839090747E+02  0.81582008834E+02 0.  0.
        -13    1    3    3    0    0 -0.55269032807E+02  0.11854008035E+01 -0.67461391082E+01  0.55691844604E+02  0.00000000000E+00 0.  1.
         14    1    3    3    0    0  0.12824379208E+02 -0.81836238432E+00  0.40140452643E+02  0.42147246143E+02  0.00000000000E+00 0. -1.
         -2    1    1    2    0  502  0.42444653599E+02 -0.36703841923E+00  0.26347907329E+02  0.49958938709E+02  0.00000000000E+00 0.  1.
<mgrwt>
<rscale>  1 0.91963621E+02</rscale>
<asrwt>0</asrwt>
<pdfrwt beam="1">  1       21 0.15964635E-01 0.91963621E+02</pdfrwt>
<pdfrwt beam="2">  1       -1 0.67735238E-02 0.91963621E+02</pdfrwt>
<totfact> 0.32536412E+05</totfact>
</mgrwt>
</event>
<event>
 6    2  0.8544106E+000  0.8474101E+02  0.7546771E-02  0.1316111E+00
          2   -1    0    0  502    0 -0.00000000000E+00  0.00000000000E+00  0.31156252772E+03  0.31156252772E+03  0.00000000000E+00 0. -1.
         21   -1    0    0  501  502  0.00000000000E+00 -0.00000000000E+00 -0.12716531196E+02  0.12716531196E+02  0.00000000000E+00 0. -1.
         24    2    1    2    0    0 -0.23733903717E+02 -0.10457783754E+02  0.27910265559E+03  0.29168361540E+03  0.80674504707E+02 0.  0.
        -13    1    3    3    0    0  0.11905905926E+02  0.23395571275E+02  0.41920918944E+02  0.49461771059E+02  0.00000000000E+00 0.  1.
         14    1    3    3    0    0 -0.35639809644E+02 -0.33853355029E+02  0.23718173665E+03  0.24222184434E+03  0.00000000000E+00 0. -1.
          1    1    1    2  501    0  0.23733903717E+02  0.10457783754E+02  0.19743340934E+02  0.32595443515E+02  0.00000000000E+00 0. -1.
<mgrwt>
<rscale>  1 0.84741012E+02</rscale>
<asrwt>0</asrwt>
<pdfrwt beam="1">  1       21 0.19563897E-02 0.84741012E+02</pdfrwt>
<pdfrwt beam="2">  1        2 0.47932691E-01 0.84741012E+02</pdfrwt>
<totfact> 0.15329930E+06</totfact>
</mgrwt>
</event>
<event>
 6    2  0.8544106E+000  0.8467239E+02  0.7546771E-02  0.1316292E+00
         21   -1    0    0  501  502  0.00000000000E+00  0.00000000000E+00  0.18216800985E+03  0.18216800985E+03  0.00000000000E+00 0.  1.
          4   -1    0    0  502    0 -0.00000000000E+00 -0.00000000000E+00 -0.21021235359E+02  0.21021235359E+02  0.00000000000E+00 0. -1.
         24    2    1    2    0    0 -0.22099765523E+02  0.19311080539E+02  0.78410641585E+02  0.11540208694E+03  0.79423519750E+02 0.  0.
        -13    1    3    3    0    0 -0.24751839336E+02 -0.26195855507E+01  0.87902711189E+02  0.91358647173E+02  0.00000000000E+00 0.  1.
         14    1    3    3    0    0  0.26520738123E+01  0.21930666090E+02 -0.94920696039E+01  0.24043439771E+02  0.00000000000E+00 0. -1.
          3    1    1    2  501    0  0.22099765523E+02 -0.19311080539E+02  0.82736132907E+02  0.87787158264E+02  0.00000000000E+00 0. -1.
<mgrwt>
<rscale>  1 0.84672386E+02</rscale>
<asrwt>0</asrwt>
<pdfrwt beam="1">  1       21 0.28025847E-01 0.84672386E+02</pdfrwt>
<pdfrwt beam="2">  1        4 0.32340363E-02 0.84672386E+02</pdfrwt>
<totfact> 0.21733395E+05</totfact>
</mgrwt>
</event>
<event>
 6    2  0.8544106E+000  0.9500580E+02  0.7546771E-02  0.1291163E+00
         21   -1    0    0  501  502  0.00000000000E+00  0.00000000000E+00  0.14376437818E+02  0.14376437818E+02  0.00000000000E+00 0.  1.
          2   -1    0    0  502    0 -0.00000000000E+00 -0.00000000000E+00 -0.38386399931E+03  0.38386399931E+03  0.00000000000E+00 0. -1.
         24    2    1    2    0    0  0.71794139796E+01 -0.48614869265E+02 -0.19418665583E+03  0.21618177343E+03  0.81308993141E+02 0.  0.
        -13    1    3    3    0    0  0.33241814768E+02 -0.17320326065E+01 -0.35456013403E+02  0.48632777758E+02  0.00000000000E+00 0.  1.
         14    1    3    3    0    0 -0.26062400789E+02 -0.46882836659E+02 -0.15873064242E+03  0.16754899568E+03  0.00000000000E+00 0. -1.
          1    1    1    2  501    0 -0.71794139796E+01  0.48614869265E+02 -0.17530090566E+03  0.18205866369E+03  0.00000000000E+00 0. -1.
<mgrwt>
<rscale>  1 0.95005799E+02</rscale>
<asrwt>0</asrwt>
<pdfrwt beam="1">  1       21 0.22117594E-02 0.95005799E+02</pdfrwt>
<pdfrwt beam="2">  1        2 0.59056007E-01 0.95005799E+02</pdfrwt>
<totfact> 0.10248577E+06</totfact>
</mgrwt>
</event>
<event>
 6    2  0.8544106E+000  0.9777517E+02  0.7546771E-02  0.1285045E+00
         21   -1    0    0  501  502  0.00000000000E+00  0.00000000000E+00  0.79973383513E+03  0.79973383513E+03  0.00000000000E+00 0.  1.
         -3   -1    0    0    0  501 -0.00000000000E+00 -0.00000000000E+00 -0.86514416535E+01  0.86514416535E+01  0.00000000000E+00 0.  1.
         24    2    1    2    0    0 -0.12723028028E+02  0.51430942234E+02  0.32746384693E+03  0.34174925807E+03  0.82176438730E+02 0.  0.
        -11    1    3    3    0    0  0.19752938453E+02  0.60362716405E+02  0.23110029981E+03  0.23966890638E+03  0.00000000000E+00 0.  1.
         12    1    3    3    0    0 -0.32475966481E+02 -0.89317741713E+01  0.96363547115E+02  0.10208035169E+03  0.00000000000E+00 0. -1.
         -4    1    1    2    0  502  0.12723028028E+02 -0.51430942234E+02  0.46361854655E+03  0.46663601872E+03  0.00000000000E+00 0.  1.
<mgrwt>
<rscale>  1 0.97775172E+02</rscale>
<asrwt>0</asrwt>
<pdfrwt beam="1">  1       21 0.12303592E+00 0.97775172E+02</pdfrwt>
<pdfrwt beam="2">  1       -3 0.13309917E-02 0.97775172E+02</pdfrwt>
<totfact> 0.41568147E+04</totfact>
</mgrwt>
</event>
<event>
 6    2  0.8544106E+000  0.8431865E+02  0.7546771E-02  0.1317224E+00
         -3   -1    0    0    0  501 -0.00000000000E+00  0.00000000000E+00  0.42694626804E+02  0.42694626804E+02  0.00000000000E+00 0.  1.
         21   -1    0    0  501  502  0.00000000000E+00 -0.00000000000E+00 -0.91887189026E+02  0.91887189026E+02  0.00000000000E+00 0.  1.
         24    2    1    2    0    0 -0.21026883339E+02  0.18513203638E+02 -0.79074183794E+01  0.84688613548E+02  0.79528394095E+02 0.  0.
        -11    1    3    3    0    0  0.14027253621E+02  0.29425497733E+02  0.20289759024E+02  0.38396589461E+02  0.00000000000E+00 0.  1.
         12    1    3    3    0    0 -0.35054136961E+02 -0.10912294096E+02 -0.28197177403E+02  0.46292024087E+02  0.00000000000E+00 0. -1.
         -4    1    1    2    0  502  0.21026883339E+02 -0.18513203638E+02 -0.41285143842E+02  0.49893202282E+02  0.00000000000E+00 0.  1.
<mgrwt>
<rscale>  1 0.84318646E+02</rscale>
<asrwt>0</asrwt>
<pdfrwt beam="1">  1       21 0.14136491E-01 0.84318646E+02</pdfrwt>
<pdfrwt beam="2">  1       -3 0.65684041E-02 0.84318646E+02</pdfrwt>
<totfact> 0.28243028E+05</totfact>
</mgrwt>
</event>
<event>
 6    2  0.8544106E+000  0.8630507E+02  0.7546771E-02  0.1312054E+00
         -1   -1    0    0    0  501 -0.00000000000E+00  0.00000000000E+00  0.29578572234E+03  0.29578572234E+03  0.00000000000E+00 0.  1.
         21   -1    0    0  501  502  0.00000000000E+00 -0.00000000000E+00 -0.14521735747E+02  0.14521735747E+02  0.00000000000E+00 0. -1.
         24    2    1    2    0    0 -0.27381169202E+02 -0.25055356830E+02  0.14188940769E+03  0.16607579521E+03  0.77917048239E+02 0.  0.
        -13    1    3    3    0    0 -0.62196221200E+01 -0.51399165914E+02  0.96215538527E+02  0.10926109925E+03  0.00000000000E+00 0.  1.
         14    1    3    3    0    0 -0.21161547082E+02  0.26343809084E+02  0.45673869161E+02  0.56814695952E+02  0.00000000000E+00 0. -1.
         -2    1    1    2    0  502  0.27381169202E+02  0.25055356830E+02  0.13937457890E+03  0.14423166288E+03  0.00000000000E+00 0.  1.
<mgrwt>
<rscale>  1 0.86305074E+02</rscale>
<asrwt>0</asrwt>
<pdfrwt beam="1">  1       21 0.22341134E-02 0.86305074E+02</pdfrwt>
<pdfrwt beam="2">  1       -1 0.45505491E-01 0.86305074E+02</pdfrwt>
<totfact> 0.43267049E+05</totfact>
</mgrwt>
</event>
<event>
 6    2  0.8544106E+000  0.1409814E+03  0.7546771E-02  0.1212015E+00
         21   -1    0    0  501  502  0.00000000000E+00  0.00000000000E+00  0.10806011731E+02  0.10806011731E+02  0.00000000000E+00 0. -1.
          2   -1    0    0  502    0 -0.00000000000E+00 -0.00000000000E+00 -0.15624429191E+04  0.15624429191E+04  0.00000000000E+00 0. -1.
         24    2    1    2    0    0 -0.23227733873E+02 -0.11337060787E+03 -0.97217173895E+03  0.98234089758E+03  0.80519107645E+02 0.  0.
        -13    1    3    3    0    0  0.54715492054E+01 -0.40759862106E+01 -0.46827611254E+01  0.82752502109E+01  0.00000000000E+00 0.  1.
         14    1    3    3    0    0 -0.28699283079E+02 -0.10929462166E+03 -0.96748897782E+03  0.97406564736E+03  0.00000000000E+00 0. -1.
          1    1    1    2  501    0  0.23227733873E+02  0.11337060787E+03 -0.57946516838E+03  0.59090803321E+03  0.00000000000E+00 0. -1.
<mgrwt>
<rscale>  1 0.14098138E+03</rscale>
<asrwt>0</asrwt>
<pdfrwt beam="1">  1       21 0.16624635E-02 0.14098138E+03</pdfrwt>
<pdfrwt beam="2">  1        2 0.24037581E+00 0.14098138E+03</pdfrwt>
<totfact> 0.26952393E+05</totfact>
</mgrwt>
</event>
<event>
 6    2  0.8544106E+000  0.8853780E+02  0.7546771E-02  0.1306432E+00
         -1   -1    0    0    0  501 -0.00000000000E+00  0.00000000000E+00  0.29452255712E+03  0.29452255712E+03  0.00000000000E+00 0.  1.
         21   -1    0    0  501  502  0.00000000000E+00 -0.00000000000E+00 -0.18315448986E+02  0.18315448986E+02  0.00000000000E+00 0. -1.
         24    2    1    2    0    0 -0.12552529776E+02 -0.36176311745E+02  0.25304147146E+03  0.26808380789E+03  0.79828880980E+02 0.  0.
        -11    1    3    3    0    0 -0.10990687662E+02 -0.25087254391E+02  0.25521150044E+03  0.25667698671E+03  0.00000000000E+00 0.  1.
         12    1    3    3    0    0 -0.15618421132E+01 -0.11089057354E+02 -0.21700289767E+01  0.11406821185E+02  0.00000000000E+00 0. -1.
         -2    1    1    2    0  502  0.12552529776E+02  0.36176311745E+02  0.23165636667E+02  0.44754198210E+02  0.00000000000E+00 0.  1.
<mgrwt>
<rscale>  1 0.88537799E+02</rscale>
<asrwt>0</asrwt>
<pdfrwt beam="1">  1       21 0.28177616E-02 0.88537799E+02</pdfrwt>
<pdfrwt beam="2">  1       -1 0.45311159E-01 0.88537799E+02</pdfrwt>
<totfact> 0.30063048E+05</totfact>
</mgrwt>
</event>
<event>
 6    2  0.8544106E+000  0.8647314E+02  0.7546771E-02  0.1311624E+00
         21   -1    0    0  501  502  0.00000000000E+00  0.00000000000E+00  0.10481268074E+01  0.10481268074E+01  0.00000000000E+00 0.  1.
          2   -1    0    0  502    0 -0.00000000000E+00 -0.00000000000E+00 -0.33920744317E+04  0.33920744317E+04  0.00000000000E+00 0. -1.
         24    2    1    2    0    0 -0.93355846993E+01  0.30530794615E+02 -0.26456994477E+04  0.26471122324E+04  0.80363679349E+02 0.  0.
        -13    1    3    3    0    0 -0.25556200106E+02  0.29820557469E+02 -0.57089296631E+03  0.57224222494E+03  0.00000000000E+00 0.  1.
         14    1    3    3    0    0  0.16220615407E+02  0.71023714548E+00 -0.20748064814E+04  0.20748700075E+04  0.00000000000E+00 0. -1.
          1    1    1    2  501    0  0.93355846993E+01 -0.30530794615E+02 -0.74532685717E+03  0.74601032605E+03  0.00000000000E+00 0. -1.
<mgrwt>
<rscale>  1 0.86473138E+02</rscale>
<asrwt>0</asrwt>
<pdfrwt beam="1">  1       21 0.16125373E-03 0.86473138E+02</pdfrwt>
<pdfrwt beam="2">  1        2 0.52184643E+00 0.86473138E+02</pdfrwt>
<totfact> 0.10029586E+06</totfact>
</mgrwt>
</event>
<event>
 6    2  0.8544106E+000  0.9470734E+02  0.7546771E-02  0.1291837E+00
         21   -1    0    0  501  502  0.00000000000E+00  0.00000000000E+00  0.13809871072E+02  0.13809871072E+02  0.00000000000E+00 0.  1.
         -1   -1    0    0    0  501 -0.00000000000E+00 -0.00000000000E+00 -0.41556788323E+03  0.41556788323E+03  0.00000000000E+00 0.  1.
         24    2    1    2    0    0 -0.31935511305E+02  0.39780075873E+02 -0.31288713241E+03  0.32690646766E+03  0.79794421184E+02 0.  0.
        -11    1    3    3    0    0 -0.55211224784E+02  0.44478956621E+02 -0.23945844567E+03  0.24973386660E+03  0.00000000000E+00 0.  1.
         12    1    3    3    0    0  0.23275713478E+02 -0.46988807484E+01 -0.73428686736E+02  0.77172601058E+02  0.00000000000E+00 0. -1.
         -2    1    1    2    0  502  0.31935511305E+02 -0.39780075873E+02 -0.88870879747E+02  0.10247128664E+03  0.00000000000E+00 0.  1.
<mgrwt>
<rscale>  1 0.94707344E+02</rscale>
<asrwt>0</asrwt>
<pdfrwt beam="1">  1       21 0.21245959E-02 0.94707344E+02</pdfrwt>
<pdfrwt beam="2">  1       -1 0.63933511E-01 0.94707344E+02</pdfrwt>
<totfact> 0.25336908E+05</totfact>
</mgrwt>
</event>
<event>
 6    2  0.8544106E+000  0.8697767E+02  0.7546771E-02  0.1310340E+00
          2   -1    0    0  502    0 -0.00000000000E+00  0.00000000000E+00  0.95705187281E+02  0.95705187281E+02  0.00000000000E+00 0. -1.
         21   -1    0    0  501  502  0.00000000000E+00 -0.00000000000E+00 -0.57930178341E+02  0.57930178341E+02  0.00000000000E+00 0.  1.
         24    2    1    2    0    0 -0.87456897103E+01  0.33470824369E+02  0.65841008233E+02  0.10908782373E+03  0.79801827976E+02 0.  0.
        -13    1    3    3    0    0  0.20063499272E+02 -0.49849954211E+01 -0.69995753493E+01  0.21826319833E+02  0.00000000000E+00 0.  1.
         14    1    3    3    0    0 -0.28809188983E+02  0.38455819790E+02  0.72840583582E+02  0.87261503896E+02  0.00000000000E+00 0. -1.
          1    1    1    2  501    0  0.87456897103E+01 -0.33470824369E+02 -0.28065999293E+02  0.44547541894E+02  0.00000000000E+00 0. -1.
<mgrwt>
<rscale>  1 0.86977669E+02</rscale>
<asrwt>0</asrwt>
<pdfrwt beam="1">  1       21 0.89123351E-02 0.86977669E+02</pdfrwt>
<pdfrwt beam="2">  1        2 0.14723875E-01 0.86977669E+02</pdfrwt>
<totfact> 0.45363992E+05</totfact>
</mgrwt>
</event>
<event>
 6    2  0.8544106E+000  0.9456845E+02  0.7546771E-02  0.1292151E+00
          2   -1    0    0  502    0 -0.00000000000E+00  0.00000000000E+00  0.49258823822E+04  0.49258823822E+04  0.00000000000E+00 0. -1.
         21   -1    0    0  501  502  0.00000000000E+00 -0.00000000000E+00 -0.22791881501E+01  0.22791881501E+01  0.00000000000E+00 0. -1.
         24    2    1    2    0    0 -0.27882813762E+02 -0.44864018892E+02  0.45348671175E+04  0.45358530582E+04  0.78440810194E+02 0.  0.
        -13    1    3    3    0    0 -0.73988497542E+00  0.15087468851E+02  0.22181098834E+04  0.22181613183E+04  0.00000000000E+00 0.  1.
         14    1    3    3    0    0 -0.27142928787E+02 -0.59951487743E+02  0.23167572341E+04  0.23176917399E+04  0.00000000000E+00 0. -1.
          1    1    1    2  501    0  0.27882813762E+02  0.44864018892E+02  0.38873607660E+03  0.39230851220E+03  0.00000000000E+00 0. -1.
<mgrwt>
<rscale>  1 0.94568452E+02</rscale>
<asrwt>0</asrwt>
<pdfrwt beam="1">  1       21 0.35064827E-03 0.94568452E+02</pdfrwt>
<pdfrwt beam="2">  1        2 0.75781954E+00 0.94568452E+02</pdfrwt>
<totfact> 0.17830519E+04</totfact>
</mgrwt>
</event>
<event>
 6    2  0.8544106E+000  0.8473258E+02  0.7546771E-02  0.1316133E+00
          2   -1    0    0  502    0 -0.00000000000E+00  0.00000000000E+00  0.55375691685E+03  0.55375691685E+03  0.00000000000E+00 0. -1.
         21   -1    0    0  501  502  0.00000000000E+00 -0.00000000000E+00 -0.54018575375E+01  0.54018575375E+01  0.00000000000E+00 0.  1.
         24    2    1    2    0    0 -0.16502158360E+02 -0.18163684409E+02  0.43548769756E+03  0.44365430690E+03  0.81100978035E+02 0.  0.
        -11    1    3    3    0    0  0.12585176997E+02 -0.29047105402E+02  0.69716948455E+02  0.76567446831E+02  0.00000000000E+00 0.  1.
         12    1    3    3    0    0 -0.29087335357E+02  0.10883420994E+02  0.36577074911E+03  0.36708686007E+03  0.00000000000E+00 0. -1.
          1    1    1    2  501    0  0.16502158360E+02  0.18163684409E+02  0.11286736175E+03  0.11550446749E+03  0.00000000000E+00 0. -1.
<mgrwt>
<rscale>  1 0.84732575E+02</rscale>
<asrwt>0</asrwt>
<pdfrwt beam="1">  1       21 0.83105544E-03 0.84732575E+02</pdfrwt>
<pdfrwt beam="2">  1        2 0.85193327E-01 0.84732575E+02</pdfrwt>
<totfact> 0.32052914E+06</totfact>
</mgrwt>
</event>
<event>
 6    2  0.8544106E+000  0.8868350E+02  0.7546771E-02  0.1306071E+00
         -1   -1    0    0    0  501 -0.00000000000E+00  0.00000000000E+00  0.36797293314E+02  0.36797293314E+02  0.00000000000E+00 0.  1.
         21   -1    0    0  501  502  0.00000000000E+00 -0.00000000000E+00 -0.30178537739E+03  0.30178537739E+03  0.00000000000E+00 0.  1.
         24    2    1    2    0    0 -0.68706198679E+01  0.35604978497E+02 -0.19980833492E+02  0.90906525808E+02  0.80931099191E+02 0.  0.
        -13    1    3    3    0    0 -0.55100046626E+01  0.55127158862E+02  0.88064693500E+01  0.56097394752E+02  0.00000000000E+00 0.  1.
         14    1    3    3    0    0 -0.13606152053E+01 -0.19522180365E+02 -0.28787302842E+02  0.34809131056E+02  0.00000000000E+00 0. -1.
         -2    1    1    2    0  502  0.68706198679E+01 -0.35604978497E+02 -0.24500725058E+03  0.24767614490E+03  0.00000000000E+00 0.  1.
<mgrwt>
<rscale>  1 0.88683497E+02</rscale>
<asrwt>0</asrwt>
<pdfrwt beam="1">  1       21 0.46428519E-01 0.88683497E+02</pdfrwt>
<pdfrwt beam="2">  1       -1 0.56611221E-02 0.88683497E+02</pdfrwt>
<totfact> 0.55936589E+04</totfact>
</mgrwt>
</event>
<event>
 6    2  0.8544106E+000  0.9833981E+02  0.7546771E-02  0.1283826E+00
         -1   -1    0    0    0  501 -0.00000000000E+00  0.00000000000E+00  0.24219012375E+03  0.24219012375E+03  0.00000000000E+00 0.  1.
         21   -1    0    0  501  502  0.00000000000E+00 -0.00000000000E+00 -0.43206641427E+02  0.43206641427E+02  0.00000000000E+00 0. -1.
         24    2    1    2    0    0  0.94336627249E+01 -0.55652499114E+02  0.23569989811E+02  0.10112498762E+03  0.80526542523E+02 0.  0.
        -13    1    3    3    0    0  0.22670642616E+02  0.10628748095E+02 -0.83265126777E+01  0.26386722723E+02  0.00000000000E+00 0.  1.
         14    1    3    3    0    0 -0.13236979892E+02 -0.66281247209E+02  0.31896502489E+02  0.74738264893E+02  0.00000000000E+00 0. -1.
         -2    1    1    2    0  502 -0.94336627249E+01  0.55652499114E+02  0.17541349251E+03  0.18427177756E+03  0.00000000000E+00 0.  1.
<mgrwt>
<rscale>  1 0.98339812E+02</rscale>
<asrwt>0</asrwt>
<pdfrwt beam="1">  1       21 0.66471757E-02 0.98339812E+02</pdfrwt>
<pdfrwt beam="2">  1       -1 0.37260018E-01 0.98339812E+02</pdfrwt>
<totfact> 0.10299608E+05</totfact>
</mgrwt>
</event>
<event>
 6    2  0.8544106E+000  0.8926207E+02  0.7546771E-02  0.1304649E+00
         21   -1    0    0  501  502  0.00000000000E+00  0.00000000000E+00  0.26451249595E+02  0.26451249595E+02  0.00000000000E+00 0.  1.
         -1   -1    0    0    0  501 -0.00000000000E+00 -0.00000000000E+00 -0.20233390146E+03  0.20233390146E+03  0.00000000000E+00 0.  1.
         24    2    1    2    0    0  0.21660226531E+02  0.34370081197E+02 -0.16355919176E+03  0.18633122822E+03  0.79481126732E+02 0.  0.
        -11    1    3    3    0    0  0.25868183276E+02  0.35263778934E+02 -0.17166834929E+03  0.17715168404E+03  0.00000000000E+00 0.  1.
         12    1    3    3    0    0 -0.42079567451E+01 -0.89369773775E+00  0.81091575269E+01  0.91795441832E+01  0.00000000000E+00 0. -1.
         -2    1    1    2    0  502 -0.21660226531E+02 -0.34370081197E+02 -0.12323460103E+02  0.42453922831E+02  0.00000000000E+00 0.  1.
<mgrwt>
<rscale>  1 0.89262071E+02</rscale>
<asrwt>0</asrwt>
<pdfrwt beam="1">  1       21 0.40694232E-02 0.89262071E+02</pdfrwt>
<pdfrwt beam="2">  1       -1 0.31128291E-01 0.89262071E+02</pdfrwt>
<totfact> 0.31447508E+05</totfact>
</mgrwt>
</event>
<event>
 6    2  0.8544106E+000  0.8185328E+02  0.7546771E-02  0.1323873E+00
          2   -1    0    0  502    0 -0.00000000000E+00  0.00000000000E+00  0.14666011300E+04  0.14666011300E+04  0.00000000000E+00 0. -1.
         21   -1    0    0  501  502  0.00000000000E+00 -0.00000000000E+00 -0.18222148191E+01  0.18222148191E+01  0.00000000000E+00 0.  1.
         24    2    1    2    0    0 -0.20761589388E+02  0.73129636715E+00  0.12337354439E+04  0.12364477771E+04  0.79173111715E+02 0.  0.
        -11    1    3    3    0    0  0.91096557820E+01 -0.21857014087E+02  0.13408741744E+03  0.13616222093E+03  0.00000000000E+00 0.  1.
         12    1    3    3    0    0 -0.29871245170E+02  0.22588310455E+02  0.10996480264E+04  0.11002855561E+04  0.00000000000E+00 0. -1.
          1    1    1    2  501    0  0.20761589388E+02 -0.73129636715E+00  0.23104347129E+03  0.23197556771E+03  0.00000000000E+00 0. -1.
<mgrwt>
<rscale>  1 0.81853283E+02</rscale>
<asrwt>0</asrwt>
<pdfrwt beam="1">  1       21 0.28034191E-03 0.81853283E+02</pdfrwt>
<pdfrwt beam="2">  1        2 0.22563000E+00 0.81853283E+02</pdfrwt>
<totfact> 0.46415678E+06</totfact>
</mgrwt>
</event>
<event>
 6    2  0.8544106E+000  0.8634174E+02  0.7546771E-02  0.1311961E+00
          2   -1    0    0  502    0 -0.00000000000E+00  0.00000000000E+00  0.14749645239E+04  0.14749645239E+04  0.00000000000E+00 0. -1.
         21   -1    0    0  501  502  0.00000000000E+00 -0.00000000000E+00 -0.69256767487E+01  0.69256767487E+01  0.00000000000E+00 0. -1.
         24    2    1    2    0    0  0.30049209371E+01  0.39387211284E+02  0.14039717362E+04  0.14066241614E+04  0.76775734046E+02 0.  0.
        -13    1    3    3    0    0  0.10577669660E+02  0.26461075224E+02  0.15717719983E+03  0.15973962484E+03  0.00000000000E+00 0.  1.
         14    1    3    3    0    0 -0.75727487228E+01  0.12926136060E+02  0.12467945364E+04  0.12468845365E+04  0.00000000000E+00 0. -1.
          1    1    1    2  501    0 -0.30049209371E+01 -0.39387211284E+02  0.64067110928E+02  0.75266039256E+02  0.00000000000E+00 0. -1.
<mgrwt>
<rscale>  1 0.86341736E+02</rscale>
<asrwt>0</asrwt>
<pdfrwt beam="1">  1       21 0.10654899E-02 0.86341736E+02</pdfrwt>
<pdfrwt beam="2">  1        2 0.22691737E+00 0.86341736E+02</pdfrwt>
<totfact> 0.59514804E+05</totfact>
</mgrwt>
</event>
<event>
 6    2  0.8544106E+000  0.8819958E+02  0.7546771E-02  0.1307271E+00
         21   -1    0    0  501  502  0.00000000000E+00  0.00000000000E+00  0.35114942698E+02  0.35114942698E+02  0.00000000000E+00 0.  1.
          2   -1    0    0  502    0 -0.00000000000E+00 -0.00000000000E+00 -0.91834082020E+02  0.91834082020E+02  0.00000000000E+00 0. -1.
         24    2    1    2    0    0  0.22258481026E+02  0.90190401751E+01 -0.52268038774E+02  0.10252372309E+03  0.84866853698E+02 0.  0.
        -11    1    3    3    0    0  0.32107760824E+01 -0.24031510925E+02  0.12559956784E+02  0.27305221384E+02  0.00000000000E+00 0.  1.
         12    1    3    3    0    0  0.19047704944E+02  0.33050551100E+02 -0.64827995558E+02  0.75218501711E+02  0.00000000000E+00 0. -1.
          1    1    1    2  501    0 -0.22258481026E+02 -0.90190401751E+01 -0.44511005481E+01  0.24425301623E+02  0.00000000000E+00 0. -1.
<mgrwt>
<rscale>  1 0.88199580E+02</rscale>
<asrwt>0</asrwt>
<pdfrwt beam="1">  1       21 0.54022989E-02 0.88199580E+02</pdfrwt>
<pdfrwt beam="2">  1        2 0.14128320E-01 0.88199580E+02</pdfrwt>
<totfact> 0.11122546E+06</totfact>
</mgrwt>
</event>
<event>
 6    2  0.8544106E+000  0.8602189E+02  0.7546771E-02  0.1312782E+00
          2   -1    0    0  502    0 -0.00000000000E+00  0.00000000000E+00  0.18134853895E+04  0.18134853895E+04  0.00000000000E+00 0. -1.
         21   -1    0    0  501  502  0.00000000000E+00 -0.00000000000E+00 -0.20597574742E+01  0.20597574742E+01  0.00000000000E+00 0. -1.
         24    2    1    2    0    0 -0.95699841206E+01 -0.34577546504E+02  0.12149468865E+04  0.12179883838E+04  0.78182957248E+02 0.  0.
        -11    1    3    3    0    0  0.14469551699E+02  0.44116060334E+01  0.52408026163E+02  0.54547515071E+02  0.00000000000E+00 0.  1.
         12    1    3    3    0    0 -0.24039535820E+02 -0.38989152538E+02  0.11625388603E+04  0.11634408687E+04  0.00000000000E+00 0. -1.
          1    1    1    2  501    0  0.95699841206E+01  0.34577546504E+02  0.59647874554E+03  0.59755676317E+03  0.00000000000E+00 0. -1.
<mgrwt>
<rscale>  1 0.86021893E+02</rscale>
<asrwt>0</asrwt>
<pdfrwt beam="1">  1       21 0.31688722E-03 0.86021893E+02</pdfrwt>
<pdfrwt beam="2">  1        2 0.27899648E+00 0.86021893E+02</pdfrwt>
<totfact> 0.25921683E+06</totfact>
</mgrwt>
</event>
<event>
 6    2  0.8544106E+000  0.1075338E+03  0.7546771E-02  0.1265206E+00
         21   -1    0    0  501  502  0.00000000000E+00  0.00000000000E+00  0.16258878430E+03  0.16258878430E+03  0.00000000000E+00 0.  1.
         -1   -1    0    0    0  501 -0.00000000000E+00 -0.00000000000E+00 -0.14537146790E+03  0.14537146790E+03  0.00000000000E+00 0.  1.
         24    2    1    2    0    0 -0.65264743604E+02  0.26685021863E+02 -0.11541725880E+03  0.15774870907E+03  0.81190728751E+02 0.  0.
        -11    1    3    3    0    0 -0.64055258183E+02  0.48256371494E+02 -0.10877897357E+03  0.13514665583E+03  0.00000000000E+00 0.  1.
         12    1    3    3    0    0 -0.12094854212E+01 -0.21571349631E+02 -0.66382852259E+01  0.22602053239E+02  0.00000000000E+00 0. -1.
         -2    1    1    2    0  502  0.65264743604E+02 -0.26685021863E+02  0.13263457520E+03  0.15021154313E+03  0.00000000000E+00 0.  1.
<mgrwt>
<rscale>  1 0.10753377E+03</rscale>
<asrwt>0</asrwt>
<pdfrwt beam="1">  1       21 0.25013659E-01 0.10753377E+03</pdfrwt>
<pdfrwt beam="2">  1       -1 0.22364841E-01 0.10753377E+03</pdfrwt>
<totfact> 0.22932541E+04</totfact>
</mgrwt>
</event>
<event>
 6    2  0.8544106E+000  0.9696946E+02  0.7546771E-02  0.1286801E+00
         -3   -1    0    0    0  501 -0.00000000000E+00  0.00000000000E+00  0.18592617099E+03  0.18592617099E+03  0.00000000000E+00 0.  1.
         21   -1    0    0  501  502  0.00000000000E+00 -0.00000000000E+00 -0.39255392604E+02  0.39255392604E+02  0.00000000000E+00 0. -1.
         24    2    1    2    0    0 -0.24024179594E+02  0.53488837608E+02  0.42996971179E+02  0.10607457281E+03  0.77232496473E+02 0.  0.
        -11    1    3    3    0    0 -0.31955739741E+02  0.11032040515E+02  0.51934462217E+02  0.61968246595E+02  0.00000000000E+00 0.  1.
         12    1    3    3    0    0  0.79315601468E+01  0.42456797093E+02 -0.89374910381E+01  0.44106326210E+02  0.00000000000E+00 0. -1.
         -4    1    1    2    0  502  0.24024179594E+02 -0.53488837608E+02  0.10367380720E+03  0.11910699079E+03  0.00000000000E+00 0.  1.
<mgrwt>
<rscale>  1 0.96969456E+02</rscale>
<asrwt>0</asrwt>
<pdfrwt beam="1">  1       21 0.60392913E-02 0.96969456E+02</pdfrwt>
<pdfrwt beam="2">  1       -3 0.28604026E-01 0.96969456E+02</pdfrwt>
<totfact> 0.10430324E+05</totfact>
</mgrwt>
</event>
<event>
 6    2  0.8544106E+000  0.1166777E+03  0.7546771E-02  0.1248681E+00
          2   -1    0    0  502    0 -0.00000000000E+00  0.00000000000E+00  0.90663089491E+03  0.90663089491E+03  0.00000000000E+00 0. -1.
         21   -1    0    0  501  502  0.00000000000E+00 -0.00000000000E+00 -0.13223825618E+02  0.13223825618E+02  0.00000000000E+00 0. -1.
         24    2    1    2    0    0 -0.54881919615E+02 -0.66241030895E+02  0.67693575387E+03  0.68691754085E+03  0.78827620719E+02 0.  0.
        -13    1    3    3    0    0  0.84283797285E+01  0.79696534434E+01  0.23138088375E+02  0.25882891927E+02  0.00000000000E+00 0.  1.
         14    1    3    3    0    0 -0.63310299344E+02 -0.74210684338E+02  0.65379766550E+03  0.66103464893E+03  0.00000000000E+00 0. -1.
          1    1    1    2  501    0  0.54881919615E+02  0.66241030895E+02  0.21647131542E+03  0.23293717967E+03  0.00000000000E+00 0. -1.
<mgrwt>
<rscale>  1 0.11667773E+03</rscale>
<asrwt>0</asrwt>
<pdfrwt beam="1">  1       21 0.20344354E-02 0.11667773E+03</pdfrwt>
<pdfrwt beam="2">  1        2 0.13948163E+00 0.11667773E+03</pdfrwt>
<totfact> 0.44710360E+05</totfact>
</mgrwt>
</event>
<event>
 6    2  0.8544106E+000  0.8264315E+02  0.7546771E-02  0.1321714E+00
         21   -1    0    0  501  502  0.00000000000E+00  0.00000000000E+00  0.52937726531E+01  0.52937726531E+01  0.00000000000E+00 0. -1.
         -1   -1    0    0    0  501 -0.00000000000E+00 -0.00000000000E+00 -0.51720148328E+03  0.51720148328E+03  0.00000000000E+00 0.  1.
         24    2    1    2    0    0  0.35580120952E+01  0.20267139027E+02 -0.44033975422E+03  0.44802788886E+03  0.80040450250E+02 0.  0.
        -13    1    3    3    0    0 -0.24848693404E+02  0.35721330410E+02 -0.33560674155E+03  0.33841595113E+03  0.00000000000E+00 0.  1.
         14    1    3    3    0    0  0.28406705499E+02 -0.15454191383E+02 -0.10473301267E+03  0.10961193772E+03  0.00000000000E+00 0. -1.
         -2    1    1    2    0  502 -0.35580120952E+01 -0.20267139027E+02 -0.71567956412E+02  0.74467367078E+02  0.00000000000E+00 0.  1.
<mgrwt>
<rscale>  1 0.82643149E+02</rscale>
<asrwt>0</asrwt>
<pdfrwt beam="1">  1       21 0.81442631E-03 0.82643149E+02</pdfrwt>
<pdfrwt beam="2">  1       -1 0.79569484E-01 0.82643149E+02</pdfrwt>
<totfact> 0.73755772E+05</totfact>
</mgrwt>
</event>
<event>
 6    2  0.8544106E+000  0.8627045E+02  0.7546771E-02  0.1312143E+00
          2   -1    0    0  502    0 -0.00000000000E+00  0.00000000000E+00  0.33484659824E+04  0.33484659824E+04  0.00000000000E+00 0. -1.
         21   -1    0    0  501  502  0.00000000000E+00 -0.00000000000E+00 -0.20540638684E+01  0.20540638684E+01  0.00000000000E+00 0.  1.
         24    2    1    2    0    0 -0.27472736568E+02  0.11274657239E+02  0.31981490561E+04  0.31993124224E+04  0.80998282092E+02 0.  0.
        -11    1    3    3    0    0 -0.51004522829E+02  0.12634995156E+02  0.13637661693E+04  0.13647781025E+04  0.00000000000E+00 0.  1.
         12    1    3    3    0    0  0.23531786261E+02 -0.13603379173E+01  0.18343828869E+04  0.18345343199E+04  0.00000000000E+00 0. -1.
          1    1    1    2  501    0  0.27472736568E+02 -0.11274657239E+02  0.14826286238E+03  0.15120762385E+03  0.00000000000E+00 0. -1.
<mgrwt>
<rscale>  1 0.86270452E+02</rscale>
<asrwt>0</asrwt>
<pdfrwt beam="1">  1       21 0.31601251E-03 0.86270452E+02</pdfrwt>
<pdfrwt beam="2">  1        2 0.51514424E+00 0.86270452E+02</pdfrwt>
<totfact> 0.38859884E+05</totfact>
</mgrwt>
</event>
<event>
 6    2  0.8544106E+000  0.9631054E+02  0.7546771E-02  0.1288251E+00
          2   -1    0    0  502    0 -0.00000000000E+00  0.00000000000E+00  0.13970650337E+04  0.13970650337E+04  0.00000000000E+00 0. -1.
         21   -1    0    0  501  502  0.00000000000E+00 -0.00000000000E+00 -0.49744361333E+01  0.49744361333E+01  0.00000000000E+00 0. -1.
         24    2    1    2    0    0  0.48242106421E+02  0.24490099467E+02  0.11476048300E+04  0.11516390778E+04  0.79678439967E+02 0.  0.
        -13    1    3    3    0    0  0.24029995960E+02  0.11177466887E+02  0.93801552415E+02  0.97473625701E+02  0.00000000000E+00 0.  1.
         14    1    3    3    0    0  0.24212110461E+02  0.13312632579E+02  0.10538032776E+04  0.10541654521E+04  0.00000000000E+00 0. -1.
          1    1    1    2  501    0 -0.48242106421E+02 -0.24490099467E+02  0.24448576750E+03  0.25040039200E+03  0.00000000000E+00 0. -1.
<mgrwt>
<rscale>  1 0.96310537E+02</rscale>
<asrwt>0</asrwt>
<pdfrwt beam="1">  1       21 0.76529898E-03 0.96310537E+02</pdfrwt>
<pdfrwt beam="2">  1        2 0.21493277E+00 0.96310537E+02</pdfrwt>
<totfact> 0.11004386E+06</totfact>
</mgrwt>
</event>
<event>
 6    2  0.8544106E+000  0.8525450E+02  0.7546771E-02  0.1314768E+00
         21   -1    0    0  501  502  0.00000000000E+00  0.00000000000E+00  0.14103786219E+02  0.14103786219E+02  0.00000000000E+00 0. -1.
          2   -1    0    0  502    0 -0.00000000000E+00 -0.00000000000E+00 -0.43059363335E+03  0.43059363335E+03  0.00000000000E+00 0. -1.
         24    2    1    2    0    0  0.15195070520E+01  0.30686606561E+02 -0.40161070507E+03  0.41055996811E+03  0.79525796176E+02 0.  0.
        -11    1    3    3    0    0  0.35461010682E+02  0.13177596321E+01 -0.24801078449E+03  0.25053656219E+03  0.00000000000E+00 0.  1.
         12    1    3    3    0    0 -0.33941503630E+02  0.29368846929E+02 -0.15359992058E+03  0.16002340592E+03  0.00000000000E+00 0. -1.
          1    1    1    2  501    0 -0.15195070520E+01 -0.30686606561E+02 -0.14879142056E+02  0.34137451461E+02  0.00000000000E+00 0. -1.
<mgrwt>
<rscale>  1 0.85254495E+02</rscale>
<asrwt>0</asrwt>
<pdfrwt beam="1">  1       21 0.21698136E-02 0.85254495E+02</pdfrwt>
<pdfrwt beam="2">  1        2 0.66245165E-01 0.85254495E+02</pdfrwt>
<totfact> 0.92639890E+05</totfact>
</mgrwt>
</event>
<event>
 6    2  0.8544106E+000  0.8384704E+02  0.7546771E-02  0.1318475E+00
         21   -1    0    0  501  502  0.00000000000E+00  0.00000000000E+00  0.38960562967E+01  0.38960562967E+01  0.00000000000E+00 0. -1.
          2   -1    0    0  502    0 -0.00000000000E+00 -0.00000000000E+00 -0.75363491847E+03  0.75363491847E+03  0.00000000000E+00 0. -1.
         24    2    1    2    0    0  0.24210585890E+02  0.38980035845E+01 -0.58282299977E+03  0.58882338151E+03  0.80180912001E+02 0.  0.
        -11    1    3    3    0    0 -0.22191445919E+02 -0.15872264158E+02 -0.32298205532E+03  0.32413237589E+03  0.00000000000E+00 0.  1.
         12    1    3    3    0    0  0.46402031809E+02  0.19770267743E+02 -0.25984094445E+03  0.26469100562E+03  0.00000000000E+00 0. -1.
          1    1    1    2  501    0 -0.24210585890E+02 -0.38980035845E+01 -0.16691586240E+03  0.16870759326E+03  0.00000000000E+00 0. -1.
<mgrwt>
<rscale>  1 0.83847037E+02</rscale>
<asrwt>0</asrwt>
<pdfrwt beam="1">  1       21 0.59939311E-03 0.83847037E+02</pdfrwt>
<pdfrwt beam="2">  1        2 0.11594387E+00 0.83847037E+02</pdfrwt>
<totfact> 0.37333349E+06</totfact>
</mgrwt>
</event>
<event>
 6    2  0.8544106E+000  0.8617897E+02  0.7546771E-02  0.1312378E+00
         -1   -1    0    0    0  501 -0.00000000000E+00  0.00000000000E+00  0.30598136354E+03  0.30598136354E+03  0.00000000000E+00 0.  1.
         21   -1    0    0  501  502  0.00000000000E+00 -0.00000000000E+00 -0.55020273377E+02  0.55020273377E+02  0.00000000000E+00 0.  1.
         24    2    1    2    0    0  0.26506341088E+02 -0.20182591741E+02  0.29411680381E+03  0.30648247747E+03  0.79478875057E+02 0.  0.
        -13    1    3    3    0    0  0.53690069721E+02 -0.59708068630E+01  0.21346272492E+03  0.22019220934E+03  0.00000000000E+00 0.  1.
         14    1    3    3    0    0 -0.27183728634E+02 -0.14211784878E+02  0.80654078890E+02  0.86290268127E+02  0.00000000000E+00 0. -1.
         -2    1    1    2    0  502 -0.26506341088E+02  0.20182591741E+02 -0.43155713648E+02  0.54519159455E+02  0.00000000000E+00 0.  1.
<mgrwt>
<rscale>  1 0.86178969E+02</rscale>
<asrwt>0</asrwt>
<pdfrwt beam="1">  1       21 0.84646576E-02 0.86178969E+02</pdfrwt>
<pdfrwt beam="2">  1       -1 0.47074055E-01 0.86178969E+02</pdfrwt>
<totfact> 0.45032391E+04</totfact>
</mgrwt>
</event>
<event>
 6    2  0.8544106E+000  0.8378416E+02  0.7546771E-02  0.1318643E+00
          2   -1    0    0  502    0 -0.00000000000E+00  0.00000000000E+00  0.16098107393E+04  0.16098107393E+04  0.00000000000E+00 0. -1.
         21   -1    0    0  501  502  0.00000000000E+00 -0.00000000000E+00 -0.23306557827E+01  0.23306557827E+01  0.00000000000E+00 0. -1.
         24    2    1    2    0    0  0.28159547712E+02  0.50264222389E+01  0.14222444787E+04  0.14247101961E+04  0.78749988708E+02 0.  0.
        -11    1    3    3    0    0  0.14117203289E+02  0.39400292705E+02  0.51163737238E+03  0.51334635414E+03  0.00000000000E+00 0.  1.
         12    1    3    3    0    0  0.14042344423E+02 -0.34373870466E+02  0.91060710633E+03  0.91136384200E+03  0.00000000000E+00 0. -1.
          1    1    1    2  501    0 -0.28159547712E+02 -0.50264222389E+01  0.18523560476E+03  0.18743119889E+03  0.00000000000E+00 0. -1.
<mgrwt>
<rscale>  1 0.83784162E+02</rscale>
<asrwt>0</asrwt>
<pdfrwt beam="1">  1       21 0.35856371E-03 0.83784162E+02</pdfrwt>
<pdfrwt beam="2">  1        2 0.24766230E+00 0.83784162E+02</pdfrwt>
<totfact> 0.27132991E+06</totfact>
</mgrwt>
</event>
<event>
 6    2  0.8544106E+000  0.8288662E+02  0.7546771E-02  0.1321054E+00
         21   -1    0    0  501  502  0.00000000000E+00  0.00000000000E+00  0.25398546304E+02  0.25398546304E+02  0.00000000000E+00 0. -1.
          2   -1    0    0  502    0 -0.00000000000E+00 -0.00000000000E+00 -0.12763029100E+03  0.12763029100E+03  0.00000000000E+00 0. -1.
         24    2    1    2    0    0  0.10646228591E+02 -0.20690084442E+02 -0.99652355252E+02  0.12961783503E+03  0.79553563551E+02 0.  0.
        -13    1    3    3    0    0 -0.98426192312E+01  0.27976616724E+02 -0.29687412134E+02  0.41963206215E+02  0.00000000000E+00 0.  1.
         14    1    3    3    0    0  0.20488847822E+02 -0.48666701166E+02 -0.69964943118E+02  0.87654628816E+02  0.00000000000E+00 0. -1.
          1    1    1    2  501    0 -0.10646228591E+02  0.20690084442E+02 -0.25793894429E+01  0.23411002271E+02  0.00000000000E+00 0. -1.
<mgrwt>
<rscale>  1 0.82886617E+02</rscale>
<asrwt>0</asrwt>
<pdfrwt beam="1">  1       21 0.39074687E-02 0.82886617E+02</pdfrwt>
<pdfrwt beam="2">  1        2 0.19635429E-01 0.82886617E+02</pdfrwt>
<totfact> 0.12968847E+06</totfact>
</mgrwt>
</event>
<event>
 6    2  0.8544106E+000  0.9132234E+02  0.7546771E-02  0.1299681E+00
         21   -1    0    0  501  502  0.00000000000E+00  0.00000000000E+00  0.49688868892E+01  0.49688868892E+01  0.00000000000E+00 0. -1.
          2   -1    0    0  502    0 -0.00000000000E+00 -0.00000000000E+00 -0.86346561459E+03  0.86346561459E+03  0.00000000000E+00 0. -1.
         24    2    1    2    0    0 -0.74793439021E+01 -0.34732245529E+02 -0.70439987266E+03  0.71029497385E+03  0.84127877729E+02 0.  0.
        -11    1    3    3    0    0 -0.24498070666E+02  0.56919863325E+01 -0.70007673339E+02  0.74388362673E+02  0.00000000000E+00 0.  1.
         12    1    3    3    0    0  0.17018726764E+02 -0.40424231862E+02 -0.63439219932E+03  0.63590661118E+03  0.00000000000E+00 0. -1.
          1    1    1    2  501    0  0.74793439021E+01  0.34732245529E+02 -0.15409685504E+03  0.15813952763E+03  0.00000000000E+00 0. -1.
<mgrwt>
<rscale>  1 0.91322337E+02</rscale>
<asrwt>0</asrwt>
<pdfrwt beam="1">  1       21 0.76444397E-03 0.91322337E+02</pdfrwt>
<pdfrwt beam="2">  1        2 0.13284089E+00 0.91322337E+02</pdfrwt>
<totfact> 0.21920935E+06</totfact>
</mgrwt>
</event>
<event>
 6    2  0.8544106E+000  0.9777956E+02  0.7546771E-02  0.1285036E+00
          2   -1    0    0  502    0 -0.00000000000E+00  0.00000000000E+00  0.29896904205E+04  0.29896904205E+04  0.00000000000E+00 0. -1.
         21   -1    0    0  501  502  0.00000000000E+00 -0.00000000000E+00 -0.21028895807E+01  0.21028895807E+01  0.00000000000E+00 0. -1.
         24    2    1    2    0    0  0.19490028318E+02  0.48195844798E+02  0.23719851411E+04  0.23739996528E+04  0.82813894374E+02 0.  0.
        -11    1    3    3    0    0 -0.55674397508E+01 -0.15437980928E+02  0.11397479354E+04  0.11398660815E+04  0.00000000000E+00 0.  1.
         12    1    3    3    0    0  0.25057468069E+02  0.63633825726E+02  0.12322372058E+04  0.12341335713E+04  0.00000000000E+00 0. -1.
          1    1    1    2  501    0 -0.19490028318E+02 -0.48195844798E+02  0.61560238975E+03  0.61779365724E+03  0.00000000000E+00 0. -1.
<mgrwt>
<rscale>  1 0.97779557E+02</rscale>
<asrwt>0</asrwt>
<pdfrwt beam="1">  1       21 0.32352387E-03 0.97779557E+02</pdfrwt>
<pdfrwt beam="2">  1        2 0.45994897E+00 0.97779557E+02</pdfrwt>
<totfact> 0.61079424E+05</totfact>
</mgrwt>
</event>
<event>
 6    2  0.8544106E+000  0.8406217E+02  0.7546771E-02  0.1317903E+00
         21   -1    0    0  501  502  0.00000000000E+00  0.00000000000E+00  0.26920316264E+01  0.26920316264E+01  0.00000000000E+00 0.  1.
          2   -1    0    0  502    0 -0.00000000000E+00 -0.00000000000E+00 -0.12395211095E+04  0.12395211095E+04  0.00000000000E+00 0. -1.
         24    2    1    2    0    0  0.16925263075E+02  0.20714261600E+02 -0.10652217506E+04  0.10685334937E+04  0.79692559235E+02 0.  0.
        -11    1    3    3    0    0 -0.28599420725E+02  0.94524586675E+01 -0.22544444570E+03  0.22744773892E+03  0.00000000000E+00 0.  1.
         12    1    3    3    0    0  0.45524683800E+02  0.11261802933E+02 -0.83977730493E+03  0.84108575479E+03  0.00000000000E+00 0. -1.
          1    1    1    2  501    0 -0.16925263075E+02 -0.20714261600E+02 -0.17160732728E+03  0.17367964746E+03  0.00000000000E+00 0. -1.
<mgrwt>
<rscale>  1 0.84062174E+02</rscale>
<asrwt>0</asrwt>
<pdfrwt beam="1">  1       21 0.41415823E-03 0.84062174E+02</pdfrwt>
<pdfrwt beam="2">  1        2 0.19069578E+00 0.84062174E+02</pdfrwt>
<totfact> 0.33849476E+06</totfact>
</mgrwt>
</event>
<event>
 6    2  0.8544106E+000  0.1044132E+03  0.7546771E-02  0.1271280E+00
         21   -1    0    0  501  502  0.00000000000E+00  0.00000000000E+00  0.25677917789E+03  0.25677917789E+03  0.00000000000E+00 0. -1.
         -3   -1    0    0    0  501 -0.00000000000E+00 -0.00000000000E+00 -0.48914073271E+02  0.48914073271E+02  0.00000000000E+00 0.  1.
         24    2    1    2    0    0 -0.36936117891E+02  0.55448915839E+02  0.19930309349E+02  0.10629830051E+03  0.80394355446E+02 0.  0.
        -13    1    3    3    0    0  0.30605929480E+01  0.36333917728E+02 -0.24188029600E+02  0.43755931970E+02  0.00000000000E+00 0.  1.
         14    1    3    3    0    0 -0.39996710839E+02  0.19114998111E+02  0.44118338949E+02  0.62542368538E+02  0.00000000000E+00 0. -1.
         -4    1    1    2    0  502  0.36936117891E+02 -0.55448915839E+02  0.18793479527E+03  0.19939495065E+03  0.00000000000E+00 0.  1.
<mgrwt>
<rscale>  1 0.10441318E+03</rscale>
<asrwt>0</asrwt>
<pdfrwt beam="1">  1       21 0.39504488E-01 0.10441318E+03</pdfrwt>
<pdfrwt beam="2">  1       -3 0.75252422E-02 0.10441318E+03</pdfrwt>
<totfact> 0.34241626E+04</totfact>
</mgrwt>
</event>
<event>
 6    2  0.8544106E+000  0.8758914E+02  0.7546771E-02  0.1308797E+00
         21   -1    0    0  501  502  0.00000000000E+00  0.00000000000E+00  0.79699552761E+01  0.79699552761E+01  0.00000000000E+00 0. -1.
         -1   -1    0    0    0  501 -0.00000000000E+00 -0.00000000000E+00 -0.47048623520E+03  0.47048623520E+03  0.00000000000E+00 0.  1.
         24    2    1    2    0    0  0.26083625944E+02 -0.22202949753E+02 -0.30968247876E+03  0.32183084994E+03  0.80613471587E+02 0.  0.
        -11    1    3    3    0    0  0.13351141818E+01 -0.95484135275E+01 -0.28344015466E+03  0.28360408319E+03  0.00000000000E+00 0.  1.
         12    1    3    3    0    0  0.24748511763E+02 -0.12654536226E+02 -0.26242324099E+02  0.38226766743E+02  0.00000000000E+00 0. -1.
         -2    1    1    2    0  502 -0.26083625944E+02  0.22202949753E+02 -0.15283380116E+03  0.15662534053E+03  0.00000000000E+00 0.  1.
<mgrwt>
<rscale>  1 0.87589145E+02</rscale>
<asrwt>0</asrwt>
<pdfrwt beam="1">  1       21 0.12261470E-02 0.87589145E+02</pdfrwt>
<pdfrwt beam="2">  1       -1 0.72382494E-01 0.87589145E+02</pdfrwt>
<totfact> 0.47334494E+05</totfact>
</mgrwt>
</event>
<event>
 6    2  0.8544106E+000  0.9856441E+02  0.7546771E-02  0.1283344E+00
         21   -1    0    0  501  502  0.00000000000E+00  0.00000000000E+00  0.86360075348E+02  0.86360075348E+02  0.00000000000E+00 0. -1.
          4   -1    0    0  502    0 -0.00000000000E+00 -0.00000000000E+00 -0.71786325303E+02  0.71786325303E+02  0.00000000000E+00 0. -1.
         24    2    1    2    0    0  0.52735565174E+02 -0.21360139470E+02  0.21340469216E+02  0.10084819928E+03  0.80483838617E+02 0.  0.
        -13    1    3    3    0    0 -0.27329592031E+01 -0.26742772189E+02  0.34352312993E+02  0.43620251471E+02  0.00000000000E+00 0.  1.
         14    1    3    3    0    0  0.55468524377E+02  0.53826327194E+01 -0.13011843777E+02  0.57227947806E+02  0.00000000000E+00 0. -1.
          3    1    1    2  501    0 -0.52735565174E+02  0.21360139470E+02 -0.67667191708E+01  0.57298201374E+02  0.00000000000E+00 0. -1.
<mgrwt>
<rscale>  1 0.98564414E+02</rscale>
<asrwt>0</asrwt>
<pdfrwt beam="1">  1       21 0.13286165E-01 0.98564414E+02</pdfrwt>
<pdfrwt beam="2">  1        4 0.11044050E-01 0.98564414E+02</pdfrwt>
<totfact> 0.12012810E+05</totfact>
</mgrwt>
</event>
<event>
 6    2  0.8544106E+000  0.8987727E+02  0.7546771E-02  0.1303149E+00
          2   -1    0    0  502    0 -0.00000000000E+00  0.00000000000E+00  0.13511147987E+04  0.13511147987E+04  0.00000000000E+00 0. -1.
         21   -1    0    0  501  502  0.00000000000E+00 -0.00000000000E+00 -0.31505696736E+01  0.31505696736E+01  0.00000000000E+00 0. -1.
         24    2    1    2    0    0 -0.36561672248E+02  0.12691538790E+02  0.82828635698E+03  0.83314837410E+03  0.81117772766E+02 0.  0.
        -11    1    3    3    0    0  0.74829968217E+01  0.86578672719E+01  0.16067018998E+02  0.19725694072E+02  0.00000000000E+00 0.  1.
         12    1    3    3    0    0 -0.44044669069E+02  0.40336715182E+01  0.81221933799E+03  0.81342268002E+03  0.00000000000E+00 0. -1.
          1    1    1    2  501    0  0.36561672248E+02 -0.12691538790E+02  0.51967787203E+03  0.52111699426E+03  0.00000000000E+00 0. -1.
<mgrwt>
<rscale>  1 0.89877272E+02</rscale>
<asrwt>0</asrwt>
<pdfrwt beam="1">  1       21 0.48470410E-03 0.89877272E+02</pdfrwt>
<pdfrwt beam="2">  1        2 0.20786335E+00 0.89877272E+02</pdfrwt>
<totfact> 0.23391795E+06</totfact>
</mgrwt>
</event>
<event>
 6    2  0.8544106E+000  0.8964267E+02  0.7546771E-02  0.1303719E+00
          2   -1    0    0  502    0 -0.00000000000E+00  0.00000000000E+00  0.25477065363E+03  0.25477065363E+03  0.00000000000E+00 0. -1.
         21   -1    0    0  501  502  0.00000000000E+00 -0.00000000000E+00 -0.19042510195E+02  0.19042510195E+02  0.00000000000E+00 0.  1.
         24    2    1    2    0    0  0.18492820045E+02  0.35846327835E+02  0.20285360922E+03  0.22177780458E+03  0.80055382178E+02 0.  0.
        -13    1    3    3    0    0  0.50088409928E+02  0.26611098464E+02  0.12707383165E+03  0.13915731408E+03  0.00000000000E+00 0.  1.
         14    1    3    3    0    0 -0.31595589883E+02  0.92352293703E+01  0.75779777573E+02  0.82620490501E+02  0.00000000000E+00 0. -1.
          1    1    1    2  501    0 -0.18492820045E+02 -0.35846327835E+02  0.32874534213E+02  0.52035359249E+02  0.00000000000E+00 0. -1.
<mgrwt>
<rscale>  1 0.89642667E+02</rscale>
<asrwt>0</asrwt>
<pdfrwt beam="1">  1       21 0.29296171E-02 0.89642667E+02</pdfrwt>
<pdfrwt beam="2">  1        2 0.39195483E-01 0.89642667E+02</pdfrwt>
<totfact> 0.99386730E+05</totfact>
</mgrwt>
</event>
<event>
 6    2  0.8544106E+000  0.8425355E+02  0.7546771E-02  0.1317396E+00
         21   -1    0    0  501  502  0.00000000000E+00  0.00000000000E+00  0.44478123889E+01  0.44478123889E+01  0.00000000000E+00 0. -1.
          2   -1    0    0  502    0 -0.00000000000E+00 -0.00000000000E+00 -0.11435185861E+04  0.11435185861E+04  0.00000000000E+00 0. -1.
         24    2    1    2    0    0  0.21860411793E+02  0.70198051784E+01 -0.10953321916E+04  0.10985678273E+04  0.81064825968E+02 0.  0.
        -13    1    3    3    0    0 -0.22793800966E+02  0.23443624662E+02 -0.29136373247E+03  0.29319274462E+03  0.00000000000E+00 0.  1.
         14    1    3    3    0    0  0.44654212760E+02 -0.16423819483E+02 -0.80396845912E+03  0.80537508269E+03  0.00000000000E+00 0. -1.
          1    1    1    2  501    0 -0.21860411793E+02 -0.70198051784E+01 -0.43738582160E+02  0.49398571213E+02  0.00000000000E+00 0. -1.
<mgrwt>
<rscale>  1 0.84253554E+02</rscale>
<asrwt>0</asrwt>
<pdfrwt beam="1">  1       21 0.68427823E-03 0.84253554E+02</pdfrwt>
<pdfrwt beam="2">  1        2 0.17592609E+00 0.84253554E+02</pdfrwt>
<totfact> 0.17682421E+06</totfact>
</mgrwt>
</event>
<event>
 6    2  0.8544106E+000  0.8595886E+02  0.7546771E-02  0.1312944E+00
         21   -1    0    0  501  502  0.00000000000E+00  0.00000000000E+00  0.49045184494E+02  0.49045184494E+02  0.00000000000E+00 0. -1.
          2   -1    0    0  502    0 -0.00000000000E+00 -0.00000000000E+00 -0.65971363698E+03  0.65971363698E+03  0.00000000000E+00 0. -1.
         24    2    1    2    0    0  0.97965415512E+01 -0.31679166174E+02 -0.65094074385E+03  0.65659178928E+03  0.79305636349E+02 0.  0.
        -11    1    3    3    0    0  0.15270885752E+02 -0.98597362907E+01 -0.28879297801E+02  0.34123718919E+02  0.00000000000E+00 0.  1.
         12    1    3    3    0    0 -0.54743442011E+01 -0.21819429883E+02 -0.62206144605E+03  0.62246807036E+03  0.00000000000E+00 0. -1.
          1    1    1    2  501    0 -0.97965415512E+01  0.31679166174E+02  0.40272291363E+02  0.52167032190E+02  0.00000000000E+00 0. -1.
<mgrwt>
<rscale>  1 0.85958861E+02</rscale>
<asrwt>0</asrwt>
<pdfrwt beam="1">  1       21 0.75454131E-02 0.85958861E+02</pdfrwt>
<pdfrwt beam="2">  1        2 0.10149440E+00 0.85958861E+02</pdfrwt>
<totfact> 0.74655746E+04</totfact>
</mgrwt>
</event>
<event>
 6    2  0.8544106E+000  0.8589240E+02  0.7546771E-02  0.1313115E+00
         21   -1    0    0  501  502  0.00000000000E+00  0.00000000000E+00  0.43966556123E+01  0.43966556123E+01  0.00000000000E+00 0. -1.
          4   -1    0    0  502    0 -0.00000000000E+00 -0.00000000000E+00 -0.75981548225E+03  0.75981548225E+03  0.00000000000E+00 0. -1.
         24    2    1    2    0    0 -0.56274744620E+01 -0.22233609596E+02 -0.67943054746E+03  0.68483820992E+03  0.82773806730E+02 0.  0.
        -13    1    3    3    0    0 -0.27472420714E+02  0.10279375694E+02 -0.10347373212E+03  0.10755097723E+03  0.00000000000E+00 0.  1.
         14    1    3    3    0    0  0.21844946252E+02 -0.32512985290E+02 -0.57595681534E+03  0.57728723269E+03  0.00000000000E+00 0. -1.
          3    1    1    2  501    0  0.56274744620E+01  0.22233609596E+02 -0.75988279174E+02  0.79373927938E+02  0.00000000000E+00 0. -1.
<mgrwt>
<rscale>  1 0.85892403E+02</rscale>
<asrwt>0</asrwt>
<pdfrwt beam="1">  1       21 0.67640760E-03 0.85892403E+02</pdfrwt>
<pdfrwt beam="2">  1        4 0.11689486E+00 0.85892403E+02</pdfrwt>
<totfact> 0.15224825E+05</totfact>
</mgrwt>
</event>
<event>
 6    2  0.8544106E+000  0.9546841E+02  0.7546771E-02  0.1290125E+00
         21   -1    0    0  501  502  0.00000000000E+00  0.00000000000E+00  0.55154508217E+02  0.55154508217E+02  0.00000000000E+00 0. -1.
          4   -1    0    0  502    0 -0.00000000000E+00 -0.00000000000E+00 -0.15434834948E+03  0.15434834948E+03  0.00000000000E+00 0. -1.
         24    2    1    2    0    0  0.52149803715E+02 -0.71030429708E+01 -0.11962048584E+03  0.15304665294E+03  0.79650248570E+02 0.  0.
        -11    1    3    3    0    0  0.51329980001E+01  0.96447281341E+01  0.95863512837E+01  0.14535012218E+02  0.00000000000E+00 0.  1.
         12    1    3    3    0    0  0.47016805715E+02 -0.16747771105E+02 -0.12920683712E+03  0.13851164072E+03  0.00000000000E+00 0. -1.
          3    1    1    2  501    0 -0.52149803715E+02  0.71030429708E+01  0.20426644575E+02  0.56456204757E+02  0.00000000000E+00 0. -1.
<mgrwt>
<rscale>  1 0.95468410E+02</rscale>
<asrwt>0</asrwt>
<pdfrwt beam="1">  1       21 0.84853090E-02 0.95468410E+02</pdfrwt>
<pdfrwt beam="2">  1        4 0.23745900E-01 0.95468410E+02</pdfrwt>
<totfact> 0.68493370E+04</totfact>
</mgrwt>
</event>
<event>
 6    2  0.8544106E+000  0.1008635E+03  0.7546771E-02  0.1278491E+00
         21   -1    0    0  501  502  0.00000000000E+00  0.00000000000E+00  0.12375576924E+02  0.12375576924E+02  0.00000000000E+00 0.  1.
          2   -1    0    0  502    0 -0.00000000000E+00 -0.00000000000E+00 -0.90876546431E+03  0.90876546431E+03  0.00000000000E+00 0. -1.
         24    2    1    2    0    0  0.49249108788E+02 -0.38223677126E+02 -0.22156926659E+03  0.24344686650E+03  0.79290054259E+02 0.  0.
        -11    1    3    3    0    0  0.62775216730E+02 -0.42861456632E+02 -0.12860251339E+03  0.14938687610E+03  0.00000000000E+00 0.  1.
         12    1    3    3    0    0 -0.13526107943E+02  0.46377795061E+01 -0.92966753197E+02  0.94059990404E+02  0.00000000000E+00 0. -1.
          1    1    1    2  501    0 -0.49249108788E+02  0.38223677126E+02 -0.67482062080E+03  0.67769417473E+03  0.00000000000E+00 0. -1.
<mgrwt>
<rscale>  1 0.10086346E+03</rscale>
<asrwt>0</asrwt>
<pdfrwt beam="1">  1       21 0.19039348E-02 0.10086346E+03</pdfrwt>
<pdfrwt beam="2">  1        2 0.13981008E+00 0.10086346E+03</pdfrwt>
<totfact> 0.49177846E+05</totfact>
</mgrwt>
</event>
<event>
 6    2  0.8544106E+000  0.8663287E+02  0.7546771E-02  0.1311217E+00
         21   -1    0    0  501  502  0.00000000000E+00  0.00000000000E+00  0.30443153424E+02  0.30443153424E+02  0.00000000000E+00 0.  1.
         -1   -1    0    0    0  501 -0.00000000000E+00 -0.00000000000E+00 -0.34335477999E+03  0.34335477999E+03  0.00000000000E+00 0.  1.
         24    2    1    2    0    0  0.17290363247E+02  0.27401559319E+02 -0.32713572591E+03  0.33841252517E+03  0.80345826977E+02 0.  0.
        -13    1    3    3    0    0  0.28248449993E+02  0.42067465089E+02 -0.11726463061E+03  0.12774443290E+03  0.00000000000E+00 0.  1.
         14    1    3    3    0    0 -0.10958086746E+02 -0.14665905770E+02 -0.20987109530E+03  0.21066809227E+03  0.00000000000E+00 0. -1.
         -2    1    1    2    0  502 -0.17290363247E+02 -0.27401559319E+02  0.14224099344E+02  0.35385408242E+02  0.00000000000E+00 0.  1.
<mgrwt>
<rscale>  1 0.86632869E+02</rscale>
<asrwt>0</asrwt>
<pdfrwt beam="1">  1       21 0.46835615E-02 0.86632869E+02</pdfrwt>
<pdfrwt beam="2">  1       -1 0.52823819E-01 0.86632869E+02</pdfrwt>
<totfact> 0.99093982E+04</totfact>
</mgrwt>
</event>
<event>
 6    2  0.8544106E+000  0.8732517E+02  0.7546771E-02  0.1309462E+00
         21   -1    0    0  501  502  0.00000000000E+00  0.00000000000E+00  0.16113155372E+04  0.16113155372E+04  0.00000000000E+00 0.  1.
         -3   -1    0    0    0  501 -0.00000000000E+00 -0.00000000000E+00 -0.11875827573E+02  0.11875827573E+02  0.00000000000E+00 0.  1.
         24    2    1    2    0    0 -0.26072334463E+02 -0.15095402320E+02  0.15095597203E+03  0.17439435488E+03  0.81963697614E+02 0.  0.
        -13    1    3    3    0    0 -0.13496675875E+02 -0.35555237268E+02  0.23521836158E+02  0.44717020619E+02  0.00000000000E+00 0.  1.
         14    1    3    3    0    0 -0.12575658588E+02  0.20459834948E+02  0.12743413588E+03  0.12967733426E+03  0.00000000000E+00 0. -1.
         -4    1    1    2    0  502  0.26072334463E+02  0.15095402320E+02  0.14484837376E+04  0.14487970099E+04  0.00000000000E+00 0.  1.
<mgrwt>
<rscale>  1 0.87325171E+02</rscale>
<asrwt>0</asrwt>
<pdfrwt beam="1">  1       21 0.24789452E+00 0.87325171E+02</pdfrwt>
<pdfrwt beam="2">  1       -3 0.18270517E-02 0.87325171E+02</pdfrwt>
<totfact> 0.38167853E+03</totfact>
</mgrwt>
</event>
<event>
 6    2  0.8544106E+000  0.8389950E+02  0.7546771E-02  0.1318336E+00
          2   -1    0    0  502    0 -0.00000000000E+00  0.00000000000E+00  0.12033655604E+04  0.12033655604E+04  0.00000000000E+00 0. -1.
         21   -1    0    0  501  502  0.00000000000E+00 -0.00000000000E+00 -0.34055801533E+01  0.34055801533E+01  0.00000000000E+00 0. -1.
         24    2    1    2    0    0  0.24470851392E+02  0.34312124953E+01  0.11185875760E+04  0.11217295980E+04  0.80178114596E+02 0.  0.
        -11    1    3    3    0    0  0.10212985713E+02  0.34768160332E+02  0.26717530539E+03  0.26962153820E+03  0.00000000000E+00 0.  1.
         12    1    3    3    0    0  0.14257865679E+02 -0.31336947837E+02  0.85141227066E+03  0.85210805985E+03  0.00000000000E+00 0. -1.
          1    1    1    2  501    0 -0.24470851392E+02 -0.34312124953E+01  0.81372404247E+02  0.85041542554E+02  0.00000000000E+00 0. -1.
<mgrwt>
<rscale>  1 0.83899498E+02</rscale>
<asrwt>0</asrwt>
<pdfrwt beam="1">  1       21 0.52393637E-03 0.83899498E+02</pdfrwt>
<pdfrwt beam="2">  1        2 0.18513282E+00 0.83899498E+02</pdfrwt>
<totfact> 0.24716218E+06</totfact>
</mgrwt>
</event>
<event>
 6    2  0.8544106E+000  0.8461391E+02  0.7546771E-02  0.1316445E+00
         -1   -1    0    0    0  501 -0.00000000000E+00  0.00000000000E+00  0.12980057468E+03  0.12980057468E+03  0.00000000000E+00 0.  1.
         21   -1    0    0  501  502  0.00000000000E+00 -0.00000000000E+00 -0.39372437682E+02  0.39372437682E+02  0.00000000000E+00 0.  1.
         24    2    1    2    0    0 -0.61869008904E+01  0.25029905862E+02  0.10856916491E+03  0.13764729550E+03  0.80589952603E+02 0.  0.
        -13    1    3    3    0    0 -0.34414585917E+02  0.30637743197E+02  0.95510539801E+02  0.10604385058E+03  0.00000000000E+00 0.  1.
         14    1    3    3    0    0  0.28227685026E+02 -0.56078373351E+01  0.13058625104E+02  0.31603444925E+02  0.00000000000E+00 0. -1.
         -2    1    1    2    0  502  0.61869008904E+01 -0.25029905862E+02 -0.18141027907E+02  0.31525716861E+02  0.00000000000E+00 0.  1.
<mgrwt>
<rscale>  1 0.84613914E+02</rscale>
<asrwt>0</asrwt>
<pdfrwt beam="1">  1       21 0.60572982E-02 0.84613914E+02</pdfrwt>
<pdfrwt beam="2">  1       -1 0.19969319E-01 0.84613914E+02</pdfrwt>
<totfact> 0.33212981E+05</totfact>
</mgrwt>
</event>
<event>
 6    2  0.8544106E+000  0.7662446E+02  0.7546771E-02  0.1338913E+00
         21   -1    0    0  501  502  0.00000000000E+00  0.00000000000E+00  0.10244942628E+03  0.10244942628E+03  0.00000000000E+00 0. -1.
          2   -1    0    0  502    0 -0.00000000000E+00 -0.00000000000E+00 -0.31976162047E+03  0.31976162047E+03  0.00000000000E+00 0. -1.
         24    2    1    2    0    0 -0.64308454420E+01  0.24668320349E+02 -0.31348662056E+03  0.32271530770E+03  0.72259440595E+02 0.  0.
        -11    1    3    3    0    0 -0.10227120345E+02  0.20375827737E+02 -0.23748423037E+02  0.32920448710E+02  0.00000000000E+00 0.  1.
         12    1    3    3    0    0  0.37962749032E+01  0.42924926115E+01 -0.28973819752E+03  0.28979485899E+03  0.00000000000E+00 0. -1.
          1    1    1    2  501    0  0.64308454420E+01 -0.24668320349E+02  0.96174426365E+02  0.99495739047E+02  0.00000000000E+00 0. -1.
<mgrwt>
<rscale>  1 0.76624464E+02</rscale>
<asrwt>0</asrwt>
<pdfrwt beam="1">  1       21 0.15761450E-01 0.76624464E+02</pdfrwt>
<pdfrwt beam="2">  1        2 0.49194095E-01 0.76624464E+02</pdfrwt>
<totfact> 0.44953928E+04</totfact>
</mgrwt>
</event>
<event>
 6    2  0.8544106E+000  0.8316847E+02  0.7546771E-02  0.1320293E+00
         21   -1    0    0  501  502  0.00000000000E+00  0.00000000000E+00  0.13739794046E+03  0.13739794046E+03  0.00000000000E+00 0. -1.
          4   -1    0    0  502    0 -0.00000000000E+00 -0.00000000000E+00 -0.21001623451E+02  0.21001623451E+02  0.00000000000E+00 0. -1.
         24    2    1    2    0    0 -0.21188889073E+02 -0.88289896409E+00  0.75476385346E+02  0.11231063533E+03  0.80419186342E+02 0.  0.
        -13    1    3    3    0    0 -0.30315637263E+00  0.27219513333E+02  0.72179677206E+02  0.77142074197E+02  0.00000000000E+00 0.  1.
         14    1    3    3    0    0 -0.20885732701E+02 -0.28102412297E+02  0.32967081393E+01  0.35168561130E+02  0.00000000000E+00 0. -1.
          3    1    1    2  501    0  0.21188889073E+02  0.88289896409E+00  0.40919931662E+02  0.46088928584E+02  0.00000000000E+00 0. -1.
<mgrwt>
<rscale>  1 0.83168468E+02</rscale>
<asrwt>0</asrwt>
<pdfrwt beam="1">  1       21 0.21138144E-01 0.83168468E+02</pdfrwt>
<pdfrwt beam="2">  1        4 0.32310191E-02 0.83168468E+02</pdfrwt>
<totfact> 0.36681073E+05</totfact>
</mgrwt>
</event>
<event>
 6    2  0.8544106E+000  0.7851334E+02  0.7546771E-02  0.1333324E+00
         21   -1    0    0  501  502  0.00000000000E+00  0.00000000000E+00  0.58561538364E+01  0.58561538364E+01  0.00000000000E+00 0. -1.
          2   -1    0    0  502    0 -0.00000000000E+00 -0.00000000000E+00 -0.96517690122E+03  0.96517690122E+03  0.00000000000E+00 0. -1.
         24    2    1    2    0    0 -0.12658836905E+02 -0.20630672683E+02 -0.92864382801E+03  0.93195692181E+03  0.74689182647E+02 0.  0.
        -11    1    3    3    0    0 -0.45797487290E+01  0.24197188591E+02 -0.15232195347E+03  0.15429988835E+03  0.00000000000E+00 0.  1.
         12    1    3    3    0    0 -0.80790881765E+01 -0.44827861274E+02 -0.77632187454E+03  0.77765703347E+03  0.00000000000E+00 0. -1.
          1    1    1    2  501    0  0.12658836905E+02  0.20630672683E+02 -0.30676919376E+02  0.39076133248E+02  0.00000000000E+00 0. -1.
<mgrwt>
<rscale>  1 0.78513342E+02</rscale>
<asrwt>0</asrwt>
<pdfrwt beam="1">  1       21 0.90094676E-03 0.78513342E+02</pdfrwt>
<pdfrwt beam="2">  1        2 0.14848875E+00 0.78513342E+02</pdfrwt>
<totfact> 0.14502028E+06</totfact>
</mgrwt>
</event>
<event>
 6    2  0.8544106E+000  0.8688385E+02  0.7546771E-02  0.1310578E+00
         21   -1    0    0  501  502  0.00000000000E+00  0.00000000000E+00  0.10136300436E+03  0.10136300436E+03  0.00000000000E+00 0. -1.
          2   -1    0    0  502    0 -0.00000000000E+00 -0.00000000000E+00 -0.40337446359E+03  0.40337446359E+03  0.00000000000E+00 0. -1.
         24    2    1    2    0    0 -0.56572885466E+01  0.30380794122E+02 -0.39619700089E+03  0.40561172042E+03  0.81202257709E+02 0.  0.
        -13    1    3    3    0    0 -0.12815769783E+02 -0.78263237993E+01 -0.11392899162E+02  0.18849229444E+02  0.00000000000E+00 0.  1.
         14    1    3    3    0    0  0.71584812360E+01  0.38207117922E+02 -0.38480410173E+03  0.38676249097E+03  0.00000000000E+00 0. -1.
          1    1    1    2  501    0  0.56572885466E+01 -0.30380794122E+02  0.94185541668E+02  0.99125747536E+02  0.00000000000E+00 0. -1.
<mgrwt>
<rscale>  1 0.86883855E+02</rscale>
<asrwt>0</asrwt>
<pdfrwt beam="1">  1       21 0.15594308E-01 0.86883855E+02</pdfrwt>
<pdfrwt beam="2">  1        2 0.62057611E-01 0.86883855E+02</pdfrwt>
<totfact> 0.36022643E+04</totfact>
</mgrwt>
</event>
<event>
 6    2  0.8544106E+000  0.8599934E+02  0.7546771E-02  0.1312840E+00
          2   -1    0    0  502    0 -0.00000000000E+00  0.00000000000E+00  0.18168800096E+04  0.18168800096E+04  0.00000000000E+00 0. -1.
         21   -1    0    0  501  502  0.00000000000E+00 -0.00000000000E+00 -0.23157039970E+01  0.23157039970E+01  0.00000000000E+00 0.  1.
         24    2    1    2    0    0  0.29960219636E+02  0.10974571917E+02  0.15959332019E+04  0.15982486260E+04  0.79861315751E+02 0.  0.
        -13    1    3    3    0    0  0.55632057004E+02  0.54981049451E+01  0.12826438005E+04  0.12838614699E+04  0.00000000000E+00 0.  1.
         14    1    3    3    0    0 -0.25671837368E+02  0.54764669716E+01  0.31328940140E+03  0.31438715616E+03  0.00000000000E+00 0. -1.
          1    1    1    2  501    0 -0.29960219636E+02 -0.10974571917E+02  0.21863110374E+03  0.22094708758E+03  0.00000000000E+00 0. -1.
<mgrwt>
<rscale>  1 0.85999336E+02</rscale>
<asrwt>0</asrwt>
<pdfrwt beam="1">  1       21 0.35626361E-03 0.85999336E+02</pdfrwt>
<pdfrwt beam="2">  1        2 0.27951886E+00 0.85999336E+02</pdfrwt>
<totfact> 0.21621183E+06</totfact>
</mgrwt>
</event>
<event>
 6    2  0.8544106E+000  0.9824038E+02  0.7546771E-02  0.1284040E+00
         21   -1    0    0  501  502  0.00000000000E+00  0.00000000000E+00  0.48320824463E+01  0.48320824463E+01  0.00000000000E+00 0.  1.
          2   -1    0    0  502    0 -0.00000000000E+00 -0.00000000000E+00 -0.12617878068E+04  0.12617878068E+04  0.00000000000E+00 0. -1.
         24    2    1    2    0    0 -0.22240453037E+02  0.50880522924E+02 -0.69138269786E+03  0.69832743491E+03  0.81041384957E+02 0.  0.
        -11    1    3    3    0    0  0.17048357824E+02  0.24360193338E+02 -0.84169627137E+02  0.89266968451E+02  0.00000000000E+00 0.  1.
         12    1    3    3    0    0 -0.39288810861E+02  0.26520329586E+02 -0.60721307073E+03  0.60906046646E+03  0.00000000000E+00 0. -1.
          1    1    1    2  501    0  0.22240453037E+02 -0.50880522924E+02 -0.56557302646E+03  0.56829245431E+03  0.00000000000E+00 0. -1.
<mgrwt>
<rscale>  1 0.98240376E+02</rscale>
<asrwt>0</asrwt>
<pdfrwt beam="1">  1       21 0.74339822E-03 0.98240376E+02</pdfrwt>
<pdfrwt beam="2">  1        2 0.19412096E+00 0.98240376E+02</pdfrwt>
<totfact> 0.13586296E+06</totfact>
</mgrwt>
</event>
<event>
 6    2  0.8544106E+000  0.8356246E+02  0.7546771E-02  0.1319235E+00
         21   -1    0    0  501  502  0.00000000000E+00  0.00000000000E+00  0.29858123080E+01  0.29858123080E+01  0.00000000000E+00 0. -1.
          2   -1    0    0  502    0 -0.00000000000E+00 -0.00000000000E+00 -0.42016153152E+04  0.42016153152E+04  0.00000000000E+00 0. -1.
         24    2    1    2    0    0 -0.22198261316E+02 -0.73901059844E+01 -0.41478438090E+04  0.41486854484E+04  0.80220377625E+02 0.  0.
        -13    1    3    3    0    0 -0.13716060452E+02  0.50514602894E+01 -0.13092060959E+03  0.13173402591E+03  0.00000000000E+00 0.  1.
         14    1    3    3    0    0 -0.84822008641E+01 -0.12441566274E+02 -0.40169231994E+04  0.40169514225E+04  0.00000000000E+00 0. -1.
          1    1    1    2  501    0  0.22198261316E+02  0.73901059844E+01 -0.50785693880E+02  0.55915679150E+02  0.00000000000E+00 0. -1.
<mgrwt>
<rscale>  1 0.83562464E+02</rscale>
<asrwt>0</asrwt>
<pdfrwt beam="1">  1       21 0.45935525E-03 0.83562464E+02</pdfrwt>
<pdfrwt beam="2">  1        2 0.64640305E+00 0.83562464E+02</pdfrwt>
<totfact> 0.56589932E+04</totfact>
</mgrwt>
</event>
<event>
 6    2  0.8544106E+000  0.8814038E+02  0.7546771E-02  0.1307419E+00
         21   -1    0    0  501  502  0.00000000000E+00  0.00000000000E+00  0.96806086799E+01  0.96806086799E+01  0.00000000000E+00 0. -1.
          2   -1    0    0  502    0 -0.00000000000E+00 -0.00000000000E+00 -0.37993810067E+03  0.37993810067E+03  0.00000000000E+00 0. -1.
         24    2    1    2    0    0 -0.36615756338E+01 -0.29717359995E+02 -0.31067248326E+03  0.32293361442E+03  0.82898726421E+02 0.  0.
        -11    1    3    3    0    0  0.19558938676E+02  0.28730331336E+00 -0.14521021821E+02  0.24361746654E+02  0.00000000000E+00 0.  1.
         12    1    3    3    0    0 -0.23220514309E+02 -0.30004663308E+02 -0.29615146144E+03  0.29857186776E+03  0.00000000000E+00 0. -1.
          1    1    1    2  501    0  0.36615756338E+01  0.29717359995E+02 -0.59585008724E+02  0.66685094930E+02  0.00000000000E+00 0. -1.
<mgrwt>
<rscale>  1 0.88140385E+02</rscale>
<asrwt>0</asrwt>
<pdfrwt beam="1">  1       21 0.14893245E-02 0.88140385E+02</pdfrwt>
<pdfrwt beam="2">  1        2 0.58452010E-01 0.88140385E+02</pdfrwt>
<totfact> 0.19308533E+06</totfact>
</mgrwt>
</event>
<event>
 6    2  0.8544106E+000  0.9016747E+02  0.7546771E-02  0.1302447E+00
         21   -1    0    0  501  502  0.00000000000E+00  0.00000000000E+00  0.53864085519E+02  0.53864085519E+02  0.00000000000E+00 0.  1.
         -1   -1    0    0    0  501 -0.00000000000E+00 -0.00000000000E+00 -0.15084788575E+03  0.15084788575E+03  0.00000000000E+00 0.  1.
         24    2    1    2    0    0 -0.22580284808E+02  0.33914234749E+02 -0.12582246287E+03  0.15479490963E+03  0.80437101541E+02 0.  0.
        -11    1    3    3    0    0  0.47285167603E+00 -0.30313356119E+01 -0.10750925697E+03  0.10755302375E+03  0.00000000000E+00 0.  1.
         12    1    3    3    0    0 -0.23053136484E+02  0.36945570361E+02 -0.18313205902E+02  0.47241885880E+02  0.00000000000E+00 0. -1.
         -2    1    1    2    0  502  0.22580284808E+02 -0.33914234749E+02  0.28838662634E+02  0.49917061643E+02  0.00000000000E+00 0.  1.
<mgrwt>
<rscale>  1 0.90167466E+02</rscale>
<asrwt>0</asrwt>
<pdfrwt beam="1">  1       21 0.82867826E-02 0.90167466E+02</pdfrwt>
<pdfrwt beam="2">  1       -1 0.23207366E-01 0.90167466E+02</pdfrwt>
<totfact> 0.15446337E+05</totfact>
</mgrwt>
</event>
<event>
 6    2  0.8544106E+000  0.9269148E+02  0.7546771E-02  0.1296462E+00
         21   -1    0    0  501  502  0.00000000000E+00  0.00000000000E+00  0.19672978371E+02  0.19672978371E+02  0.00000000000E+00 0. -1.
         -1   -1    0    0    0  501 -0.00000000000E+00 -0.00000000000E+00 -0.27234140320E+03  0.27234140320E+03  0.00000000000E+00 0.  1.
         24    2    1    2    0    0 -0.46161333838E+02  0.31780173217E+00 -0.12056530604E+03  0.15207795410E+03  0.80378737007E+02 0.  0.
        -13    1    3    3    0    0 -0.25928757493E+01  0.50888964511E+01 -0.10561507151E+03  0.10576938689E+03  0.00000000000E+00 0.  1.
         14    1    3    3    0    0 -0.43568458089E+02 -0.47710947190E+01 -0.14950234532E+02  0.46308567216E+02  0.00000000000E+00 0. -1.
         -2    1    1    2    0  502  0.46161333838E+02 -0.31780173217E+00 -0.13210311878E+03  0.13993642747E+03  0.00000000000E+00 0.  1.
<mgrwt>
<rscale>  1 0.92691483E+02</rscale>
<asrwt>0</asrwt>
<pdfrwt beam="1">  1       21 0.30266120E-02 0.92691483E+02</pdfrwt>
<pdfrwt beam="2">  1       -1 0.41898678E-01 0.92691483E+02</pdfrwt>
<totfact> 0.30854076E+05</totfact>
</mgrwt>
</event>
<event>
 6    2  0.8544106E+000  0.8780419E+02  0.7546771E-02  0.1308258E+00
          2   -1    0    0  502    0 -0.00000000000E+00  0.00000000000E+00  0.92385824193E+03  0.92385824193E+03  0.00000000000E+00 0. -1.
         21   -1    0    0  501  502  0.00000000000E+00 -0.00000000000E+00 -0.54090608360E+01  0.54090608360E+01  0.00000000000E+00 0.  1.
         24    2    1    2    0    0 -0.17231364660E+02  0.28262961464E+02  0.38908928316E+03  0.39887347129E+03  0.81325647347E+02 0.  0.
        -13    1    3    3    0    0 -0.42512861806E+02  0.40819916773E+02  0.23959650359E+03  0.24673891780E+03  0.00000000000E+00 0.  1.
         14    1    3    3    0    0  0.25281497146E+02 -0.12556955309E+02  0.14949277957E+03  0.15213455350E+03  0.00000000000E+00 0. -1.
          1    1    1    2  501    0  0.17231364660E+02 -0.28262961464E+02  0.52935989793E+03  0.53039383147E+03  0.00000000000E+00 0. -1.
<mgrwt>
<rscale>  1 0.87804190E+02</rscale>
<asrwt>0</asrwt>
<pdfrwt beam="1">  1       21 0.83216394E-03 0.87804190E+02</pdfrwt>
<pdfrwt beam="2">  1        2 0.14213191E+00 0.87804190E+02</pdfrwt>
<totfact> 0.17556215E+06</totfact>
</mgrwt>
</event>
<event>
 6    2  0.8544106E+000  0.8279834E+02  0.7546771E-02  0.1321293E+00
         -1   -1    0    0    0  501 -0.00000000000E+00  0.00000000000E+00  0.16936348366E+03  0.16936348366E+03  0.00000000000E+00 0.  1.
         21   -1    0    0  501  502  0.00000000000E+00 -0.00000000000E+00 -0.25684954178E+02  0.25684954178E+02  0.00000000000E+00 0.  1.
         24    2    1    2    0    0  0.18504096117E+02  0.89092814117E+01  0.15184091727E+03  0.17294863143E+03  0.80210897571E+02 0.  0.
        -13    1    3    3    0    0  0.37725328398E+02 -0.23325671567E+02  0.94875070429E+02  0.10473092354E+03  0.00000000000E+00 0.  1.
         14    1    3    3    0    0 -0.19221232281E+02  0.32234952978E+02  0.56965846841E+02  0.68217707893E+02  0.00000000000E+00 0. -1.
         -2    1    1    2    0  502 -0.18504096117E+02 -0.89092814117E+01 -0.81623877923E+01  0.22099806399E+02  0.00000000000E+00 0.  1.
<mgrwt>
<rscale>  1 0.82798339E+02</rscale>
<asrwt>0</asrwt>
<pdfrwt beam="1">  1       21 0.39515315E-02 0.82798339E+02</pdfrwt>
<pdfrwt beam="2">  1       -1 0.26055920E-01 0.82798339E+02</pdfrwt>
<totfact> 0.43912714E+05</totfact>
</mgrwt>
</event>
<event>
 6    2  0.8544106E+000  0.8307467E+02  0.7546771E-02  0.1320546E+00
         21   -1    0    0  501  502  0.00000000000E+00  0.00000000000E+00  0.88849554848E+02  0.88849554848E+02  0.00000000000E+00 0. -1.
          2   -1    0    0  502    0 -0.00000000000E+00 -0.00000000000E+00 -0.61255384315E+02  0.61255384315E+02  0.00000000000E+00 0. -1.
         24    2    1    2    0    0  0.16933103339E+02 -0.12786102849E+02 -0.30313342627E+02  0.88432461548E+02  0.80319282240E+02 0.  0.
        -11    1    3    3    0    0  0.53355893976E+01 -0.39349463301E+02  0.78823377239E+01  0.40484318252E+02  0.00000000000E+00 0.  1.
         12    1    3    3    0    0  0.11597513942E+02  0.26563360452E+02 -0.38195680351E+02  0.47948143297E+02  0.00000000000E+00 0. -1.
          1    1    1    2  501    0 -0.16933103339E+02  0.12786102849E+02  0.57907513160E+02  0.61672477614E+02  0.00000000000E+00 0. -1.
<mgrwt>
<rscale>  1 0.83074674E+02</rscale>
<asrwt>0</asrwt>
<pdfrwt beam="1">  1       21 0.13669162E-01 0.83074674E+02</pdfrwt>
<pdfrwt beam="2">  1        2 0.94239052E-02 0.83074674E+02</pdfrwt>
<totfact> 0.36423767E+05</totfact>
</mgrwt>
</event>
<event>
 6    2  0.8544106E+000  0.8167920E+02  0.7546771E-02  0.1324353E+00
         21   -1    0    0  501  502  0.00000000000E+00  0.00000000000E+00  0.20309386919E+01  0.20309386919E+01  0.00000000000E+00 0.  1.
          2   -1    0    0  502    0 -0.00000000000E+00 -0.00000000000E+00 -0.14430860240E+04  0.14430860240E+04  0.00000000000E+00 0. -1.
         24    2    1    2    0    0 -0.10481555496E+02  0.22755054301E+02 -0.11955523903E+04  0.11983392718E+04  0.77742116698E+02 0.  0.
        -11    1    3    3    0    0  0.28981009514E+01  0.47276393668E+02 -0.50339097714E+03  0.50561441065E+03  0.00000000000E+00 0.  1.
         12    1    3    3    0    0 -0.13379656447E+02 -0.24521339367E+02 -0.69216141320E+03  0.69272486112E+03  0.00000000000E+00 0. -1.
          1    1    1    2  501    0  0.10481555496E+02 -0.22755054301E+02 -0.24550269496E+03  0.24677769092E+03  0.00000000000E+00 0. -1.
<mgrwt>
<rscale>  1 0.81679203E+02</rscale>
<asrwt>0</asrwt>
<pdfrwt beam="1">  1       21 0.31245212E-03 0.81679203E+02</pdfrwt>
<pdfrwt beam="2">  1        2 0.22201322E+00 0.81679203E+02</pdfrwt>
<totfact> 0.40507835E+06</totfact>
</mgrwt>
</event>
<event>
 6    2  0.8544106E+000  0.8422316E+02  0.7546771E-02  0.1317477E+00
         21   -1    0    0  501  502  0.00000000000E+00  0.00000000000E+00  0.16725220216E+01  0.16725220216E+01  0.00000000000E+00 0. -1.
         -3   -1    0    0    0  501 -0.00000000000E+00 -0.00000000000E+00 -0.17485376156E+04  0.17485376156E+04  0.00000000000E+00 0.  1.
         24    2    1    2    0    0 -0.23515491200E+02  0.19060515032E+01 -0.14190114703E+04  0.14215087387E+04  0.80851283155E+02 0.  0.
        -11    1    3    3    0    0  0.13468384266E+02 -0.27177464228E+02 -0.85514056036E+03  0.85567832152E+03  0.00000000000E+00 0.  1.
         12    1    3    3    0    0 -0.36983875466E+02  0.29083515731E+02 -0.56387090998E+03  0.56583041722E+03  0.00000000000E+00 0. -1.
         -4    1    1    2    0  502  0.23515491200E+02 -0.19060515032E+01 -0.32785362319E+03  0.32870139884E+03  0.00000000000E+00 0.  1.
<mgrwt>
<rscale>  1 0.84223164E+02</rscale>
<asrwt>0</asrwt>
<pdfrwt beam="1">  1       21 0.25731048E-03 0.84223164E+02</pdfrwt>
<pdfrwt beam="2">  1       -3 0.26900642E+00 0.84223164E+02</pdfrwt>
<totfact> 0.93015452E+04</totfact>
</mgrwt>
</event>
<event>
 6    2  0.8544106E+000  0.8536962E+02  0.7546771E-02  0.1314469E+00
         21   -1    0    0  501  502  0.00000000000E+00  0.00000000000E+00  0.13928614160E+04  0.13928614160E+04  0.00000000000E+00 0.  1.
          4   -1    0    0  502    0 -0.00000000000E+00 -0.00000000000E+00 -0.36403365144E+01  0.36403365144E+01  0.00000000000E+00 0. -1.
         24    2    1    2    0    0 -0.82874484264E+01 -0.28243397982E+02  0.12945197850E+04  0.12973316637E+04  0.80134890320E+02 0.  0.
        -13    1    3    3    0    0  0.16245441384E+01 -0.49428731528E+02  0.11379819943E+04  0.11390561259E+04  0.00000000000E+00 0.  1.
         14    1    3    3    0    0 -0.99119925648E+01  0.21185333546E+02  0.15653779070E+03  0.15827553782E+03  0.00000000000E+00 0. -1.
          3    1    1    2  501    0  0.82874484264E+01  0.28243397982E+02  0.94701294491E+02  0.99170088783E+02  0.00000000000E+00 0. -1.
<mgrwt>
<rscale>  1 0.85369620E+02</rscale>
<asrwt>0</asrwt>
<pdfrwt beam="1">  1       21 0.21428595E+00 0.85369620E+02</pdfrwt>
<pdfrwt beam="2">  1        4 0.56005288E-03 0.85369620E+02</pdfrwt>
<totfact> 0.31317148E+04</totfact>
</mgrwt>
</event>
<event>
 6    2  0.8544106E+000  0.1008124E+03  0.7546771E-02  0.1278597E+00
          2   -1    0    0  502    0 -0.00000000000E+00  0.00000000000E+00  0.19662669643E+04  0.19662669643E+04  0.00000000000E+00 0. -1.
         21   -1    0    0  501  502  0.00000000000E+00 -0.00000000000E+00 -0.22714877341E+02  0.22714877341E+02  0.00000000000E+00 0. -1.
         24    2    1    2    0    0  0.59447602347E+02 -0.93307107666E+01  0.19226327013E+04  0.19252739121E+04  0.80882958878E+02 0.  0.
        -11    1    3    3    0    0  0.62169885800E+00 -0.26798926279E+02  0.23465517437E+03  0.23618132826E+03  0.00000000000E+00 0.  1.
         12    1    3    3    0    0  0.58825903489E+02  0.17468215512E+02  0.16879775269E+04  0.16890925839E+04  0.00000000000E+00 0. -1.
          1    1    1    2  501    0 -0.59447602347E+02  0.93307107666E+01  0.20919385685E+02  0.63707929535E+02  0.00000000000E+00 0. -1.
<mgrwt>
<rscale>  1 0.10081236E+03</rscale>
<asrwt>0</asrwt>
<pdfrwt beam="1">  1       21 0.34945981E-02 0.10081236E+03</pdfrwt>
<pdfrwt beam="2">  1        2 0.30250247E+00 0.10081236E+03</pdfrwt>
<totfact> 0.50365104E+04</totfact>
</mgrwt>
</event>
<event>
 6    2  0.8544106E+000  0.2026280E+03  0.7546771E-02  0.1147541E+00
          2   -1    0    0  502    0 -0.00000000000E+00  0.00000000000E+00  0.11172458444E+04  0.11172458444E+04  0.00000000000E+00 0. -1.
         21   -1    0    0  501  502  0.00000000000E+00 -0.00000000000E+00 -0.33744028640E+02  0.33744028640E+02  0.00000000000E+00 0. -1.
         24    2    1    2    0    0 -0.73900603580E+02  0.17030993537E+03  0.55607173540E+03  0.59183938975E+03  0.81186914316E+02 0.  0.
        -11    1    3    3    0    0 -0.27917911014E+02  0.11121865560E+03  0.43169060793E+03  0.44666069906E+03  0.00000000000E+00 0.  1.
         12    1    3    3    0    0 -0.45982692566E+02  0.59091279772E+02  0.12438112747E+03  0.14517869069E+03  0.00000000000E+00 0. -1.
          1    1    1    2  501    0  0.73900603580E+02 -0.17030993537E+03  0.52743008040E+03  0.55915048333E+03  0.00000000000E+00 0. -1.
<mgrwt>
<rscale>  1 0.20262796E+03</rscale>
<asrwt>0</asrwt>
<pdfrwt beam="1">  1       21 0.51913899E-02 0.20262796E+03</pdfrwt>
<pdfrwt beam="2">  1        2 0.17188395E+00 0.20262796E+03</pdfrwt>
<totfact> 0.71765632E+04</totfact>
</mgrwt>
</event>
<event>
 6    2  0.8544106E+000  0.1000075E+03  0.7546771E-02  0.1280280E+00
          2   -1    0    0  502    0 -0.00000000000E+00  0.00000000000E+00  0.74064161053E+02  0.74064161053E+02  0.00000000000E+00 0. -1.
         21   -1    0    0  501  502  0.00000000000E+00 -0.00000000000E+00 -0.55456659879E+03  0.55456659879E+03  0.00000000000E+00 0. -1.
         24    2    1    2    0    0 -0.32462348614E+02  0.43630330721E+02  0.38222552604E+02  0.10706290669E+03  0.83929092843E+02 0.  0.
        -11    1    3    3    0    0  0.16954582921E+02 -0.15052643981E+02  0.38530071529E+01  0.22997513713E+02  0.00000000000E+00 0.  1.
         12    1    3    3    0    0 -0.49416931536E+02  0.58682974702E+02  0.34369545452E+02  0.84065392980E+02  0.00000000000E+00 0. -1.
          1    1    1    2  501    0  0.32462348614E+02 -0.43630330721E+02 -0.51872499034E+03  0.52156785315E+03  0.00000000000E+00 0. -1.
<mgrwt>
<rscale>  1 0.10000751E+03</rscale>
<asrwt>0</asrwt>
<pdfrwt beam="1">  1       21 0.85317937E-01 0.10000751E+03</pdfrwt>
<pdfrwt beam="2">  1        2 0.11394487E-01 0.10000751E+03</pdfrwt>
<totfact> 0.80260726E+03</totfact>
</mgrwt>
</event>
<event>
 6    2  0.8544106E+000  0.1118807E+03  0.7546771E-02  0.1257126E+00
          2   -1    0    0  502    0 -0.00000000000E+00  0.00000000000E+00  0.30989803659E+02  0.30989803659E+02  0.00000000000E+00 0. -1.
         21   -1    0    0  501  502  0.00000000000E+00 -0.00000000000E+00 -0.35641687758E+03  0.35641687758E+03  0.00000000000E+00 0. -1.
         24    2    1    2    0    0 -0.24799823023E+02 -0.74565886578E+02 -0.10516985155E+03  0.15355128431E+03  0.79637909170E+02 0.  0.
        -11    1    3    3    0    0  0.43136634315E+00  0.78218736441E+01 -0.51383093405E+02  0.51976822451E+02  0.00000000000E+00 0.  1.
         12    1    3    3    0    0 -0.25231189367E+02 -0.82387760222E+02 -0.53786758140E+02  0.10157446186E+03  0.00000000000E+00 0. -1.
          1    1    1    2  501    0  0.24799823023E+02  0.74565886578E+02 -0.22025722238E+03  0.23385539693E+03  0.00000000000E+00 0. -1.
<mgrwt>
<rscale>  1 0.11188074E+03</rscale>
<asrwt>0</asrwt>
<pdfrwt beam="1">  1       21 0.54833364E-01 0.11188074E+03</pdfrwt>
<pdfrwt beam="2">  1        2 0.47676623E-02 0.11188074E+03</pdfrwt>
<totfact> 0.62197572E+04</totfact>
</mgrwt>
</event>
<event>
 6    2  0.8544106E+000  0.1035592E+03  0.7546771E-02  0.1272985E+00
         21   -1    0    0  501  502  0.00000000000E+00  0.00000000000E+00  0.26929316295E+01  0.26929316295E+01  0.00000000000E+00 0. -1.
          2   -1    0    0  502    0 -0.00000000000E+00 -0.00000000000E+00 -0.27633429018E+04  0.27633429018E+04  0.00000000000E+00 0. -1.
         24    2    1    2    0    0 -0.34000254734E+01 -0.55356476012E+02 -0.12198161189E+04  0.12242041770E+04  0.87456294207E+02 0.  0.
        -11    1    3    3    0    0  0.28249661578E+02 -0.19884361870E+01 -0.15391288398E+03  0.15649655943E+03  0.00000000000E+00 0.  1.
         12    1    3    3    0    0 -0.31649687051E+02 -0.53368039825E+02 -0.10659032349E+04  0.10677076176E+04  0.00000000000E+00 0. -1.
          1    1    1    2  501    0  0.34000254734E+01  0.55356476012E+02 -0.15408338512E+04  0.15418316564E+04  0.00000000000E+00 0. -1.
<mgrwt>
<rscale>  1 0.10355918E+03</rscale>
<asrwt>0</asrwt>
<pdfrwt beam="1">  1       21 0.41429797E-03 0.10355918E+03</pdfrwt>
<pdfrwt beam="2">  1        2 0.42512886E+00 0.10355918E+03</pdfrwt>
<totfact> 0.56098271E+05</totfact>
</mgrwt>
</event>
<event>
 6    2  0.8544106E+000  0.8876899E+02  0.7546771E-02  0.1305860E+00
          2   -1    0    0  502    0 -0.00000000000E+00  0.00000000000E+00  0.24529722518E+03  0.24529722518E+03  0.00000000000E+00 0. -1.
         21   -1    0    0  501  502  0.00000000000E+00 -0.00000000000E+00 -0.23253705541E+02  0.23253705541E+02  0.00000000000E+00 0. -1.
         24    2    1    2    0    0  0.17787770000E+02  0.26369843387E+02  0.21934696053E+03  0.23662844910E+03  0.82874365317E+02 0.  0.
        -13    1    3    3    0    0  0.97315765482E+00  0.11150478372E+01 -0.75592537694E+01  0.77027712578E+01  0.00000000000E+00 0.  1.
         14    1    3    3    0    0  0.16814612345E+02  0.25254795550E+02  0.22690621430E+03  0.22892567784E+03  0.00000000000E+00 0. -1.
          1    1    1    2  501    0 -0.17787770000E+02 -0.26369843387E+02  0.26965591062E+01  0.31922481621E+02  0.00000000000E+00 0. -1.
<mgrwt>
<rscale>  1 0.88768991E+02</rscale>
<asrwt>0</asrwt>
<pdfrwt beam="1">  1       21 0.35774933E-02 0.88768991E+02</pdfrwt>
<pdfrwt beam="2">  1        2 0.37738033E-01 0.88768991E+02</pdfrwt>
<totfact> 0.74595138E+05</totfact>
</mgrwt>
</event>
<event>
 6    2  0.8544106E+000  0.8909225E+02  0.7546771E-02  0.1305065E+00
          2   -1    0    0  502    0 -0.00000000000E+00  0.00000000000E+00  0.52219324039E+03  0.52219324039E+03  0.00000000000E+00 0. -1.
         21   -1    0    0  501  502  0.00000000000E+00 -0.00000000000E+00 -0.80088326569E+01  0.80088326569E+01  0.00000000000E+00 0.  1.
         24    2    1    2    0    0 -0.39838008642E+02  0.37596756838E+01  0.36915229401E+03  0.37975103083E+03  0.79600421784E+02 0.  0.
        -11    1    3    3    0    0 -0.26142026800E+02  0.93641109860E+01  0.32390407748E+02  0.42664161234E+02  0.00000000000E+00 0.  1.
         12    1    3    3    0    0 -0.13695981842E+02 -0.56044353021E+01  0.33676188626E+03  0.33708686959E+03  0.00000000000E+00 0. -1.
          1    1    1    2  501    0  0.39838008642E+02 -0.37596756838E+01  0.14503211372E+03  0.15045104222E+03  0.00000000000E+00 0. -1.
<mgrwt>
<rscale>  1 0.89092251E+02</rscale>
<asrwt>0</asrwt>
<pdfrwt beam="1">  1       21 0.12321285E-02 0.89092251E+02</pdfrwt>
<pdfrwt beam="2">  1        2 0.80337395E-01 0.89092251E+02</pdfrwt>
<totfact> 0.18583950E+06</totfact>
</mgrwt>
</event>
<event>
 6    2  0.8544106E+000  0.8665118E+02  0.7546771E-02  0.1311170E+00
         21   -1    0    0  501  502  0.00000000000E+00  0.00000000000E+00  0.24760397516E+02  0.24760397516E+02  0.00000000000E+00 0. -1.
         -3   -1    0    0    0  501 -0.00000000000E+00 -0.00000000000E+00 -0.15840317660E+03  0.15840317660E+03  0.00000000000E+00 0.  1.
         24    2    1    2    0    0  0.23495317234E+02 -0.23912758860E+02 -0.11739193789E+03  0.14590850993E+03  0.79903543218E+02 0.  0.
        -13    1    3    3    0    0 -0.27695068560E+02 -0.15505366523E+02 -0.64148668136E+02  0.71571536502E+02  0.00000000000E+00 0.  1.
         14    1    3    3    0    0  0.51190385794E+02 -0.84073923367E+01 -0.53243269755E+02  0.74336973424E+02  0.00000000000E+00 0. -1.
         -4    1    1    2    0  502 -0.23495317234E+02  0.23912758860E+02 -0.16250841192E+02  0.37255064188E+02  0.00000000000E+00 0.  1.
<mgrwt>
<rscale>  1 0.86651175E+02</rscale>
<asrwt>0</asrwt>
<pdfrwt beam="1">  1       21 0.38092920E-02 0.86651175E+02</pdfrwt>
<pdfrwt beam="2">  1       -3 0.24369719E-01 0.86651175E+02</pdfrwt>
<totfact> 0.29440998E+05</totfact>
</mgrwt>
</event>
<event>
 6    2  0.8544106E+000  0.8024808E+02  0.7546771E-02  0.1328349E+00
         -3   -1    0    0    0  501 -0.00000000000E+00  0.00000000000E+00  0.58023040786E+02  0.58023040786E+02  0.00000000000E+00 0.  1.
         21   -1    0    0  501  502  0.00000000000E+00 -0.00000000000E+00 -0.48722360756E+02  0.48722360756E+02  0.00000000000E+00 0.  1.
         24    2    1    2    0    0 -0.23052344750E+02 -0.26959168479E+01 -0.33387534599E+01  0.80317502551E+02  0.76818457256E+02 0.  0.
        -11    1    3    3    0    0 -0.32413192093E+02  0.10908167318E+02  0.28456160061E+02  0.44489955960E+02  0.00000000000E+00 0.  1.
         12    1    3    3    0    0  0.93608473429E+01 -0.13604084166E+02 -0.31794913521E+02  0.35827546591E+02  0.00000000000E+00 0. -1.
         -4    1    1    2    0  502  0.23052344750E+02  0.26959168479E+01  0.12639433490E+02  0.26427898991E+02  0.00000000000E+00 0.  1.
<mgrwt>
<rscale>  1 0.80248077E+02</rscale>
<asrwt>0</asrwt>
<pdfrwt beam="1">  1       21 0.74957478E-02 0.80248077E+02</pdfrwt>
<pdfrwt beam="2">  1       -3 0.89266216E-02 0.80248077E+02</pdfrwt>
<totfact> 0.51403684E+05</totfact>
</mgrwt>
</event>
<event>
 6    2  0.8544106E+000  0.8369424E+02  0.7546771E-02  0.1318883E+00
          2   -1    0    0  502    0 -0.00000000000E+00  0.00000000000E+00  0.84866020679E+03  0.84866020679E+03  0.00000000000E+00 0. -1.
         21   -1    0    0  501  502  0.00000000000E+00 -0.00000000000E+00 -0.68388097046E+01  0.68388097046E+01  0.00000000000E+00 0. -1.
         24    2    1    2    0    0 -0.30635840332E+01 -0.29577556543E+02  0.79896626261E+03  0.80333792037E+03  0.78233676354E+02 0.  0.
        -13    1    3    3    0    0  0.10393475867E+02  0.66387622727E+01  0.20572739855E+02  0.23986144548E+02  0.00000000000E+00 0.  1.
         14    1    3    3    0    0 -0.13457059900E+02 -0.36216318815E+02  0.77839352276E+03  0.77935177582E+03  0.00000000000E+00 0. -1.
          1    1    1    2  501    0  0.30635840332E+01  0.29577556543E+02  0.42855134478E+02  0.52161096128E+02  0.00000000000E+00 0. -1.
<mgrwt>
<rscale>  1 0.83694238E+02</rscale>
<asrwt>0</asrwt>
<pdfrwt beam="1">  1       21 0.10521252E-02 0.83694238E+02</pdfrwt>
<pdfrwt beam="2">  1        2 0.13056303E+00 0.83694238E+02</pdfrwt>
<totfact> 0.13508457E+06</totfact>
</mgrwt>
</event>
<event>
 6    2  0.8544106E+000  0.1047479E+03  0.7546771E-02  0.1270617E+00
         21   -1    0    0  501  502  0.00000000000E+00  0.00000000000E+00  0.10597651170E+02  0.10597651170E+02  0.00000000000E+00 0.  1.
          2   -1    0    0  502    0 -0.00000000000E+00 -0.00000000000E+00 -0.73971161069E+03  0.73971161069E+03  0.00000000000E+00 0. -1.
         24    2    1    2    0    0 -0.47784456439E+02 -0.43997179284E+02 -0.33866070583E+03  0.35449004886E+03  0.82176730318E+02 0.  0.
        -13    1    3    3    0    0 -0.70643034623E+02 -0.40643400709E+02 -0.25588586431E+03  0.26855148466E+03  0.00000000000E+00 0.  1.
         14    1    3    3    0    0  0.22858578185E+02 -0.33537785748E+01 -0.82774841526E+02  0.85938564202E+02  0.00000000000E+00 0. -1.
          1    1    1    2  501    0  0.47784456439E+02  0.43997179284E+02 -0.39045325369E+03  0.39581921300E+03  0.00000000000E+00 0. -1.
<mgrwt>
<rscale>  1 0.10474789E+03</rscale>
<asrwt>0</asrwt>
<pdfrwt beam="1">  1       21 0.16304078E-02 0.10474789E+03</pdfrwt>
<pdfrwt beam="2">  1        2 0.11380179E+00 0.10474789E+03</pdfrwt>
<totfact> 0.81564006E+05</totfact>
</mgrwt>
</event>
<event>
 6    2  0.8544106E+000  0.8404376E+02  0.7546771E-02  0.1317952E+00
          2   -1    0    0  502    0 -0.00000000000E+00  0.00000000000E+00  0.13361404864E+04  0.13361404864E+04  0.00000000000E+00 0. -1.
         21   -1    0    0  501  502  0.00000000000E+00 -0.00000000000E+00 -0.21172567405E+01  0.21172567405E+01  0.00000000000E+00 0.  1.
         24    2    1    2    0    0 -0.21536178402E+02 -0.59086539721E+01  0.10537232744E+04  0.10570695783E+04  0.81022435271E+02 0.  0.
        -11    1    3    3    0    0 -0.25232266168E+02 -0.35333400381E+02  0.34431264883E+03  0.34703935884E+03  0.00000000000E+00 0.  1.
         12    1    3    3    0    0  0.36960877663E+01  0.29424746408E+02  0.70941062560E+03  0.71003021941E+03  0.00000000000E+00 0. -1.
          1    1    1    2  501    0  0.21536178402E+02  0.59086539721E+01  0.28029995518E+03  0.28118816484E+03  0.00000000000E+00 0. -1.
<mgrwt>
<rscale>  1 0.84043764E+02</rscale>
<asrwt>0</asrwt>
<pdfrwt beam="1">  1       21 0.32573287E-03 0.84043764E+02</pdfrwt>
<pdfrwt beam="2">  1        2 0.20555940E+00 0.84043764E+02</pdfrwt>
<totfact> 0.43330607E+06</totfact>
</mgrwt>
</event>
<event>
 6    2  0.8544106E+000  0.9123438E+02  0.7546771E-02  0.1299890E+00
         -1   -1    0    0    0  501 -0.00000000000E+00  0.00000000000E+00  0.73505939588E+03  0.73505939588E+03  0.00000000000E+00 0.  1.
         21   -1    0    0  501  502  0.00000000000E+00 -0.00000000000E+00 -0.58840144384E+01  0.58840144384E+01  0.00000000000E+00 0. -1.
         24    2    1    2    0    0 -0.98243081161E+01 -0.38868173038E+02  0.52522796703E+03  0.53309298392E+03  0.81954013069E+02 0.  0.
        -13    1    3    3    0    0  0.18138836661E+02  0.17617809806E+02  0.21834745984E+03  0.21980677386E+03  0.00000000000E+00 0.  1.
         14    1    3    3    0    0 -0.27963144777E+02 -0.56485982844E+02  0.30688050719E+03  0.31328621006E+03  0.00000000000E+00 0. -1.
         -2    1    1    2    0  502  0.98243081161E+01  0.38868173038E+02  0.20394741442E+03  0.20785042639E+03  0.00000000000E+00 0.  1.
<mgrwt>
<rscale>  1 0.91234380E+02</rscale>
<asrwt>0</asrwt>
<pdfrwt beam="1">  1       21 0.90523357E-03 0.91234380E+02</pdfrwt>
<pdfrwt beam="2">  1       -1 0.11308599E+00 0.91234380E+02</pdfrwt>
<totfact> 0.29810800E+05</totfact>
</mgrwt>
</event>
<event>
 6    2  0.8544106E+000  0.8607899E+02  0.7546771E-02  0.1312635E+00
          2   -1    0    0  502    0 -0.00000000000E+00  0.00000000000E+00  0.33969103679E+03  0.33969103679E+03  0.00000000000E+00 0. -1.
         21   -1    0    0  501  502  0.00000000000E+00 -0.00000000000E+00 -0.36950318711E+02  0.36950318711E+02  0.00000000000E+00 0. -1.
         24    2    1    2    0    0 -0.11534675336E+02  0.29137167586E+02  0.32628274678E+03  0.33744632539E+03  0.80172117382E+02 0.  0.
        -13    1    3    3    0    0  0.36244114909E+01 -0.26487175405E+02  0.13676117240E+03  0.13934965050E+03  0.00000000000E+00 0.  1.
         14    1    3    3    0    0 -0.15159086827E+02  0.55624342991E+02  0.18952157438E+03  0.19809667489E+03  0.00000000000E+00 0. -1.
          1    1    1    2  501    0  0.11534675336E+02 -0.29137167586E+02 -0.23542028698E+02  0.39195030109E+02  0.00000000000E+00 0. -1.
<mgrwt>
<rscale>  1 0.86078985E+02</rscale>
<asrwt>0</asrwt>
<pdfrwt beam="1">  1       21 0.56846646E-02 0.86078985E+02</pdfrwt>
<pdfrwt beam="2">  1        2 0.52260157E-01 0.86078985E+02</pdfrwt>
<totfact> 0.24606743E+05</totfact>
</mgrwt>
</event>
<event>
 6    2  0.8544106E+000  0.8391814E+02  0.7546771E-02  0.1318286E+00
          2   -1    0    0  502    0 -0.00000000000E+00  0.00000000000E+00  0.17744162463E+03  0.17744162463E+03  0.00000000000E+00 0. -1.
         21   -1    0    0  501  502  0.00000000000E+00 -0.00000000000E+00 -0.19878792045E+02  0.19878792045E+02  0.00000000000E+00 0.  1.
         24    2    1    2    0    0  0.95033718448E+01 -0.18672209215E+02  0.15493879119E+03  0.17620523099E+03  0.81260623529E+02 0.  0.
        -11    1    3    3    0    0 -0.29680123328E+02 -0.17812134013E+02  0.11561444746E+03  0.12068505417E+03  0.00000000000E+00 0.  1.
         12    1    3    3    0    0  0.39183495172E+02 -0.86007520244E+00  0.39324343734E+02  0.55520176813E+02  0.00000000000E+00 0. -1.
          1    1    1    2  501    0 -0.95033718448E+01  0.18672209215E+02  0.26240413870E+01  0.21115185687E+02  0.00000000000E+00 0. -1.
<mgrwt>
<rscale>  1 0.83918141E+02</rscale>
<asrwt>0</asrwt>
<pdfrwt beam="1">  1       21 0.30582758E-02 0.83918141E+02</pdfrwt>
<pdfrwt beam="2">  1        2 0.27298710E-01 0.83918141E+02</pdfrwt>
<totfact> 0.13504242E+06</totfact>
</mgrwt>
</event>
<event>
 6    2  0.8544106E+000  0.8824879E+02  0.7546771E-02  0.1307149E+00
         21   -1    0    0  501  502  0.00000000000E+00  0.00000000000E+00  0.43136853849E+01  0.43136853849E+01  0.00000000000E+00 0.  1.
          2   -1    0    0  502    0 -0.00000000000E+00 -0.00000000000E+00 -0.87839444887E+03  0.87839444887E+03  0.00000000000E+00 0. -1.
         24    2    1    2    0    0  0.18539129509E+02 -0.29518662421E+02 -0.62289755955E+03  0.62911780973E+03  0.81072794887E+02 0.  0.
        -11    1    3    3    0    0 -0.85651788918E+01 -0.45269452526E+02 -0.20818659971E+03  0.21322369925E+03  0.00000000000E+00 0.  1.
         12    1    3    3    0    0  0.27104308400E+02  0.15750790106E+02 -0.41471095984E+03  0.41589411048E+03  0.00000000000E+00 0. -1.
          1    1    1    2  501    0 -0.18539129509E+02  0.29518662421E+02 -0.25118320393E+03  0.25359032452E+03  0.00000000000E+00 0. -1.
<mgrwt>
<rscale>  1 0.88248789E+02</rscale>
<asrwt>0</asrwt>
<pdfrwt beam="1">  1       21 0.66364347E-03 0.88248789E+02</pdfrwt>
<pdfrwt beam="2">  1        2 0.13513770E+00 0.88248789E+02</pdfrwt>
<totfact> 0.26601079E+06</totfact>
</mgrwt>
</event>
<event>
 6    2  0.8544106E+000  0.8560827E+02  0.7546771E-02  0.1313849E+00
          2   -1    0    0  502    0 -0.00000000000E+00  0.00000000000E+00  0.25784353781E+04  0.25784353781E+04  0.00000000000E+00 0. -1.
         21   -1    0    0  501  502  0.00000000000E+00 -0.00000000000E+00 -0.13751639820E+01  0.13751639820E+01  0.00000000000E+00 0. -1.
         24    2    1    2    0    0  0.23817163065E+02  0.11426471085E+02  0.22708169581E+04  0.22724300720E+04  0.81430667958E+02 0.  0.
        -11    1    3    3    0    0  0.13297068576E+02 -0.23029474518E+02  0.27383998685E+03  0.27512816491E+03  0.00000000000E+00 0.  1.
         12    1    3    3    0    0  0.10520094490E+02  0.34455945603E+02  0.19969769712E+04  0.19973019071E+04  0.00000000000E+00 0. -1.
          1    1    1    2  501    0 -0.23817163065E+02 -0.11426471085E+02  0.30624325599E+03  0.30738047000E+03  0.00000000000E+00 0. -1.
<mgrwt>
<rscale>  1 0.85608266E+02</rscale>
<asrwt>0</asrwt>
<pdfrwt beam="1">  1       21 0.21156575E-03 0.85608266E+02</pdfrwt>
<pdfrwt beam="2">  1        2 0.39667850E+00 0.85608266E+02</pdfrwt>
<totfact> 0.19404840E+06</totfact>
</mgrwt>
</event>
<event>
 6    2  0.8544106E+000  0.8531333E+02  0.7546771E-02  0.1314615E+00
          2   -1    0    0  502    0 -0.00000000000E+00  0.00000000000E+00  0.15267928211E+04  0.15267928211E+04  0.00000000000E+00 0. -1.
         21   -1    0    0  501  502  0.00000000000E+00 -0.00000000000E+00 -0.29617479790E+01  0.29617479790E+01  0.00000000000E+00 0.  1.
         24    2    1    2    0    0  0.33200568057E+02  0.11348359630E+02  0.70046492568E+03  0.70564118141E+03  0.77764399352E+02 0.  0.
        -11    1    3    3    0    0  0.57382631701E+02  0.61884244249E+01  0.39739463008E+03  0.40156388662E+03  0.00000000000E+00 0.  1.
         12    1    3    3    0    0 -0.24182063644E+02  0.51599352047E+01  0.30307029560E+03  0.30407729479E+03  0.00000000000E+00 0. -1.
          1    1    1    2  501    0 -0.33200568057E+02 -0.11348359630E+02  0.82336614745E+03  0.82411338768E+03  0.00000000000E+00 0. -1.
<mgrwt>
<rscale>  1 0.85313333E+02</rscale>
<asrwt>0</asrwt>
<pdfrwt beam="1">  1       21 0.45565475E-03 0.85313333E+02</pdfrwt>
<pdfrwt beam="2">  1        2 0.23489057E+00 0.85313333E+02</pdfrwt>
<totfact> 0.20785883E+06</totfact>
</mgrwt>
</event>
<event>
 6    2  0.8544106E+000  0.8155012E+02  0.7546771E-02  0.1324709E+00
         -1   -1    0    0    0  501 -0.00000000000E+00  0.00000000000E+00  0.52978055074E+03  0.52978055074E+03  0.00000000000E+00 0.  1.
         21   -1    0    0  501  502  0.00000000000E+00 -0.00000000000E+00 -0.84297371178E+01  0.84297371178E+01  0.00000000000E+00 0.  1.
         24    2    1    2    0    0  0.11654322703E+02 -0.17270262929E+02  0.50548847311E+03  0.51202443164E+03  0.78843750112E+02 0.  0.
        -11    1    3    3    0    0  0.14390426209E+02 -0.47888649335E+02  0.34673884690E+03  0.35032589834E+03  0.00000000000E+00 0.  1.
         12    1    3    3    0    0 -0.27361035064E+01  0.30618386407E+02  0.15874962621E+03  0.16169853329E+03  0.00000000000E+00 0. -1.
         -2    1    1    2    0  502 -0.11654322703E+02  0.17270262929E+02  0.15862340514E+02  0.26185856218E+02  0.00000000000E+00 0.  1.
<mgrwt>
<rscale>  1 0.81550120E+02</rscale>
<asrwt>0</asrwt>
<pdfrwt beam="1">  1       21 0.12968830E-02 0.81550120E+02</pdfrwt>
<pdfrwt beam="2">  1       -1 0.81504674E-01 0.81550120E+02</pdfrwt>
<totfact> 0.33941004E+05</totfact>
</mgrwt>
</event>
<event>
 6    2  0.8544106E+000  0.6161432E+02  0.7546771E-02  0.1391179E+00
          4   -1    0    0  502    0 -0.00000000000E+00  0.00000000000E+00  0.30615856631E+02  0.30615856631E+02  0.00000000000E+00 0. -1.
         21   -1    0    0  501  502  0.00000000000E+00 -0.00000000000E+00 -0.10863208126E+03  0.10863208126E+03  0.00000000000E+00 0. -1.
         24    2    1    2    0    0 -0.19984495636E+02  0.70538564726E+01 -0.34304747040E+01  0.61709746987E+02  0.57854885356E+02 0.  0.
        -13    1    3    3    0    0 -0.20661160237E+02 -0.13969888255E+02 -0.22296503827E+02  0.33454079021E+02  0.00000000000E+00 0.  1.
         14    1    3    3    0    0  0.67666460152E+00  0.21023744727E+02  0.18866029123E+02  0.28255667966E+02  0.00000000000E+00 0. -1.
          3    1    1    2  501    0  0.19984495636E+02 -0.70538564726E+01 -0.74585749922E+02  0.77538190902E+02  0.00000000000E+00 0. -1.
<mgrwt>
<rscale>  1 0.61614322E+02</rscale>
<asrwt>0</asrwt>
<pdfrwt beam="1">  1       21 0.16712628E-01 0.61614322E+02</pdfrwt>
<pdfrwt beam="2">  1        4 0.47101318E-02 0.61614322E+02</pdfrwt>
<totfact> 0.29242568E+05</totfact>
</mgrwt>
</event>
<event>
 6    2  0.8544106E+000  0.8143616E+02  0.7546771E-02  0.1325025E+00
         21   -1    0    0  501  502  0.00000000000E+00  0.00000000000E+00  0.62680980436E+01  0.62680980436E+01  0.00000000000E+00 0. -1.
          2   -1    0    0  502    0 -0.00000000000E+00 -0.00000000000E+00 -0.58193830681E+03  0.58193830681E+03  0.00000000000E+00 0. -1.
         24    2    1    2    0    0 -0.29145458133E+02  0.31748550732E+01 -0.50759951841E+03  0.51409057443E+03  0.75975721042E+02 0.  0.
        -13    1    3    3    0    0 -0.29653001206E+00 -0.32859473736E+02 -0.15227594002E+03  0.15578124038E+03  0.00000000000E+00 0.  1.
         14    1    3    3    0    0 -0.28848928121E+02  0.36034328809E+02 -0.35532357839E+03  0.35830933404E+03  0.00000000000E+00 0. -1.
          1    1    1    2  501    0  0.29145458133E+02 -0.31748550732E+01 -0.68070690353E+02  0.74115830425E+02  0.00000000000E+00 0. -1.
<mgrwt>
<rscale>  1 0.81436157E+02</rscale>
<asrwt>0</asrwt>
<pdfrwt beam="1">  1       21 0.96432258E-03 0.81436157E+02</pdfrwt>
<pdfrwt beam="2">  1        2 0.89528988E-01 0.81436157E+02</pdfrwt>
<totfact> 0.23967757E+06</totfact>
</mgrwt>
</event>
<event>
 6    2  0.8544106E+000  0.8302665E+02  0.7546771E-02  0.1320675E+00
         21   -1    0    0  501  502  0.00000000000E+00  0.00000000000E+00  0.29321761451E+02  0.29321761451E+02  0.00000000000E+00 0. -1.
          2   -1    0    0  502    0 -0.00000000000E+00 -0.00000000000E+00 -0.15349973839E+03  0.15349973839E+03  0.00000000000E+00 0. -1.
         24    2    1    2    0    0 -0.22495055171E+02  0.14258061710E+02 -0.13121311797E+03  0.15527493852E+03  0.78639076635E+02 0.  0.
        -13    1    3    3    0    0 -0.53477351459E+01 -0.28371933254E+02 -0.20511596228E+02  0.35415963174E+02  0.00000000000E+00 0.  1.
         14    1    3    3    0    0 -0.17147320025E+02  0.42629994964E+02 -0.11070152175E+03  0.11985897535E+03  0.00000000000E+00 0. -1.
          1    1    1    2  501    0  0.22495055171E+02 -0.14258061710E+02  0.70351410374E+01  0.27546561315E+02  0.00000000000E+00 0. -1.
<mgrwt>
<rscale>  1 0.83026648E+02</rscale>
<asrwt>0</asrwt>
<pdfrwt beam="1">  1       21 0.45110403E-02 0.83026648E+02</pdfrwt>
<pdfrwt beam="2">  1        2 0.23615344E-01 0.83026648E+02</pdfrwt>
<totfact> 0.83521210E+05</totfact>
</mgrwt>
</event>
<event>
 6    2  0.8544106E+000  0.8636681E+02  0.7546771E-02  0.1311896E+00
         -3   -1    0    0    0  501 -0.00000000000E+00  0.00000000000E+00  0.47037028256E+03  0.47037028256E+03  0.00000000000E+00 0.  1.
         21   -1    0    0  501  502  0.00000000000E+00 -0.00000000000E+00 -0.79766001981E+01  0.79766001981E+01  0.00000000000E+00 0. -1.
         24    2    1    2    0    0  0.23632393635E+02 -0.18856551304E+02  0.39723805903E+03  0.40651851227E+03  0.80902198457E+02 0.  0.
        -11    1    3    3    0    0  0.28124808728E+02  0.13138313180E+02  0.33461868539E+03  0.33605547868E+03  0.00000000000E+00 0.  1.
         12    1    3    3    0    0 -0.44924150928E+01 -0.31994864484E+02  0.62619373646E+02  0.70463033588E+02  0.00000000000E+00 0. -1.
         -4    1    1    2    0  502 -0.23632393635E+02  0.18856551304E+02  0.65155623323E+02  0.71828370486E+02  0.00000000000E+00 0.  1.
<mgrwt>
<rscale>  1 0.86366807E+02</rscale>
<asrwt>0</asrwt>
<pdfrwt beam="1">  1       21 0.12271696E-02 0.86366807E+02</pdfrwt>
<pdfrwt beam="2">  1       -3 0.72364638E-01 0.86366807E+02</pdfrwt>
<totfact> 0.22173801E+05</totfact>
</mgrwt>
</event>
<event>
 6    2  0.8544106E+000  0.8520870E+02  0.7546771E-02  0.1314888E+00
         21   -1    0    0  501  502  0.00000000000E+00  0.00000000000E+00  0.48794843558E+03  0.48794843558E+03  0.00000000000E+00 0.  1.
          2   -1    0    0  502    0 -0.00000000000E+00 -0.00000000000E+00 -0.83758641511E+01  0.83758641511E+01  0.00000000000E+00 0. -1.
         24    2    1    2    0    0  0.30618268063E+02 -0.67468244558E+01  0.23935993116E+03  0.25407420061E+03  0.79230832326E+02 0.  0.
        -13    1    3    3    0    0  0.40598723086E+02  0.15287871738E+02  0.21646003421E+03  0.22076440327E+03  0.00000000000E+00 0.  1.
         14    1    3    3    0    0 -0.99804550230E+01 -0.22034696194E+02  0.22899896948E+02  0.33309797343E+02  0.00000000000E+00 0. -1.
          1    1    1    2  501    0 -0.30618268063E+02  0.67468244558E+01  0.24021264027E+03  0.24225009912E+03  0.00000000000E+00 0. -1.
<mgrwt>
<rscale>  1 0.85208701E+02</rscale>
<asrwt>0</asrwt>
<pdfrwt beam="1">  1       21 0.75068968E-01 0.85208701E+02</pdfrwt>
<pdfrwt beam="2">  1        2 0.12885949E-02 0.85208701E+02</pdfrwt>
<totfact> 0.18084281E+05</totfact>
</mgrwt>
</event>
<event>
 6    2  0.8544106E+000  0.9370416E+02  0.7546771E-02  0.1294122E+00
         21   -1    0    0  501  502  0.00000000000E+00  0.00000000000E+00  0.36473021252E+03  0.36473021252E+03  0.00000000000E+00 0. -1.
          2   -1    0    0  502    0 -0.00000000000E+00 -0.00000000000E+00 -0.18252227018E+02  0.18252227018E+02  0.00000000000E+00 0. -1.
         24    2    1    2    0    0 -0.44722899597E+02 -0.12282416504E+02  0.12237244201E+03  0.15412814063E+03  0.81421579864E+02 0.  0.
        -13    1    3    3    0    0  0.23001278301E+02  0.20815380381E+01  0.42966099188E+02  0.48779886055E+02  0.00000000000E+00 0.  1.
         14    1    3    3    0    0 -0.67724177898E+02 -0.14363954542E+02  0.79406342822E+02  0.10534825458E+03  0.00000000000E+00 0. -1.
          1    1    1    2  501    0  0.44722899597E+02  0.12282416504E+02  0.22410554349E+03  0.22885429890E+03  0.00000000000E+00 0. -1.
<mgrwt>
<rscale>  1 0.93704158E+02</rscale>
<asrwt>0</asrwt>
<pdfrwt beam="1">  1       21 0.56112335E-01 0.93704158E+02</pdfrwt>
<pdfrwt beam="2">  1        2 0.28080352E-02 0.93704158E+02</pdfrwt>
<totfact> 0.11825904E+05</totfact>
</mgrwt>
</event>
<event>
 6    2  0.8544106E+000  0.8323152E+02  0.7546771E-02  0.1320123E+00
         21   -1    0    0  501  502  0.00000000000E+00  0.00000000000E+00  0.13280813611E+03  0.13280813611E+03  0.00000000000E+00 0.  1.
         -1   -1    0    0    0  501 -0.00000000000E+00 -0.00000000000E+00 -0.42983656958E+02  0.42983656958E+02  0.00000000000E+00 0.  1.
         24    2    1    2    0    0  0.97865189116E+01  0.19551200121E+02 -0.11641151302E+00  0.83231600802E+02  0.80308532809E+02 0.  0.
        -13    1    3    3    0    0  0.26369441288E+02 -0.13701426240E+02 -0.24730059697E+02  0.38660734181E+02  0.00000000000E+00 0.  1.
         14    1    3    3    0    0 -0.16582922376E+02  0.33252626361E+02  0.24613648184E+02  0.44570866621E+02  0.00000000000E+00 0. -1.
         -2    1    1    2    0  502 -0.97865189116E+01 -0.19551200121E+02  0.89940890668E+02  0.92560192269E+02  0.00000000000E+00 0.  1.
<mgrwt>
<rscale>  1 0.83231519E+02</rscale>
<asrwt>0</asrwt>
<pdfrwt beam="1">  1       21 0.20432021E-01 0.83231519E+02</pdfrwt>
<pdfrwt beam="2">  1       -1 0.66128704E-02 0.83231519E+02</pdfrwt>
<totfact> 0.21360191E+05</totfact>
</mgrwt>
</event>
<event>
 6    2  0.8544106E+000  0.8366256E+02  0.7546771E-02  0.1318968E+00
          2   -1    0    0  502    0 -0.00000000000E+00  0.00000000000E+00  0.34636749586E+04  0.34636749586E+04  0.00000000000E+00 0. -1.
         21   -1    0    0  501  502  0.00000000000E+00 -0.00000000000E+00 -0.85211024273E+00  0.85211024273E+00  0.00000000000E+00 0.  1.
         24    2    1    2    0    0 -0.11332499649E+02  0.21208225368E+02  0.28637792481E+04  0.28650010483E+04  0.80132454047E+02 0.  0.
        -11    1    3    3    0    0 -0.16756600195E+02  0.73261898680E+01  0.14100736539E+03  0.14218837435E+03  0.00000000000E+00 0.  1.
         12    1    3    3    0    0  0.54241005460E+01  0.13882035499E+02  0.27227718827E+04  0.27228126739E+04  0.00000000000E+00 0. -1.
          1    1    1    2  501    0  0.11332499649E+02 -0.21208225368E+02  0.59904360019E+03  0.59952602054E+03  0.00000000000E+00 0. -1.
<mgrwt>
<rscale>  1 0.83662564E+02</rscale>
<asrwt>0</asrwt>
<pdfrwt beam="1">  1       21 0.13109666E-03 0.83662564E+02</pdfrwt>
<pdfrwt beam="2">  1        2 0.53286180E+00 0.83662564E+02</pdfrwt>
<totfact> 0.12301151E+06</totfact>
</mgrwt>
</event>
<event>
 6    2  0.8544106E+000  0.8355085E+02  0.7546771E-02  0.1319266E+00
         21   -1    0    0  501  502  0.00000000000E+00  0.00000000000E+00  0.27676580419E+01  0.27676580419E+01  0.00000000000E+00 0. -1.
          2   -1    0    0  502    0 -0.00000000000E+00 -0.00000000000E+00 -0.22838562234E+04  0.22838562234E+04  0.00000000000E+00 0. -1.
         24    2    1    2    0    0 -0.14366923759E+02 -0.16732845543E+02 -0.22217325189E+04  0.22233029776E+04  0.80587516593E+02 0.  0.
        -11    1    3    3    0    0 -0.36181542675E+01 -0.31290935691E+02 -0.33362036388E+03  0.33510410456E+03  0.00000000000E+00 0.  1.
         12    1    3    3    0    0 -0.10748769492E+02  0.14558090148E+02 -0.18881121550E+04  0.18881988730E+04  0.00000000000E+00 0. -1.
          1    1    1    2  501    0  0.14366923759E+02  0.16732845543E+02 -0.59356046437E+02  0.63320903870E+02  0.00000000000E+00 0. -1.
<mgrwt>
<rscale>  1 0.83550849E+02</rscale>
<asrwt>0</asrwt>
<pdfrwt beam="1">  1       21 0.42579278E-03 0.83550849E+02</pdfrwt>
<pdfrwt beam="2">  1        2 0.35136313E+00 0.83550849E+02</pdfrwt>
<totfact> 0.95827904E+05</totfact>
</mgrwt>
</event>
<event>
 6    2  0.8544106E+000  0.8470108E+02  0.7546771E-02  0.1316216E+00
         21   -1    0    0  501  502  0.00000000000E+00  0.00000000000E+00  0.14921322364E+03  0.14921322364E+03  0.00000000000E+00 0.  1.
          4   -1    0    0  502    0 -0.00000000000E+00 -0.00000000000E+00 -0.26442213970E+02  0.26442213970E+02  0.00000000000E+00 0. -1.
         24    2    1    2    0    0  0.17496347354E+02  0.17458559793E+02  0.48998794448E+02  0.97852717738E+02  0.81014498891E+02 0.  0.
        -13    1    3    3    0    0  0.35468453587E+02  0.41427997979E+02  0.34848546437E+02  0.64720254984E+02  0.00000000000E+00 0.  1.
         14    1    3    3    0    0 -0.17972106233E+02 -0.23969438186E+02  0.14150248011E+02  0.33132462754E+02  0.00000000000E+00 0. -1.
          3    1    1    2  501    0 -0.17496347354E+02 -0.17458559793E+02  0.73772215222E+02  0.77802719872E+02  0.00000000000E+00 0. -1.
<mgrwt>
<rscale>  1 0.84701077E+02</rscale>
<asrwt>0</asrwt>
<pdfrwt beam="1">  1       21 0.22955880E-01 0.84701077E+02</pdfrwt>
<pdfrwt beam="2">  1        4 0.40680330E-02 0.84701077E+02</pdfrwt>
<totfact> 0.22050492E+05</totfact>
</mgrwt>
</event>
<event>
 6    2  0.8544106E+000  0.8445140E+02  0.7546771E-02  0.1316873E+00
          2   -1    0    0  502    0 -0.00000000000E+00  0.00000000000E+00  0.55930486422E+02  0.55930486422E+02  0.00000000000E+00 0. -1.
         21   -1    0    0  501  502  0.00000000000E+00 -0.00000000000E+00 -0.71292615020E+02  0.71292615020E+02  0.00000000000E+00 0.  1.
         24    2    1    2    0    0 -0.22605016183E+02 -0.25332150218E+02  0.97236569495E+01  0.85009345060E+02  0.77326157617E+02 0.  0.
        -11    1    3    3    0    0 -0.16733035690E+01 -0.30896253092E+02 -0.27857135267E+02  0.41634101230E+02  0.00000000000E+00 0.  1.
         12    1    3    3    0    0 -0.20931712614E+02  0.55641028740E+01  0.37580792216E+02  0.43375243830E+02  0.00000000000E+00 0. -1.
          1    1    1    2  501    0  0.22605016183E+02  0.25332150218E+02 -0.25085785548E+02  0.42213756382E+02  0.00000000000E+00 0. -1.
<mgrwt>
<rscale>  1 0.84451402E+02</rscale>
<asrwt>0</asrwt>
<pdfrwt beam="1">  1       21 0.10968095E-01 0.84451402E+02</pdfrwt>
<pdfrwt beam="2">  1        2 0.86046902E-02 0.84451402E+02</pdfrwt>
<totfact> 0.59981634E+05</totfact>
</mgrwt>
</event>
<event>
 6    2  0.8544106E+000  0.8366102E+02  0.7546771E-02  0.1318972E+00
         21   -1    0    0  501  502  0.00000000000E+00  0.00000000000E+00  0.56503707851E+02  0.56503707851E+02  0.00000000000E+00 0. -1.
         -1   -1    0    0    0  501 -0.00000000000E+00 -0.00000000000E+00 -0.52188372581E+02  0.52188372581E+02  0.00000000000E+00 0.  1.
         24    2    1    2    0    0  0.48214603906E+00  0.24729804843E+02  0.48274700526E+00  0.83662409137E+02  0.79921023176E+02 0.  0.
        -13    1    3    3    0    0 -0.14620921594E+02  0.76398176591E+01 -0.36589452254E+02  0.40136344856E+02  0.00000000000E+00 0.  1.
         14    1    3    3    0    0  0.15103067634E+02  0.17089987184E+02  0.37072199259E+02  0.43526064281E+02  0.00000000000E+00 0. -1.
         -2    1    1    2    0  502 -0.48214603906E+00 -0.24729804843E+02  0.38325882646E+01  0.25029671296E+02  0.00000000000E+00 0.  1.
<mgrwt>
<rscale>  1 0.83661016E+02</rscale>
<asrwt>0</asrwt>
<pdfrwt beam="1">  1       21 0.86928781E-02 0.83661016E+02</pdfrwt>
<pdfrwt beam="2">  1       -1 0.80289804E-02 0.83661016E+02</pdfrwt>
<totfact> 0.72566162E+05</totfact>
</mgrwt>
</event>
<event>
 6    2  0.8544106E+000  0.9549694E+02  0.7546771E-02  0.1290061E+00
         21   -1    0    0  501  502  0.00000000000E+00  0.00000000000E+00  0.14513910734E+02  0.14513910734E+02  0.00000000000E+00 0. -1.
          2   -1    0    0  502    0 -0.00000000000E+00 -0.00000000000E+00 -0.36043672789E+03  0.36043672789E+03  0.00000000000E+00 0. -1.
         24    2    1    2    0    0  0.12436267331E+02 -0.47144146289E+02 -0.24191450846E+03  0.26008132352E+03  0.82112326517E+02 0.  0.
        -11    1    3    3    0    0  0.39416842068E+02  0.18454646410E+01 -0.10624069285E+03  0.11333215781E+03  0.00000000000E+00 0.  1.
         12    1    3    3    0    0 -0.26980574736E+02 -0.48989610930E+02 -0.13567381561E+03  0.14674916571E+03  0.00000000000E+00 0. -1.
          1    1    1    2  501    0 -0.12436267331E+02  0.47144146289E+02 -0.10400830869E+03  0.11486931510E+03  0.00000000000E+00 0. -1.
<mgrwt>
<rscale>  1 0.95496939E+02</rscale>
<asrwt>0</asrwt>
<pdfrwt beam="1">  1       21 0.22329092E-02 0.95496939E+02</pdfrwt>
<pdfrwt beam="2">  1        2 0.55451808E-01 0.95496939E+02</pdfrwt>
<totfact> 0.10788828E+06</totfact>
</mgrwt>
</event>
<event>
 6    2  0.8544106E+000  0.8556077E+02  0.7546771E-02  0.1313973E+00
          2   -1    0    0  502    0 -0.00000000000E+00  0.00000000000E+00  0.10052185773E+04  0.10052185773E+04  0.00000000000E+00 0. -1.
         21   -1    0    0  501  502  0.00000000000E+00 -0.00000000000E+00 -0.44336159167E+01  0.44336159167E+01  0.00000000000E+00 0. -1.
         24    2    1    2    0    0 -0.26993937256E+02 -0.15388422768E+02  0.90311141943E+03  0.90715537862E+03  0.79719312935E+02 0.  0.
        -13    1    3    3    0    0  0.13458835343E+02  0.52514066727E+01  0.35102236594E+02  0.37958984901E+02  0.00000000000E+00 0.  1.
         14    1    3    3    0    0 -0.40452772599E+02 -0.20639829441E+02  0.86800918284E+03  0.86919639372E+03  0.00000000000E+00 0. -1.
          1    1    1    2  501    0  0.26993937256E+02  0.15388422768E+02  0.97673541911E+02  0.10249681455E+03  0.00000000000E+00 0. -1.
<mgrwt>
<rscale>  1 0.85560768E+02</rscale>
<asrwt>0</asrwt>
<pdfrwt beam="1">  1       21 0.68209555E-03 0.85560768E+02</pdfrwt>
<pdfrwt beam="2">  1        2 0.15464883E+00 0.85560768E+02</pdfrwt>
<totfact> 0.21310001E+06</totfact>
</mgrwt>
</event>
<event>
 6    2  0.8544106E+000  0.8539226E+02  0.7546771E-02  0.1314410E+00
         21   -1    0    0  501  502  0.00000000000E+00  0.00000000000E+00  0.36697631653E+02  0.36697631653E+02  0.00000000000E+00 0. -1.
          2   -1    0    0  502    0 -0.00000000000E+00 -0.00000000000E+00 -0.11139809435E+03  0.11139809435E+03  0.00000000000E+00 0. -1.
         24    2    1    2    0    0 -0.17951420990E+02  0.31021021415E+02 -0.72786578978E+02  0.11220394092E+03  0.77506651289E+02 0.  0.
        -11    1    3    3    0    0  0.58777032975E+01  0.39387554889E+01  0.15387470407E+02  0.16936216708E+02  0.00000000000E+00 0.  1.
         12    1    3    3    0    0 -0.23829124287E+02  0.27082265926E+02 -0.88174049386E+02  0.95267724215E+02  0.00000000000E+00 0. -1.
          1    1    1    2  501    0  0.17951420990E+02 -0.31021021415E+02 -0.19138837173E+01  0.35891785078E+02  0.00000000000E+00 0. -1.
<mgrwt>
<rscale>  1 0.85392261E+02</rscale>
<asrwt>0</asrwt>
<pdfrwt beam="1">  1       21 0.56457895E-02 0.85392261E+02</pdfrwt>
<pdfrwt beam="2">  1        2 0.17138168E-01 0.85392261E+02</pdfrwt>
<totfact> 0.82451149E+05</totfact>
</mgrwt>
</event>
<event>
 6    2  0.8544106E+000  0.8423445E+02  0.7546771E-02  0.1317447E+00
         21   -1    0    0  501  502  0.00000000000E+00  0.00000000000E+00  0.10103971117E+02  0.10103971117E+02  0.00000000000E+00 0.  1.
          2   -1    0    0  502    0 -0.00000000000E+00 -0.00000000000E+00 -0.29663624639E+03  0.29663624639E+03  0.00000000000E+00 0. -1.
         24    2    1    2    0    0  0.20846847123E+02  0.40623430160E+01 -0.25634527683E+03  0.26983021154E+03  0.81512872845E+02 0.  0.
        -11    1    3    3    0    0 -0.16889378561E+02  0.53291185374E+01 -0.94677447000E+01  0.20082051745E+02  0.00000000000E+00 0.  1.
         12    1    3    3    0    0  0.37736225684E+02 -0.12667755214E+01 -0.24687753213E+03  0.24974815980E+03  0.00000000000E+00 0. -1.
          1    1    1    2  501    0 -0.20846847123E+02 -0.40623430160E+01 -0.30186998440E+02  0.36910005968E+02  0.00000000000E+00 0. -1.
<mgrwt>
<rscale>  1 0.84234447E+02</rscale>
<asrwt>0</asrwt>
<pdfrwt beam="1">  1       21 0.15544572E-02 0.84234447E+02</pdfrwt>
<pdfrwt beam="2">  1        2 0.45636341E-01 0.84234447E+02</pdfrwt>
<totfact> 0.23235507E+06</totfact>
</mgrwt>
</event>
<event>
 6    2  0.8544106E+000  0.8710755E+02  0.7546771E-02  0.1310011E+00
          2   -1    0    0  502    0 -0.00000000000E+00  0.00000000000E+00  0.45044303781E+02  0.45044303781E+02  0.00000000000E+00 0. -1.
         21   -1    0    0  501  502  0.00000000000E+00 -0.00000000000E+00 -0.70778097241E+02  0.70778097241E+02  0.00000000000E+00 0.  1.
         24    2    1    2    0    0  0.18699011915E+02  0.17711688131E+02 -0.18214821204E+02  0.88991599938E+02  0.83212788710E+02 0.  0.
        -13    1    3    3    0    0  0.92473494255E+01 -0.14024915493E+02 -0.43951177385E+02  0.47052287081E+02  0.00000000000E+00 0.  1.
         14    1    3    3    0    0  0.94516624894E+01  0.31736603624E+02  0.25736356181E+02  0.41939312857E+02  0.00000000000E+00 0. -1.
          1    1    1    2  501    0 -0.18699011915E+02 -0.17711688131E+02 -0.75189722559E+01  0.26830801084E+02  0.00000000000E+00 0. -1.
<mgrwt>
<rscale>  1 0.87107549E+02</rscale>
<asrwt>0</asrwt>
<pdfrwt beam="1">  1       21 0.10888938E-01 0.87107549E+02</pdfrwt>
<pdfrwt beam="2">  1        2 0.69298929E-02 0.87107549E+02</pdfrwt>
<totfact> 0.79741738E+05</totfact>
</mgrwt>
</event>
<event>
 6    2  0.8544106E+000  0.8341193E+02  0.7546771E-02  0.1319639E+00
         -3   -1    0    0    0  501 -0.00000000000E+00  0.00000000000E+00  0.94328037349E+01  0.94328037349E+01  0.00000000000E+00 0.  1.
         21   -1    0    0  501  502  0.00000000000E+00 -0.00000000000E+00 -0.29153865600E+03  0.29153865600E+03  0.00000000000E+00 0. -1.
         24    2    1    2    0    0 -0.10917562471E+02  0.17398029733E+02 -0.20885733819E+03  0.22489761782E+03  0.80843467133E+02 0.  0.
        -13    1    3    3    0    0  0.18996354544E+02 -0.98719456528E+01 -0.13318584865E+02  0.25213121579E+02  0.00000000000E+00 0.  1.
         14    1    3    3    0    0 -0.29913917015E+02  0.27269975386E+02 -0.19553875332E+03  0.19968449624E+03  0.00000000000E+00 0. -1.
         -4    1    1    2    0  502  0.10917562471E+02 -0.17398029733E+02 -0.73248514078E+02  0.76073841914E+02  0.00000000000E+00 0.  1.
<mgrwt>
<rscale>  1 0.83411934E+02</rscale>
<asrwt>0</asrwt>
<pdfrwt beam="1">  1       21 0.44852100E-01 0.83411934E+02</pdfrwt>
<pdfrwt beam="2">  1       -3 0.14512006E-02 0.83411934E+02</pdfrwt>
<totfact> 0.32752375E+05</totfact>
</mgrwt>
</event>
<event>
 6    2  0.8544106E+000  0.9238827E+02  0.7546771E-02  0.1297169E+00
         -3   -1    0    0    0  501 -0.00000000000E+00  0.00000000000E+00  0.11417615388E+03  0.11417615388E+03  0.00000000000E+00 0.  1.
         21   -1    0    0  501  502  0.00000000000E+00 -0.00000000000E+00 -0.14444701443E+03  0.14444701443E+03  0.00000000000E+00 0.  1.
         24    2    1    2    0    0  0.35083248556E+02  0.13971887327E+02  0.92163178954E+02  0.13049767517E+03  0.84318110182E+02 0.  0.
        -11    1    3    3    0    0  0.52088473048E+02  0.20569375790E+02  0.96659847922E+02  0.11171138906E+03  0.00000000000E+00 0.  1.
         12    1    3    3    0    0 -0.17005224492E+02 -0.65974884632E+01 -0.44966689680E+01  0.18786286111E+02  0.00000000000E+00 0. -1.
         -4    1    1    2    0  502 -0.35083248556E+02 -0.13971887327E+02 -0.12243403950E+03  0.12812549315E+03  0.00000000000E+00 0.  1.
<mgrwt>
<rscale>  1 0.92388266E+02</rscale>
<asrwt>0</asrwt>
<pdfrwt beam="1">  1       21 0.22222618E-01 0.92388266E+02</pdfrwt>
<pdfrwt beam="2">  1       -3 0.17565562E-01 0.92388266E+02</pdfrwt>
<totfact> 0.24907033E+04</totfact>
</mgrwt>
</event>
<event>
 6    2  0.8544106E+000  0.8962008E+02  0.7546771E-02  0.1303774E+00
          2   -1    0    0  502    0 -0.00000000000E+00  0.00000000000E+00  0.99996370240E+03  0.99996370240E+03  0.00000000000E+00 0. -1.
         21   -1    0    0  501  502  0.00000000000E+00 -0.00000000000E+00 -0.50541555148E+01  0.50541555148E+01  0.00000000000E+00 0.  1.
         24    2    1    2    0    0  0.30699203619E+02  0.25712065333E+02  0.46240124831E+03  0.47100602335E+03  0.80176107316E+02 0.  0.
        -11    1    3    3    0    0  0.47798084700E+01  0.49998693126E+02  0.19994013464E+03  0.20615230613E+03  0.00000000000E+00 0.  1.
         12    1    3    3    0    0  0.25919395148E+02 -0.24286627793E+02  0.26246111367E+03  0.26485371722E+03  0.00000000000E+00 0. -1.
          1    1    1    2  501    0 -0.30699203619E+02 -0.25712065333E+02  0.53250829858E+03  0.53401183457E+03  0.00000000000E+00 0. -1.
<mgrwt>
<rscale>  1 0.89620085E+02</rscale>
<asrwt>0</asrwt>
<pdfrwt beam="1">  1       21 0.77756318E-03 0.89620085E+02</pdfrwt>
<pdfrwt beam="2">  1        2 0.15384041E+00 0.89620085E+02</pdfrwt>
<totfact> 0.17602484E+06</totfact>
</mgrwt>
</event>
<event>
 6    2  0.8544106E+000  0.1102679E+03  0.7546771E-02  0.1260075E+00
         21   -1    0    0  501  502  0.00000000000E+00  0.00000000000E+00  0.47981588000E+02  0.47981588000E+02  0.00000000000E+00 0. -1.
          4   -1    0    0  502    0 -0.00000000000E+00 -0.00000000000E+00 -0.18022655156E+03  0.18022655156E+03  0.00000000000E+00 0. -1.
         24    2    1    2    0    0  0.75350303231E+02 -0.74374838686E+01 -0.78536545465E+02  0.13537722586E+03  0.80162459703E+02 0.  0.
        -11    1    3    3    0    0  0.65522060742E+02  0.28553892947E+02 -0.61798156992E+02  0.94485329305E+02  0.00000000000E+00 0.  1.
         12    1    3    3    0    0  0.98282424884E+01 -0.35991376815E+02 -0.16738388473E+02  0.40891896558E+02  0.00000000000E+00 0. -1.
          3    1    1    2  501    0 -0.75350303231E+02  0.74374838686E+01 -0.53708418094E+02  0.92830913695E+02  0.00000000000E+00 0. -1.
<mgrwt>
<rscale>  1 0.11026788E+03</rscale>
<asrwt>0</asrwt>
<pdfrwt beam="1">  1       21 0.73817829E-02 0.11026788E+03</pdfrwt>
<pdfrwt beam="2">  1        4 0.27727161E-01 0.11026788E+03</pdfrwt>
<totfact> 0.66788698E+04</totfact>
</mgrwt>
</event>
<event>
 6    2  0.8544106E+000  0.8285811E+02  0.7546771E-02  0.1321131E+00
         21   -1    0    0  501  502  0.00000000000E+00  0.00000000000E+00  0.42056787682E+01  0.42056787682E+01  0.00000000000E+00 0.  1.
          2   -1    0    0  502    0 -0.00000000000E+00 -0.00000000000E+00 -0.82209781937E+03  0.82209781937E+03  0.00000000000E+00 0. -1.
         24    2    1    2    0    0  0.12371635509E+01  0.23178951864E+02 -0.74978730853E+03  0.75435169111E+03  0.79540376311E+02 0.  0.
        -13    1    3    3    0    0 -0.10101770703E+02  0.50849399878E+02 -0.41345592232E+03  0.41669354079E+03  0.00000000000E+00 0.  1.
         14    1    3    3    0    0  0.11338934254E+02 -0.27670448014E+02 -0.33633138622E+03  0.33765815032E+03  0.00000000000E+00 0. -1.
          1    1    1    2  501    0 -0.12371635509E+01 -0.23178951864E+02 -0.68104832068E+02  0.71951807025E+02  0.00000000000E+00 0. -1.
<mgrwt>
<rscale>  1 0.82858107E+02</rscale>
<asrwt>0</asrwt>
<pdfrwt beam="1">  1       21 0.64702783E-03 0.82858107E+02</pdfrwt>
<pdfrwt beam="2">  1        2 0.12647652E+00 0.82858107E+02</pdfrwt>
<totfact> 0.29834708E+06</totfact>
</mgrwt>
</event>
<event>
 6    2  0.8544106E+000  0.9111593E+02  0.7546771E-02  0.1300172E+00
         21   -1    0    0  501  502  0.00000000000E+00  0.00000000000E+00  0.25851582022E+01  0.25851582022E+01  0.00000000000E+00 0.  1.
          2   -1    0    0  502    0 -0.00000000000E+00 -0.00000000000E+00 -0.16864013756E+04  0.16864013756E+04  0.00000000000E+00 0. -1.
         24    2    1    2    0    0 -0.36736032682E+02 -0.18067116151E+02 -0.11599640531E+04  0.11635371577E+04  0.81401204742E+02 0.  0.
        -13    1    3    3    0    0 -0.48608301116E+02 -0.34156449421E+02 -0.10558713297E+04  0.10575413443E+04  0.00000000000E+00 0.  1.
         14    1    3    3    0    0  0.11872268434E+02  0.16089333270E+02 -0.10409272336E+03  0.10599581340E+03  0.00000000000E+00 0. -1.
          1    1    1    2  501    0  0.36736032682E+02  0.18067116151E+02 -0.52385216433E+03  0.52544937611E+03  0.00000000000E+00 0. -1.
<mgrwt>
<rscale>  1 0.91115931E+02</rscale>
<asrwt>0</asrwt>
<pdfrwt beam="1">  1       21 0.39771656E-03 0.91115931E+02</pdfrwt>
<pdfrwt beam="2">  1        2 0.25944642E+00 0.91115931E+02</pdfrwt>
<totfact> 0.21352658E+06</totfact>
</mgrwt>
</event>
<event>
 6    2  0.8544106E+000  0.8550483E+02  0.7546771E-02  0.1314118E+00
         21   -1    0    0  501  502  0.00000000000E+00  0.00000000000E+00  0.75260424582E+01  0.75260424582E+01  0.00000000000E+00 0. -1.
          2   -1    0    0  502    0 -0.00000000000E+00 -0.00000000000E+00 -0.54197419243E+03  0.54197419243E+03  0.00000000000E+00 0. -1.
         24    2    1    2    0    0 -0.27067785740E+01 -0.41847784549E+02 -0.34068784804E+03  0.35125387723E+03  0.74515184640E+02 0.  0.
        -11    1    3    3    0    0  0.99041510588E+01  0.10936451468E+02 -0.14872471752E+02  0.20949668133E+02  0.00000000000E+00 0.  1.
         12    1    3    3    0    0 -0.12610929633E+02 -0.52784236016E+02 -0.32581537629E+03  0.33030420910E+03  0.00000000000E+00 0. -1.
          1    1    1    2  501    0  0.27067785740E+01  0.41847784549E+02 -0.19376030193E+03  0.19824635766E+03  0.00000000000E+00 0. -1.
<mgrwt>
<rscale>  1 0.85504833E+02</rscale>
<asrwt>0</asrwt>
<pdfrwt beam="1">  1       21 0.11578525E-02 0.85504833E+02</pdfrwt>
<pdfrwt beam="2">  1        2 0.83380661E-01 0.85504833E+02</pdfrwt>
<totfact> 0.19584563E+06</totfact>
</mgrwt>
</event>
<event>
 6    2  0.8544106E+000  0.9404596E+02  0.7546771E-02  0.1293339E+00
          2   -1    0    0  502    0 -0.00000000000E+00  0.00000000000E+00  0.16401059710E+03  0.16401059710E+03  0.00000000000E+00 0. -1.
         21   -1    0    0  501  502  0.00000000000E+00 -0.00000000000E+00 -0.32774404853E+02  0.32774404853E+02  0.00000000000E+00 0.  1.
         24    2    1    2    0    0 -0.60079294716E+00  0.51429054060E+02  0.96330684866E+02  0.13462630989E+03  0.78735848972E+02 0.  0.
        -11    1    3    3    0    0 -0.38335530628E+02  0.37930513908E+02  0.53302578558E+02  0.75825468511E+02  0.00000000000E+00 0.  1.
         12    1    3    3    0    0  0.37734737681E+02  0.13498540152E+02  0.43028106308E+02  0.58800841376E+02  0.00000000000E+00 0. -1.
          1    1    1    2  501    0  0.60079294716E+00 -0.51429054060E+02  0.34905507379E+02  0.62158692064E+02  0.00000000000E+00 0. -1.
<mgrwt>
<rscale>  1 0.94045959E+02</rscale>
<asrwt>0</asrwt>
<pdfrwt beam="1">  1       21 0.50422162E-02 0.94045959E+02</pdfrwt>
<pdfrwt beam="2">  1        2 0.25232399E-01 0.94045959E+02</pdfrwt>
<totfact> 0.65416842E+05</totfact>
</mgrwt>
</event>
<event>
 6    2  0.8544106E+000  0.8438507E+02  0.7546771E-02  0.1317049E+00
         21   -1    0    0  501  502  0.00000000000E+00  0.00000000000E+00  0.19458168802E+03  0.19458168802E+03  0.00000000000E+00 0.  1.
         -1   -1    0    0    0  501 -0.00000000000E+00 -0.00000000000E+00 -0.58552733100E+02  0.58552733100E+02  0.00000000000E+00 0.  1.
         24    2    1    2    0    0 -0.29531121172E+02  0.27169092543E+00 -0.26106637690E+02  0.88331170774E+02  0.79048581677E+02 0.  0.
        -13    1    3    3    0    0 -0.87847022162E+01  0.19637277792E+02 -0.47925989675E+02  0.52532791269E+02  0.00000000000E+00 0.  1.
         14    1    3    3    0    0 -0.20746418956E+02 -0.19365586867E+02  0.21819351985E+02  0.35798379506E+02  0.00000000000E+00 0. -1.
         -2    1    1    2    0  502  0.29531121172E+02 -0.27169092543E+00  0.16213559261E+03  0.16480325034E+03  0.00000000000E+00 0.  1.
<mgrwt>
<rscale>  1 0.84385065E+02</rscale>
<asrwt>0</asrwt>
<pdfrwt beam="1">  1       21 0.29935644E-01 0.84385065E+02</pdfrwt>
<pdfrwt beam="2">  1       -1 0.90081129E-02 0.84385065E+02</pdfrwt>
<totfact> 0.66214283E+04</totfact>
</mgrwt>
</event>
<event>
 6    2  0.8544106E+000  0.8359826E+02  0.7546771E-02  0.1319139E+00
          2   -1    0    0  502    0 -0.00000000000E+00  0.00000000000E+00  0.22931379988E+03  0.22931379988E+03  0.00000000000E+00 0. -1.
         21   -1    0    0  501  502  0.00000000000E+00 -0.00000000000E+00 -0.12735542677E+02  0.12735542677E+02  0.00000000000E+00 0.  1.
         24    2    1    2    0    0  0.16789076416E+02 -0.13389736934E+02  0.19200551624E+03  0.20941534586E+03  0.80793011289E+02 0.  0.
        -13    1    3    3    0    0  0.47107313611E+02 -0.65208590175E+01  0.14861265772E+03  0.15603635035E+03  0.00000000000E+00 0.  1.
         14    1    3    3    0    0 -0.30318237195E+02 -0.68688779167E+01  0.43392858519E+02  0.53378995503E+02  0.00000000000E+00 0. -1.
          1    1    1    2  501    0 -0.16789076416E+02  0.13389736934E+02  0.24572740967E+02  0.32633996701E+02  0.00000000000E+00 0. -1.
<mgrwt>
<rscale>  1 0.83598258E+02</rscale>
<asrwt>0</asrwt>
<pdfrwt beam="1">  1       21 0.19593144E-02 0.83598258E+02</pdfrwt>
<pdfrwt beam="2">  1        2 0.35279043E-01 0.83598258E+02</pdfrwt>
<totfact> 0.21036625E+06</totfact>
</mgrwt>
</event>
<event>
 6    2  0.8544106E+000  0.8626890E+02  0.7546771E-02  0.1312147E+00
         -1   -1    0    0    0  501 -0.00000000000E+00  0.00000000000E+00  0.31511854698E+03  0.31511854698E+03  0.00000000000E+00 0.  1.
         21   -1    0    0  501  502  0.00000000000E+00 -0.00000000000E+00 -0.27300907292E+02  0.27300907292E+02  0.00000000000E+00 0.  1.
         24    2    1    2    0    0 -0.18099640839E+02 -0.25360533464E+02  0.29752948762E+03  0.30978398819E+03  0.80446066919E+02 0.  0.
        -13    1    3    3    0    0  0.21730792650E+02 -0.35709192078E+02  0.19236088425E+03  0.19685040904E+03  0.00000000000E+00 0.  1.
         14    1    3    3    0    0 -0.39830433489E+02  0.10348658614E+02  0.10516860337E+03  0.11293357916E+03  0.00000000000E+00 0. -1.
         -2    1    1    2    0  502  0.18099640839E+02  0.25360533464E+02 -0.97118479280E+01  0.32635466080E+02  0.00000000000E+00 0.  1.
<mgrwt>
<rscale>  1 0.86268901E+02</rscale>
<asrwt>0</asrwt>
<pdfrwt beam="1">  1       21 0.42001398E-02 0.86268901E+02</pdfrwt>
<pdfrwt beam="2">  1       -1 0.48479774E-01 0.86268901E+02</pdfrwt>
<totfact> 0.13851753E+05</totfact>
</mgrwt>
</event>
<event>
 6    2  0.8544106E+000  0.8310389E+02  0.7546771E-02  0.1320467E+00
          2   -1    0    0  502    0 -0.00000000000E+00  0.00000000000E+00  0.27572814582E+03  0.27572814582E+03  0.00000000000E+00 0. -1.
         21   -1    0    0  501  502  0.00000000000E+00 -0.00000000000E+00 -0.10208021478E+02  0.10208021478E+02  0.00000000000E+00 0.  1.
         24    2    1    2    0    0 -0.81263022380E+01 -0.20112922038E+02  0.22691246199E+03  0.24165165518E+03  0.80222756283E+02 0.  0.
        -13    1    3    3    0    0 -0.43481969691E+02 -0.17671802337E+02  0.11320678171E+03  0.12255100861E+03  0.00000000000E+00 0.  1.
         14    1    3    3    0    0  0.35355667453E+02 -0.24411197016E+01  0.11370568028E+03  0.11910064657E+03  0.00000000000E+00 0. -1.
          1    1    1    2  501    0  0.81263022380E+01  0.20112922038E+02  0.38607662357E+02  0.44284512120E+02  0.00000000000E+00 0. -1.
<mgrwt>
<rscale>  1 0.83103893E+02</rscale>
<asrwt>0</asrwt>
<pdfrwt beam="1">  1       21 0.15704651E-02 0.83103893E+02</pdfrwt>
<pdfrwt beam="2">  1        2 0.42419709E-01 0.83103893E+02</pdfrwt>
<totfact> 0.24628007E+06</totfact>
</mgrwt>
</event>
<event>
 6    2  0.8544106E+000  0.8651167E+02  0.7546771E-02  0.1311526E+00
         21   -1    0    0  501  502  0.00000000000E+00  0.00000000000E+00  0.17903875271E+01  0.17903875271E+01  0.00000000000E+00 0.  1.
          2   -1    0    0  502    0 -0.00000000000E+00 -0.00000000000E+00 -0.20274757555E+04  0.20274757555E+04  0.00000000000E+00 0. -1.
         24    2    1    2    0    0 -0.75649311150E+00  0.30105284631E+02 -0.16971232987E+04  0.16993268550E+04  0.81100977532E+02 0.  0.
        -13    1    3    3    0    0  0.12296917756E+02  0.52699079758E+02 -0.80216407310E+03  0.80398731791E+03  0.00000000000E+00 0.  1.
         14    1    3    3    0    0 -0.13053410867E+02 -0.22593795127E+02 -0.89495922562E+03  0.89533953707E+03  0.00000000000E+00 0. -1.
          1    1    1    2  501    0  0.75649311150E+00 -0.30105284631E+02 -0.32856206922E+03  0.32993928801E+03  0.00000000000E+00 0. -1.
<mgrwt>
<rscale>  1 0.86511670E+02</rscale>
<asrwt>0</asrwt>
<pdfrwt beam="1">  1       21 0.27544245E-03 0.86511670E+02</pdfrwt>
<pdfrwt beam="2">  1        2 0.31192136E+00 0.86511670E+02</pdfrwt>
<totfact> 0.25042576E+06</totfact>
</mgrwt>
</event>
<event>
 6    2  0.8544106E+000  0.8591076E+02  0.7546771E-02  0.1313068E+00
         21   -1    0    0  501  502  0.00000000000E+00  0.00000000000E+00  0.65886920219E+01  0.65886920219E+01  0.00000000000E+00 0. -1.
         -1   -1    0    0    0  501 -0.00000000000E+00 -0.00000000000E+00 -0.49598341444E+03  0.49598341444E+03  0.00000000000E+00 0.  1.
         24    2    1    2    0    0  0.27608489008E+02  0.36880503231E+01 -0.38985814135E+03  0.39921175937E+03  0.81270093276E+02 0.  0.
        -13    1    3    3    0    0 -0.15161295605E+02 -0.36122514520E+01 -0.28896157235E+03  0.28938158811E+03  0.00000000000E+00 0.  1.
         14    1    3    3    0    0  0.42769784612E+02  0.73003017751E+01 -0.10089656901E+03  0.10983017126E+03  0.00000000000E+00 0. -1.
         -2    1    1    2    0  502 -0.27608489008E+02 -0.36880503231E+01 -0.99536581068E+02  0.10336034709E+03  0.00000000000E+00 0.  1.
<mgrwt>
<rscale>  1 0.85910759E+02</rscale>
<asrwt>0</asrwt>
<pdfrwt beam="1">  1       21 0.10136449E-02 0.85910759E+02</pdfrwt>
<pdfrwt beam="2">  1       -1 0.76305145E-01 0.85910759E+02</pdfrwt>
<totfact> 0.57326185E+05</totfact>
</mgrwt>
</event>
<event>
 6    2  0.8544106E+000  0.8718041E+02  0.7546771E-02  0.1309827E+00
         21   -1    0    0  501  502  0.00000000000E+00  0.00000000000E+00  0.24616685775E+02  0.24616685775E+02  0.00000000000E+00 0.  1.
          2   -1    0    0  502    0 -0.00000000000E+00 -0.00000000000E+00 -0.12491351426E+03  0.12491351426E+03  0.00000000000E+00 0. -1.
         24    2    1    2    0    0  0.13135332086E+02  0.18572946508E+02 -0.70972262157E+02  0.11241657072E+03  0.84160157347E+02 0.  0.
        -11    1    3    3    0    0 -0.49667825784E+01  0.39214226732E+02 -0.36311087596E+01  0.39693947375E+02  0.00000000000E+00 0.  1.
         12    1    3    3    0    0  0.18102114665E+02 -0.20641280224E+02 -0.67341153397E+02  0.72722623340E+02  0.00000000000E+00 0. -1.
          1    1    1    2  501    0 -0.13135332086E+02 -0.18572946508E+02 -0.29324566332E+02  0.37113629323E+02  0.00000000000E+00 0. -1.
<mgrwt>
<rscale>  1 0.87180407E+02</rscale>
<asrwt>0</asrwt>
<pdfrwt beam="1">  1       21 0.37871825E-02 0.87180407E+02</pdfrwt>
<pdfrwt beam="2">  1        2 0.19217463E-01 0.87180407E+02</pdfrwt>
<totfact> 0.14069963E+06</totfact>
</mgrwt>
</event>
<event>
 6    2  0.8544106E+000  0.8388091E+02  0.7546771E-02  0.1318385E+00
         -3   -1    0    0    0  501 -0.00000000000E+00  0.00000000000E+00  0.22368176725E+02  0.22368176725E+02  0.00000000000E+00 0.  1.
         21   -1    0    0  501  502  0.00000000000E+00 -0.00000000000E+00 -0.16177772777E+03  0.16177772777E+03  0.00000000000E+00 0.  1.
         24    2    1    2    0    0  0.16542273883E+02  0.15672962548E+02 -0.64400530276E+02  0.10575176073E+03  0.80726191642E+02 0.  0.
        -11    1    3    3    0    0  0.33001318419E+02  0.41361950027E+02 -0.35439852280E+02  0.63685799492E+02  0.00000000000E+00 0.  1.
         12    1    3    3    0    0 -0.16459044536E+02 -0.25688987479E+02 -0.28960677996E+02  0.42065961236E+02  0.00000000000E+00 0. -1.
         -4    1    1    2    0  502 -0.16542273883E+02 -0.15672962548E+02 -0.75009020767E+02  0.78394143765E+02  0.00000000000E+00 0.  1.
<mgrwt>
<rscale>  1 0.83880907E+02</rscale>
<asrwt>0</asrwt>
<pdfrwt beam="1">  1       21 0.24888882E-01 0.83880907E+02</pdfrwt>
<pdfrwt beam="2">  1       -3 0.34412578E-02 0.83880907E+02</pdfrwt>
<totfact> 0.27693003E+05</totfact>
</mgrwt>
</event>
<event>
 6    2  0.8544106E+000  0.9198447E+02  0.7546771E-02  0.1298116E+00
         21   -1    0    0  501  502  0.00000000000E+00  0.00000000000E+00  0.24867855612E+02  0.24867855612E+02  0.00000000000E+00 0.  1.
          2   -1    0    0  502    0 -0.00000000000E+00 -0.00000000000E+00 -0.18957604329E+03  0.18957604329E+03  0.00000000000E+00 0. -1.
         24    2    1    2    0    0  0.37905389497E+02  0.20894794825E+02 -0.93845816097E+02  0.13140844437E+03  0.81164838746E+02 0.  0.
        -13    1    3    3    0    0  0.87222957673E+01 -0.20217246293E+02  0.30032414494E+01  0.22222397493E+02  0.00000000000E+00 0.  1.
         14    1    3    3    0    0  0.29183093730E+02  0.41112041119E+02 -0.96849057546E+02  0.10918604687E+03  0.00000000000E+00 0. -1.
          1    1    1    2  501    0 -0.37905389497E+02 -0.20894794825E+02 -0.70862371581E+02  0.83035454535E+02  0.00000000000E+00 0. -1.
<mgrwt>
<rscale>  1 0.91984466E+02</rscale>
<asrwt>0</asrwt>
<pdfrwt beam="1">  1       21 0.38258241E-02 0.91984466E+02</pdfrwt>
<pdfrwt beam="2">  1        2 0.29165544E-01 0.91984466E+02</pdfrwt>
<totfact> 0.88148134E+05</totfact>
</mgrwt>
</event>
<event>
 6    2  0.8544106E+000  0.8536733E+02  0.7546771E-02  0.1314475E+00
         21   -1    0    0  501  502  0.00000000000E+00  0.00000000000E+00  0.36128666234E+01  0.36128666234E+01  0.00000000000E+00 0.  1.
          2   -1    0    0  502    0 -0.00000000000E+00 -0.00000000000E+00 -0.15906360250E+04  0.15906360250E+04  0.00000000000E+00 0. -1.
         24    2    1    2    0    0 -0.25965850560E+02  0.36438192642E+02 -0.58171309268E+03  0.58794362210E+03  0.72702223454E+02 0.  0.
        -13    1    3    3    0    0 -0.34412320060E+02  0.55049699842E+02 -0.43889615797E+03  0.44367162936E+03  0.00000000000E+00 0.  1.
         14    1    3    3    0    0  0.84464695004E+01 -0.18611507200E+02 -0.14281693471E+03  0.14427199273E+03  0.00000000000E+00 0. -1.
          1    1    1    2  501    0  0.25965850560E+02 -0.36438192642E+02 -0.10053100657E+04  0.10063052696E+04  0.00000000000E+00 0. -1.
<mgrwt>
<rscale>  1 0.85367327E+02</rscale>
<asrwt>0</asrwt>
<pdfrwt beam="1">  1       21 0.55582350E-03 0.85367327E+02</pdfrwt>
<pdfrwt beam="2">  1        2 0.24471418E+00 0.85367327E+02</pdfrwt>
<totfact> 0.14235322E+06</totfact>
</mgrwt>
</event>
<event>
 6    2  0.8544106E+000  0.9552066E+02  0.7546771E-02  0.1290008E+00
          2   -1    0    0  502    0 -0.00000000000E+00  0.00000000000E+00  0.20939853438E+04  0.20939853438E+04  0.00000000000E+00 0. -1.
         21   -1    0    0  501  502  0.00000000000E+00 -0.00000000000E+00 -0.26152305966E+01  0.26152305966E+01  0.00000000000E+00 0. -1.
         24    2    1    2    0    0 -0.46022053746E+02 -0.24905688895E+02  0.13962263915E+04  0.13994900260E+04  0.79911663522E+02 0.  0.
        -13    1    3    3    0    0 -0.29926120263E+02 -0.30503528311E+02  0.28991066295E+03  0.29304305214E+03  0.00000000000E+00 0.  1.
         14    1    3    3    0    0 -0.16095933483E+02  0.55978394161E+01  0.11063157285E+04  0.11064469739E+04  0.00000000000E+00 0. -1.
          1    1    1    2  501    0  0.46022053746E+02  0.24905688895E+02  0.69514372179E+03  0.69711054841E+03  0.00000000000E+00 0. -1.
<mgrwt>
<rscale>  1 0.95520661E+02</rscale>
<asrwt>0</asrwt>
<pdfrwt beam="1">  1       21 0.40234484E-03 0.95520661E+02</pdfrwt>
<pdfrwt beam="2">  1        2 0.32215025E+00 0.95520661E+02</pdfrwt>
<totfact> 0.13125258E+06</totfact>
</mgrwt>
</event>
<event>
 6    2  0.8544106E+000  0.8491751E+02  0.7546771E-02  0.1315648E+00
          2   -1    0    0  502    0 -0.00000000000E+00  0.00000000000E+00  0.11091097099E+04  0.11091097099E+04  0.00000000000E+00 0. -1.
         21   -1    0    0  501  502  0.00000000000E+00 -0.00000000000E+00 -0.11442594297E+02  0.11442594297E+02  0.00000000000E+00 0. -1.
         24    2    1    2    0    0 -0.21596447116E+02 -0.73418840471E+01  0.10941880257E+04  0.10974782093E+04  0.81796543389E+02 0.  0.
        -11    1    3    3    0    0 -0.15119629992E+02  0.74134987727E+00  0.33747673239E+02  0.36987271591E+02  0.00000000000E+00 0.  1.
         12    1    3    3    0    0 -0.64768171235E+01 -0.80832339244E+01  0.10604403525E+04  0.10604909377E+04  0.00000000000E+00 0. -1.
          1    1    1    2  501    0  0.21596447116E+02  0.73418840471E+01  0.34790899164E+01  0.23074094913E+02  0.00000000000E+00 0. -1.
<mgrwt>
<rscale>  1 0.84917515E+02</rscale>
<asrwt>0</asrwt>
<pdfrwt beam="1">  1       21 0.17604000E-02 0.84917515E+02</pdfrwt>
<pdfrwt beam="2">  1        2 0.17063218E+00 0.84917515E+02</pdfrwt>
<totfact> 0.42116353E+05</totfact>
</mgrwt>
</event>
<event>
 6    2  0.8544106E+000  0.8809115E+02  0.7546771E-02  0.1307541E+00
         21   -1    0    0  501  502  0.00000000000E+00  0.00000000000E+00  0.21136468598E+01  0.21136468598E+01  0.00000000000E+00 0.  1.
          2   -1    0    0  502    0 -0.00000000000E+00 -0.00000000000E+00 -0.18406576058E+04  0.18406576058E+04  0.00000000000E+00 0. -1.
         24    2    1    2    0    0  0.13479377260E+02 -0.33300866041E+02 -0.13919103554E+04  0.13946951240E+04  0.80432643036E+02 0.  0.
        -11    1    3    3    0    0 -0.12081763348E+02 -0.43119881997E+02 -0.41648066954E+03  0.41888117805E+03  0.00000000000E+00 0.  1.
         12    1    3    3    0    0  0.25561140608E+02  0.98190159563E+01 -0.97542968587E+03  0.97581394592E+03  0.00000000000E+00 0. -1.
          1    1    1    2  501    0 -0.13479377260E+02  0.33300866041E+02 -0.44663360357E+03  0.44807612872E+03  0.00000000000E+00 0. -1.
<mgrwt>
<rscale>  1 0.88091154E+02</rscale>
<asrwt>0</asrwt>
<pdfrwt beam="1">  1       21 0.32517472E-03 0.88091154E+02</pdfrwt>
<pdfrwt beam="2">  1        2 0.28317959E+00 0.88091154E+02</pdfrwt>
<totfact> 0.24202929E+06</totfact>
</mgrwt>
</event>
<event>
 6    2  0.8544106E+000  0.8346669E+02  0.7546771E-02  0.1319492E+00
         21   -1    0    0  501  502  0.00000000000E+00  0.00000000000E+00  0.91503003881E+01  0.91503003881E+01  0.00000000000E+00 0. -1.
         -1   -1    0    0    0  501 -0.00000000000E+00 -0.00000000000E+00 -0.56573049224E+03  0.56573049224E+03  0.00000000000E+00 0.  1.
         24    2    1    2    0    0  0.10548810085E+02  0.19172894828E+02 -0.54244565460E+03  0.54882964229E+03  0.80546947663E+02 0.  0.
        -11    1    3    3    0    0  0.24880029248E+02 -0.17586372148E+02 -0.39574610601E+03  0.39691721651E+03  0.00000000000E+00 0.  1.
         12    1    3    3    0    0 -0.14331219163E+02  0.36759266976E+02 -0.14669954859E+03  0.15191242578E+03  0.00000000000E+00 0. -1.
         -2    1    1    2    0  502 -0.10548810085E+02 -0.19172894828E+02 -0.14134537252E+02  0.26051150332E+02  0.00000000000E+00 0.  1.
<mgrwt>
<rscale>  1 0.83466688E+02</rscale>
<asrwt>0</asrwt>
<pdfrwt beam="1">  1       21 0.14077383E-02 0.83466688E+02</pdfrwt>
<pdfrwt beam="2">  1       -1 0.87035476E-01 0.83466688E+02</pdfrwt>
<totfact> 0.26126207E+05</totfact>
</mgrwt>
</event>
<event>
 6    2  0.8544106E+000  0.1003367E+03  0.7546771E-02  0.1279589E+00
         21   -1    0    0  501  502  0.00000000000E+00  0.00000000000E+00  0.57400819054E+02  0.57400819054E+02  0.00000000000E+00 0.  1.
          2   -1    0    0  502    0 -0.00000000000E+00 -0.00000000000E+00 -0.12569546244E+03  0.12569546244E+03  0.00000000000E+00 0. -1.
         24    2    1    2    0    0 -0.62390631995E+01 -0.59972787748E+02 -0.70713701758E+02  0.12275133123E+03  0.80198506978E+02 0.  0.
        -13    1    3    3    0    0 -0.19321196703E+02 -0.73139055886E+02 -0.71613892637E+02  0.10416899614E+03  0.00000000000E+00 0.  1.
         14    1    3    3    0    0  0.13082133503E+02  0.13166268138E+02  0.90019087868E+00  0.18582335087E+02  0.00000000000E+00 0. -1.
          1    1    1    2  501    0  0.62390631995E+01  0.59972787748E+02  0.24190583693E+01  0.60344950271E+02  0.00000000000E+00 0. -1.
<mgrwt>
<rscale>  1 0.10033674E+03</rscale>
<asrwt>0</asrwt>
<pdfrwt beam="1">  1       21 0.88308954E-02 0.10033674E+03</pdfrwt>
<pdfrwt beam="2">  1        2 0.19337763E-01 0.10033674E+03</pdfrwt>
<totfact> 0.34171997E+05</totfact>
</mgrwt>
</event>
<event>
 6    2  0.8544106E+000  0.1149793E+03  0.7546771E-02  0.1251617E+00
          2   -1    0    0  502    0 -0.00000000000E+00  0.00000000000E+00  0.31806463433E+03  0.31806463433E+03  0.00000000000E+00 0. -1.
         21   -1    0    0  501  502  0.00000000000E+00 -0.00000000000E+00 -0.53745264904E+02  0.53745264904E+02  0.00000000000E+00 0. -1.
         24    2    1    2    0    0 -0.70010646005E+02  0.44364950348E+02  0.26505866749E+03  0.28892271123E+03  0.79690002355E+02 0.  0.
        -11    1    3    3    0    0 -0.14141274845E+02  0.47025147056E+02  0.66684235503E+02  0.82813811496E+02  0.00000000000E+00 0.  1.
         12    1    3    3    0    0 -0.55869371161E+02 -0.26601967077E+01  0.19837443199E+03  0.20610889973E+03  0.00000000000E+00 0. -1.
          1    1    1    2  501    0  0.70010646005E+02 -0.44364950348E+02 -0.73929807213E+00  0.82887188004E+02  0.00000000000E+00 0. -1.
<mgrwt>
<rscale>  1 0.11497928E+03</rscale>
<asrwt>0</asrwt>
<pdfrwt beam="1">  1       21 0.82685025E-02 0.11497928E+03</pdfrwt>
<pdfrwt beam="2">  1        2 0.48933019E-01 0.11497928E+03</pdfrwt>
<totfact> 0.14178984E+05</totfact>
</mgrwt>
</event>
<event>
 6    2  0.8544106E+000  0.7296273E+02  0.7546771E-02  0.1350298E+00
         -1   -1    0    0    0  501 -0.00000000000E+00  0.00000000000E+00  0.86378308084E+03  0.86378308084E+03  0.00000000000E+00 0.  1.
         21   -1    0    0  501  502  0.00000000000E+00 -0.00000000000E+00 -0.38597347605E+01  0.38597347605E+01  0.00000000000E+00 0. -1.
         24    2    1    2    0    0  0.35469124594E-02  0.25187838616E+02  0.78924613390E+03  0.79261151847E+03  0.68477237954E+02 0.  0.
        -11    1    3    3    0    0 -0.15684097671E+02 -0.19788587924E+02  0.25619050371E+03  0.25743184210E+03  0.00000000000E+00 0.  1.
         12    1    3    3    0    0  0.15687644583E+02  0.44976426541E+02  0.53305563018E+03  0.53517967638E+03  0.00000000000E+00 0. -1.
         -2    1    1    2    0  502 -0.35469124594E-02 -0.25187838616E+02  0.70677212182E+02  0.75031297127E+02  0.00000000000E+00 0.  1.
<mgrwt>
<rscale>  1 0.72962726E+02</rscale>
<asrwt>0</asrwt>
<pdfrwt beam="1">  1       21 0.59380604E-03 0.72962726E+02</pdfrwt>
<pdfrwt beam="2">  1       -1 0.13288955E+00 0.72962726E+02</pdfrwt>
<totfact> 0.38354743E+05</totfact>
</mgrwt>
</event>
<event>
 6    2  0.8544106E+000  0.8367048E+02  0.7546771E-02  0.1318946E+00
         -3   -1    0    0    0  501 -0.00000000000E+00  0.00000000000E+00  0.37334396370E+01  0.37334396370E+01  0.00000000000E+00 0.  1.
         21   -1    0    0  501  502  0.00000000000E+00 -0.00000000000E+00 -0.14632679940E+04  0.14632679940E+04  0.00000000000E+00 0.  1.
         24    2    1    2    0    0  0.91381488822E+01  0.18526803297E+02 -0.47923622354E+03  0.48648546456E+03  0.81080213786E+02 0.  0.
        -11    1    3    3    0    0 -0.12599546363E+02  0.40952181951E+02 -0.38105841793E+03  0.38345970799E+03  0.00000000000E+00 0.  1.
         12    1    3    3    0    0  0.21737695245E+02 -0.22425378654E+02 -0.98177805610E+02  0.10302575657E+03  0.00000000000E+00 0. -1.
         -4    1    1    2    0  502 -0.91381488822E+01 -0.18526803297E+02 -0.98029833080E+03  0.98051596906E+03  0.00000000000E+00 0.  1.
<mgrwt>
<rscale>  1 0.83670480E+02</rscale>
<asrwt>0</asrwt>
<pdfrwt beam="1">  1       21 0.22511781E+00 0.83670480E+02</pdfrwt>
<pdfrwt beam="2">  1       -3 0.57437620E-03 0.83670480E+02</pdfrwt>
<totfact> 0.28509237E+04</totfact>
</mgrwt>
</event>
<event>
 6    2  0.8544106E+000  0.1043738E+03  0.7546771E-02  0.1271358E+00
          2   -1    0    0  502    0 -0.00000000000E+00  0.00000000000E+00  0.80284260823E+03  0.80284260823E+03  0.00000000000E+00 0. -1.
         21   -1    0    0  501  502  0.00000000000E+00 -0.00000000000E+00 -0.92150435612E+01  0.92150435612E+01  0.00000000000E+00 0. -1.
         24    2    1    2    0    0 -0.33840527509E+02  0.56911830573E+02  0.53521063645E+03  0.54529287422E+03  0.80683056134E+02 0.  0.
        -13    1    3    3    0    0 -0.32767533460E+02 -0.11712069772E+02  0.21624758215E+03  0.21902945148E+03  0.00000000000E+00 0.  1.
         14    1    3    3    0    0 -0.10729940487E+01  0.68623900346E+02  0.31896305430E+03  0.32626342275E+03  0.00000000000E+00 0. -1.
          1    1    1    2  501    0  0.33840527509E+02 -0.56911830573E+02  0.25841692822E+03  0.26676477757E+03  0.00000000000E+00 0. -1.
<mgrwt>
<rscale>  1 0.10437382E+03</rscale>
<asrwt>0</asrwt>
<pdfrwt beam="1">  1       21 0.14176996E-02 0.10437382E+03</pdfrwt>
<pdfrwt beam="2">  1        2 0.12351419E+00 0.10437382E+03</pdfrwt>
<totfact> 0.92210025E+05</totfact>
</mgrwt>
</event>
<event>
 6    2  0.8544106E+000  0.1050746E+03  0.7546771E-02  0.1269973E+00
          2   -1    0    0  502    0 -0.00000000000E+00  0.00000000000E+00  0.78618364021E+03  0.78618364021E+03  0.00000000000E+00 0. -1.
         21   -1    0    0  501  502  0.00000000000E+00 -0.00000000000E+00 -0.13975483620E+02  0.13975483620E+02  0.00000000000E+00 0. -1.
         24    2    1    2    0    0  0.51648802224E+02  0.43013554788E+02  0.66760001906E+03  0.67581835375E+03  0.80764454744E+02 0.  0.
        -11    1    3    3    0    0  0.47054315597E+01 -0.76176086400E+01  0.63582759785E+01  0.10981653836E+02  0.00000000000E+00 0.  1.
         12    1    3    3    0    0  0.46943370664E+02  0.50631163428E+02  0.66124174308E+03  0.66483669991E+03  0.00000000000E+00 0. -1.
          1    1    1    2  501    0 -0.51648802224E+02 -0.43013554788E+02  0.10460813753E+03  0.12434077008E+03  0.00000000000E+00 0. -1.
<mgrwt>
<rscale>  1 0.10507455E+03</rscale>
<asrwt>0</asrwt>
<pdfrwt beam="1">  1       21 0.21500750E-02 0.10507455E+03</pdfrwt>
<pdfrwt beam="2">  1        2 0.12095129E+00 0.10507455E+03</pdfrwt>
<totfact> 0.48658123E+05</totfact>
</mgrwt>
</event>
<event>
 6    2  0.8544106E+000  0.8508209E+02  0.7546771E-02  0.1315218E+00
         21   -1    0    0  501  502  0.00000000000E+00  0.00000000000E+00  0.16988927461E+01  0.16988927461E+01  0.00000000000E+00 0. -1.
         -3   -1    0    0    0  501 -0.00000000000E+00 -0.00000000000E+00 -0.22818930980E+04  0.22818930980E+04  0.00000000000E+00 0.  1.
         24    2    1    2    0    0  0.12399867809E+02 -0.28418238515E+02 -0.19738125868E+04  0.19756454871E+04  0.79231368510E+02 0.  0.
        -11    1    3    3    0    0 -0.26828361546E+02  0.69753544183E+01 -0.40734207438E+03  0.40828419283E+03  0.00000000000E+00 0.  1.
         12    1    3    3    0    0  0.39228229355E+02 -0.35393592933E+02 -0.15664705124E+04  0.15673612942E+04  0.00000000000E+00 0. -1.
         -4    1    1    2    0  502 -0.12399867809E+02  0.28418238515E+02 -0.30638161849E+03  0.30794650372E+03  0.00000000000E+00 0.  1.
<mgrwt>
<rscale>  1 0.85082094E+02</rscale>
<asrwt>0</asrwt>
<pdfrwt beam="1">  1       21 0.26136651E-03 0.85082094E+02</pdfrwt>
<pdfrwt beam="2">  1       -3 0.35106264E+00 0.85082094E+02</pdfrwt>
<totfact> 0.34456231E+04</totfact>
</mgrwt>
</event>
<event>
 6    2  0.8544106E+000  0.8014972E+02  0.7546771E-02  0.1328627E+00
          2   -1    0    0  502    0 -0.00000000000E+00  0.00000000000E+00  0.25252021085E+03  0.25252021085E+03  0.00000000000E+00 0. -1.
         21   -1    0    0  501  502  0.00000000000E+00 -0.00000000000E+00 -0.10982120269E+02  0.10982120269E+02  0.00000000000E+00 0.  1.
         24    2    1    2    0    0  0.21209993864E+02 -0.21738641448E+01  0.15647488207E+03  0.17580775336E+03  0.77261813982E+02 0.  0.
        -13    1    3    3    0    0  0.21300572815E+02 -0.27066416369E+02  0.26464824945E+02  0.43436070917E+02  0.00000000000E+00 0.  1.
         14    1    3    3    0    0 -0.90578951864E-01  0.24892552224E+02  0.13001005712E+03  0.13237168245E+03  0.00000000000E+00 0. -1.
          1    1    1    2  501    0 -0.21209993864E+02  0.21738641448E+01  0.85063208510E+02  0.87694577752E+02  0.00000000000E+00 0. -1.
<mgrwt>
<rscale>  1 0.80149719E+02</rscale>
<asrwt>0</asrwt>
<pdfrwt beam="1">  1       21 0.16895572E-02 0.80149719E+02</pdfrwt>
<pdfrwt beam="2">  1        2 0.38849259E-01 0.80149719E+02</pdfrwt>
<totfact> 0.23929895E+06</totfact>
</mgrwt>
</event>
<event>
 6    2  0.8544106E+000  0.1110049E+03  0.7546771E-02  0.1258720E+00
         21   -1    0    0  501  502  0.00000000000E+00  0.00000000000E+00  0.36167539818E+03  0.36167539818E+03  0.00000000000E+00 0. -1.
          4   -1    0    0  502    0 -0.00000000000E+00 -0.00000000000E+00 -0.43724886500E+02  0.43724886500E+02  0.00000000000E+00 0. -1.
         24    2    1    2    0    0  0.72490699092E+02 -0.29003920663E+02  0.42112056438E+02  0.11872454057E+03  0.78904767715E+02 0.  0.
        -13    1    3    3    0    0  0.42274815294E+02 -0.54656775856E+02  0.38046089746E+02  0.78879833291E+02  0.00000000000E+00 0.  1.
         14    1    3    3    0    0  0.30215883798E+02  0.25652855193E+02  0.40659666924E+01  0.39844707282E+02  0.00000000000E+00 0. -1.
          3    1    1    2  501    0 -0.72490699092E+02  0.29003920663E+02  0.27583845524E+03  0.28667574410E+03  0.00000000000E+00 0. -1.
<mgrwt>
<rscale>  1 0.11100492E+03</rscale>
<asrwt>0</asrwt>
<pdfrwt beam="1">  1       21 0.55642367E-01 0.11100492E+03</pdfrwt>
<pdfrwt beam="2">  1        4 0.67269058E-02 0.11100492E+03</pdfrwt>
<totfact> 0.18052624E+04</totfact>
</mgrwt>
</event>
<event>
 6    2  0.8544106E+000  0.8535944E+02  0.7546771E-02  0.1314495E+00
         -1   -1    0    0    0  501 -0.00000000000E+00  0.00000000000E+00  0.70459772506E+02  0.70459772506E+02  0.00000000000E+00 0.  1.
         21   -1    0    0  501  502  0.00000000000E+00 -0.00000000000E+00 -0.11676493530E+03  0.11676493530E+03  0.00000000000E+00 0.  1.
         24    2    1    2    0    0 -0.26440950418E+02  0.36053031773E+01  0.41887525621E+02  0.95083119151E+02  0.81080902035E+02 0.  0.
        -13    1    3    3    0    0 -0.52108042019E+02 -0.13931368295E+02  0.30584868585E+02  0.62006171080E+02  0.00000000000E+00 0.  1.
         14    1    3    3    0    0  0.25667091601E+02  0.17536671473E+02  0.11302657035E+02  0.33076948071E+02  0.00000000000E+00 0. -1.
         -2    1    1    2    0  502  0.26440950418E+02 -0.36053031773E+01 -0.88192688415E+02  0.92141588655E+02  0.00000000000E+00 0.  1.
<mgrwt>
<rscale>  1 0.85359444E+02</rscale>
<asrwt>0</asrwt>
<pdfrwt beam="1">  1       21 0.17963836E-01 0.85359444E+02</pdfrwt>
<pdfrwt beam="2">  1       -1 0.10839965E-01 0.85359444E+02</pdfrwt>
<totfact> 0.12929883E+05</totfact>
</mgrwt>
</event>
<event>
 6    2  0.8544106E+000  0.8714133E+02  0.7546771E-02  0.1309926E+00
         21   -1    0    0  501  502  0.00000000000E+00  0.00000000000E+00  0.20626288575E+03  0.20626288575E+03  0.00000000000E+00 0. -1.
          4   -1    0    0  502    0 -0.00000000000E+00 -0.00000000000E+00 -0.68607040181E+02  0.68607040181E+02  0.00000000000E+00 0. -1.
         24    2    1    2    0    0  0.19851260929E+02 -0.23922770816E+02 -0.39021011489E+02  0.95479058426E+02  0.81407860409E+02 0.  0.
        -13    1    3    3    0    0  0.47162852658E+02 -0.31775732068E+02 -0.16484861685E+02  0.59209648572E+02  0.00000000000E+00 0.  1.
         14    1    3    3    0    0 -0.27311591729E+02  0.78529612517E+01 -0.22536149804E+02  0.36269409854E+02  0.00000000000E+00 0. -1.
          3    1    1    2  501    0 -0.19851260929E+02  0.23922770816E+02  0.17667685706E+03  0.17939086751E+03  0.00000000000E+00 0. -1.
<mgrwt>
<rscale>  1 0.87141329E+02</rscale>
<asrwt>0</asrwt>
<pdfrwt beam="1">  1       21 0.31732751E-01 0.87141329E+02</pdfrwt>
<pdfrwt beam="2">  1        4 0.10554929E-01 0.87141329E+02</pdfrwt>
<totfact> 0.25674328E+04</totfact>
</mgrwt>
</event>
<event>
 6    2  0.8544106E+000  0.8311727E+02  0.7546771E-02  0.1320431E+00
         21   -1    0    0  501  502  0.00000000000E+00  0.00000000000E+00  0.11489341141E+01  0.11489341141E+01  0.00000000000E+00 0.  1.
          2   -1    0    0  502    0 -0.00000000000E+00 -0.00000000000E+00 -0.23382990178E+04  0.23382990178E+04  0.00000000000E+00 0. -1.
         24    2    1    2    0    0 -0.26410328333E+01 -0.20376192956E+02 -0.18741831856E+04  0.18760253446E+04  0.80537667651E+02 0.  0.
        -13    1    3    3    0    0 -0.39622080435E+02 -0.13757652575E+02 -0.12571807441E+04  0.12578802032E+04  0.00000000000E+00 0.  1.
         14    1    3    3    0    0  0.36981047602E+02 -0.66185403808E+01 -0.61700244148E+03  0.61814514133E+03  0.00000000000E+00 0. -1.
          1    1    1    2  501    0  0.26410328333E+01  0.20376192956E+02 -0.46296689804E+03  0.46342260732E+03  0.00000000000E+00 0. -1.
<mgrwt>
<rscale>  1 0.83117268E+02</rscale>
<asrwt>0</asrwt>
<pdfrwt beam="1">  1       21 0.17675877E-03 0.83117268E+02</pdfrwt>
<pdfrwt beam="2">  1        2 0.35973897E+00 0.83117268E+02</pdfrwt>
<totfact> 0.33795567E+06</totfact>
</mgrwt>
</event>
<event>
 6    2  0.8544106E+000  0.8881472E+02  0.7546771E-02  0.1305748E+00
         -1   -1    0    0    0  501 -0.00000000000E+00  0.00000000000E+00  0.32515102551E+01  0.32515102551E+01  0.00000000000E+00 0.  1.
         21   -1    0    0  501  502  0.00000000000E+00 -0.00000000000E+00 -0.17299962346E+04  0.17299962346E+04  0.00000000000E+00 0. -1.
         24    2    1    2    0    0 -0.38352841243E+02  0.49354626302E+01 -0.67826232102E+03  0.68405250597E+03  0.79954709568E+02 0.  0.
        -13    1    3    3    0    0  0.20020179709E+02 -0.14199015992E+02 -0.28086515924E+03  0.28193555527E+03  0.00000000000E+00 0.  1.
         14    1    3    3    0    0 -0.58373020951E+02  0.19134478622E+02 -0.39739716178E+03  0.40211695070E+03  0.00000000000E+00 0. -1.
         -2    1    1    2    0  502  0.38352841243E+02 -0.49354626302E+01 -0.10484824033E+04  0.10491952388E+04  0.00000000000E+00 0.  1.
<mgrwt>
<rscale>  1 0.88814722E+02</rscale>
<asrwt>0</asrwt>
<pdfrwt beam="1">  1       21 0.26615356E+00 0.88814722E+02</pdfrwt>
<pdfrwt beam="2">  1       -1 0.50023179E-03 0.88814722E+02</pdfrwt>
<totfact> 0.24557369E+04</totfact>
</mgrwt>
</event>
<event>
 6    2  0.8544106E+000  0.9285545E+02  0.7546771E-02  0.1296081E+00
         -1   -1    0    0    0  501 -0.00000000000E+00  0.00000000000E+00  0.10271156883E+04  0.10271156883E+04  0.00000000000E+00 0.  1.
         21   -1    0    0  501  502  0.00000000000E+00 -0.00000000000E+00 -0.81306120418E+01  0.81306120418E+01  0.00000000000E+00 0.  1.
         24    2    1    2    0    0  0.23537474232E+02 -0.38273630246E+02  0.93838675527E+03  0.94296969003E+03  0.81260386251E+02 0.  0.
        -13    1    3    3    0    0 -0.86456813858E+01 -0.45447961245E+02  0.76978656107E+03  0.77117547588E+03  0.00000000000E+00 0.  1.
         14    1    3    3    0    0  0.32183155618E+02  0.71743309995E+01  0.16860019420E+03  0.17179421415E+03  0.00000000000E+00 0. -1.
         -2    1    1    2    0  502 -0.23537474232E+02  0.38273630246E+02  0.80598320984E+02  0.92276610313E+02  0.00000000000E+00 0.  1.
<mgrwt>
<rscale>  1 0.92855446E+02</rscale>
<asrwt>0</asrwt>
<pdfrwt beam="1">  1       21 0.12508642E-02 0.92855446E+02</pdfrwt>
<pdfrwt beam="2">  1       -1 0.15801770E+00 0.92855446E+02</pdfrwt>
<totfact> 0.79502355E+04</totfact>
</mgrwt>
</event>
<event>
 6    2  0.8544106E+000  0.8391130E+02  0.7546771E-02  0.1318304E+00
          2   -1    0    0  502    0 -0.00000000000E+00  0.00000000000E+00  0.18481635390E+03  0.18481635390E+03  0.00000000000E+00 0. -1.
         21   -1    0    0  501  502  0.00000000000E+00 -0.00000000000E+00 -0.16192101079E+02  0.16192101079E+02  0.00000000000E+00 0.  1.
         24    2    1    2    0    0 -0.86803222524E+01 -0.23616985421E+02  0.12280985774E+03  0.14873925955E+03  0.80049960504E+02 0.  0.
        -13    1    3    3    0    0 -0.26387537751E+02 -0.32369238188E+02  0.24401966012E+02  0.48368643507E+02  0.00000000000E+00 0.  1.
         14    1    3    3    0    0  0.17707215499E+02  0.87522527667E+01  0.98407891730E+02  0.10037061604E+03  0.00000000000E+00 0. -1.
          1    1    1    2  501    0  0.86803222524E+01  0.23616985421E+02  0.45814395084E+02  0.52269195437E+02  0.00000000000E+00 0. -1.
<mgrwt>
<rscale>  1 0.83911299E+02</rscale>
<asrwt>0</asrwt>
<pdfrwt beam="1">  1       21 0.24910926E-02 0.83911299E+02</pdfrwt>
<pdfrwt beam="2">  1        2 0.28433284E-01 0.83911299E+02</pdfrwt>
<totfact> 0.18010275E+06</totfact>
</mgrwt>
</event>
<event>
 6    2  0.8544106E+000  0.1241087E+03  0.7546771E-02  0.1236469E+00
         21   -1    0    0  501  502  0.00000000000E+00  0.00000000000E+00  0.48713347294E+01  0.48713347294E+01  0.00000000000E+00 0.  1.
         -1   -1    0    0    0  501 -0.00000000000E+00 -0.00000000000E+00 -0.25932081176E+04  0.25932081176E+04  0.00000000000E+00 0.  1.
         24    2    1    2    0    0  0.87450538349E+02  0.10843056161E+02 -0.10671816561E+04  0.10743740713E+04  0.87394447236E+02 0.  0.
        -13    1    3    3    0    0  0.60302805569E+02  0.48701703292E+02 -0.66017758472E+03  0.66471251502E+03  0.00000000000E+00 0.  1.
         14    1    3    3    0    0  0.27147732780E+02 -0.37858647131E+02 -0.40700407136E+03  0.40966155624E+03  0.00000000000E+00 0. -1.
         -2    1    1    2    0  502 -0.87450538349E+02 -0.10843056161E+02 -0.15211551268E+04  0.15237053811E+04  0.00000000000E+00 0.  1.
<mgrwt>
<rscale>  1 0.12410865E+03</rscale>
<asrwt>0</asrwt>
<pdfrwt beam="1">  1       21 0.74943649E-03 0.12410865E+03</pdfrwt>
<pdfrwt beam="2">  1       -1 0.39895490E+00 0.12410865E+03</pdfrwt>
<totfact> 0.52366907E+03</totfact>
</mgrwt>
</event>
<event>
 6    2  0.8544106E+000  0.8795163E+02  0.7546771E-02  0.1307889E+00
          2   -1    0    0  502    0 -0.00000000000E+00  0.00000000000E+00  0.99695299377E+02  0.99695299377E+02  0.00000000000E+00 0. -1.
         21   -1    0    0  501  502  0.00000000000E+00 -0.00000000000E+00 -0.38278285335E+02  0.38278285335E+02  0.00000000000E+00 0.  1.
         24    2    1    2    0    0  0.23549527606E+02 -0.14717598136E+02  0.65824061992E+02  0.10985579645E+03  0.83452387206E+02 0.  0.
        -11    1    3    3    0    0  0.39530302977E+01 -0.41370512077E+02  0.66855747646E+01  0.42093261076E+02  0.00000000000E+00 0.  1.
         12    1    3    3    0    0  0.19596497308E+02  0.26652913941E+02  0.59138487227E+02  0.67762535370E+02  0.00000000000E+00 0. -1.
          1    1    1    2  501    0 -0.23549527606E+02  0.14717598136E+02 -0.44070479493E+01  0.28117788266E+02  0.00000000000E+00 0. -1.
<mgrwt>
<rscale>  1 0.87951628E+02</rscale>
<asrwt>0</asrwt>
<pdfrwt beam="1">  1       21 0.58889670E-02 0.87951628E+02</pdfrwt>
<pdfrwt beam="2">  1        2 0.15337738E-01 0.87951628E+02</pdfrwt>
<totfact> 0.87514500E+05</totfact>
</mgrwt>
</event>
<event>
 6    2  0.8544106E+000  0.8402364E+02  0.7546771E-02  0.1318006E+00
         21   -1    0    0  501  502  0.00000000000E+00  0.00000000000E+00  0.38455496213E+02  0.38455496213E+02  0.00000000000E+00 0. -1.
         -3   -1    0    0    0  501 -0.00000000000E+00 -0.00000000000E+00 -0.80426380661E+02  0.80426380661E+02  0.00000000000E+00 0.  1.
         24    2    1    2    0    0  0.20743996247E+02  0.29469260472E+01 -0.48398441168E+02  0.96965872703E+02  0.81369365293E+02 0.  0.
        -11    1    3    3    0    0  0.48563903858E+02 -0.12037790779E+02 -0.18153167932E+02  0.53224981641E+02  0.00000000000E+00 0.  1.
         12    1    3    3    0    0 -0.27819907611E+02  0.14984716826E+02 -0.30245273235E+02  0.43740891062E+02  0.00000000000E+00 0. -1.
         -4    1    1    2    0  502 -0.20743996247E+02 -0.29469260472E+01  0.64275567200E+01  0.21916004171E+02  0.00000000000E+00 0.  1.
<mgrwt>
<rscale>  1 0.84023636E+02</rscale>
<asrwt>0</asrwt>
<pdfrwt beam="1">  1       21 0.59162303E-02 0.84023636E+02</pdfrwt>
<pdfrwt beam="2">  1       -3 0.12373289E-01 0.84023636E+02</pdfrwt>
<totfact> 0.45224248E+05</totfact>
</mgrwt>
</event>
<event>
 6    2  0.8544106E+000  0.8204921E+02  0.7546771E-02  0.1323335E+00
         -1   -1    0    0    0  501 -0.00000000000E+00  0.00000000000E+00  0.17876755529E+03  0.17876755529E+03  0.00000000000E+00 0.  1.
         21   -1    0    0  501  502  0.00000000000E+00 -0.00000000000E+00 -0.17999312718E+02  0.17999312718E+02  0.00000000000E+00 0. -1.
         24    2    1    2    0    0 -0.21169546058E+02 -0.10564824451E+02  0.14955757751E+03  0.17058587859E+03  0.78564036216E+02 0.  0.
        -13    1    3    3    0    0 -0.18109240580E+02  0.11644088042E+02  0.14636609707E+03  0.14794108203E+03  0.00000000000E+00 0.  1.
         14    1    3    3    0    0 -0.30603054778E+01 -0.22208912493E+02  0.31914804407E+01  0.22644796557E+02  0.00000000000E+00 0. -1.
         -2    1    1    2    0  502  0.21169546058E+02  0.10564824451E+02  0.11210665063E+02  0.26180989422E+02  0.00000000000E+00 0.  1.
<mgrwt>
<rscale>  1 0.82049211E+02</rscale>
<asrwt>0</asrwt>
<pdfrwt beam="1">  1       21 0.27691252E-02 0.82049211E+02</pdfrwt>
<pdfrwt beam="2">  1       -1 0.27502700E-01 0.82049211E+02</pdfrwt>
<totfact> 0.71662417E+05</totfact>
</mgrwt>
</event>
<event>
 6    2  0.8544106E+000  0.8736884E+02  0.7546771E-02  0.1309351E+00
         21   -1    0    0  501  502  0.00000000000E+00  0.00000000000E+00  0.10401806335E+02  0.10401806335E+02  0.00000000000E+00 0. -1.
          2   -1    0    0  502    0 -0.00000000000E+00 -0.00000000000E+00 -0.63455510853E+03  0.63455510853E+03  0.00000000000E+00 0. -1.
         24    2    1    2    0    0 -0.28881738355E+02  0.12650173153E+02 -0.59696026878E+03  0.60331987898E+03  0.81480869975E+02 0.  0.
        -11    1    3    3    0    0 -0.84865353985E+01  0.24839652420E+02 -0.56093791673E+02  0.61931761477E+02  0.00000000000E+00 0.  1.
         12    1    3    3    0    0 -0.20395202957E+02 -0.12189479266E+02 -0.54086647711E+03  0.54138811750E+03  0.00000000000E+00 0. -1.
          1    1    1    2  501    0  0.28881738355E+02 -0.12650173153E+02 -0.27193033407E+02  0.41637035883E+02  0.00000000000E+00 0. -1.
<mgrwt>
<rscale>  1 0.87368838E+02</rscale>
<asrwt>0</asrwt>
<pdfrwt beam="1">  1       21 0.16002780E-02 0.87368838E+02</pdfrwt>
<pdfrwt beam="2">  1        2 0.97623856E-01 0.87368838E+02</pdfrwt>
<totfact> 0.98898724E+05</totfact>
</mgrwt>
</event>
<event>
 6    2  0.8544106E+000  0.8305812E+02  0.7546771E-02  0.1320590E+00
          2   -1    0    0  502    0 -0.00000000000E+00  0.00000000000E+00  0.46039443733E+03  0.46039443733E+03  0.00000000000E+00 0. -1.
         21   -1    0    0  501  502  0.00000000000E+00 -0.00000000000E+00 -0.70657987075E+01  0.70657987075E+01  0.00000000000E+00 0. -1.
         24    2    1    2    0    0 -0.15624381184E+02  0.16944187905E+02  0.41055191533E+03  0.41886934340E+03  0.79796145728E+02 0.  0.
        -13    1    3    3    0    0  0.26091765432E+02  0.27297301442E+02  0.14372809778E+03  0.14860581745E+03  0.00000000000E+00 0.  1.
         14    1    3    3    0    0 -0.41716146617E+02 -0.10353113538E+02  0.26682381755E+03  0.27026352595E+03  0.00000000000E+00 0. -1.
          1    1    1    2  501    0  0.15624381184E+02 -0.16944187905E+02  0.42776723298E+02  0.48590892637E+02  0.00000000000E+00 0. -1.
<mgrwt>
<rscale>  1 0.83058122E+02</rscale>
<asrwt>0</asrwt>
<pdfrwt beam="1">  1       21 0.10870463E-02 0.83058122E+02</pdfrwt>
<pdfrwt beam="2">  1        2 0.70829890E-01 0.83058122E+02</pdfrwt>
<totfact> 0.25684694E+06</totfact>
</mgrwt>
</event>
<event>
 6    2  0.8544106E+000  0.1226933E+03  0.7546771E-02  0.1238719E+00
          2   -1    0    0  502    0 -0.00000000000E+00  0.00000000000E+00  0.83686364679E+02  0.83686364679E+02  0.00000000000E+00 0. -1.
         21   -1    0    0  501  502  0.00000000000E+00 -0.00000000000E+00 -0.13895780845E+03  0.13895780845E+03  0.00000000000E+00 0. -1.
         24    2    1    2    0    0  0.52415903733E+02 -0.76669283971E+02 -0.27980604537E+02  0.12584336748E+03  0.80175013809E+02 0.  0.
        -13    1    3    3    0    0  0.25267512330E+02 -0.17004079121E+02 -0.48400139318E+02  0.57185307309E+02  0.00000000000E+00 0.  1.
         14    1    3    3    0    0  0.27148391403E+02 -0.59665204849E+02  0.20419534781E+02  0.68658060169E+02  0.00000000000E+00 0. -1.
          1    1    1    2  501    0 -0.52415903733E+02  0.76669283971E+02 -0.27290839237E+02  0.96800805652E+02  0.00000000000E+00 0. -1.
<mgrwt>
<rscale>  1 0.12269327E+03</rscale>
<asrwt>0</asrwt>
<pdfrwt beam="1">  1       21 0.21378124E-01 0.12269327E+03</pdfrwt>
<pdfrwt beam="2">  1        2 0.12874825E-01 0.12269327E+03</pdfrwt>
<totfact> 0.11419233E+05</totfact>
</mgrwt>
</event>
<event>
 6    2  0.8544106E+000  0.8679326E+02  0.7546771E-02  0.1310808E+00
         -1   -1    0    0    0  501 -0.00000000000E+00  0.00000000000E+00  0.10360558078E+03  0.10360558078E+03  0.00000000000E+00 0.  1.
         21   -1    0    0  501  502  0.00000000000E+00 -0.00000000000E+00 -0.36163161360E+02  0.36163161360E+02  0.00000000000E+00 0.  1.
         24    2    1    2    0    0 -0.14732357188E+02  0.29490233788E+02  0.61243975853E+02  0.10622568116E+03  0.80289193063E+02 0.  0.
        -11    1    3    3    0    0  0.18837870765E+02  0.45195537407E+02  0.41761310937E+02  0.64354557474E+02  0.00000000000E+00 0.  1.
         12    1    3    3    0    0 -0.33570227953E+02 -0.15705303619E+02  0.19482664916E+02  0.41871123687E+02  0.00000000000E+00 0. -1.
         -2    1    1    2    0  502  0.14732357188E+02 -0.29490233788E+02  0.61984435659E+01  0.33543060978E+02  0.00000000000E+00 0.  1.
<mgrwt>
<rscale>  1 0.86793264E+02</rscale>
<asrwt>0</asrwt>
<pdfrwt beam="1">  1       21 0.55635633E-02 0.86793264E+02</pdfrwt>
<pdfrwt beam="2">  1       -1 0.15939320E-01 0.86793264E+02</pdfrwt>
<totfact> 0.54700535E+05</totfact>
</mgrwt>
</event>
<event>
 6    2  0.8544106E+000  0.8973537E+02  0.7546771E-02  0.1303494E+00
          2   -1    0    0  502    0 -0.00000000000E+00  0.00000000000E+00  0.37293731741E+03  0.37293731741E+03  0.00000000000E+00 0. -1.
         21   -1    0    0  501  502  0.00000000000E+00 -0.00000000000E+00 -0.99616714101E+01  0.99616714101E+01  0.00000000000E+00 0.  1.
         24    2    1    2    0    0 -0.83524504648E+01 -0.31045394259E+02  0.27012339921E+03  0.28463852034E+03  0.83778616144E+02 0.  0.
        -11    1    3    3    0    0 -0.39168143153E+01 -0.56179544239E+01 -0.48908547532E+01  0.84156584119E+01  0.00000000000E+00 0.  1.
         12    1    3    3    0    0 -0.44356361495E+01 -0.25427439835E+02  0.27501425397E+03  0.27622286193E+03  0.00000000000E+00 0. -1.
          1    1    1    2  501    0  0.83524504648E+01  0.31045394259E+02  0.92852246789E+02  0.98260468487E+02  0.00000000000E+00 0. -1.
<mgrwt>
<rscale>  1 0.89735369E+02</rscale>
<asrwt>0</asrwt>
<pdfrwt beam="1">  1       21 0.15325651E-02 0.89735369E+02</pdfrwt>
<pdfrwt beam="2">  1        2 0.57374961E-01 0.89735369E+02</pdfrwt>
<totfact> 0.18856326E+06</totfact>
</mgrwt>
</event>
<event>
 6    2  0.1119044E+001  0.6354887E+02  0.7546771E-02  0.1383515E+00
         -1   -1    0    0    0  501 -0.00000000000E+00  0.00000000000E+00  0.13784470979E+02  0.13784470979E+02  0.00000000000E+00 0.  1.
         21   -1    0    0  501  502  0.00000000000E+00 -0.00000000000E+00 -0.14467617766E+03  0.14467617766E+03  0.00000000000E+00 0. -1.
         24    2    1    2    0    0 -0.40904210702E+01  0.21912984598E+02 -0.11391045246E+03  0.13043791798E+03  0.59510913528E+02 0.  0.
        -11    1    3    3    0    0  0.17450380365E+02 -0.73812106031E+01 -0.12483114587E+02  0.22689781723E+02  0.00000000000E+00 0.  1.
         12    1    3    3    0    0 -0.21540801435E+02  0.29294195202E+02 -0.10142733787E+03  0.10774813626E+03  0.00000000000E+00 0. -1.
         -2    1    1    2    0  502  0.40904210702E+01 -0.21912984598E+02 -0.16981254219E+02  0.28022730655E+02  0.00000000000E+00 0.  1.
<mgrwt>
<rscale>  1 0.63548873E+02</rscale>
<asrwt>0</asrwt>
<pdfrwt beam="1">  1       21 0.22257874E-01 0.63548873E+02</pdfrwt>
<pdfrwt beam="2">  1       -1 0.21206878E-02 0.63548873E+02</pdfrwt>
<totfact> 0.91218356E+05</totfact>
</mgrwt>
</event>
<event>
 6    2  0.8544106E+000  0.8789468E+02  0.7546771E-02  0.1308032E+00
         -1   -1    0    0    0  501 -0.00000000000E+00  0.00000000000E+00  0.80888369857E+02  0.80888369857E+02  0.00000000000E+00 0.  1.
         21   -1    0    0  501  502  0.00000000000E+00 -0.00000000000E+00 -0.59354254026E+02  0.59354254026E+02  0.00000000000E+00 0. -1.
         24    2    1    2    0    0  0.27159116513E+02  0.24353577370E+02 -0.14366328944E+02  0.89061022935E+02  0.79967243659E+02 0.  0.
        -11    1    3    3    0    0 -0.24976660267E+02  0.19508573792E+02  0.70883032027E+01  0.32475560838E+02  0.00000000000E+00 0.  1.
         12    1    3    3    0    0  0.52135776780E+02  0.48450035780E+01 -0.21454632147E+02  0.56585462097E+02  0.00000000000E+00 0. -1.
         -2    1    1    2    0  502 -0.27159116513E+02 -0.24353577370E+02  0.35900444775E+02  0.51181600947E+02  0.00000000000E+00 0.  1.
<mgrwt>
<rscale>  1 0.87894678E+02</rscale>
<asrwt>0</asrwt>
<pdfrwt beam="1">  1       21 0.91314237E-02 0.87894678E+02</pdfrwt>
<pdfrwt beam="2">  1       -1 0.12444365E-01 0.87894678E+02</pdfrwt>
<totfact> 0.34632610E+05</totfact>
</mgrwt>
</event>
<event>
 6    2  0.8544106E+000  0.8608377E+02  0.7546771E-02  0.1312622E+00
         21   -1    0    0  501  502  0.00000000000E+00  0.00000000000E+00  0.11258422883E+02  0.11258422883E+02  0.00000000000E+00 0. -1.
         -1   -1    0    0    0  501 -0.00000000000E+00 -0.00000000000E+00 -0.31958112908E+03  0.31958112908E+03  0.00000000000E+00 0.  1.
         24    2    1    2    0    0  0.18871425588E+02  0.25386383655E+02 -0.25123645916E+03  0.26557517592E+03  0.80061329476E+02 0.  0.
        -13    1    3    3    0    0  0.35447085798E+02  0.42812241018E+02 -0.21511406963E+03  0.22217886224E+03  0.00000000000E+00 0.  1.
         14    1    3    3    0    0 -0.16575660210E+02 -0.17425857362E+02 -0.36122389525E+02  0.43396313682E+02  0.00000000000E+00 0. -1.
         -2    1    1    2    0  502 -0.18871425588E+02 -0.25386383655E+02 -0.57086247040E+02  0.65264376040E+02  0.00000000000E+00 0.  1.
<mgrwt>
<rscale>  1 0.86083771E+02</rscale>
<asrwt>0</asrwt>
<pdfrwt beam="1">  1       21 0.17320652E-02 0.86083771E+02</pdfrwt>
<pdfrwt beam="2">  1       -1 0.49166323E-01 0.86083771E+02</pdfrwt>
<totfact> 0.56571398E+05</totfact>
</mgrwt>
</event>
<event>
 6    2  0.8544106E+000  0.8318982E+02  0.7546771E-02  0.1320235E+00
         21   -1    0    0  501  502  0.00000000000E+00  0.00000000000E+00  0.32691633071E+01  0.32691633071E+01  0.00000000000E+00 0.  1.
          2   -1    0    0  502    0 -0.00000000000E+00 -0.00000000000E+00 -0.91179192908E+03  0.91179192908E+03  0.00000000000E+00 0. -1.
         24    2    1    2    0    0 -0.34688437000E+01 -0.21465438605E+02 -0.80452157899E+03  0.80881117576E+03  0.80297876943E+02 0.  0.
        -13    1    3    3    0    0  0.83907779996E+01 -0.45898479113E+02 -0.30465383206E+03  0.30820615330E+03  0.00000000000E+00 0.  1.
         14    1    3    3    0    0 -0.11859621700E+02  0.24433040508E+02 -0.49986774693E+03  0.50060502246E+03  0.00000000000E+00 0. -1.
          1    1    1    2  501    0  0.34688437000E+01  0.21465438605E+02 -0.10400118678E+03  0.10624991663E+03  0.00000000000E+00 0. -1.
<mgrwt>
<rscale>  1 0.83189825E+02</rscale>
<asrwt>0</asrwt>
<pdfrwt beam="1">  1       21 0.50294792E-03 0.83189825E+02</pdfrwt>
<pdfrwt beam="2">  1        2 0.14027576E+00 0.83189825E+02</pdfrwt>
<totfact> 0.38577346E+06</totfact>
</mgrwt>
</event>
<event>
 6    2  0.8544106E+000  0.7990387E+02  0.7546771E-02  0.1329324E+00
          2   -1    0    0  502    0 -0.00000000000E+00  0.00000000000E+00  0.14670510677E+04  0.14670510677E+04  0.00000000000E+00 0. -1.
         21   -1    0    0  501  502  0.00000000000E+00 -0.00000000000E+00 -0.20778743486E+01  0.20778743486E+01  0.00000000000E+00 0.  1.
         24    2    1    2    0    0 -0.25866973232E+02 -0.11028112555E+02  0.12030574928E+04  0.12057080740E+04  0.74792439196E+02 0.  0.
        -11    1    3    3    0    0 -0.42588514981E+02 -0.11053223026E+02  0.38926233437E+03  0.39174113941E+03  0.00000000000E+00 0.  1.
         12    1    3    3    0    0  0.16721541749E+02  0.25110470941E-01  0.81379515847E+03  0.81396693455E+03  0.00000000000E+00 0. -1.
          1    1    1    2  501    0  0.25866973232E+02  0.11028112555E+02  0.26191570052E+03  0.26342086809E+03  0.00000000000E+00 0. -1.
<mgrwt>
<rscale>  1 0.79903871E+02</rscale>
<asrwt>0</asrwt>
<pdfrwt beam="1">  1       21 0.31967415E-03 0.79903871E+02</pdfrwt>
<pdfrwt beam="2">  1        2 0.22569934E+00 0.79903871E+02</pdfrwt>
<totfact> 0.37961254E+06</totfact>
</mgrwt>
</event>
<event>
 6    2  0.8544106E+000  0.8352319E+02  0.7546771E-02  0.1319340E+00
          2   -1    0    0  502    0 -0.00000000000E+00  0.00000000000E+00  0.25795153153E+04  0.25795153153E+04  0.00000000000E+00 0. -1.
         21   -1    0    0  501  502  0.00000000000E+00 -0.00000000000E+00 -0.11521222295E+01  0.11521222295E+01  0.00000000000E+00 0.  1.
         24    2    1    2    0    0  0.20910108765E+02  0.14600057590E+02  0.19851769500E+04  0.19869332265E+04  0.79534455365E+02 0.  0.
        -11    1    3    3    0    0  0.12002134496E+02  0.47247627021E+02  0.10219921014E+04  0.10231540670E+04  0.00000000000E+00 0.  1.
         12    1    3    3    0    0  0.89079742690E+01 -0.32647569432E+02  0.96318484859E+03  0.96377915953E+03  0.00000000000E+00 0. -1.
          1    1    1    2  501    0 -0.20910108765E+02 -0.14600057590E+02  0.59318624307E+03  0.59373421098E+03  0.00000000000E+00 0. -1.
<mgrwt>
<rscale>  1 0.83523194E+02</rscale>
<asrwt>0</asrwt>
<pdfrwt beam="1">  1       21 0.17725164E-03 0.83523194E+02</pdfrwt>
<pdfrwt beam="2">  1        2 0.39684389E+00 0.83523194E+02</pdfrwt>
<totfact> 0.25215890E+06</totfact>
</mgrwt>
</event>
<event>
 6    2  0.9484556E+000  0.8909916E+02  0.7546771E-02  0.1305048E+00
         21   -1    0    0  501  502  0.00000000000E+00  0.00000000000E+00  0.18746373528E+02  0.18746373528E+02  0.00000000000E+00 0. -1.
         -3   -1    0    0    0  501 -0.00000000000E+00 -0.00000000000E+00 -0.24796023556E+03  0.24796023556E+03  0.00000000000E+00 0.  1.
         24    2    1    2    0    0 -0.55005199772E+01 -0.36848555309E+02 -0.10861763507E+03  0.14048647715E+03  0.80935702048E+02 0.  0.
        -11    1    3    3    0    0 -0.12911265125E+02  0.27367495528E+01 -0.97935568688E+02  0.98820879269E+02  0.00000000000E+00 0.  1.
         12    1    3    3    0    0  0.74107451474E+01 -0.39585304862E+02 -0.10682066380E+02  0.41665597881E+02  0.00000000000E+00 0. -1.
         -4    1    1    2    0  502  0.55005199772E+01  0.36848555309E+02 -0.12059622696E+03  0.12622013193E+03  0.00000000000E+00 0.  1.
<mgrwt>
<rscale>  1 0.89099156E+02</rscale>
<asrwt>0</asrwt>
<pdfrwt beam="1">  1       21 0.28840573E-02 0.89099156E+02</pdfrwt>
<pdfrwt beam="2">  1       -3 0.38147731E-01 0.89099156E+02</pdfrwt>
<totfact> 0.20455941E+05</totfact>
</mgrwt>
</event>
<event>
 6    2  0.8544106E+000  0.8528109E+02  0.7546771E-02  0.1314699E+00
         21   -1    0    0  501  502  0.00000000000E+00  0.00000000000E+00  0.11215970000E+02  0.11215970000E+02  0.00000000000E+00 0.  1.
         -1   -1    0    0    0  501 -0.00000000000E+00 -0.00000000000E+00 -0.31353616063E+03  0.31353616063E+03  0.00000000000E+00 0.  1.
         24    2    1    2    0    0  0.84293032153E+01  0.24584625448E+02 -0.27073350665E+03  0.28384766186E+03  0.81224420924E+02 0.  0.
        -13    1    3    3    0    0 -0.16063842949E+02  0.44395152139E+02 -0.21206269227E+03  0.21725460188E+03  0.00000000000E+00 0.  1.
         14    1    3    3    0    0  0.24493146165E+02 -0.19810526691E+02 -0.58670814383E+02  0.66593059977E+02  0.00000000000E+00 0. -1.
         -2    1    1    2    0  502 -0.84293032153E+01 -0.24584625448E+02 -0.31586683975E+02  0.40904468774E+02  0.00000000000E+00 0.  1.
<mgrwt>
<rscale>  1 0.85281085E+02</rscale>
<asrwt>0</asrwt>
<pdfrwt beam="1">  1       21 0.17255339E-02 0.85281085E+02</pdfrwt>
<pdfrwt beam="2">  1       -1 0.48236332E-01 0.85281085E+02</pdfrwt>
<totfact> 0.58833972E+05</totfact>
</mgrwt>
</event>
<event>
 6    2  0.8544106E+000  0.8289413E+02  0.7546771E-02  0.1321033E+00
         21   -1    0    0  501  502  0.00000000000E+00  0.00000000000E+00  0.11173039751E+02  0.11173039751E+02  0.00000000000E+00 0.  1.
         -1   -1    0    0    0  501 -0.00000000000E+00 -0.00000000000E+00 -0.10379678115E+04  0.10379678115E+04  0.00000000000E+00 0.  1.
         24    2    1    2    0    0 -0.19704629325E+02 -0.10995964998E+02 -0.10228864378E+04  0.10262397871E+04  0.79763728304E+02 0.  0.
        -11    1    3    3    0    0 -0.20897067663E+01 -0.39198596935E+02 -0.79189258819E+03  0.79286491163E+03  0.00000000000E+00 0.  1.
         12    1    3    3    0    0 -0.17614922559E+02  0.28202631937E+02 -0.23099384963E+03  0.23337487550E+03  0.00000000000E+00 0. -1.
         -2    1    1    2    0  502  0.19704629325E+02  0.10995964998E+02 -0.39083339113E+01  0.22901064103E+02  0.00000000000E+00 0.  1.
<mgrwt>
<rscale>  1 0.82894125E+02</rscale>
<asrwt>0</asrwt>
<pdfrwt beam="1">  1       21 0.17189293E-02 0.82894125E+02</pdfrwt>
<pdfrwt beam="2">  1       -1 0.15968734E+00 0.82894125E+02</pdfrwt>
<totfact> 0.46514486E+04</totfact>
</mgrwt>
</event>
<event>
 6    2  0.8544106E+000  0.7921734E+02  0.7546771E-02  0.1331287E+00
          4   -1    0    0  502    0 -0.00000000000E+00  0.00000000000E+00  0.34613310102E+01  0.34613310102E+01  0.00000000000E+00 0. -1.
         21   -1    0    0  501  502  0.00000000000E+00 -0.00000000000E+00 -0.75560891014E+03  0.75560891014E+03  0.00000000000E+00 0. -1.
         24    2    1    2    0    0 -0.50874835601E+01 -0.22350731144E+02 -0.59948976499E+03  0.60470105417E+03  0.75828417578E+02 0.  0.
        -11    1    3    3    0    0 -0.16729905251E+02 -0.17842506648E+02 -0.58525952844E+03  0.58577039905E+03  0.00000000000E+00 0.  1.
         12    1    3    3    0    0  0.11642421691E+02 -0.45082244956E+01 -0.14230236550E+02  0.18930655118E+02  0.00000000000E+00 0. -1.
          3    1    1    2  501    0  0.50874835601E+01  0.22350731144E+02 -0.15265781414E+03  0.15436918698E+03  0.00000000000E+00 0. -1.
<mgrwt>
<rscale>  1 0.79217338E+02</rscale>
<asrwt>0</asrwt>
<pdfrwt beam="1">  1       21 0.11624750E+00 0.79217338E+02</pdfrwt>
<pdfrwt beam="2">  1        4 0.53251256E-03 0.79217338E+02</pdfrwt>
<totfact> 0.16434924E+05</totfact>
</mgrwt>
</event>
<event>
 6    2  0.8544106E+000  0.9161965E+02  0.7546771E-02  0.1298976E+00
         -1   -1    0    0    0  501 -0.00000000000E+00  0.00000000000E+00  0.15615432150E+04  0.15615432150E+04  0.00000000000E+00 0.  1.
         21   -1    0    0  501  502  0.00000000000E+00 -0.00000000000E+00 -0.38572191192E+01  0.38572191192E+01  0.00000000000E+00 0. -1.
         24    2    1    2    0    0 -0.33249788220E+02  0.27098943744E+02  0.13615381785E+04  0.13646172988E+04  0.80958381175E+02 0.  0.
        -13    1    3    3    0    0  0.18191266307E+02  0.23082253175E+02  0.84442961864E+03  0.84494088161E+03  0.00000000000E+00 0.  1.
         14    1    3    3    0    0 -0.51441054527E+02  0.40166905686E+01  0.51710855984E+03  0.51967641716E+03  0.00000000000E+00 0. -1.
         -2    1    1    2    0  502  0.33249788220E+02 -0.27098943744E+02  0.19614781743E+03  0.20078313538E+03  0.00000000000E+00 0.  1.
<mgrwt>
<rscale>  1 0.91619652E+02</rscale>
<asrwt>0</asrwt>
<pdfrwt beam="1">  1       21 0.59341957E-03 0.91619652E+02</pdfrwt>
<pdfrwt beam="2">  1       -1 0.24023691E+00 0.91619652E+02</pdfrwt>
<totfact> 0.72958834E+04</totfact>
</mgrwt>
</event>
<event>
 6    2  0.8544106E+000  0.8097330E+02  0.7546771E-02  0.1326312E+00
         21   -1    0    0  501  502  0.00000000000E+00  0.00000000000E+00  0.22612203991E+02  0.22612203991E+02  0.00000000000E+00 0. -1.
          2   -1    0    0  502    0 -0.00000000000E+00 -0.00000000000E+00 -0.38796837072E+03  0.38796837072E+03  0.00000000000E+00 0. -1.
         24    2    1    2    0    0 -0.16673561615E+02  0.12176231042E+02 -0.37786300335E+03  0.38644161819E+03  0.78296913817E+02 0.  0.
        -13    1    3    3    0    0  0.58488376489E+01  0.24059917705E+02 -0.36358386909E+02  0.43988871779E+02  0.00000000000E+00 0.  1.
         14    1    3    3    0    0 -0.22522399264E+02 -0.11883686662E+02 -0.34150461644E+03  0.34245274642E+03  0.00000000000E+00 0. -1.
          1    1    1    2  501    0  0.16673561615E+02 -0.12176231042E+02  0.12506836623E+02  0.24138956515E+02  0.00000000000E+00 0. -1.
<mgrwt>
<rscale>  1 0.80973298E+02</rscale>
<asrwt>0</asrwt>
<pdfrwt beam="1">  1       21 0.34788005E-02 0.80973298E+02</pdfrwt>
<pdfrwt beam="2">  1        2 0.59687444E-01 0.80973298E+02</pdfrwt>
<totfact> 0.47969231E+05</totfact>
</mgrwt>
</event>
<event>
 6    2  0.8544106E+000  0.8519258E+02  0.7546771E-02  0.1314930E+00
         21   -1    0    0  501  502  0.00000000000E+00  0.00000000000E+00  0.47287860798E+03  0.47287860798E+03  0.00000000000E+00 0.  1.
         -1   -1    0    0    0  501 -0.00000000000E+00 -0.00000000000E+00 -0.10176066819E+02  0.10176066819E+02  0.00000000000E+00 0.  1.
         24    2    1    2    0    0  0.30832680891E+01  0.30666273862E+02  0.18530628989E+03  0.20395145534E+03  0.79421962748E+02 0.  0.
        -11    1    3    3    0    0  0.26467539544E+02  0.23835602430E+02  0.29489458707E+02  0.46241699445E+02  0.00000000000E+00 0.  1.
         12    1    3    3    0    0 -0.23384271455E+02  0.68306714325E+01  0.15581683118E+03  0.15770975589E+03  0.00000000000E+00 0. -1.
         -2    1    1    2    0  502 -0.30832680891E+01 -0.30666273862E+02  0.27739625127E+03  0.27910321946E+03  0.00000000000E+00 0.  1.
<mgrwt>
<rscale>  1 0.85192576E+02</rscale>
<asrwt>0</asrwt>
<pdfrwt beam="1">  1       21 0.72750538E-01 0.85192576E+02</pdfrwt>
<pdfrwt beam="2">  1       -1 0.15655491E-02 0.85192576E+02</pdfrwt>
<totfact> 0.13895714E+05</totfact>
</mgrwt>
</event>
<event>
 6    2  0.8544106E+000  0.1024632E+03  0.7546771E-02  0.1275200E+00
         -1   -1    0    0    0  501 -0.00000000000E+00  0.00000000000E+00  0.57382370152E+02  0.57382370152E+02  0.00000000000E+00 0.  1.
         21   -1    0    0  501  502  0.00000000000E+00 -0.00000000000E+00 -0.12087572067E+03  0.12087572067E+03  0.00000000000E+00 0.  1.
         24    2    1    2    0    0  0.53558208497E+02 -0.34069745667E+02 -0.46663902667E+02  0.11258877088E+03  0.80433091753E+02 0.  0.
        -11    1    3    3    0    0  0.43855513892E+02 -0.46298875571E+02 -0.41203899070E+00  0.63773519223E+02  0.00000000000E+00 0.  1.
         12    1    3    3    0    0  0.97026946046E+01  0.12229129905E+02 -0.46251863677E+02  0.48815251657E+02  0.00000000000E+00 0. -1.
         -2    1    1    2    0  502 -0.53558208497E+02  0.34069745667E+02 -0.16829447855E+02  0.65669319947E+02  0.00000000000E+00 0.  1.
<mgrwt>
<rscale>  1 0.10246322E+03</rscale>
<asrwt>0</asrwt>
<pdfrwt beam="1">  1       21 0.18596264E-01 0.10246322E+03</pdfrwt>
<pdfrwt beam="2">  1       -1 0.88280571E-02 0.10246322E+03</pdfrwt>
<totfact> 0.16772936E+05</totfact>
</mgrwt>
</event>
<event>
 6    2  0.8544106E+000  0.8729453E+02  0.7546771E-02  0.1309539E+00
         -3   -1    0    0    0  501 -0.00000000000E+00  0.00000000000E+00  0.45944034127E+02  0.45944034127E+02  0.00000000000E+00 0.  1.
         21   -1    0    0  501  502  0.00000000000E+00 -0.00000000000E+00 -0.14754609204E+03  0.14754609204E+03  0.00000000000E+00 0. -1.
         24    2    1    2    0    0 -0.23058238796E+02 -0.23966113114E+02 -0.12525929615E+03  0.15267687005E+03  0.80711079915E+02 0.  0.
        -13    1    3    3    0    0  0.26784229156E+02 -0.59674477373E+01 -0.17372201018E+02  0.32477665129E+02  0.00000000000E+00 0.  1.
         14    1    3    3    0    0 -0.49842467952E+02 -0.17998665377E+02 -0.10788709513E+03  0.12019920492E+03  0.00000000000E+00 0. -1.
         -4    1    1    2    0  502  0.23058238796E+02  0.23966113114E+02  0.23657238237E+02  0.40813256121E+02  0.00000000000E+00 0.  1.
<mgrwt>
<rscale>  1 0.87294532E+02</rscale>
<asrwt>0</asrwt>
<pdfrwt beam="1">  1       21 0.22699399E-01 0.87294532E+02</pdfrwt>
<pdfrwt beam="2">  1       -3 0.70683129E-02 0.87294532E+02</pdfrwt>
<totfact> 0.10716496E+05</totfact>
</mgrwt>
</event>
<event>
 6    2  0.8544106E+000  0.8915192E+02  0.7546771E-02  0.1304919E+00
         21   -1    0    0  501  502  0.00000000000E+00  0.00000000000E+00  0.17587716220E+01  0.17587716220E+01  0.00000000000E+00 0. -1.
          2   -1    0    0  502    0 -0.00000000000E+00 -0.00000000000E+00 -0.24637075515E+04  0.24637075515E+04  0.00000000000E+00 0. -1.
         24    2    1    2    0    0 -0.39327097576E+02  0.16403904714E+01 -0.14377009932E+04  0.14404624988E+04  0.79992205502E+02 0.  0.
        -11    1    3    3    0    0 -0.23800194065E+02  0.29115560975E+02 -0.12100747289E+04  0.12106589176E+04  0.00000000000E+00 0.  1.
         12    1    3    3    0    0 -0.15526903511E+02 -0.27475170503E+02 -0.22762626431E+03  0.22980358119E+03  0.00000000000E+00 0. -1.
          1    1    1    2  501    0  0.39327097576E+02 -0.16403904714E+01 -0.10242477866E+04  0.10250038243E+04  0.00000000000E+00 0. -1.
<mgrwt>
<rscale>  1 0.89151918E+02</rscale>
<asrwt>0</asrwt>
<pdfrwt beam="1">  1       21 0.27057951E-03 0.89151918E+02</pdfrwt>
<pdfrwt beam="2">  1        2 0.37903296E+00 0.89151918E+02</pdfrwt>
<totfact> 0.15429879E+06</totfact>
</mgrwt>
</event>
<event>
 6    2  0.9381403E+000  0.9057983E+02  0.7546771E-02  0.1301454E+00
         -1   -1    0    0    0  501 -0.00000000000E+00  0.00000000000E+00  0.86953656830E+03  0.86953656830E+03  0.00000000000E+00 0.  1.
         21   -1    0    0  501  502  0.00000000000E+00 -0.00000000000E+00 -0.36174814379E+01  0.36174814379E+01  0.00000000000E+00 0. -1.
         24    2    1    2    0    0 -0.81500795340E+01 -0.19875131087E+02  0.68425320258E+03  0.69022253757E+03  0.87995803855E+02 0.  0.
        -11    1    3    3    0    0  0.59312513079E+01  0.25029076607E+02  0.47702297708E+03  0.47771597742E+03  0.00000000000E+00 0.  1.
         12    1    3    3    0    0 -0.14081330842E+02 -0.44904207694E+02  0.20723022550E+03  0.21250656015E+03  0.00000000000E+00 0. -1.
         -2    1    1    2    0  502  0.81500795340E+01  0.19875131087E+02  0.18166588429E+03  0.18293151217E+03  0.00000000000E+00 0.  1.
<mgrwt>
<rscale>  1 0.90579833E+02</rscale>
<asrwt>0</asrwt>
<pdfrwt beam="1">  1       21 0.55653630E-03 0.90579833E+02</pdfrwt>
<pdfrwt beam="2">  1       -1 0.13377469E+00 0.90579833E+02</pdfrwt>
<totfact> 0.42605498E+05</totfact>
</mgrwt>
</event>
<event>
 6    2  0.8544106E+000  0.9694742E+02  0.7546771E-02  0.1286849E+00
          2   -1    0    0  502    0 -0.00000000000E+00  0.00000000000E+00  0.13895982353E+03  0.13895982353E+03  0.00000000000E+00 0. -1.
         21   -1    0    0  501  502  0.00000000000E+00 -0.00000000000E+00 -0.42367750143E+02  0.42367750143E+02  0.00000000000E+00 0.  1.
         24    2    1    2    0    0  0.44516029265E+02 -0.34737135382E+02  0.63176598068E+02  0.11571553646E+03  0.78806455314E+02 0.  0.
        -11    1    3    3    0    0  0.67017762573E+02 -0.31911802871E+02  0.49808564669E+02  0.89390361769E+02  0.00000000000E+00 0.  1.
         12    1    3    3    0    0 -0.22501733308E+02 -0.28253325116E+01  0.13368033399E+02  0.26325174693E+02  0.00000000000E+00 0. -1.
          1    1    1    2  501    0 -0.44516029265E+02  0.34737135382E+02  0.33415475319E+02  0.65612037210E+02  0.00000000000E+00 0. -1.
<mgrwt>
<rscale>  1 0.96947423E+02</rscale>
<asrwt>0</asrwt>
<pdfrwt beam="1">  1       21 0.65181155E-02 0.96947423E+02</pdfrwt>
<pdfrwt beam="2">  1        2 0.21378434E-01 0.96947423E+02</pdfrwt>
<totfact> 0.51153135E+05</totfact>
</mgrwt>
</event>
<event>
 6    2  0.8544106E+000  0.1015942E+03  0.7546771E-02  0.1276979E+00
         21   -1    0    0  501  502  0.00000000000E+00  0.00000000000E+00  0.41425315766E+02  0.41425315766E+02  0.00000000000E+00 0.  1.
          2   -1    0    0  502    0 -0.00000000000E+00 -0.00000000000E+00 -0.64303337172E+03  0.64303337172E+03  0.00000000000E+00 0. -1.
         24    2    1    2    0    0 -0.48817339143E+02 -0.42522130940E+02 -0.25528164317E+02  0.10475246381E+03  0.78295129350E+02 0.  0.
        -11    1    3    3    0    0 -0.21162992731E+02 -0.55056947583E+02  0.79945259716E+01  0.59523543107E+02  0.00000000000E+00 0.  1.
         12    1    3    3    0    0 -0.27654346412E+02  0.12534816642E+02 -0.33522690289E+02  0.45228920702E+02  0.00000000000E+00 0. -1.
          1    1    1    2  501    0  0.48817339143E+02  0.42522130940E+02 -0.57607989163E+03  0.57970622367E+03  0.00000000000E+00 0. -1.
<mgrwt>
<rscale>  1 0.10159425E+03</rscale>
<asrwt>0</asrwt>
<pdfrwt beam="1">  1       21 0.63731255E-02 0.10159425E+03</pdfrwt>
<pdfrwt beam="2">  1        2 0.98928211E-01 0.10159425E+03</pdfrwt>
<totfact> 0.10279719E+05</totfact>
</mgrwt>
</event>
<event>
 6    2  0.8544106E+000  0.9320201E+02  0.7546771E-02  0.1295278E+00
         -3   -1    0    0    0  501 -0.00000000000E+00  0.00000000000E+00  0.54823085845E+01  0.54823085845E+01  0.00000000000E+00 0.  1.
         21   -1    0    0  501  502  0.00000000000E+00 -0.00000000000E+00 -0.10852411384E+04  0.10852411384E+04  0.00000000000E+00 0. -1.
         24    2    1    2    0    0  0.32186413708E+02  0.96420127984E+01 -0.42483846326E+03  0.43494176062E+03  0.86934927563E+02 0.  0.
        -11    1    3    3    0    0  0.22087982473E+02 -0.51064479894E+01 -0.21618905150E+02  0.31326216507E+02  0.00000000000E+00 0.  1.
         12    1    3    3    0    0  0.10098431235E+02  0.14748460788E+02 -0.40321955811E+03  0.40361554411E+03  0.00000000000E+00 0. -1.
         -4    1    1    2    0  502 -0.32186413708E+02 -0.96420127984E+01 -0.65492036657E+03  0.65578168638E+03  0.00000000000E+00 0.  1.
<mgrwt>
<rscale>  1 0.93202013E+02</rscale>
<asrwt>0</asrwt>
<pdfrwt beam="1">  1       21 0.16695986E+00 0.93202013E+02</pdfrwt>
<pdfrwt beam="2">  1       -3 0.84343366E-03 0.93202013E+02</pdfrwt>
<totfact> 0.37679593E+04</totfact>
</mgrwt>
</event>
<event>
 6    2  0.8544106E+000  0.8422971E+02  0.7546771E-02  0.1317459E+00
         21   -1    0    0  501  502  0.00000000000E+00  0.00000000000E+00  0.23648410065E+03  0.23648410065E+03  0.00000000000E+00 0.  1.
         -1   -1    0    0    0  501 -0.00000000000E+00 -0.00000000000E+00 -0.32252835841E+02  0.32252835841E+02  0.00000000000E+00 0.  1.
         24    2    1    2    0    0 -0.21935622414E+02 -0.16900121169E+02  0.25688928701E+02  0.88060010988E+02  0.79547840016E+02 0.  0.
        -11    1    3    3    0    0  0.10587200273E+02 -0.30127401973E+02 -0.14175781952E+02  0.34938545379E+02  0.00000000000E+00 0.  1.
         12    1    3    3    0    0 -0.32522822688E+02  0.13227280804E+02  0.39864710653E+02  0.53121465609E+02  0.00000000000E+00 0. -1.
         -2    1    1    2    0  502  0.21935622414E+02  0.16900121169E+02  0.17854233611E+03  0.18067692550E+03  0.00000000000E+00 0.  1.
<mgrwt>
<rscale>  1 0.84229713E+02</rscale>
<asrwt>0</asrwt>
<pdfrwt beam="1">  1       21 0.36382168E-01 0.84229713E+02</pdfrwt>
<pdfrwt beam="2">  1       -1 0.49619749E-02 0.84229713E+02</pdfrwt>
<totfact> 0.10973294E+05</totfact>
</mgrwt>
</event>
<event>
 6    2  0.8544106E+000  0.1559570E+03  0.7546771E-02  0.1193338E+00
         21   -1    0    0  501  502  0.00000000000E+00  0.00000000000E+00  0.72737225692E+01  0.72737225692E+01  0.00000000000E+00 0. -1.
          2   -1    0    0  502    0 -0.00000000000E+00 -0.00000000000E+00 -0.32294749672E+04  0.32294749672E+04  0.00000000000E+00 0. -1.
         24    2    1    2    0    0 -0.29298814814E+02 -0.13051170701E+03 -0.22486110854E+04  0.22540129551E+04  0.80192654046E+02 0.  0.
        -11    1    3    3    0    0  0.15225865176E+02  0.26962563866E+01 -0.23915066811E+03  0.23965003406E+03  0.00000000000E+00 0.  1.
         12    1    3    3    0    0 -0.44524679990E+02 -0.13320796340E+03 -0.20094604173E+04  0.20143629210E+04  0.00000000000E+00 0. -1.
          1    1    1    2  501    0  0.29298814814E+02  0.13051170701E+03 -0.97359015919E+03  0.98273573472E+03  0.00000000000E+00 0. -1.
<mgrwt>
<rscale>  1 0.15595701E+03</rscale>
<asrwt>0</asrwt>
<pdfrwt beam="1">  1       21 0.11190345E-02 0.15595701E+03</pdfrwt>
<pdfrwt beam="2">  1        2 0.49684221E+00 0.15595701E+03</pdfrwt>
<totfact> 0.63598814E+04</totfact>
</mgrwt>
</event>
<event>
 6    2  0.8544106E+000  0.8399239E+02  0.7546771E-02  0.1318089E+00
         21   -1    0    0  501  502  0.00000000000E+00  0.00000000000E+00  0.21092902762E+01  0.21092902762E+01  0.00000000000E+00 0.  1.
          2   -1    0    0  502    0 -0.00000000000E+00 -0.00000000000E+00 -0.17643933787E+04  0.17643933787E+04  0.00000000000E+00 0. -1.
         24    2    1    2    0    0  0.20348241440E+01 -0.25672624056E+02 -0.92031710653E+03  0.92414192515E+03  0.79946839328E+02 0.  0.
        -11    1    3    3    0    0 -0.37264104004E+02 -0.24535293808E+02 -0.50673994971E+03  0.50870027592E+03  0.00000000000E+00 0.  1.
         12    1    3    3    0    0  0.39298928148E+02 -0.11373302477E+01 -0.41357715682E+03  0.41544164923E+03  0.00000000000E+00 0. -1.
          1    1    1    2  501    0 -0.20348241440E+01  0.25672624056E+02 -0.84196698187E+03  0.84236074380E+03  0.00000000000E+00 0. -1.
<mgrwt>
<rscale>  1 0.83992388E+02</rscale>
<asrwt>0</asrwt>
<pdfrwt beam="1">  1       21 0.32450544E-03 0.83992388E+02</pdfrwt>
<pdfrwt beam="2">  1        2 0.27144576E+00 0.83992388E+02</pdfrwt>
<totfact> 0.26409749E+06</totfact>
</mgrwt>
</event>
<event>
 6    2  0.8544106E+000  0.8305921E+02  0.7546771E-02  0.1320587E+00
         21   -1    0    0  501  502  0.00000000000E+00  0.00000000000E+00  0.11834549410E+02  0.11834549410E+02  0.00000000000E+00 0. -1.
          2   -1    0    0  502    0 -0.00000000000E+00 -0.00000000000E+00 -0.11177632969E+04  0.11177632969E+04  0.00000000000E+00 0. -1.
         24    2    1    2    0    0 -0.14385827611E+02 -0.15617624148E+02 -0.11052364656E+04  0.11083530475E+04  0.80299258142E+02 0.  0.
        -13    1    3    3    0    0 -0.38239538347E+02 -0.10519696118E+01 -0.27518411033E+03  0.27783027824E+03  0.00000000000E+00 0.  1.
         14    1    3    3    0    0  0.23853710736E+02 -0.14565654536E+02 -0.83005235528E+03  0.83052276929E+03  0.00000000000E+00 0. -1.
          1    1    1    2  501    0  0.14385827611E+02  0.15617624148E+02 -0.69228186805E+00  0.21244798758E+02  0.00000000000E+00 0. -1.
<mgrwt>
<rscale>  1 0.83059214E+02</rscale>
<asrwt>0</asrwt>
<pdfrwt beam="1">  1       21 0.18206995E-02 0.83059214E+02</pdfrwt>
<pdfrwt beam="2">  1        2 0.17196362E+00 0.83059214E+02</pdfrwt>
<totfact> 0.39431153E+05</totfact>
</mgrwt>
</event>
<event>
 6    2  0.8544106E+000  0.9049798E+02  0.7546771E-02  0.1301650E+00
         21   -1    0    0  501  502  0.00000000000E+00  0.00000000000E+00  0.23906879480E+01  0.23906879480E+01  0.00000000000E+00 0.  1.
          2   -1    0    0  502    0 -0.00000000000E+00 -0.00000000000E+00 -0.15881239306E+04  0.15881239306E+04  0.00000000000E+00 0. -1.
         24    2    1    2    0    0 -0.12287217284E+02 -0.29915525996E+02 -0.12220188573E+04  0.12253652402E+04  0.84522008150E+02 0.  0.
        -13    1    3    3    0    0 -0.37896038398E+02 -0.11199396863E+02 -0.27597321196E+03  0.27878800178E+03  0.00000000000E+00 0.  1.
         14    1    3    3    0    0  0.25608821114E+02 -0.18716129133E+02 -0.94604564537E+03  0.94657723844E+03  0.00000000000E+00 0. -1.
          1    1    1    2  501    0  0.12287217284E+02  0.29915525996E+02 -0.36371438533E+03  0.36514937833E+03  0.00000000000E+00 0. -1.
<mgrwt>
<rscale>  1 0.90497979E+02</rscale>
<asrwt>0</asrwt>
<pdfrwt beam="1">  1       21 0.36779768E-03 0.90497979E+02</pdfrwt>
<pdfrwt beam="2">  1        2 0.24432707E+00 0.90497979E+02</pdfrwt>
<totfact> 0.26946412E+06</totfact>
</mgrwt>
</event>
<event>
 6    2  0.8544106E+000  0.8380132E+02  0.7546771E-02  0.1318597E+00
          2   -1    0    0  502    0 -0.00000000000E+00  0.00000000000E+00  0.25919419165E+04  0.25919419165E+04  0.00000000000E+00 0. -1.
         21   -1    0    0  501  502  0.00000000000E+00 -0.00000000000E+00 -0.13904680263E+01  0.13904680263E+01  0.00000000000E+00 0. -1.
         24    2    1    2    0    0 -0.52237765727E+01  0.24907991608E+02  0.23381136244E+04  0.23396149218E+04  0.79843381994E+02 0.  0.
        -13    1    3    3    0    0  0.13649694087E+02 -0.25925547034E+02  0.91338183148E+03  0.91385163906E+03  0.00000000000E+00 0.  1.
         14    1    3    3    0    0 -0.18873470659E+02  0.50833538642E+02  0.14247317929E+04  0.14257632827E+04  0.00000000000E+00 0. -1.
          1    1    1    2  501    0  0.52237765727E+01 -0.24907991608E+02  0.25243782412E+03  0.25371746281E+03  0.00000000000E+00 0. -1.
<mgrwt>
<rscale>  1 0.83801322E+02</rscale>
<asrwt>0</asrwt>
<pdfrwt beam="1">  1       21 0.21392023E-03 0.83801322E+02</pdfrwt>
<pdfrwt beam="2">  1        2 0.39875643E+00 0.83801322E+02</pdfrwt>
<totfact> 0.18754471E+06</totfact>
</mgrwt>
</event>
<event>
 6    2  0.8544106E+000  0.6843613E+02  0.7546771E-02  0.1365493E+00
         -3   -1    0    0    0  501 -0.00000000000E+00  0.00000000000E+00  0.11109766909E+03  0.11109766909E+03  0.00000000000E+00 0.  1.
         21   -1    0    0  501  502  0.00000000000E+00 -0.00000000000E+00 -0.20695309190E+02  0.20695309190E+02  0.00000000000E+00 0. -1.
         24    2    1    2    0    0 -0.19766056735E+02 -0.10801320305E+02  0.84053651912E+02  0.10839059353E+03  0.64623051970E+02 0.  0.
        -13    1    3    3    0    0  0.15808119192E+02 -0.54494630388E+01  0.66105286025E+02  0.68187257755E+02  0.00000000000E+00 0.  1.
         14    1    3    3    0    0 -0.35574175926E+02 -0.53518572662E+01  0.17948365887E+02  0.40203335770E+02  0.00000000000E+00 0. -1.
         -4    1    1    2    0  502  0.19766056735E+02  0.10801320305E+02  0.63487079920E+01  0.23402384757E+02  0.00000000000E+00 0.  1.
<mgrwt>
<rscale>  1 0.68436133E+02</rscale>
<asrwt>0</asrwt>
<pdfrwt beam="1">  1       21 0.31838938E-02 0.68436133E+02</pdfrwt>
<pdfrwt beam="2">  1       -3 0.17091949E-01 0.68436133E+02</pdfrwt>
<totfact> 0.69961876E+05</totfact>
</mgrwt>
</event>
<event>
 6    2  0.8544106E+000  0.8406216E+02  0.7546771E-02  0.1317903E+00
         21   -1    0    0  501  502  0.00000000000E+00  0.00000000000E+00  0.18316077741E+02  0.18316077741E+02  0.00000000000E+00 0.  1.
         -1   -1    0    0    0  501 -0.00000000000E+00 -0.00000000000E+00 -0.69748285126E+03  0.69748285126E+03  0.00000000000E+00 0.  1.
         24    2    1    2    0    0 -0.22974565990E+01 -0.20312725176E+02 -0.68829637147E+03  0.69341065819E+03  0.81538707352E+02 0.  0.
        -11    1    3    3    0    0 -0.35869046265E+02 -0.10904033883E+02 -0.52980488428E+03  0.53112964692E+03  0.00000000000E+00 0.  1.
         12    1    3    3    0    0  0.33571589666E+02 -0.94086912928E+01 -0.15849148720E+03  0.16228101127E+03  0.00000000000E+00 0. -1.
         -2    1    1    2    0  502  0.22974565990E+01  0.20312725176E+02  0.91295979579E+01  0.22388270808E+02  0.00000000000E+00 0.  1.
<mgrwt>
<rscale>  1 0.84062155E+02</rscale>
<asrwt>0</asrwt>
<pdfrwt beam="1">  1       21 0.28178580E-02 0.84062155E+02</pdfrwt>
<pdfrwt beam="2">  1       -1 0.10730506E+00 0.84062155E+02</pdfrwt>
<totfact> 0.55042936E+04</totfact>
</mgrwt>
</event>
<event>
 6    2  0.8544106E+000  0.8944019E+02  0.7546771E-02  0.1304213E+00
          2   -1    0    0  502    0 -0.00000000000E+00  0.00000000000E+00  0.86899806963E+02  0.86899806963E+02  0.00000000000E+00 0. -1.
         21   -1    0    0  501  502  0.00000000000E+00 -0.00000000000E+00 -0.66929024871E+02  0.66929024871E+02  0.00000000000E+00 0.  1.
         24    2    1    2    0    0  0.70991950842E+00  0.30959401527E+02  0.56614328505E+02  0.10585239989E+03  0.83908043960E+02 0.  0.
        -13    1    3    3    0    0 -0.80203340092E+01  0.32378520991E+02 -0.12909656349E+02  0.35768052872E+02  0.00000000000E+00 0.  1.
         14    1    3    3    0    0  0.87302535176E+01 -0.14191194637E+01  0.69523984855E+02  0.70084347016E+02  0.00000000000E+00 0. -1.
          1    1    1    2  501    0 -0.70991950842E+00 -0.30959401527E+02 -0.36643546413E+02  0.47976431947E+02  0.00000000000E+00 0. -1.
<mgrwt>
<rscale>  1 0.89440194E+02</rscale>
<asrwt>0</asrwt>
<pdfrwt beam="1">  1       21 0.10296773E-01 0.89440194E+02</pdfrwt>
<pdfrwt beam="2">  1        2 0.13369201E-01 0.89440194E+02</pdfrwt>
<totfact> 0.39658761E+05</totfact>
</mgrwt>
</event>
<event>
 6    2  0.8544106E+000  0.8253068E+02  0.7546771E-02  0.1322019E+00
         -1   -1    0    0    0  501 -0.00000000000E+00  0.00000000000E+00  0.22633116472E+01  0.22633116472E+01  0.00000000000E+00 0.  1.
         21   -1    0    0  501  502  0.00000000000E+00 -0.00000000000E+00 -0.12181860069E+04  0.12181860069E+04  0.00000000000E+00 0. -1.
         24    2    1    2    0    0 -0.74946064473E+01  0.20298420816E+02 -0.89456667163E+03  0.89836565095E+03  0.79643692808E+02 0.  0.
        -11    1    3    3    0    0  0.20377032781E+02 -0.16868001393E+02 -0.14730636361E+03  0.14966267970E+03  0.00000000000E+00 0.  1.
         12    1    3    3    0    0 -0.27871639229E+02  0.37166422209E+02 -0.74726030802E+03  0.74870297125E+03  0.00000000000E+00 0. -1.
         -2    1    1    2    0  502  0.74946064473E+01 -0.20298420816E+02 -0.32135602358E+03  0.32208366755E+03  0.00000000000E+00 0.  1.
<mgrwt>
<rscale>  1 0.82530678E+02</rscale>
<asrwt>0</asrwt>
<pdfrwt beam="1">  1       21 0.18741286E+00 0.82530678E+02</pdfrwt>
<pdfrwt beam="2">  1       -1 0.34820249E-03 0.82530678E+02</pdfrwt>
<totfact> 0.11713724E+05</totfact>
</mgrwt>
</event>
<event>
 6    2  0.8544106E+000  0.8810241E+02  0.7546771E-02  0.1307513E+00
         21   -1    0    0  501  502  0.00000000000E+00  0.00000000000E+00  0.11472604670E+04  0.11472604670E+04  0.00000000000E+00 0.  1.
          2   -1    0    0  502    0 -0.00000000000E+00 -0.00000000000E+00 -0.34987309414E+01  0.34987309414E+01  0.00000000000E+00 0. -1.
         24    2    1    2    0    0  0.15672762813E+02 -0.35145769944E+02  0.77188822897E+03  0.77689991169E+03  0.79253858760E+02 0.  0.
        -13    1    3    3    0    0  0.67719676968E+01 -0.60681508938E+02  0.53274129067E+03  0.53622885772E+03  0.00000000000E+00 0.  1.
         14    1    3    3    0    0  0.89007951164E+01  0.25535738994E+02  0.23914693830E+03  0.24067105397E+03  0.00000000000E+00 0. -1.
          1    1    1    2  501    0 -0.15672762813E+02  0.35145769944E+02  0.37187350708E+03  0.37385928624E+03  0.00000000000E+00 0. -1.
<mgrwt>
<rscale>  1 0.88102411E+02</rscale>
<asrwt>0</asrwt>
<pdfrwt beam="1">  1       21 0.17650131E+00 0.88102411E+02</pdfrwt>
<pdfrwt beam="2">  1        2 0.53826721E-03 0.88102411E+02</pdfrwt>
<totfact> 0.77150607E+04</totfact>
</mgrwt>
</event>
<event>
 6    2  0.8544106E+000  0.9038213E+02  0.7546771E-02  0.1301929E+00
         21   -1    0    0  501  502  0.00000000000E+00  0.00000000000E+00  0.69912549604E+01  0.69912549604E+01  0.00000000000E+00 0. -1.
          2   -1    0    0  502    0 -0.00000000000E+00 -0.00000000000E+00 -0.72761860629E+03  0.72761860629E+03  0.00000000000E+00 0. -1.
         24    2    1    2    0    0 -0.92517595531E+01 -0.41006989621E+02 -0.60215738387E+03  0.60890265604E+03  0.80011007541E+02 0.  0.
        -11    1    3    3    0    0  0.50779572145E+01  0.18534564218E+02 -0.53670043626E+02  0.57006923291E+02  0.00000000000E+00 0.  1.
         12    1    3    3    0    0 -0.14329716768E+02 -0.59541553839E+02 -0.54848734025E+03  0.55189573275E+03  0.00000000000E+00 0. -1.
          1    1    1    2  501    0  0.92517595531E+01  0.41006989621E+02 -0.11846996746E+03  0.12570720521E+03  0.00000000000E+00 0. -1.
<mgrwt>
<rscale>  1 0.90382131E+02</rscale>
<asrwt>0</asrwt>
<pdfrwt beam="1">  1       21 0.10755780E-02 0.90382131E+02</pdfrwt>
<pdfrwt beam="2">  1        2 0.11194129E+00 0.90382131E+02</pdfrwt>
<totfact> 0.15843724E+06</totfact>
</mgrwt>
</event>
<event>
 6    2  0.8544106E+000  0.7195160E+02  0.7546771E-02  0.1353580E+00
         21   -1    0    0  501  502  0.00000000000E+00  0.00000000000E+00  0.40085870980E+02  0.40085870980E+02  0.00000000000E+00 0.  1.
         -3   -1    0    0    0  501 -0.00000000000E+00 -0.00000000000E+00 -0.69398947977E+02  0.69398947977E+02  0.00000000000E+00 0.  1.
         24    2    1    2    0    0 -0.30073443333E+02 -0.82620115581E+01 -0.30788685372E+02  0.78262226993E+02  0.64841037916E+02 0.  0.
        -11    1    3    3    0    0  0.46739744770E+01 -0.16657321537E+02 -0.38037790322E+02  0.41787389136E+02  0.00000000000E+00 0.  1.
         12    1    3    3    0    0 -0.34747417810E+02  0.83953099786E+01  0.72491049504E+01  0.36474837857E+02  0.00000000000E+00 0. -1.
         -4    1    1    2    0  502  0.30073443333E+02  0.82620115581E+01  0.14756083756E+01  0.31222591964E+02  0.00000000000E+00 0.  1.
<mgrwt>
<rscale>  1 0.71951602E+02</rscale>
<asrwt>0</asrwt>
<pdfrwt beam="1">  1       21 0.61670571E-02 0.71951602E+02</pdfrwt>
<pdfrwt beam="2">  1       -3 0.10676761E-01 0.71951602E+02</pdfrwt>
<totfact> 0.52264549E+05</totfact>
</mgrwt>
</event>
<event>
 6    2  0.8544106E+000  0.9535662E+02  0.7546771E-02  0.1290375E+00
         21   -1    0    0  501  502  0.00000000000E+00  0.00000000000E+00  0.29639553547E+02  0.29639553547E+02  0.00000000000E+00 0. -1.
          2   -1    0    0  502    0 -0.00000000000E+00 -0.00000000000E+00 -0.31962476729E+03  0.31962476729E+03  0.00000000000E+00 0. -1.
         24    2    1    2    0    0  0.39830694216E+02  0.30298279453E+02 -0.28312475814E+03  0.29875159184E+03  0.81169052098E+02 0.  0.
        -11    1    3    3    0    0 -0.23638085112E+02  0.10639332777E+02 -0.49692567977E+02  0.56047353032E+02  0.00000000000E+00 0.  1.
         12    1    3    3    0    0  0.63468779327E+02  0.19658946675E+02 -0.23343219016E+03  0.24270423881E+03  0.00000000000E+00 0. -1.
          1    1    1    2  501    0 -0.39830694216E+02 -0.30298279453E+02 -0.68604556063E+01  0.50512728996E+02  0.00000000000E+00 0. -1.
<mgrwt>
<rscale>  1 0.95356620E+02</rscale>
<asrwt>0</asrwt>
<pdfrwt beam="1">  1       21 0.45599313E-02 0.95356620E+02</pdfrwt>
<pdfrwt beam="2">  1        2 0.49173041E-01 0.95356620E+02</pdfrwt>
<totfact> 0.38137108E+05</totfact>
</mgrwt>
</event>
<event>
 6    2  0.8544106E+000  0.8503195E+02  0.7546771E-02  0.1315349E+00
         21   -1    0    0  501  502  0.00000000000E+00  0.00000000000E+00  0.11577417419E+02  0.11577417419E+02  0.00000000000E+00 0. -1.
          2   -1    0    0  502    0 -0.00000000000E+00 -0.00000000000E+00 -0.82190245511E+03  0.82190245511E+03  0.00000000000E+00 0. -1.
         24    2    1    2    0    0 -0.13911103111E+02 -0.26008020506E+02 -0.79628814547E+03  0.80081536176E+03  0.79752724747E+02 0.  0.
        -13    1    3    3    0    0 -0.40143156894E+01 -0.11498251133E+02 -0.14963285325E+02  0.19293118392E+02  0.00000000000E+00 0.  1.
         14    1    3    3    0    0 -0.98967874219E+01 -0.14509769373E+02 -0.78132486014E+03  0.78152224337E+03  0.00000000000E+00 0. -1.
          1    1    1    2  501    0  0.13911103111E+02  0.26008020506E+02 -0.14036892227E+02  0.32664510769E+02  0.00000000000E+00 0. -1.
<mgrwt>
<rscale>  1 0.85031953E+02</rscale>
<asrwt>0</asrwt>
<pdfrwt beam="1">  1       21 0.17811415E-02 0.85031953E+02</pdfrwt>
<pdfrwt beam="2">  1        2 0.12644651E+00 0.85031953E+02</pdfrwt>
<totfact> 0.61384489E+05</totfact>
</mgrwt>
</event>
<event>
 6    2  0.8544106E+000  0.8278213E+02  0.7546771E-02  0.1321337E+00
         21   -1    0    0  501  502  0.00000000000E+00  0.00000000000E+00  0.15299559379E+02  0.15299559379E+02  0.00000000000E+00 0. -1.
          2   -1    0    0  502    0 -0.00000000000E+00 -0.00000000000E+00 -0.70056222813E+03  0.70056222813E+03  0.00000000000E+00 0. -1.
         24    2    1    2    0    0  0.13816532263E+02  0.39589734602E+02 -0.66345294292E+03  0.66859755378E+03  0.71376731500E+02 0.  0.
        -13    1    3    3    0    0 -0.72789210640E+01 -0.18926228951E+02 -0.18894015925E+03  0.19002517889E+03  0.00000000000E+00 0.  1.
         14    1    3    3    0    0  0.21095453327E+02  0.58515963553E+02 -0.47451278367E+03  0.47857237489E+03  0.00000000000E+00 0. -1.
          1    1    1    2  501    0 -0.13816532263E+02 -0.39589734602E+02 -0.21809725837E+02  0.47264233736E+02  0.00000000000E+00 0. -1.
<mgrwt>
<rscale>  1 0.82782132E+02</rscale>
<asrwt>0</asrwt>
<pdfrwt beam="1">  1       21 0.23537784E-02 0.82782132E+02</pdfrwt>
<pdfrwt beam="2">  1        2 0.10777880E+00 0.82782132E+02</pdfrwt>
<totfact> 0.47486417E+05</totfact>
</mgrwt>
</event>
<event>
 6    2  0.8544106E+000  0.9605361E+02  0.7546771E-02  0.1288821E+00
          2   -1    0    0  502    0 -0.00000000000E+00  0.00000000000E+00  0.27362294514E+03  0.27362294514E+03  0.00000000000E+00 0. -1.
         21   -1    0    0  501  502  0.00000000000E+00 -0.00000000000E+00 -0.22268380792E+02  0.22268380792E+02  0.00000000000E+00 0.  1.
         24    2    1    2    0    0 -0.22546517270E+02  0.48051706408E+02  0.20079362691E+03  0.22258566227E+03  0.80056133509E+02 0.  0.
        -13    1    3    3    0    0 -0.44547956026E+02  0.37738563122E+02  0.78108773808E+02  0.97517691105E+02  0.00000000000E+00 0.  1.
         14    1    3    3    0    0  0.22001438757E+02  0.10313143287E+02  0.12268485310E+03  0.12506797116E+03  0.00000000000E+00 0. -1.
          1    1    1    2  501    0  0.22546517270E+02 -0.48051706408E+02  0.50560937441E+02  0.73305663660E+02  0.00000000000E+00 0. -1.
<mgrwt>
<rscale>  1 0.96053612E+02</rscale>
<asrwt>0</asrwt>
<pdfrwt beam="1">  1       21 0.34259049E-02 0.96053612E+02</pdfrwt>
<pdfrwt beam="2">  1        2 0.42095835E-01 0.96053612E+02</pdfrwt>
<totfact> 0.71931804E+05</totfact>
</mgrwt>
</event>
<event>
 6    2  0.8925968E+000  0.8322842E+02  0.7546771E-02  0.1320131E+00
         21   -1    0    0  501  502  0.00000000000E+00  0.00000000000E+00  0.10232784504E+02  0.10232784504E+02  0.00000000000E+00 0. -1.
         -1   -1    0    0    0  501 -0.00000000000E+00 -0.00000000000E+00 -0.30414937182E+03  0.30414937182E+03  0.00000000000E+00 0.  1.
         24    2    1    2    0    0 -0.21546040030E+02 -0.15136461114E+02 -0.19495584915E+03  0.21197819158E+03  0.78953317179E+02 0.  0.
        -13    1    3    3    0    0  0.14495498807E+02  0.10920539798E+02 -0.14050720983E+03  0.14167446379E+03  0.00000000000E+00 0.  1.
         14    1    3    3    0    0 -0.36041538837E+02 -0.26057000912E+02 -0.54448639315E+02  0.70303727792E+02  0.00000000000E+00 0. -1.
         -2    1    1    2    0  502  0.21546040030E+02  0.15136461114E+02 -0.98960738166E+02  0.10240396474E+03  0.00000000000E+00 0.  1.
<mgrwt>
<rscale>  1 0.83228424E+02</rscale>
<asrwt>0</asrwt>
<pdfrwt beam="1">  1       21 0.15742748E-02 0.83228424E+02</pdfrwt>
<pdfrwt beam="2">  1       -1 0.46792205E-01 0.83228424E+02</pdfrwt>
<totfact> 0.71640034E+05</totfact>
</mgrwt>
</event>
<event>
 6    2  0.8544106E+000  0.1309998E+03  0.7546771E-02  0.1225980E+00
          2   -1    0    0  502    0 -0.00000000000E+00  0.00000000000E+00  0.10860089629E+04  0.10860089629E+04  0.00000000000E+00 0. -1.
         21   -1    0    0  501  502  0.00000000000E+00 -0.00000000000E+00 -0.16125277149E+02  0.16125277149E+02  0.00000000000E+00 0. -1.
         24    2    1    2    0    0 -0.18797395312E+01  0.10372381001E+03  0.83699678902E+03  0.84718626721E+03  0.79992401768E+02 0.  0.
        -13    1    3    3    0    0 -0.81697371775E+01 -0.27386343618E+00  0.72571605014E+01  0.10930964517E+02  0.00000000000E+00 0.  1.
         14    1    3    3    0    0  0.62899976464E+01  0.10399767344E+03  0.82973962852E+03  0.83625530270E+03  0.00000000000E+00 0. -1.
          1    1    1    2  501    0  0.18797395312E+01 -0.10372381001E+03  0.23288689671E+03  0.25494797281E+03  0.00000000000E+00 0. -1.
<mgrwt>
<rscale>  1 0.13099980E+03</rscale>
<asrwt>0</asrwt>
<pdfrwt beam="1">  1       21 0.24808127E-02 0.13099980E+03</pdfrwt>
<pdfrwt beam="2">  1        2 0.16707824E+00 0.13099980E+03</pdfrwt>
<totfact> 0.25463757E+05</totfact>
</mgrwt>
</event>
<event>
 6    2  0.8544106E+000  0.9107606E+02  0.7546771E-02  0.1300267E+00
         21   -1    0    0  501  502  0.00000000000E+00  0.00000000000E+00  0.11557358680E+02  0.11557358680E+02  0.00000000000E+00 0.  1.
          2   -1    0    0  502    0 -0.00000000000E+00 -0.00000000000E+00 -0.36376524119E+03  0.36376524119E+03  0.00000000000E+00 0. -1.
         24    2    1    2    0    0 -0.38452545164E+02  0.33377762825E+01 -0.24573409774E+03  0.26206887665E+03  0.82493092657E+02 0.  0.
        -13    1    3    3    0    0 -0.52164104708E+02 -0.20036502035E+02 -0.20948611562E+03  0.21681094961E+03  0.00000000000E+00 0.  1.
         14    1    3    3    0    0  0.13711559544E+02  0.23374278318E+02 -0.36247982120E+02  0.45257927039E+02  0.00000000000E+00 0. -1.
          1    1    1    2  501    0  0.38452545164E+02 -0.33377762825E+01 -0.10647378477E+03  0.11325372322E+03  0.00000000000E+00 0. -1.
<mgrwt>
<rscale>  1 0.91076063E+02</rscale>
<asrwt>0</asrwt>
<pdfrwt beam="1">  1       21 0.17780555E-02 0.91076063E+02</pdfrwt>
<pdfrwt beam="2">  1        2 0.55963875E-01 0.91076063E+02</pdfrwt>
<totfact> 0.15311923E+06</totfact>
</mgrwt>
</event>
<event>
 6    2  0.8544106E+000  0.9152732E+02  0.7546771E-02  0.1299195E+00
          2   -1    0    0  502    0 -0.00000000000E+00  0.00000000000E+00  0.97894128037E+03  0.97894128037E+03  0.00000000000E+00 0. -1.
         21   -1    0    0  501  502  0.00000000000E+00 -0.00000000000E+00 -0.68045898068E+01  0.68045898068E+01  0.00000000000E+00 0.  1.
         24    2    1    2    0    0 -0.60811535551E+01  0.42837693734E+02  0.87028983217E+03  0.87508950570E+03  0.80654836107E+02 0.  0.
        -11    1    3    3    0    0 -0.36672986488E+02  0.15846410142E+02  0.22558861363E+03  0.22909875437E+03  0.00000000000E+00 0.  1.
         12    1    3    3    0    0  0.30591832933E+02  0.26991283592E+02  0.64470121853E+03  0.64599075134E+03  0.00000000000E+00 0. -1.
          1    1    1    2  501    0  0.60811535551E+01 -0.42837693734E+02  0.10184685839E+03  0.11065636447E+03  0.00000000000E+00 0. -1.
<mgrwt>
<rscale>  1 0.91527324E+02</rscale>
<asrwt>0</asrwt>
<pdfrwt beam="1">  1       21 0.10468607E-02 0.91527324E+02</pdfrwt>
<pdfrwt beam="2">  1        2 0.15060624E+00 0.91527324E+02</pdfrwt>
<totfact> 0.11416266E+06</totfact>
</mgrwt>
</event>
<event>
 6    2  0.8544106E+000  0.9502395E+02  0.7546771E-02  0.1291122E+00
         21   -1    0    0  501  502  0.00000000000E+00  0.00000000000E+00  0.19353547192E+02  0.19353547192E+02  0.00000000000E+00 0. -1.
          2   -1    0    0  502    0 -0.00000000000E+00 -0.00000000000E+00 -0.25300628628E+03  0.25300628628E+03  0.00000000000E+00 0. -1.
         24    2    1    2    0    0 -0.17293906726E+02  0.35629841173E+02 -0.12717278717E+03  0.15875285767E+03  0.86377006363E+02 0.  0.
        -13    1    3    3    0    0 -0.34754745314E+02  0.55240158117E+02 -0.10819699108E+03  0.12635646509E+03  0.00000000000E+00 0.  1.
         14    1    3    3    0    0  0.17460838588E+02 -0.19610316944E+02 -0.18975796094E+02  0.32396392581E+02  0.00000000000E+00 0. -1.
          1    1    1    2  501    0  0.17293906726E+02 -0.35629841173E+02 -0.10647995191E+03  0.11360697580E+03  0.00000000000E+00 0. -1.
<mgrwt>
<rscale>  1 0.95023955E+02</rscale>
<asrwt>0</asrwt>
<pdfrwt beam="1">  1       21 0.29774690E-02 0.95023955E+02</pdfrwt>
<pdfrwt beam="2">  1        2 0.38924042E-01 0.95023955E+02</pdfrwt>
<totfact> 0.98094754E+05</totfact>
</mgrwt>
</event>
<event>
 6    2  0.8544106E+000  0.8464779E+02  0.7546771E-02  0.1316356E+00
         -1   -1    0    0    0  501 -0.00000000000E+00  0.00000000000E+00  0.65421526694E+03  0.65421526694E+03  0.00000000000E+00 0.  1.
         21   -1    0    0  501  502  0.00000000000E+00 -0.00000000000E+00 -0.13979558172E+02  0.13979558172E+02  0.00000000000E+00 0.  1.
         24    2    1    2    0    0  0.11661503065E+02  0.23387879408E+02  0.63613374888E+03  0.64174090987E+03  0.80512516874E+02 0.  0.
        -11    1    3    3    0    0 -0.21373228213E+02  0.34880093138E+02  0.47987478927E+03  0.48161525013E+03  0.00000000000E+00 0.  1.
         12    1    3    3    0    0  0.33034731277E+02 -0.11492213730E+02  0.15625895962E+03  0.16012565974E+03  0.00000000000E+00 0. -1.
         -2    1    1    2    0  502 -0.11661503065E+02 -0.23387879408E+02  0.41019598876E+01  0.26453915246E+02  0.00000000000E+00 0.  1.
<mgrwt>
<rscale>  1 0.84647793E+02</rscale>
<asrwt>0</asrwt>
<pdfrwt beam="1">  1       21 0.21507018E-02 0.84647793E+02</pdfrwt>
<pdfrwt beam="2">  1       -1 0.10064848E+00 0.84647793E+02</pdfrwt>
<totfact> 0.97963850E+04</totfact>
</mgrwt>
</event>
<event>
 6    2  0.8544106E+000  0.8479778E+02  0.7546771E-02  0.1315962E+00
         21   -1    0    0  501  502  0.00000000000E+00  0.00000000000E+00  0.78744018566E+02  0.78744018566E+02  0.00000000000E+00 0.  1.
          2   -1    0    0  502    0 -0.00000000000E+00 -0.00000000000E+00 -0.37084822264E+02  0.37084822264E+02  0.00000000000E+00 0. -1.
         24    2    1    2    0    0 -0.23129668578E+02 -0.12717576215E+01  0.34894253137E+02  0.91696634300E+02  0.81572451869E+02 0.  0.
        -13    1    3    3    0    0 -0.11197419711E+02 -0.17564593846E+02  0.57634714389E+02  0.61283419192E+02  0.00000000000E+00 0.  1.
         14    1    3    3    0    0 -0.11932248867E+02  0.16292836224E+02 -0.22740461252E+02  0.30413215108E+02  0.00000000000E+00 0. -1.
          1    1    1    2  501    0  0.23129668578E+02  0.12717576215E+01  0.67649431655E+01  0.24132206530E+02  0.00000000000E+00 0. -1.
<mgrwt>
<rscale>  1 0.84797782E+02</rscale>
<asrwt>0</asrwt>
<pdfrwt beam="1">  1       21 0.12114464E-01 0.84797782E+02</pdfrwt>
<pdfrwt beam="2">  1        2 0.57053573E-02 0.84797782E+02</pdfrwt>
<totfact> 0.84380358E+05</totfact>
</mgrwt>
</event>
<event>
 6    2  0.8544106E+000  0.9271688E+02  0.7546771E-02  0.1296403E+00
          2   -1    0    0  502    0 -0.00000000000E+00  0.00000000000E+00  0.98547395732E+01  0.98547395732E+01  0.00000000000E+00 0. -1.
         21   -1    0    0  501  502  0.00000000000E+00 -0.00000000000E+00 -0.82066528166E+03  0.82066528166E+03  0.00000000000E+00 0. -1.
         24    2    1    2    0    0  0.76634804472E+01  0.45839019113E+02 -0.23191441287E+03  0.24976131658E+03  0.80227649587E+02 0.  0.
        -13    1    3    3    0    0 -0.16776385902E+01 -0.27144466342E+01 -0.17221870430E+03  0.17224826502E+03  0.00000000000E+00 0.  1.
         14    1    3    3    0    0  0.93411190374E+01  0.48553465747E+02 -0.59695708575E+02  0.77513051566E+02  0.00000000000E+00 0. -1.
          1    1    1    2  501    0 -0.76634804472E+01 -0.45839019113E+02 -0.57889612922E+03  0.58075870465E+03  0.00000000000E+00 0. -1.
<mgrwt>
<rscale>  1 0.92716883E+02</rscale>
<asrwt>0</asrwt>
<pdfrwt beam="1">  1       21 0.12625623E+00 0.92716883E+02</pdfrwt>
<pdfrwt beam="2">  1        2 0.15161134E-02 0.92716883E+02</pdfrwt>
<totfact> 0.44000830E+04</totfact>
</mgrwt>
</event>
<event>
 6    2  0.8544106E+000  0.1005925E+03  0.7546771E-02  0.1279055E+00
          2   -1    0    0  502    0 -0.00000000000E+00  0.00000000000E+00  0.18640362139E+04  0.18640362139E+04  0.00000000000E+00 0. -1.
         21   -1    0    0  501  502  0.00000000000E+00 -0.00000000000E+00 -0.83013269804E+01  0.83013269804E+01  0.00000000000E+00 0. -1.
         24    2    1    2    0    0  0.57637319160E+02  0.14701955301E+02  0.17333159056E+04  0.17362323792E+04  0.81121131125E+02 0.  0.
        -11    1    3    3    0    0 -0.14026362248E+02 -0.12166234428E+02  0.16331422722E+03  0.16436633752E+03  0.00000000000E+00 0.  1.
         12    1    3    3    0    0  0.71663681408E+02  0.26868189728E+02  0.15700016784E+04  0.15718660417E+04  0.00000000000E+00 0. -1.
          1    1    1    2  501    0 -0.57637319160E+02 -0.14701955301E+02  0.12241898132E+03  0.13610516168E+03  0.00000000000E+00 0. -1.
<mgrwt>
<rscale>  1 0.10059247E+03</rscale>
<asrwt>0</asrwt>
<pdfrwt beam="1">  1       21 0.12771287E-02 0.10059247E+03</pdfrwt>
<pdfrwt beam="2">  1        2 0.28677447E+00 0.10059247E+03</pdfrwt>
<totfact> 0.28623810E+05</totfact>
</mgrwt>
</event>
<event>
 6    2  0.8544106E+000  0.9148238E+02  0.7546771E-02  0.1299301E+00
         21   -1    0    0  501  502  0.00000000000E+00  0.00000000000E+00  0.34970387351E+01  0.34970387351E+01  0.00000000000E+00 0. -1.
          2   -1    0    0  502    0 -0.00000000000E+00 -0.00000000000E+00 -0.13504115689E+04  0.13504115689E+04  0.00000000000E+00 0. -1.
         24    2    1    2    0    0  0.42136138272E+02  0.10015068363E+02 -0.78110831209E+03  0.78644721498E+03  0.80580835125E+02 0.  0.
        -11    1    3    3    0    0  0.77349233361E+01 -0.18091011086E+02 -0.46425742502E+02  0.50422844902E+02  0.00000000000E+00 0.  1.
         12    1    3    3    0    0  0.34401214936E+02  0.28106079449E+02 -0.73468256959E+03  0.73602437008E+03  0.00000000000E+00 0. -1.
          1    1    1    2  501    0 -0.42136138272E+02 -0.10015068363E+02 -0.56580621807E+03  0.56746139265E+03  0.00000000000E+00 0. -1.
<mgrwt>
<rscale>  1 0.91482385E+02</rscale>
<asrwt>0</asrwt>
<pdfrwt beam="1">  1       21 0.53800579E-03 0.91482385E+02</pdfrwt>
<pdfrwt beam="2">  1        2 0.20775569E+00 0.91482385E+02</pdfrwt>
<totfact> 0.19980485E+06</totfact>
</mgrwt>
</event>
<event>
 6    2  0.8544106E+000  0.8286198E+02  0.7546771E-02  0.1321120E+00
         21   -1    0    0  501  502  0.00000000000E+00  0.00000000000E+00  0.10677479857E+03  0.10677479857E+03  0.00000000000E+00 0.  1.
         -3   -1    0    0    0  501 -0.00000000000E+00 -0.00000000000E+00 -0.33592422166E+02  0.33592422166E+02  0.00000000000E+00 0.  1.
         24    2    1    2    0    0 -0.21035769505E+02  0.10724235026E+02  0.24739406380E+02  0.86476273813E+02  0.79426663590E+02 0.  0.
        -11    1    3    3    0    0 -0.26817104503E+02  0.20435575412E+02 -0.20759597089E+02  0.39594579271E+02  0.00000000000E+00 0.  1.
         12    1    3    3    0    0  0.57813349983E+01 -0.97113403857E+01  0.45499003469E+02  0.46881694542E+02  0.00000000000E+00 0. -1.
         -4    1    1    2    0  502  0.21035769505E+02 -0.10724235026E+02  0.48442970027E+02  0.53890946926E+02  0.00000000000E+00 0.  1.
<mgrwt>
<rscale>  1 0.82861980E+02</rscale>
<asrwt>0</asrwt>
<pdfrwt beam="1">  1       21 0.16426892E-01 0.82861980E+02</pdfrwt>
<pdfrwt beam="2">  1       -3 0.51680650E-02 0.82861980E+02</pdfrwt>
<totfact> 0.31446374E+05</totfact>
</mgrwt>
</event>
<event>
 6    2  0.8544106E+000  0.8733917E+02  0.7546771E-02  0.1309426E+00
         21   -1    0    0  501  502  0.00000000000E+00  0.00000000000E+00  0.35255994699E+02  0.35255994699E+02  0.00000000000E+00 0.  1.
          2   -1    0    0  502    0 -0.00000000000E+00 -0.00000000000E+00 -0.11294374458E+03  0.11294374458E+03  0.00000000000E+00 0. -1.
         24    2    1    2    0    0  0.23649254347E+02 -0.28683854837E+02 -0.65167275842E+02  0.10897203186E+03  0.79032139837E+02 0.  0.
        -13    1    3    3    0    0 -0.31031756872E+01 -0.40892871035E+02 -0.41270169202E+01  0.41217579617E+02  0.00000000000E+00 0.  1.
         14    1    3    3    0    0  0.26752430034E+02  0.12209016198E+02 -0.61040258922E+02  0.67754452241E+02  0.00000000000E+00 0. -1.
          1    1    1    2  501    0 -0.23649254347E+02  0.28683854837E+02 -0.12520474041E+02  0.39227707423E+02  0.00000000000E+00 0. -1.
<mgrwt>
<rscale>  1 0.87339166E+02</rscale>
<asrwt>0</asrwt>
<pdfrwt beam="1">  1       21 0.54239993E-02 0.87339166E+02</pdfrwt>
<pdfrwt beam="2">  1        2 0.17375960E-01 0.87339166E+02</pdfrwt>
<totfact> 0.87007344E+05</totfact>
</mgrwt>
</event>
<event>
 6    2  0.8544106E+000  0.2654199E+03  0.7546771E-02  0.1103930E+00
          2   -1    0    0  502    0 -0.00000000000E+00  0.00000000000E+00  0.14697524271E+04  0.14697524271E+04  0.00000000000E+00 0. -1.
         21   -1    0    0  501  502  0.00000000000E+00 -0.00000000000E+00 -0.53552498135E+02  0.53552498135E+02  0.00000000000E+00 0. -1.
         24    2    1    2    0    0 -0.76888404898E+02  0.24149535436E+03  0.43221661945E+03  0.50720700358E+03  0.78841013215E+02 0.  0.
        -11    1    3    3    0    0  0.66383726989E+01  0.88397898875E+02  0.11489217271E+03  0.14511536055E+03  0.00000000000E+00 0.  1.
         12    1    3    3    0    0 -0.83526777597E+02  0.15309745549E+03  0.31732444674E+03  0.36209164303E+03  0.00000000000E+00 0. -1.
          1    1    1    2  501    0  0.76888404898E+02 -0.24149535436E+03  0.98398330951E+03  0.10160979216E+04  0.00000000000E+00 0. -1.
<mgrwt>
<rscale>  1 0.26541993E+03</rscale>
<asrwt>0</asrwt>
<pdfrwt beam="1">  1       21 0.82388470E-02 0.26541993E+03</pdfrwt>
<pdfrwt beam="2">  1        2 0.22611573E+00 0.26541993E+03</pdfrwt>
<totfact> 0.20380007E+04</totfact>
</mgrwt>
</event>
<event>
 6    2  0.8544106E+000  0.8514838E+02  0.7546771E-02  0.1315045E+00
         21   -1    0    0  501  502  0.00000000000E+00  0.00000000000E+00  0.27960643142E+01  0.27960643142E+01  0.00000000000E+00 0.  1.
          2   -1    0    0  502    0 -0.00000000000E+00 -0.00000000000E+00 -0.18514520472E+04  0.18514520472E+04  0.00000000000E+00 0. -1.
         24    2    1    2    0    0 -0.27456838293E+02  0.67291251288E+01 -0.17364286348E+04  0.17385150706E+04  0.80318665049E+02 0.  0.
        -11    1    3    3    0    0 -0.11250181083E+02 -0.36661127913E+02 -0.87934490528E+03  0.88018070151E+03  0.00000000000E+00 0.  1.
         12    1    3    3    0    0 -0.16206657210E+02  0.43390253041E+02 -0.85708372951E+03  0.85833436911E+03  0.00000000000E+00 0. -1.
          1    1    1    2  501    0  0.27456838293E+02 -0.67291251288E+01 -0.11222734805E+03  0.11573304085E+03  0.00000000000E+00 0. -1.
<mgrwt>
<rscale>  1 0.85148383E+02</rscale>
<asrwt>0</asrwt>
<pdfrwt beam="1">  1       21 0.43016121E-03 0.85148383E+02</pdfrwt>
<pdfrwt beam="2">  1        2 0.28484045E+00 0.85148383E+02</pdfrwt>
<totfact> 0.15588472E+06</totfact>
</mgrwt>
</event>
<event>
 6    2  0.8544106E+000  0.8515369E+02  0.7546771E-02  0.1315031E+00
          4   -1    0    0  502    0 -0.00000000000E+00  0.00000000000E+00  0.63022672903E+02  0.63022672903E+02  0.00000000000E+00 0. -1.
         21   -1    0    0  501  502  0.00000000000E+00 -0.00000000000E+00 -0.61344476809E+02  0.61344476809E+02  0.00000000000E+00 0.  1.
         24    2    1    2    0    0 -0.12937264069E+02 -0.22790942145E+02  0.25564075741E+02  0.88908228523E+02  0.81020684304E+02 0.  0.
        -13    1    3    3    0    0 -0.18889298545E+02 -0.41603062775E+01 -0.26777118288E+02  0.33032223837E+02  0.00000000000E+00 0.  1.
         14    1    3    3    0    0  0.59520344752E+01 -0.18630635867E+02  0.52341194029E+02  0.55876004686E+02  0.00000000000E+00 0. -1.
          3    1    1    2  501    0  0.12937264069E+02  0.22790942145E+02 -0.23885879647E+02  0.35458921190E+02  0.00000000000E+00 0. -1.
<mgrwt>
<rscale>  1 0.85153691E+02</rscale>
<asrwt>0</asrwt>
<pdfrwt beam="1">  1       21 0.94376117E-02 0.85153691E+02</pdfrwt>
<pdfrwt beam="2">  1        4 0.96957959E-02 0.85153691E+02</pdfrwt>
<totfact> 0.26465969E+05</totfact>
</mgrwt>
</event>
<event>
 6    2  0.8544106E+000  0.7983469E+02  0.7546771E-02  0.1329521E+00
          2   -1    0    0  502    0 -0.00000000000E+00  0.00000000000E+00  0.15516308589E+04  0.15516308589E+04  0.00000000000E+00 0. -1.
         21   -1    0    0  501  502  0.00000000000E+00 -0.00000000000E+00 -0.16502669698E+01  0.16502669698E+01  0.00000000000E+00 0. -1.
         24    2    1    2    0    0 -0.31879943133E+01 -0.20149923479E+02  0.13125606891E+04  0.13149863652E+04  0.77184164503E+02 0.  0.
        -11    1    3    3    0    0  0.11937077591E+02  0.27155338775E+02  0.42127924661E+03  0.42232228199E+03  0.00000000000E+00 0.  1.
         12    1    3    3    0    0 -0.15125071905E+02 -0.47305262254E+02  0.89128144254E+03  0.89266408321E+03  0.00000000000E+00 0. -1.
          1    1    1    2  501    0  0.31879943133E+01  0.20149923479E+02  0.23741990276E+03  0.23829476064E+03  0.00000000000E+00 0. -1.
<mgrwt>
<rscale>  1 0.79834692E+02</rscale>
<asrwt>0</asrwt>
<pdfrwt beam="1">  1       21 0.25388847E-03 0.79834692E+02</pdfrwt>
<pdfrwt beam="2">  1        2 0.23871127E+00 0.79834692E+02</pdfrwt>
<totfact> 0.48658246E+06</totfact>
</mgrwt>
</event>
<event>
 6    2  0.8544106E+000  0.8464311E+02  0.7546771E-02  0.1316368E+00
         21   -1    0    0  501  502  0.00000000000E+00  0.00000000000E+00  0.43220030144E+02  0.43220030144E+02  0.00000000000E+00 0.  1.
         -1   -1    0    0    0  501 -0.00000000000E+00 -0.00000000000E+00 -0.30736103986E+03  0.30736103986E+03  0.00000000000E+00 0.  1.
         24    2    1    2    0    0 -0.13428895028E+02 -0.25560940123E+02 -0.29583562120E+03  0.30770630728E+03  0.79566072450E+02 0.  0.
        -13    1    3    3    0    0  0.24670563220E+02 -0.23179631703E+02 -0.22220078688E+03  0.22476459176E+03  0.00000000000E+00 0.  1.
         14    1    3    3    0    0 -0.38099458249E+02 -0.23813084202E+01 -0.73634834315E+02  0.82941715519E+02  0.00000000000E+00 0. -1.
         -2    1    1    2    0  502  0.13428895028E+02  0.25560940123E+02  0.31694611485E+02  0.42874762727E+02  0.00000000000E+00 0.  1.
<mgrwt>
<rscale>  1 0.84643114E+02</rscale>
<asrwt>0</asrwt>
<pdfrwt beam="1">  1       21 0.66492355E-02 0.84643114E+02</pdfrwt>
<pdfrwt beam="2">  1       -1 0.47286313E-01 0.84643114E+02</pdfrwt>
<totfact> 0.67263152E+04</totfact>
</mgrwt>
</event>
<event>
 6    2  0.8544106E+000  0.8681548E+02  0.7546771E-02  0.1310752E+00
         -1   -1    0    0    0  501 -0.00000000000E+00  0.00000000000E+00  0.53830966888E+03  0.53830966888E+03  0.00000000000E+00 0.  1.
         21   -1    0    0  501  502  0.00000000000E+00 -0.00000000000E+00 -0.65761689511E+01  0.65761689511E+01  0.00000000000E+00 0. -1.
         24    2    1    2    0    0  0.15480914752E+02 -0.28141032283E+02  0.38017450481E+03  0.38996099986E+03  0.80655755425E+02 0.  0.
        -13    1    3    3    0    0 -0.56845555093E+00  0.20843696595E+02  0.23469144677E+03  0.23561591206E+03  0.00000000000E+00 0.  1.
         14    1    3    3    0    0  0.16049370303E+02 -0.48984728878E+02  0.14548305805E+03  0.15434508780E+03  0.00000000000E+00 0. -1.
         -2    1    1    2    0  502 -0.15480914752E+02  0.28141032283E+02  0.15155899511E+03  0.15492483797E+03  0.00000000000E+00 0.  1.
<mgrwt>
<rscale>  1 0.86815478E+02</rscale>
<asrwt>0</asrwt>
<pdfrwt beam="1">  1       21 0.10117187E-02 0.86815478E+02</pdfrwt>
<pdfrwt beam="2">  1       -1 0.82816838E-01 0.86815478E+02</pdfrwt>
<totfact> 0.48787535E+05</totfact>
</mgrwt>
</event>
<event>
 6    2  0.8544106E+000  0.9508607E+02  0.7546771E-02  0.1290982E+00
         21   -1    0    0  501  502  0.00000000000E+00  0.00000000000E+00  0.51637011774E+02  0.51637011774E+02  0.00000000000E+00 0. -1.
          2   -1    0    0  502    0 -0.00000000000E+00 -0.00000000000E+00 -0.24868793986E+03  0.24868793986E+03  0.00000000000E+00 0. -1.
         24    2    1    2    0    0 -0.22500652404E+02  0.21897089932E+02 -0.23355912054E+03  0.25217300440E+03  0.89752991324E+02 0.  0.
        -11    1    3    3    0    0  0.13572389885E+02 -0.21882531070E+02 -0.24458847234E+02  0.35514646855E+02  0.00000000000E+00 0.  1.
         12    1    3    3    0    0 -0.36073042289E+02  0.43779621001E+02 -0.20910027331E+03  0.21665835754E+03  0.00000000000E+00 0. -1.
          1    1    1    2  501    0  0.22500652404E+02 -0.21897089932E+02  0.36508192458E+02  0.48151947236E+02  0.00000000000E+00 0. -1.
<mgrwt>
<rscale>  1 0.95086073E+02</rscale>
<asrwt>0</asrwt>
<pdfrwt beam="1">  1       21 0.79441556E-02 0.95086073E+02</pdfrwt>
<pdfrwt beam="2">  1        2 0.38259683E-01 0.95086073E+02</pdfrwt>
<totfact> 0.19482455E+05</totfact>
</mgrwt>
</event>
<event>
 6    2  0.8544106E+000  0.8260017E+02  0.7546771E-02  0.1321830E+00
         21   -1    0    0  501  502  0.00000000000E+00  0.00000000000E+00  0.35396961270E+02  0.35396961270E+02  0.00000000000E+00 0. -1.
         -3   -1    0    0    0  501 -0.00000000000E+00 -0.00000000000E+00 -0.13020146371E+03  0.13020146371E+03  0.00000000000E+00 0.  1.
         24    2    1    2    0    0 -0.25000652266E+02 -0.23291411055E+01 -0.17655128322E+02  0.84465919541E+02  0.78691362269E+02 0.  0.
        -13    1    3    3    0    0  0.17631142627E+02  0.23812115612E+02  0.41356698104E+01  0.29916179653E+02  0.00000000000E+00 0.  1.
         14    1    3    3    0    0 -0.42631794893E+02 -0.26141256717E+02 -0.21790798132E+02  0.54549739888E+02  0.00000000000E+00 0. -1.
         -4    1    1    2    0  502  0.25000652266E+02  0.23291411055E+01 -0.77149374120E+02  0.81132505441E+02  0.00000000000E+00 0.  1.
<mgrwt>
<rscale>  1 0.82600170E+02</rscale>
<asrwt>0</asrwt>
<pdfrwt beam="1">  1       21 0.54456862E-02 0.82600170E+02</pdfrwt>
<pdfrwt beam="2">  1       -3 0.20030995E-01 0.82600170E+02</pdfrwt>
<totfact> 0.22842300E+05</totfact>
</mgrwt>
</event>
<event>
 6    2  0.8544106E+000  0.8412214E+02  0.7546771E-02  0.1317744E+00
          2   -1    0    0  502    0 -0.00000000000E+00  0.00000000000E+00  0.74779541314E+03  0.74779541314E+03  0.00000000000E+00 0. -1.
         21   -1    0    0  501  502  0.00000000000E+00 -0.00000000000E+00 -0.43435716924E+01  0.43435716924E+01  0.00000000000E+00 0. -1.
         24    2    1    2    0    0  0.27215090871E+02  0.11720103157E+02  0.57007591595E+03  0.57624915132E+03  0.78730632332E+02 0.  0.
        -13    1    3    3    0    0  0.31939497086E+00  0.20923654947E+02  0.37728242478E+02  0.43143036865E+02  0.00000000000E+00 0.  1.
         14    1    3    3    0    0  0.26895695900E+02 -0.92035517895E+01  0.53234767347E+03  0.53310611446E+03  0.00000000000E+00 0. -1.
          1    1    1    2  501    0 -0.27215090871E+02 -0.11720103157E+02  0.17337592550E+03  0.17588983351E+03  0.00000000000E+00 0. -1.
<mgrwt>
<rscale>  1 0.84122140E+02</rscale>
<asrwt>0</asrwt>
<pdfrwt beam="1">  1       21 0.66824239E-03 0.84122140E+02</pdfrwt>
<pdfrwt beam="2">  1        2 0.11504535E+00 0.84122140E+02</pdfrwt>
<totfact> 0.31885187E+06</totfact>
</mgrwt>
</event>
<event>
 6    2  0.8544106E+000  0.1553273E+03  0.7546771E-02  0.1194075E+00
         21   -1    0    0  501  502  0.00000000000E+00  0.00000000000E+00  0.21375288082E+02  0.21375288082E+02  0.00000000000E+00 0.  1.
          4   -1    0    0  502    0 -0.00000000000E+00 -0.00000000000E+00 -0.10120616625E+04  0.10120616625E+04  0.00000000000E+00 0. -1.
         24    2    1    2    0    0 -0.44570681577E+01 -0.13588566307E+03 -0.59958418487E+03  0.61937692891E+03  0.75111959290E+02 0.  0.
        -13    1    3    3    0    0 -0.20834203098E+02 -0.83920050037E+02 -0.22848100676E+03  0.24429533207E+03  0.00000000000E+00 0.  1.
         14    1    3    3    0    0  0.16377134940E+02 -0.51965613028E+02 -0.37110317811E+03  0.37508159684E+03  0.00000000000E+00 0. -1.
          3    1    1    2  501    0  0.44570681577E+01  0.13588566307E+03 -0.39110218957E+03  0.41406002170E+03  0.00000000000E+00 0. -1.
<mgrwt>
<rscale>  1 0.15532735E+03</rscale>
<asrwt>0</asrwt>
<pdfrwt beam="1">  1       21 0.32885056E-02 0.15532735E+03</pdfrwt>
<pdfrwt beam="2">  1        4 0.15570181E+00 0.15532735E+03</pdfrwt>
<totfact> 0.65049506E+03</totfact>
</mgrwt>
</event>
<event>
 6    2  0.8544106E+000  0.8641406E+02  0.7546771E-02  0.1311775E+00
          2   -1    0    0  502    0 -0.00000000000E+00  0.00000000000E+00  0.37348842198E+03  0.37348842198E+03  0.00000000000E+00 0. -1.
         21   -1    0    0  501  502  0.00000000000E+00 -0.00000000000E+00 -0.15791140993E+02  0.15791140993E+02  0.00000000000E+00 0. -1.
         24    2    1    2    0    0 -0.13682191639E+02  0.20241669860E+02  0.35421153461E+03  0.36460005741E+03  0.82888256404E+02 0.  0.
        -11    1    3    3    0    0 -0.39532937095E+01  0.12731303755E+02  0.36479319979E+01  0.13821072112E+02  0.00000000000E+00 0.  1.
         12    1    3    3    0    0 -0.97288979298E+01  0.75103661044E+01  0.35056360261E+03  0.35077898530E+03  0.00000000000E+00 0. -1.
          1    1    1    2  501    0  0.13682191639E+02 -0.20241669860E+02  0.34857463765E+01  0.24679505558E+02  0.00000000000E+00 0. -1.
<mgrwt>
<rscale>  1 0.86414065E+02</rscale>
<asrwt>0</asrwt>
<pdfrwt beam="1">  1       21 0.24294066E-02 0.86414065E+02</pdfrwt>
<pdfrwt beam="2">  1        2 0.57459750E-01 0.86414065E+02</pdfrwt>
<totfact> 0.89846469E+05</totfact>
</mgrwt>
</event>
<event>
 6    2  0.8544106E+000  0.8682352E+02  0.7546771E-02  0.1310732E+00
         -3   -1    0    0    0  501 -0.00000000000E+00  0.00000000000E+00  0.96370470660E+02  0.96370470660E+02  0.00000000000E+00 0.  1.
         21   -1    0    0  501  502  0.00000000000E+00 -0.00000000000E+00 -0.39970771440E+02  0.39970771440E+02  0.00000000000E+00 0. -1.
         24    2    1    2    0    0  0.54051355636E+01 -0.30673668788E+02  0.59175239508E+02  0.10507155916E+03  0.81044642794E+02 0.  0.
        -11    1    3    3    0    0  0.38365437887E+02 -0.19935118605E+02  0.55292059567E+02  0.70189227301E+02  0.00000000000E+00 0.  1.
         12    1    3    3    0    0 -0.32960302324E+02 -0.10738550184E+02  0.38831799417E+01  0.34882331857E+02  0.00000000000E+00 0. -1.
         -4    1    1    2    0  502 -0.54051355636E+01  0.30673668788E+02 -0.27755402876E+01  0.31269682942E+02  0.00000000000E+00 0.  1.
<mgrwt>
<rscale>  1 0.86823520E+02</rscale>
<asrwt>0</asrwt>
<pdfrwt beam="1">  1       21 0.61493495E-02 0.86823520E+02</pdfrwt>
<pdfrwt beam="2">  1       -3 0.14826226E-01 0.86823520E+02</pdfrwt>
<totfact> 0.31481727E+05</totfact>
</mgrwt>
</event>
<event>
 6    2  0.8544106E+000  0.8152101E+02  0.7546771E-02  0.1324790E+00
          2   -1    0    0  502    0 -0.00000000000E+00  0.00000000000E+00  0.35634173284E+02  0.35634173284E+02  0.00000000000E+00 0. -1.
         21   -1    0    0  501  502  0.00000000000E+00 -0.00000000000E+00 -0.10592676347E+03  0.10592676347E+03  0.00000000000E+00 0. -1.
         24    2    1    2    0    0 -0.20917382089E+02 -0.57432631846E+01 -0.15973950216E+02  0.83071308668E+02  0.78582143600E+02 0.  0.
        -13    1    3    3    0    0  0.29519100582E+02 -0.28177031916E+01 -0.13243683264E+02  0.32476328254E+02  0.00000000000E+00 0.  1.
         14    1    3    3    0    0 -0.50436482671E+02 -0.29255599930E+01 -0.27302669517E+01  0.50594980414E+02  0.00000000000E+00 0. -1.
          1    1    1    2  501    0  0.20917382089E+02  0.57432631846E+01 -0.54318639973E+02  0.58489628089E+02  0.00000000000E+00 0. -1.
<mgrwt>
<rscale>  1 0.81521011E+02</rscale>
<asrwt>0</asrwt>
<pdfrwt beam="1">  1       21 0.16296425E-01 0.81521011E+02</pdfrwt>
<pdfrwt beam="2">  1        2 0.54821805E-02 0.81521011E+02</pdfrwt>
<totfact> 0.52270460E+05</totfact>
</mgrwt>
</event>
<event>
 6    2  0.8544106E+000  0.8436515E+02  0.7546771E-02  0.1317101E+00
          2   -1    0    0  502    0 -0.00000000000E+00  0.00000000000E+00  0.12290708876E+03  0.12290708876E+03  0.00000000000E+00 0. -1.
         21   -1    0    0  501  502  0.00000000000E+00 -0.00000000000E+00 -0.27487927881E+02  0.27487927881E+02  0.00000000000E+00 0. -1.
         24    2    1    2    0    0 -0.13940491121E+02  0.18970367342E+02  0.94718736739E+02  0.12684288884E+03  0.81013994040E+02 0.  0.
        -13    1    3    3    0    0 -0.27679900380E+02 -0.16004693139E+02  0.89487320912E+01  0.33202513362E+02  0.00000000000E+00 0.  1.
         14    1    3    3    0    0  0.13739409259E+02  0.34975060481E+02  0.85770004648E+02  0.93640375478E+02  0.00000000000E+00 0. -1.
          1    1    1    2  501    0  0.13940491121E+02 -0.18970367342E+02  0.70042413571E+00  0.23552127797E+02  0.00000000000E+00 0. -1.
<mgrwt>
<rscale>  1 0.84365155E+02</rscale>
<asrwt>0</asrwt>
<pdfrwt beam="1">  1       21 0.42289121E-02 0.84365155E+02</pdfrwt>
<pdfrwt beam="2">  1        2 0.18908783E-01 0.84365155E+02</pdfrwt>
<totfact> 0.11903958E+06</totfact>
</mgrwt>
</event>
<event>
 6    2  0.8544106E+000  0.8457636E+02  0.7546771E-02  0.1316544E+00
         -3   -1    0    0    0  501 -0.00000000000E+00  0.00000000000E+00  0.51407859377E+02  0.51407859377E+02  0.00000000000E+00 0.  1.
         21   -1    0    0  501  502  0.00000000000E+00 -0.00000000000E+00 -0.10587994164E+03  0.10587994164E+03  0.00000000000E+00 0.  1.
         24    2    1    2    0    0  0.17914516504E+02 -0.17846941131E+02  0.12689915554E+02  0.85523066223E+02  0.80707606148E+02 0.  0.
        -11    1    3    3    0    0 -0.49456488676E+01  0.22953864829E+02  0.27785959558E+02  0.36378550024E+02  0.00000000000E+00 0.  1.
         12    1    3    3    0    0  0.22860165371E+02 -0.40800805960E+02 -0.15096044004E+02  0.49144516198E+02  0.00000000000E+00 0. -1.
         -4    1    1    2    0  502 -0.17914516504E+02  0.17846941131E+02 -0.67161997819E+02  0.71764734796E+02  0.00000000000E+00 0.  1.
<mgrwt>
<rscale>  1 0.84576361E+02</rscale>
<asrwt>0</asrwt>
<pdfrwt beam="1">  1       21 0.16289222E-01 0.84576361E+02</pdfrwt>
<pdfrwt beam="2">  1       -3 0.79089014E-02 0.84576361E+02</pdfrwt>
<totfact> 0.16310536E+05</totfact>
</mgrwt>
</event>
<event>
 6    2  0.8544106E+000  0.9116459E+02  0.7546771E-02  0.1300056E+00
          2   -1    0    0  502    0 -0.00000000000E+00  0.00000000000E+00  0.11967301592E+04  0.11967301592E+04  0.00000000000E+00 0. -1.
         21   -1    0    0  501  502  0.00000000000E+00 -0.00000000000E+00 -0.41990791729E+01  0.41990791729E+01  0.00000000000E+00 0. -1.
         24    2    1    2    0    0 -0.90719571880E+01 -0.40909399530E+02  0.98501550002E+03  0.98922521072E+03  0.80963589812E+02 0.  0.
        -11    1    3    3    0    0  0.21850831189E+02  0.53302500576E+01  0.57664914221E+03  0.57708760479E+03  0.00000000000E+00 0.  1.
         12    1    3    3    0    0 -0.30922788377E+02 -0.46239649588E+02  0.40836635781E+03  0.41213760593E+03  0.00000000000E+00 0. -1.
          1    1    1    2  501    0  0.90719571880E+01  0.40909399530E+02  0.20751558002E+03  0.21170402766E+03  0.00000000000E+00 0. -1.
<mgrwt>
<rscale>  1 0.91164589E+02</rscale>
<asrwt>0</asrwt>
<pdfrwt beam="1">  1       21 0.64601313E-03 0.91164589E+02</pdfrwt>
<pdfrwt beam="2">  1        2 0.18411206E+00 0.91164589E+02</pdfrwt>
<totfact> 0.18198695E+06</totfact>
</mgrwt>
</event>
<event>
 6    2  0.8544106E+000  0.9588295E+02  0.7546771E-02  0.1289200E+00
         21   -1    0    0  501  502  0.00000000000E+00  0.00000000000E+00  0.11486761045E+03  0.11486761045E+03  0.00000000000E+00 0. -1.
          4   -1    0    0  502    0 -0.00000000000E+00 -0.00000000000E+00 -0.63854589308E+02  0.63854589308E+02  0.00000000000E+00 0. -1.
         24    2    1    2    0    0  0.47409180880E+02  0.21947624344E+02 -0.12265519879E+02  0.96664278752E+02  0.80400318176E+02 0.  0.
        -13    1    3    3    0    0  0.52451740605E+02  0.20331617646E+02  0.23167158250E+02  0.60838121190E+02  0.00000000000E+00 0.  1.
         14    1    3    3    0    0 -0.50425597251E+01  0.16160066971E+01 -0.35432678129E+02  0.35826157562E+02  0.00000000000E+00 0. -1.
          3    1    1    2  501    0 -0.47409180880E+02 -0.21947624344E+02  0.63278541021E+02  0.82057921005E+02  0.00000000000E+00 0. -1.
<mgrwt>
<rscale>  1 0.95882948E+02</rscale>
<asrwt>0</asrwt>
<pdfrwt beam="1">  1       21 0.17671940E-01 0.95882948E+02</pdfrwt>
<pdfrwt beam="2">  1        4 0.98237830E-02 0.95882948E+02</pdfrwt>
<totfact> 0.87313467E+04</totfact>
</mgrwt>
</event>
<event>
 6    2  0.8544106E+000  0.1437070E+03  0.7546771E-02  0.1208426E+00
         -1   -1    0    0    0  501 -0.00000000000E+00  0.00000000000E+00  0.11791266604E+03  0.11791266604E+03  0.00000000000E+00 0.  1.
         21   -1    0    0  501  502  0.00000000000E+00 -0.00000000000E+00 -0.15076248315E+03  0.15076248315E+03  0.00000000000E+00 0.  1.
         24    2    1    2    0    0 -0.61204153463E+02 -0.10320917935E+03  0.20131294259E+01  0.14372112506E+03  0.79079870986E+02 0.  0.
        -13    1    3    3    0    0 -0.69244235164E+02 -0.76758936979E+02  0.26578443607E+02  0.10673852245E+03  0.00000000000E+00 0.  1.
         14    1    3    3    0    0  0.80400817010E+01 -0.26450242372E+02 -0.24565314181E+02  0.36982602614E+02  0.00000000000E+00 0. -1.
         -2    1    1    2    0  502  0.61204153463E+02  0.10320917935E+03 -0.34862946539E+02  0.12495402412E+03  0.00000000000E+00 0.  1.
<mgrwt>
<rscale>  1 0.14370703E+03</rscale>
<asrwt>0</asrwt>
<pdfrwt beam="1">  1       21 0.23194228E-01 0.14370703E+03</pdfrwt>
<pdfrwt beam="2">  1       -1 0.18140410E-01 0.14370703E+03</pdfrwt>
<totfact> 0.37185976E+04</totfact>
</mgrwt>
</event>
<event>
 6    2  0.8544106E+000  0.7155297E+02  0.7546771E-02  0.1354890E+00
          2   -1    0    0  502    0 -0.00000000000E+00  0.00000000000E+00  0.43516557607E+03  0.43516557607E+03  0.00000000000E+00 0. -1.
         21   -1    0    0  501  502  0.00000000000E+00 -0.00000000000E+00 -0.58345177729E+01  0.58345177729E+01  0.00000000000E+00 0.  1.
         24    2    1    2    0    0  0.13436363613E+02  0.20836779568E+02  0.25261174244E+03  0.26255003403E+03  0.67120195926E+02 0.  0.
        -11    1    3    3    0    0  0.13005497384E+01  0.43827124503E+02  0.12943718929E+03  0.13666197073E+03  0.00000000000E+00 0.  1.
         12    1    3    3    0    0  0.12135813875E+02 -0.22990344934E+02  0.12317455315E+03  0.12588806330E+03  0.00000000000E+00 0. -1.
          1    1    1    2  501    0 -0.13436363613E+02 -0.20836779568E+02  0.17671931586E+03  0.17845005981E+03  0.00000000000E+00 0. -1.
<mgrwt>
<rscale>  1 0.71552973E+02</rscale>
<asrwt>0</asrwt>
<pdfrwt beam="1">  1       21 0.89761846E-03 0.71552973E+02</pdfrwt>
<pdfrwt beam="2">  1        2 0.66948525E-01 0.71552973E+02</pdfrwt>
<totfact> 0.36005356E+06</totfact>
</mgrwt>
</event>
<event>
 6    2  0.8544106E+000  0.8322229E+02  0.7546771E-02  0.1320148E+00
         21   -1    0    0  501  502  0.00000000000E+00  0.00000000000E+00  0.27300481906E+02  0.27300481906E+02  0.00000000000E+00 0.  1.
          2   -1    0    0  502    0 -0.00000000000E+00 -0.00000000000E+00 -0.11289390093E+03  0.11289390093E+03  0.00000000000E+00 0. -1.
         24    2    1    2    0    0 -0.19076796492E+02 -0.13897345788E+02 -0.48780095977E+02  0.96464745998E+02  0.79805319827E+02 0.  0.
        -11    1    3    3    0    0  0.14781308946E+02  0.19119421544E+02  0.51781023566E+01  0.24715422682E+02  0.00000000000E+00 0.  1.
         12    1    3    3    0    0 -0.33858105438E+02 -0.33016767332E+02 -0.53958198334E+02  0.71749323316E+02  0.00000000000E+00 0. -1.
          1    1    1    2  501    0  0.19076796492E+02  0.13897345788E+02 -0.36813323051E+02  0.43729636843E+02  0.00000000000E+00 0. -1.
<mgrwt>
<rscale>  1 0.83222289E+02</rscale>
<asrwt>0</asrwt>
<pdfrwt beam="1">  1       21 0.42000740E-02 0.83222289E+02</pdfrwt>
<pdfrwt beam="2">  1        2 0.17368293E-01 0.83222289E+02</pdfrwt>
<totfact> 0.13227673E+06</totfact>
</mgrwt>
</event>
<event>
 6    2  0.8544106E+000  0.1158578E+03  0.7546771E-02  0.1250091E+00
         -1   -1    0    0    0  501 -0.00000000000E+00  0.00000000000E+00  0.60605242853E+02  0.60605242853E+02  0.00000000000E+00 0.  1.
         21   -1    0    0  501  502  0.00000000000E+00 -0.00000000000E+00 -0.19376620817E+03  0.19376620817E+03  0.00000000000E+00 0. -1.
         24    2    1    2    0    0  0.74167243219E+02 -0.34659131830E+02 -0.12754946667E+03  0.17231339655E+03  0.81981734534E+02 0.  0.
        -13    1    3    3    0    0  0.90538848984E+01 -0.44910057429E+02 -0.30653870327E+02  0.55123006594E+02  0.00000000000E+00 0.  1.
         14    1    3    3    0    0  0.65113358320E+02  0.10250925598E+02 -0.96895596344E+02  0.11719038996E+03  0.00000000000E+00 0. -1.
         -2    1    1    2    0  502 -0.74167243219E+02  0.34659131830E+02 -0.56114986416E+01  0.82058054467E+02  0.00000000000E+00 0.  1.
<mgrwt>
<rscale>  1 0.11585784E+03</rscale>
<asrwt>0</asrwt>
<pdfrwt beam="1">  1       21 0.29810185E-01 0.11585784E+03</pdfrwt>
<pdfrwt beam="2">  1       -1 0.93238837E-02 0.11585784E+03</pdfrwt>
<totfact> 0.64331649E+04</totfact>
</mgrwt>
</event>
<event>
 6    2  0.8544106E+000  0.8414071E+02  0.7546771E-02  0.1317695E+00
         -3   -1    0    0    0  501 -0.00000000000E+00  0.00000000000E+00  0.20333202273E+02  0.20333202273E+02  0.00000000000E+00 0.  1.
         21   -1    0    0  501  502  0.00000000000E+00 -0.00000000000E+00 -0.13845006036E+03  0.13845006036E+03  0.00000000000E+00 0. -1.
         24    2    1    2    0    0 -0.20407861076E+02 -0.78899213231E+01 -0.96398431031E+02  0.12795435208E+03  0.81246089493E+02 0.  0.
        -11    1    3    3    0    0  0.88372025742E+01  0.32826299181E+02 -0.37771948299E+02  0.50817144209E+02  0.00000000000E+00 0.  1.
         12    1    3    3    0    0 -0.29245063651E+02 -0.40716220504E+02 -0.58626482732E+02  0.77137207868E+02  0.00000000000E+00 0. -1.
         -4    1    1    2    0  502  0.20407861076E+02  0.78899213231E+01 -0.21718427054E+02  0.30828910553E+02  0.00000000000E+00 0.  1.
<mgrwt>
<rscale>  1 0.84140708E+02</rscale>
<asrwt>0</asrwt>
<pdfrwt beam="1">  1       21 0.21300009E-01 0.84140708E+02</pdfrwt>
<pdfrwt beam="2">  1       -3 0.31281851E-02 0.84140708E+02</pdfrwt>
<totfact> 0.42793110E+05</totfact>
</mgrwt>
</event>
<event>
 6    2  0.8544106E+000  0.8832624E+02  0.7546771E-02  0.1306956E+00
         21   -1    0    0  501  502  0.00000000000E+00  0.00000000000E+00  0.56565980757E+02  0.56565980757E+02  0.00000000000E+00 0. -1.
          2   -1    0    0  502    0 -0.00000000000E+00 -0.00000000000E+00 -0.13297532039E+04  0.13297532039E+04  0.00000000000E+00 0. -1.
         24    2    1    2    0    0 -0.18169079020E+02 -0.33413520839E+02 -0.13217148230E+04  0.13246628245E+04  0.79717918042E+02 0.  0.
        -13    1    3    3    0    0 -0.10853251163E+02 -0.11310282646E+02 -0.43536675413E+02  0.46272644838E+02  0.00000000000E+00 0.  1.
         14    1    3    3    0    0 -0.73158278563E+01 -0.22103238193E+02 -0.12781781476E+04  0.12783901796E+04  0.00000000000E+00 0. -1.
          1    1    1    2  501    0  0.18169079020E+02  0.33413520839E+02  0.48527599826E+02  0.61656360192E+02  0.00000000000E+00 0. -1.
<mgrwt>
<rscale>  1 0.88326243E+02</rscale>
<asrwt>0</asrwt>
<pdfrwt beam="1">  1       21 0.87024591E-02 0.88326243E+02</pdfrwt>
<pdfrwt beam="2">  1        2 0.20457740E+00 0.88326243E+02</pdfrwt>
<totfact> 0.23075729E+04</totfact>
</mgrwt>
</event>
<event>
 6    2  0.8544106E+000  0.9113778E+02  0.7546771E-02  0.1300120E+00
          4   -1    0    0  502    0 -0.00000000000E+00  0.00000000000E+00  0.38917373680E+02  0.38917373680E+02  0.00000000000E+00 0. -1.
         21   -1    0    0  501  502  0.00000000000E+00 -0.00000000000E+00 -0.24101026192E+03  0.24101026192E+03  0.00000000000E+00 0. -1.
         24    2    1    2    0    0 -0.35825657227E+02  0.16304659898E+02 -0.19578380093E+02  0.93216989587E+02  0.82199601766E+02 0.  0.
        -13    1    3    3    0    0  0.12224401270E+02 -0.13225801283E+02 -0.30831430354E+02  0.35706230600E+02  0.00000000000E+00 0.  1.
         14    1    3    3    0    0 -0.48050058497E+02  0.29530461181E+02  0.11253050261E+02  0.57510758987E+02  0.00000000000E+00 0. -1.
          3    1    1    2  501    0  0.35825657227E+02 -0.16304659898E+02 -0.18251450815E+03  0.18671064601E+03  0.00000000000E+00 0. -1.
<mgrwt>
<rscale>  1 0.91137776E+02</rscale>
<asrwt>0</asrwt>
<pdfrwt beam="1">  1       21 0.37078503E-01 0.91137776E+02</pdfrwt>
<pdfrwt beam="2">  1        4 0.59872881E-02 0.91137776E+02</pdfrwt>
<totfact> 0.48430211E+04</totfact>
</mgrwt>
</event>
<event>
 6    2  0.8544106E+000  0.8525409E+02  0.7546771E-02  0.1314769E+00
         21   -1    0    0  501  502  0.00000000000E+00  0.00000000000E+00  0.39414383639E+01  0.39414383639E+01  0.00000000000E+00 0. -1.
         -1   -1    0    0    0  501 -0.00000000000E+00 -0.00000000000E+00 -0.81624631264E+03  0.81624631264E+03  0.00000000000E+00 0.  1.
         24    2    1    2    0    0  0.19853530198E+02 -0.20006048601E+02 -0.60885087240E+03  0.61479073174E+03  0.80460265799E+02 0.  0.
        -11    1    3    3    0    0 -0.69774507952E+01 -0.29034986145E+02 -0.53289097021E+03  0.53372699142E+03  0.00000000000E+00 0.  1.
         12    1    3    3    0    0  0.26830980993E+02  0.90289375434E+01 -0.75959902192E+02  0.81063740323E+02  0.00000000000E+00 0. -1.
         -2    1    1    2    0  502 -0.19853530198E+02  0.20006048601E+02 -0.20345400188E+03  0.20539701926E+03  0.00000000000E+00 0.  1.
<mgrwt>
<rscale>  1 0.85254085E+02</rscale>
<asrwt>0</asrwt>
<pdfrwt beam="1">  1       21 0.60637507E-03 0.85254085E+02</pdfrwt>
<pdfrwt beam="2">  1       -1 0.12557637E+00 0.85254085E+02</pdfrwt>
<totfact> 0.43198499E+05</totfact>
</mgrwt>
</event>
<event>
 6    2  0.8544106E+000  0.8360610E+02  0.7546771E-02  0.1319119E+00
         21   -1    0    0  501  502  0.00000000000E+00  0.00000000000E+00  0.10942015066E+03  0.10942015066E+03  0.00000000000E+00 0. -1.
          2   -1    0    0  502    0 -0.00000000000E+00 -0.00000000000E+00 -0.71400448105E+02  0.71400448105E+02  0.00000000000E+00 0. -1.
         24    2    1    2    0    0 -0.11922488031E+02  0.21434022734E+02 -0.44515235211E+02  0.94718455914E+02  0.79927571422E+02 0.  0.
        -13    1    3    3    0    0 -0.15122321702E+02  0.51009956682E+02 -0.34124596772E+02  0.63207502713E+02  0.00000000000E+00 0.  1.
         14    1    3    3    0    0  0.31998336707E+01 -0.29575933948E+02 -0.10390638439E+02  0.31510953201E+02  0.00000000000E+00 0. -1.
          1    1    1    2  501    0  0.11922488031E+02 -0.21434022734E+02  0.82534937768E+02  0.86102142852E+02  0.00000000000E+00 0. -1.
<mgrwt>
<rscale>  1 0.83606099E+02</rscale>
<asrwt>0</asrwt>
<pdfrwt beam="1">  1       21 0.16833869E-01 0.83606099E+02</pdfrwt>
<pdfrwt beam="2">  1        2 0.10984684E-01 0.83606099E+02</pdfrwt>
<totfact> 0.20896746E+05</totfact>
</mgrwt>
</event>
<event>
 6    2  0.8544106E+000  0.1262842E+03  0.7546771E-02  0.1233076E+00
         -3   -1    0    0    0  501 -0.00000000000E+00  0.00000000000E+00  0.41192110639E+03  0.41192110639E+03  0.00000000000E+00 0.  1.
         21   -1    0    0  501  502  0.00000000000E+00 -0.00000000000E+00 -0.30193817492E+02  0.30193817492E+02  0.00000000000E+00 0. -1.
         24    2    1    2    0    0  0.84724113336E+02  0.46721280589E+02  0.21405089833E+03  0.24852663551E+03  0.81158166825E+02 0.  0.
        -11    1    3    3    0    0  0.37405789461E+02  0.71249375383E+00  0.15665862577E+03  0.16106404242E+03  0.00000000000E+00 0.  1.
         12    1    3    3    0    0  0.47318323875E+02  0.46008786835E+02  0.57392272553E+02  0.87462593085E+02  0.00000000000E+00 0. -1.
         -4    1    1    2    0  502 -0.84724113336E+02 -0.46721280589E+02  0.16767639057E+03  0.19358828837E+03  0.00000000000E+00 0.  1.
<mgrwt>
<rscale>  1 0.12628421E+03</rscale>
<asrwt>0</asrwt>
<pdfrwt beam="1">  1       21 0.46452030E-02 0.12628421E+03</pdfrwt>
<pdfrwt beam="2">  1       -3 0.63372474E-01 0.12628421E+03</pdfrwt>
<totfact> 0.35665801E+04</totfact>
</mgrwt>
</event>
<event>
 6    2  0.8544106E+000  0.9398415E+02  0.7546771E-02  0.1293481E+00
         21   -1    0    0  501  502  0.00000000000E+00  0.00000000000E+00  0.25146265556E+03  0.25146265556E+03  0.00000000000E+00 0.  1.
          2   -1    0    0  502    0 -0.00000000000E+00 -0.00000000000E+00 -0.19838234765E+02  0.19838234765E+02  0.00000000000E+00 0. -1.
         24    2    1    2    0    0  0.10420047701E+02 -0.44818953454E+02  0.17180098950E+03  0.19582798847E+03  0.81949405679E+02 0.  0.
        -13    1    3    3    0    0 -0.17418965548E+02 -0.30995237846E+02  0.15776816043E+03  0.16172482053E+03  0.00000000000E+00 0.  1.
         14    1    3    3    0    0  0.27839013249E+02 -0.13823715608E+02  0.14032829077E+02  0.34103167944E+02  0.00000000000E+00 0. -1.
          1    1    1    2  501    0 -0.10420047701E+02  0.44818953454E+02  0.59823431287E+02  0.75472901851E+02  0.00000000000E+00 0. -1.
<mgrwt>
<rscale>  1 0.93984153E+02</rscale>
<asrwt>0</asrwt>
<pdfrwt beam="1">  1       21 0.38686560E-01 0.93984153E+02</pdfrwt>
<pdfrwt beam="2">  1        2 0.30520363E-02 0.93984153E+02</pdfrwt>
<totfact> 0.22475530E+05</totfact>
</mgrwt>
</event>
<event>
 6    2  0.8544106E+000  0.9341183E+02  0.7546771E-02  0.1294794E+00
         21   -1    0    0  501  502  0.00000000000E+00  0.00000000000E+00  0.14992649009E+02  0.14992649009E+02  0.00000000000E+00 0.  1.
         -3   -1    0    0    0  501 -0.00000000000E+00 -0.00000000000E+00 -0.47439738143E+03  0.47439738143E+03  0.00000000000E+00 0.  1.
         24    2    1    2    0    0 -0.10897177734E+02  0.46738849312E+02 -0.15309083068E+03  0.17933926860E+03  0.80140516005E+02 0.  0.
        -13    1    3    3    0    0 -0.18216238203E+02  0.67717384058E+02 -0.12696247068E+03  0.14504118173E+03  0.00000000000E+00 0.  1.
         14    1    3    3    0    0  0.73190604693E+01 -0.20978534746E+02 -0.26128360002E+02  0.34298086866E+02  0.00000000000E+00 0. -1.
         -4    1    1    2    0  502  0.10897177734E+02 -0.46738849312E+02 -0.30631390174E+03  0.31005076184E+03  0.00000000000E+00 0.  1.
<mgrwt>
<rscale>  1 0.93411834E+02</rscale>
<asrwt>0</asrwt>
<pdfrwt beam="1">  1       21 0.23065618E-02 0.93411834E+02</pdfrwt>
<pdfrwt beam="2">  1       -3 0.72984198E-01 0.93411834E+02</pdfrwt>
<totfact> 0.80796018E+04</totfact>
</mgrwt>
</event>
<event>
 6    2  0.8544106E+000  0.1039972E+03  0.7546771E-02  0.1272108E+00
         21   -1    0    0  501  502  0.00000000000E+00  0.00000000000E+00  0.91249620571E+01  0.91249620571E+01  0.00000000000E+00 0. -1.
          2   -1    0    0  502    0 -0.00000000000E+00 -0.00000000000E+00 -0.79784245901E+03  0.79784245901E+03  0.00000000000E+00 0. -1.
         24    2    1    2    0    0 -0.64829554338E+02  0.84249196021E+01 -0.53094015219E+03  0.54102943984E+03  0.80879905911E+02 0.  0.
        -13    1    3    3    0    0  0.14286104199E+02  0.12128728523E+02 -0.46113180915E+02  0.49775739903E+02  0.00000000000E+00 0.  1.
         14    1    3    3    0    0 -0.79115658538E+02 -0.37038089210E+01 -0.48482697128E+03  0.49125369994E+03  0.00000000000E+00 0. -1.
          1    1    1    2  501    0  0.64829554338E+02 -0.84249196021E+01 -0.25777734476E+03  0.26593798122E+03  0.00000000000E+00 0. -1.
<mgrwt>
<rscale>  1 0.10399716E+03</rscale>
<asrwt>0</asrwt>
<pdfrwt beam="1">  1       21 0.14038403E-02 0.10399716E+03</pdfrwt>
<pdfrwt beam="2">  1        2 0.12274500E+00 0.10399716E+03</pdfrwt>
<totfact> 0.94353248E+05</totfact>
</mgrwt>
</event>
<event>
 6    2  0.8544106E+000  0.9180462E+02  0.7546771E-02  0.1298539E+00
         21   -1    0    0  501  502  0.00000000000E+00  0.00000000000E+00  0.53454748743E+01  0.53454748743E+01  0.00000000000E+00 0.  1.
          2   -1    0    0  502    0 -0.00000000000E+00 -0.00000000000E+00 -0.13035972408E+04  0.13035972408E+04  0.00000000000E+00 0. -1.
         24    2    1    2    0    0 -0.39835784861E+02  0.17334317230E+02 -0.43418632198E+03  0.44378581677E+03  0.80874721996E+02 0.  0.
        -13    1    3    3    0    0 -0.60060219830E+02  0.18844831502E+02 -0.22564287699E+03  0.23425854438E+03  0.00000000000E+00 0.  1.
         14    1    3    3    0    0  0.20224434969E+02 -0.15105142718E+01 -0.20854344500E+03  0.20952727239E+03  0.00000000000E+00 0. -1.
          1    1    1    2  501    0  0.39835784861E+02 -0.17334317230E+02 -0.86406544398E+03  0.86515689895E+03  0.00000000000E+00 0. -1.
<mgrwt>
<rscale>  1 0.91804624E+02</rscale>
<asrwt>0</asrwt>
<pdfrwt beam="1">  1       21 0.82237962E-03 0.91804624E+02</pdfrwt>
<pdfrwt beam="2">  1        2 0.20055370E+00 0.91804624E+02</pdfrwt>
<totfact> 0.10980981E+06</totfact>
</mgrwt>
</event>
<event>
 6    2  0.8544106E+000  0.9333549E+02  0.7546771E-02  0.1294970E+00
          2   -1    0    0  502    0 -0.00000000000E+00  0.00000000000E+00  0.12880824530E+04  0.12880824530E+04  0.00000000000E+00 0. -1.
         21   -1    0    0  501  502  0.00000000000E+00 -0.00000000000E+00 -0.37960919641E+01  0.37960919641E+01  0.00000000000E+00 0.  1.
         24    2    1    2    0    0  0.32728021331E+02 -0.33052423787E+02  0.85339154541E+03  0.85848042749E+03  0.80919271525E+02 0.  0.
        -11    1    3    3    0    0  0.10957876154E+02 -0.57984732074E+02  0.61019657668E+03  0.61304336420E+03  0.00000000000E+00 0.  1.
         12    1    3    3    0    0  0.21770145177E+02  0.24932308286E+02  0.24319496873E+03  0.24543706329E+03  0.00000000000E+00 0. -1.
          1    1    1    2  501    0 -0.32728021331E+02  0.33052423787E+02  0.43089481560E+03  0.43339811745E+03  0.00000000000E+00 0. -1.
<mgrwt>
<rscale>  1 0.93335495E+02</rscale>
<asrwt>0</asrwt>
<pdfrwt beam="1">  1       21 0.58401517E-03 0.93335495E+02</pdfrwt>
<pdfrwt beam="2">  1        2 0.19816618E+00 0.93335495E+02</pdfrwt>
<totfact> 0.19027081E+06</totfact>
</mgrwt>
</event>
<event>
 6    2  0.8544106E+000  0.9628284E+02  0.7546771E-02  0.1288313E+00
         -3   -1    0    0    0  501 -0.00000000000E+00  0.00000000000E+00  0.83329810110E+01  0.83329810110E+01  0.00000000000E+00 0.  1.
         21   -1    0    0  501  502  0.00000000000E+00 -0.00000000000E+00 -0.24600248334E+04  0.24600248334E+04  0.00000000000E+00 0.  1.
         24    2    1    2    0    0  0.48340103824E+02  0.25058471930E+02 -0.28201882988E+03  0.29800168758E+03  0.79408392143E+02 0.  0.
        -11    1    3    3    0    0  0.20795967220E+02  0.18186089798E+02 -0.19173617454E+02  0.33627871194E+02  0.00000000000E+00 0.  1.
         12    1    3    3    0    0  0.27544136605E+02  0.68723821321E+01 -0.26284521243E+03  0.26437381639E+03  0.00000000000E+00 0. -1.
         -4    1    1    2    0  502 -0.48340103824E+02 -0.25058471930E+02 -0.21696730225E+04  0.21703561269E+04  0.00000000000E+00 0.  1.
<mgrwt>
<rscale>  1 0.96282841E+02</rscale>
<asrwt>0</asrwt>
<pdfrwt beam="1">  1       21 0.37846521E+00 0.96282841E+02</pdfrwt>
<pdfrwt beam="2">  1       -3 0.12819976E-02 0.96282841E+02</pdfrwt>
<totfact> 0.12022586E+03</totfact>
</mgrwt>
</event>
<event>
 6    2  0.8544106E+000  0.8347711E+02  0.7546771E-02  0.1319464E+00
         21   -1    0    0  501  502  0.00000000000E+00  0.00000000000E+00  0.36541215058E+01  0.36541215058E+01  0.00000000000E+00 0.  1.
         -1   -1    0    0    0  501 -0.00000000000E+00 -0.00000000000E+00 -0.11987990597E+04  0.11987990597E+04  0.00000000000E+00 0.  1.
         24    2    1    2    0    0  0.24292039238E+02 -0.85001218344E-01 -0.11273690069E+04  0.11304553531E+04  0.79864367162E+02 0.  0.
        -11    1    3    3    0    0  0.20851939688E+02  0.97017509230E+01 -0.11099006352E+04  0.11101388865E+04  0.00000000000E+00 0.  1.
         12    1    3    3    0    0  0.34400995500E+01 -0.97867521414E+01 -0.17468371685E+02  0.20316466516E+02  0.00000000000E+00 0. -1.
         -2    1    1    2    0  502 -0.24292039238E+02  0.85001218344E-01 -0.67775931325E+02  0.71997828179E+02  0.00000000000E+00 0.  1.
<mgrwt>
<rscale>  1 0.83477108E+02</rscale>
<asrwt>0</asrwt>
<pdfrwt beam="1">  1       21 0.56217269E-03 0.83477108E+02</pdfrwt>
<pdfrwt beam="2">  1       -1 0.18443057E+00 0.83477108E+02</pdfrwt>
<totfact> 0.17922848E+05</totfact>
</mgrwt>
</event>
<event>
 6    2  0.8544106E+000  0.8834360E+02  0.7546771E-02  0.1306913E+00
         21   -1    0    0  501  502  0.00000000000E+00  0.00000000000E+00  0.24471820445E+02  0.24471820445E+02  0.00000000000E+00 0. -1.
          2   -1    0    0  502    0 -0.00000000000E+00 -0.00000000000E+00 -0.17888204368E+03  0.17888204368E+03  0.00000000000E+00 0. -1.
         24    2    1    2    0    0  0.40425056770E+02  0.17739297545E+01 -0.12611123224E+03  0.15397608640E+03  0.78531905901E+02 0.  0.
        -11    1    3    3    0    0 -0.23129319472E+02  0.77925254803E+01 -0.31695617829E+02  0.40003763100E+02  0.00000000000E+00 0.  1.
         12    1    3    3    0    0  0.63554376242E+02 -0.60185957258E+01 -0.94415614410E+02  0.11397232330E+03  0.00000000000E+00 0. -1.
          1    1    1    2  501    0 -0.40425056770E+02 -0.17739297545E+01 -0.28298990993E+02  0.49377777723E+02  0.00000000000E+00 0. -1.
<mgrwt>
<rscale>  1 0.88343604E+02</rscale>
<asrwt>0</asrwt>
<pdfrwt beam="1">  1       21 0.37648953E-02 0.88343604E+02</pdfrwt>
<pdfrwt beam="2">  1        2 0.27520316E-01 0.88343604E+02</pdfrwt>
<totfact> 0.95915941E+05</totfact>
</mgrwt>
</event>
<event>
 6    2  0.8544106E+000  0.1138062E+03  0.7546771E-02  0.1253679E+00
         21   -1    0    0  501  502  0.00000000000E+00  0.00000000000E+00  0.26003015787E+02  0.26003015787E+02  0.00000000000E+00 0.  1.
          2   -1    0    0  502    0 -0.00000000000E+00 -0.00000000000E+00 -0.51565832252E+03  0.51565832252E+03  0.00000000000E+00 0. -1.
         24    2    1    2    0    0  0.80770681002E+02  0.59856196258E+01 -0.12900898742E+03  0.17203247284E+03  0.79950749372E+02 0.  0.
        -11    1    3    3    0    0  0.61831161436E+02  0.18529934255E+02 -0.31335715002E+02  0.71752198731E+02  0.00000000000E+00 0.  1.
         12    1    3    3    0    0  0.18939519567E+02 -0.12544314630E+02 -0.97673272420E+02  0.10028027411E+03  0.00000000000E+00 0. -1.
          1    1    1    2  501    0 -0.80770681002E+02 -0.59856196258E+01 -0.36064631931E+03  0.36962886547E+03  0.00000000000E+00 0. -1.
<mgrwt>
<rscale>  1 0.11380621E+03</rscale>
<asrwt>0</asrwt>
<pdfrwt beam="1">  1       21 0.40004641E-02 0.11380621E+03</pdfrwt>
<pdfrwt beam="2">  1        2 0.79332048E-01 0.11380621E+03</pdfrwt>
<totfact> 0.28811419E+05</totfact>
</mgrwt>
</event>
<event>
 6    2  0.8544106E+000  0.7903784E+02  0.7546771E-02  0.1331804E+00
         21   -1    0    0  501  502  0.00000000000E+00  0.00000000000E+00  0.10098273483E+02  0.10098273483E+02  0.00000000000E+00 0. -1.
          2   -1    0    0  502    0 -0.00000000000E+00 -0.00000000000E+00 -0.15647945571E+04  0.15647945571E+04  0.00000000000E+00 0. -1.
         24    2    1    2    0    0  0.24971477645E+02  0.19582179840E+02 -0.15360585190E+04  0.15380906196E+04  0.72387457110E+02 0.  0.
        -11    1    3    3    0    0  0.36145940568E+02  0.21209126706E+02 -0.44394819569E+03  0.44592191752E+03  0.00000000000E+00 0.  1.
         12    1    3    3    0    0 -0.11174462923E+02 -0.16269468665E+01 -0.10921103233E+04  0.10921687021E+04  0.00000000000E+00 0. -1.
          1    1    1    2  501    0 -0.24971477645E+02 -0.19582179840E+02 -0.18637764675E+02  0.36802211009E+02  0.00000000000E+00 0. -1.
<mgrwt>
<rscale>  1 0.79037842E+02</rscale>
<asrwt>0</asrwt>
<pdfrwt beam="1">  1       21 0.15535814E-02 0.79037842E+02</pdfrwt>
<pdfrwt beam="2">  1        2 0.24073749E+00 0.79037842E+02</pdfrwt>
<totfact> 0.29504062E+05</totfact>
</mgrwt>
</event>
<event>
 6    2  0.8544106E+000  0.8457800E+02  0.7546771E-02  0.1316540E+00
          2   -1    0    0  502    0 -0.00000000000E+00  0.00000000000E+00  0.97159942769E+03  0.97159942769E+03  0.00000000000E+00 0. -1.
         21   -1    0    0  501  502  0.00000000000E+00 -0.00000000000E+00 -0.39382991336E+01  0.39382991336E+01  0.00000000000E+00 0.  1.
         24    2    1    2    0    0 -0.26323835970E+02 -0.75577512227E+01  0.87023442553E+03  0.87433482960E+03  0.80021090543E+02 0.  0.
        -13    1    3    3    0    0 -0.41259055011E+02 -0.32783919318E+02  0.65442437290E+03  0.65654272887E+03  0.00000000000E+00 0.  1.
         14    1    3    3    0    0  0.14935219041E+02  0.25226168096E+02  0.21581005263E+03  0.21779210073E+03  0.00000000000E+00 0. -1.
          1    1    1    2  501    0  0.26323835970E+02  0.75577512227E+01  0.97426703023E+02  0.10120289722E+03  0.00000000000E+00 0. -1.
<mgrwt>
<rscale>  1 0.84578005E+02</rscale>
<asrwt>0</asrwt>
<pdfrwt beam="1">  1       21 0.60589295E-03 0.84578005E+02</pdfrwt>
<pdfrwt beam="2">  1        2 0.14947664E+00 0.84578005E+02</pdfrwt>
<totfact> 0.26735741E+06</totfact>
</mgrwt>
</event>
<event>
 6    2  0.8544106E+000  0.8674786E+02  0.7546771E-02  0.1310924E+00
          2   -1    0    0  502    0 -0.00000000000E+00  0.00000000000E+00  0.86148483477E+03  0.86148483477E+03  0.00000000000E+00 0. -1.
         21   -1    0    0  501  502  0.00000000000E+00 -0.00000000000E+00 -0.43719251333E+01  0.43719251333E+01  0.00000000000E+00 0.  1.
         24    2    1    2    0    0 -0.18492336292E+02  0.24592074049E+02  0.50448165055E+03  0.51188565728E+03  0.81107667821E+02 0.  0.
        -11    1    3    3    0    0 -0.46116751153E+02  0.10432186581E+02  0.18680114120E+03  0.19269211610E+03  0.00000000000E+00 0.  1.
         12    1    3    3    0    0  0.27624414861E+02  0.14159887467E+02  0.31768050935E+03  0.31919354118E+03  0.00000000000E+00 0. -1.
          1    1    1    2  501    0  0.18492336292E+02 -0.24592074049E+02  0.35263125909E+03  0.35397110263E+03  0.00000000000E+00 0. -1.
<mgrwt>
<rscale>  1 0.86747855E+02</rscale>
<asrwt>0</asrwt>
<pdfrwt beam="1">  1       21 0.67260455E-03 0.86747855E+02</pdfrwt>
<pdfrwt beam="2">  1        2 0.13253599E+00 0.86747855E+02</pdfrwt>
<totfact> 0.26653155E+06</totfact>
</mgrwt>
</event>
<event>
 6    2  0.8544106E+000  0.1025227E+03  0.7546771E-02  0.1275079E+00
         -3   -1    0    0    0  501 -0.00000000000E+00  0.00000000000E+00  0.16373105998E+02  0.16373105998E+02  0.00000000000E+00 0.  1.
         21   -1    0    0  501  502  0.00000000000E+00 -0.00000000000E+00 -0.41588543862E+03  0.41588543862E+03  0.00000000000E+00 0. -1.
         24    2    1    2    0    0  0.61931119350E+02  0.76052678236E+01 -0.25622648574E+03  0.27597630775E+03  0.81348674259E+02 0.  0.
        -11    1    3    3    0    0  0.70220160997E+00 -0.81837030150E+01  0.33044296570E+01  0.88535494293E+01  0.00000000000E+00 0.  1.
         12    1    3    3    0    0  0.61228917740E+02  0.15788970839E+02 -0.25953091539E+03  0.26712275832E+03  0.00000000000E+00 0. -1.
         -4    1    1    2    0  502 -0.61931119350E+02 -0.76052678236E+01 -0.14328584689E+03  0.15628223687E+03  0.00000000000E+00 0.  1.
<mgrwt>
<rscale>  1 0.10252273E+03</rscale>
<asrwt>0</asrwt>
<pdfrwt beam="1">  1       21 0.63982374E-01 0.10252273E+03</pdfrwt>
<pdfrwt beam="2">  1       -3 0.25189394E-02 0.10252273E+03</pdfrwt>
<totfact> 0.70269309E+04</totfact>
</mgrwt>
</event>
<event>
 6    2  0.8544106E+000  0.8693463E+02  0.7546771E-02  0.1310449E+00
          2   -1    0    0  502    0 -0.00000000000E+00  0.00000000000E+00  0.16608276990E+04  0.16608276990E+04  0.00000000000E+00 0. -1.
         21   -1    0    0  501  502  0.00000000000E+00 -0.00000000000E+00 -0.17897743095E+01  0.17897743095E+01  0.00000000000E+00 0.  1.
         24    2    1    2    0    0  0.20413469723E+02  0.26569857924E+01  0.14370262400E+04  0.14396534461E+04  0.84462186273E+02 0.  0.
        -13    1    3    3    0    0  0.36085382129E+02  0.28071146999E+02  0.48269453159E+03  0.48485477715E+03  0.00000000000E+00 0.  1.
         14    1    3    3    0    0 -0.15671912406E+02 -0.25414161207E+02  0.95433170846E+03  0.95479866893E+03  0.00000000000E+00 0. -1.
          1    1    1    2  501    0 -0.20413469723E+02 -0.26569857924E+01  0.22201168462E+03  0.22296402721E+03  0.00000000000E+00 0. -1.
<mgrwt>
<rscale>  1 0.86934632E+02</rscale>
<asrwt>0</asrwt>
<pdfrwt beam="1">  1       21 0.27535122E-03 0.86934632E+02</pdfrwt>
<pdfrwt beam="2">  1        2 0.25551072E+00 0.86934632E+02</pdfrwt>
<totfact> 0.38255911E+06</totfact>
</mgrwt>
</event>
<event>
 6    2  0.8544106E+000  0.1006839E+03  0.7546771E-02  0.1278864E+00
         21   -1    0    0  501  502  0.00000000000E+00  0.00000000000E+00  0.29693778196E+01  0.29693778196E+01  0.00000000000E+00 0.  1.
          2   -1    0    0  502    0 -0.00000000000E+00 -0.00000000000E+00 -0.12660761449E+04  0.12660761449E+04  0.00000000000E+00 0. -1.
         24    2    1    2    0    0  0.85907031473E+01  0.19563527388E+02 -0.10850636519E+04  0.10897249086E+04  0.98390629476E+02 0.  0.
        -11    1    3    3    0    0  0.20341282144E+02  0.24150251970E+02 -0.10655413408E+03  0.11113408981E+03  0.00000000000E+00 0.  1.
         12    1    3    3    0    0 -0.11750578997E+02 -0.45867245816E+01 -0.97850951785E+03  0.97859081882E+03  0.00000000000E+00 0. -1.
          1    1    1    2  501    0 -0.85907031473E+01 -0.19563527388E+02 -0.17804311519E+03  0.17932061412E+03  0.00000000000E+00 0. -1.
<mgrwt>
<rscale>  1 0.10068390E+03</rscale>
<asrwt>0</asrwt>
<pdfrwt beam="1">  1       21 0.45682619E-03 0.10068390E+03</pdfrwt>
<pdfrwt beam="2">  1        2 0.19478144E+00 0.10068390E+03</pdfrwt>
<totfact> 0.28695086E+06</totfact>
</mgrwt>
</event>
<event>
 6    2  0.8544106E+000  0.8405853E+02  0.7546771E-02  0.1317913E+00
         21   -1    0    0  501  502  0.00000000000E+00  0.00000000000E+00  0.21103006036E+02  0.21103006036E+02  0.00000000000E+00 0.  1.
          2   -1    0    0  502    0 -0.00000000000E+00 -0.00000000000E+00 -0.17341310200E+03  0.17341310200E+03  0.00000000000E+00 0. -1.
         24    2    1    2    0    0  0.33767573783E+02  0.14081755116E+02 -0.99214319087E+02  0.13003582897E+03  0.75678866516E+02 0.  0.
        -11    1    3    3    0    0  0.53750357418E+02 -0.74440375322E+01 -0.70451890260E+02  0.88926843296E+02  0.00000000000E+00 0.  1.
         12    1    3    3    0    0 -0.19982783635E+02  0.21525792649E+02 -0.28762428827E+02  0.41108985672E+02  0.00000000000E+00 0. -1.
          1    1    1    2  501    0 -0.33767573783E+02 -0.14081755116E+02 -0.53095776876E+02  0.64480279066E+02  0.00000000000E+00 0. -1.
<mgrwt>
<rscale>  1 0.84058525E+02</rscale>
<asrwt>0</asrwt>
<pdfrwt beam="1">  1       21 0.32466162E-02 0.84058525E+02</pdfrwt>
<pdfrwt beam="2">  1        2 0.26678940E-01 0.84058525E+02</pdfrwt>
<totfact> 0.12563319E+06</totfact>
</mgrwt>
</event>
<event>
 6    2  0.8544106E+000  0.2032431E+03  0.7546771E-02  0.1147031E+00
         21   -1    0    0  501  502  0.00000000000E+00  0.00000000000E+00  0.57572217523E+02  0.57572217523E+02  0.00000000000E+00 0.  1.
          2   -1    0    0  502    0 -0.00000000000E+00 -0.00000000000E+00 -0.66540694533E+03  0.66540694533E+03  0.00000000000E+00 0. -1.
         24    2    1    2    0    0 -0.16272725847E+03 -0.91536274543E+02 -0.28507222394E+03  0.35010561310E+03  0.80303905599E+02 0.  0.
        -11    1    3    3    0    0 -0.11986351988E+03 -0.90050512732E+02 -0.16668076891E+03  0.22418482769E+03  0.00000000000E+00 0.  1.
         12    1    3    3    0    0 -0.42863738589E+02 -0.14857618104E+01 -0.11839145503E+03  0.12592078541E+03  0.00000000000E+00 0. -1.
          1    1    1    2  501    0  0.16272725847E+03  0.91536274543E+02 -0.32276250387E+03  0.37287354976E+03  0.00000000000E+00 0. -1.
<mgrwt>
<rscale>  1 0.20324312E+03</rscale>
<asrwt>0</asrwt>
<pdfrwt beam="1">  1       21 0.88572636E-02 0.20324312E+03</pdfrwt>
<pdfrwt beam="2">  1        2 0.10237031E+00 0.20324312E+03</pdfrwt>
<totfact> 0.56416710E+04</totfact>
</mgrwt>
</event>
<event>
 6    2  0.8544106E+000  0.8910835E+02  0.7546771E-02  0.1305025E+00
         -1   -1    0    0    0  501 -0.00000000000E+00  0.00000000000E+00  0.31151118107E+03  0.31151118107E+03  0.00000000000E+00 0.  1.
         21   -1    0    0  501  502  0.00000000000E+00 -0.00000000000E+00 -0.12816944392E+02  0.12816944392E+02  0.00000000000E+00 0. -1.
         24    2    1    2    0    0 -0.14565970646E+02  0.33657139078E+02  0.19675575998E+03  0.21599335015E+03  0.81211622996E+02 0.  0.
        -11    1    3    3    0    0 -0.18634933546E+02 -0.21299185596E+02  0.10692492990E+03  0.11060676602E+03  0.00000000000E+00 0.  1.
         12    1    3    3    0    0  0.40689628996E+01  0.54956324673E+02  0.89830830086E+02  0.10538658413E+03  0.00000000000E+00 0. -1.
         -2    1    1    2    0  502  0.14565970646E+02 -0.33657139078E+02  0.10193847669E+03  0.10833477531E+03  0.00000000000E+00 0.  1.
<mgrwt>
<rscale>  1 0.89108351E+02</rscale>
<asrwt>0</asrwt>
<pdfrwt beam="1">  1       21 0.19718378E-02 0.89108351E+02</pdfrwt>
<pdfrwt beam="2">  1       -1 0.47924792E-01 0.89108351E+02</pdfrwt>
<totfact> 0.48352514E+05</totfact>
</mgrwt>
</event>
<event>
 6    2  0.8544106E+000  0.8261909E+02  0.7546771E-02  0.1321779E+00
         21   -1    0    0  501  502  0.00000000000E+00  0.00000000000E+00  0.37665954144E+01  0.37665954144E+01  0.00000000000E+00 0.  1.
          2   -1    0    0  502    0 -0.00000000000E+00 -0.00000000000E+00 -0.78793055777E+03  0.78793055777E+03  0.00000000000E+00 0. -1.
         24    2    1    2    0    0 -0.20602231746E+02 -0.14953538958E+02 -0.63884812095E+03  0.64416832873E+03  0.78599324566E+02 0.  0.
        -13    1    3    3    0    0 -0.42793002595E+02 -0.25177267188E+02 -0.27107030393E+03  0.27557983512E+03  0.00000000000E+00 0.  1.
         14    1    3    3    0    0  0.22190770849E+02  0.10223728230E+02 -0.36777781702E+03  0.36858849361E+03  0.00000000000E+00 0. -1.
          1    1    1    2  501    0  0.20602231746E+02  0.14953538958E+02 -0.14531584141E+03  0.14752882445E+03  0.00000000000E+00 0. -1.
<mgrwt>
<rscale>  1 0.82619090E+02</rscale>
<asrwt>0</asrwt>
<pdfrwt beam="1">  1       21 0.57947579E-03 0.82619090E+02</pdfrwt>
<pdfrwt beam="2">  1        2 0.12122018E+00 0.82619090E+02</pdfrwt>
<totfact> 0.37211217E+06</totfact>
</mgrwt>
</event>
<event>
 6    2  0.8544106E+000  0.9359555E+02  0.7546771E-02  0.1294371E+00
          2   -1    0    0  502    0 -0.00000000000E+00  0.00000000000E+00  0.23280677993E+03  0.23280677993E+03  0.00000000000E+00 0. -1.
         21   -1    0    0  501  502  0.00000000000E+00 -0.00000000000E+00 -0.18840880640E+02  0.18840880640E+02  0.00000000000E+00 0.  1.
         24    2    1    2    0    0  0.28993058059E+02  0.25875558780E+02  0.15056488758E+03  0.17728483220E+03  0.85146840208E+02 0.  0.
        -13    1    3    3    0    0  0.57759443324E+02  0.29013193828E+02  0.10575610865E+03  0.12394463775E+03  0.00000000000E+00 0.  1.
         14    1    3    3    0    0 -0.28766385265E+02 -0.31376350481E+01  0.44808778930E+02  0.53340194451E+02  0.00000000000E+00 0. -1.
          1    1    1    2  501    0 -0.28993058059E+02 -0.25875558780E+02  0.63401011710E+02  0.74362828373E+02  0.00000000000E+00 0. -1.
<mgrwt>
<rscale>  1 0.93595547E+02</rscale>
<asrwt>0</asrwt>
<pdfrwt beam="1">  1       21 0.28985972E-02 0.93595547E+02</pdfrwt>
<pdfrwt beam="2">  1        2 0.35816426E-01 0.93595547E+02</pdfrwt>
<totfact> 0.11169759E+06</totfact>
</mgrwt>
</event>
<event>
 6    2  0.8544106E+000  0.8410578E+02  0.7546771E-02  0.1317788E+00
         21   -1    0    0  501  502  0.00000000000E+00  0.00000000000E+00  0.22536668187E+02  0.22536668187E+02  0.00000000000E+00 0. -1.
          2   -1    0    0  502    0 -0.00000000000E+00 -0.00000000000E+00 -0.53740244277E+03  0.53740244277E+03  0.00000000000E+00 0. -1.
         24    2    1    2    0    0  0.45514026078E+01 -0.25010936183E+02 -0.52564165935E+03  0.53232784719E+03  0.80171819567E+02 0.  0.
        -13    1    3    3    0    0 -0.22611054705E+02 -0.43525784530E+02 -0.37120354938E+03  0.37443000519E+03  0.00000000000E+00 0.  1.
         14    1    3    3    0    0  0.27162457313E+02  0.18514848347E+02 -0.15443810997E+03  0.15789784200E+03  0.00000000000E+00 0. -1.
          1    1    1    2  501    0 -0.45514026078E+01  0.25010936183E+02  0.10775884767E+02  0.27611263770E+02  0.00000000000E+00 0. -1.
<mgrwt>
<rscale>  1 0.84105784E+02</rscale>
<asrwt>0</asrwt>
<pdfrwt beam="1">  1       21 0.34671797E-02 0.84105784E+02</pdfrwt>
<pdfrwt beam="2">  1        2 0.82677300E-01 0.84105784E+02</pdfrwt>
<totfact> 0.34194780E+05</totfact>
</mgrwt>
</event>
<event>
 6    2  0.8544106E+000  0.1062502E+03  0.7546771E-02  0.1267676E+00
         21   -1    0    0  501  502  0.00000000000E+00  0.00000000000E+00  0.77514579592E+01  0.77514579592E+01  0.00000000000E+00 0. -1.
          2   -1    0    0  502    0 -0.00000000000E+00 -0.00000000000E+00 -0.17878581799E+04  0.17878581799E+04  0.00000000000E+00 0. -1.
         24    2    1    2    0    0  0.10716268630E+01  0.69201274173E+02 -0.15856138290E+04  0.15891696947E+04  0.80617238117E+02 0.  0.
        -11    1    3    3    0    0 -0.37013906322E+01  0.37446509547E+01 -0.52218420425E+01  0.74155470265E+01  0.00000000000E+00 0.  1.
         12    1    3    3    0    0  0.47730174952E+01  0.65456623219E+02 -0.15803919869E+04  0.15817541477E+04  0.00000000000E+00 0. -1.
          1    1    1    2  501    0 -0.10716268630E+01 -0.69201274173E+02 -0.19449289299E+03  0.20643994322E+03  0.00000000000E+00 0. -1.
<mgrwt>
<rscale>  1 0.10625019E+03</rscale>
<asrwt>0</asrwt>
<pdfrwt beam="1">  1       21 0.11925311E-02 0.10625019E+03</pdfrwt>
<pdfrwt beam="2">  1        2 0.27505531E+00 0.10625019E+03</pdfrwt>
<totfact> 0.34884214E+05</totfact>
</mgrwt>
</event>
<event>
 6    2  0.8544106E+000  0.1004075E+03  0.7546771E-02  0.1279441E+00
         -3   -1    0    0    0  501 -0.00000000000E+00  0.00000000000E+00  0.56510206557E+02  0.56510206557E+02  0.00000000000E+00 0.  1.
         21   -1    0    0  501  502  0.00000000000E+00 -0.00000000000E+00 -0.16997533870E+03  0.16997533870E+03  0.00000000000E+00 0.  1.
         24    2    1    2    0    0  0.24946147103E+02  0.14480810406E+02  0.88675000658E+01  0.10079832622E+03  0.96175183321E+02 0.  0.
        -13    1    3    3    0    0  0.15127490575E+02  0.23799773270E+02  0.50050021640E+02  0.57448018634E+02  0.00000000000E+00 0.  1.
         14    1    3    3    0    0  0.98186565278E+01 -0.93189628640E+01 -0.41182521575E+02  0.43350307590E+02  0.00000000000E+00 0. -1.
         -4    1    1    2    0  502 -0.24946147103E+02 -0.14480810406E+02 -0.12233263221E+03  0.12568721903E+03  0.00000000000E+00 0.  1.
<mgrwt>
<rscale>  1 0.10040752E+03</rscale>
<asrwt>0</asrwt>
<pdfrwt beam="1">  1       21 0.26150051E-01 0.10040752E+03</pdfrwt>
<pdfrwt beam="2">  1       -3 0.86938782E-02 0.10040752E+03</pdfrwt>
<totfact> 0.59949052E+04</totfact>
</mgrwt>
</event>
<event>
 6    2  0.8544106E+000  0.8862123E+02  0.7546771E-02  0.1306225E+00
         21   -1    0    0  501  502  0.00000000000E+00  0.00000000000E+00  0.97728999079E+01  0.97728999079E+01  0.00000000000E+00 0.  1.
          2   -1    0    0  502    0 -0.00000000000E+00 -0.00000000000E+00 -0.43514636281E+03  0.43514636281E+03  0.00000000000E+00 0. -1.
         24    2    1    2    0    0 -0.29476763354E+02 -0.13627706849E+02 -0.22312416359E+03  0.24007939100E+03  0.82456822853E+02 0.  0.
        -13    1    3    3    0    0 -0.44701112939E+02 -0.77759362512E+01 -0.55602220762E+02  0.71765323355E+02  0.00000000000E+00 0.  1.
         14    1    3    3    0    0  0.15224349586E+02 -0.58517705978E+01 -0.16752194283E+03  0.16831406765E+03  0.00000000000E+00 0. -1.
          1    1    1    2  501    0  0.29476763354E+02  0.13627706849E+02 -0.20224929931E+03  0.20483987172E+03  0.00000000000E+00 0. -1.
<mgrwt>
<rscale>  1 0.88621225E+02</rscale>
<asrwt>0</asrwt>
<pdfrwt beam="1">  1       21 0.15035229E-02 0.88621225E+02</pdfrwt>
<pdfrwt beam="2">  1        2 0.66945602E-01 0.88621225E+02</pdfrwt>
<totfact> 0.16498146E+06</totfact>
</mgrwt>
</event>
<event>
 6    2  0.8544106E+000  0.1091028E+03  0.7546771E-02  0.1262240E+00
          2   -1    0    0  502    0 -0.00000000000E+00  0.00000000000E+00  0.61018930360E+03  0.61018930360E+03  0.00000000000E+00 0. -1.
         21   -1    0    0  501  502  0.00000000000E+00 -0.00000000000E+00 -0.11257758270E+02  0.11257758270E+02  0.00000000000E+00 0.  1.
         24    2    1    2    0    0  0.20981055131E+02  0.33060352835E+02  0.53848404927E+03  0.54942559712E+03  0.10183429607E+03 0.  0.
        -13    1    3    3    0    0  0.62159181643E+02  0.25506533649E+02  0.32372905229E+03  0.33062795770E+03  0.00000000000E+00 0.  1.
         14    1    3    3    0    0 -0.41178126511E+02  0.75538191862E+01  0.21475499698E+03  0.21879763942E+03  0.00000000000E+00 0. -1.
          1    1    1    2  501    0 -0.20981055131E+02 -0.33060352835E+02  0.60447496065E+02  0.72021464748E+02  0.00000000000E+00 0. -1.
<mgrwt>
<rscale>  1 0.10910277E+03</rscale>
<asrwt>0</asrwt>
<pdfrwt beam="1">  1       21 0.17319633E-02 0.10910277E+03</pdfrwt>
<pdfrwt beam="2">  1        2 0.93875251E-01 0.10910277E+03</pdfrwt>
<totfact> 0.92930456E+05</totfact>
</mgrwt>
</event>
<event>
 6    2  0.8544106E+000  0.8443980E+02  0.7546771E-02  0.1316904E+00
          2   -1    0    0  502    0 -0.00000000000E+00  0.00000000000E+00  0.21878631836E+03  0.21878631836E+03  0.00000000000E+00 0. -1.
         21   -1    0    0  501  502  0.00000000000E+00 -0.00000000000E+00 -0.16367843510E+02  0.16367843510E+02  0.00000000000E+00 0.  1.
         24    2    1    2    0    0  0.18943227283E+02 -0.18123309733E+02  0.18587118453E+03  0.20415233882E+03  0.80266929618E+02 0.  0.
        -13    1    3    3    0    0  0.43234565814E+02 -0.18164527310E+02  0.61012266231E+02  0.76952416233E+02  0.00000000000E+00 0.  1.
         14    1    3    3    0    0 -0.24291338530E+02  0.41217577216E-01  0.12485891830E+03  0.12719992259E+03  0.00000000000E+00 0. -1.
          1    1    1    2  501    0 -0.18943227283E+02  0.18123309733E+02  0.16547290318E+02  0.31001823051E+02  0.00000000000E+00 0. -1.
<mgrwt>
<rscale>  1 0.84439802E+02</rscale>
<asrwt>0</asrwt>
<pdfrwt beam="1">  1       21 0.25181299E-02 0.84439802E+02</pdfrwt>
<pdfrwt beam="2">  1        2 0.33659431E-01 0.84439802E+02</pdfrwt>
<totfact> 0.14802839E+06</totfact>
</mgrwt>
</event>
<event>
 6    2  0.8544106E+000  0.8585026E+02  0.7546771E-02  0.1313224E+00
         21   -1    0    0  501  502  0.00000000000E+00  0.00000000000E+00  0.38277505339E+03  0.38277505339E+03  0.00000000000E+00 0. -1.
          2   -1    0    0  502    0 -0.00000000000E+00 -0.00000000000E+00 -0.18566287089E+02  0.18566287089E+02  0.00000000000E+00 0. -1.
         24    2    1    2    0    0 -0.26517466182E+02  0.19966364663E+02  0.87263795872E+02  0.12241420237E+03  0.79173449718E+02 0.  0.
        -13    1    3    3    0    0  0.85358024155E+01 -0.24136949798E+02  0.45777597863E+02  0.52450364484E+02  0.00000000000E+00 0.  1.
         14    1    3    3    0    0 -0.35053268598E+02  0.44103314461E+02  0.41486198009E+02  0.69963837881E+02  0.00000000000E+00 0. -1.
          1    1    1    2  501    0  0.26517466182E+02 -0.19966364663E+02  0.27694497043E+03  0.27892713811E+03  0.00000000000E+00 0. -1.
<mgrwt>
<rscale>  1 0.85850258E+02</rscale>
<asrwt>0</asrwt>
<pdfrwt beam="1">  1       21 0.58888464E-01 0.85850258E+02</pdfrwt>
<pdfrwt beam="2">  1        2 0.28563521E-02 0.85850258E+02</pdfrwt>
<totfact> 0.10401757E+05</totfact>
</mgrwt>
</event>
<event>
 6    2  0.8544106E+000  0.8417818E+02  0.7546771E-02  0.1317596E+00
          4   -1    0    0  502    0 -0.00000000000E+00  0.00000000000E+00  0.44714832055E+02  0.44714832055E+02  0.00000000000E+00 0. -1.
         21   -1    0    0  501  502  0.00000000000E+00 -0.00000000000E+00 -0.65777228030E+02  0.65777228030E+02  0.00000000000E+00 0.  1.
         24    2    1    2    0    0 -0.45171561857E+01  0.23821859971E+02 -0.15074997658E+02  0.85517379884E+02  0.80610675443E+02 0.  0.
        -13    1    3    3    0    0  0.86205413310E+01  0.50610907250E+02  0.15461499827E+01  0.51363101982E+02  0.00000000000E+00 0.  1.
         14    1    3    3    0    0 -0.13137697517E+02 -0.26789047279E+02 -0.16621147640E+02  0.34154277902E+02  0.00000000000E+00 0. -1.
          3    1    1    2  501    0  0.45171561857E+01 -0.23821859971E+02 -0.59873983173E+01  0.24974680200E+02  0.00000000000E+00 0. -1.
<mgrwt>
<rscale>  1 0.84178184E+02</rscale>
<asrwt>0</asrwt>
<pdfrwt beam="1">  1       21 0.10119573E-01 0.84178184E+02</pdfrwt>
<pdfrwt beam="2">  1        4 0.68792050E-02 0.84178184E+02</pdfrwt>
<totfact> 0.41125641E+05</totfact>
</mgrwt>
</event>
<event>
 6    2  0.8544106E+000  0.9018885E+02  0.7546771E-02  0.1302395E+00
         21   -1    0    0  501  502  0.00000000000E+00  0.00000000000E+00  0.37230836260E+01  0.37230836260E+01  0.00000000000E+00 0. -1.
          2   -1    0    0  502    0 -0.00000000000E+00 -0.00000000000E+00 -0.19836377972E+04  0.19836377972E+04  0.00000000000E+00 0. -1.
         24    2    1    2    0    0 -0.35225962118E+02  0.27621884637E+02 -0.17888601859E+04  0.17911322656E+04  0.78295536181E+02 0.  0.
        -11    1    3    3    0    0 -0.32048823083E+01 -0.26263789917E+02 -0.66405840598E+03  0.66458530264E+03  0.00000000000E+00 0.  1.
         12    1    3    3    0    0 -0.32021079809E+02  0.53885674554E+02 -0.11248017800E+04  0.11265469629E+04  0.00000000000E+00 0. -1.
          1    1    1    2  501    0  0.35225962118E+02 -0.27621884637E+02 -0.19105452763E+03  0.19622861526E+03  0.00000000000E+00 0. -1.
<mgrwt>
<rscale>  1 0.90188846E+02</rscale>
<asrwt>0</asrwt>
<pdfrwt beam="1">  1       21 0.57278184E-03 0.90188846E+02</pdfrwt>
<pdfrwt beam="2">  1        2 0.30517518E+00 0.90188846E+02</pdfrwt>
<totfact> 0.86614886E+05</totfact>
</mgrwt>
</event>
<event>
 6    2  0.8544106E+000  0.8250411E+02  0.7546771E-02  0.1322092E+00
          2   -1    0    0  502    0 -0.00000000000E+00  0.00000000000E+00  0.29735411425E+03  0.29735411425E+03  0.00000000000E+00 0. -1.
         21   -1    0    0  501  502  0.00000000000E+00 -0.00000000000E+00 -0.41985061978E+02  0.41985061978E+02  0.00000000000E+00 0. -1.
         24    2    1    2    0    0 -0.86059503805E+00  0.20754236514E+02  0.28859379674E+03  0.30015547296E+03  0.79846411788E+02 0.  0.
        -13    1    3    3    0    0  0.15060595173E+01 -0.26912344306E+02  0.17315228332E+03  0.17523771201E+03  0.00000000000E+00 0.  1.
         14    1    3    3    0    0 -0.23666545554E+01  0.47666580820E+02  0.11544151342E+03  0.12491776095E+03  0.00000000000E+00 0. -1.
          1    1    1    2  501    0  0.86059503805E+00 -0.20754236514E+02 -0.33224744465E+02  0.39183703269E+02  0.00000000000E+00 0. -1.
<mgrwt>
<rscale>  1 0.82504112E+02</rscale>
<asrwt>0</asrwt>
<pdfrwt beam="1">  1       21 0.64592405E-02 0.82504112E+02</pdfrwt>
<pdfrwt beam="2">  1        2 0.45746786E-01 0.82504112E+02</pdfrwt>
<totfact> 0.22750110E+05</totfact>
</mgrwt>
</event>
<event>
 6    2  0.8544106E+000  0.8706384E+02  0.7546771E-02  0.1310122E+00
          2   -1    0    0  502    0 -0.00000000000E+00  0.00000000000E+00  0.12147872503E+04  0.12147872503E+04  0.00000000000E+00 0. -1.
         21   -1    0    0  501  502  0.00000000000E+00 -0.00000000000E+00 -0.31676212155E+01  0.31676212155E+01  0.00000000000E+00 0. -1.
         24    2    1    2    0    0  0.32620443101E+02  0.73141835546E+01  0.99095257799E+03  0.99476988540E+03  0.80389815790E+02 0.  0.
        -13    1    3    3    0    0 -0.96550918648E+01  0.27329728801E+02  0.16745757328E+03  0.16994756169E+03  0.00000000000E+00 0.  1.
         14    1    3    3    0    0  0.42275534966E+02 -0.20015545246E+02  0.82349500471E+03  0.82482232371E+03  0.00000000000E+00 0. -1.
          1    1    1    2  501    0 -0.32620443101E+02 -0.73141835546E+01  0.22066705112E+03  0.22318498614E+03  0.00000000000E+00 0. -1.
<mgrwt>
<rscale>  1 0.87063845E+02</rscale>
<asrwt>0</asrwt>
<pdfrwt beam="1">  1       21 0.48732731E-03 0.87063845E+02</pdfrwt>
<pdfrwt beam="2">  1        2 0.18688998E+00 0.87063845E+02</pdfrwt>
<totfact> 0.27323371E+06</totfact>
</mgrwt>
</event>
<event>
 6    2  0.8544106E+000  0.9707229E+02  0.7546771E-02  0.1286576E+00
          2   -1    0    0  502    0 -0.00000000000E+00  0.00000000000E+00  0.13853077642E+04  0.13853077642E+04  0.00000000000E+00 0. -1.
         21   -1    0    0  501  502  0.00000000000E+00 -0.00000000000E+00 -0.45834018562E+01  0.45834018562E+01  0.00000000000E+00 0.  1.
         24    2    1    2    0    0  0.30947957601E+01  0.53856331394E+02  0.65369637599E+03  0.66086457180E+03  0.80702838149E+02 0.  0.
        -13    1    3    3    0    0  0.13342359215E+01  0.48744771320E+02  0.16298265164E+03  0.17012106763E+03  0.00000000000E+00 0.  1.
         14    1    3    3    0    0  0.17605598387E+01  0.51115600741E+01  0.49071372436E+03  0.49074350417E+03  0.00000000000E+00 0. -1.
          1    1    1    2  501    0 -0.30947957601E+01 -0.53856331394E+02  0.72702798637E+03  0.72902659428E+03  0.00000000000E+00 0. -1.
<mgrwt>
<rscale>  1 0.97072294E+02</rscale>
<asrwt>0</asrwt>
<pdfrwt beam="1">  1       21 0.70513985E-03 0.97072294E+02</pdfrwt>
<pdfrwt beam="2">  1        2 0.21312394E+00 0.97072294E+02</pdfrwt>
<totfact> 0.12678636E+06</totfact>
</mgrwt>
</event>
<event>
 6    2  0.8544106E+000  0.8314557E+02  0.7546771E-02  0.1320355E+00
          2   -1    0    0  502    0 -0.00000000000E+00  0.00000000000E+00  0.60574801005E+03  0.60574801005E+03  0.00000000000E+00 0. -1.
         21   -1    0    0  501  502  0.00000000000E+00 -0.00000000000E+00 -0.63655823641E+01  0.63655823641E+01  0.00000000000E+00 0. -1.
         24    2    1    2    0    0 -0.11995082585E+02  0.18632949914E+02  0.56581354595E+03  0.57188998430E+03  0.80138109115E+02 0.  0.
        -11    1    3    3    0    0  0.27123926091E+02  0.22919206071E+02  0.39540999140E+03  0.39700133334E+03  0.00000000000E+00 0.  1.
         12    1    3    3    0    0 -0.39119008676E+02 -0.42862561567E+01  0.17040355455E+03  0.17488865096E+03  0.00000000000E+00 0. -1.
          1    1    1    2  501    0  0.11995082585E+02 -0.18632949914E+02  0.33568881732E+02  0.40223608111E+02  0.00000000000E+00 0. -1.
<mgrwt>
<rscale>  1 0.83145567E+02</rscale>
<asrwt>0</asrwt>
<pdfrwt beam="1">  1       21 0.97932084E-03 0.83145567E+02</pdfrwt>
<pdfrwt beam="2">  1        2 0.93191956E-01 0.83145567E+02</pdfrwt>
<totfact> 0.22432924E+06</totfact>
</mgrwt>
</event>
<event>
 6    2  0.8544106E+000  0.8408143E+02  0.7546771E-02  0.1317852E+00
          2   -1    0    0  502    0 -0.00000000000E+00  0.00000000000E+00  0.28416911170E+04  0.28416911170E+04  0.00000000000E+00 0. -1.
         21   -1    0    0  501  502  0.00000000000E+00 -0.00000000000E+00 -0.16551883257E+01  0.16551883257E+01  0.00000000000E+00 0. -1.
         24    2    1    2    0    0  0.11866543112E+02 -0.22467054113E+02  0.26789223582E+04  0.26802415354E+04  0.80150506605E+02 0.  0.
        -13    1    3    3    0    0  0.28312878594E+02  0.53122758282E+01  0.37920780672E+03  0.38030040763E+03  0.00000000000E+00 0.  1.
         14    1    3    3    0    0 -0.16446335481E+02 -0.27779329942E+02  0.22997145515E+04  0.22999411278E+04  0.00000000000E+00 0. -1.
          1    1    1    2  501    0 -0.11866543112E+02  0.22467054113E+02  0.16111357046E+03  0.16310476987E+03  0.00000000000E+00 0. -1.
<mgrwt>
<rscale>  1 0.84081431E+02</rscale>
<asrwt>0</asrwt>
<pdfrwt beam="1">  1       21 0.25464663E-03 0.84081431E+02</pdfrwt>
<pdfrwt beam="2">  1        2 0.43717934E+00 0.84081431E+02</pdfrwt>
<totfact> 0.10585055E+06</totfact>
</mgrwt>
</event>
<event>
 6    2  0.8544106E+000  0.9349993E+02  0.7546771E-02  0.1294591E+00
          2   -1    0    0  502    0 -0.00000000000E+00  0.00000000000E+00  0.20907495853E+03  0.20907495853E+03  0.00000000000E+00 0. -1.
         21   -1    0    0  501  502  0.00000000000E+00 -0.00000000000E+00 -0.70510574157E+02  0.70510574157E+02  0.00000000000E+00 0. -1.
         24    2    1    2    0    0  0.18661383780E+02  0.40900479202E+02  0.18970425647E+03  0.21149454238E+03  0.81982559664E+02 0.  0.
        -11    1    3    3    0    0 -0.80152940671E+01  0.34591793253E+02  0.22452731198E+02  0.42011453649E+02  0.00000000000E+00 0.  1.
         12    1    3    3    0    0  0.26676677847E+02  0.63086859498E+01  0.16725152527E+03  0.16948308873E+03  0.00000000000E+00 0. -1.
          1    1    1    2  501    0 -0.18661383780E+02 -0.40900479202E+02 -0.51139872096E+02  0.68090990311E+02  0.00000000000E+00 0. -1.
<mgrwt>
<rscale>  1 0.93499928E+02</rscale>
<asrwt>0</asrwt>
<pdfrwt beam="1">  1       21 0.10847781E-01 0.93499928E+02</pdfrwt>
<pdfrwt beam="2">  1        2 0.32165378E-01 0.93499928E+02</pdfrwt>
<totfact> 0.13659496E+05</totfact>
</mgrwt>
</event>
<event>
 6    2  0.8544106E+000  0.8607856E+02  0.7546771E-02  0.1312636E+00
          2   -1    0    0  502    0 -0.00000000000E+00  0.00000000000E+00  0.24882590234E+04  0.24882590234E+04  0.00000000000E+00 0. -1.
         21   -1    0    0  501  502  0.00000000000E+00 -0.00000000000E+00 -0.19284567276E+01  0.19284567276E+01  0.00000000000E+00 0. -1.
         24    2    1    2    0    0  0.61187271551E+01 -0.31430935107E+02  0.22560199617E+04  0.22576615305E+04  0.79901039086E+02 0.  0.
        -13    1    3    3    0    0 -0.12593716306E+02  0.17577451313E+02  0.24356807798E+03  0.24452602539E+03  0.00000000000E+00 0.  1.
         14    1    3    3    0    0  0.18712443461E+02 -0.49008386420E+02  0.20124518838E+04  0.20131355051E+04  0.00000000000E+00 0. -1.
          1    1    1    2  501    0 -0.61187271551E+01  0.31430935107E+02  0.23031060492E+03  0.23252594961E+03  0.00000000000E+00 0. -1.
<mgrwt>
<rscale>  1 0.86078560E+02</rscale>
<asrwt>0</asrwt>
<pdfrwt beam="1">  1       21 0.29668764E-03 0.86078560E+02</pdfrwt>
<pdfrwt beam="2">  1        2 0.38280651E+00 0.86078560E+02</pdfrwt>
<totfact> 0.13016600E+06</totfact>
</mgrwt>
</event>
<event>
 6    2  0.8544106E+000  0.8270640E+02  0.7546771E-02  0.1321542E+00
         -3   -1    0    0    0  501 -0.00000000000E+00  0.00000000000E+00  0.77576167177E+02  0.77576167177E+02  0.00000000000E+00 0.  1.
         21   -1    0    0  501  502  0.00000000000E+00 -0.00000000000E+00 -0.42242124896E+02  0.42242124896E+02  0.00000000000E+00 0. -1.
         24    2    1    2    0    0 -0.21577702401E+02  0.10095839005E+02  0.44945220917E+02  0.94129812926E+02  0.79201171658E+02 0.  0.
        -11    1    3    3    0    0 -0.42244335629E+02  0.14678220387E+02  0.54839542292E+02  0.70763051413E+02  0.00000000000E+00 0.  1.
         12    1    3    3    0    0  0.20666633228E+02 -0.45823813815E+01 -0.98943213749E+01  0.23366761512E+02  0.00000000000E+00 0. -1.
         -4    1    1    2    0  502  0.21577702401E+02 -0.10095839005E+02 -0.96111786362E+01  0.25688479147E+02  0.00000000000E+00 0.  1.
<mgrwt>
<rscale>  1 0.82706401E+02</rscale>
<asrwt>0</asrwt>
<pdfrwt beam="1">  1       21 0.64987885E-02 0.82706401E+02</pdfrwt>
<pdfrwt beam="2">  1       -3 0.11934795E-01 0.82706401E+02</pdfrwt>
<totfact> 0.40891851E+05</totfact>
</mgrwt>
</event>
<event>
 6    2  0.8544106E+000  0.8741296E+02  0.7546771E-02  0.1309240E+00
         21   -1    0    0  501  502  0.00000000000E+00  0.00000000000E+00  0.82361444468E+01  0.82361444468E+01  0.00000000000E+00 0.  1.
          2   -1    0    0  502    0 -0.00000000000E+00 -0.00000000000E+00 -0.70317630500E+03  0.70317630500E+03  0.00000000000E+00 0. -1.
         24    2    1    2    0    0  0.56873595285E+00  0.34716145746E+02 -0.24486102842E+03  0.25999605695E+03  0.80221519263E+02 0.  0.
        -11    1    3    3    0    0  0.21309908320E+02  0.37935062989E+02 -0.60927646557E+02  0.74868947579E+02  0.00000000000E+00 0.  1.
         12    1    3    3    0    0 -0.20741172367E+02 -0.32189172423E+01 -0.18393338187E+03  0.18512710937E+03  0.00000000000E+00 0. -1.
          1    1    1    2  501    0 -0.56873595285E+00 -0.34716145746E+02 -0.45007913213E+03  0.45141639250E+03  0.00000000000E+00 0. -1.
<mgrwt>
<rscale>  1 0.87412965E+02</rscale>
<asrwt>0</asrwt>
<pdfrwt beam="1">  1       21 0.12670988E-02 0.87412965E+02</pdfrwt>
<pdfrwt beam="2">  1        2 0.10818100E+00 0.87412965E+02</pdfrwt>
<totfact> 0.12709026E+06</totfact>
</mgrwt>
</event>
<event>
 6    2  0.8544106E+000  0.9058498E+02  0.7546771E-02  0.1301441E+00
          2   -1    0    0  502    0 -0.00000000000E+00  0.00000000000E+00  0.17726788820E+04  0.17726788820E+04  0.00000000000E+00 0. -1.
         21   -1    0    0  501  502  0.00000000000E+00 -0.00000000000E+00 -0.32926975880E+01  0.32926975880E+01  0.00000000000E+00 0. -1.
         24    2    1    2    0    0  0.29644266508E+02 -0.29700028853E+02  0.15477096877E+04  0.15503583188E+04  0.80279293758E+02 0.  0.
        -13    1    3    3    0    0  0.28577493955E+02  0.18092379370E+02  0.33415180748E+03  0.33585925296E+03  0.00000000000E+00 0.  1.
         14    1    3    3    0    0  0.10667725533E+01 -0.47792408223E+02  0.12135578802E+04  0.12144990658E+04  0.00000000000E+00 0. -1.
          1    1    1    2  501    0 -0.29644266508E+02  0.29700028853E+02  0.22167649666E+03  0.22561326075E+03  0.00000000000E+00 0. -1.
<mgrwt>
<rscale>  1 0.90584984E+02</rscale>
<asrwt>0</asrwt>
<pdfrwt beam="1">  1       21 0.50657027E-03 0.90584984E+02</pdfrwt>
<pdfrwt beam="2">  1        2 0.27271907E+00 0.90584984E+02</pdfrwt>
<totfact> 0.13346961E+06</totfact>
</mgrwt>
</event>
<event>
 6    2  0.8544106E+000  0.8364867E+02  0.7546771E-02  0.1319005E+00
         -1   -1    0    0    0  501 -0.00000000000E+00  0.00000000000E+00  0.20438405456E+03  0.20438405456E+03  0.00000000000E+00 0.  1.
         21   -1    0    0  501  502  0.00000000000E+00 -0.00000000000E+00 -0.13268738568E+02  0.13268738568E+02  0.00000000000E+00 0. -1.
         24    2    1    2    0    0  0.17240336459E+02 -0.11096128314E+02  0.15386738385E+03  0.17513501198E+03  0.81097147571E+02 0.  0.
        -13    1    3    3    0    0  0.13796631430E+02  0.28488220910E+02  0.11602058608E+03  0.12026097523E+03  0.00000000000E+00 0.  1.
         14    1    3    3    0    0  0.34437050290E+01 -0.39584349224E+02  0.37846797771E+02  0.54874036750E+02  0.00000000000E+00 0. -1.
         -2    1    1    2    0  502 -0.17240336459E+02  0.11096128314E+02  0.37247932143E+02  0.42517781147E+02  0.00000000000E+00 0.  1.
<mgrwt>
<rscale>  1 0.83648674E+02</rscale>
<asrwt>0</asrwt>
<pdfrwt beam="1">  1       21 0.20413445E-02 0.83648674E+02</pdfrwt>
<pdfrwt beam="2">  1       -1 0.31443698E-01 0.83648674E+02</pdfrwt>
<totfact> 0.93960107E+05</totfact>
</mgrwt>
</event>
<event>
 6    2  0.8544106E+000  0.9051181E+02  0.7546771E-02  0.1301617E+00
          4   -1    0    0  502    0 -0.00000000000E+00  0.00000000000E+00  0.27568284736E+02  0.27568284736E+02  0.00000000000E+00 0. -1.
         21   -1    0    0  501  502  0.00000000000E+00 -0.00000000000E+00 -0.19854749837E+03  0.19854749837E+03  0.00000000000E+00 0. -1.
         24    2    1    2    0    0  0.51544468004E+01  0.36694613923E+02 -0.58699643554E+02  0.10787972740E+03  0.82579200873E+02 0.  0.
        -11    1    3    3    0    0 -0.28162781146E+02  0.47307316592E+02 -0.41291259621E+02  0.68819274670E+02  0.00000000000E+00 0.  1.
         12    1    3    3    0    0  0.33317227946E+02 -0.10612702669E+02 -0.17408383934E+02  0.39060452726E+02  0.00000000000E+00 0. -1.
          3    1    1    2  501    0 -0.51544468004E+01 -0.36694613923E+02 -0.11227957008E+03  0.11823605571E+03  0.00000000000E+00 0. -1.
<mgrwt>
<rscale>  1 0.90511808E+02</rscale>
<asrwt>0</asrwt>
<pdfrwt beam="1">  1       21 0.30545770E-01 0.90511808E+02</pdfrwt>
<pdfrwt beam="2">  1        4 0.42412744E-02 0.90511808E+02</pdfrwt>
<totfact> 0.12200598E+05</totfact>
</mgrwt>
</event>
<event>
 6    2  0.8544106E+000  0.8432773E+02  0.7546771E-02  0.1317200E+00
         21   -1    0    0  501  502  0.00000000000E+00  0.00000000000E+00  0.17307980101E+03  0.17307980101E+03  0.00000000000E+00 0.  1.
         -1   -1    0    0    0  501 -0.00000000000E+00 -0.00000000000E+00 -0.79113998136E+02  0.79113998136E+02  0.00000000000E+00 0.  1.
         24    2    1    2    0    0 -0.13980859858E+02  0.27024017209E+02 -0.54654988446E+02  0.10049046510E+03  0.78647338578E+02 0.  0.
        -11    1    3    3    0    0 -0.83776041505E+01  0.81003494787E+01 -0.72772528120E+02  0.73699665956E+02  0.00000000000E+00 0.  1.
         12    1    3    3    0    0 -0.56032557072E+01  0.18923667731E+02  0.18117539675E+02  0.26790799144E+02  0.00000000000E+00 0. -1.
         -2    1    1    2    0  502  0.13980859858E+02 -0.27024017209E+02  0.14862079132E+03  0.15170333405E+03  0.00000000000E+00 0.  1.
<mgrwt>
<rscale>  1 0.84327729E+02</rscale>
<asrwt>0</asrwt>
<pdfrwt beam="1">  1       21 0.26627662E-01 0.84327729E+02</pdfrwt>
<pdfrwt beam="2">  1       -1 0.12171384E-01 0.84327729E+02</pdfrwt>
<totfact> 0.52446775E+04</totfact>
</mgrwt>
</event>
<event>
 6    2  0.8544106E+000  0.1016683E+03  0.7546771E-02  0.1276826E+00
         -3   -1    0    0    0  501 -0.00000000000E+00  0.00000000000E+00  0.64700858997E+03  0.64700858997E+03  0.00000000000E+00 0.  1.
         21   -1    0    0  501  502  0.00000000000E+00 -0.00000000000E+00 -0.13972264842E+02  0.13972264842E+02  0.00000000000E+00 0.  1.
         24    2    1    2    0    0 -0.51144919588E+02  0.32634538049E+02  0.20671190672E+03  0.23036115530E+03  0.81582066777E+02 0.  0.
        -11    1    3    3    0    0 -0.35957526384E+02 -0.23869194903E+02  0.88031820849E+02  0.98042254415E+02  0.00000000000E+00 0.  1.
         12    1    3    3    0    0 -0.15187393204E+02  0.56503732952E+02  0.11868008587E+03  0.13231890088E+03  0.00000000000E+00 0. -1.
         -4    1    1    2    0  502  0.51144919588E+02 -0.32634538049E+02  0.42632441841E+03  0.43061969951E+03  0.00000000000E+00 0.  1.
<mgrwt>
<rscale>  1 0.10166833E+03</rscale>
<asrwt>0</asrwt>
<pdfrwt beam="1">  1       21 0.21495797E-02 0.10166833E+03</pdfrwt>
<pdfrwt beam="2">  1       -3 0.99539759E-01 0.10166833E+03</pdfrwt>
<totfact> 0.46478578E+04</totfact>
</mgrwt>
</event>
<event>
 6    2  0.8544106E+000  0.8588453E+02  0.7546771E-02  0.1313135E+00
         21   -1    0    0  501  502  0.00000000000E+00  0.00000000000E+00  0.21654366858E+02  0.21654366858E+02  0.00000000000E+00 0.  1.
         -1   -1    0    0    0  501 -0.00000000000E+00 -0.00000000000E+00 -0.24799039483E+03  0.24799039483E+03  0.00000000000E+00 0.  1.
         24    2    1    2    0    0  0.20595334721E+02  0.13380319777E+02 -0.22934733189E+03  0.24490069733E+03  0.82297947350E+02 0.  0.
        -13    1    3    3    0    0  0.39358876858E+02  0.50153172398E+00 -0.21366994814E+03  0.21726532043E+03  0.00000000000E+00 0.  1.
         14    1    3    3    0    0 -0.18763542138E+02  0.12878788053E+02 -0.15677383745E+02  0.27635376899E+02  0.00000000000E+00 0. -1.
         -2    1    1    2    0  502 -0.20595334721E+02 -0.13380319777E+02  0.30113039183E+01  0.24744064357E+02  0.00000000000E+00 0.  1.
<mgrwt>
<rscale>  1 0.85884532E+02</rscale>
<asrwt>0</asrwt>
<pdfrwt beam="1">  1       21 0.33314411E-02 0.85884532E+02</pdfrwt>
<pdfrwt beam="2">  1       -1 0.38152367E-01 0.85884532E+02</pdfrwt>
<totfact> 0.30817731E+05</totfact>
</mgrwt>
</event>
<event>
 6    2  0.8544106E+000  0.8502586E+02  0.7546771E-02  0.1315365E+00
         21   -1    0    0  501  502  0.00000000000E+00  0.00000000000E+00  0.20434475338E+03  0.20434475338E+03  0.00000000000E+00 0. -1.
          4   -1    0    0  502    0 -0.00000000000E+00 -0.00000000000E+00 -0.25924385711E+02  0.25924385711E+02  0.00000000000E+00 0. -1.
         24    2    1    2    0    0  0.21429112256E+02 -0.49451964027E+01  0.47259380795E+02  0.97277160772E+02  0.82132424262E+02 0.  0.
        -11    1    3    3    0    0 -0.18920919237E+02  0.16877964552E+02  0.44628805541E+02  0.51328327035E+02  0.00000000000E+00 0.  1.
         12    1    3    3    0    0  0.40350031494E+02 -0.21823160955E+02  0.26305752545E+01  0.45948833737E+02  0.00000000000E+00 0. -1.
          3    1    1    2  501    0 -0.21429112256E+02  0.49451964027E+01  0.13116098687E+03  0.13299197832E+03  0.00000000000E+00 0. -1.
<mgrwt>
<rscale>  1 0.85025860E+02</rscale>
<asrwt>0</asrwt>
<pdfrwt beam="1">  1       21 0.31437653E-01 0.85025860E+02</pdfrwt>
<pdfrwt beam="2">  1        4 0.39883672E-02 0.85025860E+02</pdfrwt>
<totfact> 0.12591723E+05</totfact>
</mgrwt>
</event>
<event>
 6    2  0.8544106E+000  0.8259558E+02  0.7546771E-02  0.1321843E+00
          2   -1    0    0  502    0 -0.00000000000E+00  0.00000000000E+00  0.10651754235E+04  0.10651754235E+04  0.00000000000E+00 0. -1.
         21   -1    0    0  501  502  0.00000000000E+00 -0.00000000000E+00 -0.33697583452E+01  0.33697583452E+01  0.00000000000E+00 0. -1.
         24    2    1    2    0    0  0.11196618037E+02  0.18112124581E+02  0.99513201846E+03  0.99855383612E+03  0.79803609959E+02 0.  0.
        -11    1    3    3    0    0  0.23244179810E+02 -0.26918697031E+02  0.38177540839E+03  0.38342844260E+03  0.00000000000E+00 0.  1.
         12    1    3    3    0    0 -0.12047561773E+02  0.45030821612E+02  0.61335661006E+03  0.61512539352E+03  0.00000000000E+00 0. -1.
          1    1    1    2  501    0 -0.11196618037E+02 -0.18112124581E+02  0.66673646710E+02  0.69991345735E+02  0.00000000000E+00 0. -1.
<mgrwt>
<rscale>  1 0.82595578E+02</rscale>
<asrwt>0</asrwt>
<pdfrwt beam="1">  1       21 0.51842521E-03 0.82595578E+02</pdfrwt>
<pdfrwt beam="2">  1        2 0.16387287E+00 0.82595578E+02</pdfrwt>
<totfact> 0.29901592E+06</totfact>
</mgrwt>
</event>
<event>
 6    2  0.8544106E+000  0.8303177E+02  0.7546771E-02  0.1320661E+00
         -1   -1    0    0    0  501 -0.00000000000E+00  0.00000000000E+00  0.44420300557E+03  0.44420300557E+03  0.00000000000E+00 0.  1.
         21   -1    0    0  501  502  0.00000000000E+00 -0.00000000000E+00 -0.93223488082E+01  0.93223488082E+01  0.00000000000E+00 0. -1.
         24    2    1    2    0    0 -0.30403071281E+00 -0.20296414662E+02  0.42057310488E+03  0.42869104497E+03  0.80512350655E+02 0.  0.
        -11    1    3    3    0    0 -0.48116034933E+01 -0.22445748566E+02  0.42265697669E+03  0.42327991105E+03  0.00000000000E+00 0.  1.
         12    1    3    3    0    0  0.45075727805E+01  0.21493339038E+01 -0.20838718074E+01  0.54111339210E+01  0.00000000000E+00 0. -1.
         -2    1    1    2    0  502  0.30403071281E+00  0.20296414662E+02  0.14307551881E+02  0.24834309405E+02  0.00000000000E+00 0.  1.
<mgrwt>
<rscale>  1 0.83031774E+02</rscale>
<asrwt>0</asrwt>
<pdfrwt beam="1">  1       21 0.14342079E-02 0.83031774E+02</pdfrwt>
<pdfrwt beam="2">  1       -1 0.68338907E-01 0.83031774E+02</pdfrwt>
<totfact> 0.41144828E+05</totfact>
</mgrwt>
</event>
<event>
 6    2  0.8544106E+000  0.8410573E+02  0.7546771E-02  0.1317788E+00
         21   -1    0    0  501  502  0.00000000000E+00  0.00000000000E+00  0.36693118461E+01  0.36693118461E+01  0.00000000000E+00 0. -1.
          2   -1    0    0  502    0 -0.00000000000E+00 -0.00000000000E+00 -0.10931915750E+04  0.10931915750E+04  0.00000000000E+00 0. -1.
         24    2    1    2    0    0  0.21639754619E+02  0.47062105210E+01 -0.10286987914E+04  0.10321312792E+04  0.81137824455E+02 0.  0.
        -11    1    3    3    0    0 -0.19366493909E+02  0.25877718252E+02 -0.25227130555E+03  0.25433349955E+03  0.00000000000E+00 0.  1.
         12    1    3    3    0    0  0.41006248528E+02 -0.21171507731E+02 -0.77642748586E+03  0.77779777961E+03  0.00000000000E+00 0. -1.
          1    1    1    2  501    0 -0.21639754619E+02 -0.47062105210E+01 -0.60823471761E+02  0.64729607711E+02  0.00000000000E+00 0. -1.
<mgrwt>
<rscale>  1 0.84105731E+02</rscale>
<asrwt>0</asrwt>
<pdfrwt beam="1">  1       21 0.56450955E-03 0.84105731E+02</pdfrwt>
<pdfrwt beam="2">  1        2 0.16818331E+00 0.84105731E+02</pdfrwt>
<totfact> 0.25352733E+06</totfact>
</mgrwt>
</event>
<event>
 6    2  0.8544106E+000  0.8620158E+02  0.7546771E-02  0.1312320E+00
          2   -1    0    0  502    0 -0.00000000000E+00  0.00000000000E+00  0.64980368324E+03  0.64980368324E+03  0.00000000000E+00 0. -1.
         21   -1    0    0  501  502  0.00000000000E+00 -0.00000000000E+00 -0.13805705579E+02  0.13805705579E+02  0.00000000000E+00 0. -1.
         24    2    1    2    0    0  0.18178392194E+02 -0.28283273765E+02  0.62072443830E+03  0.62668137070E+03  0.79374520863E+02 0.  0.
        -11    1    3    3    0    0  0.40240578294E+02 -0.34881868014E+02  0.27000404726E+03  0.27520580371E+03  0.00000000000E+00 0.  1.
         12    1    3    3    0    0 -0.22062186100E+02  0.65985942494E+01  0.35072039103E+03  0.35147556699E+03  0.00000000000E+00 0. -1.
          1    1    1    2  501    0 -0.18178392194E+02  0.28283273765E+02  0.15273539362E+02  0.36928018120E+02  0.00000000000E+00 0. -1.
<mgrwt>
<rscale>  1 0.86201578E+02</rscale>
<asrwt>0</asrwt>
<pdfrwt beam="1">  1       21 0.21239552E-02 0.86201578E+02</pdfrwt>
<pdfrwt beam="2">  1        2 0.99969774E-01 0.86201578E+02</pdfrwt>
<totfact> 0.61243176E+05</totfact>
</mgrwt>
</event>
<event>
 6    2  0.8544106E+000  0.9201898E+02  0.7546771E-02  0.1298035E+00
         -3   -1    0    0    0  501 -0.00000000000E+00  0.00000000000E+00  0.44129820517E+02  0.44129820517E+02  0.00000000000E+00 0.  1.
         21   -1    0    0  501  502  0.00000000000E+00 -0.00000000000E+00 -0.12365846178E+03  0.12365846178E+03  0.00000000000E+00 0.  1.
         24    2    1    2    0    0 -0.24007321293E+02 -0.41713741944E+02 -0.25615337703E+02  0.95517734746E+02  0.78428976677E+02 0.  0.
        -11    1    3    3    0    0 -0.25829749351E+01 -0.61542016494E+02 -0.99706434400E+01  0.62397958975E+02  0.00000000000E+00 0.  1.
         12    1    3    3    0    0 -0.21424346358E+02  0.19828274550E+02 -0.15644694263E+02  0.33119775770E+02  0.00000000000E+00 0. -1.
         -4    1    1    2    0  502  0.24007321293E+02  0.41713741944E+02 -0.53913303563E+02  0.72270547554E+02  0.00000000000E+00 0.  1.
<mgrwt>
<rscale>  1 0.92018977E+02</rscale>
<asrwt>0</asrwt>
<pdfrwt beam="1">  1       21 0.19024379E-01 0.92018977E+02</pdfrwt>
<pdfrwt beam="2">  1       -3 0.67892032E-02 0.92018977E+02</pdfrwt>
<totfact> 0.15923919E+05</totfact>
</mgrwt>
</event>
<event>
 6    2  0.8544106E+000  0.9366839E+02  0.7546771E-02  0.1294204E+00
          2   -1    0    0  502    0 -0.00000000000E+00  0.00000000000E+00  0.98348947666E+03  0.98348947666E+03  0.00000000000E+00 0. -1.
         21   -1    0    0  501  502  0.00000000000E+00 -0.00000000000E+00 -0.15928837346E+02  0.15928837346E+02  0.00000000000E+00 0. -1.
         24    2    1    2    0    0  0.18638500716E+01 -0.43742880464E+02  0.12745469538E+03  0.15817226762E+03  0.82806118982E+02 0.  0.
        -11    1    3    3    0    0 -0.30543857419E+02  0.79104865572E+01  0.32278710894E+02  0.45137769114E+02  0.00000000000E+00 0.  1.
         12    1    3    3    0    0  0.32407707490E+02 -0.51653367021E+02  0.95175984487E+02  0.11303449851E+03  0.00000000000E+00 0. -1.
          1    1    1    2  501    0 -0.18638500716E+01  0.43742880464E+02  0.84010594393E+03  0.84124604638E+03  0.00000000000E+00 0. -1.
<mgrwt>
<rscale>  1 0.93668388E+02</rscale>
<asrwt>0</asrwt>
<pdfrwt beam="1">  1       21 0.24505911E-02 0.93668388E+02</pdfrwt>
<pdfrwt beam="2">  1        2 0.15130603E+00 0.93668388E+02</pdfrwt>
<totfact> 0.29421811E+05</totfact>
</mgrwt>
</event>
<event>
 6    2  0.8544106E+000  0.9708176E+02  0.7546771E-02  0.1286555E+00
         -3   -1    0    0    0  501 -0.00000000000E+00  0.00000000000E+00  0.10062308096E+04  0.10062308096E+04  0.00000000000E+00 0.  1.
         21   -1    0    0  501  502  0.00000000000E+00 -0.00000000000E+00 -0.58481907512E+01  0.58481907512E+01  0.00000000000E+00 0.  1.
         24    2    1    2    0    0 -0.55968027455E+02  0.52428204021E+01  0.65323040529E+03  0.66040505101E+03  0.79151511338E+02 0.  0.
        -11    1    3    3    0    0 -0.67520777767E+02  0.20573179264E+02  0.37992459084E+03  0.38642593839E+03  0.00000000000E+00 0.  1.
         12    1    3    3    0    0  0.11552750312E+02 -0.15330358861E+02  0.27330581444E+03  0.27397911262E+03  0.00000000000E+00 0. -1.
         -4    1    1    2    0  502  0.55968027455E+02 -0.52428204021E+01  0.34715221353E+03  0.35167394930E+03  0.00000000000E+00 0.  1.
<mgrwt>
<rscale>  1 0.97081765E+02</rscale>
<asrwt>0</asrwt>
<pdfrwt beam="1">  1       21 0.89972245E-03 0.97081765E+02</pdfrwt>
<pdfrwt beam="2">  1       -3 0.15480460E+00 0.97081765E+02</pdfrwt>
<totfact> 0.64703918E+04</totfact>
</mgrwt>
</event>
<event>
 6    2  0.8544106E+000  0.9667178E+02  0.7546771E-02  0.1287455E+00
         -1   -1    0    0    0  501 -0.00000000000E+00  0.00000000000E+00  0.97156792739E+03  0.97156792739E+03  0.00000000000E+00 0.  1.
         21   -1    0    0  501  502  0.00000000000E+00 -0.00000000000E+00 -0.69946822275E+01  0.69946822275E+01  0.00000000000E+00 0.  1.
         24    2    1    2    0    0 -0.17993473417E+02 -0.46445974246E+02  0.81938318079E+03  0.82506619793E+03  0.82851918448E+02 0.  0.
        -11    1    3    3    0    0 -0.17834294804E+02 -0.70127913376E+02  0.65524151977E+03  0.65922487479E+03  0.00000000000E+00 0.  1.
         12    1    3    3    0    0 -0.15917861312E+00  0.23681939130E+02  0.16414166102E+03  0.16584132314E+03  0.00000000000E+00 0. -1.
         -2    1    1    2    0  502  0.17993473417E+02  0.46445974246E+02  0.14519006437E+03  0.15349641168E+03  0.00000000000E+00 0.  1.
<mgrwt>
<rscale>  1 0.96671785E+02</rscale>
<asrwt>0</asrwt>
<pdfrwt beam="1">  1       21 0.10761057E-02 0.96671785E+02</pdfrwt>
<pdfrwt beam="2">  1       -1 0.14947188E+00 0.96671785E+02</pdfrwt>
<totfact> 0.11662296E+05</totfact>
</mgrwt>
</event>
<event>
 6    2  0.8544106E+000  0.8226787E+02  0.7546771E-02  0.1322736E+00
          2   -1    0    0  502    0 -0.00000000000E+00  0.00000000000E+00  0.30773237242E+02  0.30773237242E+02  0.00000000000E+00 0. -1.
         21   -1    0    0  501  502  0.00000000000E+00 -0.00000000000E+00 -0.11788051111E+03  0.11788051111E+03  0.00000000000E+00 0.  1.
         24    2    1    2    0    0 -0.10635447086E+02  0.18084525155E+02 -0.29586578178E+02  0.87426358914E+02  0.79547720519E+02 0.  0.
        -13    1    3    3    0    0  0.73193735093E+01  0.46690722012E+02 -0.24619405643E+02  0.53288947117E+02  0.00000000000E+00 0.  1.
         14    1    3    3    0    0 -0.17954820595E+02 -0.28606196857E+02 -0.49671725352E+01  0.34137411797E+02  0.00000000000E+00 0. -1.
          1    1    1    2  501    0  0.10635447086E+02 -0.18084525155E+02 -0.57520695688E+02  0.61227389437E+02  0.00000000000E+00 0. -1.
<mgrwt>
<rscale>  1 0.82267871E+02</rscale>
<asrwt>0</asrwt>
<pdfrwt beam="1">  1       21 0.18135463E-01 0.82267871E+02</pdfrwt>
<pdfrwt beam="2">  1        2 0.47343442E-02 0.82267871E+02</pdfrwt>
<totfact> 0.52096573E+05</totfact>
</mgrwt>
</event>
<event>
 6    2  0.8544106E+000  0.8807743E+02  0.7546771E-02  0.1307575E+00
         -1   -1    0    0    0  501 -0.00000000000E+00  0.00000000000E+00  0.84250095313E+02  0.84250095313E+02  0.00000000000E+00 0.  1.
         21   -1    0    0  501  502  0.00000000000E+00 -0.00000000000E+00 -0.11691990011E+03  0.11691990011E+03  0.00000000000E+00 0.  1.
         24    2    1    2    0    0 -0.16777303682E+02  0.32055244584E+02  0.56703083943E+02  0.10475148130E+03  0.80303278148E+02 0.  0.
        -13    1    3    3    0    0 -0.28971751260E+02  0.34138593041E+02  0.72178847694E+02  0.84938754172E+02  0.00000000000E+00 0.  1.
         14    1    3    3    0    0  0.12194447578E+02 -0.20833484569E+01 -0.15475763750E+02  0.19812727126E+02  0.00000000000E+00 0. -1.
         -2    1    1    2    0  502  0.16777303682E+02 -0.32055244584E+02 -0.89372888736E+02  0.96418514120E+02  0.00000000000E+00 0.  1.
<mgrwt>
<rscale>  1 0.88077427E+02</rscale>
<asrwt>0</asrwt>
<pdfrwt beam="1">  1       21 0.17987677E-01 0.88077427E+02</pdfrwt>
<pdfrwt beam="2">  1       -1 0.12961553E-01 0.88077427E+02</pdfrwt>
<totfact> 0.98457212E+04</totfact>
</mgrwt>
</event>
<event>
 6    2  0.8544106E+000  0.9077926E+02  0.7546771E-02  0.1300976E+00
          2   -1    0    0  502    0 -0.00000000000E+00  0.00000000000E+00  0.15934976107E+04  0.15934976107E+04  0.00000000000E+00 0. -1.
         21   -1    0    0  501  502  0.00000000000E+00 -0.00000000000E+00 -0.27208794803E+01  0.27208794803E+01  0.00000000000E+00 0.  1.
         24    2    1    2    0    0  0.75786184875E+01 -0.40192992368E+02  0.11064948557E+04  0.11102124747E+04  0.81042959404E+02 0.  0.
        -13    1    3    3    0    0 -0.27813193926E+02 -0.43002700345E+01  0.16608441122E+03  0.16845206360E+03  0.00000000000E+00 0.  1.
         14    1    3    3    0    0  0.35391812413E+02 -0.35892722334E+02  0.94041044445E+03  0.94176041111E+03  0.00000000000E+00 0. -1.
          1    1    1    2  501    0 -0.75786184875E+01  0.40192992368E+02  0.48428187550E+03  0.48600601543E+03  0.00000000000E+00 0. -1.
<mgrwt>
<rscale>  1 0.90779256E+02</rscale>
<asrwt>0</asrwt>
<pdfrwt beam="1">  1       21 0.41859812E-03 0.90779256E+02</pdfrwt>
<pdfrwt beam="2">  1        2 0.24515273E+00 0.90779256E+02</pdfrwt>
<totfact> 0.21995047E+06</totfact>
</mgrwt>
</event>
<event>
 6    2  0.8544106E+000  0.1218842E+03  0.7546771E-02  0.1240021E+00
          2   -1    0    0  502    0 -0.00000000000E+00  0.00000000000E+00  0.19132906232E+03  0.19132906232E+03  0.00000000000E+00 0. -1.
         21   -1    0    0  501  502  0.00000000000E+00 -0.00000000000E+00 -0.59539779765E+02  0.59539779765E+02  0.00000000000E+00 0. -1.
         24    2    1    2    0    0  0.87334000420E+02 -0.27554692465E+02  0.75755669681E+02  0.14350844679E+03  0.80431735681E+02 0.  0.
        -13    1    3    3    0    0  0.21413447977E+02 -0.48227839417E+02  0.34386213267E+02  0.62983108148E+02  0.00000000000E+00 0.  1.
         14    1    3    3    0    0  0.65920552443E+02  0.20673146952E+02  0.41369456414E+02  0.80525338641E+02  0.00000000000E+00 0. -1.
          1    1    1    2  501    0 -0.87334000420E+02  0.27554692465E+02  0.56033612871E+02  0.10736039529E+03  0.00000000000E+00 0. -1.
<mgrwt>
<rscale>  1 0.12188418E+03</rscale>
<asrwt>0</asrwt>
<pdfrwt beam="1">  1       21 0.91599662E-02 0.12188418E+03</pdfrwt>
<pdfrwt beam="2">  1        2 0.29435240E-01 0.12188418E+03</pdfrwt>
<totfact> 0.20447217E+05</totfact>
</mgrwt>
</event>
<event>
 6    2  0.8544106E+000  0.8609213E+02  0.7546771E-02  0.1312601E+00
          2   -1    0    0  502    0 -0.00000000000E+00  0.00000000000E+00  0.23477413166E+03  0.23477413166E+03  0.00000000000E+00 0. -1.
         21   -1    0    0  501  502  0.00000000000E+00 -0.00000000000E+00 -0.15762721131E+02  0.15762721131E+02  0.00000000000E+00 0.  1.
         24    2    1    2    0    0  0.30881389912E+02  0.12435658994E+02  0.17789788879E+03  0.19763479681E+03  0.79394887842E+02 0.  0.
        -11    1    3    3    0    0  0.32548943371E+02  0.34951788662E+02  0.55718111382E+02  0.73386437311E+02  0.00000000000E+00 0.  1.
         12    1    3    3    0    0 -0.16675534586E+01 -0.22516129669E+02  0.12217977741E+03  0.12424835950E+03  0.00000000000E+00 0. -1.
          1    1    1    2  501    0 -0.30881389912E+02 -0.12435658994E+02  0.41113521733E+02  0.52902055979E+02  0.00000000000E+00 0. -1.
<mgrwt>
<rscale>  1 0.86092125E+02</rscale>
<asrwt>0</asrwt>
<pdfrwt beam="1">  1       21 0.24250342E-02 0.86092125E+02</pdfrwt>
<pdfrwt beam="2">  1        2 0.36119095E-01 0.86092125E+02</pdfrwt>
<totfact> 0.14634428E+06</totfact>
</mgrwt>
</event>
<event>
 6    2  0.8544106E+000  0.8448360E+02  0.7546771E-02  0.1316789E+00
         21   -1    0    0  501  502  0.00000000000E+00  0.00000000000E+00  0.13100189173E+02  0.13100189173E+02  0.00000000000E+00 0.  1.
          2   -1    0    0  502    0 -0.00000000000E+00 -0.00000000000E+00 -0.10384142881E+04  0.10384142881E+04  0.00000000000E+00 0. -1.
         24    2    1    2    0    0 -0.27855683354E+02 -0.92308197377E+00 -0.10195618058E+04  0.10230560857E+04  0.79753918240E+02 0.  0.
        -13    1    3    3    0    0 -0.49733221824E+02  0.70629478042E+01 -0.41243401602E+03  0.41548176393E+03  0.00000000000E+00 0.  1.
         14    1    3    3    0    0  0.21877538470E+02 -0.79860297780E+01 -0.60712778977E+03  0.60757432177E+03  0.00000000000E+00 0. -1.
          1    1    1    2  501    0  0.27855683354E+02  0.92308197377E+00 -0.57522931490E+01  0.28458391590E+02  0.00000000000E+00 0. -1.
<mgrwt>
<rscale>  1 0.84483600E+02</rscale>
<asrwt>0</asrwt>
<pdfrwt beam="1">  1       21 0.20154138E-02 0.84483600E+02</pdfrwt>
<pdfrwt beam="2">  1        2 0.15975604E+00 0.84483600E+02</pdfrwt>
<totfact> 0.37212411E+05</totfact>
</mgrwt>
</event>
<event>
 6    2  0.8544106E+000  0.8169053E+02  0.7546771E-02  0.1324321E+00
         21   -1    0    0  501  502  0.00000000000E+00  0.00000000000E+00  0.65441191725E+01  0.65441191725E+01  0.00000000000E+00 0. -1.
         -3   -1    0    0    0  501 -0.00000000000E+00 -0.00000000000E+00 -0.39986768143E+03  0.39986768143E+03  0.00000000000E+00 0.  1.
         24    2    1    2    0    0 -0.40051511892E+01 -0.20138197779E+02 -0.32079450988E+03  0.33103241559E+03  0.79068036255E+02 0.  0.
        -11    1    3    3    0    0 -0.30888029326E+02  0.17065332240E+02 -0.15785630150E+03  0.16175261310E+03  0.00000000000E+00 0.  1.
         12    1    3    3    0    0  0.26882878136E+02 -0.37203530020E+02 -0.16293820838E+03  0.16927980249E+03  0.00000000000E+00 0. -1.
         -4    1    1    2    0  502  0.40051511892E+01  0.20138197779E+02 -0.72529052375E+02  0.75379385008E+02  0.00000000000E+00 0.  1.
<mgrwt>
<rscale>  1 0.81690529E+02</rscale>
<asrwt>0</asrwt>
<pdfrwt beam="1">  1       21 0.10067875E-02 0.81690529E+02</pdfrwt>
<pdfrwt beam="2">  1       -3 0.61518111E-01 0.81690529E+02</pdfrwt>
<totfact> 0.41937415E+05</totfact>
</mgrwt>
</event>
<event>
 6    2  0.8544106E+000  0.6721434E+02  0.7546771E-02  0.1369830E+00
          2   -1    0    0  502    0 -0.00000000000E+00  0.00000000000E+00  0.56166043949E+03  0.56166043949E+03  0.00000000000E+00 0. -1.
         21   -1    0    0  501  502  0.00000000000E+00 -0.00000000000E+00 -0.38998423153E+01  0.38998423153E+01  0.00000000000E+00 0. -1.
         24    2    1    2    0    0  0.98586615377E+01  0.17927153150E+02  0.49516386358E+03  0.49970493211E+03  0.64024927545E+02 0.  0.
        -13    1    3    3    0    0  0.34646909539E+02 -0.29595041744E+01  0.26329093912E+03  0.26557726866E+03  0.00000000000E+00 0.  1.
         14    1    3    3    0    0 -0.24788248001E+02  0.20886657324E+02  0.23187292446E+03  0.23412766345E+03  0.00000000000E+00 0. -1.
          1    1    1    2  501    0 -0.98586615377E+01 -0.17927153150E+02  0.62596733588E+02  0.65855349694E+02  0.00000000000E+00 0. -1.
<mgrwt>
<rscale>  1 0.67214339E+02</rscale>
<asrwt>0</asrwt>
<pdfrwt beam="1">  1       21 0.59997619E-03 0.67214339E+02</pdfrwt>
<pdfrwt beam="2">  1        2 0.86409234E-01 0.67214339E+02</pdfrwt>
<totfact> 0.50502943E+06</totfact>
</mgrwt>
</event>
<event>
 6    2  0.8544106E+000  0.1019168E+03  0.7546771E-02  0.1276316E+00
         21   -1    0    0  501  502  0.00000000000E+00  0.00000000000E+00  0.68944117428E+01  0.68944117428E+01  0.00000000000E+00 0. -1.
          2   -1    0    0  502    0 -0.00000000000E+00 -0.00000000000E+00 -0.11276376540E+04  0.11276376540E+04  0.00000000000E+00 0. -1.
         24    2    1    2    0    0 -0.38900456901E+02 -0.58960892396E+02 -0.54249660013E+03  0.55198695032E+03  0.73466997928E+02 0.  0.
        -11    1    3    3    0    0 -0.11184382996E+02  0.17066535406E+02 -0.87254515382E+02  0.89608635233E+02  0.00000000000E+00 0.  1.
         12    1    3    3    0    0 -0.27716073905E+02 -0.76027427803E+02 -0.45524208475E+03  0.46237831508E+03  0.00000000000E+00 0. -1.
          1    1    1    2  501    0  0.38900456901E+02  0.58960892396E+02 -0.57824664215E+03  0.58254511546E+03  0.00000000000E+00 0. -1.
<mgrwt>
<rscale>  1 0.10191679E+03</rscale>
<asrwt>0</asrwt>
<pdfrwt beam="1">  1       21 0.10606789E-02 0.10191679E+03</pdfrwt>
<pdfrwt beam="2">  1        2 0.17348270E+00 0.10191679E+03</pdfrwt>
<totfact> 0.92596851E+05</totfact>
</mgrwt>
</event>
<event>
 6    2  0.8544106E+000  0.8260572E+02  0.7546771E-02  0.1321815E+00
         21   -1    0    0  501  502  0.00000000000E+00  0.00000000000E+00  0.19669866501E+01  0.19669866501E+01  0.00000000000E+00 0.  1.
          2   -1    0    0  502    0 -0.00000000000E+00 -0.00000000000E+00 -0.14481809880E+04  0.14481809880E+04  0.00000000000E+00 0. -1.
         24    2    1    2    0    0 -0.36559483045E+01  0.22473165438E+02 -0.10273902474E+04  0.10307057903E+04  0.79405897917E+02 0.  0.
        -13    1    3    3    0    0  0.11673096242E+02  0.18067415309E+02 -0.71101014807E+02  0.74283557928E+02  0.00000000000E+00 0.  1.
         14    1    3    3    0    0 -0.15329044547E+02  0.44057501286E+01 -0.95628923260E+03  0.95642223240E+03  0.00000000000E+00 0. -1.
          1    1    1    2  501    0  0.36559483045E+01 -0.22473165438E+02 -0.41882375389E+03  0.41944218427E+03  0.00000000000E+00 0. -1.
<mgrwt>
<rscale>  1 0.82605725E+02</rscale>
<asrwt>0</asrwt>
<pdfrwt beam="1">  1       21 0.30261333E-03 0.82605725E+02</pdfrwt>
<pdfrwt beam="2">  1        2 0.22279708E+00 0.82605725E+02</pdfrwt>
<totfact> 0.42306996E+06</totfact>
</mgrwt>
</event>
<event>
 6    2  0.8544106E+000  0.9178520E+02  0.7546771E-02  0.1298585E+00
         -1   -1    0    0    0  501 -0.00000000000E+00  0.00000000000E+00  0.92163382279E+03  0.92163382279E+03  0.00000000000E+00 0.  1.
         21   -1    0    0  501  502  0.00000000000E+00 -0.00000000000E+00 -0.77497119843E+01  0.77497119843E+01  0.00000000000E+00 0.  1.
         24    2    1    2    0    0  0.42523459377E+02  0.36541722538E+01  0.83196652307E+03  0.83701422844E+03  0.81258387439E+02 0.  0.
        -13    1    3    3    0    0 -0.23877458265E+02  0.72608436208E+01  0.25997356899E+03  0.26116873748E+03  0.00000000000E+00 0.  1.
         14    1    3    3    0    0  0.66400917642E+02 -0.36066713670E+01  0.57199295408E+03  0.57584549096E+03  0.00000000000E+00 0. -1.
         -2    1    1    2    0  502 -0.42523459377E+02 -0.36541722538E+01  0.81917587735E+02  0.92369306334E+02  0.00000000000E+00 0.  1.
<mgrwt>
<rscale>  1 0.91785201E+02</rscale>
<asrwt>0</asrwt>
<pdfrwt beam="1">  1       21 0.11922641E-02 0.91785201E+02</pdfrwt>
<pdfrwt beam="2">  1       -1 0.14178973E+00 0.91785201E+02</pdfrwt>
<totfact> 0.11309798E+05</totfact>
</mgrwt>
</event>
<event>
 6    2  0.8544106E+000  0.9088504E+02  0.7546771E-02  0.1300722E+00
         21   -1    0    0  501  502  0.00000000000E+00  0.00000000000E+00  0.58742055934E+02  0.58742055934E+02  0.00000000000E+00 0.  1.
          4   -1    0    0  502    0 -0.00000000000E+00 -0.00000000000E+00 -0.94139375208E+02  0.94139375208E+02  0.00000000000E+00 0. -1.
         24    2    1    2    0    0 -0.23088420750E+02  0.20091509940E+02 -0.63866745618E+02  0.11108128544E+03  0.85576555404E+02 0.  0.
        -11    1    3    3    0    0 -0.42870729638E+02  0.42026707462E+02 -0.51353663210E+02  0.79002166584E+02  0.00000000000E+00 0.  1.
         12    1    3    3    0    0  0.19782308888E+02 -0.21935197522E+02 -0.12513082407E+02  0.32079118856E+02  0.00000000000E+00 0. -1.
          3    1    1    2  501    0  0.23088420750E+02 -0.20091509940E+02  0.28469426343E+02  0.41800145702E+02  0.00000000000E+00 0. -1.
<mgrwt>
<rscale>  1 0.90885042E+02</rscale>
<asrwt>0</asrwt>
<pdfrwt beam="1">  1       21 0.90372395E-02 0.90885042E+02</pdfrwt>
<pdfrwt beam="2">  1        4 0.14482981E-01 0.90885042E+02</pdfrwt>
<totfact> 0.14634025E+05</totfact>
</mgrwt>
</event>
<event>
 6    2  0.8544106E+000  0.8483372E+02  0.7546771E-02  0.1315868E+00
          2   -1    0    0  502    0 -0.00000000000E+00  0.00000000000E+00  0.25040953867E+04  0.25040953867E+04  0.00000000000E+00 0. -1.
         21   -1    0    0  501  502  0.00000000000E+00 -0.00000000000E+00 -0.14566521068E+01  0.14566521068E+01  0.00000000000E+00 0.  1.
         24    2    1    2    0    0 -0.12590298407E+02 -0.24802366725E+02  0.22007965036E+04  0.22024309320E+04  0.80144162339E+02 0.  0.
        -13    1    3    3    0    0 -0.26733153290E+02  0.12251735366E+02  0.35738373631E+03  0.35859155244E+03  0.00000000000E+00 0.  1.
         14    1    3    3    0    0  0.14142854883E+02 -0.37054102091E+02  0.18434127673E+04  0.18438393796E+04  0.00000000000E+00 0. -1.
          1    1    1    2  501    0  0.12590298407E+02  0.24802366725E+02  0.30184223098E+03  0.30312110684E+03  0.00000000000E+00 0. -1.
<mgrwt>
<rscale>  1 0.84833718E+02</rscale>
<asrwt>0</asrwt>
<pdfrwt beam="1">  1       21 0.22410233E-03 0.84833718E+02</pdfrwt>
<pdfrwt beam="2">  1        2 0.38524200E+00 0.84833718E+02</pdfrwt>
<totfact> 0.19469341E+06</totfact>
</mgrwt>
</event>
<event>
 6    2  0.8544106E+000  0.1033360E+03  0.7546771E-02  0.1273433E+00
         -1   -1    0    0    0  501 -0.00000000000E+00  0.00000000000E+00  0.25422974639E+03  0.25422974639E+03  0.00000000000E+00 0.  1.
         21   -1    0    0  501  502  0.00000000000E+00 -0.00000000000E+00 -0.32904438353E+02  0.32904438353E+02  0.00000000000E+00 0.  1.
         24    2    1    2    0    0 -0.50262637888E+02  0.43946510095E+02  0.79497128366E+02  0.13037685297E+03  0.78871426092E+02 0.  0.
        -13    1    3    3    0    0 -0.47172019807E+02  0.45747402205E+02  0.94417649006E+02  0.11503354600E+03  0.00000000000E+00 0.  1.
         14    1    3    3    0    0 -0.30906180814E+01 -0.18008921105E+01 -0.14920520640E+02  0.15343306967E+02  0.00000000000E+00 0. -1.
         -2    1    1    2    0  502  0.50262637888E+02 -0.43946510095E+02  0.14182817967E+03  0.15675733178E+03  0.00000000000E+00 0.  1.
<mgrwt>
<rscale>  1 0.10333601E+03</rscale>
<asrwt>0</asrwt>
<pdfrwt beam="1">  1       21 0.50622215E-02 0.10333601E+03</pdfrwt>
<pdfrwt beam="2">  1       -1 0.39112267E-01 0.10333601E+03</pdfrwt>
<totfact> 0.15026434E+05</totfact>
</mgrwt>
</event>
<event>
 6    2  0.8544106E+000  0.9806808E+02  0.7546771E-02  0.1284412E+00
         21   -1    0    0  501  502  0.00000000000E+00  0.00000000000E+00  0.15933654729E+02  0.15933654729E+02  0.00000000000E+00 0. -1.
          2   -1    0    0  502    0 -0.00000000000E+00 -0.00000000000E+00 -0.27510811855E+04  0.27510811855E+04  0.00000000000E+00 0. -1.
         24    2    1    2    0    0  0.35257113285E+02  0.43525251925E+02 -0.26980472937E+04  0.26998289847E+04  0.80497428627E+02 0.  0.
        -11    1    3    3    0    0  0.24446633712E+01 -0.23313789352E+02 -0.71581483817E+03  0.71619857002E+03  0.00000000000E+00 0.  1.
         12    1    3    3    0    0  0.32812449914E+02  0.66839041277E+02 -0.19822324555E+04  0.19836304147E+04  0.00000000000E+00 0. -1.
          1    1    1    2  501    0 -0.35257113285E+02 -0.43525251925E+02 -0.37100237080E+02  0.67185855533E+02  0.00000000000E+00 0. -1.
<mgrwt>
<rscale>  1 0.98068076E+02</rscale>
<asrwt>0</asrwt>
<pdfrwt beam="1">  1       21 0.24513329E-02 0.98068076E+02</pdfrwt>
<pdfrwt beam="2">  1        2 0.42324302E+00 0.98068076E+02</pdfrwt>
<totfact> 0.35049521E+04</totfact>
</mgrwt>
</event>
<event>
 6    2  0.8544106E+000  0.8312272E+02  0.7546771E-02  0.1320416E+00
          2   -1    0    0  502    0 -0.00000000000E+00  0.00000000000E+00  0.13827471480E+04  0.13827471480E+04  0.00000000000E+00 0. -1.
         21   -1    0    0  501  502  0.00000000000E+00 -0.00000000000E+00 -0.35023224233E+01  0.35023224233E+01  0.00000000000E+00 0. -1.
         24    2    1    2    0    0 -0.15138600588E+02 -0.16315535321E+02  0.13251549060E+04  0.13277593574E+04  0.80087529524E+02 0.  0.
        -11    1    3    3    0    0  0.54656423978E+01  0.10135390355E+02  0.29457521770E+02  0.31628230638E+02  0.00000000000E+00 0.  1.
         12    1    3    3    0    0 -0.20604242986E+02 -0.26450925676E+02  0.12956973842E+04  0.12961311268E+04  0.00000000000E+00 0. -1.
          1    1    1    2  501    0  0.15138600588E+02  0.16315535321E+02  0.54089919647E+02  0.58490113079E+02  0.00000000000E+00 0. -1.
<mgrwt>
<rscale>  1 0.83122718E+02</rscale>
<asrwt>0</asrwt>
<pdfrwt beam="1">  1       21 0.53881994E-03 0.83122718E+02</pdfrwt>
<pdfrwt beam="2">  1        2 0.21272989E+00 0.83122718E+02</pdfrwt>
<totfact> 0.19022162E+06</totfact>
</mgrwt>
</event>
<event>
 6    2  0.8544106E+000  0.1478911E+03  0.7546771E-02  0.1203089E+00
         21   -1    0    0  501  502  0.00000000000E+00  0.00000000000E+00  0.14344413375E+02  0.14344413375E+02  0.00000000000E+00 0. -1.
          2   -1    0    0  502    0 -0.00000000000E+00 -0.00000000000E+00 -0.31816399075E+04  0.31816399075E+04  0.00000000000E+00 0. -1.
         24    2    1    2    0    0 -0.11279024523E+03 -0.52104308131E+02 -0.40942581924E+03  0.43531743732E+03  0.80220143507E+02 0.  0.
        -13    1    3    3    0    0  0.17492958382E+01 -0.31337606740E+02 -0.93579956057E+02  0.98703160070E+02  0.00000000000E+00 0.  1.
         14    1    3    3    0    0 -0.11453954107E+03 -0.20766701391E+02 -0.31584586319E+03  0.33661427725E+03  0.00000000000E+00 0. -1.
          1    1    1    2  501    0  0.11279024523E+03  0.52104308131E+02 -0.27578696749E+04  0.27606668836E+04  0.00000000000E+00 0. -1.
<mgrwt>
<rscale>  1 0.14789107E+03</rscale>
<asrwt>0</asrwt>
<pdfrwt beam="1">  1       21 0.22068300E-02 0.14789107E+03</pdfrwt>
<pdfrwt beam="2">  1        2 0.48948369E+00 0.14789107E+03</pdfrwt>
<totfact> 0.22930465E+04</totfact>
</mgrwt>
</event>
<event>
 6    2  0.8544106E+000  0.1003810E+03  0.7546771E-02  0.1279497E+00
         21   -1    0    0  501  502  0.00000000000E+00  0.00000000000E+00  0.10407270600E+02  0.10407270600E+02  0.00000000000E+00 0. -1.
          2   -1    0    0  502    0 -0.00000000000E+00 -0.00000000000E+00 -0.66036351324E+03  0.66036351324E+03  0.00000000000E+00 0. -1.
         24    2    1    2    0    0 -0.16894909763E+02  0.58491777337E+02 -0.47596488198E+03  0.48643489592E+03  0.79809855881E+02 0.  0.
        -13    1    3    3    0    0 -0.13063780893E+02 -0.45879860565E+01 -0.12414420593E+02  0.18596500368E+02  0.00000000000E+00 0.  1.
         14    1    3    3    0    0 -0.38311288701E+01  0.63079763394E+02 -0.46355046139E+03  0.46783839555E+03  0.00000000000E+00 0. -1.
          1    1    1    2  501    0  0.16894909763E+02 -0.58491777337E+02 -0.17399136066E+03  0.18433588792E+03  0.00000000000E+00 0. -1.
<mgrwt>
<rscale>  1 0.10038097E+03</rscale>
<asrwt>0</asrwt>
<pdfrwt beam="1">  1       21 0.16011180E-02 0.10038097E+03</pdfrwt>
<pdfrwt beam="2">  1        2 0.10159442E+00 0.10038097E+03</pdfrwt>
<totfact> 0.95573581E+05</totfact>
</mgrwt>
</event>
<event>
 6    2  0.8544106E+000  0.7331151E+02  0.7546771E-02  0.1349181E+00
          2   -1    0    0  502    0 -0.00000000000E+00  0.00000000000E+00  0.25526125852E+04  0.25526125852E+04  0.00000000000E+00 0. -1.
         21   -1    0    0  501  502  0.00000000000E+00 -0.00000000000E+00 -0.11378817994E+01  0.11378817994E+01  0.00000000000E+00 0.  1.
         24    2    1    2    0    0 -0.24457324897E+02  0.21679255374E+02  0.15337164608E+04  0.15354676029E+04  0.65623370044E+02 0.  0.
        -13    1    3    3    0    0 -0.35304728429E+02 -0.91649388754E+01  0.55013222267E+03  0.55134007869E+03  0.00000000000E+00 0.  1.
         14    1    3    3    0    0  0.10847403533E+02  0.30844194250E+02  0.98358423812E+03  0.98412752424E+03  0.00000000000E+00 0. -1.
          1    1    1    2  501    0  0.24457324897E+02 -0.21679255374E+02  0.10177582427E+04  0.10182828641E+04  0.00000000000E+00 0. -1.
<mgrwt>
<rscale>  1 0.73311510E+02</rscale>
<asrwt>0</asrwt>
<pdfrwt beam="1">  1       21 0.17506078E-03 0.73311510E+02</pdfrwt>
<pdfrwt beam="2">  1        2 0.39270504E+00 0.73311510E+02</pdfrwt>
<totfact> 0.26329558E+06</totfact>
</mgrwt>
</event>
<event>
 6    2  0.8544106E+000  0.9814882E+02  0.7546771E-02  0.1284238E+00
          2   -1    0    0  502    0 -0.00000000000E+00  0.00000000000E+00  0.20320816336E+04  0.20320816336E+04  0.00000000000E+00 0. -1.
         21   -1    0    0  501  502  0.00000000000E+00 -0.00000000000E+00 -0.28123788588E+01  0.28123788588E+01  0.00000000000E+00 0.  1.
         24    2    1    2    0    0 -0.42159084737E+02 -0.31855689668E+02  0.12677191859E+04  0.12715129276E+04  0.82710442680E+02 0.  0.
        -11    1    3    3    0    0 -0.40853380837E+02  0.14651224023E+02  0.36077742176E+03  0.36337859753E+03  0.00000000000E+00 0.  1.
         12    1    3    3    0    0 -0.13057038997E+01 -0.46506913691E+02  0.90694176416E+03  0.90813433007E+03  0.00000000000E+00 0. -1.
          1    1    1    2  501    0  0.42159084737E+02  0.31855689668E+02  0.76155006878E+03  0.76338108481E+03  0.00000000000E+00 0. -1.
<mgrwt>
<rscale>  1 0.98148819E+02</rscale>
<asrwt>0</asrwt>
<pdfrwt beam="1">  1       21 0.43267529E-03 0.98148819E+02</pdfrwt>
<pdfrwt beam="2">  1        2 0.31262677E+00 0.98148819E+02</pdfrwt>
<totfact> 0.12640834E+06</totfact>
</mgrwt>
</event>
<event>
 6    2  0.8544106E+000  0.9267820E+02  0.7546771E-02  0.1296493E+00
         21   -1    0    0  501  502  0.00000000000E+00  0.00000000000E+00  0.18273400259E+01  0.18273400259E+01  0.00000000000E+00 0.  1.
          2   -1    0    0  502    0 -0.00000000000E+00 -0.00000000000E+00 -0.22602823469E+04  0.22602823469E+04  0.00000000000E+00 0. -1.
         24    2    1    2    0    0  0.20380445788E+02  0.21748568593E+02 -0.13564575356E+04  0.13596199080E+04  0.87754690188E+02 0.  0.
        -11    1    3    3    0    0  0.49545145102E+02  0.29354656966E+01 -0.49946854783E+03  0.50192844972E+03  0.00000000000E+00 0.  1.
         12    1    3    3    0    0 -0.29164699315E+02  0.18813102897E+02 -0.85698898776E+03  0.85769145832E+03  0.00000000000E+00 0. -1.
          1    1    1    2  501    0 -0.20380445788E+02 -0.21748568593E+02 -0.90199747132E+03  0.90248977893E+03  0.00000000000E+00 0. -1.
<mgrwt>
<rscale>  1 0.92678198E+02</rscale>
<asrwt>0</asrwt>
<pdfrwt beam="1">  1       21 0.28112819E-03 0.92678198E+02</pdfrwt>
<pdfrwt beam="2">  1        2 0.34773703E+00 0.92678198E+02</pdfrwt>
<totfact> 0.18587458E+06</totfact>
</mgrwt>
</event>
<event>
 6    2  0.8544106E+000  0.8808406E+02  0.7546771E-02  0.1307559E+00
          2   -1    0    0  502    0 -0.00000000000E+00  0.00000000000E+00  0.31557160438E+02  0.31557160438E+02  0.00000000000E+00 0. -1.
         21   -1    0    0  501  502  0.00000000000E+00 -0.00000000000E+00 -0.12563079362E+03  0.12563079362E+03  0.00000000000E+00 0.  1.
         24    2    1    2    0    0  0.36447984268E+02 -0.73176025051E+01 -0.58545480795E+02  0.10576565855E+03  0.79854857976E+02 0.  0.
        -13    1    3    3    0    0  0.63376843675E+00  0.12483361513E+02 -0.63340622463E+02  0.64562143947E+02  0.00000000000E+00 0.  1.
         14    1    3    3    0    0  0.35814215831E+02 -0.19800964018E+02  0.47951416676E+01  0.41203514598E+02  0.00000000000E+00 0. -1.
          1    1    1    2  501    0 -0.36447984268E+02  0.73176025051E+01 -0.35528152383E+02  0.51422295508E+02  0.00000000000E+00 0. -1.
<mgrwt>
<rscale>  1 0.88084058E+02</rscale>
<asrwt>0</asrwt>
<pdfrwt beam="1">  1       21 0.19327814E-01 0.88084058E+02</pdfrwt>
<pdfrwt beam="2">  1        2 0.48549478E-02 0.88084058E+02</pdfrwt>
<totfact> 0.45233508E+05</totfact>
</mgrwt>
</event>
<event>
 6    2  0.8544106E+000  0.1201601E+03  0.7546771E-02  0.1242833E+00
         21   -1    0    0  501  502  0.00000000000E+00  0.00000000000E+00  0.13982915480E+02  0.13982915480E+02  0.00000000000E+00 0. -1.
          2   -1    0    0  502    0 -0.00000000000E+00 -0.00000000000E+00 -0.93832344114E+03  0.93832344114E+03  0.00000000000E+00 0. -1.
         24    2    1    2    0    0  0.11130620855E+02  0.92332588091E+02 -0.33993644840E+03  0.36054853194E+03  0.76087169707E+02 0.  0.
        -11    1    3    3    0    0  0.79961266858E+01  0.10235921540E+02 -0.24651492437E+01  0.13220782600E+02  0.00000000000E+00 0.  1.
         12    1    3    3    0    0  0.31344941695E+01  0.82096666551E+02 -0.33747129915E+03  0.34732774934E+03  0.00000000000E+00 0. -1.
          1    1    1    2  501    0 -0.11130620855E+02 -0.92332588091E+02 -0.58440407727E+03  0.59175782468E+03  0.00000000000E+00 0. -1.
<mgrwt>
<rscale>  1 0.12016012E+03</rscale>
<asrwt>0</asrwt>
<pdfrwt beam="1">  1       21 0.21512172E-02 0.12016012E+03</pdfrwt>
<pdfrwt beam="2">  1        2 0.14435749E+00 0.12016012E+03</pdfrwt>
<totfact> 0.39114260E+05</totfact>
</mgrwt>
</event>
<event>
 6    2  0.8544106E+000  0.1024227E+03  0.7546771E-02  0.1275282E+00
         21   -1    0    0  501  502  0.00000000000E+00  0.00000000000E+00  0.23271060267E+02  0.23271060267E+02  0.00000000000E+00 0. -1.
         -3   -1    0    0    0  501 -0.00000000000E+00 -0.00000000000E+00 -0.37071908572E+03  0.37071908572E+03  0.00000000000E+00 0.  1.
         24    2    1    2    0    0 -0.61155386278E+02  0.13125595835E+02 -0.11839044321E+03  0.15654617676E+03  0.81105769705E+02 0.  0.
        -13    1    3    3    0    0 -0.12013182469E+02  0.35018798581E+02 -0.14900496690E+02  0.39908114572E+02  0.00000000000E+00 0.  1.
         14    1    3    3    0    0 -0.49142203808E+02 -0.21893202745E+02 -0.10348994652E+03  0.11663806219E+03  0.00000000000E+00 0. -1.
         -4    1    1    2    0  502  0.61155386278E+02 -0.13125595835E+02 -0.22905758225E+03  0.23744396923E+03  0.00000000000E+00 0.  1.
<mgrwt>
<rscale>  1 0.10242269E+03</rscale>
<asrwt>0</asrwt>
<pdfrwt beam="1">  1       21 0.35801632E-02 0.10242269E+03</pdfrwt>
<pdfrwt beam="2">  1       -3 0.57033704E-01 0.10242269E+03</pdfrwt>
<totfact> 0.66645018E+04</totfact>
</mgrwt>
</event>
<event>
 6    2  0.8544106E+000  0.8632641E+02  0.7546771E-02  0.1312000E+00
         21   -1    0    0  501  502  0.00000000000E+00  0.00000000000E+00  0.30431338758E+01  0.30431338758E+01  0.00000000000E+00 0.  1.
          2   -1    0    0  502    0 -0.00000000000E+00 -0.00000000000E+00 -0.11966956066E+04  0.11966956066E+04  0.00000000000E+00 0. -1.
         24    2    1    2    0    0  0.25146064917E+02  0.83608752938E+01 -0.68836891574E+03  0.69376077478E+03  0.82158503166E+02 0.  0.
        -13    1    3    3    0    0  0.30146914651E+02 -0.14128947118E+02 -0.10987934035E+03  0.11481259968E+03  0.00000000000E+00 0.  1.
         14    1    3    3    0    0 -0.50008497347E+01  0.22489822412E+02 -0.57848957539E+03  0.57894817509E+03  0.00000000000E+00 0. -1.
          1    1    1    2  501    0 -0.25146064917E+02 -0.83608752938E+01 -0.50528355702E+03  0.50597796573E+03  0.00000000000E+00 0. -1.
<mgrwt>
<rscale>  1 0.86326406E+02</rscale>
<asrwt>0</asrwt>
<pdfrwt beam="1">  1       21 0.46817397E-03 0.86326406E+02</pdfrwt>
<pdfrwt beam="2">  1        2 0.18410720E+00 0.86326406E+02</pdfrwt>
<totfact> 0.29687917E+06</totfact>
</mgrwt>
</event>
<event>
 6    2  0.8544106E+000  0.9225082E+02  0.7546771E-02  0.1297491E+00
         21   -1    0    0  501  502  0.00000000000E+00  0.00000000000E+00  0.15014322131E+02  0.15014322131E+02  0.00000000000E+00 0.  1.
          2   -1    0    0  502    0 -0.00000000000E+00 -0.00000000000E+00 -0.40298907629E+03  0.40298907629E+03  0.00000000000E+00 0. -1.
         24    2    1    2    0    0 -0.37668364856E+02  0.14510828063E+02 -0.14612742116E+03  0.17281040847E+03  0.82950251469E+02 0.  0.
        -11    1    3    3    0    0 -0.20170493338E+02  0.76435299290E+01  0.36338183023E+01  0.21874116822E+02  0.00000000000E+00 0.  1.
         12    1    3    3    0    0 -0.17497871518E+02  0.68672981342E+01 -0.14976123946E+03  0.15093629165E+03  0.00000000000E+00 0. -1.
          1    1    1    2  501    0  0.37668364856E+02 -0.14510828063E+02 -0.24184733300E+03  0.24519298995E+03  0.00000000000E+00 0. -1.
<mgrwt>
<rscale>  1 0.92250821E+02</rscale>
<asrwt>0</asrwt>
<pdfrwt beam="1">  1       21 0.23098959E-02 0.92250821E+02</pdfrwt>
<pdfrwt beam="2">  1        2 0.61998315E-01 0.92250821E+02</pdfrwt>
<totfact> 0.90551129E+05</totfact>
</mgrwt>
</event>
<event>
 6    2  0.8544106E+000  0.1265416E+03  0.7546771E-02  0.1232679E+00
          2   -1    0    0  502    0 -0.00000000000E+00  0.00000000000E+00  0.27226318386E+03  0.27226318386E+03  0.00000000000E+00 0. -1.
         21   -1    0    0  501  502  0.00000000000E+00 -0.00000000000E+00 -0.49495226857E+02  0.49495226857E+02  0.00000000000E+00 0.  1.
         24    2    1    2    0    0  0.39398081023E+02  0.90141652495E+02  0.84871378955E+02  0.15236776003E+03  0.79593071480E+02 0.  0.
        -11    1    3    3    0    0  0.60581927161E+02  0.70087136913E+02  0.80775465352E+02  0.12291074999E+03  0.00000000000E+00 0.  1.
         12    1    3    3    0    0 -0.21183846138E+02  0.20054515582E+02  0.40959136030E+01  0.29457010043E+02  0.00000000000E+00 0. -1.
          1    1    1    2  501    0 -0.39398081023E+02 -0.90141652495E+02  0.13789657804E+03  0.16939065068E+03  0.00000000000E+00 0. -1.
<mgrwt>
<rscale>  1 0.12654163E+03</rscale>
<asrwt>0</asrwt>
<pdfrwt beam="1">  1       21 0.76146504E-02 0.12654163E+03</pdfrwt>
<pdfrwt beam="2">  1        2 0.41886643E-01 0.12654163E+03</pdfrwt>
<totfact> 0.19336619E+05</totfact>
</mgrwt>
</event>
<event>
 6    2  0.8544106E+000  0.8975991E+02  0.7546771E-02  0.1303434E+00
         21   -1    0    0  501  502  0.00000000000E+00  0.00000000000E+00  0.89879367472E+02  0.89879367472E+02  0.00000000000E+00 0.  1.
          2   -1    0    0  502    0 -0.00000000000E+00 -0.00000000000E+00 -0.56806918069E+02  0.56806918069E+02  0.00000000000E+00 0. -1.
         24    2    1    2    0    0 -0.18726917754E+02  0.74210703498E+01  0.63673231809E+02  0.11005054319E+03  0.87470405702E+02 0.  0.
        -11    1    3    3    0    0 -0.32995356370E+02 -0.30595315902E+02  0.49853187585E+02  0.67157331763E+02  0.00000000000E+00 0.  1.
         12    1    3    3    0    0  0.14268438616E+02  0.38016386251E+02  0.13820044224E+02  0.42893211427E+02  0.00000000000E+00 0. -1.
          1    1    1    2  501    0  0.18726917754E+02 -0.74210703498E+01 -0.30600782407E+02  0.36635742351E+02  0.00000000000E+00 0. -1.
<mgrwt>
<rscale>  1 0.89759911E+02</rscale>
<asrwt>0</asrwt>
<pdfrwt beam="1">  1       21 0.13827595E-01 0.89759911E+02</pdfrwt>
<pdfrwt beam="2">  1        2 0.87395258E-02 0.89759911E+02</pdfrwt>
<totfact> 0.39407582E+05</totfact>
</mgrwt>
</event>
<event>
 6    2  0.8544106E+000  0.9691241E+02  0.7546771E-02  0.1286926E+00
          4   -1    0    0  502    0 -0.00000000000E+00  0.00000000000E+00  0.12464096220E+03  0.12464096220E+03  0.00000000000E+00 0. -1.
         21   -1    0    0  501  502  0.00000000000E+00 -0.00000000000E+00 -0.55476009637E+02  0.55476009637E+02  0.00000000000E+00 0. -1.
         24    2    1    2    0    0  0.11935050166E+02 -0.52392149745E+02  0.79559660150E+02  0.12538642531E+03  0.80651307186E+02 0.  0.
        -13    1    3    3    0    0 -0.34572450615E+02 -0.21846874495E+02  0.39191928230E+02  0.56644042097E+02  0.00000000000E+00 0.  1.
         14    1    3    3    0    0  0.46507500781E+02 -0.30545275250E+02  0.40367731920E+02  0.68742383210E+02  0.00000000000E+00 0. -1.
          3    1    1    2  501    0 -0.11935050166E+02  0.52392149745E+02 -0.10394707589E+02  0.54730546528E+02  0.00000000000E+00 0. -1.
<mgrwt>
<rscale>  1 0.96912415E+02</rscale>
<asrwt>0</asrwt>
<pdfrwt beam="1">  1       21 0.85347707E-02 0.96912415E+02</pdfrwt>
<pdfrwt beam="2">  1        4 0.19175533E-01 0.96912415E+02</pdfrwt>
<totfact> 0.99842967E+04</totfact>
</mgrwt>
</event>
<event>
 6    2  0.8544106E+000  0.1029154E+03  0.7546771E-02  0.1274282E+00
         21   -1    0    0  501  502  0.00000000000E+00  0.00000000000E+00  0.50058935911E+01  0.50058935911E+01  0.00000000000E+00 0. -1.
          2   -1    0    0  502    0 -0.00000000000E+00 -0.00000000000E+00 -0.24084693500E+04  0.24084693500E+04  0.00000000000E+00 0. -1.
         24    2    1    2    0    0  0.48745447678E+02  0.40538765254E+02 -0.21406630738E+04  0.21431355476E+04  0.81068301303E+02 0.  0.
        -11    1    3    3    0    0 -0.69610619615E+01  0.39655777975E+02 -0.53802611712E+03  0.53953048090E+03  0.00000000000E+00 0.  1.
         12    1    3    3    0    0  0.55706509640E+02  0.88298727946E+00 -0.16026369567E+04  0.16036050667E+04  0.00000000000E+00 0. -1.
          1    1    1    2  501    0 -0.48745447678E+02 -0.40538765254E+02 -0.26280038264E+03  0.27033969607E+03  0.00000000000E+00 0. -1.
<mgrwt>
<rscale>  1 0.10291540E+03</rscale>
<asrwt>0</asrwt>
<pdfrwt beam="1">  1       21 0.77013539E-03 0.10291540E+03</pdfrwt>
<pdfrwt beam="2">  1        2 0.37053475E+00 0.10291540E+03</pdfrwt>
<totfact> 0.33365625E+05</totfact>
</mgrwt>
</event>
<event>
 6    2  0.8544106E+000  0.8510606E+02  0.7546771E-02  0.1315155E+00
         21   -1    0    0  501  502  0.00000000000E+00  0.00000000000E+00  0.20283115164E+03  0.20283115164E+03  0.00000000000E+00 0. -1.
         -1   -1    0    0    0  501 -0.00000000000E+00 -0.00000000000E+00 -0.14635915486E+02  0.14635915486E+02  0.00000000000E+00 0.  1.
         24    2    1    2    0    0 -0.11332055271E+02 -0.19627784111E+02  0.16061095699E+03  0.18176611696E+03  0.82032776276E+02 0.  0.
        -11    1    3    3    0    0  0.93907940965E+01  0.41141615830E+01 -0.62154008148E+01  0.11989351383E+02  0.00000000000E+00 0.  1.
         12    1    3    3    0    0 -0.20722849368E+02 -0.23741945694E+02  0.16682635781E+03  0.16977676558E+03  0.00000000000E+00 0. -1.
         -2    1    1    2    0  502  0.11332055271E+02  0.19627784111E+02  0.27584279158E+02  0.35700950162E+02  0.00000000000E+00 0.  1.
<mgrwt>
<rscale>  1 0.85106062E+02</rscale>
<asrwt>0</asrwt>
<pdfrwt beam="1">  1       21 0.31204791E-01 0.85106062E+02</pdfrwt>
<pdfrwt beam="2">  1       -1 0.22516795E-02 0.85106062E+02</pdfrwt>
<totfact> 0.46182692E+05</totfact>
</mgrwt>
</event>
<event>
 6    2  0.8544106E+000  0.1112317E+03  0.7546771E-02  0.1258306E+00
         -3   -1    0    0    0  501 -0.00000000000E+00  0.00000000000E+00  0.11213170813E+03  0.11213170813E+03  0.00000000000E+00 0.  1.
         21   -1    0    0  501  502  0.00000000000E+00 -0.00000000000E+00 -0.80000898510E+02  0.80000898510E+02  0.00000000000E+00 0. -1.
         24    2    1    2    0    0 -0.41143163603E+02  0.66210264111E+02  0.23671644166E+02  0.11372268084E+03  0.79346974826E+02 0.  0.
        -13    1    3    3    0    0  0.59061097666E+01 -0.63854880754E+01  0.25759781716E+02  0.27188654704E+02  0.00000000000E+00 0.  1.
         14    1    3    3    0    0 -0.47049273369E+02  0.72595752187E+02 -0.20881375508E+01  0.86534026132E+02  0.00000000000E+00 0. -1.
         -4    1    1    2    0  502  0.41143163603E+02 -0.66210264111E+02  0.84591654584E+01  0.78409925808E+02  0.00000000000E+00 0.  1.
<mgrwt>
<rscale>  1 0.11123175E+03</rscale>
<asrwt>0</asrwt>
<pdfrwt beam="1">  1       21 0.12307831E-01 0.11123175E+03</pdfrwt>
<pdfrwt beam="2">  1       -3 0.17251032E-01 0.11123175E+03</pdfrwt>
<totfact> 0.76192018E+04</totfact>
</mgrwt>
</event>
<event>
 6    2  0.8544106E+000  0.8651090E+02  0.7546771E-02  0.1311528E+00
         -1   -1    0    0    0  501 -0.00000000000E+00  0.00000000000E+00  0.52035091420E+02  0.52035091420E+02  0.00000000000E+00 0.  1.
         21   -1    0    0  501  502  0.00000000000E+00 -0.00000000000E+00 -0.12808873559E+03  0.12808873559E+03  0.00000000000E+00 0.  1.
         24    2    1    2    0    0 -0.58241088693E+01 -0.22683276400E+02  0.13500695188E+02  0.87558007345E+02  0.83280757726E+02 0.  0.
        -11    1    3    3    0    0 -0.77216733300E+01 -0.52079128923E+02  0.21755314318E+02  0.56966249740E+02  0.00000000000E+00 0.  1.
         12    1    3    3    0    0  0.18975644607E+01  0.29395852523E+02 -0.82546191297E+01  0.30591757605E+02  0.00000000000E+00 0. -1.
         -2    1    1    2    0  502  0.58241088693E+01  0.22683276400E+02 -0.89554339354E+02  0.92565819661E+02  0.00000000000E+00 0.  1.
<mgrwt>
<rscale>  1 0.86510900E+02</rscale>
<asrwt>0</asrwt>
<pdfrwt beam="1">  1       21 0.19705959E-01 0.86510900E+02</pdfrwt>
<pdfrwt beam="2">  1       -1 0.80053987E-02 0.86510900E+02</pdfrwt>
<totfact> 0.17245574E+05</totfact>
</mgrwt>
</event>
<event>
 6    2  0.8544106E+000  0.8358768E+02  0.7546771E-02  0.1319168E+00
         21   -1    0    0  501  502  0.00000000000E+00  0.00000000000E+00  0.62590334210E+01  0.62590334210E+01  0.00000000000E+00 0.  1.
          2   -1    0    0  502    0 -0.00000000000E+00 -0.00000000000E+00 -0.57741506086E+03  0.57741506086E+03  0.00000000000E+00 0. -1.
         24    2    1    2    0    0 -0.29080101608E+02  0.14498122597E+02 -0.47157291861E+03  0.47892370797E+03  0.77013327551E+02 0.  0.
        -13    1    3    3    0    0 -0.20403823423E+02  0.24681578752E+02 -0.68360761962E+02  0.75489668936E+02  0.00000000000E+00 0.  1.
         14    1    3    3    0    0 -0.86762781851E+01 -0.10183456155E+02 -0.40321215665E+03  0.40343403904E+03  0.00000000000E+00 0. -1.
          1    1    1    2  501    0  0.29080101608E+02 -0.14498122597E+02 -0.99583108830E+02  0.10475038631E+03  0.00000000000E+00 0. -1.
<mgrwt>
<rscale>  1 0.83587681E+02</rscale>
<asrwt>0</asrwt>
<pdfrwt beam="1">  1       21 0.96292823E-03 0.83587681E+02</pdfrwt>
<pdfrwt beam="2">  1        2 0.88833086E-01 0.83587681E+02</pdfrwt>
<totfact> 0.24304907E+06</totfact>
</mgrwt>
</event>
<event>
 6    2  0.8544106E+000  0.7838505E+02  0.7546771E-02  0.1333698E+00
         -3   -1    0    0    0  501 -0.00000000000E+00  0.00000000000E+00  0.46918770735E+03  0.46918770735E+03  0.00000000000E+00 0.  1.
         21   -1    0    0  501  502  0.00000000000E+00 -0.00000000000E+00 -0.58726132358E+01  0.58726132358E+01  0.00000000000E+00 0. -1.
         24    2    1    2    0    0 -0.20142731594E+02 -0.61596646895E+01  0.41523525254E+03  0.42256896634E+03  0.75501955294E+02 0.  0.
        -13    1    3    3    0    0  0.18269465305E+02 -0.54199632866E+01  0.30922483190E+03  0.30981146853E+03  0.00000000000E+00 0.  1.
         14    1    3    3    0    0 -0.38412196900E+02 -0.73970140291E+00  0.10601042064E+03  0.11275749781E+03  0.00000000000E+00 0. -1.
         -4    1    1    2    0  502  0.20142731594E+02  0.61596646895E+01  0.48079841574E+02  0.52491354249E+02  0.00000000000E+00 0.  1.
<mgrwt>
<rscale>  1 0.78385052E+02</rscale>
<asrwt>0</asrwt>
<pdfrwt beam="1">  1       21 0.90347933E-03 0.78385052E+02</pdfrwt>
<pdfrwt beam="2">  1       -3 0.72182695E-01 0.78385052E+02</pdfrwt>
<totfact> 0.35364863E+05</totfact>
</mgrwt>
</event>
<event>
 6    2  0.8544106E+000  0.8270169E+02  0.7546771E-02  0.1321555E+00
         21   -1    0    0  501  502  0.00000000000E+00  0.00000000000E+00  0.56213791646E+02  0.56213791646E+02  0.00000000000E+00 0. -1.
         -1   -1    0    0    0  501 -0.00000000000E+00 -0.00000000000E+00 -0.12561777331E+03  0.12561777331E+03  0.00000000000E+00 0.  1.
         24    2    1    2    0    0  0.17663030541E+02  0.13118295305E+02 -0.10882656275E+03  0.13668500120E+03  0.79721367739E+02 0.  0.
        -11    1    3    3    0    0  0.29965598786E+02  0.58042734500E-01 -0.11411167414E+03  0.11798056897E+03  0.00000000000E+00 0.  1.
         12    1    3    3    0    0 -0.12302568246E+02  0.13060252570E+02  0.52851113916E+01  0.18704432230E+02  0.00000000000E+00 0. -1.
         -2    1    1    2    0  502 -0.17663030541E+02 -0.13118295305E+02  0.39422581084E+02  0.45146563755E+02  0.00000000000E+00 0.  1.
<mgrwt>
<rscale>  1 0.82701686E+02</rscale>
<asrwt>0</asrwt>
<pdfrwt beam="1">  1       21 0.86482757E-02 0.82701686E+02</pdfrwt>
<pdfrwt beam="2">  1       -1 0.19325811E-01 0.82701686E+02</pdfrwt>
<totfact> 0.19090595E+05</totfact>
</mgrwt>
</event>
<event>
 6    2  0.8544106E+000  0.8706099E+02  0.7546771E-02  0.1310129E+00
          2   -1    0    0  502    0 -0.00000000000E+00  0.00000000000E+00  0.92306294130E+03  0.92306294130E+03  0.00000000000E+00 0. -1.
         21   -1    0    0  501  502  0.00000000000E+00 -0.00000000000E+00 -0.43900957104E+01  0.43900957104E+01  0.00000000000E+00 0. -1.
         24    2    1    2    0    0 -0.12186696121E+02  0.34387715320E+02  0.73922375308E+03  0.74433283788E+03  0.79047997449E+02 0.  0.
        -13    1    3    3    0    0 -0.18667048118E+02 -0.21152128707E+02  0.16514278147E+03  0.16753509933E+03  0.00000000000E+00 0.  1.
         14    1    3    3    0    0  0.64803519974E+01  0.55539844027E+02  0.57408097160E+03  0.57679773855E+03  0.00000000000E+00 0. -1.
          1    1    1    2  501    0  0.12186696121E+02 -0.34387715320E+02  0.17944909252E+03  0.18312019914E+03  0.00000000000E+00 0. -1.
<mgrwt>
<rscale>  1 0.87060993E+02</rscale>
<asrwt>0</asrwt>
<pdfrwt beam="1">  1       21 0.67540007E-03 0.87060993E+02</pdfrwt>
<pdfrwt beam="2">  1        2 0.14200953E+00 0.87060993E+02</pdfrwt>
<totfact> 0.24260894E+06</totfact>
</mgrwt>
</event>
<event>
 6    2  0.8544106E+000  0.1099842E+03  0.7546771E-02  0.1260599E+00
         -1   -1    0    0    0  501 -0.00000000000E+00  0.00000000000E+00  0.30772897454E+03  0.30772897454E+03  0.00000000000E+00 0.  1.
         21   -1    0    0  501  502  0.00000000000E+00 -0.00000000000E+00 -0.31935639611E+02  0.31935639611E+02  0.00000000000E+00 0. -1.
         24    2    1    2    0    0  0.65400430291E+02 -0.45273905532E+02  0.20741699882E+03  0.23477292647E+03  0.75957704018E+02 0.  0.
        -11    1    3    3    0    0  0.34040896814E+02 -0.12771013258E+02  0.17609701623E+03  0.17981112469E+03  0.00000000000E+00 0.  1.
         12    1    3    3    0    0  0.31359533477E+02 -0.32502892274E+02  0.31319982592E+02  0.54961801787E+02  0.00000000000E+00 0. -1.
         -2    1    1    2    0  502 -0.65400430291E+02  0.45273905532E+02  0.68376336106E+02  0.10489168768E+03  0.00000000000E+00 0.  1.
<mgrwt>
<rscale>  1 0.10998416E+03</rscale>
<asrwt>0</asrwt>
<pdfrwt beam="1">  1       21 0.49131755E-02 0.10998416E+03</pdfrwt>
<pdfrwt beam="2">  1       -1 0.47342917E-01 0.10998416E+03</pdfrwt>
<totfact> 0.11323530E+05</totfact>
</mgrwt>
</event>
<event>
 6    2  0.8544106E+000  0.8461476E+02  0.7546771E-02  0.1316443E+00
         -1   -1    0    0    0  501 -0.00000000000E+00  0.00000000000E+00  0.84189768426E+03  0.84189768426E+03  0.00000000000E+00 0.  1.
         21   -1    0    0  501  502  0.00000000000E+00 -0.00000000000E+00 -0.68538482383E+01  0.68538482383E+01  0.00000000000E+00 0. -1.
         24    2    1    2    0    0  0.14433386436E+02 -0.24571041226E+02  0.79562086489E+03  0.80010762884E+03  0.79671816583E+02 0.  0.
        -11    1    3    3    0    0 -0.20274954805E+02 -0.39795072662E+02  0.51612006837E+03  0.51804888435E+03  0.00000000000E+00 0.  1.
         12    1    3    3    0    0  0.34708341241E+02  0.15224031436E+02  0.27950079652E+03  0.28205874449E+03  0.00000000000E+00 0. -1.
         -2    1    1    2    0  502 -0.14433386436E+02  0.24571041226E+02  0.39422971132E+02  0.48643903665E+02  0.00000000000E+00 0.  1.
<mgrwt>
<rscale>  1 0.84614757E+02</rscale>
<asrwt>0</asrwt>
<pdfrwt beam="1">  1       21 0.10544389E-02 0.84614757E+02</pdfrwt>
<pdfrwt beam="2">  1       -1 0.12952264E+00 0.84614757E+02</pdfrwt>
<totfact> 0.17008397E+05</totfact>
</mgrwt>
</event>
<event>
 6    2  0.8544106E+000  0.9081718E+02  0.7546771E-02  0.1300885E+00
          2   -1    0    0  502    0 -0.00000000000E+00  0.00000000000E+00  0.58308211280E+03  0.58308211280E+03  0.00000000000E+00 0. -1.
         21   -1    0    0  501  502  0.00000000000E+00 -0.00000000000E+00 -0.10060210054E+02  0.10060210054E+02  0.00000000000E+00 0. -1.
         24    2    1    2    0    0 -0.36708075706E+02 -0.25144228001E+02  0.23055317592E+03  0.24779533231E+03  0.79170984355E+02 0.  0.
        -13    1    3    3    0    0 -0.16429272335E+02  0.22824356683E+02  0.32352393142E+02  0.42866648918E+02  0.00000000000E+00 0.  1.
         14    1    3    3    0    0 -0.20278803372E+02 -0.47968584684E+02  0.19820078278E+03  0.20492868339E+03  0.00000000000E+00 0. -1.
          1    1    1    2  501    0  0.36708075706E+02  0.25144228001E+02  0.34246872683E+03  0.34534699055E+03  0.00000000000E+00 0. -1.
<mgrwt>
<rscale>  1 0.90817178E+02</rscale>
<asrwt>0</asrwt>
<pdfrwt beam="1">  1       21 0.15477251E-02 0.90817178E+02</pdfrwt>
<pdfrwt beam="2">  1        2 0.89704914E-01 0.90817178E+02</pdfrwt>
<totfact> 0.11508225E+06</totfact>
</mgrwt>
</event>
<event>
 6    2  0.8544106E+000  0.8520179E+02  0.7546771E-02  0.1314906E+00
         21   -1    0    0  501  502  0.00000000000E+00  0.00000000000E+00  0.13387825029E+01  0.13387825029E+01  0.00000000000E+00 0.  1.
          2   -1    0    0  502    0 -0.00000000000E+00 -0.00000000000E+00 -0.27146731907E+04  0.27146731907E+04  0.00000000000E+00 0. -1.
         24    2    1    2    0    0  0.25023738525E+02  0.12947387535E+02 -0.23671769452E+04  0.23687097827E+04  0.80408472680E+02 0.  0.
        -13    1    3    3    0    0 -0.55535663811E+01 -0.12061841057E+02 -0.73322380134E+02  0.74515109459E+02  0.00000000000E+00 0.  1.
         14    1    3    3    0    0  0.30577304906E+02  0.25009228592E+02 -0.22938545650E+04  0.22941946732E+04  0.00000000000E+00 0. -1.
          1    1    1    2  501    0 -0.25023738525E+02 -0.12947387535E+02 -0.34615746305E+03  0.34730219055E+03  0.00000000000E+00 0. -1.
<mgrwt>
<rscale>  1 0.85201789E+02</rscale>
<asrwt>0</asrwt>
<pdfrwt beam="1">  1       21 0.20596761E-03 0.85201789E+02</pdfrwt>
<pdfrwt beam="2">  1        2 0.41763985E+00 0.85201789E+02</pdfrwt>
<totfact> 0.17078739E+06</totfact>
</mgrwt>
</event>
<event>
 6    2  0.8544106E+000  0.8234138E+02  0.7546771E-02  0.1322535E+00
          2   -1    0    0  502    0 -0.00000000000E+00  0.00000000000E+00  0.21179990601E+03  0.21179990601E+03  0.00000000000E+00 0. -1.
         21   -1    0    0  501  502  0.00000000000E+00 -0.00000000000E+00 -0.16339782566E+02  0.16339782566E+02  0.00000000000E+00 0.  1.
         24    2    1    2    0    0 -0.70353133675E+01  0.19577409231E+02  0.18931679253E+03  0.20644842072E+03  0.79670144328E+02 0.  0.
        -13    1    3    3    0    0  0.25365005000E+02  0.20729966647E+02  0.31888517162E+02  0.45716436023E+02  0.00000000000E+00 0.  1.
         14    1    3    3    0    0 -0.32400318368E+02 -0.11525574163E+01  0.15742827537E+03  0.16073198470E+03  0.00000000000E+00 0. -1.
          1    1    1    2  501    0  0.70353133675E+01 -0.19577409231E+02  0.61433309077E+01  0.21691267851E+02  0.00000000000E+00 0. -1.
<mgrwt>
<rscale>  1 0.82341378E+02</rscale>
<asrwt>0</asrwt>
<pdfrwt beam="1">  1       21 0.25138128E-02 0.82341378E+02</pdfrwt>
<pdfrwt beam="2">  1        2 0.32584599E-01 0.82341378E+02</pdfrwt>
<totfact> 0.15315760E+06</totfact>
</mgrwt>
</event>
<event>
 6    2  0.8544106E+000  0.8612455E+02  0.7546771E-02  0.1312518E+00
          2   -1    0    0  502    0 -0.00000000000E+00  0.00000000000E+00  0.66635827606E+03  0.66635827606E+03  0.00000000000E+00 0. -1.
         21   -1    0    0  501  502  0.00000000000E+00 -0.00000000000E+00 -0.48488232262E+01  0.48488232262E+01  0.00000000000E+00 0.  1.
         24    2    1    2    0    0  0.25839530989E+02 -0.78085422842E+01  0.53051386121E+03  0.53745920316E+03  0.81784982894E+02 0.  0.
        -11    1    3    3    0    0  0.44042259644E+02  0.83135589817E+01  0.16030881636E+03  0.16645645827E+03  0.00000000000E+00 0.  1.
         12    1    3    3    0    0 -0.18202728655E+02 -0.16122101266E+02  0.37020504485E+03  0.37100274489E+03  0.00000000000E+00 0. -1.
          1    1    1    2  501    0 -0.25839530989E+02  0.78085422842E+01  0.13099559163E+03  0.13374789613E+03  0.00000000000E+00 0. -1.
<mgrwt>
<rscale>  1 0.86124550E+02</rscale>
<asrwt>0</asrwt>
<pdfrwt beam="1">  1       21 0.74597333E-03 0.86124550E+02</pdfrwt>
<pdfrwt beam="2">  1        2 0.10251659E+00 0.86124550E+02</pdfrwt>
<totfact> 0.30860073E+06</totfact>
</mgrwt>
</event>
<event>
 6    2  0.8544106E+000  0.8886037E+02  0.7546771E-02  0.1305635E+00
         21   -1    0    0  501  502  0.00000000000E+00  0.00000000000E+00  0.22840202052E+01  0.22840202052E+01  0.00000000000E+00 0. -1.
          2   -1    0    0  502    0 -0.00000000000E+00 -0.00000000000E+00 -0.17917416600E+04  0.17917416600E+04  0.00000000000E+00 0. -1.
         24    2    1    2    0    0  0.34676333557E+02  0.16596505929E+01 -0.14709701938E+04  0.14736517490E+04  0.81798311048E+02 0.  0.
        -11    1    3    3    0    0  0.48669884335E+02  0.19429307123E+02 -0.57160938369E+03  0.57400657065E+03  0.00000000000E+00 0.  1.
         12    1    3    3    0    0 -0.13993550778E+02 -0.17769656530E+02 -0.89936081013E+03  0.89964517836E+03  0.00000000000E+00 0. -1.
          1    1    1    2  501    0 -0.34676333557E+02 -0.16596505929E+01 -0.31848744602E+03  0.32037393124E+03  0.00000000000E+00 0. -1.
<mgrwt>
<rscale>  1 0.88860375E+02</rscale>
<asrwt>0</asrwt>
<pdfrwt beam="1">  1       21 0.35138576E-03 0.88860375E+02</pdfrwt>
<pdfrwt beam="2">  1        2 0.27565411E+00 0.88860375E+02</pdfrwt>
<totfact> 0.22781309E+06</totfact>
</mgrwt>
</event>
<event>
 6    2  0.8544106E+000  0.8439807E+02  0.7546771E-02  0.1317014E+00
         21   -1    0    0  501  502  0.00000000000E+00  0.00000000000E+00  0.45138793518E+02  0.45138793518E+02  0.00000000000E+00 0.  1.
          2   -1    0    0  502    0 -0.00000000000E+00 -0.00000000000E+00 -0.11551302686E+03  0.11551302686E+03  0.00000000000E+00 0. -1.
         24    2    1    2    0    0  0.27721311838E+02 -0.26355238506E+02 -0.84922648367E+02  0.11972840280E+03  0.75232735595E+02 0.  0.
        -13    1    3    3    0    0 -0.19153931842E+02  0.51972209569E+01 -0.27985906119E+01  0.20042862073E+02  0.00000000000E+00 0.  1.
         14    1    3    3    0    0  0.46875243680E+02 -0.31552459463E+02 -0.82124057755E+02  0.99685540728E+02  0.00000000000E+00 0. -1.
          1    1    1    2  501    0 -0.27721311838E+02  0.26355238506E+02  0.14548415022E+02  0.40923417579E+02  0.00000000000E+00 0. -1.
<mgrwt>
<rscale>  1 0.84398070E+02</rscale>
<asrwt>0</asrwt>
<pdfrwt beam="1">  1       21 0.69444298E-02 0.84398070E+02</pdfrwt>
<pdfrwt beam="2">  1        2 0.17771235E-01 0.84398070E+02</pdfrwt>
<totfact> 0.55801464E+05</totfact>
</mgrwt>
</event>
<event>
 6    2  0.8544106E+000  0.8519387E+02  0.7546771E-02  0.1314926E+00
         21   -1    0    0  501  502  0.00000000000E+00  0.00000000000E+00  0.12872203615E+01  0.12872203615E+01  0.00000000000E+00 0. -1.
          2   -1    0    0  502    0 -0.00000000000E+00 -0.00000000000E+00 -0.29173444406E+04  0.29173444406E+04  0.00000000000E+00 0. -1.
         24    2    1    2    0    0 -0.13359800793E+01 -0.27990668953E+02 -0.25806550697E+04  0.25820609181E+04  0.80453299591E+02 0.  0.
        -11    1    3    3    0    0  0.22846007850E+02  0.20096002687E+02 -0.75573552318E+03  0.75634778402E+03  0.00000000000E+00 0.  1.
         12    1    3    3    0    0 -0.24181987930E+02 -0.48086671640E+02 -0.18249195465E+04  0.18257131340E+04  0.00000000000E+00 0. -1.
          1    1    1    2  501    0  0.13359800793E+01  0.27990668953E+02 -0.33540215055E+03  0.33657074291E+03  0.00000000000E+00 0. -1.
<mgrwt>
<rscale>  1 0.85193872E+02</rscale>
<asrwt>0</asrwt>
<pdfrwt beam="1">  1       21 0.19803446E-03 0.85193872E+02</pdfrwt>
<pdfrwt beam="2">  1        2 0.44882096E+00 0.85193872E+02</pdfrwt>
<totfact> 0.14018055E+06</totfact>
</mgrwt>
</event>
<event>
 6    2  0.8544106E+000  0.9435050E+02  0.7546771E-02  0.1292646E+00
          2   -1    0    0  502    0 -0.00000000000E+00  0.00000000000E+00  0.87797947572E+03  0.87797947572E+03  0.00000000000E+00 0. -1.
         21   -1    0    0  501  502  0.00000000000E+00 -0.00000000000E+00 -0.10757772199E+02  0.10757772199E+02  0.00000000000E+00 0. -1.
         24    2    1    2    0    0  0.18663118750E+01  0.51486455985E+02  0.79178151107E+03  0.79738320637E+03  0.79042256184E+02 0.  0.
        -11    1    3    3    0    0  0.52514067120E+00 -0.17184989997E+02  0.60867765852E+02  0.63249383979E+02  0.00000000000E+00 0.  1.
         12    1    3    3    0    0  0.13411712038E+01  0.68671445981E+02  0.73091374522E+03  0.73413382239E+03  0.00000000000E+00 0. -1.
          1    1    1    2  501    0 -0.18663118750E+01 -0.51486455985E+02  0.75440192455E+02  0.91354041550E+02  0.00000000000E+00 0. -1.
<mgrwt>
<rscale>  1 0.94350498E+02</rscale>
<asrwt>0</asrwt>
<pdfrwt beam="1">  1       21 0.16550426E-02 0.94350498E+02</pdfrwt>
<pdfrwt beam="2">  1        2 0.13507371E+00 0.94350498E+02</pdfrwt>
<totfact> 0.64003967E+05</totfact>
</mgrwt>
</event>
<event>
 6    2  0.8544106E+000  0.8466452E+02  0.7546771E-02  0.1316312E+00
         -1   -1    0    0    0  501 -0.00000000000E+00  0.00000000000E+00  0.93173640468E+02  0.93173640468E+02  0.00000000000E+00 0.  1.
         21   -1    0    0  501  502  0.00000000000E+00 -0.00000000000E+00 -0.42377738552E+02  0.42377738552E+02  0.00000000000E+00 0. -1.
         24    2    1    2    0    0  0.18300894704E+02 -0.22404020499E+02  0.61566375729E+02  0.10468285156E+03  0.79568950656E+02 0.  0.
        -11    1    3    3    0    0  0.57962271367E-01 -0.74313811262E+01  0.76430868650E+02  0.76791317658E+02  0.00000000000E+00 0.  1.
         12    1    3    3    0    0  0.18242932433E+02 -0.14972639372E+02 -0.14864492921E+02  0.27891533900E+02  0.00000000000E+00 0. -1.
         -2    1    1    2    0  502 -0.18300894704E+02  0.22404020499E+02 -0.10770473813E+02  0.30868527461E+02  0.00000000000E+00 0.  1.
<mgrwt>
<rscale>  1 0.84664519E+02</rscale>
<asrwt>0</asrwt>
<pdfrwt beam="1">  1       21 0.65196521E-02 0.84664519E+02</pdfrwt>
<pdfrwt beam="2">  1       -1 0.14334406E-01 0.84664519E+02</pdfrwt>
<totfact> 0.49269766E+05</totfact>
</mgrwt>
</event>
<event>
 6    2  0.8544106E+000  0.8721224E+02  0.7546771E-02  0.1309747E+00
         21   -1    0    0  501  502  0.00000000000E+00  0.00000000000E+00  0.27228365251E+01  0.27228365251E+01  0.00000000000E+00 0.  1.
          2   -1    0    0  502    0 -0.00000000000E+00 -0.00000000000E+00 -0.17174374329E+04  0.17174374329E+04  0.00000000000E+00 0. -1.
         24    2    1    2    0    0  0.89495472803E+01 -0.27846499283E+02 -0.15752068919E+04  0.15776193226E+04  0.82161139097E+02 0.  0.
        -13    1    3    3    0    0 -0.62623298794E+01 -0.14572510154E+02 -0.54068026383E+02  0.56346484403E+02  0.00000000000E+00 0.  1.
         14    1    3    3    0    0  0.15211877160E+02 -0.13273989129E+02 -0.15211388655E+04  0.15212728382E+04  0.00000000000E+00 0. -1.
          1    1    1    2  501    0 -0.89495472803E+01  0.27846499283E+02 -0.13950770446E+03  0.14254094683E+03  0.00000000000E+00 0. -1.
<mgrwt>
<rscale>  1 0.87212239E+02</rscale>
<asrwt>0</asrwt>
<pdfrwt beam="1">  1       21 0.41889822E-03 0.87212239E+02</pdfrwt>
<pdfrwt beam="2">  1        2 0.26422096E+00 0.87212239E+02</pdfrwt>
<totfact> 0.18972654E+06</totfact>
</mgrwt>
</event>
<event>
 6    2  0.8544106E+000  0.1002307E+03  0.7546771E-02  0.1279812E+00
         21   -1    0    0  501  502  0.00000000000E+00  0.00000000000E+00  0.13809621382E+03  0.13809621382E+03  0.00000000000E+00 0.  1.
          4   -1    0    0  502    0 -0.00000000000E+00 -0.00000000000E+00 -0.48757720094E+02  0.48757720094E+02  0.00000000000E+00 0. -1.
         24    2    1    2    0    0 -0.38178898527E+01 -0.59185070923E+02  0.34285532503E+02  0.10593250633E+03  0.80800676081E+02 0.  0.
        -11    1    3    3    0    0  0.37470531401E+02 -0.26760165919E+02  0.25714439476E+02  0.52738786495E+02  0.00000000000E+00 0.  1.
         12    1    3    3    0    0 -0.41288421253E+02 -0.32424905004E+02  0.85710930273E+01  0.53193719834E+02  0.00000000000E+00 0. -1.
          3    1    1    2  501    0  0.38178898527E+01  0.59185070923E+02  0.55052961226E+02  0.80921427588E+02  0.00000000000E+00 0. -1.
<mgrwt>
<rscale>  1 0.10023072E+03</rscale>
<asrwt>0</asrwt>
<pdfrwt beam="1">  1       21 0.21245571E-01 0.10023072E+03</pdfrwt>
<pdfrwt beam="2">  1        4 0.75011877E-02 0.10023072E+03</pdfrwt>
<totfact> 0.98026714E+04</totfact>
</mgrwt>
</event>
<event>
 6    2  0.8544106E+000  0.8642001E+02  0.7546771E-02  0.1311760E+00
         21   -1    0    0  501  502  0.00000000000E+00  0.00000000000E+00  0.12073340327E+02  0.12073340327E+02  0.00000000000E+00 0.  1.
          2   -1    0    0  502    0 -0.00000000000E+00 -0.00000000000E+00 -0.25481739204E+03  0.25481739204E+03  0.00000000000E+00 0. -1.
         24    2    1    2    0    0  0.20675123753E+02  0.13112828669E+02 -0.19167545690E+03  0.21025674616E+03  0.82879499929E+02 0.  0.
        -13    1    3    3    0    0  0.39889749254E+02  0.37302934813E+02 -0.10720951127E+03  0.12031866168E+03  0.00000000000E+00 0.  1.
         14    1    3    3    0    0 -0.19214625501E+02 -0.24190106144E+02 -0.84465945631E+02  0.89938084479E+02  0.00000000000E+00 0. -1.
          1    1    1    2  501    0 -0.20675123753E+02 -0.13112828669E+02 -0.51068594805E+02  0.56633986204E+02  0.00000000000E+00 0. -1.
<mgrwt>
<rscale>  1 0.86420012E+02</rscale>
<asrwt>0</asrwt>
<pdfrwt beam="1">  1       21 0.18574369E-02 0.86420012E+02</pdfrwt>
<pdfrwt beam="2">  1        2 0.39202677E-01 0.86420012E+02</pdfrwt>
<totfact> 0.20589592E+06</totfact>
</mgrwt>
</event>
<event>
 6    2  0.8544106E+000  0.8304427E+02  0.7546771E-02  0.1320628E+00
          2   -1    0    0  502    0 -0.00000000000E+00  0.00000000000E+00  0.11206247875E+04  0.11206247875E+04  0.00000000000E+00 0. -1.
         21   -1    0    0  501  502  0.00000000000E+00 -0.00000000000E+00 -0.24765528317E+01  0.24765528317E+01  0.00000000000E+00 0.  1.
         24    2    1    2    0    0  0.20401932452E+02 -0.87989339158E-01  0.79971617041E+03  0.80401635771E+03  0.80499091005E+02 0.  0.
        -11    1    3    3    0    0  0.35561106339E+02  0.27894656707E+02  0.60791775303E+03  0.60959552050E+03  0.00000000000E+00 0.  1.
         12    1    3    3    0    0 -0.15159173887E+02 -0.27982646046E+02  0.19179841738E+03  0.19442083721E+03  0.00000000000E+00 0. -1.
          1    1    1    2  501    0 -0.20401932452E+02  0.87989339158E-01  0.31843206426E+03  0.31908498263E+03  0.00000000000E+00 0. -1.
<mgrwt>
<rscale>  1 0.83044267E+02</rscale>
<asrwt>0</asrwt>
<pdfrwt beam="1">  1       21 0.38100902E-03 0.83044267E+02</pdfrwt>
<pdfrwt beam="2">  1        2 0.17240341E+00 0.83044267E+02</pdfrwt>
<totfact> 0.44543482E+06</totfact>
</mgrwt>
</event>
<event>
 6    2  0.1172849E+001  0.8761752E+02  0.7546771E-02  0.1308726E+00
         21   -1    0    0  501  502  0.00000000000E+00  0.00000000000E+00  0.14889622573E+02  0.14889622573E+02  0.00000000000E+00 0. -1.
         -1   -1    0    0    0  501 -0.00000000000E+00 -0.00000000000E+00 -0.31920287231E+03  0.31920287231E+03  0.00000000000E+00 0.  1.
         24    2    1    2    0    0 -0.30570555963E+02 -0.20242391800E+02 -0.13562103279E+03  0.16146174045E+03  0.79577105856E+02 0.  0.
        -13    1    3    3    0    0  0.18488232606E+01 -0.22440537137E+01 -0.12188383738E+03  0.12191851270E+03  0.00000000000E+00 0.  1.
         14    1    3    3    0    0 -0.32419379223E+02 -0.17998338087E+02 -0.13737195410E+02  0.39543227749E+02  0.00000000000E+00 0. -1.
         -2    1    1    2    0  502  0.30570555963E+02  0.20242391800E+02 -0.16869221695E+03  0.17263075443E+03  0.00000000000E+00 0.  1.
<mgrwt>
<rscale>  1 0.87617516E+02</rscale>
<asrwt>0</asrwt>
<pdfrwt beam="1">  1       21 0.22907114E-02 0.87617516E+02</pdfrwt>
<pdfrwt beam="2">  1       -1 0.49108129E-01 0.87617516E+02</pdfrwt>
<totfact> 0.36335054E+05</totfact>
</mgrwt>
</event>
<event>
 6    2  0.8544106E+000  0.8445448E+02  0.7546771E-02  0.1316865E+00
          2   -1    0    0  502    0 -0.00000000000E+00  0.00000000000E+00  0.10075307642E+02  0.10075307642E+02  0.00000000000E+00 0. -1.
         21   -1    0    0  501  502  0.00000000000E+00 -0.00000000000E+00 -0.54373636539E+03  0.54373636539E+03  0.00000000000E+00 0. -1.
         24    2    1    2    0    0  0.18095105828E+02  0.16470697547E+02 -0.17495999150E+03  0.19427701315E+03  0.80832187144E+02 0.  0.
        -11    1    3    3    0    0 -0.15637244849E+02 -0.25901786572E+02 -0.59916921597E+02  0.67122749257E+02  0.00000000000E+00 0.  1.
         12    1    3    3    0    0  0.33732350677E+02  0.42372484118E+02 -0.11504306991E+03  0.12715426389E+03  0.00000000000E+00 0. -1.
          1    1    1    2  501    0 -0.18095105828E+02 -0.16470697547E+02 -0.35870106624E+03  0.35953465988E+03  0.00000000000E+00 0. -1.
<mgrwt>
<rscale>  1 0.84454480E+02</rscale>
<asrwt>0</asrwt>
<pdfrwt beam="1">  1       21 0.83651752E-01 0.84454480E+02</pdfrwt>
<pdfrwt beam="2">  1        2 0.15500473E-02 0.84454480E+02</pdfrwt>
<totfact> 0.11082312E+05</totfact>
</mgrwt>
</event>
<event>
 6    2  0.8544106E+000  0.8628033E+02  0.7546771E-02  0.1312118E+00
         21   -1    0    0  501  502  0.00000000000E+00  0.00000000000E+00  0.19205329642E+02  0.19205329642E+02  0.00000000000E+00 0. -1.
          2   -1    0    0  502    0 -0.00000000000E+00 -0.00000000000E+00 -0.24959540792E+03  0.24959540792E+03  0.00000000000E+00 0. -1.
         24    2    1    2    0    0  0.13741536910E+01  0.31183618954E+02 -0.21932153272E+03  0.23568247839E+03  0.80436245049E+02 0.  0.
        -13    1    3    3    0    0  0.37367830652E+02  0.26800147147E+02 -0.86050602889E+02  0.97566945797E+02  0.00000000000E+00 0.  1.
         14    1    3    3    0    0 -0.35993676961E+02  0.43834718067E+01 -0.13327092983E+03  0.13811553259E+03  0.00000000000E+00 0. -1.
          1    1    1    2  501    0 -0.13741536910E+01 -0.31183618954E+02 -0.11068545555E+02  0.33118259165E+02  0.00000000000E+00 0. -1.
<mgrwt>
<rscale>  1 0.86280333E+02</rscale>
<asrwt>0</asrwt>
<pdfrwt beam="1">  1       21 0.29546665E-02 0.86280333E+02</pdfrwt>
<pdfrwt beam="2">  1        2 0.38399289E-01 0.86280333E+02</pdfrwt>
<totfact> 0.99747079E+05</totfact>
</mgrwt>
</event>
<event>
 6    2  0.8544106E+000  0.9080201E+02  0.7546771E-02  0.1300921E+00
         -1   -1    0    0    0  501 -0.00000000000E+00  0.00000000000E+00  0.11863335519E+03  0.11863335519E+03  0.00000000000E+00 0.  1.
         21   -1    0    0  501  502  0.00000000000E+00 -0.00000000000E+00 -0.98090666969E+02  0.98090666969E+02  0.00000000000E+00 0.  1.
         24    2    1    2    0    0  0.42132687676E+02 -0.87784686901E+00  0.94844697584E+02  0.13130316649E+03  0.80430534534E+02 0.  0.
        -13    1    3    3    0    0  0.33052980953E+02 -0.47365286396E+01  0.10902779145E+03  0.11402628452E+03  0.00000000000E+00 0.  1.
         14    1    3    3    0    0  0.90797067232E+01  0.38586817706E+01 -0.14183093864E+02  0.17276881974E+02  0.00000000000E+00 0. -1.
         -2    1    1    2    0  502 -0.42132687676E+02  0.87784686901E+00 -0.74302009368E+02  0.85420855662E+02  0.00000000000E+00 0.  1.
<mgrwt>
<rscale>  1 0.90802009E+02</rscale>
<asrwt>0</asrwt>
<pdfrwt beam="1">  1       21 0.15090872E-01 0.90802009E+02</pdfrwt>
<pdfrwt beam="2">  1       -1 0.18251285E-01 0.90802009E+02</pdfrwt>
<totfact> 0.79506094E+04</totfact>
</mgrwt>
</event>
<event>
 6    2  0.8544106E+000  0.8632168E+02  0.7546771E-02  0.1312012E+00
          2   -1    0    0  502    0 -0.00000000000E+00  0.00000000000E+00  0.13253322356E+04  0.13253322356E+04  0.00000000000E+00 0. -1.
         21   -1    0    0  501  502  0.00000000000E+00 -0.00000000000E+00 -0.34907060096E+01  0.34907060096E+01  0.00000000000E+00 0.  1.
         24    2    1    2    0    0  0.21631145749E+02 -0.41652218500E+02  0.72049522400E+03  0.72564784844E+03  0.72447348934E+02 0.  0.
        -13    1    3    3    0    0  0.23209228689E+02 -0.22437964869E+02  0.10499375789E+03  0.10984452540E+03  0.00000000000E+00 0.  1.
         14    1    3    3    0    0 -0.15780829406E+01 -0.19214253631E+02  0.61550146611E+03  0.61580332304E+03  0.00000000000E+00 0. -1.
          1    1    1    2  501    0 -0.21631145749E+02  0.41652218500E+02  0.60134630563E+03  0.60317509321E+03  0.00000000000E+00 0. -1.
<mgrwt>
<rscale>  1 0.86321678E+02</rscale>
<asrwt>0</asrwt>
<pdfrwt beam="1">  1       21 0.53703275E-03 0.86321678E+02</pdfrwt>
<pdfrwt beam="2">  1        2 0.20389687E+00 0.86321678E+02</pdfrwt>
<totfact> 0.20549568E+06</totfact>
</mgrwt>
</event>
<event>
 6    2  0.8544106E+000  0.9291159E+02  0.7546771E-02  0.1295950E+00
          2   -1    0    0  502    0 -0.00000000000E+00  0.00000000000E+00  0.57051899172E+02  0.57051899172E+02  0.00000000000E+00 0. -1.
         21   -1    0    0  501  502  0.00000000000E+00 -0.00000000000E+00 -0.14130943693E+03  0.14130943693E+03  0.00000000000E+00 0. -1.
         24    2    1    2    0    0  0.16982810902E+02 -0.42202038364E+02  0.10249921794E+02  0.93475265439E+02  0.81013186852E+02 0.  0.
        -11    1    3    3    0    0 -0.30506249493E+02 -0.18036031351E+01  0.29488756196E+01  0.30701467551E+02  0.00000000000E+00 0.  1.
         12    1    3    3    0    0  0.47489060394E+02 -0.40398435228E+02  0.73010461741E+01  0.62773797888E+02  0.00000000000E+00 0. -1.
          1    1    1    2  501    0 -0.16982810902E+02  0.42202038364E+02 -0.94507459556E+02  0.10488607067E+03  0.00000000000E+00 0. -1.
<mgrwt>
<rscale>  1 0.92911594E+02</rscale>
<asrwt>0</asrwt>
<pdfrwt beam="1">  1       21 0.21739913E-01 0.92911594E+02</pdfrwt>
<pdfrwt beam="2">  1        2 0.87772154E-02 0.92911594E+02</pdfrwt>
<totfact> 0.17339371E+05</totfact>
</mgrwt>
</event>
<event>
 6    2  0.8544106E+000  0.8601754E+02  0.7546771E-02  0.1312793E+00
         -3   -1    0    0    0  501 -0.00000000000E+00  0.00000000000E+00  0.14390717445E+04  0.14390717445E+04  0.00000000000E+00 0.  1.
         21   -1    0    0  501  502  0.00000000000E+00 -0.00000000000E+00 -0.22716004736E+01  0.22716004736E+01  0.00000000000E+00 0.  1.
         24    2    1    2    0    0  0.27096138622E+02  0.21296180741E+01  0.99678534934E+03  0.10004899050E+04  0.81610546679E+02 0.  0.
        -13    1    3    3    0    0  0.49488105745E+02  0.38813956766E+01  0.88922756889E+03  0.89061204074E+03  0.00000000000E+00 0.  1.
         14    1    3    3    0    0 -0.22391967123E+02 -0.17517776025E+01  0.10755778045E+03  0.10987786425E+03  0.00000000000E+00 0. -1.
         -4    1    1    2    0  502 -0.27096138622E+02 -0.21296180741E+01  0.44001479472E+03  0.44085344002E+03  0.00000000000E+00 0.  1.
<mgrwt>
<rscale>  1 0.86017541E+02</rscale>
<asrwt>0</asrwt>
<pdfrwt beam="1">  1       21 0.34947815E-03 0.86017541E+02</pdfrwt>
<pdfrwt beam="2">  1       -3 0.22139492E+00 0.86017541E+02</pdfrwt>
<totfact> 0.10582656E+05</totfact>
</mgrwt>
</event>
<event>
 6    2  0.8544106E+000  0.8501751E+02  0.7546771E-02  0.1315387E+00
         21   -1    0    0  501  502  0.00000000000E+00  0.00000000000E+00  0.54562779982E+02  0.54562779982E+02  0.00000000000E+00 0.  1.
          2   -1    0    0  502    0 -0.00000000000E+00 -0.00000000000E+00 -0.73330501256E+02  0.73330501256E+02  0.00000000000E+00 0. -1.
         24    2    1    2    0    0  0.68668093474E+01  0.24733784949E+02 -0.40582263565E+02  0.94206674940E+02  0.81049764335E+02 0.  0.
        -11    1    3    3    0    0 -0.30935863063E+02  0.25740435607E+02 -0.21688373018E+01  0.40302624033E+02  0.00000000000E+00 0.  1.
         12    1    3    3    0    0  0.37802672411E+02 -0.10066506581E+01 -0.38413426263E+02  0.53904050907E+02  0.00000000000E+00 0. -1.
          1    1    1    2  501    0 -0.68668093474E+01 -0.24733784949E+02  0.21814542291E+02  0.33686606298E+02  0.00000000000E+00 0. -1.
<mgrwt>
<rscale>  1 0.85017513E+02</rscale>
<asrwt>0</asrwt>
<pdfrwt beam="1">  1       21 0.83942739E-02 0.85017513E+02</pdfrwt>
<pdfrwt beam="2">  1        2 0.11281616E-01 0.85017513E+02</pdfrwt>
<totfact> 0.68585702E+05</totfact>
</mgrwt>
</event>
<event>
 6    2  0.8544106E+000  0.9064051E+02  0.7546771E-02  0.1301308E+00
         -3   -1    0    0    0  501 -0.00000000000E+00  0.00000000000E+00  0.15749062620E+03  0.15749062620E+03  0.00000000000E+00 0.  1.
         21   -1    0    0  501  502  0.00000000000E+00 -0.00000000000E+00 -0.28266536378E+02  0.28266536378E+02  0.00000000000E+00 0. -1.
         24    2    1    2    0    0  0.16390764478E+02 -0.39532131366E+02  0.88628458451E+02  0.12677028389E+03  0.79901531029E+02 0.  0.
        -11    1    3    3    0    0 -0.24639296907E+02 -0.13195413711E+02  0.68574217978E+02  0.74051585171E+02  0.00000000000E+00 0.  1.
         12    1    3    3    0    0  0.41030061386E+02 -0.26336717655E+02  0.20054240473E+02  0.52718698724E+02  0.00000000000E+00 0. -1.
         -4    1    1    2    0  502 -0.16390764478E+02  0.39532131366E+02  0.40595631371E+02  0.58986878685E+02  0.00000000000E+00 0.  1.
<mgrwt>
<rscale>  1 0.90640505E+02</rscale>
<asrwt>0</asrwt>
<pdfrwt beam="1">  1       21 0.43486980E-02 0.90640505E+02</pdfrwt>
<pdfrwt beam="2">  1       -3 0.24229327E-01 0.90640505E+02</pdfrwt>
<totfact> 0.24097615E+05</totfact>
</mgrwt>
</event>
<event>
 6    2  0.8544106E+000  0.8810134E+02  0.7546771E-02  0.1307516E+00
         21   -1    0    0  501  502  0.00000000000E+00  0.00000000000E+00  0.24183346539E+01  0.24183346539E+01  0.00000000000E+00 0.  1.
          2   -1    0    0  502    0 -0.00000000000E+00 -0.00000000000E+00 -0.16909175075E+04  0.16909175075E+04  0.00000000000E+00 0. -1.
         24    2    1    2    0    0  0.29682390768E+02  0.18984200314E+02 -0.13847879852E+04  0.13875876947E+04  0.80749007945E+02 0.  0.
        -11    1    3    3    0    0  0.32870178344E+02  0.10620820987E+02 -0.21435681221E+03  0.21712230057E+03  0.00000000000E+00 0.  1.
         12    1    3    3    0    0 -0.31877875762E+01  0.83633793271E+01 -0.11704311730E+04  0.11704653942E+04  0.00000000000E+00 0. -1.
          1    1    1    2  501    0 -0.29682390768E+02 -0.18984200314E+02 -0.30371118756E+03  0.30574814739E+03  0.00000000000E+00 0. -1.
<mgrwt>
<rscale>  1 0.88101342E+02</rscale>
<asrwt>0</asrwt>
<pdfrwt beam="1">  1       21 0.37205287E-03 0.88101342E+02</pdfrwt>
<pdfrwt beam="2">  1        2 0.26014019E+00 0.88101342E+02</pdfrwt>
<totfact> 0.23450703E+06</totfact>
</mgrwt>
</event>
<event>
 6    2  0.8544106E+000  0.9638343E+02  0.7546771E-02  0.1288090E+00
         21   -1    0    0  501  502  0.00000000000E+00  0.00000000000E+00  0.46114454154E+01  0.46114454154E+01  0.00000000000E+00 0. -1.
          2   -1    0    0  502    0 -0.00000000000E+00 -0.00000000000E+00 -0.13657289718E+04  0.13657289718E+04  0.00000000000E+00 0. -1.
         24    2    1    2    0    0 -0.15527490066E+02 -0.50679298248E+02 -0.10782814134E+04  0.10825805155E+04  0.80500135826E+02 0.  0.
        -11    1    3    3    0    0 -0.33696824950E+02 -0.42239375721E+01 -0.19834354690E+03  0.20122991889E+03  0.00000000000E+00 0.  1.
         12    1    3    3    0    0  0.18169334884E+02 -0.46455360676E+02 -0.87993786648E+03  0.88135059660E+03  0.00000000000E+00 0. -1.
          1    1    1    2  501    0  0.15527490066E+02  0.50679298248E+02 -0.28283611296E+03  0.28775990168E+03  0.00000000000E+00 0. -1.
<mgrwt>
<rscale>  1 0.96383433E+02</rscale>
<asrwt>0</asrwt>
<pdfrwt beam="1">  1       21 0.70945167E-03 0.96383433E+02</pdfrwt>
<pdfrwt beam="2">  1        2 0.21011259E+00 0.96383433E+02</pdfrwt>
<totfact> 0.12852313E+06</totfact>
</mgrwt>
</event>
<event>
 6    2  0.8544106E+000  0.8574233E+02  0.7546771E-02  0.1313503E+00
          2   -1    0    0  502    0 -0.00000000000E+00  0.00000000000E+00  0.43915785189E+03  0.43915785189E+03  0.00000000000E+00 0. -1.
         21   -1    0    0  501  502  0.00000000000E+00 -0.00000000000E+00 -0.16820000116E+02  0.16820000116E+02  0.00000000000E+00 0. -1.
         24    2    1    2    0    0 -0.73729315940E+01 -0.25094561394E+02  0.42115650282E+03  0.42979593617E+03  0.81655677980E+02 0.  0.
        -11    1    3    3    0    0  0.25021840309E+01 -0.20945669909E+02  0.21940583355E+02  0.30436346870E+02  0.00000000000E+00 0.  1.
         12    1    3    3    0    0 -0.98751156249E+01 -0.41488914855E+01  0.39921591946E+03  0.39935958930E+03  0.00000000000E+00 0. -1.
          1    1    1    2  501    0  0.73729315940E+01  0.25094561394E+02  0.11813489587E+01  0.26181915843E+02  0.00000000000E+00 0. -1.
<mgrwt>
<rscale>  1 0.85742328E+02</rscale>
<asrwt>0</asrwt>
<pdfrwt beam="1">  1       21 0.25876927E-02 0.85742328E+02</pdfrwt>
<pdfrwt beam="2">  1        2 0.67562738E-01 0.85742328E+02</pdfrwt>
<totfact> 0.68390158E+05</totfact>
</mgrwt>
</event>
<event>
 6    2  0.8544106E+000  0.8494477E+02  0.7546771E-02  0.1315577E+00
         21   -1    0    0  501  502  0.00000000000E+00  0.00000000000E+00  0.14601006659E+02  0.14601006659E+02  0.00000000000E+00 0.  1.
          2   -1    0    0  502    0 -0.00000000000E+00 -0.00000000000E+00 -0.23365190821E+03  0.23365190821E+03  0.00000000000E+00 0. -1.
         24    2    1    2    0    0  0.31389106928E+02  0.18833745398E+01 -0.16892455166E+03  0.18907966004E+03  0.78910015554E+02 0.  0.
        -11    1    3    3    0    0 -0.71938155904E+01  0.14868366770E+02 -0.12840468181E+01  0.16567078481E+02  0.00000000000E+00 0.  1.
         12    1    3    3    0    0  0.38582922519E+02 -0.12984992230E+02 -0.16764050484E+03  0.17251258156E+03  0.00000000000E+00 0. -1.
          1    1    1    2  501    0 -0.31389106928E+02 -0.18833745398E+01 -0.50126349888E+02  0.59173254825E+02  0.00000000000E+00 0. -1.
<mgrwt>
<rscale>  1 0.84944768E+02</rscale>
<asrwt>0</asrwt>
<pdfrwt beam="1">  1       21 0.22463090E-02 0.84944768E+02</pdfrwt>
<pdfrwt beam="2">  1        2 0.35946442E-01 0.84944768E+02</pdfrwt>
<totfact> 0.16607151E+06</totfact>
</mgrwt>
</event>
<event>
 6    2  0.8544106E+000  0.8468882E+02  0.7546771E-02  0.1316248E+00
         21   -1    0    0  501  502  0.00000000000E+00  0.00000000000E+00  0.36887876137E+01  0.36887876137E+01  0.00000000000E+00 0.  1.
          2   -1    0    0  502    0 -0.00000000000E+00 -0.00000000000E+00 -0.99595071242E+03  0.99595071242E+03  0.00000000000E+00 0. -1.
         24    2    1    2    0    0 -0.69657811351E+01  0.23555455924E+02 -0.90596456857E+03  0.90991427892E+03  0.81048219395E+02 0.  0.
        -13    1    3    3    0    0 -0.79262595351E+01  0.50065644692E+02 -0.74990022240E+03  0.75161142749E+03  0.00000000000E+00 0.  1.
         14    1    3    3    0    0  0.96047840000E+00 -0.26510188768E+02 -0.15606434617E+03  0.15830285144E+03  0.00000000000E+00 0. -1.
          1    1    1    2  501    0  0.69657811351E+01 -0.23555455924E+02 -0.86297356236E+02  0.89725221113E+02  0.00000000000E+00 0. -1.
<mgrwt>
<rscale>  1 0.84688816E+02</rscale>
<asrwt>0</asrwt>
<pdfrwt beam="1">  1       21 0.56750579E-03 0.84688816E+02</pdfrwt>
<pdfrwt beam="2">  1        2 0.15322318E+00 0.84688816E+02</pdfrwt>
<totfact> 0.28608041E+06</totfact>
</mgrwt>
</event>
<event>
 6    2  0.8544106E+000  0.7996447E+02  0.7546771E-02  0.1329152E+00
         21   -1    0    0  501  502  0.00000000000E+00  0.00000000000E+00  0.14615421133E+02  0.14615421133E+02  0.00000000000E+00 0. -1.
          4   -1    0    0  502    0 -0.00000000000E+00 -0.00000000000E+00 -0.40052471832E+03  0.40052471832E+03  0.00000000000E+00 0. -1.
         24    2    1    2    0    0 -0.42257507360E+02 -0.28061822095E+02 -0.33042209191E+03  0.33996040324E+03  0.61815484795E+02 0.  0.
        -11    1    3    3    0    0 -0.47929476444E+01 -0.97825857274E+01 -0.51884149135E+01  0.12066108733E+02  0.00000000000E+00 0.  1.
         12    1    3    3    0    0 -0.37464559716E+02 -0.18279236368E+02 -0.32523367700E+03  0.32789429451E+03  0.00000000000E+00 0. -1.
          3    1    1    2  501    0  0.42257507360E+02  0.28061822095E+02 -0.55487205272E+02  0.75179736209E+02  0.00000000000E+00 0. -1.
<mgrwt>
<rscale>  1 0.79964473E+02</rscale>
<asrwt>0</asrwt>
<pdfrwt beam="1">  1       21 0.22485262E-02 0.79964473E+02</pdfrwt>
<pdfrwt beam="2">  1        4 0.61619192E-01 0.79964473E+02</pdfrwt>
<totfact> 0.93925047E+04</totfact>
</mgrwt>
</event>
<event>
 6    2  0.8544106E+000  0.8073681E+02  0.7546771E-02  0.1326973E+00
         21   -1    0    0  501  502  0.00000000000E+00  0.00000000000E+00  0.55568512279E+01  0.55568512279E+01  0.00000000000E+00 0. -1.
          2   -1    0    0  502    0 -0.00000000000E+00 -0.00000000000E+00 -0.78551618595E+03  0.78551618595E+03  0.00000000000E+00 0. -1.
         24    2    1    2    0    0  0.12807710820E+02 -0.15615657379E+02 -0.75336698223E+03  0.75768083116E+03  0.78169980023E+02 0.  0.
        -13    1    3    3    0    0 -0.40305347881E+01  0.13256260545E+02 -0.25287196145E+02  0.28834284163E+02  0.00000000000E+00 0.  1.
         14    1    3    3    0    0  0.16838245608E+02 -0.28871917924E+02 -0.72807978609E+03  0.72884654699E+03  0.00000000000E+00 0. -1.
          1    1    1    2  501    0 -0.12807710820E+02  0.15615657379E+02 -0.26592352488E+02  0.33392206017E+02  0.00000000000E+00 0. -1.
<mgrwt>
<rscale>  1 0.80736807E+02</rscale>
<asrwt>0</asrwt>
<pdfrwt beam="1">  1       21 0.85490074E-03 0.80736807E+02</pdfrwt>
<pdfrwt beam="2">  1        2 0.12084857E+00 0.80736807E+02</pdfrwt>
<totfact> 0.20442468E+06</totfact>
</mgrwt>
</event>
<event>
 6    2  0.8544106E+000  0.8707571E+02  0.7546771E-02  0.1310092E+00
         21   -1    0    0  501  502  0.00000000000E+00  0.00000000000E+00  0.87234047080E+01  0.87234047080E+01  0.00000000000E+00 0. -1.
         -3   -1    0    0    0  501 -0.00000000000E+00 -0.00000000000E+00 -0.48766372883E+03  0.48766372883E+03  0.00000000000E+00 0.  1.
         24    2    1    2    0    0  0.25059738267E+02  0.18754104166E+02 -0.23812605908E+03  0.25354723329E+03  0.81255600365E+02 0.  0.
        -11    1    3    3    0    0 -0.11281382985E+02  0.37126088285E+02 -0.16829710431E+03  0.17271227910E+03  0.00000000000E+00 0.  1.
         12    1    3    3    0    0  0.36341121252E+02 -0.18371984119E+02 -0.69828954774E+02  0.80834954191E+02  0.00000000000E+00 0. -1.
         -4    1    1    2    0  502 -0.25059738267E+02 -0.18754104166E+02 -0.24081426504E+03  0.24283990025E+03  0.00000000000E+00 0.  1.
<mgrwt>
<rscale>  1 0.87075711E+02</rscale>
<asrwt>0</asrwt>
<pdfrwt beam="1">  1       21 0.13420624E-02 0.87075711E+02</pdfrwt>
<pdfrwt beam="2">  1       -3 0.75025179E-01 0.87075711E+02</pdfrwt>
<totfact> 0.17868161E+05</totfact>
</mgrwt>
</event>
<event>
 6    2  0.8544106E+000  0.8525982E+02  0.7546771E-02  0.1314754E+00
          2   -1    0    0  502    0 -0.00000000000E+00  0.00000000000E+00  0.25499904291E+03  0.25499904291E+03  0.00000000000E+00 0. -1.
         21   -1    0    0  501  502  0.00000000000E+00 -0.00000000000E+00 -0.25675599662E+02  0.25675599662E+02  0.00000000000E+00 0. -1.
         24    2    1    2    0    0  0.24241307332E+02 -0.17335159220E+02  0.23530786175E+03  0.25027789948E+03  0.79881715304E+02 0.  0.
        -11    1    3    3    0    0 -0.65193134829E+01  0.23307711678E+02  0.29027674629E+02  0.37793607479E+02  0.00000000000E+00 0.  1.
         12    1    3    3    0    0  0.30760620815E+02 -0.40642870898E+02  0.20628018712E+03  0.21248429200E+03  0.00000000000E+00 0. -1.
          1    1    1    2  501    0 -0.24241307332E+02  0.17335159220E+02 -0.59844184952E+01  0.30396743100E+02  0.00000000000E+00 0. -1.
<mgrwt>
<rscale>  1 0.85259822E+02</rscale>
<asrwt>0</asrwt>
<pdfrwt beam="1">  1       21 0.39500924E-02 0.85259822E+02</pdfrwt>
<pdfrwt beam="2">  1        2 0.39230620E-01 0.85259822E+02</pdfrwt>
<totfact> 0.60638684E+05</totfact>
</mgrwt>
</event>
<event>
 6    2  0.8544106E+000  0.1162016E+03  0.7546771E-02  0.1249498E+00
         -1   -1    0    0    0  501 -0.00000000000E+00  0.00000000000E+00  0.20234535771E+03  0.20234535771E+03  0.00000000000E+00 0.  1.
         21   -1    0    0  501  502  0.00000000000E+00 -0.00000000000E+00 -0.58847375236E+02  0.58847375236E+02  0.00000000000E+00 0. -1.
         24    2    1    2    0    0  0.62808350913E+02 -0.57962748203E+02  0.31661646787E+02  0.12043785700E+03  0.78728955263E+02 0.  0.
        -13    1    3    3    0    0  0.49031813598E+02  0.39307525380E+01 -0.81632920764E+00  0.49195893666E+02  0.00000000000E+00 0.  1.
         14    1    3    3    0    0  0.13776537315E+02 -0.61893500741E+02  0.32477975995E+02  0.71241963330E+02  0.00000000000E+00 0. -1.
         -2    1    1    2    0  502 -0.62808350913E+02  0.57962748203E+02  0.11183633569E+03  0.14075487595E+03  0.00000000000E+00 0.  1.
<mgrwt>
<rscale>  1 0.11620162E+03</rscale>
<asrwt>0</asrwt>
<pdfrwt beam="1">  1       21 0.90534425E-02 0.11620162E+03</pdfrwt>
<pdfrwt beam="2">  1       -1 0.31130055E-01 0.11620162E+03</pdfrwt>
<totfact> 0.83104757E+04</totfact>
</mgrwt>
</event>
<event>
 6    2  0.8544106E+000  0.8062110E+02  0.7546771E-02  0.1327298E+00
          2   -1    0    0  502    0 -0.00000000000E+00  0.00000000000E+00  0.35692598845E+01  0.35692598845E+01  0.00000000000E+00 0. -1.
         21   -1    0    0  501  502  0.00000000000E+00 -0.00000000000E+00 -0.10926112317E+04  0.10926112317E+04  0.00000000000E+00 0. -1.
         24    2    1    2    0    0 -0.15878844933E+02  0.18531430661E+02 -0.48573834031E+03  0.49238348643E+03  0.76838862750E+02 0.  0.
        -11    1    3    3    0    0  0.30761040528E+02  0.12587070461E+02 -0.17841772021E+03  0.18148707624E+03  0.00000000000E+00 0.  1.
         12    1    3    3    0    0 -0.46639885461E+02  0.59443602001E+01 -0.30732062010E+03  0.31089641019E+03  0.00000000000E+00 0. -1.
          1    1    1    2  501    0  0.15878844933E+02 -0.18531430661E+02 -0.60330363152E+03  0.60379700516E+03  0.00000000000E+00 0. -1.
<mgrwt>
<rscale>  1 0.80621104E+02</rscale>
<asrwt>0</asrwt>
<pdfrwt beam="1">  1       21 0.16809405E+00 0.80621104E+02</pdfrwt>
<pdfrwt beam="2">  1        2 0.54911685E-03 0.80621104E+02</pdfrwt>
<totfact> 0.85247967E+04</totfact>
</mgrwt>
</event>
<event>
 6    2  0.8544106E+000  0.8337273E+02  0.7546771E-02  0.1319744E+00
         -3   -1    0    0    0  501 -0.00000000000E+00  0.00000000000E+00  0.10027661444E+03  0.10027661444E+03  0.00000000000E+00 0.  1.
         21   -1    0    0  501  502  0.00000000000E+00 -0.00000000000E+00 -0.45438949954E+02  0.45438949954E+02  0.00000000000E+00 0.  1.
         24    2    1    2    0    0  0.17887196995E+02  0.26117838902E+02  0.71597853857E+02  0.10989661309E+03  0.77129239368E+02 0.  0.
        -13    1    3    3    0    0  0.45720717669E+02  0.30484666317E+01  0.49839563576E+02  0.67702727201E+02  0.00000000000E+00 0.  1.
         14    1    3    3    0    0 -0.27833520674E+02  0.23069372270E+02  0.21758290281E+02  0.42193885884E+02  0.00000000000E+00 0. -1.
         -4    1    1    2    0  502 -0.17887196995E+02 -0.26117838902E+02 -0.16760189371E+02  0.35818951310E+02  0.00000000000E+00 0.  1.
<mgrwt>
<rscale>  1 0.83372735E+02</rscale>
<asrwt>0</asrwt>
<pdfrwt beam="1">  1       21 0.69906077E-02 0.83372735E+02</pdfrwt>
<pdfrwt beam="2">  1       -3 0.15427171E-01 0.83372735E+02</pdfrwt>
<totfact> 0.23552583E+05</totfact>
</mgrwt>
</event>
<event>
 6    2  0.8544106E+000  0.8328262E+02  0.7546771E-02  0.1319986E+00
         21   -1    0    0  501  502  0.00000000000E+00  0.00000000000E+00  0.10301283343E+02  0.10301283343E+02  0.00000000000E+00 0.  1.
          2   -1    0    0  502    0 -0.00000000000E+00 -0.00000000000E+00 -0.34197565687E+03  0.34197565687E+03  0.00000000000E+00 0. -1.
         24    2    1    2    0    0 -0.14481454377E+02  0.20839028241E+02 -0.17797914240E+03  0.19650081338E+03  0.79322234665E+02 0.  0.
        -13    1    3    3    0    0  0.31945662043E+02  0.27452332606E+01 -0.52854630401E+02  0.61819686054E+02  0.00000000000E+00 0.  1.
         14    1    3    3    0    0 -0.46427116420E+02  0.18093794980E+02 -0.12512451200E+03  0.13468112733E+03  0.00000000000E+00 0. -1.
          1    1    1    2  501    0  0.14481454377E+02 -0.20839028241E+02 -0.15369523113E+03  0.15577612683E+03  0.00000000000E+00 0. -1.
<mgrwt>
<rscale>  1 0.83282618E+02</rscale>
<asrwt>0</asrwt>
<pdfrwt beam="1">  1       21 0.15848126E-02 0.83282618E+02</pdfrwt>
<pdfrwt beam="2">  1        2 0.52611646E-01 0.83282618E+02</pdfrwt>
<totfact> 0.19403325E+06</totfact>
</mgrwt>
</event>
<event>
 6    2  0.8544106E+000  0.8820290E+02  0.7546771E-02  0.1307263E+00
         21   -1    0    0  501  502  0.00000000000E+00  0.00000000000E+00  0.94208418549E+01  0.94208418549E+01  0.00000000000E+00 0.  1.
         -1   -1    0    0    0  501 -0.00000000000E+00 -0.00000000000E+00 -0.48449079428E+03  0.48449079428E+03  0.00000000000E+00 0.  1.
         24    2    1    2    0    0  0.60992797638E+01  0.39163235621E+02 -0.39294245192E+03  0.40272015311E+03  0.78795881606E+02 0.  0.
        -13    1    3    3    0    0  0.38458020406E+02  0.31696198439E+02 -0.16471413962E+03  0.17208839624E+03  0.00000000000E+00 0.  1.
         14    1    3    3    0    0 -0.32358740642E+02  0.74670371821E+01 -0.22822831230E+03  0.23063175686E+03  0.00000000000E+00 0. -1.
         -2    1    1    2    0  502 -0.60992797638E+01 -0.39163235621E+02 -0.82127500504E+02  0.91191483029E+02  0.00000000000E+00 0.  1.
<mgrwt>
<rscale>  1 0.88202898E+02</rscale>
<asrwt>0</asrwt>
<pdfrwt beam="1">  1       21 0.14493603E-02 0.88202898E+02</pdfrwt>
<pdfrwt beam="2">  1       -1 0.74537045E-01 0.88202898E+02</pdfrwt>
<totfact> 0.34342264E+05</totfact>
</mgrwt>
</event>
<event>
 6    2  0.8544106E+000  0.8973012E+02  0.7546771E-02  0.1303507E+00
          2   -1    0    0  502    0 -0.00000000000E+00  0.00000000000E+00  0.73318182785E+03  0.73318182785E+03  0.00000000000E+00 0. -1.
         21   -1    0    0  501  502  0.00000000000E+00 -0.00000000000E+00 -0.68589935887E+01  0.68589935887E+01  0.00000000000E+00 0.  1.
         24    2    1    2    0    0  0.45015780348E+01 -0.45901619028E+02  0.36897662728E+03  0.37973049064E+03  0.76969287452E+02 0.  0.
        -13    1    3    3    0    0 -0.40812048371E+01 -0.60940089181E+02  0.18244253306E+03  0.19239446086E+03  0.00000000000E+00 0.  1.
         14    1    3    3    0    0  0.85827828718E+01  0.15038470152E+02  0.18653409422E+03  0.18733602978E+03  0.00000000000E+00 0. -1.
          1    1    1    2  501    0 -0.45015780348E+01  0.45901619028E+02  0.35734620698E+03  0.36031033080E+03  0.00000000000E+00 0. -1.
<mgrwt>
<rscale>  1 0.89730118E+02</rscale>
<asrwt>0</asrwt>
<pdfrwt beam="1">  1       21 0.10552304E-02 0.89730118E+02</pdfrwt>
<pdfrwt beam="2">  1        2 0.11279714E+00 0.89730118E+02</pdfrwt>
<totfact> 0.16166585E+06</totfact>
</mgrwt>
</event>
<event>
 6    2  0.8544106E+000  0.8333439E+02  0.7546771E-02  0.1319847E+00
         21   -1    0    0  501  502  0.00000000000E+00  0.00000000000E+00  0.43871347393E+02  0.43871347393E+02  0.00000000000E+00 0.  1.
         -3   -1    0    0    0  501 -0.00000000000E+00 -0.00000000000E+00 -0.10409211412E+03  0.10409211412E+03  0.00000000000E+00 0.  1.
         24    2    1    2    0    0  0.98696963806E+00 -0.23764937811E+02 -0.81122534908E+02  0.11629912367E+03  0.79867854098E+02 0.  0.
        -11    1    3    3    0    0  0.30301178212E+02  0.47338871598E+01 -0.65875266187E+02  0.72664446491E+02  0.00000000000E+00 0.  1.
         12    1    3    3    0    0 -0.29314208574E+02 -0.28498824971E+02 -0.15247268721E+02  0.43634677179E+02  0.00000000000E+00 0. -1.
         -4    1    1    2    0  502 -0.98696963806E+00  0.23764937811E+02  0.20901768178E+02  0.31664337846E+02  0.00000000000E+00 0.  1.
<mgrwt>
<rscale>  1 0.83334390E+02</rscale>
<asrwt>0</asrwt>
<pdfrwt beam="1">  1       21 0.67494381E-02 0.83334390E+02</pdfrwt>
<pdfrwt beam="2">  1       -3 0.16014171E-01 0.83334390E+02</pdfrwt>
<totfact> 0.23454394E+05</totfact>
</mgrwt>
</event>
<event>
 6    2  0.8544106E+000  0.9379592E+02  0.7546771E-02  0.1293911E+00
          2   -1    0    0  502    0 -0.00000000000E+00  0.00000000000E+00  0.11108073708E+03  0.11108073708E+03  0.00000000000E+00 0. -1.
         21   -1    0    0  501  502  0.00000000000E+00 -0.00000000000E+00 -0.46167335017E+02  0.46167335017E+02  0.00000000000E+00 0. -1.
         24    2    1    2    0    0 -0.36348507385E+02 -0.32834465080E+02  0.48466359155E+02  0.10557775851E+03  0.79989743315E+02 0.  0.
        -11    1    3    3    0    0 -0.92518570750E+01  0.15512361268E+02 -0.13420294217E+02  0.22501877884E+02  0.00000000000E+00 0.  1.
         12    1    3    3    0    0 -0.27096650310E+02 -0.48346826348E+02  0.61886653372E+02  0.83075880625E+02  0.00000000000E+00 0. -1.
          1    1    1    2  501    0  0.36348507385E+02  0.32834465080E+02  0.16447042911E+02  0.51670313592E+02  0.00000000000E+00 0. -1.
<mgrwt>
<rscale>  1 0.93795923E+02</rscale>
<asrwt>0</asrwt>
<pdfrwt beam="1">  1       21 0.71026669E-02 0.93795923E+02</pdfrwt>
<pdfrwt beam="2">  1        2 0.17089344E-01 0.93795923E+02</pdfrwt>
<totfact> 0.56723400E+05</totfact>
</mgrwt>
</event>
<event>
 6    2  0.8544106E+000  0.9368416E+02  0.7546771E-02  0.1294167E+00
         21   -1    0    0  501  502  0.00000000000E+00  0.00000000000E+00  0.29164086931E+02  0.29164086931E+02  0.00000000000E+00 0.  1.
          2   -1    0    0  502    0 -0.00000000000E+00 -0.00000000000E+00 -0.17157471491E+03  0.17157471491E+03  0.00000000000E+00 0. -1.
         24    2    1    2    0    0  0.26043988721E+02 -0.39935937166E+02 -0.90541643545E+02  0.13028626482E+03  0.80644610235E+02 0.  0.
        -13    1    3    3    0    0  0.50213190387E+02 -0.17631912432E+02 -0.29247176950E+02  0.60725992659E+02  0.00000000000E+00 0.  1.
         14    1    3    3    0    0 -0.24169201666E+02 -0.22304024734E+02 -0.61294466595E+02  0.69560272165E+02  0.00000000000E+00 0. -1.
          1    1    1    2  501    0 -0.26043988721E+02  0.39935937166E+02 -0.51868984433E+02  0.70452537016E+02  0.00000000000E+00 0. -1.
<mgrwt>
<rscale>  1 0.93684159E+02</rscale>
<asrwt>0</asrwt>
<pdfrwt beam="1">  1       21 0.44867825E-02 0.93684159E+02</pdfrwt>
<pdfrwt beam="2">  1        2 0.26396110E-01 0.93684159E+02</pdfrwt>
<totfact> 0.75593704E+05</totfact>
</mgrwt>
</event>
<event>
 6    2  0.8544106E+000  0.8307715E+02  0.7546771E-02  0.1320539E+00
         21   -1    0    0  501  502  0.00000000000E+00  0.00000000000E+00  0.89838967872E+02  0.89838967872E+02  0.00000000000E+00 0.  1.
         -1   -1    0    0    0  501 -0.00000000000E+00 -0.00000000000E+00 -0.58714318685E+02  0.58714318685E+02  0.00000000000E+00 0.  1.
         24    2    1    2    0    0 -0.10906832598E+02 -0.17359578218E+02 -0.26651561653E+02  0.87247459001E+02  0.80507759939E+02 0.  0.
        -13    1    3    3    0    0  0.15978750947E+02 -0.13971789334E+02 -0.48173572525E+02  0.52642420811E+02  0.00000000000E+00 0.  1.
         14    1    3    3    0    0 -0.26885583546E+02 -0.33877888840E+01  0.21522010872E+02  0.34605038190E+02  0.00000000000E+00 0. -1.
         -2    1    1    2    0  502  0.10906832598E+02  0.17359578218E+02  0.57776210840E+02  0.61305827555E+02  0.00000000000E+00 0.  1.
<mgrwt>
<rscale>  1 0.83077153E+02</rscale>
<asrwt>0</asrwt>
<pdfrwt beam="1">  1       21 0.13821380E-01 0.83077153E+02</pdfrwt>
<pdfrwt beam="2">  1       -1 0.90329721E-02 0.83077153E+02</pdfrwt>
<totfact> 0.27135341E+05</totfact>
</mgrwt>
</event>
<event>
 6    2  0.8544106E+000  0.9768068E+02  0.7546771E-02  0.1285250E+00
         21   -1    0    0  501  502  0.00000000000E+00  0.00000000000E+00  0.62508153177E+02  0.62508153177E+02  0.00000000000E+00 0.  1.
          2   -1    0    0  502    0 -0.00000000000E+00 -0.00000000000E+00 -0.93578259975E+02  0.93578259975E+02  0.00000000000E+00 0. -1.
         24    2    1    2    0    0 -0.44926121693E+02 -0.31524282862E+02 -0.14460803116E+02  0.98745277925E+02  0.80804568345E+02 0.  0.
        -13    1    3    3    0    0 -0.20455553958E+02  0.11729095418E+02  0.25679620456E+02  0.34863222367E+02  0.00000000000E+00 0.  1.
         14    1    3    3    0    0 -0.24470567736E+02 -0.43253378279E+02 -0.40140423572E+02  0.63882055559E+02  0.00000000000E+00 0. -1.
          1    1    1    2  501    0  0.44926121693E+02  0.31524282862E+02 -0.16609303682E+02  0.57341135227E+02  0.00000000000E+00 0. -1.
<mgrwt>
<rscale>  1 0.97680679E+02</rscale>
<asrwt>0</asrwt>
<pdfrwt beam="1">  1       21 0.96166389E-02 0.97680679E+02</pdfrwt>
<pdfrwt beam="2">  1        2 0.14396655E-01 0.97680679E+02</pdfrwt>
<totfact> 0.41254649E+05</totfact>
</mgrwt>
</event>
<event>
 6    2  0.8544106E+000  0.8837145E+02  0.7546771E-02  0.1306844E+00
          2   -1    0    0  502    0 -0.00000000000E+00  0.00000000000E+00  0.65110843762E+03  0.65110843762E+03  0.00000000000E+00 0. -1.
         21   -1    0    0  501  502  0.00000000000E+00 -0.00000000000E+00 -0.58264922205E+01  0.58264922205E+01  0.00000000000E+00 0.  1.
         24    2    1    2    0    0 -0.22492581764E+02  0.13662730563E+02  0.57751704415E+03  0.58423920588E+03  0.84361880976E+02 0.  0.
        -13    1    3    3    0    0 -0.24939873321E+02 -0.30940721337E+02  0.18703840007E+03  0.19121372497E+03  0.00000000000E+00 0.  1.
         14    1    3    3    0    0  0.24472915566E+01  0.44603451900E+02  0.39047864409E+03  0.39302548091E+03  0.00000000000E+00 0. -1.
          1    1    1    2  501    0  0.22492581764E+02 -0.13662730563E+02  0.67764901246E+02  0.72695723958E+02  0.00000000000E+00 0. -1.
<mgrwt>
<rscale>  1 0.88371451E+02</rscale>
<asrwt>0</asrwt>
<pdfrwt beam="1">  1       21 0.89638393E-03 0.88371451E+02</pdfrwt>
<pdfrwt beam="2">  1        2 0.10017047E+00 0.88371451E+02</pdfrwt>
<totfact> 0.23899530E+06</totfact>
</mgrwt>
</event>
<event>
 6    2  0.8544106E+000  0.8249251E+02  0.7546771E-02  0.1322123E+00
         21   -1    0    0  501  502  0.00000000000E+00  0.00000000000E+00  0.62198968139E+01  0.62198968139E+01  0.00000000000E+00 0.  1.
          2   -1    0    0  502    0 -0.00000000000E+00 -0.00000000000E+00 -0.44338658634E+03  0.44338658634E+03  0.00000000000E+00 0. -1.
         24    2    1    2    0    0  0.19154135430E+02 -0.11819046340E+02 -0.34781385041E+03  0.35746257062E+03  0.79362737421E+02 0.  0.
        -13    1    3    3    0    0  0.47708162571E+02 -0.21471779865E+02 -0.22555777455E+03  0.23154570989E+03  0.00000000000E+00 0.  1.
         14    1    3    3    0    0 -0.28554027141E+02  0.96527335243E+01 -0.12225607586E+03  0.12591686073E+03  0.00000000000E+00 0. -1.
          1    1    1    2  501    0 -0.19154135430E+02  0.11819046340E+02 -0.89352839112E+02  0.92143912538E+02  0.00000000000E+00 0. -1.
<mgrwt>
<rscale>  1 0.82492514E+02</rscale>
<asrwt>0</asrwt>
<pdfrwt beam="1">  1       21 0.95690720E-03 0.82492514E+02</pdfrwt>
<pdfrwt beam="2">  1        2 0.68213321E-01 0.82492514E+02</pdfrwt>
<totfact> 0.32589305E+06</totfact>
</mgrwt>
</event>
<event>
 6    2  0.8544106E+000  0.9602028E+02  0.7546771E-02  0.1288895E+00
         -1   -1    0    0    0  501 -0.00000000000E+00  0.00000000000E+00  0.88580598904E+02  0.88580598904E+02  0.00000000000E+00 0.  1.
         21   -1    0    0  501  502  0.00000000000E+00 -0.00000000000E+00 -0.65333435860E+02  0.65333435860E+02  0.00000000000E+00 0. -1.
         24    2    1    2    0    0  0.24657549333E+02 -0.46788160247E+02 -0.30077606524E+00  0.96020752643E+02  0.80142172378E+02 0.  0.
        -11    1    3    3    0    0 -0.23361212916E+02 -0.41555220651E+02  0.13302343446E+01  0.47690168333E+02  0.00000000000E+00 0.  1.
         12    1    3    3    0    0  0.48018762249E+02 -0.52329395963E+01 -0.16310104098E+01  0.48330584310E+02  0.00000000000E+00 0. -1.
         -2    1    1    2    0  502 -0.24657549333E+02  0.46788160247E+02  0.23547939110E+02  0.57893282121E+02  0.00000000000E+00 0.  1.
<mgrwt>
<rscale>  1 0.96020282E+02</rscale>
<asrwt>0</asrwt>
<pdfrwt beam="1">  1       21 0.10051298E-01 0.96020282E+02</pdfrwt>
<pdfrwt beam="2">  1       -1 0.13627784E-01 0.96020282E+02</pdfrwt>
<totfact> 0.25728637E+05</totfact>
</mgrwt>
</event>
<event>
 6    2  0.8544106E+000  0.8456245E+02  0.7546771E-02  0.1316581E+00
         21   -1    0    0  501  502  0.00000000000E+00  0.00000000000E+00  0.13091525584E+01  0.13091525584E+01  0.00000000000E+00 0.  1.
         -1   -1    0    0    0  501 -0.00000000000E+00 -0.00000000000E+00 -0.33280888845E+04  0.33280888845E+04  0.00000000000E+00 0.  1.
         24    2    1    2    0    0  0.26742850207E+02  0.56902454110E+01 -0.30704492573E+04  0.30716134930E+04  0.80020308306E+02 0.  0.
        -13    1    3    3    0    0 -0.37230708933E+01  0.28372855940E+02 -0.23418857050E+04  0.23420605320E+04  0.00000000000E+00 0.  1.
         14    1    3    3    0    0  0.30465921100E+02 -0.22682610529E+02 -0.72856355225E+03  0.72955296095E+03  0.00000000000E+00 0. -1.
         -2    1    1    2    0  502 -0.26742850207E+02 -0.56902454110E+01 -0.25633047467E+03  0.25778454410E+03  0.00000000000E+00 0.  1.
<mgrwt>
<rscale>  1 0.84562454E+02</rscale>
<asrwt>0</asrwt>
<pdfrwt beam="1">  1       21 0.20140792E-03 0.84562454E+02</pdfrwt>
<pdfrwt beam="2">  1       -1 0.51201410E+00 0.84562454E+02</pdfrwt>
<totfact> 0.67903582E+03</totfact>
</mgrwt>
</event>
<event>
 6    2  0.8544106E+000  0.1054538E+03  0.7546771E-02  0.1269228E+00
         21   -1    0    0  501  502  0.00000000000E+00  0.00000000000E+00  0.11096360124E+02  0.11096360124E+02  0.00000000000E+00 0. -1.
          2   -1    0    0  502    0 -0.00000000000E+00 -0.00000000000E+00 -0.88781406689E+03  0.88781406689E+03  0.00000000000E+00 0. -1.
         24    2    1    2    0    0 -0.47187204228E+02  0.49623652018E+02 -0.72273707595E+03  0.73038988302E+03  0.80195767832E+02 0.  0.
        -13    1    3    3    0    0  0.39472441710E+01  0.39651959625E+02 -0.14715166583E+03  0.15245153786E+03  0.00000000000E+00 0.  1.
         14    1    3    3    0    0 -0.51134448399E+02  0.99716923924E+01 -0.57558541012E+03  0.57793834516E+03  0.00000000000E+00 0. -1.
          1    1    1    2  501    0  0.47187204228E+02 -0.49623652018E+02 -0.15398063081E+03  0.16852054399E+03  0.00000000000E+00 0. -1.
<mgrwt>
<rscale>  1 0.10545378E+03</rscale>
<asrwt>0</asrwt>
<pdfrwt beam="1">  1       21 0.17071317E-02 0.10545378E+03</pdfrwt>
<pdfrwt beam="2">  1        2 0.13658683E+00 0.10545378E+03</pdfrwt>
<totfact> 0.60505578E+05</totfact>
</mgrwt>
</event>
<event>
 6    2  0.8544106E+000  0.8402292E+02  0.7546771E-02  0.1318008E+00
          2   -1    0    0  502    0 -0.00000000000E+00  0.00000000000E+00  0.64595269235E+03  0.64595269235E+03  0.00000000000E+00 0. -1.
         21   -1    0    0  501  502  0.00000000000E+00 -0.00000000000E+00 -0.65032243512E+01  0.65032243512E+01  0.00000000000E+00 0.  1.
         24    2    1    2    0    0 -0.12053535369E+02  0.19743044984E+02  0.28181232767E+03  0.29407148668E+03  0.80776083777E+02 0.  0.
        -11    1    3    3    0    0 -0.33966303963E+02  0.22844664334E+02  0.69877548391E+02  0.80984321091E+02  0.00000000000E+00 0.  1.
         12    1    3    3    0    0  0.21912768594E+02 -0.31016193497E+01  0.21193477928E+03  0.21308716558E+03  0.00000000000E+00 0. -1.
          1    1    1    2  501    0  0.12053535369E+02 -0.19743044984E+02  0.35763714033E+03  0.35838443003E+03  0.00000000000E+00 0. -1.
<mgrwt>
<rscale>  1 0.84022921E+02</rscale>
<asrwt>0</asrwt>
<pdfrwt beam="1">  1       21 0.10004966E-02 0.84022921E+02</pdfrwt>
<pdfrwt beam="2">  1        2 0.99377287E-01 0.84022921E+02</pdfrwt>
<totfact> 0.20205922E+06</totfact>
</mgrwt>
</event>
<event>
 6    2  0.8544106E+000  0.8740631E+02  0.7546771E-02  0.1309257E+00
         21   -1    0    0  501  502  0.00000000000E+00  0.00000000000E+00  0.37027584022E+02  0.37027584022E+02  0.00000000000E+00 0. -1.
          2   -1    0    0  502    0 -0.00000000000E+00 -0.00000000000E+00 -0.14897493148E+03  0.14897493148E+03  0.00000000000E+00 0. -1.
         24    2    1    2    0    0 -0.11179538731E+02 -0.34586900322E+02 -0.12030530844E+03  0.14870517951E+03  0.79489794409E+02 0.  0.
        -11    1    3    3    0    0  0.72335436706E+01 -0.28423725437E+01  0.10378745071E+02  0.12966170790E+02  0.00000000000E+00 0.  1.
         12    1    3    3    0    0 -0.18413082402E+02 -0.31744527778E+02 -0.13068405351E+03  0.13573900872E+03  0.00000000000E+00 0. -1.
          1    1    1    2  501    0  0.11179538731E+02  0.34586900322E+02  0.83579609800E+01  0.37297335989E+02  0.00000000000E+00 0. -1.
<mgrwt>
<rscale>  1 0.87406311E+02</rscale>
<asrwt>0</asrwt>
<pdfrwt beam="1">  1       21 0.56965514E-02 0.87406311E+02</pdfrwt>
<pdfrwt beam="2">  1        2 0.22919220E-01 0.87406311E+02</pdfrwt>
<totfact> 0.58858857E+05</totfact>
</mgrwt>
</event>
<event>
 6    2  0.8544106E+000  0.8565810E+02  0.7546771E-02  0.1313720E+00
         -1   -1    0    0    0  501 -0.00000000000E+00  0.00000000000E+00  0.14727792436E+03  0.14727792436E+03  0.00000000000E+00 0.  1.
         21   -1    0    0  501  502  0.00000000000E+00 -0.00000000000E+00 -0.58391306603E+02  0.58391306603E+02  0.00000000000E+00 0.  1.
         24    2    1    2    0    0 -0.25496704223E+02 -0.11816605441E+02  0.13011199160E+03  0.15577689148E+03  0.80917213686E+02 0.  0.
        -13    1    3    3    0    0 -0.42038699798E+02 -0.36282317717E+02  0.75937305455E+02  0.94075146661E+02  0.00000000000E+00 0.  1.
         14    1    3    3    0    0  0.16541995575E+02  0.24465712276E+02  0.54174686142E+02  0.61701744816E+02  0.00000000000E+00 0. -1.
         -2    1    1    2    0  502  0.25496704223E+02  0.11816605441E+02 -0.41225373844E+02  0.49892339482E+02  0.00000000000E+00 0.  1.
<mgrwt>
<rscale>  1 0.85658097E+02</rscale>
<asrwt>0</asrwt>
<pdfrwt beam="1">  1       21 0.89832780E-02 0.85658097E+02</pdfrwt>
<pdfrwt beam="2">  1       -1 0.22658142E-01 0.85658097E+02</pdfrwt>
<totfact> 0.13923446E+05</totfact>
</mgrwt>
</event>
<event>
 6    2  0.8544106E+000  0.8315042E+02  0.7546771E-02  0.1320341E+00
         -1   -1    0    0    0  501 -0.00000000000E+00  0.00000000000E+00  0.23542345962E+03  0.23542345962E+03  0.00000000000E+00 0.  1.
         21   -1    0    0  501  502  0.00000000000E+00 -0.00000000000E+00 -0.14021826765E+02  0.14021826765E+02  0.00000000000E+00 0. -1.
         24    2    1    2    0    0 -0.22781068984E+02 -0.22222169462E+01  0.12336005799E+03  0.14876725624E+03  0.79937958874E+02 0.  0.
        -11    1    3    3    0    0  0.14418887869E+02  0.25167782517E+02  0.81200194222E+02  0.86225246569E+02  0.00000000000E+00 0.  1.
         12    1    3    3    0    0 -0.37199956853E+02 -0.27389999463E+02  0.42159863769E+02  0.62542009669E+02  0.00000000000E+00 0. -1.
         -2    1    1    2    0  502  0.22781068984E+02  0.22222169462E+01  0.98041574864E+02  0.10067803015E+03  0.00000000000E+00 0.  1.
<mgrwt>
<rscale>  1 0.83150422E+02</rscale>
<asrwt>0</asrwt>
<pdfrwt beam="1">  1       21 0.21572043E-02 0.83150422E+02</pdfrwt>
<pdfrwt beam="2">  1       -1 0.36218991E-01 0.83150422E+02</pdfrwt>
<totfact> 0.67734995E+05</totfact>
</mgrwt>
</event>
<event>
 6    2  0.8544106E+000  0.1076601E+03  0.7546771E-02  0.1264965E+00
         21   -1    0    0  501  502  0.00000000000E+00  0.00000000000E+00  0.48027380926E+02  0.48027380926E+02  0.00000000000E+00 0. -1.
          2   -1    0    0  502    0 -0.00000000000E+00 -0.00000000000E+00 -0.22512670789E+03  0.22512670789E+03  0.00000000000E+00 0. -1.
         24    2    1    2    0    0  0.47584271630E+02  0.61823134175E+02 -0.16070620151E+03  0.19343522412E+03  0.74191238711E+02 0.  0.
        -11    1    3    3    0    0  0.85768831487E+01  0.40633914171E+01  0.70195467226E+01  0.11804580066E+02  0.00000000000E+00 0.  1.
         12    1    3    3    0    0  0.39007388481E+02  0.57759742758E+02 -0.16772574824E+03  0.18163064406E+03  0.00000000000E+00 0. -1.
          1    1    1    2  501    0 -0.47584271630E+02 -0.61823134175E+02 -0.16393125451E+02  0.79718864692E+02  0.00000000000E+00 0. -1.
<mgrwt>
<rscale>  1 0.10766013E+03</rscale>
<asrwt>0</asrwt>
<pdfrwt beam="1">  1       21 0.73888278E-02 0.10766013E+03</pdfrwt>
<pdfrwt beam="2">  1        2 0.34634878E-01 0.10766013E+03</pdfrwt>
<totfact> 0.24687325E+05</totfact>
</mgrwt>
</event>
<event>
 6    2  0.8544106E+000  0.8835215E+02  0.7546771E-02  0.1306892E+00
          2   -1    0    0  502    0 -0.00000000000E+00  0.00000000000E+00  0.30860695763E+03  0.30860695763E+03  0.00000000000E+00 0. -1.
         21   -1    0    0  501  502  0.00000000000E+00 -0.00000000000E+00 -0.11009699084E+02  0.11009699084E+02  0.00000000000E+00 0. -1.
         24    2    1    2    0    0  0.56547090209E+01 -0.21727827416E+02  0.26972284529E+03  0.28382479824E+03  0.85451908160E+02 0.  0.
        -11    1    3    3    0    0 -0.23734214739E+02 -0.33398134887E+02  0.66153057677E+02  0.77813722461E+02  0.00000000000E+00 0.  1.
         12    1    3    3    0    0  0.29388923760E+02  0.11670307471E+02  0.20356978761E+03  0.20601107578E+03  0.00000000000E+00 0. -1.
          1    1    1    2  501    0 -0.56547090209E+01  0.21727827416E+02  0.27874413250E+02  0.35791858465E+02  0.00000000000E+00 0. -1.
<mgrwt>
<rscale>  1 0.88352152E+02</rscale>
<asrwt>0</asrwt>
<pdfrwt beam="1">  1       21 0.16938001E-02 0.88352152E+02</pdfrwt>
<pdfrwt beam="2">  1        2 0.47477987E-01 0.88352152E+02</pdfrwt>
<totfact> 0.19574966E+06</totfact>
</mgrwt>
</event>
<event>
 6    2  0.8544106E+000  0.9249014E+02  0.7546771E-02  0.1296931E+00
          2   -1    0    0  502    0 -0.00000000000E+00  0.00000000000E+00  0.31252185809E+01  0.31252185809E+01  0.00000000000E+00 0. -1.
         21   -1    0    0  501  502  0.00000000000E+00 -0.00000000000E+00 -0.14642720542E+04  0.14642720542E+04  0.00000000000E+00 0.  1.
         24    2    1    2    0    0  0.30648815829E+02  0.24619529031E+02 -0.85802102270E+03  0.86299159997E+03  0.83719502480E+02 0.  0.
        -13    1    3    3    0    0 -0.19927883540E+02  0.35504812976E+02 -0.36527146380E+03  0.36753361010E+03  0.00000000000E+00 0.  1.
         14    1    3    3    0    0  0.50576699369E+02 -0.10885283945E+02 -0.49274955890E+03  0.49545798987E+03  0.00000000000E+00 0. -1.
          1    1    1    2  501    0 -0.30648815829E+02 -0.24619529031E+02 -0.60312581294E+03  0.60440567284E+03  0.00000000000E+00 0. -1.
<mgrwt>
<rscale>  1 0.92490141E+02</rscale>
<asrwt>0</asrwt>
<pdfrwt beam="1">  1       21 0.22527272E+00 0.92490141E+02</pdfrwt>
<pdfrwt beam="2">  1        2 0.48080265E-03 0.92490141E+02</pdfrwt>
<totfact> 0.45085030E+04</totfact>
</mgrwt>
</event>
<event>
 6    2  0.8544106E+000  0.9596318E+02  0.7546771E-02  0.1289021E+00
         21   -1    0    0  501  502  0.00000000000E+00  0.00000000000E+00  0.78047668737E+01  0.78047668737E+01  0.00000000000E+00 0. -1.
         -3   -1    0    0    0  501 -0.00000000000E+00 -0.00000000000E+00 -0.67231442187E+03  0.67231442187E+03  0.00000000000E+00 0.  1.
         24    2    1    2    0    0 -0.75627547925E+01 -0.40832602913E+02 -0.55006977843E+03  0.55837773291E+03  0.86512627655E+02 0.  0.
        -13    1    3    3    0    0  0.94377317114E+01  0.23630397555E+02 -0.23233584004E+03  0.23372507148E+03  0.00000000000E+00 0.  1.
         14    1    3    3    0    0 -0.17000486504E+02 -0.64463000468E+02 -0.31773393839E+03  0.32465266143E+03  0.00000000000E+00 0. -1.
         -4    1    1    2    0  502  0.75627547925E+01  0.40832602913E+02 -0.11443987657E+03  0.12174145584E+03  0.00000000000E+00 0.  1.
<mgrwt>
<rscale>  1 0.95963178E+02</rscale>
<asrwt>0</asrwt>
<pdfrwt beam="1">  1       21 0.12007330E-02 0.95963178E+02</pdfrwt>
<pdfrwt beam="2">  1       -3 0.10343302E+00 0.95963178E+02</pdfrwt>
<totfact> 0.10683493E+05</totfact>
</mgrwt>
</event>
<event>
 6    2  0.8544106E+000  0.8852785E+02  0.7546771E-02  0.1306456E+00
         21   -1    0    0  501  502  0.00000000000E+00  0.00000000000E+00  0.10528409794E+03  0.10528409794E+03  0.00000000000E+00 0.  1.
          4   -1    0    0  502    0 -0.00000000000E+00 -0.00000000000E+00 -0.39869801036E+02  0.39869801036E+02  0.00000000000E+00 0. -1.
         24    2    1    2    0    0 -0.13755041743E+02 -0.32306797630E+02  0.25784774860E+02  0.92206478228E+02  0.81266534725E+02 0.  0.
        -11    1    3    3    0    0 -0.24606666268E+02 -0.55959645558E+02  0.10498808517E+02  0.62025760262E+02  0.00000000000E+00 0.  1.
         12    1    3    3    0    0  0.10851624525E+02  0.23652847928E+02  0.15285966343E+02  0.30180717966E+02  0.00000000000E+00 0. -1.
          3    1    1    2  501    0  0.13755041743E+02  0.32306797630E+02  0.39629522045E+02  0.52947420749E+02  0.00000000000E+00 0. -1.
<mgrwt>
<rscale>  1 0.88527849E+02</rscale>
<asrwt>0</asrwt>
<pdfrwt beam="1">  1       21 0.16197553E-01 0.88527849E+02</pdfrwt>
<pdfrwt beam="2">  1        4 0.61338156E-02 0.88527849E+02</pdfrwt>
<totfact> 0.21827898E+05</totfact>
</mgrwt>
</event>
<event>
 6    2  0.8544106E+000  0.8506854E+02  0.7546771E-02  0.1315253E+00
         21   -1    0    0  501  502  0.00000000000E+00  0.00000000000E+00  0.18383978595E+02  0.18383978595E+02  0.00000000000E+00 0.  1.
          2   -1    0    0  502    0 -0.00000000000E+00 -0.00000000000E+00 -0.18132809859E+03  0.18132809859E+03  0.00000000000E+00 0. -1.
         24    2    1    2    0    0 -0.28320480312E+02 -0.99734997237E+01 -0.12729205336E+03  0.15310102531E+03  0.79593572602E+02 0.  0.
        -13    1    3    3    0    0  0.14550116420E+02 -0.30632992345E+02 -0.75491499480E+02  0.82759003145E+02  0.00000000000E+00 0.  1.
         14    1    3    3    0    0 -0.42870596732E+02  0.20659492621E+02 -0.51800553878E+02  0.70342022160E+02  0.00000000000E+00 0. -1.
          1    1    1    2  501    0  0.28320480312E+02  0.99734997237E+01 -0.35652066639E+02  0.46611051881E+02  0.00000000000E+00 0. -1.
<mgrwt>
<rscale>  1 0.85068544E+02</rscale>
<asrwt>0</asrwt>
<pdfrwt beam="1">  1       21 0.28283044E-02 0.85068544E+02</pdfrwt>
<pdfrwt beam="2">  1        2 0.27896631E-01 0.85068544E+02</pdfrwt>
<totfact> 0.15000934E+06</totfact>
</mgrwt>
</event>
<event>
 6    2  0.8544106E+000  0.9096694E+02  0.7546771E-02  0.1300527E+00
         21   -1    0    0  501  502  0.00000000000E+00  0.00000000000E+00  0.54477753018E+01  0.54477753018E+01  0.00000000000E+00 0. -1.
          2   -1    0    0  502    0 -0.00000000000E+00 -0.00000000000E+00 -0.86895310716E+03  0.86895310716E+03  0.00000000000E+00 0. -1.
         24    2    1    2    0    0  0.11098464437E+02 -0.43639112757E+02 -0.63707677812E+03  0.64353850349E+03  0.79040724841E+02 0.  0.
        -13    1    3    3    0    0  0.26279054373E+02 -0.94939544345E+01 -0.72062355962E+02  0.77289760100E+02  0.00000000000E+00 0.  1.
         14    1    3    3    0    0 -0.15180589936E+02 -0.34145158322E+02 -0.56501442216E+03  0.56624874339E+03  0.00000000000E+00 0. -1.
          1    1    1    2  501    0 -0.11098464437E+02  0.43639112757E+02 -0.22642855374E+03  0.23086237897E+03  0.00000000000E+00 0. -1.
<mgrwt>
<rscale>  1 0.90966940E+02</rscale>
<asrwt>0</asrwt>
<pdfrwt beam="1">  1       21 0.83811955E-03 0.90966940E+02</pdfrwt>
<pdfrwt beam="2">  1        2 0.13368505E+00 0.90966940E+02</pdfrwt>
<totfact> 0.18843883E+06</totfact>
</mgrwt>
</event>
<event>
 6    2  0.8544106E+000  0.8636145E+02  0.7546771E-02  0.1311910E+00
         21   -1    0    0  501  502  0.00000000000E+00  0.00000000000E+00  0.58867956707E+02  0.58867956707E+02  0.00000000000E+00 0.  1.
          2   -1    0    0  502    0 -0.00000000000E+00 -0.00000000000E+00 -0.61164256381E+02  0.61164256381E+02  0.00000000000E+00 0. -1.
         24    2    1    2    0    0 -0.20771513169E+02  0.22028854088E+02 -0.14157701661E+02  0.87514233003E+02  0.80879999320E+02 0.  0.
        -13    1    3    3    0    0 -0.17849656426E+02  0.52653908061E+02 -0.90311524808E+01  0.56325890883E+02  0.00000000000E+00 0.  1.
         14    1    3    3    0    0 -0.29218567430E+01 -0.30625053973E+02 -0.51265491802E+01  0.31188342120E+02  0.00000000000E+00 0. -1.
          1    1    1    2  501    0  0.20771513169E+02 -0.22028854088E+02  0.11861401987E+02  0.32517980086E+02  0.00000000000E+00 0. -1.
<mgrwt>
<rscale>  1 0.86361452E+02</rscale>
<asrwt>0</asrwt>
<pdfrwt beam="1">  1       21 0.90566087E-02 0.86361452E+02</pdfrwt>
<pdfrwt beam="2">  1        2 0.94098856E-02 0.86361452E+02</pdfrwt>
<totfact> 0.75059141E+05</totfact>
</mgrwt>
</event>
<event>
 6    2  0.8544106E+000  0.8352316E+02  0.7546771E-02  0.1319340E+00
         21   -1    0    0  501  502  0.00000000000E+00  0.00000000000E+00  0.15991050212E+03  0.15991050212E+03  0.00000000000E+00 0.  1.
          2   -1    0    0  502    0 -0.00000000000E+00 -0.00000000000E+00 -0.20159027749E+02  0.20159027749E+02  0.00000000000E+00 0. -1.
         24    2    1    2    0    0 -0.26436162261E+02  0.11726243684E+02  0.11416241318E+03  0.14145378802E+03  0.78356506405E+02 0.  0.
        -13    1    3    3    0    0 -0.29037412346E+02  0.14036328366E+02  0.12550858463E+03  0.12958624405E+03  0.00000000000E+00 0.  1.
         14    1    3    3    0    0  0.26012500854E+01 -0.23100846818E+01 -0.11346171454E+02  0.11867543971E+02  0.00000000000E+00 0. -1.
          1    1    1    2  501    0  0.26436162261E+02 -0.11726243684E+02  0.25589061193E+02  0.38615741852E+02  0.00000000000E+00 0. -1.
<mgrwt>
<rscale>  1 0.83523156E+02</rscale>
<asrwt>0</asrwt>
<pdfrwt beam="1">  1       21 0.24601615E-01 0.83523156E+02</pdfrwt>
<pdfrwt beam="2">  1        2 0.31013890E-02 0.83523156E+02</pdfrwt>
<totfact> 0.51817459E+05</totfact>
</mgrwt>
</event>
<event>
 6    2  0.8544106E+000  0.9103962E+02  0.7546771E-02  0.1300353E+00
          2   -1    0    0  502    0 -0.00000000000E+00  0.00000000000E+00  0.21149984753E+03  0.21149984753E+03  0.00000000000E+00 0. -1.
         21   -1    0    0  501  502  0.00000000000E+00 -0.00000000000E+00 -0.22331547599E+02  0.22331547599E+02  0.00000000000E+00 0. -1.
         24    2    1    2    0    0  0.27436120170E+02 -0.25945562182E+02  0.16656717646E+03  0.18982317238E+03  0.82838998135E+02 0.  0.
        -13    1    3    3    0    0  0.12066088782E+02  0.22891624357E+00 -0.67774123142E+01  0.13841106127E+02  0.00000000000E+00 0.  1.
         14    1    3    3    0    0  0.15370031389E+02 -0.26174478426E+02  0.17334458878E+03  0.17598206626E+03  0.00000000000E+00 0. -1.
          1    1    1    2  501    0 -0.27436120170E+02  0.25945562182E+02  0.22601123463E+02  0.44008222740E+02  0.00000000000E+00 0. -1.
<mgrwt>
<rscale>  1 0.91039620E+02</rscale>
<asrwt>0</asrwt>
<pdfrwt beam="1">  1       21 0.34356228E-02 0.91039620E+02</pdfrwt>
<pdfrwt beam="2">  1        2 0.32538437E-01 0.91039620E+02</pdfrwt>
<totfact> 0.93463801E+05</totfact>
</mgrwt>
</event>
<event>
 6    2  0.8544106E+000  0.1062366E+03  0.7546771E-02  0.1267702E+00
         21   -1    0    0  501  502  0.00000000000E+00  0.00000000000E+00  0.13282212124E+02  0.13282212124E+02  0.00000000000E+00 0. -1.
          2   -1    0    0  502    0 -0.00000000000E+00 -0.00000000000E+00 -0.61785040897E+03  0.61785040897E+03  0.00000000000E+00 0. -1.
         24    2    1    2    0    0  0.29675558092E+02 -0.66406941119E+02 -0.40574525250E+03  0.41942271633E+03  0.77431805294E+02 0.  0.
        -11    1    3    3    0    0 -0.92631633891E+01  0.12944172978E+02 -0.96078075464E+02  0.97387650115E+02  0.00000000000E+00 0.  1.
         12    1    3    3    0    0  0.38938721481E+02 -0.79351114097E+02 -0.30966717703E+03  0.32203506621E+03  0.00000000000E+00 0. -1.
          1    1    1    2  501    0 -0.29675558092E+02  0.66406941119E+02 -0.19882294435E+03  0.21170990477E+03  0.00000000000E+00 0. -1.
<mgrwt>
<rscale>  1 0.10623655E+03</rscale>
<asrwt>0</asrwt>
<pdfrwt beam="1">  1       21 0.20434175E-02 0.10623655E+03</pdfrwt>
<pdfrwt beam="2">  1        2 0.95053899E-01 0.10623655E+03</pdfrwt>
<totfact> 0.70139067E+05</totfact>
</mgrwt>
</event>
<event>
 6    2  0.8544106E+000  0.8774657E+02  0.7546771E-02  0.1308402E+00
          2   -1    0    0  502    0 -0.00000000000E+00  0.00000000000E+00  0.20363932455E+03  0.20363932455E+03  0.00000000000E+00 0. -1.
         21   -1    0    0  501  502  0.00000000000E+00 -0.00000000000E+00 -0.16155388887E+02  0.16155388887E+02  0.00000000000E+00 0. -1.
         24    2    1    2    0    0 -0.68270006992E+01  0.25588656870E+02  0.13506224022E+03  0.16106293795E+03  0.83654491500E+02 0.  0.
        -13    1    3    3    0    0  0.16625234852E+02  0.28776989236E+02  0.13324294686E+03  0.13732514858E+03  0.00000000000E+00 0.  1.
         14    1    3    3    0    0 -0.23452235552E+02 -0.31883323663E+01  0.18192933524E+01  0.23737789365E+02  0.00000000000E+00 0. -1.
          1    1    1    2  501    0  0.68270006992E+01 -0.25588656870E+02  0.52421695446E+02  0.58731775492E+02  0.00000000000E+00 0. -1.
<mgrwt>
<rscale>  1 0.87746574E+02</rscale>
<asrwt>0</asrwt>
<pdfrwt beam="1">  1       21 0.24854446E-02 0.87746574E+02</pdfrwt>
<pdfrwt beam="2">  1        2 0.31329125E-01 0.87746574E+02</pdfrwt>
<totfact> 0.16389060E+06</totfact>
</mgrwt>
</event>
<event>
 6    2  0.8544106E+000  0.9222221E+02  0.7546771E-02  0.1297558E+00
         21   -1    0    0  501  502  0.00000000000E+00  0.00000000000E+00  0.44957640111E+02  0.44957640111E+02  0.00000000000E+00 0. -1.
          2   -1    0    0  502    0 -0.00000000000E+00 -0.00000000000E+00 -0.11870414724E+03  0.11870414724E+03  0.00000000000E+00 0. -1.
         24    2    1    2    0    0 -0.70953862511E+00 -0.46081806947E+02 -0.72918327711E+02  0.11756707770E+03  0.79880528701E+02 0.  0.
        -11    1    3    3    0    0  0.14885607338E+02  0.18210061222E+02 -0.79055031107E+01  0.24812992866E+02  0.00000000000E+00 0.  1.
         12    1    3    3    0    0 -0.15595145963E+02 -0.64291868169E+02 -0.65012824601E+02  0.92754084831E+02  0.00000000000E+00 0. -1.
          1    1    1    2  501    0  0.70953862511E+00  0.46081806947E+02 -0.82817941310E+00  0.46094709649E+02  0.00000000000E+00 0. -1.
<mgrwt>
<rscale>  1 0.92222206E+02</rscale>
<asrwt>0</asrwt>
<pdfrwt beam="1">  1       21 0.69165600E-02 0.92222206E+02</pdfrwt>
<pdfrwt beam="2">  1        2 0.18262176E-01 0.92222206E+02</pdfrwt>
<totfact> 0.54946732E+05</totfact>
</mgrwt>
</event>
<event>
 6    2  0.8544106E+000  0.8793670E+02  0.7546771E-02  0.1307927E+00
         21   -1    0    0  501  502  0.00000000000E+00  0.00000000000E+00  0.26408107185E+01  0.26408107185E+01  0.00000000000E+00 0.  1.
          2   -1    0    0  502    0 -0.00000000000E+00 -0.00000000000E+00 -0.14941282735E+04  0.14941282735E+04  0.00000000000E+00 0. -1.
         24    2    1    2    0    0 -0.29278532326E+02 -0.23587646705E+02 -0.10710008061E+04  0.10746048532E+04  0.79493737177E+02 0.  0.
        -13    1    3    3    0    0 -0.28679055305E+02 -0.52042064427E+02 -0.70615288438E+03  0.70864854534E+03  0.00000000000E+00 0.  1.
         14    1    3    3    0    0 -0.59947702107E+00  0.28454417722E+02 -0.36484792176E+03  0.36595630788E+03  0.00000000000E+00 0. -1.
          1    1    1    2  501    0  0.29278532326E+02  0.23587646705E+02 -0.42048665660E+03  0.42216423097E+03  0.00000000000E+00 0. -1.
<mgrwt>
<rscale>  1 0.87936703E+02</rscale>
<asrwt>0</asrwt>
<pdfrwt beam="1">  1       21 0.40627829E-03 0.87936703E+02</pdfrwt>
<pdfrwt beam="2">  1        2 0.22986605E+00 0.87936703E+02</pdfrwt>
<totfact> 0.25790227E+06</totfact>
</mgrwt>
</event>
<event>
 6    2  0.8544106E+000  0.8809742E+02  0.7546771E-02  0.1307526E+00
         -1   -1    0    0    0  501 -0.00000000000E+00  0.00000000000E+00  0.45699708367E+02  0.45699708367E+02  0.00000000000E+00 0.  1.
         21   -1    0    0  501  502  0.00000000000E+00 -0.00000000000E+00 -0.83974997564E+02  0.83974997564E+02  0.00000000000E+00 0. -1.
         24    2    1    2    0    0  0.31725925509E+02  0.70610919073E+01 -0.14217079505E+02  0.89237213156E+02  0.81882608006E+02 0.  0.
        -13    1    3    3    0    0 -0.11343798887E+02 -0.10489657507E+02  0.24336605775E+02  0.28826811625E+02  0.00000000000E+00 0.  1.
         14    1    3    3    0    0  0.43069724396E+02  0.17550749415E+02 -0.38553685280E+02  0.60410401532E+02  0.00000000000E+00 0. -1.
         -2    1    1    2    0  502 -0.31725925509E+02 -0.70610919073E+01 -0.24058209692E+02  0.40437492775E+02  0.00000000000E+00 0.  1.
<mgrwt>
<rscale>  1 0.88097417E+02</rscale>
<asrwt>0</asrwt>
<pdfrwt beam="1">  1       21 0.12919230E-01 0.88097417E+02</pdfrwt>
<pdfrwt beam="2">  1       -1 0.70307244E-02 0.88097417E+02</pdfrwt>
<totfact> 0.44671090E+05</totfact>
</mgrwt>
</event>
<event>
 6    2  0.8544106E+000  0.9643846E+02  0.7546771E-02  0.1287969E+00
          2   -1    0    0  502    0 -0.00000000000E+00  0.00000000000E+00  0.10682017279E+03  0.10682017279E+03  0.00000000000E+00 0. -1.
         21   -1    0    0  501  502  0.00000000000E+00 -0.00000000000E+00 -0.20739768655E+03  0.20739768655E+03  0.00000000000E+00 0. -1.
         24    2    1    2    0    0 -0.27253839968E+02 -0.17476833107E+02  0.83347858795E+02  0.12746466885E+03  0.90841426404E+02 0.  0.
        -13    1    3    3    0    0 -0.90589309367E+01  0.23367664036E+02 -0.75413035869E+01  0.26172183937E+02  0.00000000000E+00 0.  1.
         14    1    3    3    0    0 -0.18194909031E+02 -0.40844497143E+02  0.90889162382E+02  0.10129248491E+03  0.00000000000E+00 0. -1.
          1    1    1    2  501    0  0.27253839968E+02  0.17476833107E+02 -0.18392537256E+03  0.18675319049E+03  0.00000000000E+00 0. -1.
<mgrwt>
<rscale>  1 0.96438458E+02</rscale>
<asrwt>0</asrwt>
<pdfrwt beam="1">  1       21 0.31907336E-01 0.96438458E+02</pdfrwt>
<pdfrwt beam="2">  1        2 0.16433873E-01 0.96438458E+02</pdfrwt>
<totfact> 0.39979426E+04</totfact>
</mgrwt>
</event>
<event>
 6    2  0.8544106E+000  0.8328599E+02  0.7546771E-02  0.1319977E+00
         21   -1    0    0  501  502  0.00000000000E+00  0.00000000000E+00  0.40339761617E+01  0.40339761617E+01  0.00000000000E+00 0. -1.
          2   -1    0    0  502    0 -0.00000000000E+00 -0.00000000000E+00 -0.15144376473E+04  0.15144376473E+04  0.00000000000E+00 0. -1.
         24    2    1    2    0    0  0.14110148009E+02  0.37087615943E+02 -0.13710808578E+04  0.13736081227E+04  0.73225464277E+02 0.  0.
        -13    1    3    3    0    0  0.61716950267E+00  0.16578169760E+01  0.22061549563E+00  0.17826739797E+01  0.00000000000E+00 0.  1.
         14    1    3    3    0    0  0.13492978506E+02  0.35429798967E+02 -0.13713014733E+04  0.13718254487E+04  0.00000000000E+00 0. -1.
          1    1    1    2  501    0 -0.14110148009E+02 -0.37087615943E+02 -0.13932281333E+03  0.14486350074E+03  0.00000000000E+00 0. -1.
<mgrwt>
<rscale>  1 0.83285990E+02</rscale>
<asrwt>0</asrwt>
<pdfrwt beam="1">  1       21 0.62061242E-03 0.83285990E+02</pdfrwt>
<pdfrwt beam="2">  1        2 0.23299014E+00 0.83285990E+02</pdfrwt>
<totfact> 0.13110139E+06</totfact>
</mgrwt>
</event>
<event>
 6    2  0.8544106E+000  0.8168580E+02  0.7546771E-02  0.1324334E+00
          4   -1    0    0  502    0 -0.00000000000E+00  0.00000000000E+00  0.65283798306E+03  0.65283798306E+03  0.00000000000E+00 0. -1.
         21   -1    0    0  501  502  0.00000000000E+00 -0.00000000000E+00 -0.60510065987E+01  0.60510065987E+01  0.00000000000E+00 0. -1.
         24    2    1    2    0    0 -0.15792705101E+02  0.16113049851E+02  0.61199139468E+03  0.61741885074E+03  0.78508153615E+02 0.  0.
        -11    1    3    3    0    0 -0.49739583409E+01  0.32699036742E+02  0.10600623778E+03  0.11104634039E+03  0.00000000000E+00 0.  1.
         12    1    3    3    0    0 -0.10818746760E+02 -0.16585986890E+02  0.50598515690E+03  0.50637251036E+03  0.00000000000E+00 0. -1.
          3    1    1    2  501    0  0.15792705101E+02 -0.16113049851E+02  0.34795581778E+02  0.41470138910E+02  0.00000000000E+00 0. -1.
<mgrwt>
<rscale>  1 0.81685801E+02</rscale>
<asrwt>0</asrwt>
<pdfrwt beam="1">  1       21 0.93092461E-03 0.81685801E+02</pdfrwt>
<pdfrwt beam="2">  1        4 0.10043656E+00 0.81685801E+02</pdfrwt>
<totfact> 0.13075739E+05</totfact>
</mgrwt>
</event>
<event>
 6    2  0.8544106E+000  0.8443684E+02  0.7546771E-02  0.1316912E+00
         21   -1    0    0  501  502  0.00000000000E+00  0.00000000000E+00  0.38756725803E+02  0.38756725803E+02  0.00000000000E+00 0.  1.
          2   -1    0    0  502    0 -0.00000000000E+00 -0.00000000000E+00 -0.93349526872E+02  0.93349526872E+02  0.00000000000E+00 0. -1.
         24    2    1    2    0    0 -0.72574403424E+01 -0.23242765504E+02 -0.64053785533E+02  0.10598333523E+03  0.80849757685E+02 0.  0.
        -11    1    3    3    0    0 -0.24094322857E+02  0.12131911098E+00  0.10332721059E+02  0.26216716742E+02  0.00000000000E+00 0.  1.
         12    1    3    3    0    0  0.16836882514E+02 -0.23364084615E+02 -0.74386506592E+02  0.79766618492E+02  0.00000000000E+00 0. -1.
          1    1    1    2  501    0  0.72574403424E+01  0.23242765504E+02  0.94609844631E+01  0.26122917440E+02  0.00000000000E+00 0. -1.
<mgrwt>
<rscale>  1 0.84436840E+02</rscale>
<asrwt>0</asrwt>
<pdfrwt beam="1">  1       21 0.59625732E-02 0.84436840E+02</pdfrwt>
<pdfrwt beam="2">  1        2 0.14361466E-01 0.84436840E+02</pdfrwt>
<totfact> 0.92058512E+05</totfact>
</mgrwt>
</event>
<event>
 6    2  0.8544106E+000  0.8406105E+02  0.7546771E-02  0.1317906E+00
          2   -1    0    0  502    0 -0.00000000000E+00  0.00000000000E+00  0.27429515958E+04  0.27429515958E+04  0.00000000000E+00 0. -1.
         21   -1    0    0  501  502  0.00000000000E+00 -0.00000000000E+00 -0.11730827208E+01  0.11730827208E+01  0.00000000000E+00 0.  1.
         24    2    1    2    0    0 -0.82505110303E+01  0.21343819674E+02  0.16820943698E+04  0.16841934954E+04  0.80886533170E+02 0.  0.
        -11    1    3    3    0    0  0.28375584888E+02  0.33784500487E+02  0.74970310089E+03  0.75100020358E+03  0.00000000000E+00 0.  1.
         12    1    3    3    0    0 -0.36626095918E+02 -0.12440680814E+02  0.93239126895E+03  0.93319329180E+03  0.00000000000E+00 0. -1.
          1    1    1    2  501    0  0.82505110303E+01 -0.21343819674E+02  0.10596841433E+04  0.10599311832E+04  0.00000000000E+00 0. -1.
<mgrwt>
<rscale>  1 0.84061054E+02</rscale>
<asrwt>0</asrwt>
<pdfrwt beam="1">  1       21 0.18047646E-03 0.84061054E+02</pdfrwt>
<pdfrwt beam="2">  1        2 0.42198742E+00 0.84061054E+02</pdfrwt>
<totfact> 0.20076183E+06</totfact>
</mgrwt>
</event>
<event>
 6    2  0.8544106E+000  0.8914785E+02  0.7546771E-02  0.1304929E+00
          2   -1    0    0  502    0 -0.00000000000E+00  0.00000000000E+00  0.20259025003E+04  0.20259025003E+04  0.00000000000E+00 0. -1.
         21   -1    0    0  501  502  0.00000000000E+00 -0.00000000000E+00 -0.66343721815E+01  0.66343721815E+01  0.00000000000E+00 0. -1.
         24    2    1    2    0    0  0.35656053380E+02  0.88193339671E+01  0.19649168563E+04  0.19669381260E+04  0.81229332328E+02 0.  0.
        -13    1    3    3    0    0  0.26818309728E-01 -0.15015236161E+02  0.72632952336E+02  0.74168752188E+02  0.00000000000E+00 0.  1.
         14    1    3    3    0    0  0.35629235070E+02  0.23834570128E+02  0.18922839040E+04  0.18927693738E+04  0.00000000000E+00 0. -1.
          1    1    1    2  501    0 -0.35656053380E+02 -0.88193339671E+01  0.54351271761E+02  0.65598746453E+02  0.00000000000E+00 0. -1.
<mgrwt>
<rscale>  1 0.89147850E+02</rscale>
<asrwt>0</asrwt>
<pdfrwt beam="1">  1       21 0.10206743E-02 0.89147850E+02</pdfrwt>
<pdfrwt beam="2">  1        2 0.31167681E+00 0.89147850E+02</pdfrwt>
<totfact> 0.33667898E+05</totfact>
</mgrwt>
</event>
<event>
 6    2  0.8544106E+000  0.1399086E+03  0.7546771E-02  0.1213452E+00
         21   -1    0    0  501  502  0.00000000000E+00  0.00000000000E+00  0.64911456719E+03  0.64911456719E+03  0.00000000000E+00 0. -1.
         -3   -1    0    0    0  501 -0.00000000000E+00 -0.00000000000E+00 -0.36648982049E+02  0.36648982049E+02  0.00000000000E+00 0.  1.
         24    2    1    2    0    0 -0.71207096320E+02 -0.90095706290E+02  0.51950851360E+03  0.53801814658E+03  0.79917103816E+02 0.  0.
        -13    1    3    3    0    0  0.10303507147E+02 -0.10203020371E+02  0.15407865625E+02  0.21158123908E+02  0.00000000000E+00 0.  1.
         14    1    3    3    0    0 -0.81510603467E+02 -0.79892685919E+02  0.50410064798E+03  0.51686002267E+03  0.00000000000E+00 0. -1.
         -4    1    1    2    0  502  0.71207096320E+02  0.90095706290E+02  0.92957071534E+02  0.14774540266E+03  0.00000000000E+00 0.  1.
<mgrwt>
<rscale>  1 0.13990865E+03</rscale>
<asrwt>0</asrwt>
<pdfrwt beam="1">  1       21 0.99863771E-01 0.13990865E+03</pdfrwt>
<pdfrwt beam="2">  1       -3 0.56383054E-02 0.13990865E+03</pdfrwt>
<totfact> 0.75729433E+03</totfact>
</mgrwt>
</event>
<event>
 6    2  0.8544106E+000  0.9827290E+02  0.7546771E-02  0.1283970E+00
         21   -1    0    0  501  502  0.00000000000E+00  0.00000000000E+00  0.15514859123E+02  0.15514859123E+02  0.00000000000E+00 0.  1.
          2   -1    0    0  502    0 -0.00000000000E+00 -0.00000000000E+00 -0.43894588857E+03  0.43894588857E+03  0.00000000000E+00 0. -1.
         24    2    1    2    0    0 -0.32775999446E+01 -0.53199462864E+02 -0.35121719188E+03  0.36470684055E+03  0.82562934570E+02 0.  0.
        -13    1    3    3    0    0 -0.29782286662E+02 -0.36629444798E+02 -0.90038519675E+02  0.10166432929E+03  0.00000000000E+00 0.  1.
         14    1    3    3    0    0  0.26504686718E+02 -0.16570018066E+02 -0.26117867221E+03  0.26304251126E+03  0.00000000000E+00 0. -1.
          1    1    1    2  501    0  0.32775999446E+01  0.53199462864E+02 -0.72213837568E+02  0.89753907139E+02  0.00000000000E+00 0. -1.
<mgrwt>
<rscale>  1 0.98272904E+02</rscale>
<asrwt>0</asrwt>
<pdfrwt beam="1">  1       21 0.23869011E-02 0.98272904E+02</pdfrwt>
<pdfrwt beam="2">  1        2 0.67530145E-01 0.98272904E+02</pdfrwt>
<totfact> 0.78902297E+05</totfact>
</mgrwt>
</event>
<event>
 6    2  0.8544106E+000  0.1058078E+03  0.7546771E-02  0.1268536E+00
         21   -1    0    0  501  502  0.00000000000E+00  0.00000000000E+00  0.34110715828E+02  0.34110715828E+02  0.00000000000E+00 0. -1.
          2   -1    0    0  502    0 -0.00000000000E+00 -0.00000000000E+00 -0.90386480485E+03  0.90386480485E+03  0.00000000000E+00 0. -1.
         24    2    1    2    0    0 -0.36057578815E+02 -0.58274169651E+02 -0.86261179587E+03  0.86907675298E+03  0.80618015139E+02 0.  0.
        -11    1    3    3    0    0 -0.62118902440E+02 -0.43174300955E+02 -0.60617702085E+03  0.61087916883E+03  0.00000000000E+00 0.  1.
         12    1    3    3    0    0  0.26061323625E+02 -0.15099868696E+02 -0.25643477502E+03  0.25819758416E+03  0.00000000000E+00 0. -1.
          1    1    1    2  501    0  0.36057578815E+02  0.58274169651E+02 -0.71422931535E+01  0.68898767696E+02  0.00000000000E+00 0. -1.
<mgrwt>
<rscale>  1 0.10580781E+03</rscale>
<asrwt>0</asrwt>
<pdfrwt beam="1">  1       21 0.52478015E-02 0.10580781E+03</pdfrwt>
<pdfrwt beam="2">  1        2 0.13905615E+00 0.10580781E+03</pdfrwt>
<totfact> 0.94467081E+04</totfact>
</mgrwt>
</event>
<event>
 6    2  0.8544106E+000  0.8335150E+02  0.7546771E-02  0.1319801E+00
          2   -1    0    0  502    0 -0.00000000000E+00  0.00000000000E+00  0.14895428449E+04  0.14895428449E+04  0.00000000000E+00 0. -1.
         21   -1    0    0  501  502  0.00000000000E+00 -0.00000000000E+00 -0.21179899724E+02  0.21179899724E+02  0.00000000000E+00 0. -1.
         24    2    1    2    0    0 -0.13975390333E+01  0.22331362831E+02  0.14821166468E+04  0.14844585640E+04  0.80292156842E+02 0.  0.
        -13    1    3    3    0    0 -0.10679154636E+02  0.22204785606E+02  0.13024843954E+03  0.13255848841E+03  0.00000000000E+00 0.  1.
         14    1    3    3    0    0  0.92816156028E+01  0.12657722490E+00  0.13518682073E+04  0.13519000755E+04  0.00000000000E+00 0. -1.
          1    1    1    2  501    0  0.13975390333E+01 -0.22331362831E+02 -0.13753701591E+02  0.26264180716E+02  0.00000000000E+00 0. -1.
<mgrwt>
<rscale>  1 0.83351505E+02</rscale>
<asrwt>0</asrwt>
<pdfrwt beam="1">  1       21 0.32584473E-02 0.83351505E+02</pdfrwt>
<pdfrwt beam="2">  1        2 0.22916036E+00 0.83351505E+02</pdfrwt>
<totfact> 0.98368636E+04</totfact>
</mgrwt>
</event>
<event>
 6    2  0.8544106E+000  0.8913815E+02  0.7546771E-02  0.1304952E+00
         -3   -1    0    0    0  501 -0.00000000000E+00  0.00000000000E+00  0.10884965695E+02  0.10884965695E+02  0.00000000000E+00 0.  1.
         21   -1    0    0  501  502  0.00000000000E+00 -0.00000000000E+00 -0.38694696209E+03  0.38694696209E+03  0.00000000000E+00 0. -1.
         24    2    1    2    0    0  0.21299410700E+02  0.33490694277E+02 -0.23668236424E+03  0.25291135175E+03  0.79814276926E+02 0.  0.
        -11    1    3    3    0    0 -0.90610887912E+00 -0.13913575161E+02 -0.41325308682E+01  0.14542572621E+02  0.00000000000E+00 0.  1.
         12    1    3    3    0    0  0.22205519579E+02  0.47404269438E+02 -0.23254983338E+03  0.23836877913E+03  0.00000000000E+00 0. -1.
         -4    1    1    2    0  502 -0.21299410700E+02 -0.33490694277E+02 -0.13937963215E+03  0.14492057604E+03  0.00000000000E+00 0.  1.
<mgrwt>
<rscale>  1 0.89138153E+02</rscale>
<asrwt>0</asrwt>
<pdfrwt beam="1">  1       21 0.59530299E-01 0.89138153E+02</pdfrwt>
<pdfrwt beam="2">  1       -3 0.16746102E-02 0.89138153E+02</pdfrwt>
<totfact> 0.14936761E+05</totfact>
</mgrwt>
</event>
<event>
 6    2  0.8544106E+000  0.9073465E+02  0.7546771E-02  0.1301082E+00
          2   -1    0    0  502    0 -0.00000000000E+00  0.00000000000E+00  0.65566029558E+03  0.65566029558E+03  0.00000000000E+00 0. -1.
         21   -1    0    0  501  502  0.00000000000E+00 -0.00000000000E+00 -0.77798606913E+01  0.77798606913E+01  0.00000000000E+00 0. -1.
         24    2    1    2    0    0  0.25175916036E+02 -0.34556414056E+02  0.53682387793E+03  0.54443792376E+03  0.80030021894E+02 0.  0.
        -13    1    3    3    0    0 -0.22005772650E+02  0.76836546644E+01  0.82775847882E+02  0.85994962478E+02  0.00000000000E+00 0.  1.
         14    1    3    3    0    0  0.47181688686E+02 -0.42240068720E+02  0.45404803005E+03  0.45844296128E+03  0.00000000000E+00 0. -1.
          1    1    1    2  501    0 -0.25175916036E+02  0.34556414056E+02  0.11105655695E+03  0.11900223251E+03  0.00000000000E+00 0. -1.
<mgrwt>
<rscale>  1 0.90734651E+02</rscale>
<asrwt>0</asrwt>
<pdfrwt beam="1">  1       21 0.11969022E-02 0.90734651E+02</pdfrwt>
<pdfrwt beam="2">  1        2 0.10087077E+00 0.90734651E+02</pdfrwt>
<totfact> 0.15126837E+06</totfact>
</mgrwt>
</event>
<event>
 6    2  0.8544106E+000  0.8569140E+02  0.7546771E-02  0.1313634E+00
          2   -1    0    0  502    0 -0.00000000000E+00  0.00000000000E+00  0.12568192291E+04  0.12568192291E+04  0.00000000000E+00 0. -1.
         21   -1    0    0  501  502  0.00000000000E+00 -0.00000000000E+00 -0.53499011949E+01  0.53499011949E+01  0.00000000000E+00 0. -1.
         24    2    1    2    0    0 -0.23781296876E+02  0.99504487545E+01  0.12120086375E+04  0.12150341369E+04  0.81721814973E+02 0.  0.
        -11    1    3    3    0    0  0.14051606871E+02 -0.13178261157E+01  0.41014323879E+02  0.43374636420E+02  0.00000000000E+00 0.  1.
         12    1    3    3    0    0 -0.37832903748E+02  0.11268274870E+02  0.11709943136E+04  0.11716595005E+04  0.00000000000E+00 0. -1.
          1    1    1    2  501    0  0.23781296876E+02 -0.99504487545E+01  0.39460690417E+02  0.47134993367E+02  0.00000000000E+00 0. -1.
<mgrwt>
<rscale>  1 0.85691403E+02</rscale>
<asrwt>0</asrwt>
<pdfrwt beam="1">  1       21 0.82306272E-03 0.85691403E+02</pdfrwt>
<pdfrwt beam="2">  1        2 0.19335657E+00 0.85691403E+02</pdfrwt>
<totfact> 0.11553478E+06</totfact>
</mgrwt>
</event>
<event>
 6    2  0.8544106E+000  0.9964014E+02  0.7546771E-02  0.1281055E+00
          2   -1    0    0  502    0 -0.00000000000E+00  0.00000000000E+00  0.10563823037E+04  0.10563823037E+04  0.00000000000E+00 0. -1.
         21   -1    0    0  501  502  0.00000000000E+00 -0.00000000000E+00 -0.43557253537E+01  0.43557253537E+01  0.00000000000E+00 0.  1.
         24    2    1    2    0    0 -0.25483303328E+02  0.22149116349E+02  0.86149120059E+03  0.86723425059E+03  0.93745264393E+02 0.  0.
        -13    1    3    3    0    0 -0.89429508794E+00  0.55745321748E+02  0.39961045463E+03  0.40348092410E+03  0.00000000000E+00 0.  1.
         14    1    3    3    0    0 -0.24589008240E+02 -0.33596205399E+02  0.46188074596E+03  0.46375332649E+03  0.00000000000E+00 0. -1.
          1    1    1    2  501    0  0.25483303328E+02 -0.22149116349E+02  0.19053537775E+03  0.19350377846E+03  0.00000000000E+00 0. -1.
<mgrwt>
<rscale>  1 0.99640136E+02</rscale>
<asrwt>0</asrwt>
<pdfrwt beam="1">  1       21 0.67011243E-03 0.99640136E+02</pdfrwt>
<pdfrwt beam="2">  1        2 0.16252015E+00 0.99640136E+02</pdfrwt>
<totfact> 0.20754027E+06</totfact>
</mgrwt>
</event>
<event>
 6    2  0.8544106E+000  0.8992899E+02  0.7546771E-02  0.1303024E+00
          2   -1    0    0  502    0 -0.00000000000E+00  0.00000000000E+00  0.85027067867E+03  0.85027067867E+03  0.00000000000E+00 0. -1.
         21   -1    0    0  501  502  0.00000000000E+00 -0.00000000000E+00 -0.48966362498E+01  0.48966362498E+01  0.00000000000E+00 0. -1.
         24    2    1    2    0    0 -0.22769346340E+02 -0.29766143257E+02  0.53012792258E+03  0.53770143882E+03  0.81748128950E+02 0.  0.
        -11    1    3    3    0    0  0.29899397440E+02 -0.20215598699E+02  0.23570146242E+03  0.23844878650E+03  0.00000000000E+00 0.  1.
         12    1    3    3    0    0 -0.52668743780E+02 -0.95505445579E+01  0.29442646016E+03  0.29925265231E+03  0.00000000000E+00 0. -1.
          1    1    1    2  501    0  0.22769346340E+02  0.29766143257E+02  0.31524611983E+03  0.31746587610E+03  0.00000000000E+00 0. -1.
<mgrwt>
<rscale>  1 0.89928989E+02</rscale>
<asrwt>0</asrwt>
<pdfrwt beam="1">  1       21 0.75332933E-03 0.89928989E+02</pdfrwt>
<pdfrwt beam="2">  1        2 0.13081076E+00 0.89928989E+02</pdfrwt>
<totfact> 0.22825878E+06</totfact>
</mgrwt>
</event>
<event>
 6    2  0.9051652E+000  0.9967495E+02  0.7546771E-02  0.1280981E+00
         21   -1    0    0  501  502  0.00000000000E+00  0.00000000000E+00  0.58529814400E+01  0.58529814400E+01  0.00000000000E+00 0.  1.
         -3   -1    0    0    0  501 -0.00000000000E+00 -0.00000000000E+00 -0.14154734509E+04  0.14154734509E+04  0.00000000000E+00 0.  1.
         24    2    1    2    0    0 -0.48892720346E+02 -0.33061895349E+02 -0.11814026024E+04  0.11855999344E+04  0.80321281467E+02 0.  0.
        -11    1    3    3    0    0 -0.39606241275E+02 -0.39011964550E+02 -0.11616283371E+04  0.11629578587E+04  0.00000000000E+00 0.  1.
         12    1    3    3    0    0 -0.92864790709E+01  0.59500692005E+01 -0.19774265374E+02  0.22642075614E+02  0.00000000000E+00 0. -1.
         -4    1    1    2    0  502  0.48892720346E+02  0.33061895349E+02 -0.22821786705E+03  0.23572649801E+03  0.00000000000E+00 0.  1.
<mgrwt>
<rscale>  1 0.99674948E+02</rscale>
<asrwt>0</asrwt>
<pdfrwt beam="1">  1       21 0.90045882E-03 0.99674948E+02</pdfrwt>
<pdfrwt beam="2">  1       -3 0.21776511E+00 0.99674948E+02</pdfrwt>
<totfact> 0.26284047E+04</totfact>
</mgrwt>
</event>
<event>
 6    2  0.8544106E+000  0.8022665E+02  0.7546771E-02  0.1328409E+00
         21   -1    0    0  501  502  0.00000000000E+00  0.00000000000E+00  0.24700865500E+01  0.24700865500E+01  0.00000000000E+00 0.  1.
          2   -1    0    0  502    0 -0.00000000000E+00 -0.00000000000E+00 -0.12786367337E+04  0.12786367337E+04  0.00000000000E+00 0. -1.
         24    2    1    2    0    0 -0.23038139410E+02  0.21896257685E+02 -0.96012660669E+03  0.96347258226E+03  0.73662160770E+02 0.  0.
        -11    1    3    3    0    0 -0.18859206521E+02  0.43861052215E+02 -0.39057309352E+03  0.39348037175E+03  0.00000000000E+00 0.  1.
         12    1    3    3    0    0 -0.41789328894E+01 -0.21964794529E+02 -0.56955351317E+03  0.56999221051E+03  0.00000000000E+00 0. -1.
          1    1    1    2  501    0  0.23038139410E+02 -0.21896257685E+02 -0.31604004051E+03  0.31763423803E+03  0.00000000000E+00 0. -1.
<mgrwt>
<rscale>  1 0.80226653E+02</rscale>
<asrwt>0</asrwt>
<pdfrwt beam="1">  1       21 0.38001324E-03 0.80226653E+02</pdfrwt>
<pdfrwt beam="2">  1        2 0.19671338E+00 0.80226653E+02</pdfrwt>
<totfact> 0.36597303E+06</totfact>
</mgrwt>
</event>
<event>
 6    2  0.8544106E+000  0.9383612E+02  0.7546771E-02  0.1293819E+00
          2   -1    0    0  502    0 -0.00000000000E+00  0.00000000000E+00  0.77816846617E+01  0.77816846617E+01  0.00000000000E+00 0. -1.
         21   -1    0    0  501  502  0.00000000000E+00 -0.00000000000E+00 -0.65940578162E+03  0.65940578162E+03  0.00000000000E+00 0.  1.
         24    2    1    2    0    0 -0.25816229659E+02  0.40947353633E+02 -0.39063641792E+03  0.40174871235E+03  0.80386898060E+02 0.  0.
        -13    1    3    3    0    0  0.50141431541E+01  0.55209763668E+01 -0.29606093344E+03  0.29615485666E+03  0.00000000000E+00 0.  1.
         14    1    3    3    0    0 -0.30830372814E+02  0.35426377266E+02 -0.94575484484E+02  0.10559385569E+03  0.00000000000E+00 0. -1.
          1    1    1    2  501    0  0.25816229659E+02 -0.40947353633E+02 -0.26098767904E+03  0.26543875394E+03  0.00000000000E+00 0. -1.
<mgrwt>
<rscale>  1 0.93836117E+02</rscale>
<asrwt>0</asrwt>
<pdfrwt beam="1">  1       21 0.10144711E+00 0.93836117E+02</pdfrwt>
<pdfrwt beam="2">  1        2 0.11971815E-02 0.93836117E+02</pdfrwt>
<totfact> 0.10221506E+05</totfact>
</mgrwt>
</event>
<event>
 6    2  0.8544106E+000  0.8878089E+02  0.7546771E-02  0.1305831E+00
          2   -1    0    0  502    0 -0.00000000000E+00  0.00000000000E+00  0.13432943528E+03  0.13432943528E+03  0.00000000000E+00 0. -1.
         21   -1    0    0  501  502  0.00000000000E+00 -0.00000000000E+00 -0.72578046578E+02  0.72578046578E+02  0.00000000000E+00 0. -1.
         24    2    1    2    0    0 -0.39220353665E+02 -0.11602972399E+01  0.11214899255E+03  0.14303651111E+03  0.79639591591E+02 0.  0.
        -11    1    3    3    0    0  0.79494574730E+01 -0.23634164279E+02  0.74507993283E+01  0.26024642282E+02  0.00000000000E+00 0.  1.
         12    1    3    3    0    0 -0.47169811138E+02  0.22473867039E+02  0.10469819322E+03  0.11701186882E+03  0.00000000000E+00 0. -1.
          1    1    1    2  501    0  0.39220353665E+02  0.11602972399E+01 -0.50397603845E+02  0.63870970751E+02  0.00000000000E+00 0. -1.
<mgrwt>
<rscale>  1 0.88780893E+02</rscale>
<asrwt>0</asrwt>
<pdfrwt beam="1">  1       21 0.11165853E-01 0.88780893E+02</pdfrwt>
<pdfrwt beam="2">  1        2 0.20666067E-01 0.88780893E+02</pdfrwt>
<totfact> 0.20937481E+05</totfact>
</mgrwt>
</event>
<event>
 6    2  0.8544106E+000  0.8489325E+02  0.7546771E-02  0.1315712E+00
         -1   -1    0    0    0  501 -0.00000000000E+00  0.00000000000E+00  0.66234583483E+02  0.66234583483E+02  0.00000000000E+00 0.  1.
         21   -1    0    0  501  502  0.00000000000E+00 -0.00000000000E+00 -0.59648613813E+02  0.59648613813E+02  0.00000000000E+00 0.  1.
         24    2    1    2    0    0 -0.23706015046E+02  0.12395973754E+02  0.30295671082E+02  0.90137075048E+02  0.80568165532E+02 0.  0.
        -11    1    3    3    0    0 -0.39668188227E+02  0.11761265086E+02  0.49916948475E+02  0.64835131362E+02  0.00000000000E+00 0.  1.
         12    1    3    3    0    0  0.15962173181E+02  0.63470866858E+00 -0.19621277393E+02  0.25301943686E+02  0.00000000000E+00 0. -1.
         -2    1    1    2    0  502  0.23706015046E+02 -0.12395973754E+02 -0.23709701412E+02  0.35746122247E+02  0.00000000000E+00 0.  1.
<mgrwt>
<rscale>  1 0.84893254E+02</rscale>
<asrwt>0</asrwt>
<pdfrwt beam="1">  1       21 0.91767098E-02 0.84893254E+02</pdfrwt>
<pdfrwt beam="2">  1       -1 0.10189936E-01 0.84893254E+02</pdfrwt>
<totfact> 0.46342618E+05</totfact>
</mgrwt>
</event>
<event>
 6    2  0.8544106E+000  0.8502242E+02  0.7546771E-02  0.1315374E+00
          2   -1    0    0  502    0 -0.00000000000E+00  0.00000000000E+00  0.44944998780E+03  0.44944998780E+03  0.00000000000E+00 0. -1.
         21   -1    0    0  501  502  0.00000000000E+00 -0.00000000000E+00 -0.67167323022E+01  0.67167323022E+01  0.00000000000E+00 0.  1.
         24    2    1    2    0    0 -0.53156535620E+00 -0.24715850528E+02  0.33292835259E+03  0.34361329932E+03  0.81348974650E+02 0.  0.
        -11    1    3    3    0    0  0.13720266260E+02  0.26934550073E+02  0.14921299349E+03  0.15224399207E+03  0.00000000000E+00 0.  1.
         12    1    3    3    0    0 -0.14251831616E+02 -0.51650400600E+02  0.18371535910E+03  0.19136930724E+03  0.00000000000E+00 0. -1.
          1    1    1    2  501    0  0.53156535620E+00  0.24715850528E+02  0.10980490291E+03  0.11255342079E+03  0.00000000000E+00 0. -1.
<mgrwt>
<rscale>  1 0.85022418E+02</rscale>
<asrwt>0</asrwt>
<pdfrwt beam="1">  1       21 0.10333438E-02 0.85022418E+02</pdfrwt>
<pdfrwt beam="2">  1        2 0.69146128E-01 0.85022418E+02</pdfrwt>
<totfact> 0.28605497E+06</totfact>
</mgrwt>
</event>
<event>
 6    2  0.8544106E+000  0.8063276E+02  0.7546771E-02  0.1327265E+00
          2   -1    0    0  502    0 -0.00000000000E+00  0.00000000000E+00  0.72677591459E+03  0.72677591459E+03  0.00000000000E+00 0. -1.
         21   -1    0    0  501  502  0.00000000000E+00 -0.00000000000E+00 -0.41116840974E+01  0.41116840974E+01  0.00000000000E+00 0. -1.
         24    2    1    2    0    0  0.83604862398E+01  0.20338585055E+02  0.64962189326E+03  0.65460694058E+03  0.77576328136E+02 0.  0.
        -11    1    3    3    0    0 -0.75901466870E+01 -0.28327741822E+02  0.22168780091E+03  0.22361921285E+03  0.00000000000E+00 0.  1.
         12    1    3    3    0    0  0.15950632927E+02  0.48666326877E+02  0.42793409235E+03  0.43098772773E+03  0.00000000000E+00 0. -1.
          1    1    1    2  501    0 -0.83604862398E+01 -0.20338585055E+02  0.73042337239E+02  0.76280658109E+02  0.00000000000E+00 0. -1.
<mgrwt>
<rscale>  1 0.80632763E+02</rscale>
<asrwt>0</asrwt>
<pdfrwt beam="1">  1       21 0.63256736E-03 0.80632763E+02</pdfrwt>
<pdfrwt beam="2">  1        2 0.11181158E+00 0.80632763E+02</pdfrwt>
<totfact> 0.35700896E+06</totfact>
</mgrwt>
</event>
<event>
 6    2  0.8544106E+000  0.9229470E+02  0.7546771E-02  0.1297388E+00
         21   -1    0    0  501  502  0.00000000000E+00  0.00000000000E+00  0.16755699341E+02  0.16755699341E+02  0.00000000000E+00 0. -1.
          4   -1    0    0  502    0 -0.00000000000E+00 -0.00000000000E+00 -0.29237439085E+03  0.29237439085E+03  0.00000000000E+00 0. -1.
         24    2    1    2    0    0  0.44384548490E+02  0.17432060539E+02 -0.18296930593E+03  0.20492944947E+03  0.79021816395E+02 0.  0.
        -11    1    3    3    0    0 -0.40644111808E+01  0.37887089953E+02 -0.58613025271E+02  0.69910212093E+02  0.00000000000E+00 0.  1.
         12    1    3    3    0    0  0.48448959671E+02 -0.20455029414E+02 -0.12435628066E+03  0.13501923737E+03  0.00000000000E+00 0. -1.
          3    1    1    2  501    0 -0.44384548490E+02 -0.17432060539E+02 -0.92649385577E+02  0.10420064072E+03  0.00000000000E+00 0. -1.
<mgrwt>
<rscale>  1 0.92294704E+02</rscale>
<asrwt>0</asrwt>
<pdfrwt beam="1">  1       21 0.25778000E-02 0.92294704E+02</pdfrwt>
<pdfrwt beam="2">  1        4 0.44980674E-01 0.92294704E+02</pdfrwt>
<totfact> 0.14677916E+05</totfact>
</mgrwt>
</event>
<event>
 6    2  0.8544106E+000  0.1033235E+03  0.7546771E-02  0.1273458E+00
         -3   -1    0    0    0  501 -0.00000000000E+00  0.00000000000E+00  0.13505996491E+03  0.13505996491E+03  0.00000000000E+00 0.  1.
         21   -1    0    0  501  502  0.00000000000E+00 -0.00000000000E+00 -0.57941435662E+02  0.57941435662E+02  0.00000000000E+00 0.  1.
         24    2    1    2    0    0  0.49487418699E+02  0.40435847591E+02  0.77392243031E+02  0.12909414512E+03  0.81189141160E+02 0.  0.
        -13    1    3    3    0    0  0.19064632406E+02  0.91503138513E+01  0.82491226621E+02  0.85158622122E+02  0.00000000000E+00 0.  1.
         14    1    3    3    0    0  0.30422786293E+02  0.31285533740E+02 -0.50989835896E+01  0.43935522996E+02  0.00000000000E+00 0. -1.
         -4    1    1    2    0  502 -0.49487418699E+02 -0.40435847591E+02 -0.27371378718E+00  0.63907255450E+02  0.00000000000E+00 0.  1.
<mgrwt>
<rscale>  1 0.10332347E+03</rscale>
<asrwt>0</asrwt>
<pdfrwt beam="1">  1       21 0.89140671E-02 0.10332347E+03</pdfrwt>
<pdfrwt beam="2">  1       -3 0.20778456E-01 0.10332347E+03</pdfrwt>
<totfact> 0.95949008E+04</totfact>
</mgrwt>
</event>
<event>
 6    2  0.8544106E+000  0.9585207E+02  0.7546771E-02  0.1289268E+00
          2   -1    0    0  502    0 -0.00000000000E+00  0.00000000000E+00  0.18522984466E+02  0.18522984466E+02  0.00000000000E+00 0. -1.
         21   -1    0    0  501  502  0.00000000000E+00 -0.00000000000E+00 -0.30271619840E+03  0.30271619840E+03  0.00000000000E+00 0. -1.
         24    2    1    2    0    0 -0.50691358616E+00  0.53676380334E+02 -0.19061952359E+03  0.21336218674E+03  0.79411643935E+02 0.  0.
        -11    1    3    3    0    0 -0.33466445189E+02  0.36164097016E+01 -0.47676500768E+02  0.58362060435E+02  0.00000000000E+00 0.  1.
         12    1    3    3    0    0  0.32959531603E+02  0.50059970633E+02 -0.14294302282E+03  0.15500012631E+03  0.00000000000E+00 0. -1.
          1    1    1    2  501    0  0.50691358616E+00 -0.53676380334E+02 -0.93573690348E+02  0.10787699612E+03  0.00000000000E+00 0. -1.
<mgrwt>
<rscale>  1 0.95852073E+02</rscale>
<asrwt>0</asrwt>
<pdfrwt beam="1">  1       21 0.46571722E-01 0.95852073E+02</pdfrwt>
<pdfrwt beam="2">  1        2 0.28496900E-02 0.95852073E+02</pdfrwt>
<totfact> 0.17020444E+05</totfact>
</mgrwt>
</event>
<event>
 6    2  0.8544106E+000  0.9490729E+02  0.7546771E-02  0.1291385E+00
         21   -1    0    0  501  502  0.00000000000E+00  0.00000000000E+00  0.10715267216E+02  0.10715267216E+02  0.00000000000E+00 0. -1.
          2   -1    0    0  502    0 -0.00000000000E+00 -0.00000000000E+00 -0.14129329785E+04  0.14129329785E+04  0.00000000000E+00 0. -1.
         24    2    1    2    0    0 -0.23475897434E+02 -0.51294900467E+02 -0.13229868520E+04  0.13263866724E+04  0.76322405981E+02 0.  0.
        -13    1    3    3    0    0 -0.35251831088E+02 -0.48458623345E+02 -0.54144607740E+03  0.54475203947E+03  0.00000000000E+00 0.  1.
         14    1    3    3    0    0  0.11775933654E+02 -0.28362771222E+01 -0.78154077460E+03  0.78163463296E+03  0.00000000000E+00 0. -1.
          1    1    1    2  501    0  0.23475897434E+02  0.51294900467E+02 -0.79230859246E+02  0.97261573250E+02  0.00000000000E+00 0. -1.
<mgrwt>
<rscale>  1 0.94907293E+02</rscale>
<asrwt>0</asrwt>
<pdfrwt beam="1">  1       21 0.16485025E-02 0.94907293E+02</pdfrwt>
<pdfrwt beam="2">  1        2 0.21737432E+00 0.94907293E+02</pdfrwt>
<totfact> 0.32317933E+05</totfact>
</mgrwt>
</event>
<event>
 6    2  0.8544106E+000  0.8789481E+02  0.7546771E-02  0.1308031E+00
         21   -1    0    0  501  502  0.00000000000E+00  0.00000000000E+00  0.71082945641E+02  0.71082945641E+02  0.00000000000E+00 0.  1.
         -3   -1    0    0    0  501 -0.00000000000E+00 -0.00000000000E+00 -0.29134260221E+03  0.29134260221E+03  0.00000000000E+00 0.  1.
         24    2    1    2    0    0 -0.60760951637E+01 -0.36533985530E+02 -0.27925931866E+03  0.29276486196E+03  0.79711017492E+02 0.  0.
        -11    1    3    3    0    0  0.86297908879E+01 -0.37883474358E+02 -0.27451910666E+03  0.27725506459E+03  0.00000000000E+00 0.  1.
         12    1    3    3    0    0 -0.14705886052E+02  0.13494888276E+01 -0.47402120002E+01  0.15509797370E+02  0.00000000000E+00 0. -1.
         -4    1    1    2    0  502  0.60760951637E+01  0.36533985530E+02  0.58999662093E+02  0.69660685887E+02  0.00000000000E+00 0.  1.
<mgrwt>
<rscale>  1 0.87894808E+02</rscale>
<asrwt>0</asrwt>
<pdfrwt beam="1">  1       21 0.10935838E-01 0.87894808E+02</pdfrwt>
<pdfrwt beam="2">  1       -3 0.44821939E-01 0.87894808E+02</pdfrwt>
<totfact> 0.16050355E+04</totfact>
</mgrwt>
</event>
<event>
 6    2  0.8544106E+000  0.8223731E+02  0.7546771E-02  0.1322820E+00
         -1   -1    0    0    0  501 -0.00000000000E+00  0.00000000000E+00  0.12924900439E+02  0.12924900439E+02  0.00000000000E+00 0.  1.
         21   -1    0    0  501  502  0.00000000000E+00 -0.00000000000E+00 -0.29831884264E+03  0.29831884264E+03  0.00000000000E+00 0. -1.
         24    2    1    2    0    0 -0.19878657300E+02 -0.94621500845E+01 -0.12682710149E+03  0.15115584137E+03  0.79235606945E+02 0.  0.
        -11    1    3    3    0    0  0.17369312613E+02 -0.32193512008E+02 -0.41516413966E+02  0.55332882309E+02  0.00000000000E+00 0.  1.
         12    1    3    3    0    0 -0.37247969913E+02  0.22731361923E+02 -0.85310687523E+02  0.95822959061E+02  0.00000000000E+00 0. -1.
         -2    1    1    2    0  502  0.19878657300E+02  0.94621500845E+01 -0.15856684071E+03  0.16008790171E+03  0.00000000000E+00 0.  1.
<mgrwt>
<rscale>  1 0.82237307E+02</rscale>
<asrwt>0</asrwt>
<pdfrwt beam="1">  1       21 0.45895204E-01 0.82237307E+02</pdfrwt>
<pdfrwt beam="2">  1       -1 0.19884463E-02 0.82237307E+02</pdfrwt>
<totfact> 0.25786897E+05</totfact>
</mgrwt>
</event>
<event>
 6    2  0.1126674E+001  0.8329585E+02  0.7546771E-02  0.1319950E+00
         -1   -1    0    0    0  501 -0.00000000000E+00  0.00000000000E+00  0.31456684884E+03  0.31456684884E+03  0.00000000000E+00 0.  1.
         21   -1    0    0  501  502  0.00000000000E+00 -0.00000000000E+00 -0.14150932164E+02  0.14150932164E+02  0.00000000000E+00 0. -1.
         24    2    1    2    0    0  0.90518086909E+01 -0.19186126691E+02  0.11448435700E+03  0.14157989713E+03  0.80549094195E+02 0.  0.
        -11    1    3    3    0    0  0.19514194540E+02 -0.22854096360E+02  0.12361612474E+03  0.12721658620E+03  0.00000000000E+00 0.  1.
         12    1    3    3    0    0 -0.10462385849E+02  0.36679696687E+01 -0.91317677315E+01  0.14363310936E+02  0.00000000000E+00 0. -1.
         -2    1    1    2    0  502 -0.90518086909E+01  0.19186126691E+02  0.18593155967E+03  0.18713788387E+03  0.00000000000E+00 0.  1.
<mgrwt>
<rscale>  1 0.83295854E+02</rscale>
<asrwt>0</asrwt>
<pdfrwt beam="1">  1       21 0.21770667E-02 0.83295854E+02</pdfrwt>
<pdfrwt beam="2">  1       -1 0.48394895E-01 0.83295854E+02</pdfrwt>
<totfact> 0.40266959E+05</totfact>
</mgrwt>
</event>
<event>
 6    2  0.8544106E+000  0.8097142E+02  0.7546771E-02  0.1326317E+00
         21   -1    0    0  501  502  0.00000000000E+00  0.00000000000E+00  0.50907382814E+03  0.50907382814E+03  0.00000000000E+00 0.  1.
         -1   -1    0    0    0  501 -0.00000000000E+00 -0.00000000000E+00 -0.18533625357E+02  0.18533625357E+02  0.00000000000E+00 0.  1.
         24    2    1    2    0    0 -0.19350988822E+02 -0.58452270135E+01  0.71326409656E+02  0.10790656978E+03  0.78407548357E+02 0.  0.
        -13    1    3    3    0    0 -0.20149843761E+01 -0.28682829994E+02 -0.23483205848E+01  0.28849254896E+02  0.00000000000E+00 0.  1.
         14    1    3    3    0    0 -0.17336004446E+02  0.22837602980E+02  0.73674730241E+02  0.79057314881E+02  0.00000000000E+00 0. -1.
         -2    1    1    2    0  502  0.19350988822E+02  0.58452270135E+01  0.41921379313E+03  0.41970088372E+03  0.00000000000E+00 0.  1.
<mgrwt>
<rscale>  1 0.80971421E+02</rscale>
<asrwt>0</asrwt>
<pdfrwt beam="1">  1       21 0.78319040E-01 0.80971421E+02</pdfrwt>
<pdfrwt beam="2">  1       -1 0.28513274E-02 0.80971421E+02</pdfrwt>
<totfact> 0.50204661E+04</totfact>
</mgrwt>
</event>
<event>
 6    2  0.8983290E+000  0.8047378E+02  0.7546771E-02  0.1327712E+00
         -1   -1    0    0    0  501 -0.00000000000E+00  0.00000000000E+00  0.32697953767E+03  0.32697953767E+03  0.00000000000E+00 0.  1.
         21   -1    0    0  501  502  0.00000000000E+00 -0.00000000000E+00 -0.99195278569E+01  0.99195278569E+01  0.00000000000E+00 0. -1.
         24    2    1    2    0    0 -0.94168457560E+01  0.18272589423E+02  0.16634030320E+03  0.18478399570E+03  0.77804010748E+02 0.  0.
        -13    1    3    3    0    0  0.26787377587E+02  0.14491145227E+02  0.12934855488E+03  0.13288568597E+03  0.00000000000E+00 0.  1.
         14    1    3    3    0    0 -0.36204223343E+02  0.37814441954E+01  0.36991748325E+02  0.51898309724E+02  0.00000000000E+00 0. -1.
         -2    1    1    2    0  502  0.94168457560E+01 -0.18272589423E+02  0.15071970661E+03  0.15211506983E+03  0.00000000000E+00 0.  1.
<mgrwt>
<rscale>  1 0.80473776E+02</rscale>
<asrwt>0</asrwt>
<pdfrwt beam="1">  1       21 0.15260815E-02 0.80473776E+02</pdfrwt>
<pdfrwt beam="2">  1       -1 0.50304536E-01 0.80473776E+02</pdfrwt>
<totfact> 0.65843734E+05</totfact>
</mgrwt>
</event>
<event>
 6    2  0.8544106E+000  0.7936879E+02  0.7546771E-02  0.1330852E+00
         21   -1    0    0  501  502  0.00000000000E+00  0.00000000000E+00  0.11222463338E+02  0.11222463338E+02  0.00000000000E+00 0.  1.
          2   -1    0    0  502    0 -0.00000000000E+00 -0.00000000000E+00 -0.32482619307E+03  0.32482619307E+03  0.00000000000E+00 0. -1.
         24    2    1    2    0    0  0.14899920422E+02  0.24061240297E+02 -0.28486119867E+03  0.29571152705E+03  0.74151559711E+02 0.  0.
        -11    1    3    3    0    0  0.15722726102E+02 -0.25278393775E+02 -0.95974911281E+02  0.10048574478E+03  0.00000000000E+00 0.  1.
         12    1    3    3    0    0 -0.82280568051E+00  0.49339634071E+02 -0.18888628739E+03  0.19522578227E+03  0.00000000000E+00 0. -1.
          1    1    1    2  501    0 -0.14899920422E+02 -0.24061240297E+02 -0.28742531059E+02  0.40337129358E+02  0.00000000000E+00 0. -1.
<mgrwt>
<rscale>  1 0.79368789E+02</rscale>
<asrwt>0</asrwt>
<pdfrwt beam="1">  1       21 0.17265332E-02 0.79368789E+02</pdfrwt>
<pdfrwt beam="2">  1        2 0.49973250E-01 0.79368789E+02</pdfrwt>
<totfact> 0.17768927E+06</totfact>
</mgrwt>
</event>
<event>
 6    2  0.8544106E+000  0.8399958E+02  0.7546771E-02  0.1318070E+00
          2   -1    0    0  502    0 -0.00000000000E+00  0.00000000000E+00  0.12446931198E+04  0.12446931198E+04  0.00000000000E+00 0. -1.
         21   -1    0    0  501  502  0.00000000000E+00 -0.00000000000E+00 -0.33651863700E+01  0.33651863700E+01  0.00000000000E+00 0.  1.
         24    2    1    2    0    0 -0.45071557450E+02  0.12645931774E+01  0.76297834946E+03  0.76758836021E+03  0.70872311221E+02 0.  0.
        -11    1    3    3    0    0 -0.23004457886E+02 -0.31598442045E+02  0.24483687076E+03  0.24793700794E+03  0.00000000000E+00 0.  1.
         12    1    3    3    0    0 -0.22067099564E+02  0.32863035222E+02  0.51814147869E+03  0.51965135226E+03  0.00000000000E+00 0. -1.
          1    1    1    2  501    0  0.45071557450E+02 -0.12645931774E+01  0.47834958397E+03  0.48046994596E+03  0.00000000000E+00 0. -1.
<mgrwt>
<rscale>  1 0.83999577E+02</rscale>
<asrwt>0</asrwt>
<pdfrwt beam="1">  1       21 0.51772197E-03 0.83999577E+02</pdfrwt>
<pdfrwt beam="2">  1        2 0.19149088E+00 0.83999577E+02</pdfrwt>
<totfact> 0.23920426E+06</totfact>
</mgrwt>
</event>
<event>
 6    2  0.8544106E+000  0.8933470E+02  0.7546771E-02  0.1304471E+00
         21   -1    0    0  501  502  0.00000000000E+00  0.00000000000E+00  0.50998635981E+01  0.50998635981E+01  0.00000000000E+00 0. -1.
          2   -1    0    0  502    0 -0.00000000000E+00 -0.00000000000E+00 -0.79082955087E+03  0.79082955087E+03  0.00000000000E+00 0. -1.
         24    2    1    2    0    0 -0.48823448797E+01  0.34850973870E+02 -0.48615412139E+03  0.49429396008E+03  0.82111275441E+02 0.  0.
        -13    1    3    3    0    0 -0.25904086069E+02 -0.18580742655E+02 -0.16675518074E+03  0.16977501576E+03  0.00000000000E+00 0.  1.
         14    1    3    3    0    0  0.21021741189E+02  0.53431716525E+02 -0.31939894066E+03  0.32451894433E+03  0.00000000000E+00 0. -1.
          1    1    1    2  501    0  0.48823448797E+01 -0.34850973870E+02 -0.29957556588E+03  0.30163545439E+03  0.00000000000E+00 0. -1.
<mgrwt>
<rscale>  1 0.89334703E+02</rscale>
<asrwt>0</asrwt>
<pdfrwt beam="1">  1       21 0.78459432E-03 0.89334703E+02</pdfrwt>
<pdfrwt beam="2">  1        2 0.12166610E+00 0.89334703E+02</pdfrwt>
<totfact> 0.23417402E+06</totfact>
</mgrwt>
</event>
<event>
 6    2  0.8544106E+000  0.8901919E+02  0.7546771E-02  0.1305244E+00
         21   -1    0    0  501  502  0.00000000000E+00  0.00000000000E+00  0.27016008141E+02  0.27016008141E+02  0.00000000000E+00 0.  1.
          2   -1    0    0  502    0 -0.00000000000E+00 -0.00000000000E+00 -0.14268193335E+03  0.14268193335E+03  0.00000000000E+00 0. -1.
         24    2    1    2    0    0 -0.70907344407E+01  0.33545476677E+02 -0.92128485295E+02  0.12810961863E+03  0.82151318086E+02 0.  0.
        -11    1    3    3    0    0 -0.36518914552E+02  0.14312104818E+02 -0.12666127645E+02  0.41217693456E+02  0.00000000000E+00 0.  1.
         12    1    3    3    0    0  0.29428180111E+02  0.19233371859E+02 -0.79462357650E+02  0.86891925178E+02  0.00000000000E+00 0. -1.
          1    1    1    2  501    0  0.70907344407E+01 -0.33545476677E+02 -0.23537439917E+02  0.41588322859E+02  0.00000000000E+00 0. -1.
<mgrwt>
<rscale>  1 0.89019192E+02</rscale>
<asrwt>0</asrwt>
<pdfrwt beam="1">  1       21 0.41563089E-02 0.89019192E+02</pdfrwt>
<pdfrwt beam="2">  1        2 0.21951067E-01 0.89019192E+02</pdfrwt>
<totfact> 0.10440106E+06</totfact>
</mgrwt>
</event>
<event>
 6    2  0.8544106E+000  0.9867287E+02  0.7546771E-02  0.1283112E+00
          2   -1    0    0  502    0 -0.00000000000E+00  0.00000000000E+00  0.11399654865E+04  0.11399654865E+04  0.00000000000E+00 0. -1.
         21   -1    0    0  501  502  0.00000000000E+00 -0.00000000000E+00 -0.88171947824E+01  0.88171947824E+01  0.00000000000E+00 0.  1.
         24    2    1    2    0    0  0.56678115149E+02 -0.18411937453E+02  0.30666896462E+03  0.32215243203E+03  0.78644309523E+02 0.  0.
        -13    1    3    3    0    0  0.70449259758E+02 -0.21267484264E+02  0.17651141445E+03  0.19123724407E+03  0.00000000000E+00 0.  1.
         14    1    3    3    0    0 -0.13771144609E+02  0.28555468112E+01  0.13015755017E+03  0.13091518796E+03  0.00000000000E+00 0. -1.
          1    1    1    2  501    0 -0.56678115149E+02  0.18411937453E+02  0.82447932705E+03  0.82663024921E+03  0.00000000000E+00 0. -1.
<mgrwt>
<rscale>  1 0.98672872E+02</rscale>
<asrwt>0</asrwt>
<pdfrwt beam="1">  1       21 0.13564924E-02 0.98672872E+02</pdfrwt>
<pdfrwt beam="2">  1        2 0.17537919E+00 0.98672872E+02</pdfrwt>
<totfact> 0.61729661E+05</totfact>
</mgrwt>
</event>
<event>
 6    2  0.8544106E+000  0.9242556E+02  0.7546771E-02  0.1297082E+00
         21   -1    0    0  501  502  0.00000000000E+00  0.00000000000E+00  0.41855315685E+01  0.41855315685E+01  0.00000000000E+00 0. -1.
          2   -1    0    0  502    0 -0.00000000000E+00 -0.00000000000E+00 -0.11360425476E+04  0.11360425476E+04  0.00000000000E+00 0. -1.
         24    2    1    2    0    0  0.30436462331E+02 -0.32674696078E+02 -0.81944260397E+03  0.82463850572E+03  0.80922616854E+02 0.  0.
        -13    1    3    3    0    0 -0.19959903618E+02  0.53145960302E+01 -0.84369126054E+02  0.86860762802E+02  0.00000000000E+00 0.  1.
         14    1    3    3    0    0  0.50396365949E+02 -0.37989292108E+02 -0.73507347792E+03  0.73777774292E+03  0.00000000000E+00 0. -1.
          1    1    1    2  501    0 -0.30436462331E+02  0.32674696078E+02 -0.31241441203E+03  0.31558957342E+03  0.00000000000E+00 0. -1.
<mgrwt>
<rscale>  1 0.92425559E+02</rscale>
<asrwt>0</asrwt>
<pdfrwt beam="1">  1       21 0.64392857E-03 0.92425559E+02</pdfrwt>
<pdfrwt beam="2">  1        2 0.17477560E+00 0.92425559E+02</pdfrwt>
<totfact> 0.19771441E+06</totfact>
</mgrwt>
</event>
<event>
 6    2  0.8544106E+000  0.8358910E+02  0.7546771E-02  0.1319164E+00
          2   -1    0    0  502    0 -0.00000000000E+00  0.00000000000E+00  0.34387695837E+04  0.34387695837E+04  0.00000000000E+00 0. -1.
         21   -1    0    0  501  502  0.00000000000E+00 -0.00000000000E+00 -0.81929234700E+00  0.81929234700E+00  0.00000000000E+00 0.  1.
         24    2    1    2    0    0 -0.14386834696E+02 -0.16187421296E+02  0.28958859446E+04  0.28970920837E+04  0.80734899721E+02 0.  0.
        -13    1    3    3    0    0  0.23969406409E+01 -0.21233400787E+02  0.19808431956E+03  0.19923353204E+03  0.00000000000E+00 0.  1.
         14    1    3    3    0    0 -0.16783775337E+02  0.50459794904E+01  0.26978016250E+04  0.26978585517E+04  0.00000000000E+00 0. -1.
          1    1    1    2  501    0  0.14386834696E+02  0.16187421296E+02  0.54206434675E+03  0.54249679229E+03  0.00000000000E+00 0. -1.
<mgrwt>
<rscale>  1 0.83589100E+02</rscale>
<asrwt>0</asrwt>
<pdfrwt beam="1">  1       21 0.12604773E-03 0.83589100E+02</pdfrwt>
<pdfrwt beam="2">  1        2 0.52902992E+00 0.83589100E+02</pdfrwt>
<totfact> 0.13515751E+06</totfact>
</mgrwt>
</event>
<event>
 6    2  0.8544106E+000  0.8028070E+02  0.7546771E-02  0.1328257E+00
          2   -1    0    0  502    0 -0.00000000000E+00  0.00000000000E+00  0.48507685093E+03  0.48507685093E+03  0.00000000000E+00 0. -1.
         21   -1    0    0  501  502  0.00000000000E+00 -0.00000000000E+00 -0.56144444948E+01  0.56144444948E+01  0.00000000000E+00 0.  1.
         24    2    1    2    0    0 -0.23704668780E+01 -0.21762840425E+02  0.41255712540E+03  0.42029557846E+03  0.77238275605E+02 0.  0.
        -11    1    3    3    0    0  0.12087898574E+02 -0.22054125373E+02  0.38669748416E+02  0.46128637315E+02  0.00000000000E+00 0.  1.
         12    1    3    3    0    0 -0.14458365452E+02  0.29128494864E+00  0.37388737698E+03  0.37416694115E+03  0.00000000000E+00 0. -1.
          1    1    1    2  501    0  0.23704668780E+01  0.21762840425E+02  0.66905281039E+02  0.70395716969E+02  0.00000000000E+00 0. -1.
<mgrwt>
<rscale>  1 0.80280705E+02</rscale>
<asrwt>0</asrwt>
<pdfrwt beam="1">  1       21 0.86376107E-03 0.80280705E+02</pdfrwt>
<pdfrwt beam="2">  1        2 0.74627175E-01 0.80280705E+02</pdfrwt>
<totfact> 0.34602956E+06</totfact>
</mgrwt>
</event>
<event>
 6    2  0.8544106E+000  0.9293194E+02  0.7546771E-02  0.1295903E+00
         21   -1    0    0  501  502  0.00000000000E+00  0.00000000000E+00  0.33695043005E+01  0.33695043005E+01  0.00000000000E+00 0. -1.
          2   -1    0    0  502    0 -0.00000000000E+00 -0.00000000000E+00 -0.24579374338E+04  0.24579374338E+04  0.00000000000E+00 0. -1.
         24    2    1    2    0    0  0.19222406612E+02  0.38438121284E+02 -0.22659485199E+04  0.22678533990E+04  0.82397541121E+02 0.  0.
        -13    1    3    3    0    0  0.19906145521E+01  0.29644718367E+02 -0.24263119847E+03  0.24444359338E+03  0.00000000000E+00 0.  1.
         14    1    3    3    0    0  0.17231792060E+02  0.87934029170E+01 -0.20233173214E+04  0.20234098057E+04  0.00000000000E+00 0. -1.
          1    1    1    2  501    0 -0.19222406612E+02 -0.38438121284E+02 -0.18861940966E+03  0.19345353909E+03  0.00000000000E+00 0. -1.
<mgrwt>
<rscale>  1 0.92931937E+02</rscale>
<asrwt>0</asrwt>
<pdfrwt beam="1">  1       21 0.51838294E-03 0.92931937E+02</pdfrwt>
<pdfrwt beam="2">  1        2 0.37814593E+00 0.92931937E+02</pdfrwt>
<totfact> 0.57864085E+05</totfact>
</mgrwt>
</event>
<event>
 6    2  0.8544106E+000  0.9118616E+02  0.7546771E-02  0.1300004E+00
          2   -1    0    0  502    0 -0.00000000000E+00  0.00000000000E+00  0.94143933572E+01  0.94143933572E+01  0.00000000000E+00 0. -1.
         21   -1    0    0  501  502  0.00000000000E+00 -0.00000000000E+00 -0.10359385312E+04  0.10359385312E+04  0.00000000000E+00 0. -1.
         24    2    1    2    0    0  0.44590416070E+02 -0.12157805193E+02 -0.22894890700E+03  0.24643968378E+03  0.78605332475E+02 0.  0.
        -11    1    3    3    0    0  0.15791608746E+02  0.28288033354E+02 -0.14777688966E+03  0.15128647281E+03  0.00000000000E+00 0.  1.
         12    1    3    3    0    0  0.28798807324E+02 -0.40445838547E+02 -0.81172017336E+02  0.95153210967E+02  0.00000000000E+00 0. -1.
          1    1    1    2  501    0 -0.44590416070E+02  0.12157805193E+02 -0.79757523084E+03  0.79891324077E+03  0.00000000000E+00 0. -1.
<mgrwt>
<rscale>  1 0.91186160E+02</rscale>
<asrwt>0</asrwt>
<pdfrwt beam="1">  1       21 0.15937510E+00 0.91186160E+02</pdfrwt>
<pdfrwt beam="2">  1        2 0.14483687E-02 0.91186160E+02</pdfrwt>
<totfact> 0.26058352E+04</totfact>
</mgrwt>
</event>
<event>
 6    2  0.8544106E+000  0.1916998E+03  0.7546771E-02  0.1156937E+00
         -1   -1    0    0    0  501 -0.00000000000E+00  0.00000000000E+00  0.51155014832E+03  0.51155014832E+03  0.00000000000E+00 0.  1.
         21   -1    0    0  501  502  0.00000000000E+00 -0.00000000000E+00 -0.65168551994E+02  0.65168551994E+02  0.00000000000E+00 0.  1.
         24    2    1    2    0    0 -0.84122676153E+02 -0.15151578669E+03  0.22573787021E+03  0.29615264369E+03  0.81945982553E+02 0.  0.
        -13    1    3    3    0    0 -0.71591823498E+02 -0.67756199176E+02  0.16401290046E+03  0.19135444400E+03  0.00000000000E+00 0.  1.
         14    1    3    3    0    0 -0.12530852656E+02 -0.83759587509E+02  0.61724969750E+02  0.10479819969E+03  0.00000000000E+00 0. -1.
         -2    1    1    2    0  502  0.84122676153E+02  0.15151578669E+03  0.22064372611E+03  0.28056605663E+03  0.00000000000E+00 0.  1.
<mgrwt>
<rscale>  1 0.19169977E+03</rscale>
<asrwt>0</asrwt>
<pdfrwt beam="1">  1       21 0.10025931E-01 0.19169977E+03</pdfrwt>
<pdfrwt beam="2">  1       -1 0.78700020E-01 0.19169977E+03</pdfrwt>
<totfact> 0.12732865E+04</totfact>
</mgrwt>
</event>
<event>
 6    2  0.8544106E+000  0.8477686E+02  0.7546771E-02  0.1316017E+00
         21   -1    0    0  501  502  0.00000000000E+00  0.00000000000E+00  0.51089387371E+01  0.51089387371E+01  0.00000000000E+00 0. -1.
          2   -1    0    0  502    0 -0.00000000000E+00 -0.00000000000E+00 -0.13356292197E+04  0.13356292197E+04  0.00000000000E+00 0. -1.
         24    2    1    2    0    0 -0.25126747359E+02  0.24150424893E+01 -0.12914073949E+04  0.12941870713E+04  0.80931637045E+02 0.  0.
        -11    1    3    3    0    0  0.23756537575E+02 -0.15679293794E+02 -0.28150866340E+03  0.28294405967E+03  0.00000000000E+00 0.  1.
         12    1    3    3    0    0 -0.48883284933E+02  0.18094336283E+02 -0.10098987315E+04  0.10112430116E+04  0.00000000000E+00 0. -1.
          1    1    1    2  501    0  0.25126747359E+02 -0.24150424893E+01 -0.39112886002E+02  0.46551087146E+02  0.00000000000E+00 0. -1.
<mgrwt>
<rscale>  1 0.84776859E+02</rscale>
<asrwt>0</asrwt>
<pdfrwt beam="1">  1       21 0.78599061E-03 0.84776859E+02</pdfrwt>
<pdfrwt beam="2">  1        2 0.20548141E+00 0.84776859E+02</pdfrwt>
<totfact> 0.11266923E+06</totfact>
</mgrwt>
</event>
<event>
 6    2  0.8544106E+000  0.8526534E+02  0.7546771E-02  0.1314740E+00
         21   -1    0    0  501  502  0.00000000000E+00  0.00000000000E+00  0.23311941544E+03  0.23311941544E+03  0.00000000000E+00 0. -1.
         -1   -1    0    0    0  501 -0.00000000000E+00 -0.00000000000E+00 -0.15616549631E+02  0.15616549631E+02  0.00000000000E+00 0.  1.
         24    2    1    2    0    0 -0.88217345474E+01  0.19211699579E+02  0.11001352053E+03  0.13918747467E+03  0.82603062923E+02 0.  0.
        -13    1    3    3    0    0 -0.19098764467E+02 -0.21878278846E+02  0.85391942977E+02  0.90195375796E+02  0.00000000000E+00 0.  1.
         14    1    3    3    0    0  0.10277029920E+02  0.41089978425E+02  0.24621577556E+02  0.48992098876E+02  0.00000000000E+00 0. -1.
         -2    1    1    2    0  502  0.88217345474E+01 -0.19211699579E+02  0.10748934527E+03  0.10954849040E+03  0.00000000000E+00 0.  1.
<mgrwt>
<rscale>  1 0.85265341E+02</rscale>
<asrwt>0</asrwt>
<pdfrwt beam="1">  1       21 0.35864523E-01 0.85265341E+02</pdfrwt>
<pdfrwt beam="2">  1       -1 0.24025463E-02 0.85265341E+02</pdfrwt>
<totfact> 0.32181959E+05</totfact>
</mgrwt>
</event>
<event>
 6    2  0.8544106E+000  0.8758093E+02  0.7546771E-02  0.1308818E+00
          2   -1    0    0  502    0 -0.00000000000E+00  0.00000000000E+00  0.21627190408E+03  0.21627190408E+03  0.00000000000E+00 0. -1.
         21   -1    0    0  501  502  0.00000000000E+00 -0.00000000000E+00 -0.17716083330E+02  0.17716083330E+02  0.00000000000E+00 0. -1.
         24    2    1    2    0    0  0.16338354093E+02  0.29904287680E+02  0.12190815160E+03  0.15010668185E+03  0.80679676957E+02 0.  0.
        -13    1    3    3    0    0  0.14580648766E+02 -0.43719338813E+01 -0.69663329231E+01  0.16740338070E+02  0.00000000000E+00 0.  1.
         14    1    3    3    0    0  0.17577053266E+01  0.34276221562E+02  0.12887448452E+03  0.13336634378E+03  0.00000000000E+00 0. -1.
          1    1    1    2  501    0 -0.16338354093E+02 -0.29904287680E+02  0.76647669147E+02  0.83881305557E+02  0.00000000000E+00 0. -1.
<mgrwt>
<rscale>  1 0.87580925E+02</rscale>
<asrwt>0</asrwt>
<pdfrwt beam="1">  1       21 0.27255514E-02 0.87580925E+02</pdfrwt>
<pdfrwt beam="2">  1        2 0.33272599E-01 0.87580925E+02</pdfrwt>
<totfact> 0.13244465E+06</totfact>
</mgrwt>
</event>
<event>
 6    2  0.8544106E+000  0.1287208E+03  0.7546771E-02  0.1229366E+00
         21   -1    0    0  501  502  0.00000000000E+00  0.00000000000E+00  0.83568450282E+02  0.83568450282E+02  0.00000000000E+00 0. -1.
          2   -1    0    0  502    0 -0.00000000000E+00 -0.00000000000E+00 -0.22377584788E+03  0.22377584788E+03  0.00000000000E+00 0. -1.
         24    2    1    2    0    0 -0.70393408584E+02 -0.71357946544E+02 -0.15981701360E+03  0.20520847904E+03  0.80757993593E+02 0.  0.
        -11    1    3    3    0    0 -0.51406781980E+02 -0.34740419959E+02 -0.29847375772E+02  0.68850706989E+02  0.00000000000E+00 0.  1.
         12    1    3    3    0    0 -0.18986626604E+02 -0.36617526585E+02 -0.12996963783E+03  0.13635777206E+03  0.00000000000E+00 0. -1.
          1    1    1    2  501    0  0.70393408584E+02  0.71357946544E+02  0.19609616002E+02  0.10213581912E+03  0.00000000000E+00 0. -1.
<mgrwt>
<rscale>  1 0.12872079E+03</rscale>
<asrwt>0</asrwt>
<pdfrwt beam="1">  1       21 0.12856685E-01 0.12872079E+03</pdfrwt>
<pdfrwt beam="2">  1        2 0.34427054E-01 0.12872079E+03</pdfrwt>
<totfact> 0.95428882E+04</totfact>
</mgrwt>
</event>
<event>
 6    2  0.8544106E+000  0.9630098E+02  0.7546771E-02  0.1288273E+00
         21   -1    0    0  501  502  0.00000000000E+00  0.00000000000E+00  0.13935436001E+02  0.13935436001E+02  0.00000000000E+00 0. -1.
          2   -1    0    0  502    0 -0.00000000000E+00 -0.00000000000E+00 -0.26626233849E+04  0.26626233849E+04  0.00000000000E+00 0. -1.
         24    2    1    2    0    0  0.16924032189E+02 -0.50436891798E+02 -0.26074999779E+04  0.26092776804E+04  0.80271884620E+02 0.  0.
        -11    1    3    3    0    0  0.69730573254E+01 -0.10199111889E+02 -0.52224578807E+02  0.53666116343E+02  0.00000000000E+00 0.  1.
         12    1    3    3    0    0  0.99509748633E+01 -0.40237779909E+02 -0.25552753991E+04  0.25556115640E+04  0.00000000000E+00 0. -1.
          1    1    1    2  501    0 -0.16924032189E+02  0.50436891798E+02 -0.41187970992E+02  0.67281140553E+02  0.00000000000E+00 0. -1.
<mgrwt>
<rscale>  1 0.96300978E+02</rscale>
<asrwt>0</asrwt>
<pdfrwt beam="1">  1       21 0.21439112E-02 0.96300978E+02</pdfrwt>
<pdfrwt beam="2">  1        2 0.40963476E+00 0.96300978E+02</pdfrwt>
<totfact> 0.48616073E+04</totfact>
</mgrwt>
</event>
<event>
 6    2  0.8544106E+000  0.8388109E+02  0.7546771E-02  0.1318385E+00
         21   -1    0    0  501  502  0.00000000000E+00  0.00000000000E+00  0.18175088668E+01  0.18175088668E+01  0.00000000000E+00 0. -1.
          2   -1    0    0  502    0 -0.00000000000E+00 -0.00000000000E+00 -0.21519674596E+04  0.21519674596E+04  0.00000000000E+00 0. -1.
         24    2    1    2    0    0 -0.23696800189E+02 -0.14320048870E+02 -0.19408292829E+04  0.19426410741E+04  0.79179766018E+02 0.  0.
        -11    1    3    3    0    0 -0.95339717303E+01  0.16607085239E+02 -0.12199619155E+03  0.12348992934E+03  0.00000000000E+00 0.  1.
         12    1    3    3    0    0 -0.14162828459E+02 -0.30927134109E+02 -0.18188330913E+04  0.18191511448E+04  0.00000000000E+00 0. -1.
          1    1    1    2  501    0  0.23696800189E+02  0.14320048870E+02 -0.20932066781E+03  0.21114389433E+03  0.00000000000E+00 0. -1.
<mgrwt>
<rscale>  1 0.83881091E+02</rscale>
<asrwt>0</asrwt>
<pdfrwt beam="1">  1       21 0.27961730E-03 0.83881091E+02</pdfrwt>
<pdfrwt beam="2">  1        2 0.33107127E+00 0.83881091E+02</pdfrwt>
<totfact> 0.21148233E+06</totfact>
</mgrwt>
</event>
<event>
 6    2  0.8544106E+000  0.9117553E+02  0.7546771E-02  0.1300030E+00
         21   -1    0    0  501  502  0.00000000000E+00  0.00000000000E+00  0.40284878121E+02  0.40284878121E+02  0.00000000000E+00 0. -1.
          2   -1    0    0  502    0 -0.00000000000E+00 -0.00000000000E+00 -0.35955337719E+03  0.35955337719E+03  0.00000000000E+00 0. -1.
         24    2    1    2    0    0 -0.40645525341E+02 -0.97402261568E+01 -0.34082555958E+03  0.35281020418E+03  0.81031150616E+02 0.  0.
        -11    1    3    3    0    0 -0.51058393638E+02 -0.25894338840E+02 -0.14271350954E+03  0.15376807910E+03  0.00000000000E+00 0.  1.
         12    1    3    3    0    0  0.10412868297E+02  0.16154112683E+02 -0.19811205004E+03  0.19904212508E+03  0.00000000000E+00 0. -1.
          1    1    1    2  501    0  0.40645525341E+02  0.97402261568E+01  0.21557060512E+02  0.47028051137E+02  0.00000000000E+00 0. -1.
<mgrwt>
<rscale>  1 0.91175535E+02</rscale>
<asrwt>0</asrwt>
<pdfrwt beam="1">  1       21 0.61976739E-02 0.91175535E+02</pdfrwt>
<pdfrwt beam="2">  1        2 0.55315901E-01 0.91175535E+02</pdfrwt>
<totfact> 0.20130654E+05</totfact>
</mgrwt>
</event>
<event>
 6    2  0.8544106E+000  0.1114373E+03  0.7546771E-02  0.1257931E+00
         21   -1    0    0  501  502  0.00000000000E+00  0.00000000000E+00  0.17601146218E+02  0.17601146218E+02  0.00000000000E+00 0.  1.
          2   -1    0    0  502    0 -0.00000000000E+00 -0.00000000000E+00 -0.45894098408E+03  0.45894098408E+03  0.00000000000E+00 0. -1.
         24    2    1    2    0    0  0.14084367031E+02  0.66830470191E+02 -0.27693287854E+03  0.29851311746E+03  0.88054420305E+02 0.  0.
        -13    1    3    3    0    0  0.39351469798E+01  0.78610939712E+02 -0.13925346264E+03  0.15995840735E+03  0.00000000000E+00 0.  1.
         14    1    3    3    0    0  0.10149220051E+02 -0.11780469521E+02 -0.13767941591E+03  0.13855471011E+03  0.00000000000E+00 0. -1.
          1    1    1    2  501    0 -0.14084367031E+02 -0.66830470191E+02 -0.16440695932E+03  0.17802901284E+03  0.00000000000E+00 0. -1.
<mgrwt>
<rscale>  1 0.11143726E+03</rscale>
<asrwt>0</asrwt>
<pdfrwt beam="1">  1       21 0.27078684E-02 0.11143726E+03</pdfrwt>
<pdfrwt beam="2">  1        2 0.70606312E-01 0.11143726E+03</pdfrwt>
<totfact> 0.61958847E+05</totfact>
</mgrwt>
</event>
<event>
 6    2  0.8544106E+000  0.1118065E+03  0.7546771E-02  0.1257261E+00
          2   -1    0    0  502    0 -0.00000000000E+00  0.00000000000E+00  0.26128640504E+03  0.26128640504E+03  0.00000000000E+00 0. -1.
         21   -1    0    0  501  502  0.00000000000E+00 -0.00000000000E+00 -0.45508669932E+02  0.45508669932E+02  0.00000000000E+00 0. -1.
         24    2    1    2    0    0  0.35780296050E+02  0.68440977545E+02  0.19824561270E+03  0.22760055301E+03  0.80847336279E+02 0.  0.
        -13    1    3    3    0    0  0.16209826492E+02  0.58529935830E+01 -0.15642066942E+01  0.17304992094E+02  0.00000000000E+00 0.  1.
         14    1    3    3    0    0  0.19570469558E+02  0.62587983962E+02  0.19980981940E+03  0.21029556092E+03  0.00000000000E+00 0. -1.
          1    1    1    2  501    0 -0.35780296050E+02 -0.68440977545E+02  0.17532122409E+02  0.79194521963E+02  0.00000000000E+00 0. -1.
<mgrwt>
<rscale>  1 0.11180648E+03</rscale>
<asrwt>0</asrwt>
<pdfrwt beam="1">  1       21 0.70013340E-02 0.11180648E+03</pdfrwt>
<pdfrwt beam="2">  1        2 0.40197908E-01 0.11180648E+03</pdfrwt>
<totfact> 0.23163945E+05</totfact>
</mgrwt>
</event>
<event>
 6    2  0.8544106E+000  0.9313424E+02  0.7546771E-02  0.1295434E+00
         -3   -1    0    0    0  501 -0.00000000000E+00  0.00000000000E+00  0.20160615622E+02  0.20160615622E+02  0.00000000000E+00 0.  1.
         21   -1    0    0  501  502  0.00000000000E+00 -0.00000000000E+00 -0.24548323403E+03  0.24548323403E+03  0.00000000000E+00 0. -1.
         24    2    1    2    0    0 -0.21909744608E+02  0.63003456664E+00 -0.93353406778E+02  0.13186677138E+03  0.90518246696E+02 0.  0.
        -13    1    3    3    0    0  0.27804887503E+02  0.11270202826E+02 -0.69518861149E+02  0.75716585344E+02  0.00000000000E+00 0.  1.
         14    1    3    3    0    0 -0.49714632111E+02 -0.10640168259E+02 -0.23834545629E+02  0.56150186036E+02  0.00000000000E+00 0. -1.
         -4    1    1    2    0  502  0.21909744608E+02 -0.63003456664E+00 -0.13196921163E+03  0.13377707827E+03  0.00000000000E+00 0.  1.
<mgrwt>
<rscale>  1 0.93134241E+02</rscale>
<asrwt>0</asrwt>
<pdfrwt beam="1">  1       21 0.37766652E-01 0.93134241E+02</pdfrwt>
<pdfrwt beam="2">  1       -3 0.31016332E-02 0.93134241E+02</pdfrwt>
<totfact> 0.14847642E+05</totfact>
</mgrwt>
</event>
<event>
 6    2  0.8544106E+000  0.8263470E+02  0.7546771E-02  0.1321737E+00
          2   -1    0    0  502    0 -0.00000000000E+00  0.00000000000E+00  0.14801944730E+04  0.14801944730E+04  0.00000000000E+00 0. -1.
         21   -1    0    0  501  502  0.00000000000E+00 -0.00000000000E+00 -0.22981173322E+01  0.22981173322E+01  0.00000000000E+00 0.  1.
         24    2    1    2    0    0 -0.16696356916E+02 -0.12872878158E+02  0.13737853138E+04  0.13762683541E+04  0.79900029613E+02 0.  0.
        -11    1    3    3    0    0  0.20631551069E+02  0.61061369447E+01  0.12924424882E+03  0.13102298143E+03  0.00000000000E+00 0.  1.
         12    1    3    3    0    0 -0.37327907985E+02 -0.18979015102E+02  0.12445410650E+04  0.12452453727E+04  0.00000000000E+00 0. -1.
          1    1    1    2  501    0  0.16696356916E+02  0.12872878158E+02  0.10411104186E+03  0.10622423624E+03  0.00000000000E+00 0. -1.
<mgrwt>
<rscale>  1 0.82634703E+02</rscale>
<asrwt>0</asrwt>
<pdfrwt beam="1">  1       21 0.35355769E-03 0.82634703E+02</pdfrwt>
<pdfrwt beam="2">  1        2 0.22772147E+00 0.82634703E+02</pdfrwt>
<totfact> 0.32199220E+06</totfact>
</mgrwt>
</event>
<event>
 6    2  0.8544106E+000  0.8397884E+02  0.7546771E-02  0.1318125E+00
          2   -1    0    0  502    0 -0.00000000000E+00  0.00000000000E+00  0.67851251005E+03  0.67851251005E+03  0.00000000000E+00 0. -1.
         21   -1    0    0  501  502  0.00000000000E+00 -0.00000000000E+00 -0.68033069932E+01  0.68033069932E+01  0.00000000000E+00 0. -1.
         24    2    1    2    0    0  0.11160980983E+02 -0.17258165721E+02  0.65006941811E+03  0.65547135234E+03  0.81425018303E+02 0.  0.
        -11    1    3    3    0    0  0.19803311766E+02  0.28462677033E+02  0.19795549276E+03  0.20096933163E+03  0.00000000000E+00 0.  1.
         12    1    3    3    0    0 -0.86423307829E+01 -0.45720842754E+02  0.45211392535E+03  0.45450202072E+03  0.00000000000E+00 0. -1.
          1    1    1    2  501    0 -0.11160980983E+02  0.17258165721E+02  0.21639784954E+02  0.29844464703E+02  0.00000000000E+00 0. -1.
<mgrwt>
<rscale>  1 0.83978839E+02</rscale>
<asrwt>0</asrwt>
<pdfrwt beam="1">  1       21 0.10466632E-02 0.83978839E+02</pdfrwt>
<pdfrwt beam="2">  1        2 0.10438649E+00 0.83978839E+02</pdfrwt>
<totfact> 0.17800781E+06</totfact>
</mgrwt>
</event>
<event>
 6    2  0.8544106E+000  0.8357029E+02  0.7546771E-02  0.1319214E+00
          2   -1    0    0  502    0 -0.00000000000E+00  0.00000000000E+00  0.39067352369E+04  0.39067352369E+04  0.00000000000E+00 0. -1.
         21   -1    0    0  501  502  0.00000000000E+00 -0.00000000000E+00 -0.13909660567E+01  0.13909660567E+01  0.00000000000E+00 0. -1.
         24    2    1    2    0    0 -0.28624275493E+02  0.86493887886E+01  0.36617399980E+04  0.36626935181E+04  0.78037382860E+02 0.  0.
        -13    1    3    3    0    0 -0.15482300384E+02  0.36044950339E+02  0.29998261878E+04  0.30000826817E+04  0.00000000000E+00 0.  1.
         14    1    3    3    0    0 -0.13141975110E+02 -0.27395561550E+02  0.66191381020E+03  0.66261083634E+03  0.00000000000E+00 0. -1.
          1    1    1    2  501    0  0.28624275493E+02 -0.86493887886E+01  0.24360427282E+03  0.24543268488E+03  0.00000000000E+00 0. -1.
<mgrwt>
<rscale>  1 0.83570295E+02</rscale>
<asrwt>0</asrwt>
<pdfrwt beam="1">  1       21 0.21399791E-03 0.83570295E+02</pdfrwt>
<pdfrwt beam="2">  1        2 0.60102740E+00 0.83570295E+02</pdfrwt>
<totfact> 0.29926599E+05</totfact>
</mgrwt>
</event>
<event>
 6    2  0.8544106E+000  0.8427537E+02  0.7546771E-02  0.1317338E+00
         21   -1    0    0  501  502  0.00000000000E+00  0.00000000000E+00  0.95372285444E+00  0.95372285444E+00  0.00000000000E+00 0. -1.
          2   -1    0    0  502    0 -0.00000000000E+00 -0.00000000000E+00 -0.33332160307E+04  0.33332160307E+04  0.00000000000E+00 0. -1.
         24    2    1    2    0    0  0.12748654387E+02 -0.21788977138E+02 -0.21749480806E+04  0.21765802286E+04  0.80405537662E+02 0.  0.
        -11    1    3    3    0    0 -0.48835565684E+01  0.28954793649E+02 -0.95222250625E+03  0.95267514432E+03  0.00000000000E+00 0.  1.
         12    1    3    3    0    0  0.17632210956E+02 -0.50743770787E+02 -0.12227255743E+04  0.12239050843E+04  0.00000000000E+00 0. -1.
          1    1    1    2  501    0 -0.12748654387E+02  0.21788977138E+02 -0.11573142273E+04  0.11575895250E+04  0.00000000000E+00 0. -1.
<mgrwt>
<rscale>  1 0.84275371E+02</rscale>
<asrwt>0</asrwt>
<pdfrwt beam="1">  1       21 0.14672435E-03 0.84275371E+02</pdfrwt>
<pdfrwt beam="2">  1        2 0.51281032E+00 0.84275371E+02</pdfrwt>
<totfact> 0.12537491E+06</totfact>
</mgrwt>
</event>
<event>
 6    2  0.8544106E+000  0.8719160E+02  0.7546771E-02  0.1309799E+00
          2   -1    0    0  502    0 -0.00000000000E+00  0.00000000000E+00  0.16492349420E+04  0.16492349420E+04  0.00000000000E+00 0. -1.
         21   -1    0    0  501  502  0.00000000000E+00 -0.00000000000E+00 -0.51587932306E+01  0.51587932306E+01  0.00000000000E+00 0. -1.
         24    2    1    2    0    0 -0.22516394246E+02  0.27112693645E+02  0.15693855669E+04  0.15718057871E+04  0.79751416349E+02 0.  0.
        -11    1    3    3    0    0 -0.35991422441E+02 -0.26849568894E+01  0.32626686629E+03  0.32825700224E+03  0.00000000000E+00 0.  1.
         12    1    3    3    0    0  0.13475028195E+02  0.29797650534E+02  0.12431187006E+04  0.12435487848E+04  0.00000000000E+00 0. -1.
          1    1    1    2  501    0  0.22516394246E+02 -0.27112693645E+02  0.74690581874E+02  0.82587948196E+02  0.00000000000E+00 0. -1.
<mgrwt>
<rscale>  1 0.87191597E+02</rscale>
<asrwt>0</asrwt>
<pdfrwt beam="1">  1       21 0.79366181E-03 0.87191597E+02</pdfrwt>
<pdfrwt beam="2">  1        2 0.25372803E+00 0.87191597E+02</pdfrwt>
<totfact> 0.76872623E+05</totfact>
</mgrwt>
</event>
<event>
 6    2  0.8544106E+000  0.9378905E+02  0.7546771E-02  0.1293927E+00
          2   -1    0    0  502    0 -0.00000000000E+00  0.00000000000E+00  0.30050356296E+03  0.30050356296E+03  0.00000000000E+00 0. -1.
         21   -1    0    0  501  502  0.00000000000E+00 -0.00000000000E+00 -0.18980030440E+02  0.18980030440E+02  0.00000000000E+00 0. -1.
         24    2    1    2    0    0 -0.11421797294E+02  0.47866837750E+02  0.22923725220E+03  0.24768145750E+03  0.79841687018E+02 0.  0.
        -11    1    3    3    0    0  0.12845163987E+02  0.49151232010E+01  0.58289884912E+00  0.13765770774E+02  0.00000000000E+00 0.  1.
         12    1    3    3    0    0 -0.24266961281E+02  0.42951714549E+02  0.22865435335E+03  0.23391568673E+03  0.00000000000E+00 0. -1.
          1    1    1    2  501    0  0.11421797294E+02 -0.47866837750E+02  0.52286280324E+02  0.71802135899E+02  0.00000000000E+00 0. -1.
<mgrwt>
<rscale>  1 0.93789054E+02</rscale>
<asrwt>0</asrwt>
<pdfrwt beam="1">  1       21 0.29200049E-02 0.93789054E+02</pdfrwt>
<pdfrwt beam="2">  1        2 0.46231314E-01 0.93789054E+02</pdfrwt>
<totfact> 0.84443794E+05</totfact>
</mgrwt>
</event>
<event>
 6    2  0.8544106E+000  0.8370347E+02  0.7546771E-02  0.1318858E+00
         21   -1    0    0  501  502  0.00000000000E+00  0.00000000000E+00  0.89452798859E+02  0.89452798859E+02  0.00000000000E+00 0. -1.
         -3   -1    0    0    0  501 -0.00000000000E+00 -0.00000000000E+00 -0.87500303882E+02  0.87500303882E+02  0.00000000000E+00 0.  1.
         24    2    1    2    0    0  0.25518472013E+02  0.58500931936E+01 -0.64407559305E+02  0.10561536512E+03  0.79503809030E+02 0.  0.
        -13    1    3    3    0    0 -0.20834632225E+02  0.56848177803E+01 -0.53928805729E+02  0.58092298461E+02  0.00000000000E+00 0.  1.
         14    1    3    3    0    0  0.46353104238E+02  0.16527541324E+00 -0.10478753576E+02  0.47523066662E+02  0.00000000000E+00 0. -1.
         -4    1    1    2    0  502 -0.25518472013E+02 -0.58500931936E+01  0.66360054281E+02  0.71337737618E+02  0.00000000000E+00 0.  1.
<mgrwt>
<rscale>  1 0.83703475E+02</rscale>
<asrwt>0</asrwt>
<pdfrwt beam="1">  1       21 0.13761969E-01 0.83703475E+02</pdfrwt>
<pdfrwt beam="2">  1       -3 0.13461585E-01 0.83703475E+02</pdfrwt>
<totfact> 0.91994321E+04</totfact>
</mgrwt>
</event>
<event>
 6    2  0.8544106E+000  0.8505615E+02  0.7546771E-02  0.1315286E+00
         21   -1    0    0  501  502  0.00000000000E+00  0.00000000000E+00  0.18314325745E+02  0.18314325745E+02  0.00000000000E+00 0. -1.
          2   -1    0    0  502    0 -0.00000000000E+00 -0.00000000000E+00 -0.22470099324E+03  0.22470099324E+03  0.00000000000E+00 0. -1.
         24    2    1    2    0    0  0.44744916172E+01  0.30473311897E+02 -0.18990469781E+03  0.20808253871E+03  0.79283698524E+02 0.  0.
        -11    1    3    3    0    0 -0.34876776800E+01  0.43752294079E+02 -0.46870222506E+02  0.64212497931E+02  0.00000000000E+00 0.  1.
         12    1    3    3    0    0  0.79621692972E+01 -0.13278982182E+02 -0.14303447531E+03  0.14387004078E+03  0.00000000000E+00 0. -1.
          1    1    1    2  501    0 -0.44744916172E+01 -0.30473311897E+02 -0.16481969684E+02  0.34932780277E+02  0.00000000000E+00 0. -1.
<mgrwt>
<rscale>  1 0.85056150E+02</rscale>
<asrwt>0</asrwt>
<pdfrwt beam="1">  1       21 0.28175886E-02 0.85056150E+02</pdfrwt>
<pdfrwt beam="2">  1        2 0.34569384E-01 0.85056150E+02</pdfrwt>
<totfact> 0.12013647E+06</totfact>
</mgrwt>
</event>
<event>
 6    2  0.8544106E+000  0.9446600E+02  0.7546771E-02  0.1292383E+00
          2   -1    0    0  502    0 -0.00000000000E+00  0.00000000000E+00  0.25821307929E+03  0.25821307929E+03  0.00000000000E+00 0. -1.
         21   -1    0    0  501  502  0.00000000000E+00 -0.00000000000E+00 -0.91896031522E+02  0.91896031522E+02  0.00000000000E+00 0. -1.
         24    2    1    2    0    0 -0.44154274870E+02  0.19514428996E+02  0.24231363086E+03  0.26007637470E+03  0.81199827881E+02 0.  0.
        -11    1    3    3    0    0 -0.35262483022E+02 -0.82358187111E+01  0.33795247902E+02  0.49531709030E+02  0.00000000000E+00 0.  1.
         12    1    3    3    0    0 -0.88917918480E+01  0.27750247707E+02  0.20851838296E+03  0.21054466567E+03  0.00000000000E+00 0. -1.
          1    1    1    2  501    0  0.44154274870E+02 -0.19514428996E+02 -0.75996583098E+02  0.90032736107E+02  0.00000000000E+00 0. -1.
<mgrwt>
<rscale>  1 0.94465999E+02</rscale>
<asrwt>0</asrwt>
<pdfrwt beam="1">  1       21 0.14137851E-01 0.94465999E+02</pdfrwt>
<pdfrwt beam="2">  1        2 0.39725089E-01 0.94465999E+02</pdfrwt>
<totfact> 0.68562820E+04</totfact>
</mgrwt>
</event>
<event>
 6    2  0.8544106E+000  0.9656607E+02  0.7546771E-02  0.1287687E+00
         21   -1    0    0  501  502  0.00000000000E+00  0.00000000000E+00  0.21893695274E+02  0.21893695274E+02  0.00000000000E+00 0.  1.
         -1   -1    0    0    0  501 -0.00000000000E+00 -0.00000000000E+00 -0.29574017650E+03  0.29574017650E+03  0.00000000000E+00 0.  1.
         24    2    1    2    0    0  0.24965151013E+02 -0.47871900945E+02 -0.11670631507E+03  0.15147729055E+03  0.80062649900E+02 0.  0.
        -11    1    3    3    0    0  0.32337628738E+02 -0.57705016651E+02 -0.12145639852E+03  0.13830129400E+03  0.00000000000E+00 0.  1.
         12    1    3    3    0    0 -0.73724777252E+01  0.98331157053E+01  0.47500834527E+01  0.13175996550E+02  0.00000000000E+00 0. -1.
         -2    1    1    2    0  502 -0.24965151013E+02  0.47871900945E+02 -0.15714016616E+03  0.16615658123E+03  0.00000000000E+00 0.  1.
<mgrwt>
<rscale>  1 0.96566068E+02</rscale>
<asrwt>0</asrwt>
<pdfrwt beam="1">  1       21 0.33682610E-02 0.96566068E+02</pdfrwt>
<pdfrwt beam="2">  1       -1 0.45498487E-01 0.96566068E+02</pdfrwt>
<totfact> 0.22485703E+05</totfact>
</mgrwt>
</event>
<event>
 6    2  0.8934128E+000  0.8871066E+02  0.7546771E-02  0.1306004E+00
         21   -1    0    0  501  502  0.00000000000E+00  0.00000000000E+00  0.96219571119E+01  0.96219571119E+01  0.00000000000E+00 0.  1.
         -1   -1    0    0    0  501 -0.00000000000E+00 -0.00000000000E+00 -0.13197278576E+04  0.13197278576E+04  0.00000000000E+00 0.  1.
         24    2    1    2    0    0 -0.90017419077E+01 -0.29439059060E+02 -0.12889442236E+04  0.12919933410E+04  0.83197910421E+02 0.  0.
        -13    1    3    3    0    0 -0.27438684225E+02 -0.40258395757E+02 -0.11780777972E+04  0.11790847790E+04  0.00000000000E+00 0.  1.
         14    1    3    3    0    0  0.18436942317E+02  0.10819336697E+02 -0.11086642640E+03  0.11290856208E+03  0.00000000000E+00 0. -1.
         -2    1    1    2    0  502  0.90017419077E+01  0.29439059060E+02 -0.21161676966E+02  0.37356473705E+02  0.00000000000E+00 0.  1.
<mgrwt>
<rscale>  1 0.88710664E+02</rscale>
<asrwt>0</asrwt>
<pdfrwt beam="1">  1       21 0.14803016E-02 0.88710664E+02</pdfrwt>
<pdfrwt beam="2">  1       -1 0.20303498E+00 0.88710664E+02</pdfrwt>
<totfact> 0.30031845E+04</totfact>
</mgrwt>
</event>
<event>
 6    2  0.8544106E+000  0.8660114E+02  0.7546771E-02  0.1311298E+00
          2   -1    0    0  502    0 -0.00000000000E+00  0.00000000000E+00  0.13714274080E+02  0.13714274080E+02  0.00000000000E+00 0. -1.
         21   -1    0    0  501  502  0.00000000000E+00 -0.00000000000E+00 -0.25502670245E+03  0.25502670245E+03  0.00000000000E+00 0. -1.
         24    2    1    2    0    0 -0.31153896979E+02  0.55957296663E+01 -0.17918421441E+03  0.19901442164E+03  0.80609427723E+02 0.  0.
        -11    1    3    3    0    0 -0.33329075895E+02 -0.29002547613E+02 -0.13945858526E+03  0.14628968545E+03  0.00000000000E+00 0.  1.
         12    1    3    3    0    0  0.21751789161E+01  0.34598277279E+02 -0.39725629157E+02  0.52724736186E+02  0.00000000000E+00 0. -1.
          1    1    1    2  501    0  0.31153896979E+02 -0.55957296663E+01 -0.62128213953E+02  0.69726554888E+02  0.00000000000E+00 0. -1.
<mgrwt>
<rscale>  1 0.86601139E+02</rscale>
<asrwt>0</asrwt>
<pdfrwt beam="1">  1       21 0.39234876E-01 0.86601139E+02</pdfrwt>
<pdfrwt beam="2">  1        2 0.21098884E-02 0.86601139E+02</pdfrwt>
<totfact> 0.35562823E+05</totfact>
</mgrwt>
</event>
<event>
 6    2  0.8544106E+000  0.9425273E+02  0.7546771E-02  0.1292868E+00
         21   -1    0    0  501  502  0.00000000000E+00  0.00000000000E+00  0.63090615023E+02  0.63090615023E+02  0.00000000000E+00 0.  1.
          4   -1    0    0  502    0 -0.00000000000E+00 -0.00000000000E+00 -0.76519448595E+02  0.76519448595E+02  0.00000000000E+00 0. -1.
         24    2    1    2    0    0  0.21102507435E+02  0.44406253952E+01 -0.42518288670E+02  0.10339913472E+03  0.91752608764E+02 0.  0.
        -11    1    3    3    0    0  0.22110784604E+02  0.25229821736E+02  0.18931219072E+02  0.38520407009E+02  0.00000000000E+00 0.  1.
         12    1    3    3    0    0 -0.10082771691E+01 -0.20789196340E+02 -0.61449507742E+02  0.64878727709E+02  0.00000000000E+00 0. -1.
          3    1    1    2  501    0 -0.21102507435E+02 -0.44406253952E+01  0.29089455097E+02  0.36210928900E+02  0.00000000000E+00 0. -1.
<mgrwt>
<rscale>  1 0.94252725E+02</rscale>
<asrwt>0</asrwt>
<pdfrwt beam="1">  1       21 0.97062485E-02 0.94252725E+02</pdfrwt>
<pdfrwt beam="2">  1        4 0.11772223E-01 0.94252725E+02</pdfrwt>
<totfact> 0.18549564E+05</totfact>
</mgrwt>
</event>
<event>
 6    2  0.8544106E+000  0.8495486E+02  0.7546771E-02  0.1315551E+00
         21   -1    0    0  501  502  0.00000000000E+00  0.00000000000E+00  0.13481247496E+01  0.13481247496E+01  0.00000000000E+00 0.  1.
          2   -1    0    0  502    0 -0.00000000000E+00 -0.00000000000E+00 -0.31085768684E+04  0.31085768684E+04  0.00000000000E+00 0. -1.
         24    2    1    2    0    0  0.12171147791E+02 -0.23126111566E+02 -0.28707240099E+04  0.28719807918E+04  0.80835471882E+02 0.  0.
        -11    1    3    3    0    0  0.42499820017E+02 -0.14988602971E+02 -0.22606857090E+04  0.22611348407E+04  0.00000000000E+00 0.  1.
         12    1    3    3    0    0 -0.30328672226E+02 -0.81375085954E+01 -0.61003830092E+03  0.61084595112E+03  0.00000000000E+00 0. -1.
          1    1    1    2  501    0 -0.12171147791E+02  0.23126111566E+02 -0.23650473373E+03  0.23794420134E+03  0.00000000000E+00 0. -1.
<mgrwt>
<rscale>  1 0.84954855E+02</rscale>
<asrwt>0</asrwt>
<pdfrwt beam="1">  1       21 0.20740395E-03 0.84954855E+02</pdfrwt>
<pdfrwt beam="2">  1        2 0.47824227E+00 0.84954855E+02</pdfrwt>
<totfact> 0.10179253E+06</totfact>
</mgrwt>
</event>
<event>
 6    2  0.8544106E+000  0.8430598E+02  0.7546771E-02  0.1317258E+00
         21   -1    0    0  501  502  0.00000000000E+00  0.00000000000E+00  0.22318612779E+03  0.22318612779E+03  0.00000000000E+00 0. -1.
         -3   -1    0    0    0  501 -0.00000000000E+00 -0.00000000000E+00 -0.12885488724E+02  0.12885488724E+02  0.00000000000E+00 0.  1.
         24    2    1    2    0    0 -0.22947892495E+02 -0.15519034482E-01  0.16551542232E+03  0.18574943801E+03  0.81122701404E+02 0.  0.
        -11    1    3    3    0    0  0.44462559413E+01 -0.10416062409E+01 -0.84673140496E+01  0.96202672869E+01  0.00000000000E+00 0.  1.
         12    1    3    3    0    0 -0.27394148436E+02  0.10260872065E+01  0.17398273637E+03  0.17612917072E+03  0.00000000000E+00 0. -1.
         -4    1    1    2    0  502  0.22947892495E+02  0.15519034482E-01  0.44785216743E+02  0.50322178505E+02  0.00000000000E+00 0.  1.
<mgrwt>
<rscale>  1 0.84305983E+02</rscale>
<asrwt>0</asrwt>
<pdfrwt beam="1">  1       21 0.34336324E-01 0.84305983E+02</pdfrwt>
<pdfrwt beam="2">  1       -3 0.19823831E-02 0.84305983E+02</pdfrwt>
<totfact> 0.34792114E+05</totfact>
</mgrwt>
</event>
<event>
 6    2  0.8544106E+000  0.8432381E+02  0.7546771E-02  0.1317210E+00
         21   -1    0    0  501  502  0.00000000000E+00  0.00000000000E+00  0.15061696621E+01  0.15061696621E+01  0.00000000000E+00 0.  1.
          2   -1    0    0  502    0 -0.00000000000E+00 -0.00000000000E+00 -0.21546143091E+04  0.21546143091E+04  0.00000000000E+00 0. -1.
         24    2    1    2    0    0 -0.13067301417E+02 -0.26285827418E+02 -0.15316437116E+04  0.15339631561E+04  0.79049388748E+02 0.  0.
        -13    1    3    3    0    0 -0.33992995933E+01 -0.46408983538E+02 -0.52128205670E+03  0.52335488115E+03  0.00000000000E+00 0.  1.
         14    1    3    3    0    0 -0.96680018237E+01  0.20123156119E+02 -0.10103616549E+04  0.10106082750E+04  0.00000000000E+00 0. -1.
          1    1    1    2  501    0  0.13067301417E+02  0.26285827418E+02 -0.62146442778E+03  0.62215732261E+03  0.00000000000E+00 0. -1.
<mgrwt>
<rscale>  1 0.84323810E+02</rscale>
<asrwt>0</asrwt>
<pdfrwt beam="1">  1       21 0.23171919E-03 0.84323810E+02</pdfrwt>
<pdfrwt beam="2">  1        2 0.33147801E+00 0.84323810E+02</pdfrwt>
<totfact> 0.27980172E+06</totfact>
</mgrwt>
</event>
<event>
 6    2  0.8544106E+000  0.8416927E+02  0.7546771E-02  0.1317619E+00
          4   -1    0    0  502    0 -0.00000000000E+00  0.00000000000E+00  0.96160272401E+02  0.96160272401E+02  0.00000000000E+00 0. -1.
         21   -1    0    0  501  502  0.00000000000E+00 -0.00000000000E+00 -0.18108383985E+03  0.18108383985E+03  0.00000000000E+00 0. -1.
         24    2    1    2    0    0  0.66675220969E+01 -0.27960684319E+02  0.76223228173E+02  0.11355371712E+03  0.79108851847E+02 0.  0.
        -11    1    3    3    0    0  0.36168305007E+02 -0.16858331277E+01  0.11984060487E+02  0.38139297662E+02  0.00000000000E+00 0.  1.
         12    1    3    3    0    0 -0.29500782910E+02 -0.26274851191E+02  0.64239167686E+02  0.75414419459E+02  0.00000000000E+00 0. -1.
          3    1    1    2  501    0 -0.66675220969E+01  0.27960684319E+02 -0.16114679562E+03  0.16369039513E+03  0.00000000000E+00 0. -1.
<mgrwt>
<rscale>  1 0.84169271E+02</rscale>
<asrwt>0</asrwt>
<pdfrwt beam="1">  1       21 0.27859052E-01 0.84169271E+02</pdfrwt>
<pdfrwt beam="2">  1        4 0.14793888E-01 0.84169271E+02</pdfrwt>
<totfact> 0.18456018E+04</totfact>
</mgrwt>
</event>
<event>
 6    2  0.8544106E+000  0.8692008E+02  0.7546771E-02  0.1310486E+00
         21   -1    0    0  501  502  0.00000000000E+00  0.00000000000E+00  0.26504942729E+02  0.26504942729E+02  0.00000000000E+00 0. -1.
          2   -1    0    0  502    0 -0.00000000000E+00 -0.00000000000E+00 -0.13551761771E+03  0.13551761771E+03  0.00000000000E+00 0. -1.
         24    2    1    2    0    0 -0.19413205357E+02  0.26314247368E+02 -0.74501209389E+02  0.11447938623E+03  0.80534387150E+02 0.  0.
        -13    1    3    3    0    0 -0.29345654703E+02 -0.22163958081E+02 -0.38808131276E+02  0.53464750452E+02  0.00000000000E+00 0.  1.
         14    1    3    3    0    0  0.99324493464E+01  0.48478205449E+02 -0.35693078114E+02  0.61014635775E+02  0.00000000000E+00 0. -1.
          1    1    1    2  501    0  0.19413205357E+02 -0.26314247368E+02 -0.34511465588E+02  0.47543174208E+02  0.00000000000E+00 0. -1.
<mgrwt>
<rscale>  1 0.86920076E+02</rscale>
<asrwt>0</asrwt>
<pdfrwt beam="1">  1       21 0.40776836E-02 0.86920076E+02</pdfrwt>
<pdfrwt beam="2">  1        2 0.20848864E-01 0.86920076E+02</pdfrwt>
<totfact> 0.11374715E+06</totfact>
</mgrwt>
</event>
<event>
 6    2  0.8544106E+000  0.8327220E+02  0.7546771E-02  0.1320014E+00
         21   -1    0    0  501  502  0.00000000000E+00  0.00000000000E+00  0.15001067963E+01  0.15001067963E+01  0.00000000000E+00 0. -1.
          2   -1    0    0  502    0 -0.00000000000E+00 -0.00000000000E+00 -0.29699212674E+04  0.29699212674E+04  0.00000000000E+00 0. -1.
         24    2    1    2    0    0  0.16808391676E+02 -0.16085242451E+02 -0.28163577476E+04  0.28175885473E+04  0.79956252892E+02 0.  0.
        -13    1    3    3    0    0 -0.89624205647E+01 -0.16302112404E+02 -0.15590762399E+03  0.15701360154E+03  0.00000000000E+00 0.  1.
         14    1    3    3    0    0  0.25770812241E+02  0.21686995287E+00 -0.26604501236E+04  0.26605749457E+04  0.00000000000E+00 0. -1.
          1    1    1    2  501    0 -0.16808391676E+02  0.16085242451E+02 -0.15206341303E+03  0.15383282692E+03  0.00000000000E+00 0. -1.
<mgrwt>
<rscale>  1 0.83272201E+02</rscale>
<asrwt>0</asrwt>
<pdfrwt beam="1">  1       21 0.23078601E-03 0.83272201E+02</pdfrwt>
<pdfrwt beam="2">  1        2 0.45691028E+00 0.83272201E+02</pdfrwt>
<totfact> 0.10405960E+06</totfact>
</mgrwt>
</event>
<event>
 6    2  0.8544106E+000  0.8461205E+02  0.7546771E-02  0.1316450E+00
         21   -1    0    0  501  502  0.00000000000E+00  0.00000000000E+00  0.20947493190E+02  0.20947493190E+02  0.00000000000E+00 0. -1.
         -3   -1    0    0    0  501 -0.00000000000E+00 -0.00000000000E+00 -0.18576007167E+03  0.18576007167E+03  0.00000000000E+00 0.  1.
         24    2    1    2    0    0 -0.15847575033E+02 -0.29437029384E+02 -0.14489933167E+03  0.16779456276E+03  0.77727180844E+02 0.  0.
        -11    1    3    3    0    0 -0.37501285063E+00 -0.53153013994E+02 -0.11457611022E+03  0.12630545738E+03  0.00000000000E+00 0.  1.
         12    1    3    3    0    0 -0.15472562182E+02  0.23715984609E+02 -0.30323221449E+02  0.41489105383E+02  0.00000000000E+00 0. -1.
         -4    1    1    2    0  502  0.15847575033E+02  0.29437029384E+02 -0.19913246807E+02  0.38913002092E+02  0.00000000000E+00 0.  1.
<mgrwt>
<rscale>  1 0.84612050E+02</rscale>
<asrwt>0</asrwt>
<pdfrwt beam="1">  1       21 0.32226913E-02 0.84612050E+02</pdfrwt>
<pdfrwt beam="2">  1       -3 0.28578472E-01 0.84612050E+02</pdfrwt>
<totfact> 0.28932088E+05</totfact>
</mgrwt>
</event>
<event>
 6    2  0.8544106E+000  0.7643001E+02  0.7546771E-02  0.1339499E+00
         21   -1    0    0  501  502  0.00000000000E+00  0.00000000000E+00  0.16407480551E+03  0.16407480551E+03  0.00000000000E+00 0. -1.
          2   -1    0    0  502    0 -0.00000000000E+00 -0.00000000000E+00 -0.45556124611E+02  0.45556124611E+02  0.00000000000E+00 0. -1.
         24    2    1    2    0    0  0.18218680459E+01 -0.20448305091E+02 -0.12123516232E+02  0.77385567042E+02  0.73621287386E+02 0.  0.
        -11    1    3    3    0    0  0.28479533110E+02  0.14804209026E+02 -0.28293010245E+01  0.32221939037E+02  0.00000000000E+00 0.  1.
         12    1    3    3    0    0 -0.26657665064E+02 -0.35252514117E+02 -0.92942152079E+01  0.45163628005E+02  0.00000000000E+00 0. -1.
          1    1    1    2  501    0 -0.18218680459E+01  0.20448305091E+02  0.13064219713E+03  0.13224536308E+03  0.00000000000E+00 0. -1.
<mgrwt>
<rscale>  1 0.76430009E+02</rscale>
<asrwt>0</asrwt>
<pdfrwt beam="1">  1       21 0.25242278E-01 0.76430009E+02</pdfrwt>
<pdfrwt beam="2">  1        2 0.70086346E-02 0.76430009E+02</pdfrwt>
<totfact> 0.17141943E+05</totfact>
</mgrwt>
</event>
<event>
 6    2  0.8544106E+000  0.9383991E+02  0.7546771E-02  0.1293810E+00
          2   -1    0    0  502    0 -0.00000000000E+00  0.00000000000E+00  0.38140586023E+03  0.38140586023E+03  0.00000000000E+00 0. -1.
         21   -1    0    0  501  502  0.00000000000E+00 -0.00000000000E+00 -0.11960272374E+02  0.11960272374E+02  0.00000000000E+00 0.  1.
         24    2    1    2    0    0 -0.23010499326E+02  0.32076341262E+02  0.22908406653E+03  0.24755896057E+03  0.85132571156E+02 0.  0.
        -13    1    3    3    0    0 -0.43181771644E+01  0.16380300417E+02 -0.23798253761E+00  0.16941591763E+02  0.00000000000E+00 0.  1.
         14    1    3    3    0    0 -0.18692322161E+02  0.15696040845E+02  0.22932204907E+03  0.23061736881E+03  0.00000000000E+00 0. -1.
          1    1    1    2  501    0  0.23010499326E+02 -0.32076341262E+02  0.14036152133E+03  0.14580717204E+03  0.00000000000E+00 0. -1.
<mgrwt>
<rscale>  1 0.93839914E+02</rscale>
<asrwt>0</asrwt>
<pdfrwt beam="1">  1       21 0.18400422E-02 0.93839914E+02</pdfrwt>
<pdfrwt beam="2">  1        2 0.58677815E-01 0.93839914E+02</pdfrwt>
<totfact> 0.13838247E+06</totfact>
</mgrwt>
</event>
<event>
 6    2  0.8544106E+000  0.8378861E+02  0.7546771E-02  0.1318631E+00
         21   -1    0    0  501  502  0.00000000000E+00  0.00000000000E+00  0.58397056251E+01  0.58397056251E+01  0.00000000000E+00 0. -1.
          2   -1    0    0  502    0 -0.00000000000E+00 -0.00000000000E+00 -0.55650262362E+03  0.55650262362E+03  0.00000000000E+00 0. -1.
         24    2    1    2    0    0 -0.21494594213E+02  0.31584730674E+01 -0.50339704382E+03  0.51032255998E+03  0.80923037322E+02 0.  0.
        -11    1    3    3    0    0 -0.23070274750E+02 -0.19712944853E+02 -0.69690891625E+02  0.76010908081E+02  0.00000000000E+00 0.  1.
         12    1    3    3    0    0  0.15756805370E+01  0.22871417920E+02 -0.43370615219E+03  0.43431165190E+03  0.00000000000E+00 0. -1.
          1    1    1    2  501    0  0.21494594213E+02 -0.31584730674E+01 -0.47265874179E+02  0.52019769265E+02  0.00000000000E+00 0. -1.
<mgrwt>
<rscale>  1 0.83788612E+02</rscale>
<asrwt>0</asrwt>
<pdfrwt beam="1">  1       21 0.89841633E-03 0.83788612E+02</pdfrwt>
<pdfrwt beam="2">  1        2 0.85615780E-01 0.83788612E+02</pdfrwt>
<totfact> 0.28205322E+06</totfact>
</mgrwt>
</event>
<event>
 6    2  0.8544106E+000  0.8706102E+02  0.7546771E-02  0.1310129E+00
          2   -1    0    0  502    0 -0.00000000000E+00  0.00000000000E+00  0.15652603743E+04  0.15652603743E+04  0.00000000000E+00 0. -1.
         21   -1    0    0  501  502  0.00000000000E+00 -0.00000000000E+00 -0.25822212093E+01  0.25822212093E+01  0.00000000000E+00 0. -1.
         24    2    1    2    0    0  0.35244460789E+02  0.60437351549E+01  0.12714667532E+04  0.12744439279E+04  0.79378347300E+02 0.  0.
        -11    1    3    3    0    0  0.39418714838E+01  0.28747484044E+02  0.18262880341E+03  0.18491953933E+03  0.00000000000E+00 0.  1.
         12    1    3    3    0    0  0.31302589305E+02 -0.22703748889E+02  0.10888379498E+04  0.10895243886E+04  0.00000000000E+00 0. -1.
          1    1    1    2  501    0 -0.35244460789E+02 -0.60437351549E+01  0.29121139986E+03  0.29339866762E+03  0.00000000000E+00 0. -1.
<mgrwt>
<rscale>  1 0.87061018E+02</rscale>
<asrwt>0</asrwt>
<pdfrwt beam="1">  1       21 0.39726605E-03 0.87061018E+02</pdfrwt>
<pdfrwt beam="2">  1        2 0.24080853E+00 0.87061018E+02</pdfrwt>
<totfact> 0.24533725E+06</totfact>
</mgrwt>
</event>
<event>
 6    2  0.8544106E+000  0.9474377E+02  0.7546771E-02  0.1291754E+00
          2   -1    0    0  502    0 -0.00000000000E+00  0.00000000000E+00  0.22256761923E+04  0.22256761923E+04  0.00000000000E+00 0. -1.
         21   -1    0    0  501  502  0.00000000000E+00 -0.00000000000E+00 -0.34707099826E+01  0.34707099826E+01  0.00000000000E+00 0.  1.
         24    2    1    2    0    0 -0.20429181498E+02  0.41104435166E+02  0.71588442985E+03  0.72212665054E+03  0.82882184308E+02 0.  0.
        -11    1    3    3    0    0  0.23555521814E+01  0.34224295186E+02  0.98852996068E+02  0.10463635047E+03  0.00000000000E+00 0.  1.
         12    1    3    3    0    0 -0.22784733679E+02  0.68801399797E+01  0.61703143378E+03  0.61749030007E+03  0.00000000000E+00 0. -1.
          1    1    1    2  501    0  0.20429181498E+02 -0.41104435166E+02  0.15063210524E+04  0.15070202517E+04  0.00000000000E+00 0. -1.
<mgrwt>
<rscale>  1 0.94743773E+02</rscale>
<asrwt>0</asrwt>
<pdfrwt beam="1">  1       21 0.53395716E-03 0.94743773E+02</pdfrwt>
<pdfrwt beam="2">  1        2 0.34241058E+00 0.94743773E+02</pdfrwt>
<totfact> 0.72917012E+05</totfact>
</mgrwt>
</event>
<event>
 6    2  0.8544106E+000  0.9758370E+02  0.7546771E-02  0.1285461E+00
          2   -1    0    0  502    0 -0.00000000000E+00  0.00000000000E+00  0.25181053636E+04  0.25181053636E+04  0.00000000000E+00 0. -1.
         21   -1    0    0  501  502  0.00000000000E+00 -0.00000000000E+00 -0.45200219435E+01  0.45200219435E+01  0.00000000000E+00 0. -1.
         24    2    1    2    0    0  0.26619712511E+02 -0.45373956256E+02  0.23190635976E+04  0.23211157979E+04  0.82189856757E+02 0.  0.
        -11    1    3    3    0    0 -0.56470407160E+01  0.17786889522E+02  0.20084992003E+03  0.20171502890E+03  0.00000000000E+00 0.  1.
         12    1    3    3    0    0  0.32266753227E+02 -0.63160845777E+02  0.21182136776E+04  0.21194007690E+04  0.00000000000E+00 0. -1.
          1    1    1    2  501    0 -0.26619712511E+02  0.45373956256E+02  0.19452174403E+03  0.20150958761E+03  0.00000000000E+00 0. -1.
<mgrwt>
<rscale>  1 0.97583695E+02</rscale>
<asrwt>0</asrwt>
<pdfrwt beam="1">  1       21 0.69539000E-03 0.97583695E+02</pdfrwt>
<pdfrwt beam="2">  1        2 0.38739971E+00 0.97583695E+02</pdfrwt>
<totfact> 0.34231821E+05</totfact>
</mgrwt>
</event>
<event>
 6    2  0.8544106E+000  0.9412994E+02  0.7546771E-02  0.1293148E+00
          2   -1    0    0  502    0 -0.00000000000E+00  0.00000000000E+00  0.16536259668E+04  0.16536259668E+04  0.00000000000E+00 0. -1.
         21   -1    0    0  501  502  0.00000000000E+00 -0.00000000000E+00 -0.33328808055E+01  0.33328808055E+01  0.00000000000E+00 0.  1.
         24    2    1    2    0    0 -0.22179594330E+02  0.41111305066E+02  0.82661056844E+03  0.83195280912E+03  0.81721300411E+02 0.  0.
        -11    1    3    3    0    0 -0.18451893345E+02  0.11582460919E+02  0.47321590847E+02  0.52095669006E+02  0.00000000000E+00 0.  1.
         12    1    3    3    0    0 -0.37277009854E+01  0.29528844146E+02  0.77928897759E+03  0.77985714011E+03  0.00000000000E+00 0. -1.
          1    1    1    2  501    0  0.22179594330E+02 -0.41111305066E+02  0.82368251761E+03  0.82500603853E+03  0.00000000000E+00 0. -1.
<mgrwt>
<rscale>  1 0.94129935E+02</rscale>
<asrwt>0</asrwt>
<pdfrwt beam="1">  1       21 0.51275221E-03 0.94129935E+02</pdfrwt>
<pdfrwt beam="2">  1        2 0.25440334E+00 0.94129935E+02</pdfrwt>
<totfact> 0.15074166E+06</totfact>
</mgrwt>
</event>
<event>
 6    2  0.8544106E+000  0.1256006E+03  0.7546771E-02  0.1234134E+00
          2   -1    0    0  502    0 -0.00000000000E+00  0.00000000000E+00  0.72297350248E+03  0.72297350248E+03  0.00000000000E+00 0. -1.
         21   -1    0    0  501  502  0.00000000000E+00 -0.00000000000E+00 -0.17606377730E+02  0.17606377730E+02  0.00000000000E+00 0.  1.
         24    2    1    2    0    0  0.73697368151E+02 -0.61225323933E+02  0.46913421778E+03  0.48565669825E+03  0.81213742087E+02 0.  0.
        -11    1    3    3    0    0  0.58657980667E+02 -0.53231870958E+02  0.18798452550E+03  0.20399159936E+03  0.00000000000E+00 0.  1.
         12    1    3    3    0    0  0.15039387484E+02 -0.79934529756E+01  0.28114969228E+03  0.28166509889E+03  0.00000000000E+00 0. -1.
          1    1    1    2  501    0 -0.73697368151E+02  0.61225323933E+02  0.23623290697E+03  0.25492318196E+03  0.00000000000E+00 0. -1.
<mgrwt>
<rscale>  1 0.12560061E+03</rscale>
<asrwt>0</asrwt>
<pdfrwt beam="1">  1       21 0.27086741E-02 0.12560061E+03</pdfrwt>
<pdfrwt beam="2">  1        2 0.11122667E+00 0.12560061E+03</pdfrwt>
<totfact> 0.37406146E+05</totfact>
</mgrwt>
</event>
<event>
 6    2  0.8544106E+000  0.8501815E+02  0.7546771E-02  0.1315385E+00
         -3   -1    0    0    0  501 -0.00000000000E+00  0.00000000000E+00  0.84154997118E+02  0.84154997118E+02  0.00000000000E+00 0.  1.
         21   -1    0    0  501  502  0.00000000000E+00 -0.00000000000E+00 -0.38975411689E+02  0.38975411689E+02  0.00000000000E+00 0. -1.
         24    2    1    2    0    0  0.23319787309E+02 -0.10890141862E+02  0.20461399940E+02  0.87445729128E+02  0.81028877478E+02 0.  0.
        -13    1    3    3    0    0 -0.15720717432E+02 -0.34407426619E+02  0.17756901807E+02  0.41788988082E+02  0.00000000000E+00 0.  1.
         14    1    3    3    0    0  0.39040504741E+02  0.23517284757E+02  0.27044981327E+01  0.45656741046E+02  0.00000000000E+00 0. -1.
         -4    1    1    2    0  502 -0.23319787309E+02  0.10890141862E+02  0.24718185489E+02  0.35684679679E+02  0.00000000000E+00 0.  1.
<mgrwt>
<rscale>  1 0.85018155E+02</rscale>
<asrwt>0</asrwt>
<pdfrwt beam="1">  1       21 0.59962172E-02 0.85018155E+02</pdfrwt>
<pdfrwt beam="2">  1       -3 0.12946923E-01 0.85018155E+02</pdfrwt>
<totfact> 0.41089713E+05</totfact>
</mgrwt>
</event>
<event>
 6    2  0.8544106E+000  0.8678383E+02  0.7546771E-02  0.1310832E+00
          4   -1    0    0  502    0 -0.00000000000E+00  0.00000000000E+00  0.38825512523E+02  0.38825512523E+02  0.00000000000E+00 0. -1.
         21   -1    0    0  501  502  0.00000000000E+00 -0.00000000000E+00 -0.96533982102E+02  0.96533982102E+02  0.00000000000E+00 0. -1.
         24    2    1    2    0    0 -0.24599746498E+02  0.25582678834E+02 -0.37721016596E+02  0.94627206931E+02  0.79194773908E+02 0.  0.
        -11    1    3    3    0    0 -0.27539283719E+02 -0.22094512077E+02 -0.27254652103E+01  0.35411972160E+02  0.00000000000E+00 0.  1.
         12    1    3    3    0    0  0.29395372203E+01  0.47677190910E+02 -0.34995551386E+02  0.59215234771E+02  0.00000000000E+00 0. -1.
          3    1    1    2  501    0  0.24599746498E+02 -0.25582678834E+02 -0.19987452982E+02  0.40732287694E+02  0.00000000000E+00 0. -1.
<mgrwt>
<rscale>  1 0.86783830E+02</rscale>
<asrwt>0</asrwt>
<pdfrwt beam="1">  1       21 0.14851382E-01 0.86783830E+02</pdfrwt>
<pdfrwt beam="2">  1        4 0.59731557E-02 0.86783830E+02</pdfrwt>
<totfact> 0.26507107E+05</totfact>
</mgrwt>
</event>
<event>
 6    2  0.8544106E+000  0.9157630E+02  0.7546771E-02  0.1299079E+00
         21   -1    0    0  501  502  0.00000000000E+00  0.00000000000E+00  0.13654737426E+03  0.13654737426E+03  0.00000000000E+00 0. -1.
          2   -1    0    0  502    0 -0.00000000000E+00 -0.00000000000E+00 -0.43576541514E+02  0.43576541514E+02  0.00000000000E+00 0. -1.
         24    2    1    2    0    0  0.45619523165E+02  0.49574010153E+00  0.19482453330E+02  0.93625773821E+02  0.79402977802E+02 0.  0.
        -11    1    3    3    0    0  0.21295221713E+01  0.60528345582E+01  0.43271132920E+02  0.43744286656E+02  0.00000000000E+00 0.  1.
         12    1    3    3    0    0  0.43490000993E+02 -0.55570944566E+01 -0.23788679590E+02  0.49881487165E+02  0.00000000000E+00 0. -1.
          1    1    1    2  501    0 -0.45619523165E+02 -0.49574010153E+00  0.73488379411E+02  0.86498141948E+02  0.00000000000E+00 0. -1.
<mgrwt>
<rscale>  1 0.91576304E+02</rscale>
<asrwt>0</asrwt>
<pdfrwt beam="1">  1       21 0.21007288E-01 0.91576304E+02</pdfrwt>
<pdfrwt beam="2">  1        2 0.67040834E-02 0.91576304E+02</pdfrwt>
<totfact> 0.25809499E+05</totfact>
</mgrwt>
</event>
<event>
 6    2  0.8544106E+000  0.1046104E+03  0.7546771E-02  0.1270889E+00
         21   -1    0    0  501  502  0.00000000000E+00  0.00000000000E+00  0.56390175985E+01  0.56390175985E+01  0.00000000000E+00 0.  1.
          2   -1    0    0  502    0 -0.00000000000E+00 -0.00000000000E+00 -0.13567421685E+04  0.13567421685E+04  0.00000000000E+00 0. -1.
         24    2    1    2    0    0 -0.65156512251E+02  0.38118533902E+01 -0.66463150129E+03  0.67281376588E+03  0.81752246010E+02 0.  0.
        -11    1    3    3    0    0 -0.99285959390E+01  0.20116065810E+02 -0.42808316928E+02  0.48329960886E+02  0.00000000000E+00 0.  1.
         12    1    3    3    0    0 -0.55227916312E+02 -0.16304212420E+02 -0.62182318436E+03  0.62448380499E+03  0.00000000000E+00 0. -1.
          1    1    1    2  501    0  0.65156512251E+02 -0.38118533902E+01 -0.68647164964E+03  0.68956742025E+03  0.00000000000E+00 0. -1.
<mgrwt>
<rscale>  1 0.10461038E+03</rscale>
<asrwt>0</asrwt>
<pdfrwt beam="1">  1       21 0.86754030E-03 0.10461038E+03</pdfrwt>
<pdfrwt beam="2">  1        2 0.20872977E+00 0.10461038E+03</pdfrwt>
<totfact> 0.95523633E+05</totfact>
</mgrwt>
</event>
<event>
 6    2  0.8544106E+000  0.7806360E+02  0.7546771E-02  0.1334638E+00
         -1   -1    0    0    0  501 -0.00000000000E+00  0.00000000000E+00  0.67238525437E+03  0.67238525437E+03  0.00000000000E+00 0.  1.
         21   -1    0    0  501  502  0.00000000000E+00 -0.00000000000E+00 -0.86723194320E+01  0.86723194320E+01  0.00000000000E+00 0.  1.
         24    2    1    2    0    0 -0.37497054126E+01 -0.22221390765E+02  0.65001457477E+03  0.65468532381E+03  0.74740051528E+02 0.  0.
        -13    1    3    3    0    0  0.22805330318E+02 -0.17967612472E+02  0.55967857657E+03  0.56043110840E+03  0.00000000000E+00 0.  1.
         14    1    3    3    0    0 -0.26555035730E+02 -0.42537782929E+01  0.90335998200E+02  0.94254215413E+02  0.00000000000E+00 0. -1.
         -2    1    1    2    0  502  0.37497054126E+01  0.22221390765E+02  0.13698360165E+02  0.26372249988E+02  0.00000000000E+00 0.  1.
<mgrwt>
<rscale>  1 0.78063601E+02</rscale>
<asrwt>0</asrwt>
<pdfrwt beam="1">  1       21 0.13342035E-02 0.78063601E+02</pdfrwt>
<pdfrwt beam="2">  1       -1 0.10344384E+00 0.78063601E+02</pdfrwt>
<totfact> 0.19557760E+05</totfact>
</mgrwt>
</event>
<event>
 6    2  0.8544106E+000  0.1016623E+03  0.7546771E-02  0.1276839E+00
         21   -1    0    0  501  502  0.00000000000E+00  0.00000000000E+00  0.14744741840E+03  0.14744741840E+03  0.00000000000E+00 0. -1.
         -1   -1    0    0    0  501 -0.00000000000E+00 -0.00000000000E+00 -0.51692847422E+02  0.51692847422E+02  0.00000000000E+00 0.  1.
         24    2    1    2    0    0 -0.59433098531E+02  0.18391596752E+02  0.24548398027E+02  0.10458412854E+03  0.80403184415E+02 0.  0.
        -11    1    3    3    0    0 -0.13469107661E+02  0.65357554159E+00 -0.28900806551E+02  0.31892015325E+02  0.00000000000E+00 0.  1.
         12    1    3    3    0    0 -0.45963990869E+02  0.17738021210E+02  0.53449204578E+02  0.72692113211E+02  0.00000000000E+00 0. -1.
         -2    1    1    2    0  502  0.59433098531E+02 -0.18391596752E+02  0.71206172951E+02  0.94556137286E+02  0.00000000000E+00 0.  1.
<mgrwt>
<rscale>  1 0.10166226E+03</rscale>
<asrwt>0</asrwt>
<pdfrwt beam="1">  1       21 0.22684218E-01 0.10166226E+03</pdfrwt>
<pdfrwt beam="2">  1       -1 0.79527458E-02 0.10166226E+03</pdfrwt>
<totfact> 0.13597573E+05</totfact>
</mgrwt>
</event>
<event>
 6    2  0.8544106E+000  0.9851728E+02  0.7546771E-02  0.1283445E+00
          2   -1    0    0  502    0 -0.00000000000E+00  0.00000000000E+00  0.85015298286E+03  0.85015298286E+03  0.00000000000E+00 0. -1.
         21   -1    0    0  501  502  0.00000000000E+00 -0.00000000000E+00 -0.10105974367E+02  0.10105974367E+02  0.00000000000E+00 0. -1.
         24    2    1    2    0    0 -0.27240677749E+02 -0.49947886234E+02  0.27057846263E+03  0.28795547952E+03  0.80428899563E+02 0.  0.
        -11    1    3    3    0    0  0.35728294506E+01  0.20298311535E+02  0.40777490730E+02  0.45690155523E+02  0.00000000000E+00 0.  1.
         12    1    3    3    0    0 -0.30813507200E+02 -0.70246197770E+02  0.22980097190E+03  0.24226532400E+03  0.00000000000E+00 0. -1.
          1    1    1    2  501    0  0.27240677749E+02  0.49947886234E+02  0.56946854587E+03  0.57230347771E+03  0.00000000000E+00 0. -1.
<mgrwt>
<rscale>  1 0.98517276E+02</rscale>
<asrwt>0</asrwt>
<pdfrwt beam="1">  1       21 0.15547659E-02 0.98517276E+02</pdfrwt>
<pdfrwt beam="2">  1        2 0.13079271E+00 0.98517276E+02</pdfrwt>
<totfact> 0.73849803E+05</totfact>
</mgrwt>
</event>
<event>
 6    2  0.8544106E+000  0.8533629E+02  0.7546771E-02  0.1314555E+00
         21   -1    0    0  501  502  0.00000000000E+00  0.00000000000E+00  0.42030060891E+01  0.42030060891E+01  0.00000000000E+00 0. -1.
          2   -1    0    0  502    0 -0.00000000000E+00 -0.00000000000E+00 -0.12886817720E+04  0.12886817720E+04  0.00000000000E+00 0. -1.
         24    2    1    2    0    0  0.25083683904E+02 -0.25494615899E+01 -0.12288444339E+04  0.12318039312E+04  0.81526629769E+02 0.  0.
        -11    1    3    3    0    0 -0.87546042437E+01  0.33546552197E+02 -0.61021866994E+03  0.61120278092E+03  0.00000000000E+00 0.  1.
         12    1    3    3    0    0  0.33838288148E+02 -0.36096013787E+02 -0.61862576392E+03  0.62060115029E+03  0.00000000000E+00 0. -1.
          1    1    1    2  501    0 -0.25083683904E+02  0.25494615899E+01 -0.55634332032E+02  0.61080846860E+02  0.00000000000E+00 0. -1.
<mgrwt>
<rscale>  1 0.85336290E+02</rscale>
<asrwt>0</asrwt>
<pdfrwt beam="1">  1       21 0.64661635E-03 0.85336290E+02</pdfrwt>
<pdfrwt beam="2">  1        2 0.19825873E+00 0.85336290E+02</pdfrwt>
<totfact> 0.16132505E+06</totfact>
</mgrwt>
</event>
<event>
 6    2  0.8544106E+000  0.8927355E+02  0.7546771E-02  0.1304620E+00
         -3   -1    0    0    0  501 -0.00000000000E+00  0.00000000000E+00  0.94839143518E+03  0.94839143518E+03  0.00000000000E+00 0.  1.
         21   -1    0    0  501  502  0.00000000000E+00 -0.00000000000E+00 -0.63366159463E+01  0.63366159463E+01  0.00000000000E+00 0. -1.
         24    2    1    2    0    0 -0.33088162487E+02  0.29802332345E+02  0.81923120845E+03  0.82408102714E+03  0.77374161624E+02 0.  0.
        -11    1    3    3    0    0 -0.63607380741E+01  0.20238120581E+02  0.73280994304E+03  0.73311694369E+03  0.00000000000E+00 0.  1.
         12    1    3    3    0    0 -0.26727424413E+02  0.95642117638E+01  0.86421265411E+02  0.90964083448E+02  0.00000000000E+00 0. -1.
         -4    1    1    2    0  502  0.33088162487E+02 -0.29802332345E+02  0.12282361078E+03  0.13064702398E+03  0.00000000000E+00 0.  1.
<mgrwt>
<rscale>  1 0.89273548E+02</rscale>
<asrwt>0</asrwt>
<pdfrwt beam="1">  1       21 0.97486474E-03 0.89273548E+02</pdfrwt>
<pdfrwt beam="2">  1       -3 0.14590626E+00 0.89273548E+02</pdfrwt>
<totfact> 0.65363371E+04</totfact>
</mgrwt>
</event>
<event>
 6    2  0.8544106E+000  0.8469518E+02  0.7546771E-02  0.1316232E+00
         21   -1    0    0  501  502  0.00000000000E+00  0.00000000000E+00  0.23633916454E+02  0.23633916454E+02  0.00000000000E+00 0. -1.
          4   -1    0    0  502    0 -0.00000000000E+00 -0.00000000000E+00 -0.14234389493E+03  0.14234389493E+03  0.00000000000E+00 0. -1.
         24    2    1    2    0    0 -0.25795219193E+02 -0.17451849715E+02 -0.82814322987E+02  0.11845456997E+03  0.78761111361E+02 0.  0.
        -11    1    3    3    0    0 -0.11915111586E+02  0.30963990598E+02 -0.42649118572E+02  0.54034118044E+02  0.00000000000E+00 0.  1.
         12    1    3    3    0    0 -0.13880107607E+02 -0.48415840312E+02 -0.40165204415E+02  0.64420451923E+02  0.00000000000E+00 0. -1.
          3    1    1    2  501    0  0.25795219193E+02  0.17451849715E+02 -0.35895655487E+02  0.47523241414E+02  0.00000000000E+00 0. -1.
<mgrwt>
<rscale>  1 0.84695177E+02</rscale>
<asrwt>0</asrwt>
<pdfrwt beam="1">  1       21 0.36359871E-02 0.84695177E+02</pdfrwt>
<pdfrwt beam="2">  1        4 0.21899061E-01 0.84695177E+02</pdfrwt>
<totfact> 0.32075714E+05</totfact>
</mgrwt>
</event>
<event>
 6    2  0.8544106E+000  0.8765429E+02  0.7546771E-02  0.1308634E+00
         -1   -1    0    0    0  501 -0.00000000000E+00  0.00000000000E+00  0.83608177997E+03  0.83608177997E+03  0.00000000000E+00 0.  1.
         21   -1    0    0  501  502  0.00000000000E+00 -0.00000000000E+00 -0.15914259323E+02  0.15914259323E+02  0.00000000000E+00 0.  1.
         24    2    1    2    0    0  0.13154898443E+02  0.32308810630E+02  0.81127452362E+03  0.81599609494E+03  0.80413703350E+02 0.  0.
        -11    1    3    3    0    0 -0.16380370845E+02  0.50075317005E+02  0.44686828586E+03  0.44996346389E+03  0.00000000000E+00 0.  1.
         12    1    3    3    0    0  0.29535269288E+02 -0.17766506375E+02  0.36440623775E+03  0.36603263105E+03  0.00000000000E+00 0. -1.
         -2    1    1    2    0  502 -0.13154898443E+02 -0.32308810630E+02  0.88929970288E+01  0.35999944354E+02  0.00000000000E+00 0.  1.
<mgrwt>
<rscale>  1 0.87654288E+02</rscale>
<asrwt>0</asrwt>
<pdfrwt beam="1">  1       21 0.24483482E-02 0.87654288E+02</pdfrwt>
<pdfrwt beam="2">  1       -1 0.12862793E+00 0.87654288E+02</pdfrwt>
<totfact> 0.45562399E+04</totfact>
</mgrwt>
</event>
<event>
 6    2  0.8544106E+000  0.8570607E+02  0.7546771E-02  0.1313596E+00
          2   -1    0    0  502    0 -0.00000000000E+00  0.00000000000E+00  0.22488535254E+04  0.22488535254E+04  0.00000000000E+00 0. -1.
         21   -1    0    0  501  502  0.00000000000E+00 -0.00000000000E+00 -0.17502948142E+01  0.17502948142E+01  0.00000000000E+00 0. -1.
         24    2    1    2    0    0  0.30958791978E+02  0.11011157570E+02  0.19047771227E+04  0.19067043341E+04  0.79157047824E+02 0.  0.
        -11    1    3    3    0    0 -0.24946259690E+02  0.12345649541E+01  0.34911486348E+03  0.35000718268E+03  0.00000000000E+00 0.  1.
         12    1    3    3    0    0  0.55905051668E+02  0.97765926157E+01  0.15556622592E+04  0.15566971514E+04  0.00000000000E+00 0. -1.
          1    1    1    2  501    0 -0.30958791978E+02 -0.11011157570E+02  0.34232610790E+03  0.34389948610E+03  0.00000000000E+00 0. -1.
<mgrwt>
<rscale>  1 0.85706071E+02</rscale>
<asrwt>0</asrwt>
<pdfrwt beam="1">  1       21 0.26927792E-03 0.85706071E+02</pdfrwt>
<pdfrwt beam="2">  1        2 0.34597515E+00 0.85706071E+02</pdfrwt>
<totfact> 0.20016339E+06</totfact>
</mgrwt>
</event>
<event>
 6    2  0.8544106E+000  0.8784437E+02  0.7546771E-02  0.1308157E+00
         21   -1    0    0  501  502  0.00000000000E+00  0.00000000000E+00  0.25977649592E+01  0.25977649592E+01  0.00000000000E+00 0. -1.
          2   -1    0    0  502    0 -0.00000000000E+00 -0.00000000000E+00 -0.20223676218E+04  0.20223676218E+04  0.00000000000E+00 0. -1.
         24    2    1    2    0    0  0.31763035850E+02  0.29657341226E+02 -0.16984647072E+04  0.17007348399E+04  0.76342554891E+02 0.  0.
        -13    1    3    3    0    0  0.17707398357E+01 -0.96692596192E+01 -0.30667074607E+02  0.32204030277E+02  0.00000000000E+00 0.  1.
         14    1    3    3    0    0  0.29992296015E+02  0.39326600845E+02 -0.16677976326E+04  0.16685308097E+04  0.00000000000E+00 0. -1.
          1    1    1    2  501    0 -0.31763035850E+02 -0.29657341226E+02 -0.32130514958E+03  0.32423054681E+03  0.00000000000E+00 0. -1.
<mgrwt>
<rscale>  1 0.87844374E+02</rscale>
<asrwt>0</asrwt>
<pdfrwt beam="1">  1       21 0.39965649E-03 0.87844374E+02</pdfrwt>
<pdfrwt beam="2">  1        2 0.31113321E+00 0.87844374E+02</pdfrwt>
<totfact> 0.14345742E+06</totfact>
</mgrwt>
</event>
<event>
 6    2  0.8544106E+000  0.9094238E+02  0.7546771E-02  0.1300585E+00
          2   -1    0    0  502    0 -0.00000000000E+00  0.00000000000E+00  0.34208166356E+03  0.34208166356E+03  0.00000000000E+00 0. -1.
         21   -1    0    0  501  502  0.00000000000E+00 -0.00000000000E+00 -0.16565012391E+02  0.16565012391E+02  0.00000000000E+00 0. -1.
         24    2    1    2    0    0  0.51973397076E+01 -0.26746413313E+02  0.31746665958E+03  0.33023566876E+03  0.86764820118E+02 0.  0.
        -11    1    3    3    0    0 -0.28089262966E+02  0.55926872375E+01  0.41682418241E+02  0.50573795932E+02  0.00000000000E+00 0.  1.
         12    1    3    3    0    0  0.33286602673E+02 -0.32339100550E+02  0.27578424134E+03  0.27966187282E+03  0.00000000000E+00 0. -1.
          1    1    1    2  501    0 -0.51973397076E+01  0.26746413313E+02  0.80499915893E+01  0.28411007193E+02  0.00000000000E+00 0. -1.
<mgrwt>
<rscale>  1 0.90942383E+02</rscale>
<asrwt>0</asrwt>
<pdfrwt beam="1">  1       21 0.25484637E-02 0.90942383E+02</pdfrwt>
<pdfrwt beam="2">  1        2 0.52627943E-01 0.90942383E+02</pdfrwt>
<totfact> 0.91660664E+05</totfact>
</mgrwt>
</event>
<event>
 6    2  0.8544106E+000  0.8493158E+02  0.7546771E-02  0.1315612E+00
         21   -1    0    0  501  502  0.00000000000E+00  0.00000000000E+00  0.10445376209E+03  0.10445376209E+03  0.00000000000E+00 0.  1.
          4   -1    0    0  502    0 -0.00000000000E+00 -0.00000000000E+00 -0.32228447772E+02  0.32228447772E+02  0.00000000000E+00 0. -1.
         24    2    1    2    0    0 -0.21646988608E+02 -0.16161228935E+02  0.69094323828E+02  0.10948697980E+03  0.80520778219E+02 0.  0.
        -13    1    3    3    0    0 -0.19930968677E+02 -0.36900644507E+02  0.76628682733E+02  0.87354771448E+02  0.00000000000E+00 0.  1.
         14    1    3    3    0    0 -0.17160199307E+01  0.20739415571E+02 -0.75343589046E+01  0.22132208357E+02  0.00000000000E+00 0. -1.
          3    1    1    2  501    0  0.21646988608E+02  0.16161228935E+02  0.31309904909E+01  0.27195230059E+02  0.00000000000E+00 0. -1.
<mgrwt>
<rscale>  1 0.84931579E+02</rscale>
<asrwt>0</asrwt>
<pdfrwt beam="1">  1       21 0.16069809E-01 0.84931579E+02</pdfrwt>
<pdfrwt beam="2">  1        4 0.49582228E-02 0.84931579E+02</pdfrwt>
<totfact> 0.30883612E+05</totfact>
</mgrwt>
</event>
<event>
 6    2  0.8544106E+000  0.8242489E+02  0.7546771E-02  0.1322307E+00
         21   -1    0    0  501  502  0.00000000000E+00  0.00000000000E+00  0.28739120703E+01  0.28739120703E+01  0.00000000000E+00 0. -1.
          2   -1    0    0  502    0 -0.00000000000E+00 -0.00000000000E+00 -0.17361178478E+04  0.17361178478E+04  0.00000000000E+00 0. -1.
         24    2    1    2    0    0 -0.11390131819E+02  0.33563497641E+02 -0.15591136711E+04  0.15612909086E+04  0.74415176118E+02 0.  0.
        -13    1    3    3    0    0  0.99764175985E+01  0.95436978324E+01 -0.51030799613E+02  0.52865429021E+02  0.00000000000E+00 0.  1.
         14    1    3    3    0    0 -0.21366549418E+02  0.24019799809E+02 -0.15080828715E+04  0.15084254796E+04  0.00000000000E+00 0. -1.
          1    1    1    2  501    0  0.11390131819E+02 -0.33563497641E+02 -0.17413026463E+03  0.17770085125E+03  0.00000000000E+00 0. -1.
<mgrwt>
<rscale>  1 0.82424886E+02</rscale>
<asrwt>0</asrwt>
<pdfrwt beam="1">  1       21 0.44213925E-03 0.82424886E+02</pdfrwt>
<pdfrwt beam="2">  1        2 0.26709570E+00 0.82424886E+02</pdfrwt>
<totfact> 0.17032105E+06</totfact>
</mgrwt>
</event>
<event>
 6    2  0.8544106E+000  0.8989489E+02  0.7546771E-02  0.1303106E+00
          2   -1    0    0  502    0 -0.00000000000E+00  0.00000000000E+00  0.19573183086E+04  0.19573183086E+04  0.00000000000E+00 0. -1.
         21   -1    0    0  501  502  0.00000000000E+00 -0.00000000000E+00 -0.32670291316E+01  0.32670291316E+01  0.00000000000E+00 0. -1.
         24    2    1    2    0    0  0.62062461773E+01 -0.19509777409E+02  0.19088289948E+04  0.19109445890E+04  0.87532518869E+02 0.  0.
        -13    1    3    3    0    0 -0.25387583385E+02  0.16622986027E+02  0.33164225954E+03  0.33302768859E+03  0.00000000000E+00 0.  1.
         14    1    3    3    0    0  0.31593829562E+02 -0.36132763436E+02  0.15771867352E+04  0.15779169004E+04  0.00000000000E+00 0. -1.
          1    1    1    2  501    0 -0.62062461773E+01  0.19509777409E+02  0.45222284697E+02  0.49640748780E+02  0.00000000000E+00 0. -1.
<mgrwt>
<rscale>  1 0.89894887E+02</rscale>
<asrwt>0</asrwt>
<pdfrwt beam="1">  1       21 0.50262143E-03 0.89894887E+02</pdfrwt>
<pdfrwt beam="2">  1        2 0.30112496E+00 0.89894887E+02</pdfrwt>
<totfact> 0.10910813E+06</totfact>
</mgrwt>
</event>
<event>
 6    2  0.8544106E+000  0.8651411E+02  0.7546771E-02  0.1311520E+00
         21   -1    0    0  501  502  0.00000000000E+00  0.00000000000E+00  0.19913710032E+01  0.19913710032E+01  0.00000000000E+00 0.  1.
          2   -1    0    0  502    0 -0.00000000000E+00 -0.00000000000E+00 -0.18185094040E+04  0.18185094040E+04  0.00000000000E+00 0. -1.
         24    2    1    2    0    0  0.11998029022E+02 -0.27818546698E+02 -0.15139223026E+04  0.15163922412E+04  0.81036206752E+02 0.  0.
        -13    1    3    3    0    0 -0.12865978999E+02 -0.37571054565E+02 -0.36402590080E+03  0.36618570973E+03  0.00000000000E+00 0.  1.
         14    1    3    3    0    0  0.24864008021E+02  0.97525078671E+01 -0.11498964018E+04  0.11502065315E+04  0.00000000000E+00 0. -1.
          1    1    1    2  501    0 -0.11998029022E+02  0.27818546698E+02 -0.30259573042E+03  0.30410853377E+03  0.00000000000E+00 0. -1.
<mgrwt>
<rscale>  1 0.86514109E+02</rscale>
<asrwt>0</asrwt>
<pdfrwt beam="1">  1       21 0.30636524E-03 0.86514109E+02</pdfrwt>
<pdfrwt beam="2">  1        2 0.27977025E+00 0.86514109E+02</pdfrwt>
<totfact> 0.27134499E+06</totfact>
</mgrwt>
</event>
<event>
 6    2  0.9216690E+000  0.9023248E+02  0.7546771E-02  0.1302290E+00
         21   -1    0    0  501  502  0.00000000000E+00  0.00000000000E+00  0.78322609614E+01  0.78322609614E+01  0.00000000000E+00 0. -1.
         -1   -1    0    0    0  501 -0.00000000000E+00 -0.00000000000E+00 -0.58181241033E+03  0.58181241033E+03  0.00000000000E+00 0.  1.
         24    2    1    2    0    0  0.40967730347E+02  0.25922665570E+01 -0.32457910141E+03  0.33688795526E+03  0.80354381038E+02 0.  0.
        -11    1    3    3    0    0  0.13159000376E+02 -0.21490897800E+02 -0.26936387040E+03  0.27054003891E+03  0.00000000000E+00 0.  1.
         12    1    3    3    0    0  0.27808729971E+02  0.24083164357E+02 -0.55215231015E+02  0.66347916351E+02  0.00000000000E+00 0. -1.
         -2    1    1    2    0  502 -0.40967730347E+02 -0.25922665570E+01 -0.24940104795E+03  0.25275671602E+03  0.00000000000E+00 0.  1.
<mgrwt>
<rscale>  1 0.90232485E+02</rscale>
<asrwt>0</asrwt>
<pdfrwt beam="1">  1       21 0.12049630E-02 0.90232485E+02</pdfrwt>
<pdfrwt beam="2">  1       -1 0.89509620E-01 0.90232485E+02</pdfrwt>
<totfact> 0.31706439E+05</totfact>
</mgrwt>
</event>
<event>
 6    2  0.8544106E+000  0.9023838E+02  0.7546771E-02  0.1302275E+00
         21   -1    0    0  501  502  0.00000000000E+00  0.00000000000E+00  0.38785149597E+01  0.38785149597E+01  0.00000000000E+00 0.  1.
          2   -1    0    0  502    0 -0.00000000000E+00 -0.00000000000E+00 -0.11713611704E+04  0.11713611704E+04  0.00000000000E+00 0. -1.
         24    2    1    2    0    0  0.31440391436E+02 -0.27047243967E+02 -0.67336672463E+03  0.67938627486E+03  0.80143078394E+02 0.  0.
        -11    1    3    3    0    0  0.54770001864E+02 -0.22137840844E+02 -0.33406995866E+03  0.33925296518E+03  0.00000000000E+00 0.  1.
         12    1    3    3    0    0 -0.23329610427E+02 -0.49094031227E+01 -0.33929676597E+03  0.34013330969E+03  0.00000000000E+00 0. -1.
          1    1    1    2  501    0 -0.31440391436E+02  0.27047243967E+02 -0.49411593079E+03  0.49585341048E+03  0.00000000000E+00 0. -1.
<mgrwt>
<rscale>  1 0.90238377E+02</rscale>
<asrwt>0</asrwt>
<pdfrwt beam="1">  1       21 0.59669409E-03 0.90238377E+02</pdfrwt>
<pdfrwt beam="2">  1        2 0.18020957E+00 0.90238377E+02</pdfrwt>
<totfact> 0.21215214E+06</totfact>
</mgrwt>
</event>
<event>
 6    2  0.8544106E+000  0.1185590E+03  0.7546771E-02  0.1245493E+00
         21   -1    0    0  501  502  0.00000000000E+00  0.00000000000E+00  0.29949062938E+02  0.29949062938E+02  0.00000000000E+00 0.  1.
          2   -1    0    0  502    0 -0.00000000000E+00 -0.00000000000E+00 -0.36451161086E+03  0.36451161086E+03  0.00000000000E+00 0. -1.
         24    2    1    2    0    0 -0.13327961945E+02  0.86715433346E+02 -0.22274927614E+03  0.25233604998E+03  0.79743596272E+02 0.  0.
        -13    1    3    3    0    0  0.68160787755E+01  0.93841509703E+02 -0.15525299731E+03  0.18153837348E+03  0.00000000000E+00 0.  1.
         14    1    3    3    0    0 -0.20144040720E+02 -0.71260763567E+01 -0.67496278832E+02  0.70797676494E+02  0.00000000000E+00 0. -1.
          1    1    1    2  501    0  0.13327961945E+02 -0.86715433346E+02 -0.11181327178E+03  0.14212462382E+03  0.00000000000E+00 0. -1.
<mgrwt>
<rscale>  1 0.11855902E+03</rscale>
<asrwt>0</asrwt>
<pdfrwt beam="1">  1       21 0.46075483E-02 0.11855902E+03</pdfrwt>
<pdfrwt beam="2">  1        2 0.56078708E-01 0.11855902E+03</pdfrwt>
<totfact> 0.33128630E+05</totfact>
</mgrwt>
</event>
<event>
 6    2  0.1013087E+001  0.8579043E+02  0.7546771E-02  0.1313378E+00
         21   -1    0    0  501  502  0.00000000000E+00  0.00000000000E+00  0.13092969045E+02  0.13092969045E+02  0.00000000000E+00 0.  1.
         -1   -1    0    0    0  501 -0.00000000000E+00 -0.00000000000E+00 -0.84144172142E+03  0.84144172142E+03  0.00000000000E+00 0.  1.
         24    2    1    2    0    0 -0.20744367247E+02  0.64591855923E+01 -0.82837739345E+03  0.83280796335E+03  0.82993662335E+02 0.  0.
        -11    1    3    3    0    0 -0.22691135797E+02  0.16855383505E+02 -0.81615563937E+03  0.81664497750E+03  0.00000000000E+00 0.  1.
         12    1    3    3    0    0  0.19467685499E+01 -0.10396197913E+02 -0.12221754078E+02  0.16162985850E+02  0.00000000000E+00 0. -1.
         -2    1    1    2    0  502  0.20744367247E+02 -0.64591855923E+01  0.28641071829E-01  0.21726727119E+02  0.00000000000E+00 0.  1.
<mgrwt>
<rscale>  1 0.85790430E+02</rscale>
<asrwt>0</asrwt>
<pdfrwt beam="1">  1       21 0.20143021E-02 0.85790430E+02</pdfrwt>
<pdfrwt beam="2">  1       -1 0.12945263E+00 0.85790430E+02</pdfrwt>
<totfact> 0.61305098E+04</totfact>
</mgrwt>
</event>
<event>
 6    2  0.8544106E+000  0.8237279E+02  0.7546771E-02  0.1322450E+00
          2   -1    0    0  502    0 -0.00000000000E+00  0.00000000000E+00  0.92510139825E+02  0.92510139825E+02  0.00000000000E+00 0. -1.
         21   -1    0    0  501  502  0.00000000000E+00 -0.00000000000E+00 -0.44534670902E+02  0.44534670902E+02  0.00000000000E+00 0.  1.
         24    2    1    2    0    0  0.20872914746E+02  0.16782185712E+02  0.31370383943E+00  0.82373390605E+02  0.77897090719E+02 0.  0.
        -13    1    3    3    0    0  0.38934830352E+02  0.36415054050E+02 -0.91050137326E+01  0.54082145400E+02  0.00000000000E+00 0.  1.
         14    1    3    3    0    0 -0.18061915606E+02 -0.19632868338E+02  0.94187175720E+01  0.28291245205E+02  0.00000000000E+00 0. -1.
          1    1    1    2  501    0 -0.20872914746E+02 -0.16782185712E+02  0.47661765083E+02  0.54671420121E+02  0.00000000000E+00 0. -1.
<mgrwt>
<rscale>  1 0.82372793E+02</rscale>
<asrwt>0</asrwt>
<pdfrwt beam="1">  1       21 0.68514878E-02 0.82372793E+02</pdfrwt>
<pdfrwt beam="2">  1        2 0.14232329E-01 0.82372793E+02</pdfrwt>
<totfact> 0.73432638E+05</totfact>
</mgrwt>
</event>
<event>
 6    2  0.8544106E+000  0.8986846E+02  0.7546771E-02  0.1303171E+00
         -1   -1    0    0    0  501 -0.00000000000E+00  0.00000000000E+00  0.63329776260E+02  0.63329776260E+02  0.00000000000E+00 0.  1.
         21   -1    0    0  501  502  0.00000000000E+00 -0.00000000000E+00 -0.78763765940E+02  0.78763765940E+02  0.00000000000E+00 0.  1.
         24    2    1    2    0    0  0.20889852812E+02  0.30563975437E+02  0.18637194528E+02  0.91780639896E+02  0.81888938782E+02 0.  0.
        -11    1    3    3    0    0  0.51859369577E+02  0.19152434607E+02  0.32870790652E+01  0.55380636084E+02  0.00000000000E+00 0.  1.
         12    1    3    3    0    0 -0.30969516765E+02  0.11411540830E+02  0.15350115462E+02  0.36400003812E+02  0.00000000000E+00 0. -1.
         -2    1    1    2    0  502 -0.20889852812E+02 -0.30563975437E+02 -0.34071184207E+02  0.50312902305E+02  0.00000000000E+00 0.  1.
<mgrwt>
<rscale>  1 0.89868464E+02</rscale>
<asrwt>0</asrwt>
<pdfrwt beam="1">  1       21 0.12117502E-01 0.89868464E+02</pdfrwt>
<pdfrwt beam="2">  1       -1 0.97430426E-02 0.89868464E+02</pdfrwt>
<totfact> 0.30771832E+05</totfact>
</mgrwt>
</event>
<event>
 6    2  0.8544106E+000  0.9424708E+02  0.7546771E-02  0.1292881E+00
          2   -1    0    0  502    0 -0.00000000000E+00  0.00000000000E+00  0.18007297584E+02  0.18007297584E+02  0.00000000000E+00 0. -1.
         21   -1    0    0  501  502  0.00000000000E+00 -0.00000000000E+00 -0.26702576718E+03  0.26702576718E+03  0.00000000000E+00 0.  1.
         24    2    1    2    0    0  0.34080976382E+02  0.10708636418E+02 -0.12866996272E+03  0.15949442150E+03  0.87214238163E+02 0.  0.
        -11    1    3    3    0    0  0.19275836653E+02  0.57635237665E+01 -0.13921231979E+03  0.14065861533E+03  0.00000000000E+00 0.  1.
         12    1    3    3    0    0  0.14805139729E+02  0.49451126518E+01  0.10542357070E+02  0.18835806171E+02  0.00000000000E+00 0. -1.
          1    1    1    2  501    0 -0.34080976382E+02 -0.10708636418E+02 -0.12034850687E+03  0.12553864326E+03  0.00000000000E+00 0. -1.
<mgrwt>
<rscale>  1 0.94247075E+02</rscale>
<asrwt>0</asrwt>
<pdfrwt beam="1">  1       21 0.41080887E-01 0.94247075E+02</pdfrwt>
<pdfrwt beam="2">  1        2 0.27703535E-02 0.94247075E+02</pdfrwt>
<totfact> 0.22705545E+05</totfact>
</mgrwt>
</event>
<event>
 6    2  0.8544106E+000  0.1255253E+03  0.7546771E-02  0.1234251E+00
         -1   -1    0    0    0  501 -0.00000000000E+00  0.00000000000E+00  0.41846405557E+02  0.41846405557E+02  0.00000000000E+00 0.  1.
         21   -1    0    0  501  502  0.00000000000E+00 -0.00000000000E+00 -0.30298633671E+03  0.30298633671E+03  0.00000000000E+00 0.  1.
         24    2    1    2    0    0  0.25706712831E+02  0.92720040843E+02 -0.11745810280E+03  0.17190990150E+03  0.80614932012E+02 0.  0.
        -11    1    3    3    0    0  0.29955936862E+01  0.80589718025E+02 -0.39479280317E+02  0.89790254523E+02  0.00000000000E+00 0.  1.
         12    1    3    3    0    0  0.22711119145E+02  0.12130322818E+02 -0.77978822483E+02  0.82119646982E+02  0.00000000000E+00 0. -1.
         -2    1    1    2    0  502 -0.25706712831E+02 -0.92720040843E+02 -0.14368182835E+03  0.17292284076E+03  0.00000000000E+00 0.  1.
<mgrwt>
<rscale>  1 0.12552533E+03</rscale>
<asrwt>0</asrwt>
<pdfrwt beam="1">  1       21 0.46613281E-01 0.12552533E+03</pdfrwt>
<pdfrwt beam="2">  1       -1 0.64379088E-02 0.12552533E+03</pdfrwt>
<totfact> 0.46474267E+04</totfact>
</mgrwt>
</event>
<event>
 6    2  0.8544106E+000  0.8492944E+02  0.7546771E-02  0.1315617E+00
         21   -1    0    0  501  502  0.00000000000E+00  0.00000000000E+00  0.27229784171E+02  0.27229784171E+02  0.00000000000E+00 0. -1.
         -1   -1    0    0    0  501 -0.00000000000E+00 -0.00000000000E+00 -0.15232188874E+03  0.15232188874E+03  0.00000000000E+00 0.  1.
         24    2    1    2    0    0 -0.12122715067E+02  0.25379829936E+02 -0.12536425381E+03  0.15142392765E+03  0.80136843862E+02 0.  0.
        -11    1    3    3    0    0  0.31605132278E+02  0.23824289548E+02 -0.45070115420E+02  0.59981634379E+02  0.00000000000E+00 0.  1.
         12    1    3    3    0    0 -0.43727847345E+02  0.15555403877E+01 -0.80294138391E+02  0.91442293275E+02  0.00000000000E+00 0. -1.
         -2    1    1    2    0  502  0.12122715067E+02 -0.25379829936E+02  0.27214924056E+00  0.28127745259E+02  0.00000000000E+00 0.  1.
<mgrwt>
<rscale>  1 0.84929440E+02</rscale>
<asrwt>0</asrwt>
<pdfrwt beam="1">  1       21 0.41891976E-02 0.84929440E+02</pdfrwt>
<pdfrwt beam="2">  1       -1 0.23434137E-01 0.84929440E+02</pdfrwt>
<totfact> 0.47497626E+05</totfact>
</mgrwt>
</event>
<event>
 6    2  0.8544106E+000  0.1065492E+03  0.7546771E-02  0.1267097E+00
         21   -1    0    0  501  502  0.00000000000E+00  0.00000000000E+00  0.22284461905E+03  0.22284461905E+03  0.00000000000E+00 0. -1.
          4   -1    0    0  502    0 -0.00000000000E+00 -0.00000000000E+00 -0.37150523368E+02  0.37150523368E+02  0.00000000000E+00 0. -1.
         24    2    1    2    0    0 -0.33625736448E+02 -0.62121263540E+02  0.13973024699E+03  0.17571930412E+03  0.79768354492E+02 0.  0.
        -11    1    3    3    0    0 -0.21551035130E+02  0.81632571214E+01  0.78215318654E+02  0.81539695573E+02  0.00000000000E+00 0.  1.
         12    1    3    3    0    0 -0.12074701319E+02 -0.70284520662E+02  0.61514928341E+02  0.94179608543E+02  0.00000000000E+00 0. -1.
          3    1    1    2  501    0  0.33625736448E+02  0.62121263540E+02  0.45963848689E+02  0.84275838304E+02  0.00000000000E+00 0. -1.
<mgrwt>
<rscale>  1 0.10654920E+03</rscale>
<asrwt>0</asrwt>
<pdfrwt beam="1">  1       21 0.34283787E-01 0.10654920E+03</pdfrwt>
<pdfrwt beam="2">  1        4 0.57154653E-02 0.10654920E+03</pdfrwt>
<totfact> 0.62094727E+04</totfact>
</mgrwt>
</event>
<event>
 6    2  0.8544106E+000  0.9080573E+02  0.7546771E-02  0.1300912E+00
         21   -1    0    0  501  502  0.00000000000E+00  0.00000000000E+00  0.64283685889E+01  0.64283685889E+01  0.00000000000E+00 0.  1.
          2   -1    0    0  502    0 -0.00000000000E+00 -0.00000000000E+00 -0.70615314150E+03  0.70615314150E+03  0.00000000000E+00 0. -1.
         24    2    1    2    0    0 -0.10636420404E+02 -0.42074218827E+02 -0.44243811321E+03  0.45166045194E+03  0.79764067667E+02 0.  0.
        -13    1    3    3    0    0 -0.41648972674E+02 -0.14186872179E+02 -0.15189713982E+03  0.15814121965E+03  0.00000000000E+00 0.  1.
         14    1    3    3    0    0  0.31012552271E+02 -0.27887346648E+02 -0.29054097339E+03  0.29351923229E+03  0.00000000000E+00 0. -1.
          1    1    1    2  501    0  0.10636420404E+02  0.42074218827E+02 -0.25728665969E+03  0.26092105815E+03  0.00000000000E+00 0. -1.
<mgrwt>
<rscale>  1 0.90805726E+02</rscale>
<asrwt>0</asrwt>
<pdfrwt beam="1">  1       21 0.98897951E-03 0.90805726E+02</pdfrwt>
<pdfrwt beam="2">  1        2 0.10863897E+00 0.90805726E+02</pdfrwt>
<totfact> 0.18723485E+06</totfact>
</mgrwt>
</event>
<event>
 6    2  0.8544106E+000  0.8457768E+02  0.7546771E-02  0.1316541E+00
         -3   -1    0    0    0  501 -0.00000000000E+00  0.00000000000E+00  0.16343437948E+03  0.16343437948E+03  0.00000000000E+00 0.  1.
         21   -1    0    0  501  502  0.00000000000E+00 -0.00000000000E+00 -0.17598260779E+02  0.17598260779E+02  0.00000000000E+00 0. -1.
         24    2    1    2    0    0 -0.79000556551E+01 -0.20883198249E+02  0.10910960825E+03  0.13805176755E+03  0.81577356319E+02 0.  0.
        -11    1    3    3    0    0  0.20215086567E+02 -0.38887092762E+02  0.88659230550E+02  0.98900530181E+02  0.00000000000E+00 0.  1.
         12    1    3    3    0    0 -0.28115142222E+02  0.18003894513E+02  0.20450377699E+02  0.39151237373E+02  0.00000000000E+00 0. -1.
         -4    1    1    2    0  502  0.79000556551E+01  0.20883198249E+02  0.36726510449E+02  0.42980872702E+02  0.00000000000E+00 0.  1.
<mgrwt>
<rscale>  1 0.84577680E+02</rscale>
<asrwt>0</asrwt>
<pdfrwt beam="1">  1       21 0.27074248E-02 0.84577680E+02</pdfrwt>
<pdfrwt beam="2">  1       -3 0.25143750E-01 0.84577680E+02</pdfrwt>
<totfact> 0.48337658E+05</totfact>
</mgrwt>
</event>
<event>
 6    2  0.8544106E+000  0.8977742E+02  0.7546771E-02  0.1303392E+00
          2   -1    0    0  502    0 -0.00000000000E+00  0.00000000000E+00  0.12980791706E+03  0.12980791706E+03  0.00000000000E+00 0. -1.
         21   -1    0    0  501  502  0.00000000000E+00 -0.00000000000E+00 -0.38687041493E+02  0.38687041493E+02  0.00000000000E+00 0. -1.
         24    2    1    2    0    0 -0.30829777293E+02  0.24406630969E+02  0.92824254403E+02  0.12913685517E+03  0.80708279336E+02 0.  0.
        -11    1    3    3    0    0 -0.53832631222E+01 -0.57081056090E+01 -0.13568591513E+02  0.15673821076E+02  0.00000000000E+00 0.  1.
         12    1    3    3    0    0 -0.25446514170E+02  0.30114736578E+02  0.10639284592E+03  0.11346303409E+03  0.00000000000E+00 0. -1.
          1    1    1    2  501    0  0.30829777293E+02 -0.24406630969E+02 -0.17033788313E+01  0.39358103392E+02  0.00000000000E+00 0. -1.
<mgrwt>
<rscale>  1 0.89777420E+02</rscale>
<asrwt>0</asrwt>
<pdfrwt beam="1">  1       21 0.59518526E-02 0.89777420E+02</pdfrwt>
<pdfrwt beam="2">  1        2 0.19970449E-01 0.89777420E+02</pdfrwt>
<totfact> 0.63865271E+05</totfact>
</mgrwt>
</event>
<event>
 6    2  0.8544106E+000  0.9518883E+02  0.7546771E-02  0.1290751E+00
         21   -1    0    0  501  502  0.00000000000E+00  0.00000000000E+00  0.45271703968E+02  0.45271703968E+02  0.00000000000E+00 0.  1.
         -1   -1    0    0    0  501 -0.00000000000E+00 -0.00000000000E+00 -0.11362716679E+03  0.11362716679E+03  0.00000000000E+00 0.  1.
         24    2    1    2    0    0  0.45429328117E+02  0.12581492779E+02 -0.54859056381E+02  0.10986550660E+03  0.82697011191E+02 0.  0.
        -11    1    3    3    0    0  0.63238406006E+02  0.19302745882E+02 -0.18230387339E+02  0.68585997224E+02  0.00000000000E+00 0.  1.
         12    1    3    3    0    0 -0.17809077889E+02 -0.67212531035E+01 -0.36628669042E+02  0.41279509376E+02  0.00000000000E+00 0. -1.
         -2    1    1    2    0  502 -0.45429328117E+02 -0.12581492779E+02 -0.13496406442E+02  0.49033364157E+02  0.00000000000E+00 0.  1.
<mgrwt>
<rscale>  1 0.95188831E+02</rscale>
<asrwt>0</asrwt>
<pdfrwt beam="1">  1       21 0.69648776E-02 0.95188831E+02</pdfrwt>
<pdfrwt beam="2">  1       -1 0.17481102E-01 0.95188831E+02</pdfrwt>
<totfact> 0.32744954E+05</totfact>
</mgrwt>
</event>
<event>
 6    2  0.8544106E+000  0.2431882E+03  0.7546771E-02  0.1117687E+00
          2   -1    0    0  502    0 -0.00000000000E+00  0.00000000000E+00  0.29247962826E+04  0.29247962826E+04  0.00000000000E+00 0. -1.
         21   -1    0    0  501  502  0.00000000000E+00 -0.00000000000E+00 -0.19723328868E+02  0.19723328868E+02  0.00000000000E+00 0. -1.
         24    2    1    2    0    0 -0.11065310346E+03 -0.20188769642E+03  0.12417348270E+04  0.12653244247E+04  0.78343908505E+02 0.  0.
        -11    1    3    3    0    0 -0.60347472229E+01  0.59870256250E+01  0.21948881054E+02  0.23537545101E+02  0.00000000000E+00 0.  1.
         12    1    3    3    0    0 -0.10461835624E+03 -0.20787472205E+03  0.12197859459E+04  0.12417868796E+04  0.00000000000E+00 0. -1.
          1    1    1    2  501    0  0.11065310346E+03  0.20188769642E+03  0.16633381268E+04  0.16791951868E+04  0.00000000000E+00 0. -1.
<mgrwt>
<rscale>  1 0.24318824E+03</rscale>
<asrwt>0</asrwt>
<pdfrwt beam="1">  1       21 0.30343606E-02 0.24318824E+03</pdfrwt>
<pdfrwt beam="2">  1        2 0.44996831E+00 0.24318824E+03</pdfrwt>
<totfact> 0.18473945E+04</totfact>
</mgrwt>
</event>
<event>
 6    2  0.8544106E+000  0.8523564E+02  0.7546771E-02  0.1314817E+00
         21   -1    0    0  501  502  0.00000000000E+00  0.00000000000E+00  0.20495261824E+03  0.20495261824E+03  0.00000000000E+00 0. -1.
         -1   -1    0    0    0  501 -0.00000000000E+00 -0.00000000000E+00 -0.35434590335E+02  0.35434590335E+02  0.00000000000E+00 0.  1.
         24    2    1    2    0    0  0.65138825129E+01 -0.27264337383E+02  0.18826726763E+03  0.20666320008E+03  0.80494344213E+02 0.  0.
        -13    1    3    3    0    0 -0.11056825541E+02 -0.19338097316E+02  0.55830742486E+01  0.22964888786E+02  0.00000000000E+00 0.  1.
         14    1    3    3    0    0  0.17570708054E+02 -0.79262400662E+01  0.18268419338E+03  0.18369831130E+03  0.00000000000E+00 0. -1.
         -2    1    1    2    0  502 -0.65138825129E+01  0.27264337383E+02 -0.18749239725E+02  0.33724008489E+02  0.00000000000E+00 0.  1.
<mgrwt>
<rscale>  1 0.85235639E+02</rscale>
<asrwt>0</asrwt>
<pdfrwt beam="1">  1       21 0.31531171E-01 0.85235639E+02</pdfrwt>
<pdfrwt beam="2">  1       -1 0.54514756E-02 0.85235639E+02</pdfrwt>
<totfact> 0.12621092E+05</totfact>
</mgrwt>
</event>
<event>
 6    2  0.8544106E+000  0.8517931E+02  0.7546771E-02  0.1314964E+00
          2   -1    0    0  502    0 -0.00000000000E+00  0.00000000000E+00  0.85976706554E+03  0.85976706554E+03  0.00000000000E+00 0. -1.
         21   -1    0    0  501  502  0.00000000000E+00 -0.00000000000E+00 -0.36964458758E+01  0.36964458758E+01  0.00000000000E+00 0.  1.
         24    2    1    2    0    0  0.12920412745E+02 -0.24354641947E+02  0.64657925496E+03  0.65216581258E+03  0.80594221238E+02 0.  0.
        -13    1    3    3    0    0  0.96401037122E+01  0.29183536505E+02  0.28029191400E+03  0.28197192671E+03  0.00000000000E+00 0.  1.
         14    1    3    3    0    0  0.32803090323E+01 -0.53538178452E+02  0.36628734097E+03  0.37019388586E+03  0.00000000000E+00 0. -1.
          1    1    1    2  501    0 -0.12920412745E+02  0.24354641947E+02  0.20949136470E+03  0.21129769884E+03  0.00000000000E+00 0. -1.
<mgrwt>
<rscale>  1 0.85179306E+02</rscale>
<asrwt>0</asrwt>
<pdfrwt beam="1">  1       21 0.56868466E-03 0.85179306E+02</pdfrwt>
<pdfrwt beam="2">  1        2 0.13227170E+00 0.85179306E+02</pdfrwt>
<totfact> 0.34525892E+06</totfact>
</mgrwt>
</event>
<event>
 6    2  0.8544106E+000  0.1540016E+03  0.7546771E-02  0.1195640E+00
          2   -1    0    0  502    0 -0.00000000000E+00  0.00000000000E+00  0.52668907760E+03  0.52668907760E+03  0.00000000000E+00 0. -1.
         21   -1    0    0  501  502  0.00000000000E+00 -0.00000000000E+00 -0.38749797312E+02  0.38749797312E+02  0.00000000000E+00 0. -1.
         24    2    1    2    0    0  0.20802235945E+02  0.13000162536E+03  0.25708978514E+03  0.29968589746E+03  0.79895706344E+02 0.  0.
        -13    1    3    3    0    0  0.69659897095E+01  0.37278587133E+02  0.16279470435E+02  0.41270318983E+02  0.00000000000E+00 0.  1.
         14    1    3    3    0    0  0.13836246236E+02  0.92723038230E+02  0.24081031471E+03  0.25841557847E+03  0.00000000000E+00 0. -1.
          1    1    1    2  501    0 -0.20802235945E+02 -0.13000162536E+03  0.23084949514E+03  0.26575297745E+03  0.00000000000E+00 0. -1.
<mgrwt>
<rscale>  1 0.15400156E+03</rscale>
<asrwt>0</asrwt>
<pdfrwt beam="1">  1       21 0.59615076E-02 0.15400156E+03</pdfrwt>
<pdfrwt beam="2">  1        2 0.81029084E-01 0.15400156E+03</pdfrwt>
<totfact> 0.14591622E+05</totfact>
</mgrwt>
</event>
<event>
 6    2  0.8544106E+000  0.7366308E+02  0.7546771E-02  0.1348062E+00
          2   -1    0    0  502    0 -0.00000000000E+00  0.00000000000E+00  0.25972668684E+04  0.25972668684E+04  0.00000000000E+00 0. -1.
         21   -1    0    0  501  502  0.00000000000E+00 -0.00000000000E+00 -0.44747818198E+01  0.44747818198E+01  0.00000000000E+00 0. -1.
         24    2    1    2    0    0 -0.27930061425E+02 -0.18841836338E+02  0.25246609282E+04  0.25257353487E+04  0.65506840678E+02 0.  0.
        -13    1    3    3    0    0 -0.38670668854E+02 -0.50930820561E+01  0.76965725976E+03  0.77064496210E+03  0.00000000000E+00 0.  1.
         14    1    3    3    0    0  0.10740607429E+02 -0.13748754281E+02  0.17550036684E+04  0.17550903866E+04  0.00000000000E+00 0. -1.
          1    1    1    2  501    0  0.27930061425E+02  0.18841836338E+02  0.68131158356E+02  0.76006301493E+02  0.00000000000E+00 0. -1.
<mgrwt>
<rscale>  1 0.73663080E+02</rscale>
<asrwt>0</asrwt>
<pdfrwt beam="1">  1       21 0.68843005E-03 0.73663080E+02</pdfrwt>
<pdfrwt beam="2">  1        2 0.39957831E+00 0.73663080E+02</pdfrwt>
<totfact> 0.31498483E+05</totfact>
</mgrwt>
</event>
<event>
 6    2  0.8544106E+000  0.8388926E+02  0.7546771E-02  0.1318363E+00
          2   -1    0    0  502    0 -0.00000000000E+00  0.00000000000E+00  0.19878259009E+04  0.19878259009E+04  0.00000000000E+00 0. -1.
         21   -1    0    0  501  502  0.00000000000E+00 -0.00000000000E+00 -0.14982802419E+01  0.14982802419E+01  0.00000000000E+00 0.  1.
         24    2    1    2    0    0 -0.20068512102E+02  0.15206614942E+02  0.14949679422E+04  0.14973197910E+04  0.80021384411E+02 0.  0.
        -13    1    3    3    0    0 -0.47898461300E+02  0.19899794066E+02  0.73492523760E+03  0.73675326213E+03  0.00000000000E+00 0.  1.
         14    1    3    3    0    0  0.27829949198E+02 -0.46931791238E+01  0.76004270457E+03  0.76056652883E+03  0.00000000000E+00 0. -1.
          1    1    1    2  501    0  0.20068512102E+02 -0.15206614942E+02  0.49135967846E+03  0.49200439015E+03  0.00000000000E+00 0. -1.
<mgrwt>
<rscale>  1 0.83889262E+02</rscale>
<asrwt>0</asrwt>
<pdfrwt beam="1">  1       21 0.23050624E-03 0.83889262E+02</pdfrwt>
<pdfrwt beam="2">  1        2 0.30581726E+00 0.83889262E+02</pdfrwt>
<totfact> 0.34192930E+06</totfact>
</mgrwt>
</event>
<event>
 6    2  0.8544106E+000  0.8418025E+02  0.7546771E-02  0.1317590E+00
          2   -1    0    0  502    0 -0.00000000000E+00  0.00000000000E+00  0.11512795234E+03  0.11512795234E+03  0.00000000000E+00 0. -1.
         21   -1    0    0  501  502  0.00000000000E+00 -0.00000000000E+00 -0.48441123047E+02  0.48441123047E+02  0.00000000000E+00 0. -1.
         24    2    1    2    0    0  0.21329809656E+02 -0.15151700233E+02  0.93701558137E+02  0.12596149138E+03  0.80011127433E+02 0.  0.
        -13    1    3    3    0    0  0.20415304650E+02  0.24503060682E+02  0.10144865866E+02  0.33467939139E+02  0.00000000000E+00 0.  1.
         14    1    3    3    0    0  0.91450500618E+00 -0.39654760915E+02  0.83556692271E+02  0.92493552240E+02  0.00000000000E+00 0. -1.
          1    1    1    2  501    0 -0.21329809656E+02  0.15151700233E+02 -0.27014728848E+02  0.37607584004E+02  0.00000000000E+00 0. -1.
<mgrwt>
<rscale>  1 0.84180255E+02</rscale>
<asrwt>0</asrwt>
<pdfrwt beam="1">  1       21 0.74524805E-02 0.84180255E+02</pdfrwt>
<pdfrwt beam="2">  1        2 0.17711993E-01 0.84180255E+02</pdfrwt>
<totfact> 0.49684927E+05</totfact>
</mgrwt>
</event>
<event>
 6    2  0.8544106E+000  0.8945691E+02  0.7546771E-02  0.1304172E+00
         21   -1    0    0  501  502  0.00000000000E+00  0.00000000000E+00  0.28498254130E+03  0.28498254130E+03  0.00000000000E+00 0.  1.
         -3   -1    0    0    0  501 -0.00000000000E+00 -0.00000000000E+00 -0.45788769725E+02  0.45788769725E+02  0.00000000000E+00 0.  1.
         24    2    1    2    0    0  0.23766243771E+02 -0.33111813108E+02  0.13567463532E+01  0.89467193620E+02  0.79632351863E+02 0.  0.
        -13    1    3    3    0    0  0.22183627149E+02 -0.56859208743E+02  0.13853185366E+02  0.62585890400E+02  0.00000000000E+00 0.  1.
         14    1    3    3    0    0  0.15826166221E+01  0.23747395635E+02 -0.12496439013E+02  0.26881303220E+02  0.00000000000E+00 0. -1.
         -4    1    1    2    0  502 -0.23766243771E+02  0.33111813108E+02  0.23783702522E+03  0.24130411741E+03  0.00000000000E+00 0.  1.
<mgrwt>
<rscale>  1 0.89456906E+02</rscale>
<asrwt>0</asrwt>
<pdfrwt beam="1">  1       21 0.43843467E-01 0.89456906E+02</pdfrwt>
<pdfrwt beam="2">  1       -3 0.70444263E-02 0.89456906E+02</pdfrwt>
<totfact> 0.30490640E+04</totfact>
</mgrwt>
</event>
<event>
 6    2  0.8544106E+000  0.8656756E+02  0.7546771E-02  0.1311383E+00
          2   -1    0    0  502    0 -0.00000000000E+00  0.00000000000E+00  0.23096846188E+03  0.23096846188E+03  0.00000000000E+00 0. -1.
         21   -1    0    0  501  502  0.00000000000E+00 -0.00000000000E+00 -0.15274202257E+02  0.15274202257E+02  0.00000000000E+00 0. -1.
         24    2    1    2    0    0 -0.30119032356E+02  0.10790649398E+02  0.15049002421E+03  0.17361218472E+03  0.80438480046E+02 0.  0.
        -11    1    3    3    0    0  0.27289804032E+02  0.88095324377E+01  0.42051135098E+02  0.50898322457E+02  0.00000000000E+00 0.  1.
         12    1    3    3    0    0 -0.57408836388E+02  0.19811169600E+01  0.10843888911E+03  0.12271386226E+03  0.00000000000E+00 0. -1.
          1    1    1    2  501    0  0.30119032356E+02 -0.10790649398E+02  0.65204235411E+02  0.72630479415E+02  0.00000000000E+00 0. -1.
<mgrwt>
<rscale>  1 0.86567565E+02</rscale>
<asrwt>0</asrwt>
<pdfrwt beam="1">  1       21 0.23498774E-02 0.86567565E+02</pdfrwt>
<pdfrwt beam="2">  1        2 0.35533607E-01 0.86567565E+02</pdfrwt>
<totfact> 0.15672414E+06</totfact>
</mgrwt>
</event>
<event>
 6    2  0.8544106E+000  0.8442125E+02  0.7546771E-02  0.1316953E+00
         21   -1    0    0  501  502  0.00000000000E+00  0.00000000000E+00  0.10943327901E+02  0.10943327901E+02  0.00000000000E+00 0. -1.
          2   -1    0    0  502    0 -0.00000000000E+00 -0.00000000000E+00 -0.64404415310E+03  0.64404415310E+03  0.00000000000E+00 0. -1.
         24    2    1    2    0    0  0.14779763624E+02 -0.21459075621E+02 -0.62018722571E+03  0.62590665585E+03  0.80299524102E+02 0.  0.
        -13    1    3    3    0    0  0.94100814985E+01  0.29797694562E+02 -0.29652299763E+03  0.29816495495E+03  0.00000000000E+00 0.  1.
         14    1    3    3    0    0  0.53696821258E+01 -0.51256770183E+02 -0.32366422807E+03  0.32774170090E+03  0.00000000000E+00 0. -1.
          1    1    1    2  501    0 -0.14779763624E+02  0.21459075621E+02 -0.12913599488E+02  0.29080825144E+02  0.00000000000E+00 0. -1.
<mgrwt>
<rscale>  1 0.84421247E+02</rscale>
<asrwt>0</asrwt>
<pdfrwt beam="1">  1       21 0.16835886E-02 0.84421247E+02</pdfrwt>
<pdfrwt beam="2">  1        2 0.99083733E-01 0.84421247E+02</pdfrwt>
<totfact> 0.89442100E+05</totfact>
</mgrwt>
</event>
<event>
 6    2  0.8544106E+000  0.8328873E+02  0.7546771E-02  0.1319969E+00
          2   -1    0    0  502    0 -0.00000000000E+00  0.00000000000E+00  0.90139369718E+02  0.90139369718E+02  0.00000000000E+00 0. -1.
         21   -1    0    0  501  502  0.00000000000E+00 -0.00000000000E+00 -0.30705755841E+02  0.30705755841E+02  0.00000000000E+00 0.  1.
         24    2    1    2    0    0 -0.26568609573E+01  0.21657852377E+02  0.49308635261E+02  0.96790257617E+02  0.80379667694E+02 0.  0.
        -11    1    3    3    0    0 -0.10978611782E+02  0.12706189522E+02 -0.20169808255E+02  0.26244967782E+02  0.00000000000E+00 0.  1.
         12    1    3    3    0    0  0.83217508247E+01  0.89516628550E+01  0.69478443515E+02  0.70545289836E+02  0.00000000000E+00 0. -1.
          1    1    1    2  501    0  0.26568609573E+01 -0.21657852377E+02  0.10124978616E+02  0.24054867942E+02  0.00000000000E+00 0. -1.
<mgrwt>
<rscale>  1 0.83288729E+02</rscale>
<asrwt>0</asrwt>
<pdfrwt beam="1">  1       21 0.47239625E-02 0.83288729E+02</pdfrwt>
<pdfrwt beam="2">  1        2 0.13867595E-01 0.83288729E+02</pdfrwt>
<totfact> 0.14108804E+06</totfact>
</mgrwt>
</event>
<event>
 6    2  0.8544106E+000  0.8580223E+02  0.7546771E-02  0.1313348E+00
          2   -1    0    0  502    0 -0.00000000000E+00  0.00000000000E+00  0.17849816375E+03  0.17849816375E+03  0.00000000000E+00 0. -1.
         21   -1    0    0  501  502  0.00000000000E+00 -0.00000000000E+00 -0.51036525556E+02  0.51036525556E+02  0.00000000000E+00 0. -1.
         24    2    1    2    0    0  0.10941947641E+02 -0.23107863075E+02  0.16391204726E+03  0.18501130360E+03  0.81904356818E+02 0.  0.
        -13    1    3    3    0    0  0.82729315885E+01 -0.10977238484E+01 -0.80681682630E+01  0.11607830712E+02  0.00000000000E+00 0.  1.
         14    1    3    3    0    0  0.26690160528E+01 -0.22010139226E+02  0.17198021553E+03  0.17340347288E+03  0.00000000000E+00 0. -1.
          1    1    1    2  501    0 -0.10941947641E+02  0.23107863075E+02 -0.36450409068E+02  0.44523385712E+02  0.00000000000E+00 0. -1.
<mgrwt>
<rscale>  1 0.85802233E+02</rscale>
<asrwt>0</asrwt>
<pdfrwt beam="1">  1       21 0.78517732E-02 0.85802233E+02</pdfrwt>
<pdfrwt beam="2">  1        2 0.27461256E-01 0.85802233E+02</pdfrwt>
<totfact> 0.28081834E+05</totfact>
</mgrwt>
</event>
<event>
 6    2  0.8544106E+000  0.1037722E+03  0.7546771E-02  0.1272558E+00
         21   -1    0    0  501  502  0.00000000000E+00  0.00000000000E+00  0.84368519351E+01  0.84368519351E+01  0.00000000000E+00 0. -1.
          2   -1    0    0  502    0 -0.00000000000E+00 -0.00000000000E+00 -0.13658097479E+04  0.13658097479E+04  0.00000000000E+00 0. -1.
         24    2    1    2    0    0 -0.24873849584E+02 -0.56331407658E+02 -0.12111346084E+04  0.12155721764E+04  0.83526885811E+02 0.  0.
        -13    1    3    3    0    0 -0.49696183428E+02 -0.41339688164E+02 -0.54726885104E+03  0.55107338512E+03  0.00000000000E+00 0.  1.
         14    1    3    3    0    0  0.24822333844E+02 -0.14991719493E+02 -0.66386575732E+03  0.66449879131E+03  0.00000000000E+00 0. -1.
          1    1    1    2  501    0  0.24873849584E+02  0.56331407658E+02 -0.14623828758E+03  0.15867442338E+03  0.00000000000E+00 0. -1.
<mgrwt>
<rscale>  1 0.10377223E+03</rscale>
<asrwt>0</asrwt>
<pdfrwt beam="1">  1       21 0.12979766E-02 0.10377223E+03</pdfrwt>
<pdfrwt beam="2">  1        2 0.21012467E+00 0.10377223E+03</pdfrwt>
<totfact> 0.50146875E+05</totfact>
</mgrwt>
</event>
<event>
 6    2  0.8544106E+000  0.8679338E+02  0.7546771E-02  0.1310808E+00
         21   -1    0    0  501  502  0.00000000000E+00  0.00000000000E+00  0.72312403548E+02  0.72312403548E+02  0.00000000000E+00 0. -1.
          2   -1    0    0  502    0 -0.00000000000E+00 -0.00000000000E+00 -0.10765960810E+03  0.10765960810E+03  0.00000000000E+00 0. -1.
         24    2    1    2    0    0 -0.41456486379E+01  0.35034374686E+02 -0.83393711116E+02  0.12036445671E+03  0.79300047745E+02 0.  0.
        -11    1    3    3    0    0  0.36758495158E+02  0.25504506426E+02 -0.45129792947E+02  0.63548131567E+02  0.00000000000E+00 0.  1.
         12    1    3    3    0    0 -0.40904143796E+02  0.95298682602E+01 -0.38263918169E+02  0.56816325139E+02  0.00000000000E+00 0. -1.
          1    1    1    2  501    0  0.41456486379E+01 -0.35034374686E+02  0.48046506567E+02  0.59607554937E+02  0.00000000000E+00 0. -1.
<mgrwt>
<rscale>  1 0.86793383E+02</rscale>
<asrwt>0</asrwt>
<pdfrwt beam="1">  1       21 0.11124985E-01 0.86793383E+02</pdfrwt>
<pdfrwt beam="2">  1        2 0.16563017E-01 0.86793383E+02</pdfrwt>
<totfact> 0.26991303E+05</totfact>
</mgrwt>
</event>
<event>
 6    2  0.8544106E+000  0.8386313E+02  0.7546771E-02  0.1318433E+00
          2   -1    0    0  502    0 -0.00000000000E+00  0.00000000000E+00  0.63450958298E+03  0.63450958298E+03  0.00000000000E+00 0. -1.
         21   -1    0    0  501  502  0.00000000000E+00 -0.00000000000E+00 -0.61578425652E+01  0.61578425652E+01  0.00000000000E+00 0.  1.
         24    2    1    2    0    0  0.30463529199E+01 -0.25554928912E+02  0.30581040030E+03  0.31710097064E+03  0.79816602223E+02 0.  0.
        -11    1    3    3    0    0  0.31184117949E+02 -0.25665964011E+02  0.80736051676E+02  0.90274586463E+02  0.00000000000E+00 0.  1.
         12    1    3    3    0    0 -0.28137765029E+02  0.11103509863E+00  0.22507434862E+03  0.22682638417E+03  0.00000000000E+00 0. -1.
          1    1    1    2  501    0 -0.30463529199E+01  0.25554928912E+02  0.32254134012E+03  0.32356645491E+03  0.00000000000E+00 0. -1.
<mgrwt>
<rscale>  1 0.83863130E+02</rscale>
<asrwt>0</asrwt>
<pdfrwt beam="1">  1       21 0.94736090E-03 0.83863130E+02</pdfrwt>
<pdfrwt beam="2">  1        2 0.97616807E-01 0.83863130E+02</pdfrwt>
<totfact> 0.22445498E+06</totfact>
</mgrwt>
</event>
<event>
 6    2  0.8544106E+000  0.8340242E+02  0.7546771E-02  0.1319664E+00
         21   -1    0    0  501  502  0.00000000000E+00  0.00000000000E+00  0.70327814275E+02  0.70327814275E+02  0.00000000000E+00 0.  1.
          4   -1    0    0  502    0 -0.00000000000E+00 -0.00000000000E+00 -0.46369374043E+02  0.46369374043E+02  0.00000000000E+00 0. -1.
         24    2    1    2    0    0 -0.65436557661E+01  0.21539490368E+02 -0.56997323661E+00  0.83404364116E+02  0.80306873977E+02 0.  0.
        -11    1    3    3    0    0 -0.17177026745E+02  0.37162687313E+02  0.27677351904E+02  0.49418128096E+02  0.00000000000E+00 0.  1.
         12    1    3    3    0    0  0.10633370979E+02 -0.15623196945E+02 -0.28247325140E+02  0.33986236019E+02  0.00000000000E+00 0. -1.
          3    1    1    2  501    0  0.65436557661E+01 -0.21539490368E+02  0.24528413468E+02  0.33292824202E+02  0.00000000000E+00 0. -1.
<mgrwt>
<rscale>  1 0.83402417E+02</rscale>
<asrwt>0</asrwt>
<pdfrwt beam="1">  1       21 0.10819664E-01 0.83402417E+02</pdfrwt>
<pdfrwt beam="2">  1        4 0.71337499E-02 0.83402417E+02</pdfrwt>
<totfact> 0.34457676E+05</totfact>
</mgrwt>
</event>
<event>
 6    2  0.8544106E+000  0.8430663E+02  0.7546771E-02  0.1317256E+00
         -1   -1    0    0    0  501 -0.00000000000E+00  0.00000000000E+00  0.22994371272E+02  0.22994371272E+02  0.00000000000E+00 0.  1.
         21   -1    0    0  501  502  0.00000000000E+00 -0.00000000000E+00 -0.13601959570E+03  0.13601959570E+03  0.00000000000E+00 0. -1.
         24    2    1    2    0    0 -0.23334006087E+02  0.45253332775E+01 -0.10329123466E+03  0.13332924314E+03  0.80886670330E+02 0.  0.
        -11    1    3    3    0    0 -0.20030119821E+02 -0.16530738403E+02  0.18624279937E+01  0.26037274247E+02  0.00000000000E+00 0.  1.
         12    1    3    3    0    0 -0.33038862663E+01  0.21056071680E+02 -0.10515366266E+03  0.10729196889E+03  0.00000000000E+00 0. -1.
         -2    1    1    2    0  502  0.23334006087E+02 -0.45253332775E+01 -0.97339897615E+01  0.25684723826E+02  0.00000000000E+00 0.  1.
<mgrwt>
<rscale>  1 0.84306630E+02</rscale>
<asrwt>0</asrwt>
<pdfrwt beam="1">  1       21 0.20926091E-01 0.84306630E+02</pdfrwt>
<pdfrwt beam="2">  1       -1 0.35375956E-02 0.84306630E+02</pdfrwt>
<totfact> 0.50985311E+05</totfact>
</mgrwt>
</event>
<event>
 6    2  0.8544106E+000  0.6734529E+02  0.7546771E-02  0.1369360E+00
          2   -1    0    0  502    0 -0.00000000000E+00  0.00000000000E+00  0.19258368838E+04  0.19258368838E+04  0.00000000000E+00 0. -1.
         21   -1    0    0  501  502  0.00000000000E+00 -0.00000000000E+00 -0.13922499364E+01  0.13922499364E+01  0.00000000000E+00 0. -1.
         24    2    1    2    0    0  0.27671042838E+02 -0.43926841258E+01  0.16463199501E+04  0.16476968064E+04  0.61240554931E+02 0.  0.
        -13    1    3    3    0    0 -0.15055313298E+02 -0.10360798814E+02  0.23188320819E+03  0.23260230191E+03  0.00000000000E+00 0.  1.
         14    1    3    3    0    0  0.42726356136E+02  0.59681146886E+01  0.14144367419E+04  0.14150945045E+04  0.00000000000E+00 0. -1.
          1    1    1    2  501    0 -0.27671042838E+02  0.43926841258E+01  0.27812468381E+03  0.27953232734E+03  0.00000000000E+00 0. -1.
<mgrwt>
<rscale>  1 0.67345288E+02</rscale>
<asrwt>0</asrwt>
<pdfrwt beam="1">  1       21 0.21419384E-03 0.67345288E+02</pdfrwt>
<pdfrwt beam="2">  1        2 0.29628047E+00 0.67345288E+02</pdfrwt>
<totfact> 0.40186146E+06</totfact>
</mgrwt>
</event>
<event>
 6    2  0.8544106E+000  0.8832410E+02  0.7546771E-02  0.1306962E+00
         21   -1    0    0  501  502  0.00000000000E+00  0.00000000000E+00  0.19188412159E+02  0.19188412159E+02  0.00000000000E+00 0.  1.
         -1   -1    0    0    0  501 -0.00000000000E+00 -0.00000000000E+00 -0.32714546404E+03  0.32714546404E+03  0.00000000000E+00 0.  1.
         24    2    1    2    0    0  0.25493711294E+02  0.26104078985E+02 -0.29447405091E+03  0.30743473006E+03  0.80435031732E+02 0.  0.
        -11    1    3    3    0    0  0.40622518048E+02 -0.53264290110E+01 -0.23451807805E+03  0.23806992408E+03  0.00000000000E+00 0.  1.
         12    1    3    3    0    0 -0.15128806753E+02  0.31430507996E+02 -0.59955972864E+02  0.69364805981E+02  0.00000000000E+00 0. -1.
         -2    1    1    2    0  502 -0.25493711294E+02 -0.26104078985E+02 -0.13483000964E+02  0.38899146137E+02  0.00000000000E+00 0.  1.
<mgrwt>
<rscale>  1 0.88324100E+02</rscale>
<asrwt>0</asrwt>
<pdfrwt beam="1">  1       21 0.29520634E-02 0.88324100E+02</pdfrwt>
<pdfrwt beam="2">  1       -1 0.50330072E-01 0.88324100E+02</pdfrwt>
<totfact> 0.23095064E+05</totfact>
</mgrwt>
</event>
<event>
 6    2  0.8544106E+000  0.8372278E+02  0.7546771E-02  0.1318807E+00
         21   -1    0    0  501  502  0.00000000000E+00  0.00000000000E+00  0.11183635935E+01  0.11183635935E+01  0.00000000000E+00 0.  1.
          2   -1    0    0  502    0 -0.00000000000E+00 -0.00000000000E+00 -0.25645273580E+04  0.25645273580E+04  0.00000000000E+00 0. -1.
         24    2    1    2    0    0  0.11592444360E+02 -0.20197573982E+02 -0.19589051045E+04  0.19606934262E+04  0.80418756769E+02 0.  0.
        -11    1    3    3    0    0  0.44493828275E+01 -0.12453517984E+02 -0.48824901411E+02  0.50584168625E+02  0.00000000000E+00 0.  1.
         12    1    3    3    0    0  0.71430615322E+01 -0.77440559982E+01 -0.19100802031E+04  0.19101092576E+04  0.00000000000E+00 0. -1.
          1    1    1    2  501    0 -0.11592444360E+02  0.20197573982E+02 -0.60450388991E+03  0.60495229537E+03  0.00000000000E+00 0. -1.
<mgrwt>
<rscale>  1 0.83722776E+02</rscale>
<asrwt>0</asrwt>
<pdfrwt beam="1">  1       21 0.17205668E-03 0.83722776E+02</pdfrwt>
<pdfrwt beam="2">  1        2 0.39454096E+00 0.83722776E+02</pdfrwt>
<totfact> 0.26847418E+06</totfact>
</mgrwt>
</event>
<event>
 6    2  0.8544106E+000  0.8733998E+02  0.7546771E-02  0.1309424E+00
         21   -1    0    0  501  502  0.00000000000E+00  0.00000000000E+00  0.22229740657E+02  0.22229740657E+02  0.00000000000E+00 0.  1.
          4   -1    0    0  502    0 -0.00000000000E+00 -0.00000000000E+00 -0.17244884829E+03  0.17244884829E+03  0.00000000000E+00 0. -1.
         24    2    1    2    0    0 -0.16428757517E+02  0.32389373440E+02 -0.10133092357E+03  0.13377678170E+03  0.79431074927E+02 0.  0.
        -11    1    3    3    0    0 -0.48098196531E+02  0.26625204805E+02 -0.59778025318E+02  0.81214225056E+02  0.00000000000E+00 0.  1.
         12    1    3    3    0    0  0.31669439014E+02  0.57641686356E+01 -0.41552898254E+02  0.52562556643E+02  0.00000000000E+00 0. -1.
          3    1    1    2  501    0  0.16428757517E+02 -0.32389373440E+02 -0.48888184056E+02  0.60901807245E+02  0.00000000000E+00 0. -1.
<mgrwt>
<rscale>  1 0.87339975E+02</rscale>
<asrwt>0</asrwt>
<pdfrwt beam="1">  1       21 0.34199600E-02 0.87339975E+02</pdfrwt>
<pdfrwt beam="2">  1        4 0.26530593E-01 0.87339975E+02</pdfrwt>
<totfact> 0.25161810E+05</totfact>
</mgrwt>
</event>
<event>
 6    2  0.8544106E+000  0.7364109E+02  0.7546771E-02  0.1348132E+00
         21   -1    0    0  501  502  0.00000000000E+00  0.00000000000E+00  0.22390719188E+03  0.22390719188E+03  0.00000000000E+00 0.  1.
         -3   -1    0    0    0  501 -0.00000000000E+00 -0.00000000000E+00 -0.13805699999E+02  0.13805699999E+02  0.00000000000E+00 0.  1.
         24    2    1    2    0    0  0.78135307358E+01 -0.18736122506E+02  0.91823142559E+02  0.11770513602E+03  0.70787823713E+02 0.  0.
        -13    1    3    3    0    0  0.10581727448E+02 -0.15266902266E+02 -0.61989614171E+01  0.19582604098E+02  0.00000000000E+00 0.  1.
         14    1    3    3    0    0 -0.27681967122E+01 -0.34692202401E+01  0.98022103976E+02  0.98122531918E+02  0.00000000000E+00 0. -1.
         -4    1    1    2    0  502 -0.78135307358E+01  0.18736122506E+02  0.11827834933E+03  0.12000775587E+03  0.00000000000E+00 0.  1.
<mgrwt>
<rscale>  1 0.73641086E+02</rscale>
<asrwt>0</asrwt>
<pdfrwt beam="1">  1       21 0.34447258E-01 0.73641086E+02</pdfrwt>
<pdfrwt beam="2">  1       -3 0.21239540E-02 0.73641086E+02</pdfrwt>
<totfact> 0.30491084E+05</totfact>
</mgrwt>
</event>
<event>
 6    2  0.8544106E+000  0.8189131E+02  0.7546771E-02  0.1323768E+00
         21   -1    0    0  501  502  0.00000000000E+00  0.00000000000E+00  0.87393404464E+01  0.87393404464E+01  0.00000000000E+00 0. -1.
          2   -1    0    0  502    0 -0.00000000000E+00 -0.00000000000E+00 -0.34137443388E+03  0.34137443388E+03  0.00000000000E+00 0. -1.
         24    2    1    2    0    0 -0.17528394159E+02  0.16225395311E+02 -0.28889048664E+03  0.30027304120E+03  0.78330568407E+02 0.  0.
        -13    1    3    3    0    0  0.15756612198E+02  0.82724429384E+01 -0.12441537701E+02  0.21713958656E+02  0.00000000000E+00 0.  1.
         14    1    3    3    0    0 -0.33285006357E+02  0.79529523726E+01 -0.27644894894E+03  0.27855908255E+03  0.00000000000E+00 0. -1.
          1    1    1    2  501    0  0.17528394159E+02 -0.16225395311E+02 -0.43744606790E+02  0.49840733121E+02  0.00000000000E+00 0. -1.
<mgrwt>
<rscale>  1 0.81891306E+02</rscale>
<asrwt>0</asrwt>
<pdfrwt beam="1">  1       21 0.13445137E-02 0.81891306E+02</pdfrwt>
<pdfrwt beam="2">  1        2 0.52519150E-01 0.81891306E+02</pdfrwt>
<totfact> 0.25147084E+06</totfact>
</mgrwt>
</event>
<event>
 6    2  0.8544106E+000  0.8693210E+02  0.7546771E-02  0.1310456E+00
          4   -1    0    0  502    0 -0.00000000000E+00  0.00000000000E+00  0.14023519218E+03  0.14023519218E+03  0.00000000000E+00 0. -1.
         21   -1    0    0  501  502  0.00000000000E+00 -0.00000000000E+00 -0.45405380527E+02  0.45405380527E+02  0.00000000000E+00 0. -1.
         24    2    1    2    0    0  0.35897072546E+02 -0.70126277370E+01  0.11477447149E+03  0.14398044523E+03  0.78863252139E+02 0.  0.
        -13    1    3    3    0    0 -0.88670017178E+01  0.28453932153E+02  0.38001043062E+02  0.48294194767E+02  0.00000000000E+00 0.  1.
         14    1    3    3    0    0  0.44764074264E+02 -0.35466559890E+02  0.76773428432E+02  0.95686250467E+02  0.00000000000E+00 0. -1.
          3    1    1    2  501    0 -0.35897072546E+02  0.70126277370E+01 -0.19944659840E+02  0.41660127475E+02  0.00000000000E+00 0. -1.
<mgrwt>
<rscale>  1 0.86932096E+02</rscale>
<asrwt>0</asrwt>
<pdfrwt beam="1">  1       21 0.69854432E-02 0.86932096E+02</pdfrwt>
<pdfrwt beam="2">  1        4 0.21574645E-01 0.86932096E+02</pdfrwt>
<totfact> 0.11177019E+05</totfact>
</mgrwt>
</event>
<event>
 6    2  0.8544106E+000  0.8477135E+02  0.7546771E-02  0.1316032E+00
         21   -1    0    0  501  502  0.00000000000E+00  0.00000000000E+00  0.10799743847E+02  0.10799743847E+02  0.00000000000E+00 0.  1.
          2   -1    0    0  502    0 -0.00000000000E+00 -0.00000000000E+00 -0.31221556586E+03  0.31221556586E+03  0.00000000000E+00 0. -1.
         24    2    1    2    0    0  0.10355572056E+02 -0.25884294880E+02 -0.18808769621E+03  0.20630841749E+03  0.80055899632E+02 0.  0.
        -13    1    3    3    0    0  0.38429335100E+02 -0.29414696367E+02 -0.71512838122E+02  0.86348851612E+02  0.00000000000E+00 0.  1.
         14    1    3    3    0    0 -0.28073763044E+02  0.35304014866E+01 -0.11657485809E+03  0.11995956587E+03  0.00000000000E+00 0. -1.
          1    1    1    2  501    0 -0.10355572056E+02  0.25884294880E+02 -0.11332812580E+03  0.11670689222E+03  0.00000000000E+00 0. -1.
<mgrwt>
<rscale>  1 0.84771349E+02</rscale>
<asrwt>0</asrwt>
<pdfrwt beam="1">  1       21 0.16614992E-02 0.84771349E+02</pdfrwt>
<pdfrwt beam="2">  1        2 0.48033160E-01 0.84771349E+02</pdfrwt>
<totfact> 0.19838428E+06</totfact>
</mgrwt>
</event>
<event>
 6    2  0.8544106E+000  0.9176941E+02  0.7546771E-02  0.1298623E+00
         -1   -1    0    0    0  501 -0.00000000000E+00  0.00000000000E+00  0.64676131923E+02  0.64676131923E+02  0.00000000000E+00 0.  1.
         21   -1    0    0  501  502  0.00000000000E+00 -0.00000000000E+00 -0.78224312461E+02  0.78224312461E+02  0.00000000000E+00 0.  1.
         24    2    1    2    0    0 -0.72611266217E+01  0.42839296151E+02  0.11913504320E+02  0.92539480828E+02  0.80831272860E+02 0.  0.
        -11    1    3    3    0    0 -0.39815088769E+02  0.10726221062E+02  0.20441746540E+02  0.46023451778E+02  0.00000000000E+00 0.  1.
         12    1    3    3    0    0  0.32553962148E+02  0.32113075089E+02 -0.85282422205E+01  0.46516029050E+02  0.00000000000E+00 0. -1.
         -2    1    1    2    0  502  0.72611266217E+01 -0.42839296151E+02 -0.25461684858E+02  0.50360963556E+02  0.00000000000E+00 0.  1.
<mgrwt>
<rscale>  1 0.91769406E+02</rscale>
<asrwt>0</asrwt>
<pdfrwt beam="1">  1       21 0.12034510E-01 0.91769406E+02</pdfrwt>
<pdfrwt beam="2">  1       -1 0.99501742E-02 0.91769406E+02</pdfrwt>
<totfact> 0.30232505E+05</totfact>
</mgrwt>
</event>
<event>
 6    2  0.8544106E+000  0.1010983E+03  0.7546771E-02  0.1278003E+00
         -3   -1    0    0    0  501 -0.00000000000E+00  0.00000000000E+00  0.30314232621E+02  0.30314232621E+02  0.00000000000E+00 0.  1.
         21   -1    0    0  501  502  0.00000000000E+00 -0.00000000000E+00 -0.21490826600E+03  0.21490826600E+03  0.00000000000E+00 0.  1.
         24    2    1    2    0    0  0.41067592590E+02 -0.43310810687E+02 -0.10530127464E+03  0.14597676787E+03  0.81599539422E+02 0.  0.
        -13    1    3    3    0    0  0.33014312076E+02 -0.67339787259E+02 -0.70543279985E+02  0.10296089598E+03  0.00000000000E+00 0.  1.
         14    1    3    3    0    0  0.80532805141E+01  0.24028976572E+02 -0.34757994658E+02  0.43015871894E+02  0.00000000000E+00 0. -1.
         -4    1    1    2    0  502 -0.41067592590E+02  0.43310810687E+02 -0.79292758734E+02  0.99245730745E+02  0.00000000000E+00 0.  1.
<mgrwt>
<rscale>  1 0.10109826E+03</rscale>
<asrwt>0</asrwt>
<pdfrwt beam="1">  1       21 0.33062810E-01 0.10109826E+03</pdfrwt>
<pdfrwt beam="2">  1       -3 0.46637281E-02 0.10109826E+03</pdfrwt>
<totfact> 0.10335409E+05</totfact>
</mgrwt>
</event>
<event>
 6    2  0.8544106E+000  0.8450322E+02  0.7546771E-02  0.1316737E+00
         21   -1    0    0  501  502  0.00000000000E+00  0.00000000000E+00  0.60863758106E+02  0.60863758106E+02  0.00000000000E+00 0. -1.
          2   -1    0    0  502    0 -0.00000000000E+00 -0.00000000000E+00 -0.11836697097E+03  0.11836697097E+03  0.00000000000E+00 0. -1.
         24    2    1    2    0    0 -0.26669034500E+02  0.16158123379E+01 -0.98822525965E+02  0.13002571016E+03  0.80168231949E+02 0.  0.
        -11    1    3    3    0    0 -0.43659543178E+02  0.26394676120E+02 -0.43387453879E+02  0.66972425610E+02  0.00000000000E+00 0.  1.
         12    1    3    3    0    0  0.16990508677E+02 -0.24778863782E+02 -0.55435072085E+02  0.63053284550E+02  0.00000000000E+00 0. -1.
          1    1    1    2  501    0  0.26669034500E+02 -0.16158123379E+01  0.41319313105E+02  0.49205018912E+02  0.00000000000E+00 0. -1.
<mgrwt>
<rscale>  1 0.84503217E+02</rscale>
<asrwt>0</asrwt>
<pdfrwt beam="1">  1       21 0.93636551E-02 0.84503217E+02</pdfrwt>
<pdfrwt beam="2">  1        2 0.18210303E-01 0.84503217E+02</pdfrwt>
<totfact> 0.32605105E+05</totfact>
</mgrwt>
</event>
<event>
 6    2  0.8544106E+000  0.8805731E+02  0.7546771E-02  0.1307626E+00
          2   -1    0    0  502    0 -0.00000000000E+00  0.00000000000E+00  0.24196711463E+04  0.24196711463E+04  0.00000000000E+00 0. -1.
         21   -1    0    0  501  502  0.00000000000E+00 -0.00000000000E+00 -0.14997316852E+01  0.14997316852E+01  0.00000000000E+00 0.  1.
         24    2    1    2    0    0  0.19545236223E+02 -0.21480529566E+02  0.15364523153E+04  0.15389736214E+04  0.83130384342E+02 0.  0.
        -13    1    3    3    0    0  0.27594866962E+02 -0.38487203558E+02  0.47508113248E+03  0.47743567520E+03  0.00000000000E+00 0.  1.
         14    1    3    3    0    0 -0.80496307382E+01  0.17006673992E+02  0.10613711828E+04  0.10615379462E+04  0.00000000000E+00 0. -1.
          1    1    1    2  501    0 -0.19545236223E+02  0.21480529566E+02  0.88171909933E+03  0.88219725659E+03  0.00000000000E+00 0. -1.
<mgrwt>
<rscale>  1 0.88057312E+02</rscale>
<asrwt>0</asrwt>
<pdfrwt beam="1">  1       21 0.23072989E-03 0.88057312E+02</pdfrwt>
<pdfrwt beam="2">  1        2 0.37225398E+00 0.88057312E+02</pdfrwt>
<totfact> 0.20663535E+06</totfact>
</mgrwt>
</event>
<event>
 6    2  0.8544106E+000  0.9471516E+02  0.7546771E-02  0.1291819E+00
         21   -1    0    0  501  502  0.00000000000E+00  0.00000000000E+00  0.66846236231E+01  0.66846236231E+01  0.00000000000E+00 0. -1.
          2   -1    0    0  502    0 -0.00000000000E+00 -0.00000000000E+00 -0.12939730223E+04  0.12939730223E+04  0.00000000000E+00 0. -1.
         24    2    1    2    0    0  0.47845789771E+02 -0.18430063519E+02 -0.11534818804E+04  0.11573639923E+04  0.79637148244E+02 0.  0.
        -13    1    3    3    0    0 -0.21927235145E+02  0.19481076251E+01 -0.27649119920E+03  0.27736615150E+03  0.00000000000E+00 0.  1.
         14    1    3    3    0    0  0.69773024915E+02 -0.20378171144E+02 -0.87699068118E+03  0.87999784076E+03  0.00000000000E+00 0. -1.
          1    1    1    2  501    0 -0.47845789771E+02  0.18430063519E+02 -0.13380651826E+03  0.14329365363E+03  0.00000000000E+00 0. -1.
<mgrwt>
<rscale>  1 0.94715164E+02</rscale>
<asrwt>0</asrwt>
<pdfrwt beam="1">  1       21 0.10284036E-02 0.94715164E+02</pdfrwt>
<pdfrwt beam="2">  1        2 0.19907278E+00 0.94715164E+02</pdfrwt>
<totfact> 0.78549750E+05</totfact>
</mgrwt>
</event>
<event>
 6    2  0.8544106E+000  0.8522481E+02  0.7546771E-02  0.1314846E+00
         21   -1    0    0  501  502  0.00000000000E+00  0.00000000000E+00  0.37949634616E+02  0.37949634616E+02  0.00000000000E+00 0. -1.
          2   -1    0    0  502    0 -0.00000000000E+00 -0.00000000000E+00 -0.14070938658E+03  0.14070938658E+03  0.00000000000E+00 0. -1.
         24    2    1    2    0    0 -0.26057139284E+02 -0.85597786787E+01 -0.11931219007E+03  0.14662423502E+03  0.80690911976E+02 0.  0.
        -13    1    3    3    0    0 -0.15553668629E+02 -0.44805430720E+02 -0.63710423392E+02  0.79425822493E+02  0.00000000000E+00 0.  1.
         14    1    3    3    0    0 -0.10503470655E+02  0.36245652042E+02 -0.55601766679E+02  0.67198412523E+02  0.00000000000E+00 0. -1.
          1    1    1    2  501    0  0.26057139284E+02  0.85597786787E+01  0.16552438103E+02  0.32034786184E+02  0.00000000000E+00 0. -1.
<mgrwt>
<rscale>  1 0.85224806E+02</rscale>
<asrwt>0</asrwt>
<pdfrwt beam="1">  1       21 0.58384052E-02 0.85224806E+02</pdfrwt>
<pdfrwt beam="2">  1        2 0.21647598E-01 0.85224806E+02</pdfrwt>
<totfact> 0.59998952E+05</totfact>
</mgrwt>
</event>
<event>
 6    2  0.8544106E+000  0.8664699E+02  0.7546771E-02  0.1311181E+00
          2   -1    0    0  502    0 -0.00000000000E+00  0.00000000000E+00  0.39860030302E+04  0.39860030302E+04  0.00000000000E+00 0. -1.
         21   -1    0    0  501  502  0.00000000000E+00 -0.00000000000E+00 -0.87552709065E+00  0.87552709065E+00  0.00000000000E+00 0.  1.
         24    2    1    2    0    0 -0.29618991221E+02  0.28445872743E+01  0.26384389936E+04  0.26398613644E+04  0.81377662460E+02 0.  0.
        -11    1    3    3    0    0  0.17904278828E+02 -0.29095566615E+01  0.17124686226E+03  0.17220486797E+03  0.00000000000E+00 0.  1.
         12    1    3    3    0    0 -0.47523270049E+02  0.57541439358E+01  0.24671921313E+04  0.24676564964E+04  0.00000000000E+00 0. -1.
          1    1    1    2  501    0  0.29618991221E+02 -0.28445872743E+01  0.13466885095E+04  0.13470171929E+04  0.00000000000E+00 0. -1.
<mgrwt>
<rscale>  1 0.86646986E+02</rscale>
<asrwt>0</asrwt>
<pdfrwt beam="1">  1       21 0.13469967E-03 0.86646986E+02</pdfrwt>
<pdfrwt beam="2">  1        2 0.61321670E+00 0.86646986E+02</pdfrwt>
<totfact> 0.52243095E+05</totfact>
</mgrwt>
</event>
<event>
 6    2  0.8544106E+000  0.8528693E+02  0.7546771E-02  0.1314684E+00
         21   -1    0    0  501  502  0.00000000000E+00  0.00000000000E+00  0.36764775747E+01  0.36764775747E+01  0.00000000000E+00 0.  1.
          2   -1    0    0  502    0 -0.00000000000E+00 -0.00000000000E+00 -0.96623539956E+03  0.96623539956E+03  0.00000000000E+00 0. -1.
         24    2    1    2    0    0  0.14136024639E+02 -0.14993356892E+02 -0.52621817253E+03  0.53308482031E+03  0.82760090594E+02 0.  0.
        -11    1    3    3    0    0 -0.97076471638E+01 -0.60564000478E+00 -0.46626608329E+01  0.10786362655E+02  0.00000000000E+00 0.  1.
         12    1    3    3    0    0  0.23843671803E+02 -0.14387716887E+02 -0.52155551170E+03  0.52229845765E+03  0.00000000000E+00 0. -1.
          1    1    1    2  501    0 -0.14136024639E+02  0.14993356892E+02 -0.43634074945E+03  0.43682705683E+03  0.00000000000E+00 0. -1.
<mgrwt>
<rscale>  1 0.85286931E+02</rscale>
<asrwt>0</asrwt>
<pdfrwt beam="1">  1       21 0.56561328E-03 0.85286931E+02</pdfrwt>
<pdfrwt beam="2">  1        2 0.14865125E+00 0.85286931E+02</pdfrwt>
<totfact> 0.29962229E+06</totfact>
</mgrwt>
</event>
<event>
 6    2  0.8544106E+000  0.8478817E+02  0.7546771E-02  0.1315987E+00
         21   -1    0    0  501  502  0.00000000000E+00  0.00000000000E+00  0.13030113082E+01  0.13030113082E+01  0.00000000000E+00 0. -1.
         -3   -1    0    0    0  501 -0.00000000000E+00 -0.00000000000E+00 -0.24949285342E+04  0.24949285342E+04  0.00000000000E+00 0.  1.
         24    2    1    2    0    0 -0.21085295546E+02  0.19971223110E+02 -0.19202533792E+04  0.19221243651E+04  0.79659243784E+02 0.  0.
        -11    1    3    3    0    0 -0.12315551274E+02 -0.94101118522E+00 -0.17805249448E+04  0.17805677851E+04  0.00000000000E+00 0.  1.
         12    1    3    3    0    0 -0.87697442726E+01  0.20912234295E+02 -0.13972843437E+03  0.14155657996E+03  0.00000000000E+00 0. -1.
         -4    1    1    2    0  502  0.21085295546E+02 -0.19971223110E+02 -0.57337214367E+03  0.57410718039E+03  0.00000000000E+00 0.  1.
<mgrwt>
<rscale>  1 0.84788175E+02</rscale>
<asrwt>0</asrwt>
<pdfrwt beam="1">  1       21 0.20046694E-03 0.84788175E+02</pdfrwt>
<pdfrwt beam="2">  1       -3 0.38382816E+00 0.84788175E+02</pdfrwt>
<totfact> 0.34816979E+04</totfact>
</mgrwt>
</event>
<event>
 6    2  0.8544106E+000  0.7481175E+02  0.7546771E-02  0.1344455E+00
         -1   -1    0    0    0  501 -0.00000000000E+00  0.00000000000E+00  0.90050264889E+02  0.90050264889E+02  0.00000000000E+00 0.  1.
         21   -1    0    0  501  502  0.00000000000E+00 -0.00000000000E+00 -0.33501766626E+02  0.33501766626E+02  0.00000000000E+00 0. -1.
         24    2    1    2    0    0  0.25685863369E+02  0.91490936987E+01  0.60222083573E+02  0.96039039647E+02  0.69665833046E+02 0.  0.
        -13    1    3    3    0    0  0.11293295538E+02  0.24927506668E+02  0.68007872060E+02  0.73307501491E+02  0.00000000000E+00 0.  1.
         14    1    3    3    0    0  0.14392567831E+02 -0.15778412969E+02 -0.77857884866E+01  0.22731538156E+02  0.00000000000E+00 0. -1.
         -2    1    1    2    0  502 -0.25685863369E+02 -0.91490936987E+01 -0.36735853094E+01  0.27512991868E+02  0.00000000000E+00 0.  1.
<mgrwt>
<rscale>  1 0.74811749E+02</rscale>
<asrwt>0</asrwt>
<pdfrwt beam="1">  1       21 0.51541180E-02 0.74811749E+02</pdfrwt>
<pdfrwt beam="2">  1       -1 0.13853887E-01 0.74811749E+02</pdfrwt>
<totfact> 0.75783208E+05</totfact>
</mgrwt>
</event>
<event>
 6    2  0.8544106E+000  0.1083824E+03  0.7546771E-02  0.1263595E+00
          4   -1    0    0  502    0 -0.00000000000E+00  0.00000000000E+00  0.45456182101E+01  0.45456182101E+01  0.00000000000E+00 0. -1.
         21   -1    0    0  501  502  0.00000000000E+00 -0.00000000000E+00 -0.17976850912E+04  0.17976850912E+04  0.00000000000E+00 0. -1.
         24    2    1    2    0    0  0.28920685115E+02  0.66379564014E+02 -0.10683517298E+04  0.10738352638E+04  0.80648016774E+02 0.  0.
        -11    1    3    3    0    0 -0.92298873180E+01 -0.43108526423E+01 -0.47060546814E+03  0.47071571135E+03  0.00000000000E+00 0.  1.
         12    1    3    3    0    0  0.38150572433E+02  0.70690416656E+02 -0.59774626166E+03  0.60311955242E+03  0.00000000000E+00 0. -1.
          3    1    1    2  501    0 -0.28920685115E+02 -0.66379564014E+02 -0.72478774316E+03  0.72839544561E+03  0.00000000000E+00 0. -1.
<mgrwt>
<rscale>  1 0.10838245E+03</rscale>
<asrwt>0</asrwt>
<pdfrwt beam="1">  1       21 0.27656705E+00 0.10838245E+03</pdfrwt>
<pdfrwt beam="2">  1        4 0.69932560E-03 0.10838245E+03</pdfrwt>
<totfact> 0.10038985E+04</totfact>
</mgrwt>
</event>
<event>
 6    2  0.8544106E+000  0.8219489E+02  0.7546771E-02  0.1322936E+00
         -3   -1    0    0    0  501 -0.00000000000E+00  0.00000000000E+00  0.15906522328E+03  0.15906522328E+03  0.00000000000E+00 0.  1.
         21   -1    0    0  501  502  0.00000000000E+00 -0.00000000000E+00 -0.50756296585E+02  0.50756296585E+02  0.00000000000E+00 0.  1.
         24    2    1    2    0    0  0.18802494100E+02 -0.14158043773E+02  0.14473908825E+03  0.16644940141E+03  0.78752876617E+02 0.  0.
        -11    1    3    3    0    0  0.41145688957E+02 -0.22708595772E+02  0.13027660025E+03  0.13849418982E+03  0.00000000000E+00 0.  1.
         12    1    3    3    0    0 -0.22343194857E+02  0.85505519991E+01  0.14462487998E+02  0.27955211589E+02  0.00000000000E+00 0. -1.
         -4    1    1    2    0  502 -0.18802494100E+02  0.14158043773E+02 -0.36430161556E+02  0.43372118451E+02  0.00000000000E+00 0.  1.
<mgrwt>
<rscale>  1 0.82194888E+02</rscale>
<asrwt>0</asrwt>
<pdfrwt beam="1">  1       21 0.78086611E-02 0.82194888E+02</pdfrwt>
<pdfrwt beam="2">  1       -3 0.24471573E-01 0.82194888E+02</pdfrwt>
<totfact> 0.87452792E+04</totfact>
</mgrwt>
</event>
<event>
 6    2  0.8544106E+000  0.1167424E+03  0.7546771E-02  0.1248570E+00
         21   -1    0    0  501  502  0.00000000000E+00  0.00000000000E+00  0.74661345640E+01  0.74661345640E+01  0.00000000000E+00 0.  1.
          2   -1    0    0  502    0 -0.00000000000E+00 -0.00000000000E+00 -0.14893179990E+04  0.14893179990E+04  0.00000000000E+00 0. -1.
         24    2    1    2    0    0  0.44782506100E+02  0.71072909187E+02 -0.62380277726E+03  0.63463271573E+03  0.81067550118E+02 0.  0.
        -13    1    3    3    0    0  0.26261404401E+02 -0.13836637365E+02 -0.14507585907E+03  0.14808145995E+03  0.00000000000E+00 0.  1.
         14    1    3    3    0    0  0.18521101699E+02  0.84909546552E+02 -0.47872691819E+03  0.48655125578E+03  0.00000000000E+00 0. -1.
          1    1    1    2  501    0 -0.44782506100E+02 -0.71072909187E+02 -0.85804908715E+03  0.86215141781E+03  0.00000000000E+00 0. -1.
<mgrwt>
<rscale>  1 0.11674236E+03</rscale>
<asrwt>0</asrwt>
<pdfrwt beam="1">  1       21 0.11486369E-02 0.11674236E+03</pdfrwt>
<pdfrwt beam="2">  1        2 0.22912568E+00 0.11674236E+03</pdfrwt>
<totfact> 0.52710620E+05</totfact>
</mgrwt>
</event>
<event>
 6    2  0.8544106E+000  0.1373231E+03  0.7546771E-02  0.1216977E+00
         21   -1    0    0  501  502  0.00000000000E+00  0.00000000000E+00  0.35584817372E+02  0.35584817372E+02  0.00000000000E+00 0. -1.
          2   -1    0    0  502    0 -0.00000000000E+00 -0.00000000000E+00 -0.56014519625E+03  0.56014519625E+03  0.00000000000E+00 0. -1.
         24    2    1    2    0    0  0.70182302184E+02  0.86060423852E+02 -0.42482465319E+03  0.44646793849E+03  0.80781693777E+02 0.  0.
        -13    1    3    3    0    0  0.19531540177E+02 -0.14600959343E+02 -0.86408339178E+02  0.89783462592E+02  0.00000000000E+00 0.  1.
         14    1    3    3    0    0  0.50650762007E+02  0.10066138319E+03 -0.33841631401E+03  0.35668447590E+03  0.00000000000E+00 0. -1.
          1    1    1    2  501    0 -0.70182302184E+02 -0.86060423852E+02 -0.99735725683E+02  0.14926207513E+03  0.00000000000E+00 0. -1.
<mgrwt>
<rscale>  1 0.13732310E+03</rscale>
<asrwt>0</asrwt>
<pdfrwt beam="1">  1       21 0.54745877E-02 0.13732310E+03</pdfrwt>
<pdfrwt beam="2">  1        2 0.86176178E-01 0.13732310E+03</pdfrwt>
<totfact> 0.15682802E+05</totfact>
</mgrwt>
</event>
<event>
 6    2  0.8544106E+000  0.8714179E+02  0.7546771E-02  0.1309925E+00
         21   -1    0    0  501  502  0.00000000000E+00  0.00000000000E+00  0.83829039226E+01  0.83829039226E+01  0.00000000000E+00 0. -1.
          2   -1    0    0  502    0 -0.00000000000E+00 -0.00000000000E+00 -0.75829395990E+03  0.75829395990E+03  0.00000000000E+00 0. -1.
         24    2    1    2    0    0 -0.11781712767E+02 -0.19669780709E+02 -0.73306233434E+03  0.73822359600E+03  0.84071294973E+02 0.  0.
        -13    1    3    3    0    0 -0.11547364772E+02  0.40525097113E+01 -0.13312074819E+02  0.18082472290E+02  0.00000000000E+00 0.  1.
         14    1    3    3    0    0 -0.23434799493E+00 -0.23722290420E+02 -0.71975025952E+03  0.72014112371E+03  0.00000000000E+00 0. -1.
          1    1    1    2  501    0  0.11781712767E+02  0.19669780709E+02 -0.16848721639E+02  0.28453267821E+02  0.00000000000E+00 0. -1.
<mgrwt>
<rscale>  1 0.87141791E+02</rscale>
<asrwt>0</asrwt>
<pdfrwt beam="1">  1       21 0.12896775E-02 0.87141791E+02</pdfrwt>
<pdfrwt beam="2">  1        2 0.11666061E+00 0.87141791E+02</pdfrwt>
<totfact> 0.11303861E+06</totfact>
</mgrwt>
</event>
<event>
 6    2  0.8544106E+000  0.8691445E+02  0.7546771E-02  0.1310501E+00
         21   -1    0    0  501  502  0.00000000000E+00  0.00000000000E+00  0.21315201685E+02  0.21315201685E+02  0.00000000000E+00 0. -1.
          2   -1    0    0  502    0 -0.00000000000E+00 -0.00000000000E+00 -0.16805938262E+03  0.16805938262E+03  0.00000000000E+00 0. -1.
         24    2    1    2    0    0  0.31753027280E+02  0.71385852338E+01 -0.10125436853E+03  0.13344125638E+03  0.80590989672E+02 0.  0.
        -13    1    3    3    0    0  0.60528617646E+00 -0.29751952027E+02 -0.12242100013E+02  0.32177850045E+02  0.00000000000E+00 0.  1.
         14    1    3    3    0    0  0.31147741103E+02  0.36890537261E+02 -0.89012268519E+02  0.10126340633E+03  0.00000000000E+00 0. -1.
          1    1    1    2  501    0 -0.31753027280E+02 -0.71385852338E+01 -0.45489812403E+02  0.55933327927E+02  0.00000000000E+00 0. -1.
<mgrwt>
<rscale>  1 0.86914451E+02</rscale>
<asrwt>0</asrwt>
<pdfrwt beam="1">  1       21 0.32792617E-02 0.86914451E+02</pdfrwt>
<pdfrwt beam="2">  1        2 0.25855290E-01 0.86914451E+02</pdfrwt>
<totfact> 0.12837019E+06</totfact>
</mgrwt>
</event>
<event>
 6    2  0.8544106E+000  0.8896389E+02  0.7546771E-02  0.1305380E+00
         -1   -1    0    0    0  501 -0.00000000000E+00  0.00000000000E+00  0.29983428367E+03  0.29983428367E+03  0.00000000000E+00 0.  1.
         21   -1    0    0  501  502  0.00000000000E+00 -0.00000000000E+00 -0.20066359882E+02  0.20066359882E+02  0.00000000000E+00 0. -1.
         24    2    1    2    0    0 -0.12345850182E+02  0.48738345936E+02  0.10290138472E+03  0.13602672201E+03  0.73394330448E+02 0.  0.
        -11    1    3    3    0    0 -0.27767117094E+02  0.10030779747E+02  0.86238255765E+02  0.91151884739E+02  0.00000000000E+00 0.  1.
         12    1    3    3    0    0  0.15421266912E+02  0.38707566189E+02  0.16663128954E+02  0.44874837269E+02  0.00000000000E+00 0. -1.
         -2    1    1    2    0  502  0.12345850182E+02 -0.48738345936E+02  0.17686653907E+03  0.18387392154E+03  0.00000000000E+00 0.  1.
<mgrwt>
<rscale>  1 0.88963892E+02</rscale>
<asrwt>0</asrwt>
<pdfrwt beam="1">  1       21 0.30871325E-02 0.88963892E+02</pdfrwt>
<pdfrwt beam="2">  1       -1 0.46128348E-01 0.88963892E+02</pdfrwt>
<totfact> 0.25122870E+05</totfact>
</mgrwt>
</event>
<event>
 6    2  0.8544106E+000  0.8627745E+02  0.7546771E-02  0.1312125E+00
          2   -1    0    0  502    0 -0.00000000000E+00  0.00000000000E+00  0.18189278733E+04  0.18189278733E+04  0.00000000000E+00 0. -1.
         21   -1    0    0  501  502  0.00000000000E+00 -0.00000000000E+00 -0.18358219367E+01  0.18358219367E+01  0.00000000000E+00 0. -1.
         24    2    1    2    0    0 -0.24715720898E+02  0.31932898385E+01  0.15828593940E+04  0.15852090270E+04  0.82599843241E+02 0.  0.
        -13    1    3    3    0    0 -0.12618681631E+02 -0.24010912536E+02  0.17986767039E+03  0.18190144007E+03  0.00000000000E+00 0.  1.
         14    1    3    3    0    0 -0.12097039267E+02  0.27204202374E+02  0.14029917236E+04  0.14033075869E+04  0.00000000000E+00 0. -1.
          1    1    1    2  501    0  0.24715720898E+02 -0.31932898385E+01  0.23423265743E+03  0.23555466832E+03  0.00000000000E+00 0. -1.
<mgrwt>
<rscale>  1 0.86277448E+02</rscale>
<asrwt>0</asrwt>
<pdfrwt beam="1">  1       21 0.28243560E-03 0.86277448E+02</pdfrwt>
<pdfrwt beam="2">  1        2 0.27983362E+00 0.86277448E+02</pdfrwt>
<totfact> 0.30659709E+06</totfact>
</mgrwt>
</event>
<event>
 6    2  0.8544106E+000  0.8824778E+02  0.7546771E-02  0.1307151E+00
         21   -1    0    0  501  502  0.00000000000E+00  0.00000000000E+00  0.43404118233E+02  0.43404118233E+02  0.00000000000E+00 0.  1.
         -1   -1    0    0    0  501 -0.00000000000E+00 -0.00000000000E+00 -0.18541387327E+03  0.18541387327E+03  0.00000000000E+00 0.  1.
         24    2    1    2    0    0  0.35991009984E+02  0.50703951190E+01 -0.16407255541E+03  0.18629942066E+03  0.80415228606E+02 0.  0.
        -13    1    3    3    0    0  0.18308036642E+02 -0.49976770861E+01 -0.16484754952E+03  0.16593635998E+03  0.00000000000E+00 0.  1.
         14    1    3    3    0    0  0.17682973342E+02  0.10068072205E+02  0.77499410837E+00  0.20363060674E+02  0.00000000000E+00 0. -1.
         -2    1    1    2    0  502 -0.35991009984E+02 -0.50703951190E+01  0.22062800374E+02  0.42518570845E+02  0.00000000000E+00 0.  1.
<mgrwt>
<rscale>  1 0.88247780E+02</rscale>
<asrwt>0</asrwt>
<pdfrwt beam="1">  1       21 0.66775565E-02 0.88247780E+02</pdfrwt>
<pdfrwt beam="2">  1       -1 0.28525212E-01 0.88247780E+02</pdfrwt>
<totfact> 0.15902063E+05</totfact>
</mgrwt>
</event>
<event>
 6    2  0.8544106E+000  0.9121334E+02  0.7546771E-02  0.1299940E+00
         21   -1    0    0  501  502  0.00000000000E+00  0.00000000000E+00  0.52537076649E+01  0.52537076649E+01  0.00000000000E+00 0.  1.
          2   -1    0    0  502    0 -0.00000000000E+00 -0.00000000000E+00 -0.34333250722E+04  0.34333250722E+04  0.00000000000E+00 0. -1.
         24    2    1    2    0    0  0.34462292477E+02  0.24339807930E+02 -0.40219967108E+03  0.41241295805E+03  0.80869009515E+02 0.  0.
        -13    1    3    3    0    0  0.35110333250E+02 -0.13931900523E+02 -0.86325490124E+02  0.94228040404E+02  0.00000000000E+00 0.  1.
         14    1    3    3    0    0 -0.64804077314E+00  0.38271708453E+02 -0.31587418096E+03  0.31818491765E+03  0.00000000000E+00 0. -1.
          1    1    1    2  501    0 -0.34462292477E+02 -0.24339807930E+02 -0.30258716935E+04  0.30261658219E+04  0.00000000000E+00 0. -1.
<mgrwt>
<rscale>  1 0.91213335E+02</rscale>
<asrwt>0</asrwt>
<pdfrwt beam="1">  1       21 0.80826313E-03 0.91213335E+02</pdfrwt>
<pdfrwt beam="2">  1        2 0.52820358E+00 0.91213335E+02</pdfrwt>
<totfact> 0.81502016E+04</totfact>
</mgrwt>
</event>
<event>
 6    2  0.8544106E+000  0.8560132E+02  0.7546771E-02  0.1313867E+00
          2   -1    0    0  502    0 -0.00000000000E+00  0.00000000000E+00  0.57128563759E+03  0.57128563759E+03  0.00000000000E+00 0. -1.
         21   -1    0    0  501  502  0.00000000000E+00 -0.00000000000E+00 -0.59536484635E+01  0.59536484635E+01  0.00000000000E+00 0.  1.
         24    2    1    2    0    0  0.18202135799E+02 -0.17504721380E+02  0.49848060497E+03  0.50577712417E+03  0.81791520209E+02 0.  0.
        -13    1    3    3    0    0  0.26379140303E+02 -0.45917265125E+01  0.47417503082E+02  0.54455142953E+02  0.00000000000E+00 0.  1.
         14    1    3    3    0    0 -0.81770045044E+01 -0.12912994868E+02  0.45106310189E+03  0.45132198121E+03  0.00000000000E+00 0. -1.
          1    1    1    2  501    0 -0.18202135799E+02  0.17504721380E+02  0.66851384151E+02  0.71462161884E+02  0.00000000000E+00 0. -1.
<mgrwt>
<rscale>  1 0.85601319E+02</rscale>
<asrwt>0</asrwt>
<pdfrwt beam="1">  1       21 0.91594637E-03 0.85601319E+02</pdfrwt>
<pdfrwt beam="2">  1        2 0.87890054E-01 0.85601319E+02</pdfrwt>
<totfact> 0.26661112E+06</totfact>
</mgrwt>
</event>
<event>
 6    2  0.8544106E+000  0.8387530E+02  0.7546771E-02  0.1318400E+00
         21   -1    0    0  501  502  0.00000000000E+00  0.00000000000E+00  0.79917656281E+01  0.79917656281E+01  0.00000000000E+00 0.  1.
          2   -1    0    0  502    0 -0.00000000000E+00 -0.00000000000E+00 -0.56781876618E+03  0.56781876618E+03  0.00000000000E+00 0. -1.
         24    2    1    2    0    0 -0.23601744386E+02 -0.11941827498E+02 -0.22812757298E+03  0.24305813162E+03  0.79595327808E+02 0.  0.
        -13    1    3    3    0    0 -0.32000405957E+02 -0.21289977146E+02 -0.43679157195E+02  0.58182109634E+02  0.00000000000E+00 0.  1.
         14    1    3    3    0    0  0.83986615704E+01  0.93481496477E+01 -0.18444841579E+03  0.18487602198E+03  0.00000000000E+00 0. -1.
          1    1    1    2  501    0  0.23601744386E+02  0.11941827498E+02 -0.33169942757E+03  0.33275240019E+03  0.00000000000E+00 0. -1.
<mgrwt>
<rscale>  1 0.83875299E+02</rscale>
<asrwt>0</asrwt>
<pdfrwt beam="1">  1       21 0.12295021E-02 0.83875299E+02</pdfrwt>
<pdfrwt beam="2">  1        2 0.87356757E-01 0.83875299E+02</pdfrwt>
<totfact> 0.16899757E+06</totfact>
</mgrwt>
</event>
<event>
 6    2  0.8544106E+000  0.8278805E+02  0.7546771E-02  0.1321320E+00
          2   -1    0    0  502    0 -0.00000000000E+00  0.00000000000E+00  0.78333321147E+03  0.78333321147E+03  0.00000000000E+00 0. -1.
         21   -1    0    0  501  502  0.00000000000E+00 -0.00000000000E+00 -0.13885485708E+02  0.13885485708E+02  0.00000000000E+00 0. -1.
         24    2    1    2    0    0 -0.16951373941E+02  0.18952516792E+02  0.76724231687E+03  0.77169594655E+03  0.78786509934E+02 0.  0.
        -11    1    3    3    0    0  0.16925380570E+02 -0.23068751451E+02  0.24085026290E+03  0.24254377943E+03  0.00000000000E+00 0.  1.
         12    1    3    3    0    0 -0.33876754510E+02  0.42021268242E+02  0.52639205397E+03  0.52915216712E+03  0.00000000000E+00 0. -1.
          1    1    1    2  501    0  0.16951373941E+02 -0.18952516792E+02  0.22054088867E+01  0.25522750627E+02  0.00000000000E+00 0. -1.
<mgrwt>
<rscale>  1 0.82788049E+02</rscale>
<asrwt>0</asrwt>
<pdfrwt beam="1">  1       21 0.21362292E-02 0.82788049E+02</pdfrwt>
<pdfrwt beam="2">  1        2 0.12051277E+00 0.82788049E+02</pdfrwt>
<totfact> 0.48606854E+05</totfact>
</mgrwt>
</event>
<event>
 6    2  0.8544106E+000  0.9256096E+02  0.7546771E-02  0.1296766E+00
         21   -1    0    0  501  502  0.00000000000E+00  0.00000000000E+00  0.36128099953E+01  0.36128099953E+01  0.00000000000E+00 0. -1.
          2   -1    0    0  502    0 -0.00000000000E+00 -0.00000000000E+00 -0.12065733754E+04  0.12065733754E+04  0.00000000000E+00 0. -1.
         24    2    1    2    0    0 -0.19857232515E+02 -0.33691591757E+02 -0.88611759289E+03  0.89093878561E+03  0.83893374205E+02 0.  0.
        -13    1    3    3    0    0  0.15091226236E+02 -0.28619723374E+02 -0.12891618706E+03  0.13291432188E+03  0.00000000000E+00 0.  1.
         14    1    3    3    0    0 -0.34948458751E+02 -0.50718683835E+01 -0.75720140582E+03  0.75802446372E+03  0.00000000000E+00 0. -1.
          1    1    1    2  501    0  0.19857232515E+02  0.33691591757E+02 -0.31684297253E+03  0.31924739980E+03  0.00000000000E+00 0. -1.
<mgrwt>
<rscale>  1 0.92560960E+02</rscale>
<asrwt>0</asrwt>
<pdfrwt beam="1">  1       21 0.55581651E-03 0.92560960E+02</pdfrwt>
<pdfrwt beam="2">  1        2 0.18562681E+00 0.92560960E+02</pdfrwt>
<totfact> 0.22691701E+06</totfact>
</mgrwt>
</event>
<event>
 6    2  0.8544106E+000  0.6989038E+02  0.7546771E-02  0.1360466E+00
         21   -1    0    0  501  502  0.00000000000E+00  0.00000000000E+00  0.42990308714E+03  0.42990308714E+03  0.00000000000E+00 0. -1.
          4   -1    0    0  502    0 -0.00000000000E+00 -0.00000000000E+00 -0.48728513970E+01  0.48728513970E+01  0.00000000000E+00 0. -1.
         24    2    1    2    0    0  0.10099936824E+02  0.17967312970E+02  0.35312459099E+03  0.35997450267E+03  0.66781979285E+02 0.  0.
        -13    1    3    3    0    0  0.11856367064E+02 -0.22797762596E+02  0.19432490851E+03  0.19601653371E+03  0.00000000000E+00 0.  1.
         14    1    3    3    0    0 -0.17564302407E+01  0.40765075566E+02  0.15879968248E+03  0.16395796897E+03  0.00000000000E+00 0. -1.
          3    1    1    2  501    0 -0.10099936824E+02 -0.17967312970E+02  0.71905644756E+02  0.74801435862E+02  0.00000000000E+00 0. -1.
<mgrwt>
<rscale>  1 0.69890384E+02</rscale>
<asrwt>0</asrwt>
<pdfrwt beam="1">  1       21 0.66138907E-01 0.69890384E+02</pdfrwt>
<pdfrwt beam="2">  1        4 0.74966978E-03 0.69890384E+02</pdfrwt>
<totfact> 0.34414869E+05</totfact>
</mgrwt>
</event>
<event>
 6    2  0.8544106E+000  0.8347991E+02  0.7546771E-02  0.1319456E+00
         21   -1    0    0  501  502  0.00000000000E+00  0.00000000000E+00  0.83583127251E+03  0.83583127251E+03  0.00000000000E+00 0. -1.
          2   -1    0    0  502    0 -0.00000000000E+00 -0.00000000000E+00 -0.12853334921E+03  0.12853334921E+03  0.00000000000E+00 0. -1.
         24    2    1    2    0    0  0.15914243490E+02 -0.15796505735E+02 -0.11480969621E+03  0.14195126409E+03  0.80412078038E+02 0.  0.
        -13    1    3    3    0    0  0.11942733992E+02  0.24357459185E+02 -0.87956058520E+01  0.28518018786E+02  0.00000000000E+00 0.  1.
         14    1    3    3    0    0  0.39715094977E+01 -0.40153964920E+02 -0.10601409036E+03  0.11343324530E+03  0.00000000000E+00 0. -1.
          1    1    1    2  501    0 -0.15914243490E+02  0.15796505735E+02  0.82210761951E+03  0.82241335763E+03  0.00000000000E+00 0. -1.
<mgrwt>
<rscale>  1 0.83479908E+02</rscale>
<asrwt>0</asrwt>
<pdfrwt beam="1">  1       21 0.12858942E+00 0.83479908E+02</pdfrwt>
<pdfrwt beam="2">  1        2 0.19774362E-01 0.83479908E+02</pdfrwt>
<totfact> 0.16422219E+03</totfact>
</mgrwt>
</event>
<event>
 6    2  0.8544106E+000  0.8358627E+02  0.7546771E-02  0.1319172E+00
          2   -1    0    0  502    0 -0.00000000000E+00  0.00000000000E+00  0.85853876765E+03  0.85853876765E+03  0.00000000000E+00 0. -1.
         21   -1    0    0  501  502  0.00000000000E+00 -0.00000000000E+00 -0.68487141549E+01  0.68487141549E+01  0.00000000000E+00 0. -1.
         24    2    1    2    0    0 -0.17586574606E-01  0.28024042011E+02  0.81471927911E+03  0.81899582955E+03  0.78748446538E+02 0.  0.
        -13    1    3    3    0    0 -0.38356713026E+02  0.22553525407E+02  0.39733153349E+03  0.39981526540E+03  0.00000000000E+00 0.  1.
         14    1    3    3    0    0  0.38339126451E+02  0.54705166038E+01  0.41738774563E+03  0.41918056416E+03  0.00000000000E+00 0. -1.
          1    1    1    2  501    0  0.17586574606E-01 -0.28024042011E+02  0.36970774380E+02  0.46391652246E+02  0.00000000000E+00 0. -1.
<mgrwt>
<rscale>  1 0.83586273E+02</rscale>
<asrwt>0</asrwt>
<pdfrwt beam="1">  1       21 0.10536490E-02 0.83586273E+02</pdfrwt>
<pdfrwt beam="2">  1        2 0.13208280E+00 0.83586273E+02</pdfrwt>
<totfact> 0.13282970E+06</totfact>
</mgrwt>
</event>
<event>
 6    2  0.8544106E+000  0.8481084E+02  0.7546771E-02  0.1315928E+00
          2   -1    0    0  502    0 -0.00000000000E+00  0.00000000000E+00  0.24795465836E+04  0.24795465836E+04  0.00000000000E+00 0. -1.
         21   -1    0    0  501  502  0.00000000000E+00 -0.00000000000E+00 -0.14853406067E+01  0.14853406067E+01  0.00000000000E+00 0. -1.
         24    2    1    2    0    0  0.27041938580E+02 -0.24354345522E+01  0.22034760368E+04  0.22051075990E+04  0.80347250164E+02 0.  0.
        -13    1    3    3    0    0  0.35640361054E+00 -0.38064171699E+02  0.12706526487E+04  0.12712227034E+04  0.00000000000E+00 0.  1.
         14    1    3    3    0    0  0.26685534969E+02  0.35628737146E+02  0.93282338812E+03  0.93388489554E+03  0.00000000000E+00 0. -1.
          1    1    1    2  501    0 -0.27041938580E+02  0.24354345522E+01  0.27458520625E+03  0.27592432527E+03  0.00000000000E+00 0. -1.
<mgrwt>
<rscale>  1 0.84810839E+02</rscale>
<asrwt>0</asrwt>
<pdfrwt beam="1">  1       21 0.22851592E-03 0.84810839E+02</pdfrwt>
<pdfrwt beam="2">  1        2 0.38146539E+00 0.84810839E+02</pdfrwt>
<totfact> 0.19474583E+06</totfact>
</mgrwt>
</event>
<event>
 6    2  0.8544106E+000  0.8325570E+02  0.7546771E-02  0.1320058E+00
          2   -1    0    0  502    0 -0.00000000000E+00  0.00000000000E+00  0.14059904707E+04  0.14059904707E+04  0.00000000000E+00 0. -1.
         21   -1    0    0  501  502  0.00000000000E+00 -0.00000000000E+00 -0.21367735391E+01  0.21367735391E+01  0.00000000000E+00 0.  1.
         24    2    1    2    0    0 -0.81560083775E+00 -0.20976533247E+02  0.12602782272E+04  0.12630252259E+04  0.80565694646E+02 0.  0.
        -13    1    3    3    0    0 -0.25702294449E+02 -0.41353063694E+02  0.89919632981E+03  0.90051358866E+03  0.00000000000E+00 0.  1.
         14    1    3    3    0    0  0.24886693611E+02  0.20376530447E+02  0.36108189734E+03  0.36251163719E+03  0.00000000000E+00 0. -1.
          1    1    1    2  501    0  0.81560083775E+00  0.20976533247E+02  0.14357547005E+03  0.14510201843E+03  0.00000000000E+00 0. -1.
<mgrwt>
<rscale>  1 0.83255698E+02</rscale>
<asrwt>0</asrwt>
<pdfrwt beam="1">  1       21 0.32873551E-03 0.83255698E+02</pdfrwt>
<pdfrwt beam="2">  1        2 0.21630549E+00 0.83255698E+02</pdfrwt>
<totfact> 0.39272107E+06</totfact>
</mgrwt>
</event>
<event>
 6    2  0.8544106E+000  0.8843160E+02  0.7546771E-02  0.1306695E+00
         21   -1    0    0  501  502  0.00000000000E+00  0.00000000000E+00  0.17996881050E+01  0.17996881050E+01  0.00000000000E+00 0. -1.
          2   -1    0    0  502    0 -0.00000000000E+00 -0.00000000000E+00 -0.21149192975E+04  0.21149192975E+04  0.00000000000E+00 0. -1.
         24    2    1    2    0    0  0.30422329372E+02 -0.17211188812E+02 -0.15070946653E+04  0.15096868810E+04  0.81230569189E+02 0.  0.
        -11    1    3    3    0    0 -0.12830320928E+02 -0.69495502176E+01 -0.54719882679E+02  0.56631960444E+02  0.00000000000E+00 0.  1.
         12    1    3    3    0    0  0.43252650301E+02 -0.10261638594E+02 -0.14523747826E+04  0.14530549206E+04  0.00000000000E+00 0. -1.
          1    1    1    2  501    0 -0.30422329372E+02  0.17211188812E+02 -0.60602494410E+03  0.60703210460E+03  0.00000000000E+00 0. -1.
<mgrwt>
<rscale>  1 0.88431604E+02</rscale>
<asrwt>0</asrwt>
<pdfrwt beam="1">  1       21 0.27687461E-03 0.88431604E+02</pdfrwt>
<pdfrwt beam="2">  1        2 0.32537277E+00 0.88431604E+02</pdfrwt>
<totfact> 0.22485244E+06</totfact>
</mgrwt>
</event>
<event>
 6    2  0.8544106E+000  0.9343501E+02  0.7546771E-02  0.1294740E+00
         21   -1    0    0  501  502  0.00000000000E+00  0.00000000000E+00  0.34475875992E+02  0.34475875992E+02  0.00000000000E+00 0. -1.
          2   -1    0    0  502    0 -0.00000000000E+00 -0.00000000000E+00 -0.16530986348E+04  0.16530986348E+04  0.00000000000E+00 0. -1.
         24    2    1    2    0    0 -0.18313258327E+02  0.29486576542E+02 -0.16426843861E+04  0.16453395071E+04  0.86748300522E+02 0.  0.
        -11    1    3    3    0    0 -0.23445170190E+02 -0.26718965779E+02 -0.49987659086E+03  0.50113888816E+03  0.00000000000E+00 0.  1.
         12    1    3    3    0    0  0.51319118628E+01  0.56205542321E+02 -0.11428077952E+04  0.11442006189E+04  0.00000000000E+00 0. -1.
          1    1    1    2  501    0  0.18313258327E+02 -0.29486576542E+02  0.24061627312E+02  0.42235003678E+02  0.00000000000E+00 0. -1.
<mgrwt>
<rscale>  1 0.93435011E+02</rscale>
<asrwt>0</asrwt>
<pdfrwt beam="1">  1       21 0.53039812E-02 0.93435011E+02</pdfrwt>
<pdfrwt beam="2">  1        2 0.25432285E+00 0.93435011E+02</pdfrwt>
<totfact> 0.36365765E+04</totfact>
</mgrwt>
</event>
<event>
 6    2  0.8544106E+000  0.9312275E+02  0.7546771E-02  0.1295461E+00
         21   -1    0    0  501  502  0.00000000000E+00  0.00000000000E+00  0.97334237739E+01  0.97334237739E+01  0.00000000000E+00 0.  1.
          2   -1    0    0  502    0 -0.00000000000E+00 -0.00000000000E+00 -0.11730517371E+04  0.11730517371E+04  0.00000000000E+00 0. -1.
         24    2    1    2    0    0  0.23166845609E+02  0.38198425712E+02 -0.11069501973E+04  0.11108602905E+04  0.81706936168E+02 0.  0.
        -11    1    3    3    0    0 -0.19688258668E+02 -0.13058730491E+02 -0.42151644265E+03  0.42217800676E+03  0.00000000000E+00 0.  1.
         12    1    3    3    0    0  0.42855104277E+02  0.51257156203E+02 -0.68543375462E+03  0.68868228378E+03  0.00000000000E+00 0. -1.
          1    1    1    2  501    0 -0.23166845609E+02 -0.38198425712E+02 -0.56368116014E+02  0.71924870283E+02  0.00000000000E+00 0. -1.
<mgrwt>
<rscale>  1 0.93122746E+02</rscale>
<asrwt>0</asrwt>
<pdfrwt beam="1">  1       21 0.14974484E-02 0.93122746E+02</pdfrwt>
<pdfrwt beam="2">  1        2 0.18046967E+00 0.93122746E+02</pdfrwt>
<totfact> 0.50449098E+05</totfact>
</mgrwt>
</event>
<event>
 6    2  0.8544106E+000  0.9709572E+02  0.7546771E-02  0.1286525E+00
         21   -1    0    0  501  502  0.00000000000E+00  0.00000000000E+00  0.11745238262E+03  0.11745238262E+03  0.00000000000E+00 0. -1.
          2   -1    0    0  502    0 -0.00000000000E+00 -0.00000000000E+00 -0.14471775194E+03  0.14471775194E+03  0.00000000000E+00 0. -1.
         24    2    1    2    0    0 -0.48419520821E+02  0.25107826074E+02 -0.12013608730E+03  0.15446765927E+03  0.80328857583E+02 0.  0.
        -11    1    3    3    0    0 -0.19228220686E+02 -0.10752479882E+02  0.36468064103E+01  0.22330237154E+02  0.00000000000E+00 0.  1.
         12    1    3    3    0    0 -0.29191300135E+02  0.35860305956E+02 -0.12378289371E+03  0.13213742211E+03  0.00000000000E+00 0. -1.
          1    1    1    2  501    0  0.48419520821E+02 -0.25107826074E+02  0.92870717979E+02  0.10770247529E+03  0.00000000000E+00 0. -1.
<mgrwt>
<rscale>  1 0.97095717E+02</rscale>
<asrwt>0</asrwt>
<pdfrwt beam="1">  1       21 0.18069597E-01 0.97095717E+02</pdfrwt>
<pdfrwt beam="2">  1        2 0.22264269E-01 0.97095717E+02</pdfrwt>
<totfact> 0.82235607E+04</totfact>
</mgrwt>
</event>
<event>
 6    2  0.8544106E+000  0.9532688E+02  0.7546771E-02  0.1290442E+00
          2   -1    0    0  502    0 -0.00000000000E+00  0.00000000000E+00  0.14543030586E+04  0.14543030586E+04  0.00000000000E+00 0. -1.
         21   -1    0    0  501  502  0.00000000000E+00 -0.00000000000E+00 -0.52593421650E+01  0.52593421650E+01  0.00000000000E+00 0.  1.
         24    2    1    2    0    0  0.43631733956E+02 -0.10456982942E+02  0.47420073471E+03  0.48368745195E+03  0.84107893072E+02 0.  0.
        -13    1    3    3    0    0  0.59114071951E+02  0.11154339871E+02  0.40695737478E+03  0.41137962721E+03  0.00000000000E+00 0.  1.
         14    1    3    3    0    0 -0.15482337995E+02 -0.21611322813E+02  0.67243359929E+02  0.72307824736E+02  0.00000000000E+00 0. -1.
          1    1    1    2  501    0 -0.43631733956E+02  0.10456982942E+02  0.97484298169E+03  0.97587494878E+03  0.00000000000E+00 0. -1.
<mgrwt>
<rscale>  1 0.95326882E+02</rscale>
<asrwt>0</asrwt>
<pdfrwt beam="1">  1       21 0.80913072E-03 0.95326882E+02</pdfrwt>
<pdfrwt beam="2">  1        2 0.22373861E+00 0.95326882E+02</pdfrwt>
<totfact> 0.94204308E+05</totfact>
</mgrwt>
</event>
<event>
 6    2  0.8544106E+000  0.8629019E+02  0.7546771E-02  0.1312093E+00
          4   -1    0    0  502    0 -0.00000000000E+00  0.00000000000E+00  0.71316778435E+01  0.71316778435E+01  0.00000000000E+00 0. -1.
         21   -1    0    0  501  502  0.00000000000E+00 -0.00000000000E+00 -0.76771622784E+03  0.76771622784E+03  0.00000000000E+00 0. -1.
         24    2    1    2    0    0 -0.22613859930E+02  0.22941498912E+02 -0.27555920202E+03  0.28875399787E+03  0.80051848416E+02 0.  0.
        -11    1    3    3    0    0  0.26289840335E+02  0.13282566216E+02 -0.52553919646E+02  0.60245304716E+02  0.00000000000E+00 0.  1.
         12    1    3    3    0    0 -0.48903700266E+02  0.96589326959E+01 -0.22300528237E+03  0.22850869315E+03  0.00000000000E+00 0. -1.
          3    1    1    2  501    0  0.22613859930E+02 -0.22941498912E+02 -0.48502534799E+03  0.48609390782E+03  0.00000000000E+00 0. -1.
<mgrwt>
<rscale>  1 0.86290193E+02</rscale>
<asrwt>0</asrwt>
<pdfrwt beam="1">  1       21 0.11811024E+00 0.86290193E+02</pdfrwt>
<pdfrwt beam="2">  1        4 0.10971807E-02 0.86290193E+02</pdfrwt>
<totfact> 0.54934361E+04</totfact>
</mgrwt>
</event>
<event>
 6    2  0.8544106E+000  0.9419107E+02  0.7546771E-02  0.1293008E+00
         21   -1    0    0  501  502  0.00000000000E+00  0.00000000000E+00  0.65615412695E+02  0.65615412695E+02  0.00000000000E+00 0.  1.
         -3   -1    0    0    0  501 -0.00000000000E+00 -0.00000000000E+00 -0.88383722264E+02  0.88383722264E+02  0.00000000000E+00 0.  1.
         24    2    1    2    0    0 -0.55338495303E+02 -0.10740224931E+02 -0.25435511493E+02  0.97564965698E+02  0.75460292823E+02 0.  0.
        -13    1    3    3    0    0 -0.49925321006E+02 -0.75456768622E+00 -0.49900657102E+02  0.70591661187E+02  0.00000000000E+00 0.  1.
         14    1    3    3    0    0 -0.54131742968E+01 -0.99856572444E+01  0.24465145609E+02  0.26973304511E+02  0.00000000000E+00 0. -1.
         -4    1    1    2    0  502  0.55338495303E+02  0.10740224931E+02  0.26672019240E+01  0.56434169260E+02  0.00000000000E+00 0.  1.
<mgrwt>
<rscale>  1 0.94191068E+02</rscale>
<asrwt>0</asrwt>
<pdfrwt beam="1">  1       21 0.10094679E-01 0.94191068E+02</pdfrwt>
<pdfrwt beam="2">  1       -3 0.13597496E-01 0.94191068E+02</pdfrwt>
<totfact> 0.15826680E+05</totfact>
</mgrwt>
</event>
<event>
 6    2  0.8544106E+000  0.9117014E+02  0.7546771E-02  0.1300043E+00
         21   -1    0    0  501  502  0.00000000000E+00  0.00000000000E+00  0.20200705595E+01  0.20200705595E+01  0.00000000000E+00 0.  1.
          2   -1    0    0  502    0 -0.00000000000E+00 -0.00000000000E+00 -0.20722679064E+04  0.20722679064E+04  0.00000000000E+00 0. -1.
         24    2    1    2    0    0 -0.31140074147E+02  0.85128586019E+01 -0.12077622612E+04  0.12111984455E+04  0.85263249084E+02 0.  0.
        -11    1    3    3    0    0  0.10903630790E+02 -0.31352474516E+02 -0.42347808484E+03  0.42477706525E+03  0.00000000000E+00 0.  1.
         12    1    3    3    0    0 -0.42043704937E+02  0.39865333118E+02 -0.78428417639E+03  0.78642138020E+03  0.00000000000E+00 0. -1.
          1    1    1    2  501    0  0.31140074147E+02 -0.85128586019E+01 -0.86248557461E+03  0.86308953150E+03  0.00000000000E+00 0. -1.
<mgrwt>
<rscale>  1 0.91170141E+02</rscale>
<asrwt>0</asrwt>
<pdfrwt beam="1">  1       21 0.31077868E-03 0.91170141E+02</pdfrwt>
<pdfrwt beam="2">  1        2 0.31881189E+00 0.91170141E+02</pdfrwt>
<totfact> 0.19879803E+06</totfact>
</mgrwt>
</event>
<event>
 6    2  0.8544106E+000  0.1334920E+03  0.7546771E-02  0.1222364E+00
         21   -1    0    0  501  502  0.00000000000E+00  0.00000000000E+00  0.17895578579E+03  0.17895578579E+03  0.00000000000E+00 0.  1.
          2   -1    0    0  502    0 -0.00000000000E+00 -0.00000000000E+00 -0.82849491823E+02  0.82849491823E+02  0.00000000000E+00 0. -1.
         24    2    1    2    0    0 -0.52741967623E+02  0.93368638278E+02  0.33496569785E+02  0.13763041975E+03  0.79502795489E+02 0.  0.
        -11    1    3    3    0    0 -0.27783293522E+02  0.84889580866E+02  0.53876473623E+02  0.10431120145E+03  0.00000000000E+00 0.  1.
         12    1    3    3    0    0 -0.24958674101E+02  0.84790574112E+01 -0.20379903838E+02  0.33319218297E+02  0.00000000000E+00 0. -1.
          1    1    1    2  501    0  0.52741967623E+02 -0.93368638278E+02  0.62609724178E+02  0.12417485786E+03  0.00000000000E+00 0. -1.
<mgrwt>
<rscale>  1 0.13349199E+03</rscale>
<asrwt>0</asrwt>
<pdfrwt beam="1">  1       21 0.27531659E-01 0.13349199E+03</pdfrwt>
<pdfrwt beam="2">  1        2 0.12746076E-01 0.13349199E+03</pdfrwt>
<totfact> 0.71976958E+04</totfact>
</mgrwt>
</event>
<event>
 6    2  0.8544106E+000  0.8334006E+02  0.7546771E-02  0.1319831E+00
         -1   -1    0    0    0  501 -0.00000000000E+00  0.00000000000E+00  0.16105555486E+02  0.16105555486E+02  0.00000000000E+00 0.  1.
         21   -1    0    0  501  502  0.00000000000E+00 -0.00000000000E+00 -0.27048101926E+03  0.27048101926E+03  0.00000000000E+00 0.  1.
         24    2    1    2    0    0 -0.22543702110E+02  0.11124147371E+01 -0.98239772231E+02  0.12882786613E+03  0.80225371744E+02 0.  0.
        -13    1    3    3    0    0  0.28367457014E+01  0.35297980033E+02 -0.22542687649E+02  0.41978176319E+02  0.00000000000E+00 0.  1.
         14    1    3    3    0    0 -0.25380447811E+02 -0.34185565296E+02 -0.75697084582E+02  0.86849689809E+02  0.00000000000E+00 0. -1.
         -2    1    1    2    0  502  0.22543702110E+02 -0.11124147371E+01 -0.15613569155E+03  0.15775870862E+03  0.00000000000E+00 0.  1.
<mgrwt>
<rscale>  1 0.83340064E+02</rscale>
<asrwt>0</asrwt>
<pdfrwt beam="1">  1       21 0.41612464E-01 0.83340064E+02</pdfrwt>
<pdfrwt beam="2">  1       -1 0.24777778E-02 0.83340064E+02</pdfrwt>
<totfact> 0.22942831E+05</totfact>
</mgrwt>
</event>
<event>
 6    2  0.8544106E+000  0.9105282E+02  0.7546771E-02  0.1300322E+00
         21   -1    0    0  501  502  0.00000000000E+00  0.00000000000E+00  0.20269345086E+02  0.20269345086E+02  0.00000000000E+00 0.  1.
          2   -1    0    0  502    0 -0.00000000000E+00 -0.00000000000E+00 -0.21874377517E+03  0.21874377517E+03  0.00000000000E+00 0. -1.
         24    2    1    2    0    0  0.35356745561E+02 -0.18395841508E+02 -0.15699752554E+03  0.18149060247E+03  0.81866411420E+02 0.  0.
        -13    1    3    3    0    0  0.50710694242E+02  0.51518959755E+01 -0.52081773428E+02  0.72874053449E+02  0.00000000000E+00 0.  1.
         14    1    3    3    0    0 -0.15353948681E+02 -0.23547737483E+02 -0.10491575211E+03  0.10861654903E+03  0.00000000000E+00 0. -1.
          1    1    1    2  501    0 -0.35356745561E+02  0.18395841508E+02 -0.41476904541E+02  0.57522517780E+02  0.00000000000E+00 0. -1.
<mgrwt>
<rscale>  1 0.91052819E+02</rscale>
<asrwt>0</asrwt>
<pdfrwt beam="1">  1       21 0.31183607E-02 0.91052819E+02</pdfrwt>
<pdfrwt beam="2">  1        2 0.33652889E-01 0.91052819E+02</pdfrwt>
<totfact> 0.10563476E+06</totfact>
</mgrwt>
</event>
<event>
 6    2  0.8544106E+000  0.8439508E+02  0.7546771E-02  0.1317022E+00
         -3   -1    0    0    0  501 -0.00000000000E+00  0.00000000000E+00  0.23292128073E+03  0.23292128073E+03  0.00000000000E+00 0.  1.
         21   -1    0    0  501  502  0.00000000000E+00 -0.00000000000E+00 -0.12343462071E+02  0.12343462071E+02  0.00000000000E+00 0. -1.
         24    2    1    2    0    0 -0.55632045632E+01 -0.19930746381E+02  0.19415003091E+03  0.21169970352E+03  0.81818983577E+02 0.  0.
        -13    1    3    3    0    0  0.29333358965E+02  0.12359735303E+02  0.11540912855E+03  0.11971831922E+03  0.00000000000E+00 0.  1.
         14    1    3    3    0    0 -0.34896563528E+02 -0.32290481685E+02  0.78740902357E+02  0.91981384299E+02  0.00000000000E+00 0. -1.
         -4    1    1    2    0  502  0.55632045632E+01  0.19930746381E+02  0.26427787754E+02  0.33565039280E+02  0.00000000000E+00 0.  1.
<mgrwt>
<rscale>  1 0.84395083E+02</rscale>
<asrwt>0</asrwt>
<pdfrwt beam="1">  1       21 0.18989943E-02 0.84395083E+02</pdfrwt>
<pdfrwt beam="2">  1       -3 0.35834040E-01 0.84395083E+02</pdfrwt>
<totfact> 0.44642359E+05</totfact>
</mgrwt>
</event>
<event>
 6    2  0.8544106E+000  0.9046649E+02  0.7546771E-02  0.1301726E+00
         -1   -1    0    0    0  501 -0.00000000000E+00  0.00000000000E+00  0.23876005012E+02  0.23876005012E+02  0.00000000000E+00 0.  1.
         21   -1    0    0  501  502  0.00000000000E+00 -0.00000000000E+00 -0.22918716016E+03  0.22918716016E+03  0.00000000000E+00 0.  1.
         24    2    1    2    0    0  0.40220223117E+02 -0.14566633744E+02 -0.80399808651E+02  0.12103022364E+03  0.79714067998E+02 0.  0.
        -11    1    3    3    0    0  0.49475872144E+02 -0.67250150246E+01 -0.11720748796E+02  0.51288046403E+02  0.00000000000E+00 0.  1.
         12    1    3    3    0    0 -0.92556490268E+01 -0.78416187192E+01 -0.68679059855E+02  0.69742177236E+02  0.00000000000E+00 0. -1.
         -2    1    1    2    0  502 -0.40220223117E+02  0.14566633744E+02 -0.12491134650E+03  0.13203294153E+03  0.00000000000E+00 0.  1.
<mgrwt>
<rscale>  1 0.90466490E+02</rscale>
<asrwt>0</asrwt>
<pdfrwt beam="1">  1       21 0.35259562E-01 0.90466490E+02</pdfrwt>
<pdfrwt beam="2">  1       -1 0.36732317E-02 0.90466490E+02</pdfrwt>
<totfact> 0.18156225E+05</totfact>
</mgrwt>
</event>
<event>
 6    2  0.8544106E+000  0.8436264E+02  0.7546771E-02  0.1317108E+00
         21   -1    0    0  501  502  0.00000000000E+00  0.00000000000E+00  0.33863976865E+03  0.33863976865E+03  0.00000000000E+00 0. -1.
         -1   -1    0    0    0  501 -0.00000000000E+00 -0.00000000000E+00 -0.10879077528E+02  0.10879077528E+02  0.00000000000E+00 0.  1.
         24    2    1    2    0    0  0.18029768383E+02 -0.31832332704E+02  0.21436994138E+03  0.23037258278E+03  0.76017663598E+02 0.  0.
        -13    1    3    3    0    0  0.10859956532E+02  0.22219385570E+02  0.34700246825E+02  0.42611581532E+02  0.00000000000E+00 0.  1.
         14    1    3    3    0    0  0.71698118509E+01 -0.54051718273E+02  0.17966969455E+03  0.18776100125E+03  0.00000000000E+00 0. -1.
         -2    1    1    2    0  502 -0.18029768383E+02  0.31832332704E+02  0.11339074975E+03  0.11914626340E+03  0.00000000000E+00 0.  1.
<mgrwt>
<rscale>  1 0.84362641E+02</rscale>
<asrwt>0</asrwt>
<pdfrwt beam="1">  1       21 0.52098418E-01 0.84362641E+02</pdfrwt>
<pdfrwt beam="2">  1       -1 0.16737045E-02 0.84362641E+02</pdfrwt>
<totfact> 0.25523371E+05</totfact>
</mgrwt>
</event>
<event>
 6    2  0.8544106E+000  0.8529148E+02  0.7546771E-02  0.1314672E+00
         21   -1    0    0  501  502  0.00000000000E+00  0.00000000000E+00  0.12829707200E+02  0.12829707200E+02  0.00000000000E+00 0. -1.
          2   -1    0    0  502    0 -0.00000000000E+00 -0.00000000000E+00 -0.57276568552E+03  0.57276568552E+03  0.00000000000E+00 0. -1.
         24    2    1    2    0    0  0.28710231124E+02 -0.49017267328E+01 -0.54719936308E+03  0.55380662640E+03  0.80164407318E+02 0.  0.
        -11    1    3    3    0    0 -0.23806487139E+02 -0.19257976168E+02 -0.21678169189E+03  0.21893359819E+03  0.00000000000E+00 0.  1.
         12    1    3    3    0    0  0.52516718264E+02  0.14356249435E+02 -0.33041767118E+03  0.33487302822E+03  0.00000000000E+00 0. -1.
          1    1    1    2  501    0 -0.28710231124E+02  0.49017267328E+01 -0.12736615246E+02  0.31788766320E+02  0.00000000000E+00 0. -1.
<mgrwt>
<rscale>  1 0.85291480E+02</rscale>
<asrwt>0</asrwt>
<pdfrwt beam="1">  1       21 0.19738011E-02 0.85291480E+02</pdfrwt>
<pdfrwt beam="2">  1        2 0.88117798E-01 0.85291480E+02</pdfrwt>
<totfact> 0.79252643E+05</totfact>
</mgrwt>
</event>
<event>
 6    2  0.8544106E+000  0.9105014E+02  0.7546771E-02  0.1300328E+00
          4   -1    0    0  502    0 -0.00000000000E+00  0.00000000000E+00  0.38588432692E+02  0.38588432692E+02  0.00000000000E+00 0. -1.
         21   -1    0    0  501  502  0.00000000000E+00 -0.00000000000E+00 -0.11857605058E+03  0.11857605058E+03  0.00000000000E+00 0.  1.
         24    2    1    2    0    0  0.16468278630E+02 -0.37790494765E+02 -0.39059498547E+02  0.99074581839E+02  0.81183758500E+02 0.  0.
        -11    1    3    3    0    0 -0.17355315512E+02  0.16728035386E+02 -0.27879037499E+00  0.24106262018E+02  0.00000000000E+00 0.  1.
         12    1    3    3    0    0  0.33823594142E+02 -0.54518530151E+02 -0.38780708172E+02  0.74968319821E+02  0.00000000000E+00 0. -1.
          3    1    1    2  501    0 -0.16468278630E+02  0.37790494765E+02 -0.40928119343E+02  0.58089901434E+02  0.00000000000E+00 0. -1.
<mgrwt>
<rscale>  1 0.91050142E+02</rscale>
<asrwt>0</asrwt>
<pdfrwt beam="1">  1       21 0.18242469E-01 0.91050142E+02</pdfrwt>
<pdfrwt beam="2">  1        4 0.59366821E-02 0.91050142E+02</pdfrwt>
<totfact> 0.18657615E+05</totfact>
</mgrwt>
</event>
<event>
 6    2  0.8544106E+000  0.9298336E+02  0.7546771E-02  0.1295784E+00
          2   -1    0    0  502    0 -0.00000000000E+00  0.00000000000E+00  0.20848043222E+04  0.20848043222E+04  0.00000000000E+00 0. -1.
         21   -1    0    0  501  502  0.00000000000E+00 -0.00000000000E+00 -0.24787550043E+01  0.24787550043E+01  0.00000000000E+00 0. -1.
         24    2    1    2    0    0 -0.44731853635E+02  0.20011697751E+02  0.15118259632E+04  0.15146826887E+04  0.79022133681E+02 0.  0.
        -13    1    3    3    0    0 -0.34033165704E+02  0.20572675740E+02  0.27998517470E+03  0.28279531362E+03  0.00000000000E+00 0.  1.
         14    1    3    3    0    0 -0.10698687931E+02 -0.56097798906E+00  0.12318407885E+04  0.12318873751E+04  0.00000000000E+00 0. -1.
          1    1    1    2  501    0  0.44731853635E+02 -0.20011697751E+02  0.57049960404E+03  0.57260038856E+03  0.00000000000E+00 0. -1.
<mgrwt>
<rscale>  1 0.92983355E+02</rscale>
<asrwt>0</asrwt>
<pdfrwt beam="1">  1       21 0.38134859E-03 0.92983355E+02</pdfrwt>
<pdfrwt beam="2">  1        2 0.32073772E+00 0.92983355E+02</pdfrwt>
<totfact> 0.14375679E+06</totfact>
</mgrwt>
</event>
<event>
 6    2  0.8544106E+000  0.9223669E+02  0.7546771E-02  0.1297524E+00
         21   -1    0    0  501  502  0.00000000000E+00  0.00000000000E+00  0.65365468316E+03  0.65365468316E+03  0.00000000000E+00 0.  1.
         -1   -1    0    0    0  501 -0.00000000000E+00 -0.00000000000E+00 -0.10487599860E+02  0.10487599860E+02  0.00000000000E+00 0.  1.
         24    2    1    2    0    0  0.39807806044E+02 -0.13784811677E+02  0.21555571840E+03  0.23446081745E+03  0.82054401059E+02 0.  0.
        -13    1    3    3    0    0 -0.10553713806E+02 -0.18148823515E+02  0.10901401942E+02  0.23655892170E+02  0.00000000000E+00 0.  1.
         14    1    3    3    0    0  0.50361519850E+02  0.43640118373E+01  0.20465431645E+03  0.21080492528E+03  0.00000000000E+00 0. -1.
         -2    1    1    2    0  502 -0.39807806044E+02  0.13784811677E+02  0.42761136490E+03  0.42968146556E+03  0.00000000000E+00 0.  1.
<mgrwt>
<rscale>  1 0.92236691E+02</rscale>
<asrwt>0</asrwt>
<pdfrwt beam="1">  1       21 0.10056223E+00 0.92236691E+02</pdfrwt>
<pdfrwt beam="2">  1       -1 0.16134774E-02 0.92236691E+02</pdfrwt>
<totfact> 0.64801957E+04</totfact>
</mgrwt>
</event>
<event>
 6    2  0.8544106E+000  0.8361092E+02  0.7546771E-02  0.1319106E+00
         -3   -1    0    0    0  501 -0.00000000000E+00  0.00000000000E+00  0.79198399587E+02  0.79198399587E+02  0.00000000000E+00 0.  1.
         21   -1    0    0  501  502  0.00000000000E+00 -0.00000000000E+00 -0.43585305586E+02  0.43585305586E+02  0.00000000000E+00 0. -1.
         24    2    1    2    0    0  0.21885677072E+02 -0.20087707808E+02  0.40117502070E+02  0.92737265151E+02  0.78155534094E+02 0.  0.
        -11    1    3    3    0    0  0.12538686674E+01 -0.13023062979E+02  0.61093573979E+02  0.62478773495E+02  0.00000000000E+00 0.  1.
         12    1    3    3    0    0  0.20631808405E+02 -0.70646448293E+01 -0.20976071908E+02  0.30258491656E+02  0.00000000000E+00 0. -1.
         -4    1    1    2    0  502 -0.21885677072E+02  0.20087707808E+02 -0.45044080698E+01  0.30046440021E+02  0.00000000000E+00 0.  1.
<mgrwt>
<rscale>  1 0.83610923E+02</rscale>
<asrwt>0</asrwt>
<pdfrwt beam="1">  1       21 0.67054317E-02 0.83610923E+02</pdfrwt>
<pdfrwt beam="2">  1       -3 0.12184369E-01 0.83610923E+02</pdfrwt>
<totfact> 0.37553938E+05</totfact>
</mgrwt>
</event>
<event>
 6    2  0.8544106E+000  0.8374671E+02  0.7546771E-02  0.1318743E+00
         21   -1    0    0  501  502  0.00000000000E+00  0.00000000000E+00  0.14019221591E+02  0.14019221591E+02  0.00000000000E+00 0. -1.
          2   -1    0    0  502    0 -0.00000000000E+00 -0.00000000000E+00 -0.41649977215E+03  0.41649977215E+03  0.00000000000E+00 0. -1.
         24    2    1    2    0    0  0.25271647264E+02  0.17007650342E+02 -0.38773480022E+03  0.39667592239E+03  0.78010228663E+02 0.  0.
        -11    1    3    3    0    0 -0.14413197632E+02 -0.21873747127E+02 -0.87225908447E+02  0.91074476028E+02  0.00000000000E+00 0.  1.
         12    1    3    3    0    0  0.39684844896E+02  0.38881397469E+02 -0.30050889177E+03  0.30560144636E+03  0.00000000000E+00 0. -1.
          1    1    1    2  501    0 -0.25271647264E+02 -0.17007650342E+02 -0.14745750342E+02  0.33843071355E+02  0.00000000000E+00 0. -1.
<mgrwt>
<rscale>  1 0.83746714E+02</rscale>
<asrwt>0</asrwt>
<pdfrwt beam="1">  1       21 0.21568036E-02 0.83746714E+02</pdfrwt>
<pdfrwt beam="2">  1        2 0.64076881E-01 0.83746714E+02</pdfrwt>
<totfact> 0.96706065E+05</totfact>
</mgrwt>
</event>
<event>
 6    2  0.8544106E+000  0.7260381E+02  0.7546771E-02  0.1351456E+00
          2   -1    0    0  502    0 -0.00000000000E+00  0.00000000000E+00  0.86046216262E+03  0.86046216262E+03  0.00000000000E+00 0. -1.
         21   -1    0    0  501  502  0.00000000000E+00 -0.00000000000E+00 -0.37232027513E+01  0.37232027513E+01  0.00000000000E+00 0.  1.
         24    2    1    2    0    0  0.20554159344E+01  0.23021642034E+02  0.79420414283E+03  0.79751585151E+03  0.68826536910E+02 0.  0.
        -13    1    3    3    0    0  0.15949088674E+02  0.43297759032E+02  0.42583549817E+03  0.42832807621E+03  0.00000000000E+00 0.  1.
         14    1    3    3    0    0 -0.13893672740E+02 -0.20276116997E+02  0.36836864466E+03  0.36918777530E+03  0.00000000000E+00 0. -1.
          1    1    1    2  501    0 -0.20554159344E+01 -0.23021642034E+02  0.62534817044E+02  0.66669513867E+02  0.00000000000E+00 0. -1.
<mgrwt>
<rscale>  1 0.72603808E+02</rscale>
<asrwt>0</asrwt>
<pdfrwt beam="1">  1       21 0.57280111E-03 0.72603808E+02</pdfrwt>
<pdfrwt beam="2">  1        2 0.13237864E+00 0.72603808E+02</pdfrwt>
<totfact> 0.33469433E+06</totfact>
</mgrwt>
</event>
<event>
 6    2  0.8544106E+000  0.8164836E+02  0.7546771E-02  0.1324438E+00
         21   -1    0    0  501  502  0.00000000000E+00  0.00000000000E+00  0.13011950173E+01  0.13011950173E+01  0.00000000000E+00 0. -1.
          2   -1    0    0  502    0 -0.00000000000E+00 -0.00000000000E+00 -0.26603865289E+04  0.26603865289E+04  0.00000000000E+00 0. -1.
         24    2    1    2    0    0  0.27030339321E+02  0.12886824901E+01 -0.23506406841E+04  0.23520582648E+04  0.77033470188E+02 0.  0.
        -11    1    3    3    0    0  0.11359599523E+02  0.88991602442E+00 -0.46901756309E+02  0.48266004565E+02  0.00000000000E+00 0.  1.
         12    1    3    3    0    0  0.15670739798E+02  0.39876646564E+00 -0.23037389277E+04  0.23037922602E+04  0.00000000000E+00 0. -1.
          1    1    1    2  501    0 -0.27030339321E+02 -0.12886824901E+01 -0.30844464980E+03  0.30962945909E+03  0.00000000000E+00 0. -1.
<mgrwt>
<rscale>  1 0.81648365E+02</rscale>
<asrwt>0</asrwt>
<pdfrwt beam="1">  1       21 0.20018373E-03 0.81648365E+02</pdfrwt>
<pdfrwt beam="2">  1        2 0.40929047E+00 0.81648365E+02</pdfrwt>
<totfact> 0.19022089E+06</totfact>
</mgrwt>
</event>
<event>
 6    2  0.8544106E+000  0.1136306E+03  0.7546771E-02  0.1253991E+00
         21   -1    0    0  501  502  0.00000000000E+00  0.00000000000E+00  0.63155146581E+01  0.63155146581E+01  0.00000000000E+00 0. -1.
          2   -1    0    0  502    0 -0.00000000000E+00 -0.00000000000E+00 -0.22000333371E+04  0.22000333371E+04  0.00000000000E+00 0. -1.
         24    2    1    2    0    0 -0.54850064499E+02 -0.58832608952E+02 -0.18441038840E+04  0.18476014316E+04  0.80262755717E+02 0.  0.
        -11    1    3    3    0    0 -0.24963674078E+02  0.39170488276E+01 -0.10921456730E+04  0.10924379613E+04  0.00000000000E+00 0.  1.
         12    1    3    3    0    0 -0.29886390421E+02 -0.62749657779E+02 -0.75195821094E+03  0.75516347031E+03  0.00000000000E+00 0. -1.
          1    1    1    2  501    0  0.54850064499E+02  0.58832608952E+02 -0.34961393847E+03  0.35874742009E+03  0.00000000000E+00 0. -1.
<mgrwt>
<rscale>  1 0.11363061E+03</rscale>
<asrwt>0</asrwt>
<pdfrwt beam="1">  1       21 0.97161838E-03 0.11363061E+03</pdfrwt>
<pdfrwt beam="2">  1        2 0.33846641E+00 0.11363061E+03</pdfrwt>
<totfact> 0.29771049E+05</totfact>
</mgrwt>
</event>
<event>
 6    2  0.8544106E+000  0.8554789E+02  0.7546771E-02  0.1314006E+00
         -3   -1    0    0    0  501 -0.00000000000E+00  0.00000000000E+00  0.36571191286E+01  0.36571191286E+01  0.00000000000E+00 0.  1.
         21   -1    0    0  501  502  0.00000000000E+00 -0.00000000000E+00 -0.84700964198E+03  0.84700964198E+03  0.00000000000E+00 0.  1.
         24    2    1    2    0    0 -0.21832896414E+02  0.13571366998E+02 -0.65976660785E+03  0.66528972489E+03  0.81594018472E+02 0.  0.
        -13    1    3    3    0    0 -0.11561363107E+02  0.39524676347E+02 -0.17743430904E+03  0.18215048499E+03  0.00000000000E+00 0.  1.
         14    1    3    3    0    0 -0.10271533308E+02 -0.25953309349E+02 -0.48233229881E+03  0.48313923991E+03  0.00000000000E+00 0. -1.
         -4    1    1    2    0  502  0.21832896414E+02 -0.13571366998E+02 -0.18358591500E+03  0.18537703621E+03  0.00000000000E+00 0.  1.
<mgrwt>
<rscale>  1 0.85547888E+02</rscale>
<asrwt>0</asrwt>
<pdfrwt beam="1">  1       21 0.13030950E+00 0.85547888E+02</pdfrwt>
<pdfrwt beam="2">  1       -3 0.56263232E-03 0.85547888E+02</pdfrwt>
<totfact> 0.12720254E+05</totfact>
</mgrwt>
</event>
<event>
 6    2  0.8544106E+000  0.8583729E+02  0.7546771E-02  0.1313257E+00
         21   -1    0    0  501  502  0.00000000000E+00  0.00000000000E+00  0.10984130336E+02  0.10984130336E+02  0.00000000000E+00 0. -1.
          2   -1    0    0  502    0 -0.00000000000E+00 -0.00000000000E+00 -0.94468319716E+03  0.94468319716E+03  0.00000000000E+00 0. -1.
         24    2    1    2    0    0 -0.10006144705E+02 -0.27350917762E+02 -0.91908118767E+03  0.92308085753E+03  0.80745553254E+02 0.  0.
        -11    1    3    3    0    0 -0.79713853657E+01 -0.21192655723E+02 -0.62497549007E+02  0.66472665608E+02  0.00000000000E+00 0.  1.
         12    1    3    3    0    0 -0.20347593394E+01 -0.61582620388E+01 -0.85658363866E+03  0.85660819192E+03  0.00000000000E+00 0. -1.
          1    1    1    2  501    0  0.10006144705E+02  0.27350917762E+02 -0.14617879159E+02  0.32586469974E+02  0.00000000000E+00 0. -1.
<mgrwt>
<rscale>  1 0.85837288E+02</rscale>
<asrwt>0</asrwt>
<pdfrwt beam="1">  1       21 0.16898652E-02 0.85837288E+02</pdfrwt>
<pdfrwt beam="2">  1        2 0.14533596E+00 0.85837288E+02</pdfrwt>
<totfact> 0.55975634E+05</totfact>
</mgrwt>
</event>
<event>
 6    2  0.8544106E+000  0.9041615E+02  0.7546771E-02  0.1301847E+00
         21   -1    0    0  501  502  0.00000000000E+00  0.00000000000E+00  0.13515141989E+03  0.13515141989E+03  0.00000000000E+00 0. -1.
          2   -1    0    0  502    0 -0.00000000000E+00 -0.00000000000E+00 -0.33374583224E+02  0.33374583224E+02  0.00000000000E+00 0. -1.
         24    2    1    2    0    0 -0.29964338925E+02  0.23590272712E+02  0.47338846847E+02  0.10205903907E+03  0.81979988174E+02 0.  0.
        -13    1    3    3    0    0  0.18433419014E+02 -0.30302856641E+00  0.44318613502E+02  0.48000231933E+02  0.00000000000E+00 0.  1.
         14    1    3    3    0    0 -0.48397757939E+02  0.23893301279E+02  0.30202333453E+01  0.54058807136E+02  0.00000000000E+00 0. -1.
          1    1    1    2  501    0  0.29964338925E+02 -0.23590272712E+02  0.54437989818E+02  0.66466964044E+02  0.00000000000E+00 0. -1.
<mgrwt>
<rscale>  1 0.90416155E+02</rscale>
<asrwt>0</asrwt>
<pdfrwt beam="1">  1       21 0.20792526E-01 0.90416155E+02</pdfrwt>
<pdfrwt beam="2">  1        2 0.51345513E-02 0.90416155E+02</pdfrwt>
<totfact> 0.36907320E+05</totfact>
</mgrwt>
</event>
<event>
 6    2  0.8544106E+000  0.8449784E+02  0.7546771E-02  0.1316751E+00
          2   -1    0    0  502    0 -0.00000000000E+00  0.00000000000E+00  0.63192672510E+03  0.63192672510E+03  0.00000000000E+00 0. -1.
         21   -1    0    0  501  502  0.00000000000E+00 -0.00000000000E+00 -0.86220144870E+01  0.86220144870E+01  0.00000000000E+00 0. -1.
         24    2    1    2    0    0  0.17310040415E+02 -0.13137791945E+02  0.60830023129E+03  0.61414090976E+03  0.81655658566E+02 0.  0.
        -11    1    3    3    0    0 -0.23782643048E+02  0.20135057513E+02  0.25741616063E+03  0.25929541917E+03  0.00000000000E+00 0.  1.
         12    1    3    3    0    0  0.41092683463E+02 -0.33272849458E+02  0.35088407066E+03  0.35484549059E+03  0.00000000000E+00 0. -1.
          1    1    1    2  501    0 -0.17310040415E+02  0.13137791945E+02  0.15004479318E+02  0.26407829823E+02  0.00000000000E+00 0. -1.
<mgrwt>
<rscale>  1 0.84497844E+02</rscale>
<asrwt>0</asrwt>
<pdfrwt beam="1">  1       21 0.13264643E-02 0.84497844E+02</pdfrwt>
<pdfrwt beam="2">  1        2 0.97219460E-01 0.84497844E+02</pdfrwt>
<totfact> 0.13322693E+06</totfact>
</mgrwt>
</event>
<event>
 6    2  0.8544106E+000  0.8541442E+02  0.7546771E-02  0.1314352E+00
         21   -1    0    0  501  502  0.00000000000E+00  0.00000000000E+00  0.11634203349E+01  0.11634203349E+01  0.00000000000E+00 0.  1.
          2   -1    0    0  502    0 -0.00000000000E+00 -0.00000000000E+00 -0.31375862286E+04  0.31375862286E+04  0.00000000000E+00 0. -1.
         24    2    1    2    0    0  0.27880896797E+02  0.82571926660E+01 -0.18170336363E+04  0.18190400928E+04  0.80312501396E+02 0.  0.
        -11    1    3    3    0    0  0.11858504464E+02  0.14998186762E+02 -0.94302531358E+02  0.96221292626E+02  0.00000000000E+00 0.  1.
         12    1    3    3    0    0  0.16022392333E+02 -0.67409940963E+01 -0.17227311050E+04  0.17228188001E+04  0.00000000000E+00 0. -1.
          1    1    1    2  501    0 -0.27880896797E+02 -0.82571926660E+01 -0.13193891720E+04  0.13197095562E+04  0.00000000000E+00 0. -1.
<mgrwt>
<rscale>  1 0.85414422E+02</rscale>
<asrwt>0</asrwt>
<pdfrwt beam="1">  1       21 0.17898719E-03 0.85414422E+02</pdfrwt>
<pdfrwt beam="2">  1        2 0.48270707E+00 0.85414422E+02</pdfrwt>
<totfact> 0.12205307E+06</totfact>
</mgrwt>
</event>
<event>
 6    2  0.8544106E+000  0.8388665E+02  0.7546771E-02  0.1318370E+00
         -1   -1    0    0    0  501 -0.00000000000E+00  0.00000000000E+00  0.14812135087E+03  0.14812135087E+03  0.00000000000E+00 0.  1.
         21   -1    0    0  501  502  0.00000000000E+00 -0.00000000000E+00 -0.53268732997E+02  0.53268732997E+02  0.00000000000E+00 0. -1.
         24    2    1    2    0    0 -0.11615404551E+01 -0.27433326241E+02  0.13126809504E+03  0.15578280877E+03  0.79265592575E+02 0.  0.
        -11    1    3    3    0    0  0.13001052711E+02  0.17203843177E+02  0.92522714862E+02  0.95002380797E+02  0.00000000000E+00 0.  1.
         12    1    3    3    0    0 -0.14162593166E+02 -0.44637169418E+02  0.38745380180E+02  0.60780427969E+02  0.00000000000E+00 0. -1.
         -2    1    1    2    0  502  0.11615404551E+01  0.27433326241E+02 -0.36415477168E+02  0.45607275102E+02  0.00000000000E+00 0.  1.
<mgrwt>
<rscale>  1 0.83886654E+02</rscale>
<asrwt>0</asrwt>
<pdfrwt beam="1">  1       21 0.81951897E-02 0.83886654E+02</pdfrwt>
<pdfrwt beam="2">  1       -1 0.22787900E-01 0.83886654E+02</pdfrwt>
<totfact> 0.16119027E+05</totfact>
</mgrwt>
</event>
<event>
 6    2  0.8544106E+000  0.7419166E+02  0.7546771E-02  0.1346393E+00
         -3   -1    0    0    0  501 -0.00000000000E+00  0.00000000000E+00  0.52830002571E+03  0.52830002571E+03  0.00000000000E+00 0.  1.
         21   -1    0    0  501  502  0.00000000000E+00 -0.00000000000E+00 -0.14778671731E+02  0.14778671731E+02  0.00000000000E+00 0. -1.
         24    2    1    2    0    0  0.21820871817E+02  0.69446635754E+01  0.51482392479E+03  0.52014236186E+03  0.70569287029E+02 0.  0.
        -13    1    3    3    0    0  0.27294280189E+02 -0.23484929038E+02  0.38532655476E+03  0.38700526279E+03  0.00000000000E+00 0.  1.
         14    1    3    3    0    0 -0.54734083720E+01  0.30429592614E+02  0.12949737002E+03  0.13313709907E+03  0.00000000000E+00 0. -1.
         -4    1    1    2    0  502 -0.21820871817E+02 -0.69446635754E+01 -0.13025708079E+01  0.22936335578E+02  0.00000000000E+00 0.  1.
<mgrwt>
<rscale>  1 0.74191664E+02</rscale>
<asrwt>0</asrwt>
<pdfrwt beam="1">  1       21 0.22736422E-02 0.74191664E+02</pdfrwt>
<pdfrwt beam="2">  1       -3 0.81276912E-01 0.74191664E+02</pdfrwt>
<totfact> 0.63677545E+04</totfact>
</mgrwt>
</event>
<event>
 6    2  0.8544106E+000  0.8375713E+02  0.7546771E-02  0.1318715E+00
         -3   -1    0    0    0  501 -0.00000000000E+00  0.00000000000E+00  0.47730995054E+03  0.47730995054E+03  0.00000000000E+00 0.  1.
         21   -1    0    0  501  502  0.00000000000E+00 -0.00000000000E+00 -0.70997014792E+01  0.70997014792E+01  0.00000000000E+00 0.  1.
         24    2    1    2    0    0 -0.17668458820E+02 -0.14002209931E+02  0.43199977849E+03  0.44004439105E+03  0.80666109090E+02 0.  0.
        -11    1    3    3    0    0 -0.26518404853E+02 -0.30089054484E+01  0.42177080805E+03  0.42261435592E+03  0.00000000000E+00 0.  1.
         12    1    3    3    0    0  0.88499460332E+01 -0.10993304482E+02  0.10228970444E+02  0.17430035128E+02  0.00000000000E+00 0. -1.
         -4    1    1    2    0  502  0.17668458820E+02  0.14002209931E+02  0.38210470576E+02  0.44365260978E+02  0.00000000000E+00 0.  1.
<mgrwt>
<rscale>  1 0.83757134E+02</rscale>
<asrwt>0</asrwt>
<pdfrwt beam="1">  1       21 0.10922621E-02 0.83757134E+02</pdfrwt>
<pdfrwt beam="2">  1       -3 0.73432275E-01 0.83757134E+02</pdfrwt>
<totfact> 0.25672488E+05</totfact>
</mgrwt>
</event>
<event>
 6    2  0.8544106E+000  0.8548204E+02  0.7546771E-02  0.1314177E+00
         -1   -1    0    0    0  501 -0.00000000000E+00  0.00000000000E+00  0.29969440955E+02  0.29969440955E+02  0.00000000000E+00 0.  1.
         21   -1    0    0  501  502  0.00000000000E+00 -0.00000000000E+00 -0.96756566591E+02  0.96756566591E+02  0.00000000000E+00 0. -1.
         24    2    1    2    0    0 -0.18327499915E+01 -0.20489152019E+02 -0.62017282648E+02  0.10560929082E+03  0.82969962264E+02 0.  0.
        -13    1    3    3    0    0  0.76590429145E+01  0.75196338886E+00  0.19433005382E+02  0.20901389559E+02  0.00000000000E+00 0.  1.
         14    1    3    3    0    0 -0.94917929061E+01 -0.21241115408E+02 -0.81450288030E+02  0.84707901264E+02  0.00000000000E+00 0. -1.
         -2    1    1    2    0  502  0.18327499915E+01  0.20489152019E+02 -0.47698429883E+01  0.21116716723E+02  0.00000000000E+00 0.  1.
<mgrwt>
<rscale>  1 0.85482039E+02</rscale>
<asrwt>0</asrwt>
<pdfrwt beam="1">  1       21 0.14885626E-01 0.85482039E+02</pdfrwt>
<pdfrwt beam="2">  1       -1 0.46106832E-02 0.85482039E+02</pdfrwt>
<totfact> 0.64359321E+05</totfact>
</mgrwt>
</event>
<event>
 6    2  0.8544106E+000  0.9421277E+02  0.7546771E-02  0.1292959E+00
         21   -1    0    0  501  502  0.00000000000E+00  0.00000000000E+00  0.74749008619E+01  0.74749008619E+01  0.00000000000E+00 0.  1.
          2   -1    0    0  502    0 -0.00000000000E+00 -0.00000000000E+00 -0.10267574149E+04  0.10267574149E+04  0.00000000000E+00 0. -1.
         24    2    1    2    0    0  0.43760963083E+02 -0.22261025702E+02 -0.32949225200E+03  0.34269693651E+03  0.80408152633E+02 0.  0.
        -11    1    3    3    0    0  0.43448666881E+00 -0.24897785658E+02 -0.25574724073E+02  0.35695308106E+02  0.00000000000E+00 0.  1.
         12    1    3    3    0    0  0.43326476414E+02  0.26367599560E+01 -0.30391752793E+03  0.30700162841E+03  0.00000000000E+00 0. -1.
          1    1    1    2  501    0 -0.43760963083E+02  0.22261025702E+02 -0.68979026206E+03  0.69153537928E+03  0.00000000000E+00 0. -1.
<mgrwt>
<rscale>  1 0.94212771E+02</rscale>
<asrwt>0</asrwt>
<pdfrwt beam="1">  1       21 0.11499847E-02 0.94212771E+02</pdfrwt>
<pdfrwt beam="2">  1        2 0.15796268E+00 0.94212771E+02</pdfrwt>
<totfact> 0.92566246E+05</totfact>
</mgrwt>
</event>
<event>
 6    2  0.8544106E+000  0.8398642E+02  0.7546771E-02  0.1318105E+00
         21   -1    0    0  501  502  0.00000000000E+00  0.00000000000E+00  0.49627557122E+01  0.49627557122E+01  0.00000000000E+00 0.  1.
         -1   -1    0    0    0  501 -0.00000000000E+00 -0.00000000000E+00 -0.20689912453E+04  0.20689912453E+04  0.00000000000E+00 0.  1.
         24    2    1    2    0    0  0.27142445437E+01  0.23720835886E+02 -0.20333303982E+04  0.20350641824E+04  0.80521257863E+02 0.  0.
        -11    1    3    3    0    0 -0.20581162935E+02  0.14898386155E+01 -0.17120046134E+04  0.17121289672E+04  0.00000000000E+00 0.  1.
         12    1    3    3    0    0  0.23295407478E+02  0.22230997271E+02 -0.32132578483E+03  0.32293521525E+03  0.00000000000E+00 0. -1.
         -2    1    1    2    0  502 -0.27142445437E+01 -0.23720835886E+02 -0.30698091382E+02  0.38889818630E+02  0.00000000000E+00 0.  1.
<mgrwt>
<rscale>  1 0.83986416E+02</rscale>
<asrwt>0</asrwt>
<pdfrwt beam="1">  1       21 0.76350200E-03 0.83986416E+02</pdfrwt>
<pdfrwt beam="2">  1       -1 0.31830588E+00 0.83986416E+02</pdfrwt>
<totfact> 0.16523165E+04</totfact>
</mgrwt>
</event>
<event>
 6    2  0.8544106E+000  0.9798328E+02  0.7546771E-02  0.1284595E+00
          2   -1    0    0  502    0 -0.00000000000E+00  0.00000000000E+00  0.29818403108E+03  0.29818403108E+03  0.00000000000E+00 0. -1.
         21   -1    0    0  501  502  0.00000000000E+00 -0.00000000000E+00 -0.17360327865E+02  0.17360327865E+02  0.00000000000E+00 0. -1.
         24    2    1    2    0    0 -0.43653175394E+02  0.14187268660E+02  0.18926834705E+03  0.21312726293E+03  0.86566995412E+02 0.  0.
        -13    1    3    3    0    0  0.18774519396E+02 -0.15816600311E+02  0.25915903772E+02  0.35697079604E+02  0.00000000000E+00 0.  1.
         14    1    3    3    0    0 -0.62427694790E+02  0.30003868970E+02  0.16335244328E+03  0.17743018333E+03  0.00000000000E+00 0. -1.
          1    1    1    2  501    0  0.43653175394E+02 -0.14187268660E+02  0.91555356166E+02  0.10241709602E+03  0.00000000000E+00 0. -1.
<mgrwt>
<rscale>  1 0.97983279E+02</rscale>
<asrwt>0</asrwt>
<pdfrwt beam="1">  1       21 0.26708199E-02 0.97983279E+02</pdfrwt>
<pdfrwt beam="2">  1        2 0.45874462E-01 0.97983279E+02</pdfrwt>
<totfact> 0.98807989E+05</totfact>
</mgrwt>
</event>
<event>
 6    2  0.8544106E+000  0.1077511E+03  0.7546771E-02  0.1264792E+00
         -1   -1    0    0    0  501 -0.00000000000E+00  0.00000000000E+00  0.20460451855E+02  0.20460451855E+02  0.00000000000E+00 0.  1.
         21   -1    0    0  501  502  0.00000000000E+00 -0.00000000000E+00 -0.23220499546E+03  0.23220499546E+03  0.00000000000E+00 0. -1.
         24    2    1    2    0    0 -0.14775424439E+02 -0.24496829903E+02 -0.15079501399E+03  0.18533601094E+03  0.10388403565E+03 0.  0.
        -11    1    3    3    0    0 -0.37128206447E+02 -0.18928777162E+02 -0.10251703084E+02  0.42917359366E+02  0.00000000000E+00 0.  1.
         12    1    3    3    0    0  0.22352782007E+02 -0.55680527409E+01 -0.14054331090E+03  0.14241865157E+03  0.00000000000E+00 0. -1.
         -2    1    1    2    0  502  0.14775424439E+02  0.24496829903E+02 -0.60949529612E+02  0.67329436375E+02  0.00000000000E+00 0.  1.
<mgrwt>
<rscale>  1 0.10775111E+03</rscale>
<asrwt>0</asrwt>
<pdfrwt beam="1">  1       21 0.35723845E-01 0.10775111E+03</pdfrwt>
<pdfrwt beam="2">  1       -1 0.31477619E-02 0.10775111E+03</pdfrwt>
<totfact> 0.22438436E+05</totfact>
</mgrwt>
</event>
<event>
 6    2  0.8544106E+000  0.9751818E+02  0.7546771E-02  0.1285603E+00
          2   -1    0    0  502    0 -0.00000000000E+00  0.00000000000E+00  0.13486695849E+04  0.13486695849E+04  0.00000000000E+00 0. -1.
         21   -1    0    0  501  502  0.00000000000E+00 -0.00000000000E+00 -0.43162456413E+01  0.43162456413E+01  0.00000000000E+00 0. -1.
         24    2    1    2    0    0 -0.54611872366E+02  0.66107907468E+01  0.87826526341E+03  0.88366264381E+03  0.80521028248E+02 0.  0.
        -13    1    3    3    0    0 -0.79557671199E+00 -0.31526171981E+02  0.27523439953E+03  0.27703520922E+03  0.00000000000E+00 0.  1.
         14    1    3    3    0    0 -0.53816295654E+02  0.38136962727E+02  0.60303086389E+03  0.60662743459E+03  0.00000000000E+00 0. -1.
          1    1    1    2  501    0  0.54611872366E+02 -0.66107907468E+01  0.46608807581E+03  0.46932318670E+03  0.00000000000E+00 0. -1.
<mgrwt>
<rscale>  1 0.97518179E+02</rscale>
<asrwt>0</asrwt>
<pdfrwt beam="1">  1       21 0.66403887E-03 0.97518179E+02</pdfrwt>
<pdfrwt beam="2">  1        2 0.20748729E+00 0.97518179E+02</pdfrwt>
<totfact> 0.14546930E+06</totfact>
</mgrwt>
</event>
<event>
 6    2  0.8544106E+000  0.1325471E+03  0.7546771E-02  0.1223725E+00
         -1   -1    0    0    0  501 -0.00000000000E+00  0.00000000000E+00  0.54340158364E+03  0.54340158364E+03  0.00000000000E+00 0.  1.
         21   -1    0    0  501  502  0.00000000000E+00 -0.00000000000E+00 -0.33399176148E+02  0.33399176148E+02  0.00000000000E+00 0.  1.
         24    2    1    2    0    0  0.10202932781E+03 -0.28144253057E+02  0.14361685872E+03  0.19543419981E+03  0.79791237833E+02 0.  0.
        -11    1    3    3    0    0  0.84050676894E+02 -0.54841314069E+02  0.10904568481E+03  0.14819935017E+03  0.00000000000E+00 0.  1.
         12    1    3    3    0    0  0.17978650920E+02  0.26697061012E+02  0.34571173911E+02  0.47234849647E+02  0.00000000000E+00 0. -1.
         -2    1    1    2    0  502 -0.10202932781E+03  0.28144253057E+02  0.36638554878E+03  0.38136655998E+03  0.00000000000E+00 0.  1.
<mgrwt>
<rscale>  1 0.13254706E+03</rscale>
<asrwt>0</asrwt>
<pdfrwt beam="1">  1       21 0.51383352E-02 0.13254706E+03</pdfrwt>
<pdfrwt beam="2">  1       -1 0.83600237E-01 0.13254706E+03</pdfrwt>
<totfact> 0.35500455E+04</totfact>
</mgrwt>
</event>
<event>
 6    2  0.8544106E+000  0.1090798E+03  0.7546771E-02  0.1262284E+00
         21   -1    0    0  501  502  0.00000000000E+00  0.00000000000E+00  0.18777557226E+03  0.18777557226E+03  0.00000000000E+00 0. -1.
          2   -1    0    0  502    0 -0.00000000000E+00 -0.00000000000E+00 -0.89488119133E+02  0.89488119133E+02  0.00000000000E+00 0. -1.
         24    2    1    2    0    0  0.15420668365E+02 -0.75089286508E+02 -0.42413825151E+02  0.11703558003E+03  0.77602812245E+02 0.  0.
        -13    1    3    3    0    0 -0.14895051208E+02  0.93425455593E+01  0.50131094711E+00  0.17589685065E+02  0.00000000000E+00 0.  1.
         14    1    3    3    0    0  0.30315719573E+02 -0.84431832067E+02 -0.42915136099E+02  0.99445894967E+02  0.00000000000E+00 0. -1.
          1    1    1    2  501    0 -0.15420668365E+02  0.75089286508E+02  0.14070127828E+03  0.16022811136E+03  0.00000000000E+00 0. -1.
<mgrwt>
<rscale>  1 0.10907976E+03</rscale>
<asrwt>0</asrwt>
<pdfrwt beam="1">  1       21 0.28888549E-01 0.10907976E+03</pdfrwt>
<pdfrwt beam="2">  1        2 0.13767403E-01 0.10907976E+03</pdfrwt>
<totfact> 0.59589123E+04</totfact>
</mgrwt>
</event>
<event>
 6    2  0.8544106E+000  0.9682301E+02  0.7546771E-02  0.1287122E+00
         21   -1    0    0  501  502  0.00000000000E+00  0.00000000000E+00  0.34352060367E+03  0.34352060367E+03  0.00000000000E+00 0. -1.
          4   -1    0    0  502    0 -0.00000000000E+00 -0.00000000000E+00 -0.18026867745E+02  0.18026867745E+02  0.00000000000E+00 0. -1.
         24    2    1    2    0    0  0.32418207357E+02  0.25361482031E+02  0.13187599438E+03  0.16360309848E+03  0.87638752827E+02 0.  0.
        -11    1    3    3    0    0  0.36973529164E+01 -0.59169096160E+00  0.12405443152E+03  0.12411092819E+03  0.00000000000E+00 0.  1.
         12    1    3    3    0    0  0.28720854441E+02  0.25953172992E+02  0.78215628642E+01  0.39492170285E+02  0.00000000000E+00 0. -1.
          3    1    1    2  501    0 -0.32418207357E+02 -0.25361482031E+02  0.19361774154E+03  0.19794437294E+03  0.00000000000E+00 0. -1.
<mgrwt>
<rscale>  1 0.96823013E+02</rscale>
<asrwt>0</asrwt>
<pdfrwt beam="1">  1       21 0.52849319E-01 0.96823013E+02</pdfrwt>
<pdfrwt beam="2">  1        4 0.27733645E-02 0.96823013E+02</pdfrwt>
<totfact> 0.80678112E+04</totfact>
</mgrwt>
</event>
<event>
 6    2  0.8544106E+000  0.1286060E+03  0.7546771E-02  0.1229539E+00
          2   -1    0    0  502    0 -0.00000000000E+00  0.00000000000E+00  0.12435714070E+03  0.12435714070E+03  0.00000000000E+00 0. -1.
         21   -1    0    0  501  502  0.00000000000E+00 -0.00000000000E+00 -0.18542437253E+03  0.18542437253E+03  0.00000000000E+00 0. -1.
         24    2    1    2    0    0  0.86108204364E+02  0.49448663087E+02  0.69155296976E+02  0.14602040629E+03  0.81729497817E+02 0.  0.
        -13    1    3    3    0    0  0.23257820297E+02  0.54297456867E+02  0.10658254341E+02  0.60022815768E+02  0.00000000000E+00 0.  1.
         14    1    3    3    0    0  0.62850384067E+02 -0.48487937796E+01  0.58497042635E+02  0.85997590522E+02  0.00000000000E+00 0. -1.
          1    1    1    2  501    0 -0.86108204364E+02 -0.49448663087E+02 -0.13022252881E+03  0.16376110695E+03  0.00000000000E+00 0. -1.
<mgrwt>
<rscale>  1 0.12860600E+03</rscale>
<asrwt>0</asrwt>
<pdfrwt beam="1">  1       21 0.28526827E-01 0.12860600E+03</pdfrwt>
<pdfrwt beam="2">  1        2 0.19131868E-01 0.12860600E+03</pdfrwt>
<totfact> 0.41881801E+04</totfact>
</mgrwt>
</event>
<event>
 6    2  0.8544106E+000  0.9679172E+02  0.7546771E-02  0.1287191E+00
          2   -1    0    0  502    0 -0.00000000000E+00  0.00000000000E+00  0.10466566578E+04  0.10466566578E+04  0.00000000000E+00 0. -1.
         21   -1    0    0  501  502  0.00000000000E+00 -0.00000000000E+00 -0.54590643481E+01  0.54590643481E+01  0.00000000000E+00 0.  1.
         24    2    1    2    0    0  0.18970195492E+02 -0.50867473158E+02  0.68499456269E+03  0.69179924005E+03  0.80132824024E+02 0.  0.
        -13    1    3    3    0    0  0.39849180786E+02 -0.11575935588E+02  0.17436498797E+03  0.17923478603E+03  0.00000000000E+00 0.  1.
         14    1    3    3    0    0 -0.20878985294E+02 -0.39291537570E+02  0.51062957472E+03  0.51256445402E+03  0.00000000000E+00 0. -1.
          1    1    1    2  501    0 -0.18970195492E+02  0.50867473158E+02  0.35620303075E+03  0.36031648208E+03  0.00000000000E+00 0. -1.
<mgrwt>
<rscale>  1 0.96791723E+02</rscale>
<asrwt>0</asrwt>
<pdfrwt beam="1">  1       21 0.83985689E-03 0.96791723E+02</pdfrwt>
<pdfrwt beam="2">  1        2 0.16102394E+00 0.96791723E+02</pdfrwt>
<totfact> 0.14769131E+06</totfact>
</mgrwt>
</event>
<event>
 6    2  0.8544106E+000  0.8169198E+02  0.7546771E-02  0.1324317E+00
          2   -1    0    0  502    0 -0.00000000000E+00  0.00000000000E+00  0.37761882043E+03  0.37761882043E+03  0.00000000000E+00 0. -1.
         21   -1    0    0  501  502  0.00000000000E+00 -0.00000000000E+00 -0.73867396999E+01  0.73867396999E+01  0.00000000000E+00 0. -1.
         24    2    1    2    0    0 -0.74060990169E+01 -0.19656328730E+02  0.25165443036E+03  0.26458180529E+03  0.78945283648E+02 0.  0.
        -11    1    3    3    0    0  0.27046666791E+02  0.13646560037E+02  0.13714167418E+03  0.14044781801E+03  0.00000000000E+00 0.  1.
         12    1    3    3    0    0 -0.34452765808E+02 -0.33302888767E+02  0.11451275617E+03  0.12413398728E+03  0.00000000000E+00 0. -1.
          1    1    1    2  501    0  0.74060990169E+01  0.19656328730E+02  0.11857765037E+03  0.12042375484E+03  0.00000000000E+00 0. -1.
<mgrwt>
<rscale>  1 0.81691979E+02</rscale>
<asrwt>0</asrwt>
<pdfrwt beam="1">  1       21 0.11364218E-02 0.81691979E+02</pdfrwt>
<pdfrwt beam="2">  1        2 0.58095188E-01 0.81691979E+02</pdfrwt>
<totfact> 0.29458730E+06</totfact>
</mgrwt>
</event>
<event>
 6    2  0.8544106E+000  0.8714964E+02  0.7546771E-02  0.1309905E+00
         -3   -1    0    0    0  501 -0.00000000000E+00  0.00000000000E+00  0.70656225701E+03  0.70656225701E+03  0.00000000000E+00 0.  1.
         21   -1    0    0  501  502  0.00000000000E+00 -0.00000000000E+00 -0.52716172318E+01  0.52716172318E+01  0.00000000000E+00 0. -1.
         24    2    1    2    0    0 -0.18444552033E+02 -0.28910144416E+02  0.53397560167E+03  0.54104066616E+03  0.80119044615E+02 0.  0.
        -13    1    3    3    0    0 -0.98008065927E+01 -0.56631585434E+02  0.38436002329E+03  0.38863327159E+03  0.00000000000E+00 0.  1.
         14    1    3    3    0    0 -0.86437454400E+01  0.27721441018E+02  0.14961557838E+03  0.15240739457E+03  0.00000000000E+00 0. -1.
         -4    1    1    2    0  502  0.18444552033E+02  0.28910144416E+02  0.16731503811E+03  0.17079320808E+03  0.00000000000E+00 0.  1.
<mgrwt>
<rscale>  1 0.87149637E+02</rscale>
<asrwt>0</asrwt>
<pdfrwt beam="1">  1       21 0.81101859E-03 0.87149637E+02</pdfrwt>
<pdfrwt beam="2">  1       -3 0.10870181E+00 0.87149637E+02</pdfrwt>
<totfact> 0.17365731E+05</totfact>
</mgrwt>
</event>
<event>
 6    2  0.8544106E+000  0.1209605E+03  0.7546771E-02  0.1241521E+00
         21   -1    0    0  501  502  0.00000000000E+00  0.00000000000E+00  0.35368798581E+03  0.35368798581E+03  0.00000000000E+00 0.  1.
         -3   -1    0    0    0  501 -0.00000000000E+00 -0.00000000000E+00 -0.10398708355E+03  0.10398708355E+03  0.00000000000E+00 0.  1.
         24    2    1    2    0    0  0.49004047747E+02 -0.72369628231E+02 -0.60606327529E+02  0.13529433693E+03  0.83622191331E+02 0.  0.
        -11    1    3    3    0    0  0.57205797624E+02 -0.54335653629E+02 -0.76499658263E+02  0.10989569715E+03  0.00000000000E+00 0.  1.
         12    1    3    3    0    0 -0.82017498770E+01 -0.18033974602E+02  0.15893330734E+02  0.25398639783E+02  0.00000000000E+00 0. -1.
         -4    1    1    2    0  502 -0.49004047747E+02  0.72369628231E+02  0.31030722978E+03  0.32238073243E+03  0.00000000000E+00 0.  1.
<mgrwt>
<rscale>  1 0.12096045E+03</rscale>
<asrwt>0</asrwt>
<pdfrwt beam="1">  1       21 0.54413536E-01 0.12096045E+03</pdfrwt>
<pdfrwt beam="2">  1       -3 0.15998013E-01 0.12096045E+03</pdfrwt>
<totfact> 0.51559972E+03</totfact>
</mgrwt>
</event>
<event>
 6    2  0.8544106E+000  0.8377601E+02  0.7546771E-02  0.1318665E+00
         21   -1    0    0  501  502  0.00000000000E+00  0.00000000000E+00  0.26192200382E+03  0.26192200382E+03  0.00000000000E+00 0.  1.
          4   -1    0    0  502    0 -0.00000000000E+00 -0.00000000000E+00 -0.45369567619E+02  0.45369567619E+02  0.00000000000E+00 0. -1.
         24    2    1    2    0    0  0.18428992606E+02  0.20275405789E+02  0.25022687267E+03  0.26387858352E+03  0.79168801866E+02 0.  0.
        -13    1    3    3    0    0  0.42176789618E+02  0.35846379139E+02  0.16850241385E+03  0.17736095386E+03  0.00000000000E+00 0.  1.
         14    1    3    3    0    0 -0.23747797012E+02 -0.15570973351E+02  0.81724458814E+02  0.86517629663E+02  0.00000000000E+00 0. -1.
          3    1    1    2  501    0 -0.18428992606E+02 -0.20275405789E+02 -0.33674436467E+02  0.43412987915E+02  0.00000000000E+00 0. -1.
<mgrwt>
<rscale>  1 0.83776005E+02</rscale>
<asrwt>0</asrwt>
<pdfrwt beam="1">  1       21 0.40295692E-01 0.83776005E+02</pdfrwt>
<pdfrwt beam="2">  1        4 0.69799336E-02 0.83776005E+02</pdfrwt>
<totfact> 0.31724978E+04</totfact>
</mgrwt>
</event>
<event>
 6    2  0.8544106E+000  0.6918017E+02  0.7546771E-02  0.1362903E+00
          2   -1    0    0  502    0 -0.00000000000E+00  0.00000000000E+00  0.89165570756E+03  0.89165570756E+03  0.00000000000E+00 0. -1.
         21   -1    0    0  501  502  0.00000000000E+00 -0.00000000000E+00 -0.25631651194E+01  0.25631651194E+01  0.00000000000E+00 0. -1.
         24    2    1    2    0    0 -0.19565390454E+02  0.14729319478E+02  0.72738540353E+03  0.73066779157E+03  0.64700378826E+02 0.  0.
        -11    1    3    3    0    0 -0.35787810297E+01 -0.10839491076E+02  0.23389558542E+02  0.26026403694E+02  0.00000000000E+00 0.  1.
         12    1    3    3    0    0 -0.15986609424E+02  0.25568810555E+02  0.70399584499E+03  0.70464138788E+03  0.00000000000E+00 0. -1.
          1    1    1    2  501    0  0.19565390454E+02 -0.14729319478E+02  0.16170713891E+03  0.16355108111E+03  0.00000000000E+00 0. -1.
<mgrwt>
<rscale>  1 0.69180173E+02</rscale>
<asrwt>0</asrwt>
<pdfrwt beam="1">  1       21 0.39433381E-03 0.69180173E+02</pdfrwt>
<pdfrwt beam="2">  1        2 0.13717755E+00 0.69180173E+02</pdfrwt>
<totfact> 0.56136141E+06</totfact>
</mgrwt>
</event>
<event>
 6    2  0.8544106E+000  0.8725291E+02  0.7546771E-02  0.1309644E+00
          2   -1    0    0  502    0 -0.00000000000E+00  0.00000000000E+00  0.18024419637E+04  0.18024419637E+04  0.00000000000E+00 0. -1.
         21   -1    0    0  501  502  0.00000000000E+00 -0.00000000000E+00 -0.46133430319E+01  0.46133430319E+01  0.00000000000E+00 0. -1.
         24    2    1    2    0    0 -0.16090343546E+02 -0.17917333882E+02  0.17603224728E+04  0.17624835541E+04  0.83863818196E+02 0.  0.
        -11    1    3    3    0    0  0.27851578798E+02  0.90618751369E+01  0.35162418218E+03  0.35284188175E+03  0.00000000000E+00 0.  1.
         12    1    3    3    0    0 -0.43941922344E+02 -0.26979209019E+02  0.14086982907E+04  0.14096416723E+04  0.00000000000E+00 0. -1.
          1    1    1    2  501    0  0.16090343546E+02  0.17917333882E+02  0.37506147769E+02  0.44571752595E+02  0.00000000000E+00 0. -1.
<mgrwt>
<rscale>  1 0.87252908E+02</rscale>
<asrwt>0</asrwt>
<pdfrwt beam="1">  1       21 0.70974652E-03 0.87252908E+02</pdfrwt>
<pdfrwt beam="2">  1        2 0.27729820E+00 0.87252908E+02</pdfrwt>
<totfact> 0.76580512E+05</totfact>
</mgrwt>
</event>
<event>
 6    2  0.8544106E+000  0.9004115E+02  0.7546771E-02  0.1302752E+00
         -1   -1    0    0    0  501 -0.00000000000E+00  0.00000000000E+00  0.46623643320E+02  0.46623643320E+02  0.00000000000E+00 0.  1.
         21   -1    0    0  501  502  0.00000000000E+00 -0.00000000000E+00 -0.11187380906E+03  0.11187380906E+03  0.00000000000E+00 0. -1.
         24    2    1    2    0    0  0.27782645356E+02  0.28279012769E+02 -0.10140468408E+02  0.90610364609E+02  0.80844487312E+02 0.  0.
        -13    1    3    3    0    0  0.13386244624E+01  0.95729916558E+00  0.33036607804E+02  0.33077572347E+02  0.00000000000E+00 0.  1.
         14    1    3    3    0    0  0.26444020893E+02  0.27321713603E+02 -0.43177076212E+02  0.57532792262E+02  0.00000000000E+00 0. -1.
         -2    1    1    2    0  502 -0.27782645356E+02 -0.28279012769E+02 -0.55109697336E+02  0.67887087775E+02  0.00000000000E+00 0.  1.
<mgrwt>
<rscale>  1 0.90041152E+02</rscale>
<asrwt>0</asrwt>
<pdfrwt beam="1">  1       21 0.17211355E-01 0.90041152E+02</pdfrwt>
<pdfrwt beam="2">  1       -1 0.71728682E-02 0.90041152E+02</pdfrwt>
<totfact> 0.26051561E+05</totfact>
</mgrwt>
</event>
<event>
 6    2  0.9997749E+000  0.8148122E+02  0.7546771E-02  0.1324900E+00
         -1   -1    0    0    0  501 -0.00000000000E+00  0.00000000000E+00  0.48183281106E+03  0.48183281106E+03  0.00000000000E+00 0.  1.
         21   -1    0    0  501  502  0.00000000000E+00 -0.00000000000E+00 -0.85730650250E+01  0.85730650250E+01  0.00000000000E+00 0. -1.
         24    2    1    2    0    0  0.24794399423E+02 -0.52736214451E+01  0.19983053495E+03  0.21580415213E+03  0.77437820547E+02 0.  0.
        -13    1    3    3    0    0  0.19831495311E+02 -0.21856269490E+02  0.19582625724E+03  0.19803764225E+03  0.00000000000E+00 0.  1.
         14    1    3    3    0    0  0.49629041119E+01  0.16582648045E+02  0.40042777124E+01  0.17766509882E+02  0.00000000000E+00 0. -1.
         -2    1    1    2    0  502 -0.24794399423E+02  0.52736214451E+01  0.27342921108E+03  0.27460172395E+03  0.00000000000E+00 0.  1.
<mgrwt>
<rscale>  1 0.81481221E+02</rscale>
<asrwt>0</asrwt>
<pdfrwt beam="1">  1       21 0.13189335E-02 0.81481221E+02</pdfrwt>
<pdfrwt beam="2">  1       -1 0.74128104E-01 0.81481221E+02</pdfrwt>
<totfact> 0.39968589E+05</totfact>
</mgrwt>
</event>
<event>
 6    2  0.8544106E+000  0.9239412E+02  0.7546771E-02  0.1297155E+00
         21   -1    0    0  501  502  0.00000000000E+00  0.00000000000E+00  0.18596520948E+02  0.18596520948E+02  0.00000000000E+00 0. -1.
          2   -1    0    0  502    0 -0.00000000000E+00 -0.00000000000E+00 -0.94842442171E+03  0.94842442171E+03  0.00000000000E+00 0. -1.
         24    2    1    2    0    0  0.26447830385E+02  0.22757001895E+02 -0.92745898096E+03  0.93204980244E+03  0.85552930990E+02 0.  0.
        -13    1    3    3    0    0  0.33987221188E+02 -0.11500491010E+02 -0.16836342089E+03  0.17214422439E+03  0.00000000000E+00 0.  1.
         14    1    3    3    0    0 -0.75393908030E+01  0.34257492905E+02 -0.75909556007E+03  0.75990557805E+03  0.00000000000E+00 0. -1.
          1    1    1    2  501    0 -0.26447830385E+02 -0.22757001895E+02 -0.23689198072E+01  0.34971140222E+02  0.00000000000E+00 0. -1.
<mgrwt>
<rscale>  1 0.92394117E+02</rscale>
<asrwt>0</asrwt>
<pdfrwt beam="1">  1       21 0.28610033E-02 0.92394117E+02</pdfrwt>
<pdfrwt beam="2">  1        2 0.14591145E+00 0.92394117E+02</pdfrwt>
<totfact> 0.24016972E+05</totfact>
</mgrwt>
</event>
<event>
 6    2  0.8544106E+000  0.8656892E+02  0.7546771E-02  0.1311380E+00
          2   -1    0    0  502    0 -0.00000000000E+00  0.00000000000E+00  0.18156671621E+03  0.18156671621E+03  0.00000000000E+00 0. -1.
         21   -1    0    0  501  502  0.00000000000E+00 -0.00000000000E+00 -0.17713412166E+03  0.17713412166E+03  0.00000000000E+00 0. -1.
         24    2    1    2    0    0  0.33773829725E+02 -0.72710599292E+01  0.16935540318E+03  0.19019839666E+03  0.79376555846E+02 0.  0.
        -13    1    3    3    0    0  0.68951302807E+01 -0.41702978691E+02  0.71957296001E+02  0.83453781826E+02  0.00000000000E+00 0.  1.
         14    1    3    3    0    0  0.26878699444E+02  0.34431918762E+02  0.97398107183E+02  0.10674461483E+03  0.00000000000E+00 0. -1.
          1    1    1    2  501    0 -0.33773829725E+02  0.72710599292E+01 -0.16492280863E+03  0.16850244121E+03  0.00000000000E+00 0. -1.
<mgrwt>
<rscale>  1 0.86568918E+02</rscale>
<asrwt>0</asrwt>
<pdfrwt beam="1">  1       21 0.27251403E-01 0.86568918E+02</pdfrwt>
<pdfrwt beam="2">  1        2 0.27933341E-01 0.86568918E+02</pdfrwt>
<totfact> 0.29942690E+04</totfact>
</mgrwt>
</event>
<event>
 6    2  0.8544106E+000  0.8459816E+02  0.7546771E-02  0.1316487E+00
          2   -1    0    0  502    0 -0.00000000000E+00  0.00000000000E+00  0.18493113272E+03  0.18493113272E+03  0.00000000000E+00 0. -1.
         21   -1    0    0  501  502  0.00000000000E+00 -0.00000000000E+00 -0.19069716936E+03  0.19069716936E+03  0.00000000000E+00 0. -1.
         24    2    1    2    0    0  0.26563679451E+02 -0.84688704074E+01  0.17412570936E+03  0.19358877036E+03  0.79871762947E+02 0.  0.
        -13    1    3    3    0    0  0.50899354286E+02  0.49046340190E+01  0.75936735010E+02  0.91548825364E+02  0.00000000000E+00 0.  1.
         14    1    3    3    0    0 -0.24335674835E+02 -0.13373504426E+02  0.98188974348E+02  0.10203994499E+03  0.00000000000E+00 0. -1.
          1    1    1    2  501    0 -0.26563679451E+02  0.84688704074E+01 -0.17989174600E+03  0.18203953173E+03  0.00000000000E+00 0. -1.
<mgrwt>
<rscale>  1 0.84598164E+02</rscale>
<asrwt>0</asrwt>
<pdfrwt beam="1">  1       21 0.29338026E-01 0.84598164E+02</pdfrwt>
<pdfrwt beam="2">  1        2 0.28450943E-01 0.84598164E+02</pdfrwt>
<totfact> 0.25524427E+04</totfact>
</mgrwt>
</event>
<event>
 6    2  0.8544106E+000  0.1244665E+03  0.7546771E-02  0.1235905E+00
          2   -1    0    0  502    0 -0.00000000000E+00  0.00000000000E+00  0.46849944090E+02  0.46849944090E+02  0.00000000000E+00 0. -1.
         21   -1    0    0  501  502  0.00000000000E+00 -0.00000000000E+00 -0.34344951012E+03  0.34344951012E+03  0.00000000000E+00 0. -1.
         24    2    1    2    0    0 -0.49706195401E+02 -0.82769437766E+02 -0.67285425212E+02  0.14148936425E+03  0.78552059548E+02 0.  0.
        -11    1    3    3    0    0 -0.34389881596E+02 -0.86875603856E+02 -0.78527306738E+02  0.12205151537E+03  0.00000000000E+00 0.  1.
         12    1    3    3    0    0 -0.15316313805E+02  0.41061660898E+01  0.11241881525E+02  0.19437848872E+02  0.00000000000E+00 0. -1.
          1    1    1    2  501    0  0.49706195401E+02  0.82769437766E+02 -0.22931414081E+03  0.24881008996E+03  0.00000000000E+00 0. -1.
<mgrwt>
<rscale>  1 0.12446651E+03</rscale>
<asrwt>0</asrwt>
<pdfrwt beam="1">  1       21 0.52838385E-01 0.12446651E+03</pdfrwt>
<pdfrwt beam="2">  1        2 0.72076838E-02 0.12446651E+03</pdfrwt>
<totfact> 0.39610458E+04</totfact>
</mgrwt>
</event>
<event>
 6    2  0.8544106E+000  0.9144458E+02  0.7546771E-02  0.1299391E+00
         -1   -1    0    0    0  501 -0.00000000000E+00  0.00000000000E+00  0.46948452190E+01  0.46948452190E+01  0.00000000000E+00 0.  1.
         21   -1    0    0  501  502  0.00000000000E+00 -0.00000000000E+00 -0.13274283571E+04  0.13274283571E+04  0.00000000000E+00 0.  1.
         24    2    1    2    0    0 -0.28290328586E+02  0.31685510162E+02 -0.49996312129E+03  0.50825705428E+03  0.80980221863E+02 0.  0.
        -13    1    3    3    0    0 -0.40296918595E+02 -0.82001553895E+01 -0.14067344985E+03  0.14656092143E+03  0.00000000000E+00 0.  1.
         14    1    3    3    0    0  0.12006590009E+02  0.39885665552E+02 -0.35928967144E+03  0.36169613286E+03  0.00000000000E+00 0. -1.
         -2    1    1    2    0  502  0.28290328586E+02 -0.31685510162E+02 -0.82277039054E+03  0.82386614799E+03  0.00000000000E+00 0.  1.
<mgrwt>
<rscale>  1 0.91444577E+02</rscale>
<asrwt>0</asrwt>
<pdfrwt beam="1">  1       21 0.20421953E+00 0.91444577E+02</pdfrwt>
<pdfrwt beam="2">  1       -1 0.72228465E-03 0.91444577E+02</pdfrwt>
<totfact> 0.33264854E+04</totfact>
</mgrwt>
</event>
<event>
 6    2  0.8544106E+000  0.8477238E+02  0.7546771E-02  0.1316029E+00
          2   -1    0    0  502    0 -0.00000000000E+00  0.00000000000E+00  0.25858845022E+04  0.25858845022E+04  0.00000000000E+00 0. -1.
         21   -1    0    0  501  502  0.00000000000E+00 -0.00000000000E+00 -0.13100643897E+01  0.13100643897E+01  0.00000000000E+00 0.  1.
         24    2    1    2    0    0  0.21691565558E+02 -0.17497505667E+02  0.21882837418E+04  0.21899251335E+04  0.80060408447E+02 0.  0.
        -13    1    3    3    0    0  0.78525505896E+01 -0.23443490207E+02  0.19208693836E+03  0.19367150454E+03  0.00000000000E+00 0.  1.
         14    1    3    3    0    0  0.13839014968E+02  0.59459845398E+01  0.19961968034E+04  0.19962536289E+04  0.00000000000E+00 0. -1.
          1    1    1    2  501    0 -0.21691565558E+02  0.17497505667E+02  0.39629069610E+03  0.39726943317E+03  0.00000000000E+00 0. -1.
<mgrwt>
<rscale>  1 0.84772376E+02</rscale>
<asrwt>0</asrwt>
<pdfrwt beam="1">  1       21 0.20155044E-03 0.84772376E+02</pdfrwt>
<pdfrwt beam="2">  1        2 0.39782430E+00 0.84772376E+02</pdfrwt>
<totfact> 0.20667728E+06</totfact>
</mgrwt>
</event>
<event>
 6    2  0.8544106E+000  0.9715227E+02  0.7546771E-02  0.1286401E+00
          2   -1    0    0  502    0 -0.00000000000E+00  0.00000000000E+00  0.14331516377E+04  0.14331516377E+04  0.00000000000E+00 0. -1.
         21   -1    0    0  501  502  0.00000000000E+00 -0.00000000000E+00 -0.43993881027E+01  0.43993881027E+01  0.00000000000E+00 0. -1.
         24    2    1    2    0    0  0.32866681140E+02  0.63691980499E+01  0.13244335925E+04  0.13279920570E+04  0.91201849068E+02 0.  0.
        -13    1    3    3    0    0  0.50835223598E+02  0.17494569676E+02  0.43529646993E+03  0.43860380375E+03  0.00000000000E+00 0.  1.
         14    1    3    3    0    0 -0.17968542457E+02 -0.11125371626E+02  0.88913712253E+03  0.88938825328E+03  0.00000000000E+00 0. -1.
          1    1    1    2  501    0 -0.32866681140E+02 -0.63691980499E+01  0.10431865717E+03  0.10955896881E+03  0.00000000000E+00 0. -1.
<mgrwt>
<rscale>  1 0.97152265E+02</rscale>
<asrwt>0</asrwt>
<pdfrwt beam="1">  1       21 0.67683009E-03 0.97152265E+02</pdfrwt>
<pdfrwt beam="2">  1        2 0.22048449E+00 0.97152265E+02</pdfrwt>
<totfact> 0.12758719E+06</totfact>
</mgrwt>
</event>
<event>
 6    2  0.8544106E+000  0.9452258E+02  0.7546771E-02  0.1292255E+00
         21   -1    0    0  501  502  0.00000000000E+00  0.00000000000E+00  0.33390846566E+01  0.33390846566E+01  0.00000000000E+00 0. -1.
          2   -1    0    0  502    0 -0.00000000000E+00 -0.00000000000E+00 -0.14856585674E+04  0.14856585674E+04  0.00000000000E+00 0. -1.
         24    2    1    2    0    0 -0.11556663659E+02 -0.43543857970E+02 -0.10932287571E+04  0.10973074469E+04  0.83095689467E+02 0.  0.
        -13    1    3    3    0    0  0.12146921989E+02  0.15316295542E+02 -0.91196726672E+02  0.93268320337E+02  0.00000000000E+00 0.  1.
         14    1    3    3    0    0 -0.23703585648E+02 -0.58860153512E+02 -0.10020320305E+04  0.10040391266E+04  0.00000000000E+00 0. -1.
          1    1    1    2  501    0  0.11556663659E+02  0.43543857970E+02 -0.38909072564E+03  0.39169020516E+03  0.00000000000E+00 0. -1.
<mgrwt>
<rscale>  1 0.94522577E+02</rscale>
<asrwt>0</asrwt>
<pdfrwt beam="1">  1       21 0.51370491E-03 0.94522577E+02</pdfrwt>
<pdfrwt beam="2">  1        2 0.22856305E+00 0.94522577E+02</pdfrwt>
<totfact> 0.18302514E+06</totfact>
</mgrwt>
</event>
<event>
 6    2  0.8544106E+000  0.1146333E+03  0.7546771E-02  0.1252223E+00
         21   -1    0    0  501  502  0.00000000000E+00  0.00000000000E+00  0.21346951601E+03  0.21346951601E+03  0.00000000000E+00 0. -1.
          2   -1    0    0  502    0 -0.00000000000E+00 -0.00000000000E+00 -0.45830536754E+02  0.45830536754E+02  0.00000000000E+00 0. -1.
         24    2    1    2    0    0  0.81777606061E+02 -0.13718769436E+02  0.10390687277E+03  0.15471724880E+03  0.79151799597E+02 0.  0.
        -13    1    3    3    0    0  0.14034479964E+02 -0.39665334876E+02  0.39400543938E+02  0.57642937827E+02  0.00000000000E+00 0.  1.
         14    1    3    3    0    0  0.67743126097E+02  0.25946565440E+02  0.64506328833E+02  0.97074310974E+02  0.00000000000E+00 0. -1.
          1    1    1    2  501    0 -0.81777606061E+02  0.13718769436E+02  0.63732106489E+02  0.10458280397E+03  0.00000000000E+00 0. -1.
<mgrwt>
<rscale>  1 0.11463328E+03</rscale>
<asrwt>0</asrwt>
<pdfrwt beam="1">  1       21 0.32841463E-01 0.11463328E+03</pdfrwt>
<pdfrwt beam="2">  1        2 0.70508519E-02 0.11463328E+03</pdfrwt>
<totfact> 0.10553358E+05</totfact>
</mgrwt>
</event>
<event>
 6    2  0.8544106E+000  0.8366427E+02  0.7546771E-02  0.1318963E+00
         21   -1    0    0  501  502  0.00000000000E+00  0.00000000000E+00  0.22153055992E+01  0.22153055992E+01  0.00000000000E+00 0.  1.
          2   -1    0    0  502    0 -0.00000000000E+00 -0.00000000000E+00 -0.12951733391E+04  0.12951733391E+04  0.00000000000E+00 0. -1.
         24    2    1    2    0    0  0.14325965270E+02 -0.18504954296E+02 -0.99147182122E+03  0.99499551844E+03  0.80324609085E+02 0.  0.
        -11    1    3    3    0    0  0.35609125917E+02 -0.37249314750E+02 -0.48492440585E+03  0.48765479664E+03  0.00000000000E+00 0.  1.
         12    1    3    3    0    0 -0.21283160647E+02  0.18744360454E+02 -0.50654741537E+03  0.50734072180E+03  0.00000000000E+00 0. -1.
          1    1    1    2  501    0 -0.14325965270E+02  0.18504954296E+02 -0.30148621229E+03  0.30239312627E+03  0.00000000000E+00 0. -1.
<mgrwt>
<rscale>  1 0.83664266E+02</rscale>
<asrwt>0</asrwt>
<pdfrwt beam="1">  1       21 0.34081505E-03 0.83664266E+02</pdfrwt>
<pdfrwt beam="2">  1        2 0.19925814E+00 0.83664266E+02</pdfrwt>
<totfact> 0.42493872E+06</totfact>
</mgrwt>
</event>
<event>
 6    2  0.8544106E+000  0.8567585E+02  0.7546771E-02  0.1313675E+00
          2   -1    0    0  502    0 -0.00000000000E+00  0.00000000000E+00  0.11124689983E+03  0.11124689983E+03  0.00000000000E+00 0. -1.
         21   -1    0    0  501  502  0.00000000000E+00 -0.00000000000E+00 -0.38361908211E+02  0.38361908211E+02  0.00000000000E+00 0. -1.
         24    2    1    2    0    0  0.19497053769E+02  0.14576137242E+02  0.86473826138E+02  0.12172950916E+03  0.82144701045E+02 0.  0.
        -11    1    3    3    0    0  0.34108141949E+02  0.40577660054E+02  0.39582620168E+02  0.66156599535E+02  0.00000000000E+00 0.  1.
         12    1    3    3    0    0 -0.14611088180E+02 -0.26001522812E+02  0.46891205970E+02  0.55572909620E+02  0.00000000000E+00 0. -1.
          1    1    1    2  501    0 -0.19497053769E+02 -0.14576137242E+02 -0.13588834521E+02  0.27879298883E+02  0.00000000000E+00 0. -1.
<mgrwt>
<rscale>  1 0.85675847E+02</rscale>
<asrwt>0</asrwt>
<pdfrwt beam="1">  1       21 0.59018321E-02 0.85675847E+02</pdfrwt>
<pdfrwt beam="2">  1        2 0.17114908E-01 0.85675847E+02</pdfrwt>
<totfact> 0.76696766E+05</totfact>
</mgrwt>
</event>
<event>
 6    2  0.8544106E+000  0.8017340E+02  0.7546771E-02  0.1328560E+00
         21   -1    0    0  501  502  0.00000000000E+00  0.00000000000E+00  0.25976596725E+01  0.25976596725E+01  0.00000000000E+00 0. -1.
         -3   -1    0    0    0  501 -0.00000000000E+00 -0.00000000000E+00 -0.14991607955E+04  0.14991607955E+04  0.00000000000E+00 0.  1.
         24    2    1    2    0    0 -0.51038020266E+01  0.21924187129E+02 -0.14112508382E+04  0.14135263357E+04  0.76948389748E+02 0.  0.
        -11    1    3    3    0    0  0.91252581475E+01  0.40163238426E+01 -0.12954434407E+04  0.12954818058E+04  0.00000000000E+00 0.  1.
         12    1    3    3    0    0 -0.14229060174E+02  0.17907863287E+02 -0.11580739749E+03  0.11804452988E+03  0.00000000000E+00 0. -1.
         -4    1    1    2    0  502  0.51038020266E+01 -0.21924187129E+02 -0.85312297679E+02  0.88232119501E+02  0.00000000000E+00 0.  1.
<mgrwt>
<rscale>  1 0.80173396E+02</rscale>
<asrwt>0</asrwt>
<pdfrwt beam="1">  1       21 0.39963901E-03 0.80173396E+02</pdfrwt>
<pdfrwt beam="2">  1       -3 0.23064066E+00 0.80173396E+02</pdfrwt>
<totfact> 0.76068373E+04</totfact>
</mgrwt>
</event>
<event>
 6    2  0.8544106E+000  0.1623344E+03  0.7546771E-02  0.1186086E+00
         21   -1    0    0  501  502  0.00000000000E+00  0.00000000000E+00  0.18857873493E+02  0.18857873493E+02  0.00000000000E+00 0.  1.
          2   -1    0    0  502    0 -0.00000000000E+00 -0.00000000000E+00 -0.11706636426E+04  0.11706636426E+04  0.00000000000E+00 0. -1.
         24    2    1    2    0    0 -0.33252529909E+02  0.12834244871E+03 -0.70576400646E+03  0.72419284847E+03  0.93674618117E+02 0.  0.
        -13    1    3    3    0    0  0.21696570960E+02  0.96239078831E+02 -0.43683359049E+03  0.44783511169E+03  0.00000000000E+00 0.  1.
         14    1    3    3    0    0 -0.54949100869E+02  0.32103369876E+02 -0.26893041597E+03  0.27635773678E+03  0.00000000000E+00 0. -1.
          1    1    1    2  501    0  0.33252529909E+02 -0.12834244871E+03 -0.44604176270E+03  0.46532866767E+03  0.00000000000E+00 0. -1.
<mgrwt>
<rscale>  1 0.16233437E+03</rscale>
<asrwt>0</asrwt>
<pdfrwt beam="1">  1       21 0.29012103E-02 0.16233437E+03</pdfrwt>
<pdfrwt beam="2">  1        2 0.18010216E+00 0.16233437E+03</pdfrwt>
<totfact> 0.17723760E+05</totfact>
</mgrwt>
</event>
<event>
 6    2  0.8544106E+000  0.1785091E+03  0.7546771E-02  0.1169254E+00
          2   -1    0    0  502    0 -0.00000000000E+00  0.00000000000E+00  0.22094702200E+04  0.22094702200E+04  0.00000000000E+00 0. -1.
         21   -1    0    0  501  502  0.00000000000E+00 -0.00000000000E+00 -0.16210508198E+02  0.16210508198E+02  0.00000000000E+00 0. -1.
         24    2    1    2    0    0  0.15937437711E+03 -0.57472567400E+01  0.16461808500E+04  0.16558311831E+04  0.80201576765E+02 0.  0.
        -11    1    3    3    0    0  0.60657975265E+02  0.11902320150E+02  0.10006524826E+04  0.10025599464E+04  0.00000000000E+00 0.  1.
         12    1    3    3    0    0  0.98716401845E+02 -0.17649576890E+02  0.64552836734E+03  0.65327123662E+03  0.00000000000E+00 0. -1.
          1    1    1    2  501    0 -0.15937437711E+03  0.57472567400E+01  0.54707886179E+03  0.56984954511E+03  0.00000000000E+00 0. -1.
<mgrwt>
<rscale>  1 0.17850915E+03</rscale>
<asrwt>0</asrwt>
<pdfrwt beam="1">  1       21 0.24939261E-02 0.17850915E+03</pdfrwt>
<pdfrwt beam="2">  1        2 0.33991826E+00 0.17850915E+03</pdfrwt>
<totfact> 0.64478317E+04</totfact>
</mgrwt>
</event>
<event>
 6    2  0.8544106E+000  0.8364949E+02  0.7546771E-02  0.1319003E+00
         21   -1    0    0  501  502  0.00000000000E+00  0.00000000000E+00  0.11070448259E+01  0.11070448259E+01  0.00000000000E+00 0.  1.
          2   -1    0    0  502    0 -0.00000000000E+00 -0.00000000000E+00 -0.25014437459E+04  0.25014437459E+04  0.00000000000E+00 0. -1.
         24    2    1    2    0    0 -0.20127858934E+02  0.38868951456E+01 -0.21366435442E+04  0.21382803541E+04  0.81098699139E+02 0.  0.
        -13    1    3    3    0    0  0.15841866781E+02  0.23584737080E+02 -0.34511781596E+03  0.34628530356E+03  0.00000000000E+00 0.  1.
         14    1    3    3    0    0 -0.35969725715E+02 -0.19697841934E+02 -0.17915257282E+04  0.17919950505E+04  0.00000000000E+00 0. -1.
          1    1    1    2  501    0  0.20127858934E+02 -0.38868951456E+01 -0.36369315692E+03  0.36427043669E+03  0.00000000000E+00 0. -1.
<mgrwt>
<rscale>  1 0.83649493E+02</rscale>
<asrwt>0</asrwt>
<pdfrwt beam="1">  1       21 0.17031492E-03 0.83649493E+02</pdfrwt>
<pdfrwt beam="2">  1        2 0.38483674E+00 0.83649493E+02</pdfrwt>
<totfact> 0.29417202E+06</totfact>
</mgrwt>
</event>
<event>
 6    2  0.8544106E+000  0.8635647E+02  0.7546771E-02  0.1311923E+00
          2   -1    0    0  502    0 -0.00000000000E+00  0.00000000000E+00  0.37669055492E+03  0.37669055492E+03  0.00000000000E+00 0. -1.
         21   -1    0    0  501  502  0.00000000000E+00 -0.00000000000E+00 -0.16577823063E+02  0.16577823063E+02  0.00000000000E+00 0. -1.
         24    2    1    2    0    0 -0.62344937925E+01 -0.28592999842E+02  0.35264659892E+03  0.36306619770E+03  0.81246609943E+02 0.  0.
        -11    1    3    3    0    0  0.24960884876E+02 -0.62252046259E+01  0.36827430269E+02  0.44922806754E+02  0.00000000000E+00 0.  1.
         12    1    3    3    0    0 -0.31195378669E+02 -0.22367795216E+02  0.31581916865E+03  0.31814339094E+03  0.00000000000E+00 0. -1.
          1    1    1    2  501    0  0.62344937925E+01  0.28592999842E+02  0.74661329319E+01  0.30202180282E+02  0.00000000000E+00 0. -1.
<mgrwt>
<rscale>  1 0.86356472E+02</rscale>
<asrwt>0</asrwt>
<pdfrwt beam="1">  1       21 0.25504346E-02 0.86356472E+02</pdfrwt>
<pdfrwt beam="2">  1        2 0.57952387E-01 0.86356472E+02</pdfrwt>
<totfact> 0.82332522E+05</totfact>
</mgrwt>
</event>
<event>
 6    2  0.8544106E+000  0.9262655E+02  0.7546771E-02  0.1296613E+00
          2   -1    0    0  502    0 -0.00000000000E+00  0.00000000000E+00  0.19595220760E+04  0.19595220760E+04  0.00000000000E+00 0. -1.
         21   -1    0    0  501  502  0.00000000000E+00 -0.00000000000E+00 -0.33921342697E+01  0.33921342697E+01  0.00000000000E+00 0.  1.
         24    2    1    2    0    0 -0.41107559815E+02 -0.10403634230E+02  0.17509553554E+04  0.17534036426E+04  0.82350532992E+02 0.  0.
        -13    1    3    3    0    0 -0.27060341624E+02 -0.57419500388E+01  0.15960969077E+03  0.16198915231E+03  0.00000000000E+00 0.  1.
         14    1    3    3    0    0 -0.14047218191E+02 -0.46616841916E+01  0.15913456646E+04  0.15914144903E+04  0.00000000000E+00 0. -1.
          1    1    1    2  501    0  0.41107559815E+02  0.10403634230E+02  0.20517458630E+03  0.20951056762E+03  0.00000000000E+00 0. -1.
<mgrwt>
<rscale>  1 0.92626548E+02</rscale>
<asrwt>0</asrwt>
<pdfrwt beam="1">  1       21 0.52186838E-03 0.92626548E+02</pdfrwt>
<pdfrwt beam="2">  1        2 0.30146403E+00 0.92626548E+02</pdfrwt>
<totfact> 0.10288897E+06</totfact>
</mgrwt>
</event>
<event>
 6    2  0.8544106E+000  0.9115552E+02  0.7546771E-02  0.1300077E+00
          2   -1    0    0  502    0 -0.00000000000E+00  0.00000000000E+00  0.31032026398E+03  0.31032026398E+03  0.00000000000E+00 0. -1.
         21   -1    0    0  501  502  0.00000000000E+00 -0.00000000000E+00 -0.15488826972E+02  0.15488826972E+02  0.00000000000E+00 0.  1.
         24    2    1    2    0    0  0.30346329016E+02  0.15322960422E+02  0.26616104455E+03  0.28133792946E+03  0.84579170707E+02 0.  0.
        -13    1    3    3    0    0  0.58004821395E+02  0.22531789135E+02  0.17063831708E+03  0.18163060338E+03  0.00000000000E+00 0.  1.
         14    1    3    3    0    0 -0.27658492380E+02 -0.72088287122E+01  0.95522727464E+02  0.99707326081E+02  0.00000000000E+00 0. -1.
          1    1    1    2  501    0 -0.30346329016E+02 -0.15322960422E+02  0.28670392466E+02  0.44471161498E+02  0.00000000000E+00 0. -1.
<mgrwt>
<rscale>  1 0.91155521E+02</rscale>
<asrwt>0</asrwt>
<pdfrwt beam="1">  1       21 0.23828967E-02 0.91155521E+02</pdfrwt>
<pdfrwt beam="2">  1        2 0.47741575E-01 0.91155521E+02</pdfrwt>
<totfact> 0.11313108E+06</totfact>
</mgrwt>
</event>
<event>
 6    2  0.8544106E+000  0.7692064E+02  0.7546771E-02  0.1338025E+00
          2   -1    0    0  502    0 -0.00000000000E+00  0.00000000000E+00  0.49816815522E+03  0.49816815522E+03  0.00000000000E+00 0. -1.
         21   -1    0    0  501  502  0.00000000000E+00 -0.00000000000E+00 -0.50185138538E+01  0.50185138538E+01  0.00000000000E+00 0.  1.
         24    2    1    2    0    0  0.16832382246E+02 -0.15778828965E+02  0.37649533435E+03  0.38427271749E+03  0.73379043910E+02 0.  0.
        -13    1    3    3    0    0  0.77657708984E+01 -0.19977709308E+02  0.26269200816E+02  0.33904084980E+02  0.00000000000E+00 0.  1.
         14    1    3    3    0    0  0.90666113475E+01  0.41988803426E+01  0.35022613353E+03  0.35036863251E+03  0.00000000000E+00 0. -1.
          1    1    1    2  501    0 -0.16832382246E+02  0.15778828965E+02  0.11665430702E+03  0.11891395158E+03  0.00000000000E+00 0. -1.
<mgrwt>
<rscale>  1 0.76920638E+02</rscale>
<asrwt>0</asrwt>
<pdfrwt beam="1">  1       21 0.77207945E-03 0.76920638E+02</pdfrwt>
<pdfrwt beam="2">  1        2 0.76641216E-01 0.76920638E+02</pdfrwt>
<totfact> 0.39782141E+06</totfact>
</mgrwt>
</event>
<event>
 6    2  0.8544106E+000  0.8614044E+02  0.7546771E-02  0.1312477E+00
          2   -1    0    0  502    0 -0.00000000000E+00  0.00000000000E+00  0.24975488915E+04  0.24975488915E+04  0.00000000000E+00 0. -1.
         21   -1    0    0  501  502  0.00000000000E+00 -0.00000000000E+00 -0.15092191123E+01  0.15092191123E+01  0.00000000000E+00 0. -1.
         24    2    1    2    0    0  0.26482367966E+02  0.38879023632E+01  0.22328291515E+04  0.22344901422E+04  0.81876396191E+02 0.  0.
        -11    1    3    3    0    0  0.17577328975E+02  0.22623789156E+02  0.26370368872E+03  0.26525541234E+03  0.00000000000E+00 0.  1.
         12    1    3    3    0    0  0.89050389913E+01 -0.18735886793E+02  0.19691254628E+04  0.19692347299E+04  0.00000000000E+00 0. -1.
          1    1    1    2  501    0 -0.26482367966E+02 -0.38879023632E+01  0.26321052088E+03  0.26456796839E+03  0.00000000000E+00 0. -1.
<mgrwt>
<rscale>  1 0.86140443E+02</rscale>
<asrwt>0</asrwt>
<pdfrwt beam="1">  1       21 0.23218955E-03 0.86140443E+02</pdfrwt>
<pdfrwt beam="2">  1        2 0.38423498E+00 0.86140443E+02</pdfrwt>
<totfact> 0.18621034E+06</totfact>
</mgrwt>
</event>
<event>
 6    2  0.8544106E+000  0.8907632E+02  0.7546771E-02  0.1305104E+00
         21   -1    0    0  501  502  0.00000000000E+00  0.00000000000E+00  0.14919588653E+02  0.14919588653E+02  0.00000000000E+00 0. -1.
          2   -1    0    0  502    0 -0.00000000000E+00 -0.00000000000E+00 -0.33582764305E+03  0.33582764305E+03  0.00000000000E+00 0. -1.
         24    2    1    2    0    0  0.27362966886E+02 -0.16760299327E+02 -0.29876327465E+03  0.31175965855E+03  0.83096033773E+02 0.  0.
        -11    1    3    3    0    0 -0.53434006611E+01  0.30433097328E+02 -0.12466885672E+03  0.12844083922E+03  0.00000000000E+00 0.  1.
         12    1    3    3    0    0  0.32706367547E+02 -0.47193396655E+02 -0.17409441793E+03  0.18331881933E+03  0.00000000000E+00 0. -1.
          1    1    1    2  501    0 -0.27362966886E+02  0.16760299327E+02 -0.22144779745E+02  0.38987573152E+02  0.00000000000E+00 0. -1.
<mgrwt>
<rscale>  1 0.89076318E+02</rscale>
<asrwt>0</asrwt>
<pdfrwt beam="1">  1       21 0.22953216E-02 0.89076318E+02</pdfrwt>
<pdfrwt beam="2">  1        2 0.51665785E-01 0.89076318E+02</pdfrwt>
<totfact> 0.11036553E+06</totfact>
</mgrwt>
</event>
<event>
 6    2  0.8544106E+000  0.9756886E+02  0.7546771E-02  0.1285493E+00
          2   -1    0    0  502    0 -0.00000000000E+00  0.00000000000E+00  0.44399396842E+03  0.44399396842E+03  0.00000000000E+00 0. -1.
         21   -1    0    0  501  502  0.00000000000E+00 -0.00000000000E+00 -0.14233315191E+02  0.14233315191E+02  0.00000000000E+00 0.  1.
         24    2    1    2    0    0 -0.40066450609E+02 -0.36110615825E+02  0.33787210862E+03  0.35167775677E+03  0.81304279003E+02 0.  0.
        -13    1    3    3    0    0 -0.22839662301E+02  0.19349984874E+02  0.52303333331E+02  0.60263677005E+02  0.00000000000E+00 0.  1.
         14    1    3    3    0    0 -0.17226788308E+02 -0.55460600699E+02  0.28556877529E+03  0.29141407977E+03  0.00000000000E+00 0. -1.
          1    1    1    2  501    0  0.40066450609E+02  0.36110615825E+02  0.91888544609E+02  0.10654952684E+03  0.00000000000E+00 0. -1.
<mgrwt>
<rscale>  1 0.97568862E+02</rscale>
<asrwt>0</asrwt>
<pdfrwt beam="1">  1       21 0.21897411E-02 0.97568862E+02</pdfrwt>
<pdfrwt beam="2">  1        2 0.68306754E-01 0.97568862E+02</pdfrwt>
<totfact> 0.89504541E+05</totfact>
</mgrwt>
</event>
<event>
 6    2  0.8544106E+000  0.9379980E+02  0.7546771E-02  0.1293902E+00
         21   -1    0    0  501  502  0.00000000000E+00  0.00000000000E+00  0.54860508885E+02  0.54860508885E+02  0.00000000000E+00 0. -1.
          2   -1    0    0  502    0 -0.00000000000E+00 -0.00000000000E+00 -0.13977901950E+03  0.13977901950E+03  0.00000000000E+00 0. -1.
         24    2    1    2    0    0  0.39620193712E+02 -0.25708461359E+02 -0.10717759903E+03  0.14242696522E+03  0.81041458223E+02 0.  0.
        -11    1    3    3    0    0  0.61162844696E+01  0.16589373718E+01  0.13129158673E+02  0.14578608177E+02  0.00000000000E+00 0.  1.
         12    1    3    3    0    0  0.33503909242E+02 -0.27367398730E+02 -0.12030675771E+03  0.12784835704E+03  0.00000000000E+00 0. -1.
          1    1    1    2  501    0 -0.39620193712E+02  0.25708461359E+02  0.22259088420E+02  0.52212563167E+02  0.00000000000E+00 0. -1.
<mgrwt>
<rscale>  1 0.93799801E+02</rscale>
<asrwt>0</asrwt>
<pdfrwt beam="1">  1       21 0.84400784E-02 0.93799801E+02</pdfrwt>
<pdfrwt beam="2">  1        2 0.21504464E-01 0.93799801E+02</pdfrwt>
<totfact> 0.32640047E+05</totfact>
</mgrwt>
</event>
<event>
 6    2  0.8544106E+000  0.1311287E+03  0.7546771E-02  0.1225790E+00
         21   -1    0    0  501  502  0.00000000000E+00  0.00000000000E+00  0.86592154783E+02  0.86592154783E+02  0.00000000000E+00 0. -1.
          2   -1    0    0  502    0 -0.00000000000E+00 -0.00000000000E+00 -0.18414645505E+03  0.18414645505E+03  0.00000000000E+00 0. -1.
         24    2    1    2    0    0 -0.91327070721E+02  0.48330896318E+02 -0.10377491571E+03  0.16722433332E+03  0.80735587813E+02 0.  0.
        -11    1    3    3    0    0  0.12067923085E+02 -0.54656599833E+01 -0.18733808206E+02  0.22944798463E+02  0.00000000000E+00 0.  1.
         12    1    3    3    0    0 -0.10339499381E+03  0.53796556302E+02 -0.85041107506E+02  0.14427953486E+03  0.00000000000E+00 0. -1.
          1    1    1    2  501    0  0.91327070721E+02 -0.48330896318E+02  0.62206154402E+01  0.10351427651E+03  0.00000000000E+00 0. -1.
<mgrwt>
<rscale>  1 0.13112873E+03</rscale>
<asrwt>0</asrwt>
<pdfrwt beam="1">  1       21 0.13321870E-01 0.13112873E+03</pdfrwt>
<pdfrwt beam="2">  1        2 0.28330224E-01 0.13112873E+03</pdfrwt>
<totfact> 0.11058995E+05</totfact>
</mgrwt>
</event>
<event>
 6    2  0.8544106E+000  0.1202525E+03  0.7546771E-02  0.1242681E+00
          2   -1    0    0  502    0 -0.00000000000E+00  0.00000000000E+00  0.60680893212E+03  0.60680893212E+03  0.00000000000E+00 0. -1.
         21   -1    0    0  501  502  0.00000000000E+00 -0.00000000000E+00 -0.19001971540E+02  0.19001971540E+02  0.00000000000E+00 0. -1.
         24    2    1    2    0    0  0.21634595898E+02  0.90574208449E+02  0.36600329923E+03  0.38525195628E+03  0.76084898599E+02 0.  0.
        -11    1    3    3    0    0  0.38513985667E+02  0.22954077112E+02  0.20441407809E+03  0.20927334295E+03  0.00000000000E+00 0.  1.
         12    1    3    3    0    0 -0.16879389768E+02  0.67620131337E+02  0.16158922113E+03  0.17597861332E+03  0.00000000000E+00 0. -1.
          1    1    1    2  501    0 -0.21634595898E+02 -0.90574208449E+02  0.22180366135E+03  0.24055894738E+03  0.00000000000E+00 0. -1.
<mgrwt>
<rscale>  1 0.12025246E+03</rscale>
<asrwt>0</asrwt>
<pdfrwt beam="1">  1       21 0.29233807E-02 0.12025246E+03</pdfrwt>
<pdfrwt beam="2">  1        2 0.93355205E-01 0.12025246E+03</pdfrwt>
<totfact> 0.40393285E+05</totfact>
</mgrwt>
</event>
<event>
 6    2  0.8544106E+000  0.1207722E+03  0.7546771E-02  0.1241829E+00
         21   -1    0    0  501  502  0.00000000000E+00  0.00000000000E+00  0.11711279626E+02  0.11711279626E+02  0.00000000000E+00 0. -1.
          2   -1    0    0  502    0 -0.00000000000E+00 -0.00000000000E+00 -0.12413486735E+04  0.12413486735E+04  0.00000000000E+00 0. -1.
         24    2    1    2    0    0  0.26641620017E+02  0.85840613618E+02 -0.98606503828E+03  0.99343353060E+03  0.80669282542E+02 0.  0.
        -13    1    3    3    0    0  0.19359583000E+02  0.22760578648E+01 -0.48533501762E+03  0.48572631514E+03  0.00000000000E+00 0.  1.
         14    1    3    3    0    0  0.72820370175E+01  0.83564555754E+02 -0.50073002066E+03  0.50770721546E+03  0.00000000000E+00 0. -1.
          1    1    1    2  501    0 -0.26641620017E+02 -0.85840613618E+02 -0.24357235563E+03  0.25962642256E+03  0.00000000000E+00 0. -1.
<mgrwt>
<rscale>  1 0.12077218E+03</rscale>
<asrwt>0</asrwt>
<pdfrwt beam="1">  1       21 0.18017360E-02 0.12077218E+03</pdfrwt>
<pdfrwt beam="2">  1        2 0.19097665E+00 0.12077218E+03</pdfrwt>
<totfact> 0.34874100E+05</totfact>
</mgrwt>
</event>
<event>
 6    2  0.8544106E+000  0.8192392E+02  0.7546771E-02  0.1323679E+00
         21   -1    0    0  501  502  0.00000000000E+00  0.00000000000E+00  0.78219657578E+00  0.78219657578E+00  0.00000000000E+00 0.  1.
          2   -1    0    0  502    0 -0.00000000000E+00 -0.00000000000E+00 -0.33655279820E+04  0.33655279820E+04  0.00000000000E+00 0. -1.
         24    2    1    2    0    0 -0.20482801352E+02  0.16456619235E+01 -0.27584312189E+04  0.27596474988E+04  0.79304951463E+02 0.  0.
        -11    1    3    3    0    0 -0.20208211683E+02 -0.27129655665E+02 -0.55593442932E+03  0.55696272742E+03  0.00000000000E+00 0.  1.
         12    1    3    3    0    0 -0.27458966928E+00  0.28775317589E+02 -0.22024967895E+04  0.22026847714E+04  0.00000000000E+00 0. -1.
          1    1    1    2  501    0  0.20482801352E+02 -0.16456619235E+01 -0.60631456656E+03  0.60666267973E+03  0.00000000000E+00 0. -1.
<mgrwt>
<rscale>  1 0.81923920E+02</rscale>
<asrwt>0</asrwt>
<pdfrwt beam="1">  1       21 0.12033716E-03 0.81923920E+02</pdfrwt>
<pdfrwt beam="2">  1        2 0.51777686E+00 0.81923920E+02</pdfrwt>
<totfact> 0.16060622E+06</totfact>
</mgrwt>
</event>
<event>
 6    2  0.8544106E+000  0.1031222E+03  0.7546771E-02  0.1273864E+00
         21   -1    0    0  501  502  0.00000000000E+00  0.00000000000E+00  0.33478522880E+02  0.33478522880E+02  0.00000000000E+00 0.  1.
         -1   -1    0    0    0  501 -0.00000000000E+00 -0.00000000000E+00 -0.22966666512E+03  0.22966666512E+03  0.00000000000E+00 0.  1.
         24    2    1    2    0    0 -0.45108987252E+02 -0.53107381602E+02 -0.94490162591E+02  0.13986626127E+03  0.76019507387E+02 0.  0.
        -13    1    3    3    0    0 -0.42734778658E+02 -0.29335980379E+02 -0.10234120589E+03  0.11471958627E+03  0.00000000000E+00 0.  1.
         14    1    3    3    0    0 -0.23742085937E+01 -0.23771401223E+02  0.78510432971E+01  0.25146674997E+02  0.00000000000E+00 0. -1.
         -2    1    1    2    0  502  0.45108987252E+02  0.53107381602E+02 -0.10169797965E+03  0.12327892673E+03  0.00000000000E+00 0.  1.
<mgrwt>
<rscale>  1 0.10312216E+03</rscale>
<asrwt>0</asrwt>
<pdfrwt beam="1">  1       21 0.51505420E-02 0.10312216E+03</pdfrwt>
<pdfrwt beam="2">  1       -1 0.35333333E-01 0.10312216E+03</pdfrwt>
<totfact> 0.17382305E+05</totfact>
</mgrwt>
</event>
<event>
 6    2  0.8544106E+000  0.8880919E+02  0.7546771E-02  0.1305761E+00
          2   -1    0    0  502    0 -0.00000000000E+00  0.00000000000E+00  0.11858064382E+04  0.11858064382E+04  0.00000000000E+00 0. -1.
         21   -1    0    0  501  502  0.00000000000E+00 -0.00000000000E+00 -0.51679819371E+01  0.51679819371E+01  0.00000000000E+00 0. -1.
         24    2    1    2    0    0  0.34624168465E+02  0.12513919025E+02  0.10828403557E+04  0.10864760963E+04  0.80818566527E+02 0.  0.
        -11    1    3    3    0    0 -0.22383523702E+02  0.40911623213E+01  0.13656422547E+03  0.13844691192E+03  0.00000000000E+00 0.  1.
         12    1    3    3    0    0  0.57007692167E+02  0.84227567041E+01  0.94627613020E+03  0.94802918435E+03  0.00000000000E+00 0. -1.
          1    1    1    2  501    0 -0.34624168465E+02 -0.12513919025E+02  0.97798100636E+02  0.10449832391E+03  0.00000000000E+00 0. -1.
<mgrwt>
<rscale>  1 0.88809188E+02</rscale>
<asrwt>0</asrwt>
<pdfrwt beam="1">  1       21 0.79507509E-03 0.88809188E+02</pdfrwt>
<pdfrwt beam="2">  1        2 0.18243154E+00 0.88809188E+02</pdfrwt>
<totfact> 0.13350459E+06</totfact>
</mgrwt>
</event>
<event>
 6    2  0.8544106E+000  0.8009734E+02  0.7546771E-02  0.1328775E+00
         -3   -1    0    0    0  501 -0.00000000000E+00  0.00000000000E+00  0.36984816210E+03  0.36984816210E+03  0.00000000000E+00 0.  1.
         21   -1    0    0  501  502  0.00000000000E+00 -0.00000000000E+00 -0.72727277992E+01  0.72727277992E+01  0.00000000000E+00 0. -1.
         24    2    1    2    0    0 -0.12765465698E+02  0.18168413327E+02  0.30692152627E+03  0.31720089460E+03  0.76958013822E+02 0.  0.
        -11    1    3    3    0    0 -0.13786629761E+02  0.90640275401E+01  0.30757399317E+03  0.30801621553E+03  0.00000000000E+00 0.  1.
         12    1    3    3    0    0  0.10211640635E+01  0.91043857872E+01 -0.65246689932E+00  0.91846790723E+01  0.00000000000E+00 0. -1.
         -4    1    1    2    0  502  0.12765465698E+02 -0.18168413327E+02  0.55653908037E+02  0.59919995303E+02  0.00000000000E+00 0.  1.
<mgrwt>
<rscale>  1 0.80097342E+02</rscale>
<asrwt>0</asrwt>
<pdfrwt beam="1">  1       21 0.11188815E-02 0.80097342E+02</pdfrwt>
<pdfrwt beam="2">  1       -3 0.56899703E-01 0.80097342E+02</pdfrwt>
<totfact> 0.41518515E+05</totfact>
</mgrwt>
</event>
<event>
 6    2  0.8544106E+000  0.8562087E+02  0.7546771E-02  0.1313817E+00
         21   -1    0    0  501  502  0.00000000000E+00  0.00000000000E+00  0.78171081039E+01  0.78171081039E+01  0.00000000000E+00 0. -1.
          2   -1    0    0  502    0 -0.00000000000E+00 -0.00000000000E+00 -0.76849101058E+03  0.76849101058E+03  0.00000000000E+00 0. -1.
         24    2    1    2    0    0 -0.67276089281E+01 -0.27128106789E+02 -0.72922385591E+03  0.73423318162E+03  0.80930452017E+02 0.  0.
        -13    1    3    3    0    0 -0.10249914863E+02  0.11977687652E+02 -0.29842831469E+02  0.33750856971E+02  0.00000000000E+00 0.  1.
         14    1    3    3    0    0  0.35223059345E+01 -0.39105794440E+02 -0.69938102444E+03  0.70048232465E+03  0.00000000000E+00 0. -1.
          1    1    1    2  501    0  0.67276089281E+01  0.27128106789E+02 -0.31450046562E+02  0.42074937059E+02  0.00000000000E+00 0. -1.
<mgrwt>
<rscale>  1 0.85620868E+02</rscale>
<asrwt>0</asrwt>
<pdfrwt beam="1">  1       21 0.12026317E-02 0.85620868E+02</pdfrwt>
<pdfrwt beam="2">  1        2 0.11822942E+00 0.85620868E+02</pdfrwt>
<totfact> 0.12395681E+06</totfact>
</mgrwt>
</event>
<event>
 6    2  0.8544106E+000  0.8796193E+02  0.7546771E-02  0.1307864E+00
         -1   -1    0    0    0  501 -0.00000000000E+00  0.00000000000E+00  0.23891742932E+02  0.23891742932E+02  0.00000000000E+00 0.  1.
         21   -1    0    0  501  502  0.00000000000E+00 -0.00000000000E+00 -0.61779040742E+03  0.61779040742E+03  0.00000000000E+00 0.  1.
         24    2    1    2    0    0 -0.31898316503E+02 -0.14932263345E+02 -0.59664053678E+02  0.10628781486E+03  0.80602885823E+02 0.  0.
        -13    1    3    3    0    0 -0.38898465229E+02  0.13924266504E+02 -0.19243468777E+01  0.41360354275E+02  0.00000000000E+00 0.  1.
         14    1    3    3    0    0  0.70001487262E+01 -0.28856529850E+02 -0.57739706801E+02  0.64927460589E+02  0.00000000000E+00 0. -1.
         -2    1    1    2    0  502  0.31898316503E+02  0.14932263345E+02 -0.53423461081E+03  0.53539433549E+03  0.00000000000E+00 0.  1.
<mgrwt>
<rscale>  1 0.87961925E+02</rscale>
<asrwt>0</asrwt>
<pdfrwt beam="1">  1       21 0.95044683E-01 0.87961925E+02</pdfrwt>
<pdfrwt beam="2">  1       -1 0.36756526E-02 0.87961925E+02</pdfrwt>
<totfact> 0.22640480E+04</totfact>
</mgrwt>
</event>
<event>
 6    2  0.8544106E+000  0.8728580E+02  0.7546771E-02  0.1309561E+00
          2   -1    0    0  502    0 -0.00000000000E+00  0.00000000000E+00  0.19057685009E+03  0.19057685009E+03  0.00000000000E+00 0. -1.
         21   -1    0    0  501  502  0.00000000000E+00 -0.00000000000E+00 -0.20266072370E+02  0.20266072370E+02  0.00000000000E+00 0.  1.
         24    2    1    2    0    0  0.29563114677E+02  0.14178001997E+02  0.14570717073E+03  0.16985108221E+03  0.80893862779E+02 0.  0.
        -11    1    3    3    0    0  0.25941462473E+01  0.42932783387E+02  0.47785710386E+02  0.64291738203E+02  0.00000000000E+00 0.  1.
         12    1    3    3    0    0  0.26968968430E+02 -0.28754781390E+02  0.97921460348E+02  0.10555934401E+03  0.00000000000E+00 0. -1.
          1    1    1    2  501    0 -0.29563114677E+02 -0.14178001997E+02  0.24603606984E+02  0.40991840245E+02  0.00000000000E+00 0. -1.
<mgrwt>
<rscale>  1 0.87285798E+02</rscale>
<asrwt>0</asrwt>
<pdfrwt beam="1">  1       21 0.31178574E-02 0.87285798E+02</pdfrwt>
<pdfrwt beam="2">  1        2 0.29319514E-01 0.87285798E+02</pdfrwt>
<totfact> 0.12178317E+06</totfact>
</mgrwt>
</event>
<event>
 6    2  0.8544106E+000  0.7708041E+02  0.7546771E-02  0.1337547E+00
         21   -1    0    0  501  502  0.00000000000E+00  0.00000000000E+00  0.18376641113E+02  0.18376641113E+02  0.00000000000E+00 0.  1.
         -3   -1    0    0    0  501 -0.00000000000E+00 -0.00000000000E+00 -0.33804968695E+03  0.33804968695E+03  0.00000000000E+00 0.  1.
         24    2    1    2    0    0 -0.21478852760E+02 -0.41421830751E+01 -0.32491462667E+03  0.33393248521E+03  0.73911374350E+02 0.  0.
        -11    1    3    3    0    0  0.19514329889E+01  0.17725042540E+02 -0.26817339189E+03  0.26876561041E+03  0.00000000000E+00 0.  1.
         12    1    3    3    0    0 -0.23430285749E+02 -0.21867225615E+02 -0.56741234785E+02  0.65166874800E+02  0.00000000000E+00 0. -1.
         -4    1    1    2    0  502  0.21478852760E+02  0.41421830751E+01  0.52415808355E+01  0.22493842850E+02  0.00000000000E+00 0.  1.
<mgrwt>
<rscale>  1 0.77080413E+02</rscale>
<asrwt>0</asrwt>
<pdfrwt beam="1">  1       21 0.28271758E-02 0.77080413E+02</pdfrwt>
<pdfrwt beam="2">  1       -3 0.52007641E-01 0.77080413E+02</pdfrwt>
<totfact> 0.11330671E+05</totfact>
</mgrwt>
</event>
<event>
 6    2  0.8544106E+000  0.9356682E+02  0.7546771E-02  0.1294437E+00
         21   -1    0    0  501  502  0.00000000000E+00  0.00000000000E+00  0.11460499612E+02  0.11460499612E+02  0.00000000000E+00 0.  1.
          2   -1    0    0  502    0 -0.00000000000E+00 -0.00000000000E+00 -0.48227859080E+03  0.48227859080E+03  0.00000000000E+00 0. -1.
         24    2    1    2    0    0  0.49843155256E+02 -0.10988123870E+02 -0.24583555212E+03  0.26303967152E+03  0.78419838783E+02 0.  0.
        -11    1    3    3    0    0  0.40416482533E+02  0.21701335771E+02 -0.68314706360E+02  0.82288147018E+02  0.00000000000E+00 0.  1.
         12    1    3    3    0    0  0.94266727227E+01 -0.32689459640E+02 -0.17752084576E+03  0.18075152450E+03  0.00000000000E+00 0. -1.
          1    1    1    2  501    0 -0.49843155256E+02  0.10988123870E+02 -0.22498253907E+03  0.23069941889E+03  0.00000000000E+00 0. -1.
<mgrwt>
<rscale>  1 0.93566822E+02</rscale>
<asrwt>0</asrwt>
<pdfrwt beam="1">  1       21 0.17631538E-02 0.93566822E+02</pdfrwt>
<pdfrwt beam="2">  1        2 0.74196707E-01 0.93566822E+02</pdfrwt>
<totfact> 0.11543265E+06</totfact>
</mgrwt>
</event>
<event>
 6    2  0.8544106E+000  0.8368714E+02  0.7546771E-02  0.1318902E+00
          2   -1    0    0  502    0 -0.00000000000E+00  0.00000000000E+00  0.54967176687E+03  0.54967176687E+03  0.00000000000E+00 0. -1.
         21   -1    0    0  501  502  0.00000000000E+00 -0.00000000000E+00 -0.11892795513E+02  0.11892795513E+02  0.00000000000E+00 0.  1.
         24    2    1    2    0    0 -0.99138386963E+01  0.19653660467E+02  0.53235622435E+03  0.53889394809E+03  0.80740244735E+02 0.  0.
        -11    1    3    3    0    0 -0.43891723439E+02  0.22956716457E+02  0.30990205916E+03  0.31383559468E+03  0.00000000000E+00 0.  1.
         12    1    3    3    0    0  0.33977884742E+02 -0.33030559900E+01  0.22245416519E+03  0.22505835341E+03  0.00000000000E+00 0. -1.
          1    1    1    2  501    0  0.99138386963E+01 -0.19653660467E+02  0.54227470155E+01  0.22670614298E+02  0.00000000000E+00 0. -1.
<mgrwt>
<rscale>  1 0.83687142E+02</rscale>
<asrwt>0</asrwt>
<pdfrwt beam="1">  1       21 0.18296613E-02 0.83687142E+02</pdfrwt>
<pdfrwt beam="2">  1        2 0.84564868E-01 0.83687142E+02</pdfrwt>
<totfact> 0.93407531E+05</totfact>
</mgrwt>
</event>
<event>
 6    2  0.8544106E+000  0.6520086E+02  0.7546771E-02  0.1377218E+00
          4   -1    0    0  502    0 -0.00000000000E+00  0.00000000000E+00  0.78679090783E+01  0.78679090783E+01  0.00000000000E+00 0. -1.
         21   -1    0    0  501  502  0.00000000000E+00 -0.00000000000E+00 -0.71033219182E+03  0.71033219182E+03  0.00000000000E+00 0. -1.
         24    2    1    2    0    0 -0.66719975051E+01 -0.28478225838E+02 -0.13437096973E+03  0.14935430705E+03  0.58272005533E+02 0.  0.
        -11    1    3    3    0    0 -0.27808813362E+01 -0.40713556784E+02 -0.12923678886E+03  0.13552665643E+03  0.00000000000E+00 0.  1.
         12    1    3    3    0    0 -0.38911161689E+01  0.12235330947E+02 -0.51341808699E+01  0.13827650618E+02  0.00000000000E+00 0. -1.
          3    1    1    2  501    0  0.66719975051E+01  0.28478225838E+02 -0.56809331301E+03  0.56884579386E+03  0.00000000000E+00 0. -1.
<mgrwt>
<rscale>  1 0.65200855E+02</rscale>
<asrwt>0</asrwt>
<pdfrwt beam="1">  1       21 0.10928185E+00 0.65200855E+02</pdfrwt>
<pdfrwt beam="2">  1        4 0.12104478E-02 0.65200855E+02</pdfrwt>
<totfact> 0.54945322E+04</totfact>
</mgrwt>
</event>
<event>
 6    2  0.8544106E+000  0.1008515E+03  0.7546771E-02  0.1278516E+00
         21   -1    0    0  501  502  0.00000000000E+00  0.00000000000E+00  0.32712754473E+01  0.32712754473E+01  0.00000000000E+00 0. -1.
          2   -1    0    0  502    0 -0.00000000000E+00 -0.00000000000E+00 -0.27789197753E+04  0.27789197753E+04  0.00000000000E+00 0. -1.
         24    2    1    2    0    0 -0.61080481768E+02 -0.32720841325E+02 -0.22122140492E+04  0.22145116880E+04  0.73277132101E+02 0.  0.
        -11    1    3    3    0    0 -0.46183409181E+01  0.10998682723E+02 -0.63464073261E+02  0.64575449587E+02  0.00000000000E+00 0.  1.
         12    1    3    3    0    0 -0.56462140850E+02 -0.43719524048E+02 -0.21487499760E+04  0.21499362384E+04  0.00000000000E+00 0. -1.
          1    1    1    2  501    0  0.61080481768E+02  0.32720841325E+02 -0.56343445067E+03  0.56767936277E+03  0.00000000000E+00 0. -1.
<mgrwt>
<rscale>  1 0.10085146E+03</rscale>
<asrwt>0</asrwt>
<pdfrwt beam="1">  1       21 0.50327428E-03 0.10085146E+03</pdfrwt>
<pdfrwt beam="2">  1        2 0.42752516E+00 0.10085146E+03</pdfrwt>
<totfact> 0.40812113E+05</totfact>
</mgrwt>
</event>
<event>
 6    2  0.8544106E+000  0.8267259E+02  0.7546771E-02  0.1321634E+00
         21   -1    0    0  501  502  0.00000000000E+00  0.00000000000E+00  0.82098200462E+01  0.82098200462E+01  0.00000000000E+00 0. -1.
          2   -1    0    0  502    0 -0.00000000000E+00 -0.00000000000E+00 -0.72570295932E+03  0.72570295932E+03  0.00000000000E+00 0. -1.
         24    2    1    2    0    0 -0.66004044917E+01 -0.20876146960E+02 -0.70256678515E+03  0.70741419641E+03  0.79720629917E+02 0.  0.
        -11    1    3    3    0    0 -0.12190291031E+02 -0.10925465536E+02 -0.25824696055E+02  0.30575871516E+02  0.00000000000E+00 0.  1.
         12    1    3    3    0    0  0.55898865397E+01 -0.99506814236E+01 -0.67674208910E+03  0.67683832490E+03  0.00000000000E+00 0. -1.
          1    1    1    2  501    0  0.66004044917E+01  0.20876146960E+02 -0.14926354126E+02  0.26498582959E+02  0.00000000000E+00 0. -1.
<mgrwt>
<rscale>  1 0.82672593E+02</rscale>
<asrwt>0</asrwt>
<pdfrwt beam="1">  1       21 0.12630493E-02 0.82672593E+02</pdfrwt>
<pdfrwt beam="2">  1        2 0.11164660E+00 0.82672593E+02</pdfrwt>
<totfact> 0.12244133E+06</totfact>
</mgrwt>
</event>
<event>
 6    2  0.8544106E+000  0.7794015E+02  0.7546771E-02  0.1335001E+00
         21   -1    0    0  501  502  0.00000000000E+00  0.00000000000E+00  0.24994639753E+01  0.24994639753E+01  0.00000000000E+00 0.  1.
          2   -1    0    0  502    0 -0.00000000000E+00 -0.00000000000E+00 -0.10285921445E+04  0.10285921445E+04  0.00000000000E+00 0. -1.
         24    2    1    2    0    0 -0.16177575003E+02  0.16963603511E+02 -0.77855785711E+03  0.78244936230E+03  0.74331621323E+02 0.  0.
        -11    1    3    3    0    0 -0.17768417724E+02  0.37862075693E+02 -0.24986379301E+03  0.25334002546E+03  0.00000000000E+00 0.  1.
         12    1    3    3    0    0  0.15908427214E+01 -0.20898472182E+02 -0.52869406409E+03  0.52910933684E+03  0.00000000000E+00 0. -1.
          1    1    1    2  501    0  0.16177575003E+02 -0.16963603511E+02 -0.24753482339E+03  0.24864224615E+03  0.00000000000E+00 0. -1.
<mgrwt>
<rscale>  1 0.77940155E+02</rscale>
<asrwt>0</asrwt>
<pdfrwt beam="1">  1       21 0.38453302E-03 0.77940155E+02</pdfrwt>
<pdfrwt beam="2">  1        2 0.15824491E+00 0.77940155E+02</pdfrwt>
<totfact> 0.49134777E+06</totfact>
</mgrwt>
</event>
<event>
 6    2  0.8544106E+000  0.8367744E+02  0.7546771E-02  0.1318928E+00
         21   -1    0    0  501  502  0.00000000000E+00  0.00000000000E+00  0.25444311508E+01  0.25444311508E+01  0.00000000000E+00 0. -1.
          2   -1    0    0  502    0 -0.00000000000E+00 -0.00000000000E+00 -0.13237266576E+04  0.13237266576E+04  0.00000000000E+00 0. -1.
         24    2    1    2    0    0 -0.27709467820E+02 -0.12178504378E+01 -0.11291339397E+04  0.11322302626E+04  0.78946918995E+02 0.  0.
        -13    1    3    3    0    0 -0.25024443693E+02 -0.13854272937E+02 -0.13429084395E+03  0.13730329358E+03  0.00000000000E+00 0.  1.
         14    1    3    3    0    0 -0.26850241275E+01  0.12636422499E+02 -0.99484309574E+03  0.99492696901E+03  0.00000000000E+00 0. -1.
          1    1    1    2  501    0  0.27709467820E+02  0.12178504378E+01 -0.19204828679E+03  0.19404082618E+03  0.00000000000E+00 0. -1.
<mgrwt>
<rscale>  1 0.83677439E+02</rscale>
<asrwt>0</asrwt>
<pdfrwt beam="1">  1       21 0.39145159E-03 0.83677439E+02</pdfrwt>
<pdfrwt beam="2">  1        2 0.20364992E+00 0.83677439E+02</pdfrwt>
<totfact> 0.33269189E+06</totfact>
</mgrwt>
</event>
<event>
 6    2  0.8544106E+000  0.8264815E+02  0.7546771E-02  0.1321700E+00
          2   -1    0    0  502    0 -0.00000000000E+00  0.00000000000E+00  0.19948867705E+04  0.19948867705E+04  0.00000000000E+00 0. -1.
         21   -1    0    0  501  502  0.00000000000E+00 -0.00000000000E+00 -0.19986379484E+01  0.19986379484E+01  0.00000000000E+00 0.  1.
         24    2    1    2    0    0  0.57881620879E+01 -0.29376292736E+02  0.17781815116E+04  0.17801011782E+04  0.77034064596E+02 0.  0.
        -13    1    3    3    0    0  0.48963589643E+01 -0.25537868478E+02  0.17560134199E+03  0.17751616368E+03  0.00000000000E+00 0.  1.
         14    1    3    3    0    0  0.89180312362E+00 -0.38384242575E+01  0.16025801696E+04  0.16025850145E+04  0.00000000000E+00 0. -1.
          1    1    1    2  501    0 -0.57881620879E+01  0.29376292736E+02  0.21470662093E+03  0.21678423021E+03  0.00000000000E+00 0. -1.
<mgrwt>
<rscale>  1 0.82648149E+02</rscale>
<asrwt>0</asrwt>
<pdfrwt beam="1">  1       21 0.30748436E-03 0.82648149E+02</pdfrwt>
<pdfrwt beam="2">  1        2 0.30690406E+00 0.82648149E+02</pdfrwt>
<totfact> 0.21953671E+06</totfact>
</mgrwt>
</event>
<event>
 6    2  0.8544106E+000  0.8535045E+02  0.7546771E-02  0.1314519E+00
          2   -1    0    0  502    0 -0.00000000000E+00  0.00000000000E+00  0.54446992668E+03  0.54446992668E+03  0.00000000000E+00 0. -1.
         21   -1    0    0  501  502  0.00000000000E+00 -0.00000000000E+00 -0.11088730861E+02  0.11088730861E+02  0.00000000000E+00 0. -1.
         24    2    1    2    0    0 -0.28325559702E+02  0.15574368390E+02  0.50614021795E+03  0.51328609955E+03  0.78992414131E+02 0.  0.
        -13    1    3    3    0    0 -0.17416137707E+02 -0.87823104402E+01  0.26502390936E+02  0.32906345203E+02  0.00000000000E+00 0.  1.
         14    1    3    3    0    0 -0.10909421995E+02  0.24356678830E+02  0.47963782701E+03  0.48037975435E+03  0.00000000000E+00 0. -1.
          1    1    1    2  501    0  0.28325559702E+02 -0.15574368390E+02  0.27240977870E+02  0.42272557984E+02  0.00000000000E+00 0. -1.
<mgrwt>
<rscale>  1 0.85350453E+02</rscale>
<asrwt>0</asrwt>
<pdfrwt beam="1">  1       21 0.17059590E-02 0.85350453E+02</pdfrwt>
<pdfrwt beam="2">  1        2 0.83764584E-01 0.85350453E+02</pdfrwt>
<totfact> 0.10569647E+06</totfact>
</mgrwt>
</event>
<event>
 6    2  0.8544106E+000  0.8371115E+02  0.7546771E-02  0.1318838E+00
         21   -1    0    0  501  502  0.00000000000E+00  0.00000000000E+00  0.98574802264E+02  0.98574802264E+02  0.00000000000E+00 0.  1.
          2   -1    0    0  502    0 -0.00000000000E+00 -0.00000000000E+00 -0.29794338124E+02  0.29794338124E+02  0.00000000000E+00 0. -1.
         24    2    1    2    0    0 -0.34010896296E+01  0.21436203880E+02  0.65768496339E+02  0.10645681058E+03  0.80848495108E+02 0.  0.
        -11    1    3    3    0    0 -0.17081862794E+02  0.36713700522E+02  0.74003401900E+02  0.84357509063E+02  0.00000000000E+00 0.  1.
         12    1    3    3    0    0  0.13680773164E+02 -0.15277496642E+02 -0.82349055617E+01  0.22099301519E+02  0.00000000000E+00 0. -1.
          1    1    1    2  501    0  0.34010896296E+01 -0.21436203880E+02  0.30119678012E+01  0.21912329806E+02  0.00000000000E+00 0. -1.
<mgrwt>
<rscale>  1 0.83711155E+02</rscale>
<asrwt>0</asrwt>
<pdfrwt beam="1">  1       21 0.15165354E-01 0.83711155E+02</pdfrwt>
<pdfrwt beam="2">  1        2 0.45837444E-02 0.83711155E+02</pdfrwt>
<totfact> 0.75032182E+05</totfact>
</mgrwt>
</event>
<event>
 6    2  0.8544106E+000  0.9395171E+02  0.7546771E-02  0.1293555E+00
          2   -1    0    0  502    0 -0.00000000000E+00  0.00000000000E+00  0.51963790095E+03  0.51963790095E+03  0.00000000000E+00 0. -1.
         21   -1    0    0  501  502  0.00000000000E+00 -0.00000000000E+00 -0.17238808081E+02  0.17238808081E+02  0.00000000000E+00 0. -1.
         24    2    1    2    0    0  0.48093705816E+02  0.10393615233E+02  0.12545646792E+03  0.15673624252E+03  0.80036820272E+02 0.  0.
        -11    1    3    3    0    0  0.40990126608E+00  0.30739289520E+02  0.13933512909E+02  0.33752255054E+02  0.00000000000E+00 0.  1.
         12    1    3    3    0    0  0.47683804550E+02 -0.20345674287E+02  0.11152295501E+03  0.12298398746E+03  0.00000000000E+00 0. -1.
          1    1    1    2  501    0 -0.48093705816E+02 -0.10393615233E+02  0.37694262495E+03  0.38014046651E+03  0.00000000000E+00 0. -1.
<mgrwt>
<rscale>  1 0.93951713E+02</rscale>
<asrwt>0</asrwt>
<pdfrwt beam="1">  1       21 0.26521247E-02 0.93951713E+02</pdfrwt>
<pdfrwt beam="2">  1        2 0.79944281E-01 0.93951713E+02</pdfrwt>
<totfact> 0.55289455E+05</totfact>
</mgrwt>
</event>
<event>
 6    2  0.8544106E+000  0.8360163E+02  0.7546771E-02  0.1319130E+00
         21   -1    0    0  501  502  0.00000000000E+00  0.00000000000E+00  0.40915148134E+02  0.40915148134E+02  0.00000000000E+00 0.  1.
         -1   -1    0    0    0  501 -0.00000000000E+00 -0.00000000000E+00 -0.78611891669E+02  0.78611891669E+02  0.00000000000E+00 0.  1.
         24    2    1    2    0    0  0.90943454566E+01 -0.23356099656E+02 -0.42842684704E+02  0.93940027063E+02  0.79755993766E+02 0.  0.
        -13    1    3    3    0    0  0.39690959717E+02 -0.20860970911E+02 -0.44532071121E+02  0.63195393415E+02  0.00000000000E+00 0.  1.
         14    1    3    3    0    0 -0.30596614260E+02 -0.24951287445E+01  0.16893864170E+01  0.30744633648E+02  0.00000000000E+00 0. -1.
         -2    1    1    2    0  502 -0.90943454566E+01  0.23356099656E+02  0.51459411693E+01  0.25587012739E+02  0.00000000000E+00 0.  1.
<mgrwt>
<rscale>  1 0.83601633E+02</rscale>
<asrwt>0</asrwt>
<pdfrwt beam="1">  1       21 0.62946382E-02 0.83601633E+02</pdfrwt>
<pdfrwt beam="2">  1       -1 0.12094137E-01 0.83601633E+02</pdfrwt>
<totfact> 0.67722143E+05</totfact>
</mgrwt>
</event>
<event>
 6    2  0.8544106E+000  0.1143239E+03  0.7546771E-02  0.1252766E+00
         21   -1    0    0  501  502  0.00000000000E+00  0.00000000000E+00  0.50091653871E+02  0.50091653871E+02  0.00000000000E+00 0. -1.
          2   -1    0    0  502    0 -0.00000000000E+00 -0.00000000000E+00 -0.32128185445E+03  0.32128185445E+03  0.00000000000E+00 0. -1.
         24    2    1    2    0    0  0.75363157372E+02 -0.16250310707E+02 -0.27116365229E+03  0.29427825041E+03  0.84417322009E+02 0.  0.
        -13    1    3    3    0    0  0.71834727993E+02 -0.34719113791E+02 -0.13493494632E+03  0.15675804524E+03  0.00000000000E+00 0.  1.
         14    1    3    3    0    0  0.35284293797E+01  0.18468803084E+02 -0.13622870597E+03  0.13752020517E+03  0.00000000000E+00 0. -1.
          1    1    1    2  501    0 -0.75363157372E+02  0.16250310707E+02 -0.26548289783E-01  0.77095257909E+02  0.00000000000E+00 0. -1.
<mgrwt>
<rscale>  1 0.11432394E+03</rscale>
<asrwt>0</asrwt>
<pdfrwt beam="1">  1       21 0.77064083E-02 0.11432394E+03</pdfrwt>
<pdfrwt beam="2">  1        2 0.49427978E-01 0.11432394E+03</pdfrwt>
<totfact> 0.15829993E+05</totfact>
</mgrwt>
</event>
<event>
 6    2  0.8544106E+000  0.8722572E+02  0.7546771E-02  0.1309713E+00
          2   -1    0    0  502    0 -0.00000000000E+00  0.00000000000E+00  0.99680431671E+03  0.99680431671E+03  0.00000000000E+00 0. -1.
         21   -1    0    0  501  502  0.00000000000E+00 -0.00000000000E+00 -0.68445918504E+01  0.68445918504E+01  0.00000000000E+00 0. -1.
         24    2    1    2    0    0 -0.30665165807E+02 -0.15505888092E+02  0.93341564684E+03  0.93748231790E+03  0.80171950610E+02 0.  0.
        -11    1    3    3    0    0  0.22993720149E+02 -0.80778212622E+01  0.13151677474E+03  0.13375583876E+03  0.00000000000E+00 0.  1.
         12    1    3    3    0    0 -0.53658885955E+02 -0.74280668302E+01  0.80189887209E+03  0.80372647915E+03  0.00000000000E+00 0. -1.
          1    1    1    2  501    0  0.30665165807E+02  0.15505888092E+02  0.56544078019E+02  0.66166590652E+02  0.00000000000E+00 0. -1.
<mgrwt>
<rscale>  1 0.87225722E+02</rscale>
<asrwt>0</asrwt>
<pdfrwt beam="1">  1       21 0.10530149E-02 0.87225722E+02</pdfrwt>
<pdfrwt beam="2">  1        2 0.15335440E+00 0.87225722E+02</pdfrwt>
<totfact> 0.10997131E+06</totfact>
</mgrwt>
</event>
<event>
 6    2  0.8544106E+000  0.7577059E+02  0.7546771E-02  0.1341501E+00
          2   -1    0    0  502    0 -0.00000000000E+00  0.00000000000E+00  0.11086318870E+04  0.11086318870E+04  0.00000000000E+00 0. -1.
         21   -1    0    0  501  502  0.00000000000E+00 -0.00000000000E+00 -0.40559761425E+01  0.40559761425E+01  0.00000000000E+00 0.  1.
         24    2    1    2    0    0 -0.16929316567E+02  0.40676453490E+02  0.91172562054E+03  0.91486872831E+03  0.61644199025E+02 0.  0.
        -13    1    3    3    0    0  0.90296103462E+01  0.23090122647E+02  0.12060461581E+03  0.12312660550E+03  0.00000000000E+00 0.  1.
         14    1    3    3    0    0 -0.25958926914E+02  0.17586330844E+02  0.79112100472E+03  0.79174212281E+03  0.00000000000E+00 0. -1.
          1    1    1    2  501    0  0.16929316567E+02 -0.40676453490E+02  0.19285029032E+03  0.19781913483E+03  0.00000000000E+00 0. -1.
<mgrwt>
<rscale>  1 0.75770594E+02</rscale>
<asrwt>0</asrwt>
<pdfrwt beam="1">  1       21 0.62399721E-03 0.75770594E+02</pdfrwt>
<pdfrwt beam="2">  1        2 0.17055851E+00 0.75770594E+02</pdfrwt>
<totfact> 0.21090856E+06</totfact>
</mgrwt>
</event>
<event>
 6    2  0.8544106E+000  0.9229638E+02  0.7546771E-02  0.1297384E+00
          4   -1    0    0  502    0 -0.00000000000E+00  0.00000000000E+00  0.49687095320E+02  0.49687095320E+02  0.00000000000E+00 0. -1.
         21   -1    0    0  501  502  0.00000000000E+00 -0.00000000000E+00 -0.89707320657E+02  0.89707320657E+02  0.00000000000E+00 0.  1.
         24    2    1    2    0    0  0.39728823453E+02 -0.92996904100E+01 -0.22564513505E+02  0.95014628570E+02  0.82787430918E+02 0.  0.
        -11    1    3    3    0    0 -0.15698550162E+02  0.22829601531E+02 -0.22169854587E+01  0.27794787421E+02  0.00000000000E+00 0.  1.
         12    1    3    3    0    0  0.55427373615E+02 -0.32129291941E+02 -0.20347528046E+02  0.67219841149E+02  0.00000000000E+00 0. -1.
          3    1    1    2  501    0 -0.39728823453E+02  0.92996904100E+01 -0.17455711832E+02  0.44379787407E+02  0.00000000000E+00 0. -1.
<mgrwt>
<rscale>  1 0.92296383E+02</rscale>
<asrwt>0</asrwt>
<pdfrwt beam="1">  1       21 0.13801126E-01 0.92296383E+02</pdfrwt>
<pdfrwt beam="2">  1        4 0.76441687E-02 0.92296383E+02</pdfrwt>
<totfact> 0.20467796E+05</totfact>
</mgrwt>
</event>
<event>
 6    2  0.8544106E+000  0.8838958E+02  0.7546771E-02  0.1306799E+00
          2   -1    0    0  502    0 -0.00000000000E+00  0.00000000000E+00  0.20880529241E+04  0.20880529241E+04  0.00000000000E+00 0. -1.
         21   -1    0    0  501  502  0.00000000000E+00 -0.00000000000E+00 -0.32235497642E+01  0.32235497642E+01  0.00000000000E+00 0. -1.
         24    2    1    2    0    0  0.16737870197E+02  0.32993182952E+02  0.19324459332E+04  0.19344663353E+04  0.80274599357E+02 0.  0.
        -11    1    3    3    0    0  0.14823795357E+02 -0.15718469120E+02  0.17283311212E+03  0.17417835637E+03  0.00000000000E+00 0.  1.
         12    1    3    3    0    0  0.19140748394E+01  0.48711652072E+02  0.17596128210E+04  0.17602879789E+04  0.00000000000E+00 0. -1.
          1    1    1    2  501    0 -0.16737870197E+02 -0.32993182952E+02  0.15238344117E+03  0.15681013858E+03  0.00000000000E+00 0. -1.
<mgrwt>
<rscale>  1 0.88389579E+02</rscale>
<asrwt>0</asrwt>
<pdfrwt beam="1">  1       21 0.49593240E-03 0.88389579E+02</pdfrwt>
<pdfrwt beam="2">  1        2 0.32123783E+00 0.88389579E+02</pdfrwt>
<totfact> 0.95650490E+05</totfact>
</mgrwt>
</event>
<event>
 6    2  0.8544106E+000  0.8088226E+02  0.7546771E-02  0.1326566E+00
          4   -1    0    0  502    0 -0.00000000000E+00  0.00000000000E+00  0.14716373517E+02  0.14716373517E+02  0.00000000000E+00 0. -1.
         21   -1    0    0  501  502  0.00000000000E+00 -0.00000000000E+00 -0.19309797986E+03  0.19309797986E+03  0.00000000000E+00 0.  1.
         24    2    1    2    0    0  0.91139589734E+01 -0.22790241394E+02 -0.14892760533E+03  0.16947380660E+03  0.77068022849E+02 0.  0.
        -13    1    3    3    0    0  0.61744654840E+01 -0.18323875462E+01 -0.14815685705E+03  0.14829678338E+03  0.00000000000E+00 0.  1.
         14    1    3    3    0    0  0.29394934894E+01 -0.20957853847E+02 -0.77074827299E+00  0.21177023227E+02  0.00000000000E+00 0. -1.
          3    1    1    2  501    0 -0.91139589734E+01  0.22790241394E+02 -0.29454001022E+02  0.38340546777E+02  0.00000000000E+00 0. -1.
<mgrwt>
<rscale>  1 0.80882257E+02</rscale>
<asrwt>0</asrwt>
<pdfrwt beam="1">  1       21 0.29707377E-01 0.80882257E+02</pdfrwt>
<pdfrwt beam="2">  1        4 0.22640578E-02 0.80882257E+02</pdfrwt>
<totfact> 0.33448370E+05</totfact>
</mgrwt>
</event>
<event>
 6    2  0.8544106E+000  0.8754044E+02  0.7546771E-02  0.1308920E+00
         21   -1    0    0  501  502  0.00000000000E+00  0.00000000000E+00  0.28088354263E+03  0.28088354263E+03  0.00000000000E+00 0.  1.
          4   -1    0    0  502    0 -0.00000000000E+00 -0.00000000000E+00 -0.12951206395E+02  0.12951206395E+02  0.00000000000E+00 0. -1.
         24    2    1    2    0    0  0.22630688971E+02 -0.22538639008E+02  0.17718264130E+03  0.19762848383E+03  0.81505772261E+02 0.  0.
        -11    1    3    3    0    0  0.45263851551E+02  0.53189363001E+01  0.61771276916E+02  0.76764562088E+02  0.00000000000E+00 0.  1.
         12    1    3    3    0    0 -0.22633162580E+02 -0.27857575308E+02  0.11541136438E+03  0.12086392174E+03  0.00000000000E+00 0. -1.
          3    1    1    2  501    0 -0.22630688971E+02  0.22538639008E+02  0.90749694933E+02  0.96206265192E+02  0.00000000000E+00 0. -1.
<mgrwt>
<rscale>  1 0.87540443E+02</rscale>
<asrwt>0</asrwt>
<pdfrwt beam="1">  1       21 0.43212848E-01 0.87540443E+02</pdfrwt>
<pdfrwt beam="2">  1        4 0.19924935E-02 0.87540443E+02</pdfrwt>
<totfact> 0.19878716E+05</totfact>
</mgrwt>
</event>
<event>
 6    2  0.8544106E+000  0.8609914E+02  0.7546771E-02  0.1312583E+00
          2   -1    0    0  502    0 -0.00000000000E+00  0.00000000000E+00  0.29201231635E+04  0.29201231635E+04  0.00000000000E+00 0. -1.
         21   -1    0    0  501  502  0.00000000000E+00 -0.00000000000E+00 -0.16933650955E+01  0.16933650955E+01  0.00000000000E+00 0.  1.
         24    2    1    2    0    0 -0.31281705051E+02 -0.16373360592E+01  0.26742568879E+04  0.26756425329E+04  0.80198724145E+02 0.  0.
        -13    1    3    3    0    0 -0.12119959026E+02 -0.36021799496E+02  0.73128821632E+03  0.73227516602E+03  0.00000000000E+00 0.  1.
         14    1    3    3    0    0 -0.19161746025E+02  0.34384463437E+02  0.19429686716E+04  0.19433673669E+04  0.00000000000E+00 0. -1.
          1    1    1    2  501    0  0.31281705051E+02  0.16373360592E+01  0.24417291043E+03  0.24617399564E+03  0.00000000000E+00 0. -1.
<mgrwt>
<rscale>  1 0.86099136E+02</rscale>
<asrwt>0</asrwt>
<pdfrwt beam="1">  1       21 0.26052004E-03 0.86099136E+02</pdfrwt>
<pdfrwt beam="2">  1        2 0.44924569E+00 0.86099136E+02</pdfrwt>
<totfact> 0.92577529E+05</totfact>
</mgrwt>
</event>
<event>
 6    2  0.8544106E+000  0.8492537E+02  0.7546771E-02  0.1315628E+00
         21   -1    0    0  501  502  0.00000000000E+00  0.00000000000E+00  0.20371538009E+01  0.20371538009E+01  0.00000000000E+00 0.  1.
          2   -1    0    0  502    0 -0.00000000000E+00 -0.00000000000E+00 -0.14259683733E+04  0.14259683733E+04  0.00000000000E+00 0. -1.
         24    2    1    2    0    0  0.16986446714E+02 -0.11274885773E+02 -0.12504148394E+04  0.12532954914E+04  0.82441832129E+02 0.  0.
        -11    1    3    3    0    0 -0.10726459026E+02 -0.41997561797E+02 -0.68314895457E+03  0.68452271419E+03  0.00000000000E+00 0.  1.
         12    1    3    3    0    0  0.27712905740E+02  0.30722676023E+02 -0.56726588483E+03  0.56877277718E+03  0.00000000000E+00 0. -1.
          1    1    1    2  501    0 -0.16986446714E+02  0.11274885773E+02 -0.17351638015E+03  0.17471003577E+03  0.00000000000E+00 0. -1.
<mgrwt>
<rscale>  1 0.84925368E+02</rscale>
<asrwt>0</asrwt>
<pdfrwt beam="1">  1       21 0.31340695E-03 0.84925368E+02</pdfrwt>
<pdfrwt beam="2">  1        2 0.21938068E+00 0.84925368E+02</pdfrwt>
<totfact> 0.41307697E+06</totfact>
</mgrwt>
</event>
<event>
 6    2  0.8544106E+000  0.8576582E+02  0.7546771E-02  0.1313442E+00
         21   -1    0    0  501  502  0.00000000000E+00  0.00000000000E+00  0.16686326591E+01  0.16686326591E+01  0.00000000000E+00 0.  1.
          4   -1    0    0  502    0 -0.00000000000E+00 -0.00000000000E+00 -0.26190290106E+04  0.26190290106E+04  0.00000000000E+00 0. -1.
         24    2    1    2    0    0  0.45241447096E+01  0.26565078699E+02 -0.11915574424E+04  0.11946400770E+04  0.81422378625E+02 0.  0.
        -13    1    3    3    0    0  0.22604732121E+02  0.25930803683E+02 -0.20135737320E+03  0.20427474694E+03  0.00000000000E+00 0.  1.
         14    1    3    3    0    0 -0.18080587412E+02  0.63427501638E+00 -0.99020006918E+03  0.99036533004E+03  0.00000000000E+00 0. -1.
          3    1    1    2  501    0 -0.45241447096E+01 -0.26565078699E+02 -0.14258029356E+04  0.14260575663E+04  0.00000000000E+00 0. -1.
<mgrwt>
<rscale>  1 0.85765815E+02</rscale>
<asrwt>0</asrwt>
<pdfrwt beam="1">  1       21 0.25671130E-03 0.85765815E+02</pdfrwt>
<pdfrwt beam="2">  1        4 0.40292976E+00 0.85765815E+02</pdfrwt>
<totfact> 0.10905693E+04</totfact>
</mgrwt>
</event>
<event>
 6    2  0.8544106E+000  0.9248669E+02  0.7546771E-02  0.1296939E+00
          2   -1    0    0  502    0 -0.00000000000E+00  0.00000000000E+00  0.13461597616E+04  0.13461597616E+04  0.00000000000E+00 0. -1.
         21   -1    0    0  501  502  0.00000000000E+00 -0.00000000000E+00 -0.14167683891E+02  0.14167683891E+02  0.00000000000E+00 0. -1.
         24    2    1    2    0    0  0.34797475744E+02 -0.18510002436E+02  0.13135674879E+04  0.13168194000E+04  0.83667810703E+02 0.  0.
        -13    1    3    3    0    0 -0.23604454553E+02 -0.13899966761E+02  0.22244203200E+03  0.22412237048E+03  0.00000000000E+00 0.  1.
         14    1    3    3    0    0  0.58401930298E+02 -0.46100356752E+01  0.10911254559E+04  0.10926970295E+04  0.00000000000E+00 0. -1.
          1    1    1    2  501    0 -0.34797475744E+02  0.18510002436E+02  0.18424589791E+02  0.43508045432E+02  0.00000000000E+00 0. -1.
<mgrwt>
<rscale>  1 0.92486686E+02</rscale>
<asrwt>0</asrwt>
<pdfrwt beam="1">  1       21 0.21796447E-02 0.92486686E+02</pdfrwt>
<pdfrwt beam="2">  1        2 0.20710140E+00 0.92486686E+02</pdfrwt>
<totfact> 0.22389580E+05</totfact>
</mgrwt>
</event>
<event>
 6    2  0.8544106E+000  0.8445787E+02  0.7546771E-02  0.1316856E+00
          2   -1    0    0  502    0 -0.00000000000E+00  0.00000000000E+00  0.11961822377E+04  0.11961822377E+04  0.00000000000E+00 0. -1.
         21   -1    0    0  501  502  0.00000000000E+00 -0.00000000000E+00 -0.45609508302E+01  0.45609508302E+01  0.00000000000E+00 0.  1.
         24    2    1    2    0    0 -0.25319490984E+02 -0.56733284212E+01  0.11384506979E+04  0.11415792231E+04  0.80373302078E+02 0.  0.
        -13    1    3    3    0    0  0.15281664973E+02  0.31255244709E+01  0.50923099422E+02  0.53258428838E+02  0.00000000000E+00 0.  1.
         14    1    3    3    0    0 -0.40601155957E+02 -0.87988528921E+01  0.10875275985E+04  0.10883207943E+04  0.00000000000E+00 0. -1.
          1    1    1    2  501    0  0.25319490984E+02  0.56733284212E+01  0.53170588960E+02  0.59163965464E+02  0.00000000000E+00 0. -1.
<mgrwt>
<rscale>  1 0.84457865E+02</rscale>
<asrwt>0</asrwt>
<pdfrwt beam="1">  1       21 0.70168569E-03 0.84457865E+02</pdfrwt>
<pdfrwt beam="2">  1        2 0.18402779E+00 0.84457865E+02</pdfrwt>
<totfact> 0.15923407E+06</totfact>
</mgrwt>
</event>
<event>
 6    2  0.8544106E+000  0.8318054E+02  0.7546771E-02  0.1320260E+00
         21   -1    0    0  501  502  0.00000000000E+00  0.00000000000E+00  0.37766585347E+01  0.37766585347E+01  0.00000000000E+00 0. -1.
         -1   -1    0    0    0  501 -0.00000000000E+00 -0.00000000000E+00 -0.10273061543E+04  0.10273061543E+04  0.00000000000E+00 0.  1.
         24    2    1    2    0    0 -0.24167272626E+02 -0.59076250257E+01 -0.94621349562E+03  0.94986261228E+03  0.79372827930E+02 0.  0.
        -11    1    3    3    0    0  0.11749290358E+02 -0.34165524684E+02 -0.50423814698E+03  0.50553084749E+03  0.00000000000E+00 0.  1.
         12    1    3    3    0    0 -0.35916562984E+02  0.28257899658E+02 -0.44197534865E+03  0.44433176479E+03  0.00000000000E+00 0. -1.
         -2    1    1    2    0  502  0.24167272626E+02  0.59076250257E+01 -0.77316000130E+02  0.81220200540E+02  0.00000000000E+00 0.  1.
<mgrwt>
<rscale>  1 0.83180544E+02</rscale>
<asrwt>0</asrwt>
<pdfrwt beam="1">  1       21 0.58102394E-03 0.83180544E+02</pdfrwt>
<pdfrwt beam="2">  1       -1 0.15804722E+00 0.83180544E+02</pdfrwt>
<totfact> 0.25970990E+05</totfact>
</mgrwt>
</event>
<event>
 6    2  0.8544106E+000  0.8285096E+02  0.7546771E-02  0.1321150E+00
         21   -1    0    0  501  502  0.00000000000E+00  0.00000000000E+00  0.12563264936E+02  0.12563264936E+02  0.00000000000E+00 0.  1.
          2   -1    0    0  502    0 -0.00000000000E+00 -0.00000000000E+00 -0.53176761686E+03  0.53176761686E+03  0.00000000000E+00 0. -1.
         24    2    1    2    0    0  0.22614053408E+02  0.80344375002E+01 -0.51285792207E+03  0.51950700681E+03  0.79299018283E+02 0.  0.
        -11    1    3    3    0    0  0.94447284060E+00  0.74062760116E+01 -0.14080114138E+01  0.75978582145E+01  0.00000000000E+00 0.  1.
         12    1    3    3    0    0  0.21669580567E+02  0.62816148862E+00 -0.51144991065E+03  0.51190914860E+03  0.00000000000E+00 0. -1.
          1    1    1    2  501    0 -0.22614053408E+02 -0.80344375002E+01 -0.63464298586E+01  0.24823874988E+02  0.00000000000E+00 0. -1.
<mgrwt>
<rscale>  1 0.82850962E+02</rscale>
<asrwt>0</asrwt>
<pdfrwt beam="1">  1       21 0.19328098E-02 0.82850962E+02</pdfrwt>
<pdfrwt beam="2">  1        2 0.81810409E-01 0.82850962E+02</pdfrwt>
<totfact> 0.88657705E+05</totfact>
</mgrwt>
</event>
<event>
 6    2  0.8544106E+000  0.9615671E+02  0.7546771E-02  0.1288592E+00
          2   -1    0    0  502    0 -0.00000000000E+00  0.00000000000E+00  0.33891670010E+03  0.33891670010E+03  0.00000000000E+00 0. -1.
         21   -1    0    0  501  502  0.00000000000E+00 -0.00000000000E+00 -0.17661471239E+02  0.17661471239E+02  0.00000000000E+00 0. -1.
         24    2    1    2    0    0  0.50420511221E+02 -0.18498767743E+02  0.24598955194E+03  0.26411545192E+03  0.79760139918E+02 0.  0.
        -13    1    3    3    0    0 -0.14634603602E+02  0.13325946047E+02  0.89755281808E+02  0.91911713470E+02  0.00000000000E+00 0.  1.
         14    1    3    3    0    0  0.65055114823E+02 -0.31824713790E+02  0.15623427013E+03  0.17220373845E+03  0.00000000000E+00 0. -1.
          1    1    1    2  501    0 -0.50420511221E+02  0.18498767743E+02  0.75265676917E+02  0.92462719415E+02  0.00000000000E+00 0. -1.
<mgrwt>
<rscale>  1 0.96156707E+02</rscale>
<asrwt>0</asrwt>
<pdfrwt beam="1">  1       21 0.27171497E-02 0.96156707E+02</pdfrwt>
<pdfrwt beam="2">  1        2 0.52141026E-01 0.96156707E+02</pdfrwt>
<totfact> 0.83878464E+05</totfact>
</mgrwt>
</event>
<event>
 6    2  0.8544106E+000  0.8419531E+02  0.7546771E-02  0.1317550E+00
         21   -1    0    0  501  502  0.00000000000E+00  0.00000000000E+00  0.49094408941E+01  0.49094408941E+01  0.00000000000E+00 0. -1.
          2   -1    0    0  502    0 -0.00000000000E+00 -0.00000000000E+00 -0.66537224942E+03  0.66537224942E+03  0.00000000000E+00 0. -1.
         24    2    1    2    0    0  0.19613369198E+02  0.75713285116E+01 -0.38907003196E+03  0.39807579684E+03  0.81528160768E+02 0.  0.
        -13    1    3    3    0    0  0.52928511745E+01  0.20417040977E+02 -0.21911231622E+02  0.30413350802E+02  0.00000000000E+00 0.  1.
         14    1    3    3    0    0  0.14320518024E+02 -0.12845712465E+02 -0.36715880034E+03  0.36766244604E+03  0.00000000000E+00 0. -1.
          1    1    1    2  501    0 -0.19613369198E+02 -0.75713285116E+01 -0.27139277657E+03  0.27220589347E+03  0.00000000000E+00 0. -1.
<mgrwt>
<rscale>  1 0.84195310E+02</rscale>
<asrwt>0</asrwt>
<pdfrwt beam="1">  1       21 0.75529908E-03 0.84195310E+02</pdfrwt>
<pdfrwt beam="2">  1        2 0.10236490E+00 0.84195310E+02</pdfrwt>
<totfact> 0.30241389E+06</totfact>
</mgrwt>
</event>
<event>
 6    2  0.8544106E+000  0.1102187E+03  0.7546771E-02  0.1260165E+00
          4   -1    0    0  502    0 -0.00000000000E+00  0.00000000000E+00  0.32494911366E+02  0.32494911366E+02  0.00000000000E+00 0. -1.
         21   -1    0    0  501  502  0.00000000000E+00 -0.00000000000E+00 -0.26936674807E+03  0.26936674807E+03  0.00000000000E+00 0.  1.
         24    2    1    2    0    0  0.40107343231E+02  0.63745563005E+02 -0.15959243346E+03  0.19395335600E+03  0.80473993961E+02 0.  0.
        -11    1    3    3    0    0  0.54386805783E+02  0.53461398492E+02 -0.15900285837E+03  0.17634612200E+03  0.00000000000E+00 0.  1.
         12    1    3    3    0    0 -0.14279462553E+02  0.10284164513E+02 -0.58957508169E+00  0.17607234005E+02  0.00000000000E+00 0. -1.
          3    1    1    2  501    0 -0.40107343231E+02 -0.63745563005E+02 -0.77279403251E+02  0.10790830344E+03  0.00000000000E+00 0. -1.
<mgrwt>
<rscale>  1 0.11021869E+03</rscale>
<asrwt>0</asrwt>
<pdfrwt beam="1">  1       21 0.41441040E-01 0.11021869E+03</pdfrwt>
<pdfrwt beam="2">  1        4 0.49992169E-02 0.11021869E+03</pdfrwt>
<totfact> 0.53187477E+04</totfact>
</mgrwt>
</event>
<event>
 6    2  0.8544106E+000  0.8705838E+02  0.7546771E-02  0.1310136E+00
          2   -1    0    0  502    0 -0.00000000000E+00  0.00000000000E+00  0.50579840719E+02  0.50579840719E+02  0.00000000000E+00 0. -1.
         21   -1    0    0  501  502  0.00000000000E+00 -0.00000000000E+00 -0.81068038819E+02  0.81068038819E+02  0.00000000000E+00 0. -1.
         24    2    1    2    0    0 -0.94873486979E+01 -0.32569455159E+02 -0.15714258324E+01  0.87072562231E+02  0.80177194511E+02 0.  0.
        -11    1    3    3    0    0  0.59545526309E+01  0.24971751868E+02 -0.86186832591E+01  0.27080007192E+02  0.00000000000E+00 0.  1.
         12    1    3    3    0    0 -0.15441901329E+02 -0.57541207027E+02  0.70472574266E+01  0.59992555038E+02  0.00000000000E+00 0. -1.
          1    1    1    2  501    0  0.94873486979E+01  0.32569455159E+02 -0.28916772268E+02  0.44575317307E+02  0.00000000000E+00 0. -1.
<mgrwt>
<rscale>  1 0.87058381E+02</rscale>
<asrwt>0</asrwt>
<pdfrwt beam="1">  1       21 0.12472006E-01 0.87058381E+02</pdfrwt>
<pdfrwt beam="2">  1        2 0.77815140E-02 0.87058381E+02</pdfrwt>
<totfact> 0.54413632E+05</totfact>
</mgrwt>
</event>
<event>
 6    2  0.8544106E+000  0.1009744E+03  0.7546771E-02  0.1278260E+00
          2   -1    0    0  502    0 -0.00000000000E+00  0.00000000000E+00  0.24981797965E+03  0.24981797965E+03  0.00000000000E+00 0. -1.
         21   -1    0    0  501  502  0.00000000000E+00 -0.00000000000E+00 -0.15177614236E+03  0.15177614236E+03  0.00000000000E+00 0. -1.
         24    2    1    2    0    0 -0.45426171199E+02  0.20691941025E+02  0.23502582768E+03  0.25579869315E+03  0.87773220781E+02 0.  0.
        -11    1    3    3    0    0 -0.19472613213E+01 -0.11828946178E+01 -0.78088237905E+01  0.81344204048E+01  0.00000000000E+00 0.  1.
         12    1    3    3    0    0 -0.43478909878E+02  0.21874835643E+02  0.24283465147E+03  0.24766427274E+03  0.00000000000E+00 0. -1.
          1    1    1    2  501    0  0.45426171199E+02 -0.20691941025E+02 -0.13698399039E+03  0.14579542886E+03  0.00000000000E+00 0. -1.
<mgrwt>
<rscale>  1 0.10097441E+03</rscale>
<asrwt>0</asrwt>
<pdfrwt beam="1">  1       21 0.23350176E-01 0.10097441E+03</pdfrwt>
<pdfrwt beam="2">  1        2 0.38433535E-01 0.10097441E+03</pdfrwt>
<totfact> 0.28522431E+04</totfact>
</mgrwt>
</event>
<event>
 6    2  0.8544106E+000  0.8927754E+02  0.7546771E-02  0.1304611E+00
         21   -1    0    0  501  502  0.00000000000E+00  0.00000000000E+00  0.15498576739E+02  0.15498576739E+02  0.00000000000E+00 0. -1.
          2   -1    0    0  502    0 -0.00000000000E+00 -0.00000000000E+00 -0.31470295556E+03  0.31470295556E+03  0.00000000000E+00 0. -1.
         24    2    1    2    0    0  0.26504627098E+02  0.12931808412E+02 -0.28257960727E+03  0.29634728655E+03  0.84265965079E+02 0.  0.
        -13    1    3    3    0    0  0.18831897941E+02 -0.29828341883E+02 -0.19950116124E+03  0.20259586298E+03  0.00000000000E+00 0.  1.
         14    1    3    3    0    0  0.76727291571E+01  0.42760150295E+02 -0.83078446033E+02  0.93751423569E+02  0.00000000000E+00 0. -1.
          1    1    1    2  501    0 -0.26504627098E+02 -0.12931808412E+02 -0.16624771547E+02  0.33854245751E+02  0.00000000000E+00 0. -1.
<mgrwt>
<rscale>  1 0.89277544E+02</rscale>
<asrwt>0</asrwt>
<pdfrwt beam="1">  1       21 0.23843963E-02 0.89277544E+02</pdfrwt>
<pdfrwt beam="2">  1        2 0.48415841E-01 0.89277544E+02</pdfrwt>
<totfact> 0.11112429E+06</totfact>
</mgrwt>
</event>
<event>
 6    2  0.8544106E+000  0.7413000E+02  0.7546771E-02  0.1346586E+00
         -1   -1    0    0    0  501 -0.00000000000E+00  0.00000000000E+00  0.56996038340E+03  0.56996038340E+03  0.00000000000E+00 0.  1.
         21   -1    0    0  501  502  0.00000000000E+00 -0.00000000000E+00 -0.70737372266E+01  0.70737372266E+01  0.00000000000E+00 0.  1.
         24    2    1    2    0    0  0.25408186377E+02 -0.85006479863E+01  0.52732081370E+03  0.53250586678E+03  0.69118887736E+02 0.  0.
        -11    1    3    3    0    0  0.19382876359E+02  0.13776347244E+02  0.47154692272E+03  0.47214614683E+03  0.00000000000E+00 0.  1.
         12    1    3    3    0    0  0.60253100178E+01 -0.22276995230E+02  0.55773890977E+02  0.60359719946E+02  0.00000000000E+00 0. -1.
         -2    1    1    2    0  502 -0.25408186377E+02  0.85006479863E+01  0.35565832473E+02  0.44528253847E+02  0.00000000000E+00 0.  1.
<mgrwt>
<rscale>  1 0.74130005E+02</rscale>
<asrwt>0</asrwt>
<pdfrwt beam="1">  1       21 0.10882677E-02 0.74130005E+02</pdfrwt>
<pdfrwt beam="2">  1       -1 0.87686177E-01 0.74130005E+02</pdfrwt>
<totfact> 0.38077344E+05</totfact>
</mgrwt>
</event>
<event>
 6    2  0.8544106E+000  0.6342089E+02  0.7546771E-02  0.1384012E+00
         21   -1    0    0  501  502  0.00000000000E+00  0.00000000000E+00  0.14616759074E+03  0.14616759074E+03  0.00000000000E+00 0.  1.
         -3   -1    0    0    0  501 -0.00000000000E+00 -0.00000000000E+00 -0.14163560695E+02  0.14163560695E+02  0.00000000000E+00 0.  1.
         24    2    1    2    0    0  0.24597005959E+02 -0.12100307969E+02  0.87613340832E+02  0.10815871193E+03  0.57190727569E+02 0.  0.
        -13    1    3    3    0    0  0.32177780742E+02 -0.29954467781E+02  0.58558517648E+02  0.73224174305E+02  0.00000000000E+00 0.  1.
         14    1    3    3    0    0 -0.75807747831E+01  0.17854159812E+02  0.29054823184E+02  0.34934537626E+02  0.00000000000E+00 0. -1.
         -4    1    1    2    0  502 -0.24597005959E+02  0.12100307969E+02  0.44390689218E+02  0.52172439509E+02  0.00000000000E+00 0.  1.
<mgrwt>
<rscale>  1 0.63420891E+02</rscale>
<asrwt>0</asrwt>
<pdfrwt beam="1">  1       21 0.22487321E-01 0.63420891E+02</pdfrwt>
<pdfrwt beam="2">  1       -3 0.21790094E-02 0.63420891E+02</pdfrwt>
<totfact> 0.63608618E+05</totfact>
</mgrwt>
</event>
<event>
 6    2  0.8544106E+000  0.8139324E+02  0.7546771E-02  0.1325143E+00
         21   -1    0    0  501  502  0.00000000000E+00  0.00000000000E+00  0.83763733915E+01  0.83763733915E+01  0.00000000000E+00 0. -1.
          2   -1    0    0  502    0 -0.00000000000E+00 -0.00000000000E+00 -0.49801546378E+03  0.49801546378E+03  0.00000000000E+00 0. -1.
         24    2    1    2    0    0 -0.28403919184E+01 -0.23608765093E+02 -0.46529859437E+03  0.47236388746E+03  0.77842267656E+02 0.  0.
        -11    1    3    3    0    0 -0.19549334700E+01  0.24850423558E+02 -0.74236703532E+02  0.78309983189E+02  0.00000000000E+00 0.  1.
         12    1    3    3    0    0 -0.88545844842E+00 -0.48459188650E+02 -0.39106189084E+03  0.39405390427E+03  0.00000000000E+00 0. -1.
          1    1    1    2  501    0  0.28403919184E+01  0.23608765093E+02 -0.24340496018E+02  0.34027949716E+02  0.00000000000E+00 0. -1.
<mgrwt>
<rscale>  1 0.81393244E+02</rscale>
<asrwt>0</asrwt>
<pdfrwt beam="1">  1       21 0.12886727E-02 0.81393244E+02</pdfrwt>
<pdfrwt beam="2">  1        2 0.76617773E-01 0.81393244E+02</pdfrwt>
<totfact> 0.18043064E+06</totfact>
</mgrwt>
</event>
<event>
 6    2  0.8544106E+000  0.1024250E+03  0.7546771E-02  0.1275278E+00
         21   -1    0    0  501  502  0.00000000000E+00  0.00000000000E+00  0.16762768567E+03  0.16762768567E+03  0.00000000000E+00 0. -1.
          2   -1    0    0  502    0 -0.00000000000E+00 -0.00000000000E+00 -0.58075693936E+02  0.58075693936E+02  0.00000000000E+00 0. -1.
         24    2    1    2    0    0 -0.62559967246E+02  0.35278860852E+01  0.34528344771E+01  0.10248314323E+03  0.81022694957E+02 0.  0.
        -13    1    3    3    0    0  0.67231299080E+01  0.23272597545E+02  0.16445627435E+02  0.29279223589E+02  0.00000000000E+00 0.  1.
         14    1    3    3    0    0 -0.69283097154E+02 -0.19744711460E+02 -0.12992792958E+02  0.73203919640E+02  0.00000000000E+00 0. -1.
          1    1    1    2  501    0  0.62559967246E+02 -0.35278860852E+01  0.10609915726E+03  0.12322023638E+03  0.00000000000E+00 0. -1.
<mgrwt>
<rscale>  1 0.10242496E+03</rscale>
<asrwt>0</asrwt>
<pdfrwt beam="1">  1       21 0.25788875E-01 0.10242496E+03</pdfrwt>
<pdfrwt beam="2">  1        2 0.89347222E-02 0.10242496E+03</pdfrwt>
<totfact> 0.12405061E+05</totfact>
</mgrwt>
</event>
<event>
 6    2  0.8544106E+000  0.9569715E+02  0.7546771E-02  0.1289614E+00
          2   -1    0    0  502    0 -0.00000000000E+00  0.00000000000E+00  0.98618905769E+01  0.98618905769E+01  0.00000000000E+00 0. -1.
         21   -1    0    0  501  502  0.00000000000E+00 -0.00000000000E+00 -0.72484469029E+03  0.72484469029E+03  0.00000000000E+00 0. -1.
         24    2    1    2    0    0 -0.40994294197E+02  0.24219397872E+02 -0.25671369984E+03  0.27397056177E+03  0.83011045311E+02 0.  0.
        -13    1    3    3    0    0  0.14437763207E+02 -0.13283487438E+02 -0.20155873633E+02  0.28127553873E+02  0.00000000000E+00 0.  1.
         14    1    3    3    0    0 -0.55432057405E+02  0.37502885310E+02 -0.23655782620E+03  0.24584300790E+03  0.00000000000E+00 0. -1.
          1    1    1    2  501    0  0.40994294197E+02 -0.24219397872E+02 -0.45826909988E+03  0.46073601910E+03  0.00000000000E+00 0. -1.
<mgrwt>
<rscale>  1 0.95697153E+02</rscale>
<asrwt>0</asrwt>
<pdfrwt beam="1">  1       21 0.11151457E+00 0.95697153E+02</pdfrwt>
<pdfrwt beam="2">  1        2 0.15172139E-02 0.95697153E+02</pdfrwt>
<totfact> 0.59293797E+04</totfact>
</mgrwt>
</event>
<event>
 6    2  0.8544106E+000  0.9323222E+02  0.7546771E-02  0.1295208E+00
         21   -1    0    0  501  502  0.00000000000E+00  0.00000000000E+00  0.33491622823E+01  0.33491622823E+01  0.00000000000E+00 0.  1.
          2   -1    0    0  502    0 -0.00000000000E+00 -0.00000000000E+00 -0.12133083702E+04  0.12133083702E+04  0.00000000000E+00 0. -1.
         24    2    1    2    0    0  0.34173625259E+02  0.11433178097E+01 -0.86747692933E+03  0.87247261854E+03  0.86735825026E+02 0.  0.
        -13    1    3    3    0    0  0.37952514618E+02  0.16349712326E+02 -0.17479417098E+03  0.17961266288E+03  0.00000000000E+00 0.  1.
         14    1    3    3    0    0 -0.37788893583E+01 -0.15206394516E+02 -0.69268275835E+03  0.69285995566E+03  0.00000000000E+00 0. -1.
          1    1    1    2  501    0 -0.34173625259E+02 -0.11433178097E+01 -0.34248227858E+03  0.34418491393E+03  0.00000000000E+00 0. -1.
<mgrwt>
<rscale>  1 0.93232222E+02</rscale>
<asrwt>0</asrwt>
<pdfrwt beam="1">  1       21 0.51525502E-03 0.93232222E+02</pdfrwt>
<pdfrwt beam="2">  1        2 0.18666309E+00 0.93232222E+02</pdfrwt>
<totfact> 0.25295994E+06</totfact>
</mgrwt>
</event>
<event>
 6    2  0.8544106E+000  0.8614933E+02  0.7546771E-02  0.1312454E+00
         21   -1    0    0  501  502  0.00000000000E+00  0.00000000000E+00  0.33731142765E+02  0.33731142765E+02  0.00000000000E+00 0. -1.
         -1   -1    0    0    0  501 -0.00000000000E+00 -0.00000000000E+00 -0.10579833122E+03  0.10579833122E+03  0.00000000000E+00 0.  1.
         24    2    1    2    0    0  0.33303234452E+02  0.12741474124E+01 -0.52090597383E+02  0.10067341825E+03  0.79441663687E+02 0.  0.
        -13    1    3    3    0    0 -0.91056519195E+01 -0.93625055325E+01 -0.55311512177E+02  0.56832497623E+02  0.00000000000E+00 0.  1.
         14    1    3    3    0    0  0.42408886371E+02  0.10636652945E+02  0.32209147945E+01  0.43840920625E+02  0.00000000000E+00 0. -1.
         -2    1    1    2    0  502 -0.33303234452E+02 -0.12741474124E+01 -0.19976591071E+02  0.38856055736E+02  0.00000000000E+00 0.  1.
<mgrwt>
<rscale>  1 0.86149329E+02</rscale>
<asrwt>0</asrwt>
<pdfrwt beam="1">  1       21 0.51894066E-02 0.86149329E+02</pdfrwt>
<pdfrwt beam="2">  1       -1 0.16276666E-01 0.86149329E+02</pdfrwt>
<totfact> 0.59416183E+05</totfact>
</mgrwt>
</event>
<event>
 6    2  0.8544106E+000  0.8297388E+02  0.7546771E-02  0.1320818E+00
         21   -1    0    0  501  502  0.00000000000E+00  0.00000000000E+00  0.44160550011E+02  0.44160550011E+02  0.00000000000E+00 0. -1.
          2   -1    0    0  502    0 -0.00000000000E+00 -0.00000000000E+00 -0.11108458633E+03  0.11108458633E+03  0.00000000000E+00 0. -1.
         24    2    1    2    0    0  0.13626799828E+02 -0.16176467561E+02 -0.91032896745E+02  0.12317326507E+03  0.80232768626E+02 0.  0.
        -13    1    3    3    0    0 -0.23261821255E+02 -0.32755140941E+02 -0.59946169064E+02  0.72163389413E+02  0.00000000000E+00 0.  1.
         14    1    3    3    0    0  0.36888621083E+02  0.16578673380E+02 -0.31086727682E+02  0.51009875656E+02  0.00000000000E+00 0. -1.
          1    1    1    2  501    0 -0.13626799828E+02  0.16176467561E+02  0.24108860423E+02  0.32071871277E+02  0.00000000000E+00 0. -1.
<mgrwt>
<rscale>  1 0.82973881E+02</rscale>
<asrwt>0</asrwt>
<pdfrwt beam="1">  1       21 0.67939308E-02 0.82973881E+02</pdfrwt>
<pdfrwt beam="2">  1        2 0.17089936E-01 0.82973881E+02</pdfrwt>
<totfact> 0.60425225E+05</totfact>
</mgrwt>
</event>
<event>
 6    2  0.8544106E+000  0.8817130E+02  0.7546771E-02  0.1307342E+00
         21   -1    0    0  501  502  0.00000000000E+00  0.00000000000E+00  0.62798283775E+01  0.62798283775E+01  0.00000000000E+00 0. -1.
          2   -1    0    0  502    0 -0.00000000000E+00 -0.00000000000E+00 -0.85644832549E+03  0.85644832549E+03  0.00000000000E+00 0. -1.
         24    2    1    2    0    0 -0.36791763780E+02  0.11815341431E+02 -0.75320683672E+03  0.75834999637E+03  0.79252393957E+02 0.  0.
        -11    1    3    3    0    0 -0.37790281036E+02  0.63483983069E+01 -0.14089790570E+03  0.14601584617E+03  0.00000000000E+00 0.  1.
         12    1    3    3    0    0  0.99851725672E+00  0.54669431240E+01 -0.61230893102E+03  0.61233415020E+03  0.00000000000E+00 0. -1.
          1    1    1    2  501    0  0.36791763780E+02 -0.11815341431E+02 -0.96961660399E+02  0.10437815750E+03  0.00000000000E+00 0. -1.
<mgrwt>
<rscale>  1 0.88171300E+02</rscale>
<asrwt>0</asrwt>
<pdfrwt beam="1">  1       21 0.96612765E-03 0.88171300E+02</pdfrwt>
<pdfrwt beam="2">  1        2 0.13176125E+00 0.88171300E+02</pdfrwt>
<totfact> 0.15332957E+06</totfact>
</mgrwt>
</event>
<event>
 6    2  0.8544106E+000  0.8644697E+02  0.7546771E-02  0.1311691E+00
         21   -1    0    0  501  502  0.00000000000E+00  0.00000000000E+00  0.93825363746E+02  0.93825363746E+02  0.00000000000E+00 0. -1.
          4   -1    0    0  502    0 -0.00000000000E+00 -0.00000000000E+00 -0.70259964558E+02  0.70259964558E+02  0.00000000000E+00 0. -1.
         24    2    1    2    0    0  0.58363582213E+01  0.26314651208E+02 -0.39842166875E+02  0.95186537463E+02  0.82137413566E+02 0.  0.
        -13    1    3    3    0    0 -0.11239179994E+02  0.52040651847E+01  0.23336988134E+02  0.26420001449E+02  0.00000000000E+00 0.  1.
         14    1    3    3    0    0  0.17075538215E+02  0.21110586023E+02 -0.63179155009E+02  0.68766536014E+02  0.00000000000E+00 0. -1.
          3    1    1    2  501    0 -0.58363582213E+01 -0.26314651208E+02  0.63407566062E+02  0.68898790841E+02  0.00000000000E+00 0. -1.
<mgrwt>
<rscale>  1 0.86446970E+02</rscale>
<asrwt>0</asrwt>
<pdfrwt beam="1">  1       21 0.14434671E-01 0.86446970E+02</pdfrwt>
<pdfrwt beam="2">  1        4 0.10809225E-01 0.86446970E+02</pdfrwt>
<totfact> 0.10523369E+05</totfact>
</mgrwt>
</event>
<event>
 6    2  0.8544106E+000  0.6948668E+02  0.7546771E-02  0.1361847E+00
          2   -1    0    0  502    0 -0.00000000000E+00  0.00000000000E+00  0.86568302778E+03  0.86568302778E+03  0.00000000000E+00 0. -1.
         21   -1    0    0  501  502  0.00000000000E+00 -0.00000000000E+00 -0.24783527990E+01  0.24783527990E+01  0.00000000000E+00 0.  1.
         24    2    1    2    0    0 -0.20320080374E+02 -0.39520620250E+01  0.73720172449E+03  0.74046929785E+03  0.66331546028E+02 0.  0.
        -13    1    3    3    0    0 -0.37600167977E+02 -0.18379988218E+02  0.32961976591E+03  0.33226613833E+03  0.00000000000E+00 0.  1.
         14    1    3    3    0    0  0.17280087603E+02  0.14427926193E+02  0.40758195858E+03  0.40820315952E+03  0.00000000000E+00 0. -1.
          1    1    1    2  501    0  0.20320080374E+02  0.39520620250E+01  0.12600295049E+03  0.12769208273E+03  0.00000000000E+00 0. -1.
<mgrwt>
<rscale>  1 0.69486678E+02</rscale>
<asrwt>0</asrwt>
<pdfrwt beam="1">  1       21 0.38128573E-03 0.69486678E+02</pdfrwt>
<pdfrwt beam="2">  1        2 0.13318176E+00 0.69486678E+02</pdfrwt>
<totfact> 0.61333421E+06</totfact>
</mgrwt>
</event>
<event>
 6    2  0.8544106E+000  0.8255058E+02  0.7546771E-02  0.1321965E+00
         21   -1    0    0  501  502  0.00000000000E+00  0.00000000000E+00  0.79486941483E+02  0.79486941483E+02  0.00000000000E+00 0.  1.
          4   -1    0    0  502    0 -0.00000000000E+00 -0.00000000000E+00 -0.79744123020E+02  0.79744123020E+02  0.00000000000E+00 0. -1.
         24    2    1    2    0    0 -0.11307935673E+02 -0.16621793642E+02 -0.56147185877E+02  0.99835391107E+02  0.80065257151E+02 0.  0.
        -11    1    3    3    0    0  0.20990688464E+02  0.75414354181E+01  0.83060159572E+01  0.23800675441E+02  0.00000000000E+00 0.  1.
         12    1    3    3    0    0 -0.32298624138E+02 -0.24163229060E+02 -0.64453201834E+02  0.76034715666E+02  0.00000000000E+00 0. -1.
          3    1    1    2  501    0  0.11307935673E+02  0.16621793642E+02  0.55890004339E+02  0.59395673396E+02  0.00000000000E+00 0. -1.
<mgrwt>
<rscale>  1 0.82550583E+02</rscale>
<asrwt>0</asrwt>
<pdfrwt beam="1">  1       21 0.12228760E-01 0.82550583E+02</pdfrwt>
<pdfrwt beam="2">  1        4 0.12268327E-01 0.82550583E+02</pdfrwt>
<totfact> 0.11301120E+05</totfact>
</mgrwt>
</event>
<event>
 6    2  0.8544106E+000  0.1159495E+03  0.7546771E-02  0.1249933E+00
         21   -1    0    0  501  502  0.00000000000E+00  0.00000000000E+00  0.16534467127E+03  0.16534467127E+03  0.00000000000E+00 0. -1.
         -1   -1    0    0    0  501 -0.00000000000E+00 -0.00000000000E+00 -0.59478663795E+02  0.59478663795E+02  0.00000000000E+00 0.  1.
         24    2    1    2    0    0 -0.10863497507E+02 -0.80775951708E+02  0.72532736966E+02  0.13676723434E+03  0.82471258661E+02 0.  0.
        -13    1    3    3    0    0 -0.24599279455E+02 -0.50629351472E+02 -0.80433423433E+00  0.56294784250E+02  0.00000000000E+00 0.  1.
         14    1    3    3    0    0  0.13735781948E+02 -0.30146600236E+02  0.73337071200E+02  0.80472450091E+02  0.00000000000E+00 0. -1.
         -2    1    1    2    0  502  0.10863497507E+02  0.80775951708E+02  0.33333270513E+02  0.88056100728E+02  0.00000000000E+00 0.  1.
<mgrwt>
<rscale>  1 0.11594947E+03</rscale>
<asrwt>0</asrwt>
<pdfrwt beam="1">  1       21 0.25437641E-01 0.11594947E+03</pdfrwt>
<pdfrwt beam="2">  1       -1 0.91505638E-02 0.11594947E+03</pdfrwt>
<totfact> 0.89531203E+04</totfact>
</mgrwt>
</event>
<event>
 6    2  0.8544106E+000  0.8418963E+02  0.7546771E-02  0.1317565E+00
          2   -1    0    0  502    0 -0.00000000000E+00  0.00000000000E+00  0.66810896006E+03  0.66810896006E+03  0.00000000000E+00 0. -1.
         21   -1    0    0  501  502  0.00000000000E+00 -0.00000000000E+00 -0.66782184777E+01  0.66782184777E+01  0.00000000000E+00 0.  1.
         24    2    1    2    0    0  0.22311906744E+02 -0.16174489707E+02  0.28052693249E+03  0.29288778461E+03  0.79551613577E+02 0.  0.
        -13    1    3    3    0    0  0.78787260384E+01  0.12245516467E+02  0.48108159559E+01  0.15335284402E+02  0.00000000000E+00 0.  1.
         14    1    3    3    0    0  0.14433180706E+02 -0.28420006174E+02  0.27571611653E+03  0.27755250021E+03  0.00000000000E+00 0. -1.
          1    1    1    2  501    0 -0.22311906744E+02  0.16174489707E+02  0.38090380909E+03  0.38189939392E+03  0.00000000000E+00 0. -1.
<mgrwt>
<rscale>  1 0.84189634E+02</rscale>
<asrwt>0</asrwt>
<pdfrwt beam="1">  1       21 0.10274188E-02 0.84189634E+02</pdfrwt>
<pdfrwt beam="2">  1        2 0.10278594E+00 0.84189634E+02</pdfrwt>
<totfact> 0.18657640E+06</totfact>
</mgrwt>
</event>
<event>
 6    2  0.8544106E+000  0.1000344E+03  0.7546771E-02  0.1280224E+00
         21   -1    0    0  501  502  0.00000000000E+00  0.00000000000E+00  0.12765462694E+02  0.12765462694E+02  0.00000000000E+00 0. -1.
          2   -1    0    0  502    0 -0.00000000000E+00 -0.00000000000E+00 -0.21306631360E+04  0.21306631360E+04  0.00000000000E+00 0. -1.
         24    2    1    2    0    0  0.50764397340E+02 -0.19031256589E+02 -0.20658621121E+04  0.20682826580E+04  0.84069463013E+02 0.  0.
        -13    1    3    3    0    0  0.23235594227E+02 -0.49683979956E+02 -0.88194682000E+03  0.88365071381E+03  0.00000000000E+00 0.  1.
         14    1    3    3    0    0  0.27528803113E+02  0.30652723367E+02 -0.11839152921E+04  0.11846319442E+04  0.00000000000E+00 0. -1.
          1    1    1    2  501    0 -0.50764397340E+02  0.19031256589E+02 -0.52035561189E+02  0.75145940628E+02  0.00000000000E+00 0. -1.
<mgrwt>
<rscale>  1 0.10003443E+03</rscale>
<asrwt>0</asrwt>
<pdfrwt beam="1">  1       21 0.19639166E-02 0.10003443E+03</pdfrwt>
<pdfrwt beam="2">  1        2 0.32779445E+00 0.10003443E+03</pdfrwt>
<totfact> 0.10585806E+05</totfact>
</mgrwt>
</event>
<event>
 6    2  0.8544106E+000  0.8103647E+02  0.7546771E-02  0.1326136E+00
         21   -1    0    0  501  502  0.00000000000E+00  0.00000000000E+00  0.65713244098E+00  0.65713244098E+00  0.00000000000E+00 0.  1.
          2   -1    0    0  502    0 -0.00000000000E+00 -0.00000000000E+00 -0.40813130731E+04  0.40813130731E+04  0.00000000000E+00 0. -1.
         24    2    1    2    0    0  0.18458252512E+02  0.12194843589E+02 -0.33465057791E+04  0.33474867946E+04  0.77958250856E+02 0.  0.
        -11    1    3    3    0    0  0.25703685029E+02 -0.22785419191E+02 -0.80812735483E+03  0.80885701850E+03  0.00000000000E+00 0.  1.
         12    1    3    3    0    0 -0.72454325170E+01  0.34980262780E+02 -0.25383784243E+04  0.25386297761E+04  0.00000000000E+00 0. -1.
          1    1    1    2  501    0 -0.18458252512E+02 -0.12194843589E+02 -0.73415016153E+03  0.73448341095E+03  0.00000000000E+00 0. -1.
<mgrwt>
<rscale>  1 0.81036474E+02</rscale>
<asrwt>0</asrwt>
<pdfrwt beam="1">  1       21 0.10109847E-03 0.81036474E+02</pdfrwt>
<pdfrwt beam="2">  1        2 0.62788706E+00 0.81036474E+02</pdfrwt>
<totfact> 0.67841012E+05</totfact>
</mgrwt>
</event>
<event>
 6    2  0.8544106E+000  0.8106474E+02  0.7546771E-02  0.1326057E+00
          4   -1    0    0  502    0 -0.00000000000E+00  0.00000000000E+00  0.44259596385E+02  0.44259596385E+02  0.00000000000E+00 0. -1.
         21   -1    0    0  501  502  0.00000000000E+00 -0.00000000000E+00 -0.87218111105E+02  0.87218111105E+02  0.00000000000E+00 0.  1.
         24    2    1    2    0    0  0.75765519902E+01 -0.20740258090E+02  0.23244480468E+01  0.81098057207E+02  0.77999547296E+02 0.  0.
        -13    1    3    3    0    0  0.21258113071E+02 -0.45128064748E+02 -0.94243697675E+01  0.50766803570E+02  0.00000000000E+00 0.  1.
         14    1    3    3    0    0 -0.13681561081E+02  0.24387806658E+02  0.11748817814E+02  0.30331253637E+02  0.00000000000E+00 0. -1.
          3    1    1    2  501    0 -0.75765519902E+01  0.20740258090E+02 -0.45282962766E+02  0.50379650283E+02  0.00000000000E+00 0. -1.
<mgrwt>
<rscale>  1 0.81064738E+02</rscale>
<asrwt>0</asrwt>
<pdfrwt beam="1">  1       21 0.13418171E-01 0.81064738E+02</pdfrwt>
<pdfrwt beam="2">  1        4 0.68091687E-02 0.81064738E+02</pdfrwt>
<totfact> 0.25353251E+05</totfact>
</mgrwt>
</event>
<event>
 6    2  0.8544106E+000  0.8355929E+02  0.7546771E-02  0.1319244E+00
         -1   -1    0    0    0  501 -0.00000000000E+00  0.00000000000E+00  0.15700336088E+03  0.15700336088E+03  0.00000000000E+00 0.  1.
         21   -1    0    0  501  502  0.00000000000E+00 -0.00000000000E+00 -0.19359781631E+02  0.19359781631E+02  0.00000000000E+00 0. -1.
         24    2    1    2    0    0  0.13112984824E+02  0.19368691056E+02  0.12323047118E+03  0.14888889551E+03  0.80218810849E+02 0.  0.
        -13    1    3    3    0    0 -0.88698861990E+01 -0.15765183399E+02  0.99501114398E+02  0.10113203081E+03  0.00000000000E+00 0.  1.
         14    1    3    3    0    0  0.21982871023E+02  0.35133874455E+02  0.23729356780E+02  0.47756864698E+02  0.00000000000E+00 0. -1.
         -2    1    1    2    0  502 -0.13112984824E+02 -0.19368691056E+02  0.14413108072E+02  0.27474247005E+02  0.00000000000E+00 0.  1.
<mgrwt>
<rscale>  1 0.83559285E+02</rscale>
<asrwt>0</asrwt>
<pdfrwt beam="1">  1       21 0.29784281E-02 0.83559285E+02</pdfrwt>
<pdfrwt beam="2">  1       -1 0.24154362E-01 0.83559285E+02</pdfrwt>
<totfact> 0.78839572E+05</totfact>
</mgrwt>
</event>
<event>
 6    2  0.8544106E+000  0.7568910E+02  0.7546771E-02  0.1341750E+00
         21   -1    0    0  501  502  0.00000000000E+00  0.00000000000E+00  0.58719567728E+03  0.58719567728E+03  0.00000000000E+00 0. -1.
          2   -1    0    0  502    0 -0.00000000000E+00 -0.00000000000E+00 -0.41522548410E+01  0.41522548410E+01  0.00000000000E+00 0. -1.
         24    2    1    2    0    0  0.17316995867E+02 -0.10429585948E+02  0.39218899014E+03  0.39942589343E+03  0.72939603390E+02 0.  0.
        -11    1    3    3    0    0  0.76488072482E+01  0.15621296442E+02  0.33873232182E+03  0.33917858865E+03  0.00000000000E+00 0.  1.
         12    1    3    3    0    0  0.96681886191E+01 -0.26050882390E+02  0.53456668321E+02  0.60247304773E+02  0.00000000000E+00 0. -1.
          1    1    1    2  501    0 -0.17316995867E+02  0.10429585948E+02  0.19085443229E+03  0.19192203869E+03  0.00000000000E+00 0. -1.
<mgrwt>
<rscale>  1 0.75689103E+02</rscale>
<asrwt>0</asrwt>
<pdfrwt beam="1">  1       21 0.90337731E-01 0.75689103E+02</pdfrwt>
<pdfrwt beam="2">  1        2 0.63880890E-03 0.75689103E+02</pdfrwt>
<totfact> 0.30980821E+05</totfact>
</mgrwt>
</event>
<event>
 6    2  0.8544106E+000  0.1052528E+03  0.7546771E-02  0.1269622E+00
          2   -1    0    0  502    0 -0.00000000000E+00  0.00000000000E+00  0.12792412083E+04  0.12792412083E+04  0.00000000000E+00 0. -1.
         21   -1    0    0  501  502  0.00000000000E+00 -0.00000000000E+00 -0.69526749776E+01  0.69526749776E+01  0.00000000000E+00 0.  1.
         24    2    1    2    0    0 -0.65221680146E+02 -0.20295452062E+02  0.50388953755E+03  0.51476482650E+03  0.80077385164E+02 0.  0.
        -11    1    3    3    0    0 -0.33899663382E+02 -0.87813698906E+01  0.58885900762E+02  0.68511670124E+02  0.00000000000E+00 0.  1.
         12    1    3    3    0    0 -0.31322016765E+02 -0.11514082172E+02  0.44500363679E+03  0.44625315638E+03  0.00000000000E+00 0. -1.
          1    1    1    2  501    0  0.65221680146E+02  0.20295452062E+02  0.76839899582E+03  0.77142905683E+03  0.00000000000E+00 0. -1.
<mgrwt>
<rscale>  1 0.10525284E+03</rscale>
<asrwt>0</asrwt>
<pdfrwt beam="1">  1       21 0.10696433E-02 0.10525284E+03</pdfrwt>
<pdfrwt beam="2">  1        2 0.19680615E+00 0.10525284E+03</pdfrwt>
<totfact> 0.75666967E+05</totfact>
</mgrwt>
</event>
<event>
 6    2  0.8544106E+000  0.9004477E+02  0.7546771E-02  0.1302743E+00
          2   -1    0    0  502    0 -0.00000000000E+00  0.00000000000E+00  0.12997056854E+03  0.12997056854E+03  0.00000000000E+00 0. -1.
         21   -1    0    0  501  502  0.00000000000E+00 -0.00000000000E+00 -0.93745306338E+02  0.93745306338E+02  0.00000000000E+00 0. -1.
         24    2    1    2    0    0  0.40801366199E+02  0.32413562405E+01  0.10829178819E+03  0.14083739732E+03  0.80204758089E+02 0.  0.
        -11    1    3    3    0    0 -0.15672554524E+02  0.90617883059E+01 -0.51347527334E+00  0.18111008516E+02  0.00000000000E+00 0.  1.
         12    1    3    3    0    0  0.56473920723E+02 -0.58204320655E+01  0.10880526346E+03  0.12272638880E+03  0.00000000000E+00 0. -1.
          1    1    1    2  501    0 -0.40801366199E+02 -0.32413562405E+01 -0.72066525990E+02  0.82878477557E+02  0.00000000000E+00 0. -1.
<mgrwt>
<rscale>  1 0.90044773E+02</rscale>
<asrwt>0</asrwt>
<pdfrwt beam="1">  1       21 0.14422355E-01 0.90044773E+02</pdfrwt>
<pdfrwt beam="2">  1        2 0.19995472E-01 0.90044773E+02</pdfrwt>
<totfact> 0.13850253E+05</totfact>
</mgrwt>
</event>
<event>
 6    2  0.8544106E+000  0.1005900E+03  0.7546771E-02  0.1279060E+00
          2   -1    0    0  502    0 -0.00000000000E+00  0.00000000000E+00  0.14701021778E+04  0.14701021778E+04  0.00000000000E+00 0. -1.
         21   -1    0    0  501  502  0.00000000000E+00 -0.00000000000E+00 -0.11041219550E+02  0.11041219550E+02  0.00000000000E+00 0. -1.
         24    2    1    2    0    0  0.16473809731E+02 -0.57357494676E+02  0.13714789700E+04  0.13751628649E+04  0.80975744121E+02 0.  0.
        -13    1    3    3    0    0  0.38626610781E+02 -0.61575648113E+02  0.81752767781E+03  0.82075275174E+03  0.00000000000E+00 0.  1.
         14    1    3    3    0    0 -0.22152801049E+02  0.42181534374E+01  0.55395129219E+03  0.55441011313E+03  0.00000000000E+00 0. -1.
          1    1    1    2  501    0 -0.16473809731E+02  0.57357494676E+02  0.87581988287E+02  0.10598053253E+03  0.00000000000E+00 0. -1.
<mgrwt>
<rscale>  1 0.10058996E+03</rscale>
<asrwt>0</asrwt>
<pdfrwt beam="1">  1       21 0.16986503E-02 0.10058996E+03</pdfrwt>
<pdfrwt beam="2">  1        2 0.22616941E+00 0.10058996E+03</pdfrwt>
<totfact> 0.28839499E+05</totfact>
</mgrwt>
</event>
<event>
 6    2  0.8544106E+000  0.8639012E+02  0.7546771E-02  0.1311837E+00
          2   -1    0    0  502    0 -0.00000000000E+00  0.00000000000E+00  0.95612970316E+03  0.95612970316E+03  0.00000000000E+00 0. -1.
         21   -1    0    0  501  502  0.00000000000E+00 -0.00000000000E+00 -0.47540843663E+01  0.47540843663E+01  0.00000000000E+00 0. -1.
         24    2    1    2    0    0 -0.11862273537E+02  0.31087643793E+02  0.84551580630E+03  0.84991777908E+03  0.79725136293E+02 0.  0.
        -13    1    3    3    0    0  0.24223479642E+02  0.57464328780E+01  0.98353974007E+02  0.10145591486E+03  0.00000000000E+00 0.  1.
         14    1    3    3    0    0 -0.36085753179E+02  0.25341210915E+02  0.74716183229E+03  0.74846186422E+03  0.00000000000E+00 0. -1.
          1    1    1    2  501    0  0.11862273537E+02 -0.31087643793E+02  0.10585981249E+03  0.11096600845E+03  0.00000000000E+00 0. -1.
<mgrwt>
<rscale>  1 0.86390118E+02</rscale>
<asrwt>0</asrwt>
<pdfrwt beam="1">  1       21 0.73139835E-03 0.86390118E+02</pdfrwt>
<pdfrwt beam="2">  1        2 0.14709672E+00 0.86390118E+02</pdfrwt>
<totfact> 0.20471373E+06</totfact>
</mgrwt>
</event>
<event>
 6    2  0.8544106E+000  0.8499846E+02  0.7546771E-02  0.1315437E+00
          4   -1    0    0  502    0 -0.00000000000E+00  0.00000000000E+00  0.72025833019E+02  0.72025833019E+02  0.00000000000E+00 0. -1.
         21   -1    0    0  501  502  0.00000000000E+00 -0.00000000000E+00 -0.49430035116E+02  0.49430035116E+02  0.00000000000E+00 0.  1.
         24    2    1    2    0    0 -0.51266645765E+01 -0.28977742583E+02  0.31598431336E+02  0.90681858588E+02  0.79741747906E+02 0.  0.
        -13    1    3    3    0    0 -0.16957076682E+02 -0.22261696386E+02 -0.21865874726E+02  0.35513969831E+02  0.00000000000E+00 0.  1.
         14    1    3    3    0    0  0.11830412106E+02 -0.67160461973E+01  0.53464306063E+02  0.55167888757E+02  0.00000000000E+00 0. -1.
          3    1    1    2  501    0  0.51266645765E+01  0.28977742583E+02 -0.90026334334E+01  0.30774009548E+02  0.00000000000E+00 0. -1.
<mgrwt>
<rscale>  1 0.84998462E+02</rscale>
<asrwt>0</asrwt>
<pdfrwt beam="1">  1       21 0.76046208E-02 0.84998462E+02</pdfrwt>
<pdfrwt beam="2">  1        4 0.11080897E-01 0.84998462E+02</pdfrwt>
<totfact> 0.30623269E+05</totfact>
</mgrwt>
</event>
<event>
 6    2  0.8544106E+000  0.8530733E+02  0.7546771E-02  0.1314631E+00
         21   -1    0    0  501  502  0.00000000000E+00  0.00000000000E+00  0.53365183321E+01  0.53365183321E+01  0.00000000000E+00 0. -1.
          2   -1    0    0  502    0 -0.00000000000E+00 -0.00000000000E+00 -0.13865503733E+04  0.13865503733E+04  0.00000000000E+00 0. -1.
         24    2    1    2    0    0 -0.10225236955E+02  0.26110148358E+02 -0.13357480073E+04  0.13384693045E+04  0.80567019095E+02 0.  0.
        -13    1    3    3    0    0  0.35242599464E+02  0.86397661448E+01 -0.62758899163E+03  0.62863712012E+03  0.00000000000E+00 0.  1.
         14    1    3    3    0    0 -0.45467836419E+02  0.17470382214E+02 -0.70815901570E+03  0.70983218434E+03  0.00000000000E+00 0. -1.
          1    1    1    2  501    0  0.10225236955E+02 -0.26110148358E+02 -0.45465847622E+02  0.53417587161E+02  0.00000000000E+00 0. -1.
<mgrwt>
<rscale>  1 0.85307326E+02</rscale>
<asrwt>0</asrwt>
<pdfrwt beam="1">  1       21 0.82100347E-03 0.85307326E+02</pdfrwt>
<pdfrwt beam="2">  1        2 0.21331527E+00 0.85307326E+02</pdfrwt>
<totfact> 0.99117054E+05</totfact>
</mgrwt>
</event>
<event>
 6    2  0.8544106E+000  0.8383332E+02  0.7546771E-02  0.1318512E+00
          2   -1    0    0  502    0 -0.00000000000E+00  0.00000000000E+00  0.11937631362E+03  0.11937631362E+03  0.00000000000E+00 0. -1.
         21   -1    0    0  501  502  0.00000000000E+00 -0.00000000000E+00 -0.24754654870E+02  0.24754654870E+02  0.00000000000E+00 0.  1.
         24    2    1    2    0    0  0.24865299266E+02 -0.35247988145E+00  0.71777711344E+02  0.11036333187E+03  0.80060088851E+02 0.  0.
        -13    1    3    3    0    0  0.11239584697E+02 -0.50133423482E+01 -0.16686831162E+02  0.20734324196E+02  0.00000000000E+00 0.  1.
         14    1    3    3    0    0  0.13625714569E+02  0.46608624668E+01  0.88464542506E+02  0.89629007678E+02  0.00000000000E+00 0. -1.
          1    1    1    2  501    0 -0.24865299266E+02  0.35247988145E+00  0.22843947410E+02  0.33767636620E+02  0.00000000000E+00 0. -1.
<mgrwt>
<rscale>  1 0.83833318E+02</rscale>
<asrwt>0</asrwt>
<pdfrwt beam="1">  1       21 0.38084085E-02 0.83833318E+02</pdfrwt>
<pdfrwt beam="2">  1        2 0.18365586E-01 0.83833318E+02</pdfrwt>
<totfact> 0.14599196E+06</totfact>
</mgrwt>
</event>
<event>
 6    2  0.8544106E+000  0.8681739E+02  0.7546771E-02  0.1310747E+00
         21   -1    0    0  501  502  0.00000000000E+00  0.00000000000E+00  0.26615659874E+02  0.26615659874E+02  0.00000000000E+00 0. -1.
          2   -1    0    0  502    0 -0.00000000000E+00 -0.00000000000E+00 -0.24824654044E+03  0.24824654044E+03  0.00000000000E+00 0. -1.
         24    2    1    2    0    0  0.35012007831E+01 -0.33074918259E+02 -0.22525420012E+03  0.24140570514E+03  0.80193835021E+02 0.  0.
        -13    1    3    3    0    0  0.14461578953E+02 -0.18234706631E+02 -0.99473844054E+01  0.25309923909E+02  0.00000000000E+00 0.  1.
         14    1    3    3    0    0 -0.10960378170E+02 -0.14840211628E+02 -0.21530681571E+03  0.21609578123E+03  0.00000000000E+00 0. -1.
          1    1    1    2  501    0 -0.35012007831E+01  0.33074918259E+02  0.36233195589E+01  0.33456495175E+02  0.00000000000E+00 0. -1.
<mgrwt>
<rscale>  1 0.86817393E+02</rscale>
<asrwt>0</asrwt>
<pdfrwt beam="1">  1       21 0.40947168E-02 0.86817393E+02</pdfrwt>
<pdfrwt beam="2">  1        2 0.38191776E-01 0.86817393E+02</pdfrwt>
<totfact> 0.58889910E+05</totfact>
</mgrwt>
</event>
<event>
 6    2  0.8544106E+000  0.8502112E+02  0.7546771E-02  0.1315377E+00
         21   -1    0    0  501  502  0.00000000000E+00  0.00000000000E+00  0.22002990090E+01  0.22002990090E+01  0.00000000000E+00 0. -1.
          2   -1    0    0  502    0 -0.00000000000E+00 -0.00000000000E+00 -0.15648712971E+04  0.15648712971E+04  0.00000000000E+00 0. -1.
         24    2    1    2    0    0  0.11002984166E+01  0.28410215817E+02 -0.96996802656E+03  0.97368709726E+03  0.80126398842E+02 0.  0.
        -11    1    3    3    0    0  0.20973560843E+02 -0.53492014529E+01 -0.74633669881E+03  0.74665050204E+03  0.00000000000E+00 0.  1.
         12    1    3    3    0    0 -0.19873262427E+02  0.33759417270E+02 -0.22363132775E+03  0.22703659521E+03  0.00000000000E+00 0. -1.
          1    1    1    2  501    0 -0.11002984166E+01 -0.28410215817E+02 -0.59270297153E+03  0.59338449886E+03  0.00000000000E+00 0. -1.
<mgrwt>
<rscale>  1 0.85021120E+02</rscale>
<asrwt>0</asrwt>
<pdfrwt beam="1">  1       21 0.33850760E-03 0.85021120E+02</pdfrwt>
<pdfrwt beam="2">  1        2 0.24074939E+00 0.85021120E+02</pdfrwt>
<totfact> 0.31233807E+06</totfact>
</mgrwt>
</event>
<event>
 6    2  0.8544106E+000  0.1372760E+03  0.7546771E-02  0.1217042E+00
         21   -1    0    0  501  502  0.00000000000E+00  0.00000000000E+00  0.67822191221E+02  0.67822191221E+02  0.00000000000E+00 0.  1.
         -1   -1    0    0    0  501 -0.00000000000E+00 -0.00000000000E+00 -0.37573207043E+03  0.37573207043E+03  0.00000000000E+00 0.  1.
         24    2    1    2    0    0 -0.10151528914E+03  0.44292242958E+02 -0.24730756583E+02  0.13948589400E+03  0.81102081280E+02 0.  0.
        -13    1    3    3    0    0 -0.70084277869E+02  0.56775667133E+02 -0.44220495184E+02  0.10045264843E+03  0.00000000000E+00 0.  1.
         14    1    3    3    0    0 -0.31431011272E+02 -0.12483424175E+02  0.19489738601E+02  0.39033245567E+02  0.00000000000E+00 0. -1.
         -2    1    1    2    0  502  0.10151528914E+03 -0.44292242958E+02 -0.28317912263E+03  0.30406836766E+03  0.00000000000E+00 0.  1.
<mgrwt>
<rscale>  1 0.13727602E+03</rscale>
<asrwt>0</asrwt>
<pdfrwt beam="1">  1       21 0.10434183E-01 0.13727602E+03</pdfrwt>
<pdfrwt beam="2">  1       -1 0.57804935E-01 0.13727602E+03</pdfrwt>
<totfact> 0.21776056E+04</totfact>
</mgrwt>
</event>
<event>
 6    2  0.8544106E+000  0.7887136E+02  0.7546771E-02  0.1332285E+00
          2   -1    0    0  502    0 -0.00000000000E+00  0.00000000000E+00  0.15439570048E+04  0.15439570048E+04  0.00000000000E+00 0. -1.
         21   -1    0    0  501  502  0.00000000000E+00 -0.00000000000E+00 -0.38289776720E+01  0.38289776720E+01  0.00000000000E+00 0. -1.
         24    2    1    2    0    0  0.18921721535E+02 -0.52581216931E+02  0.12395958898E+04  0.12421025163E+04  0.55658558058E+02 0.  0.
        -11    1    3    3    0    0 -0.34493387787E+01  0.49822275464E+01  0.18949356826E+02  0.19894689076E+02  0.00000000000E+00 0.  1.
         12    1    3    3    0    0  0.22371060314E+02 -0.57563444478E+02  0.12206465330E+04  0.12222078272E+04  0.00000000000E+00 0. -1.
          1    1    1    2  501    0 -0.18921721535E+02  0.52581216931E+02  0.30053213729E+03  0.30568346613E+03  0.00000000000E+00 0. -1.
<mgrwt>
<rscale>  1 0.78871357E+02</rscale>
<asrwt>0</asrwt>
<pdfrwt beam="1">  1       21 0.58907472E-03 0.78871357E+02</pdfrwt>
<pdfrwt beam="2">  1        2 0.23753135E+00 0.78871357E+02</pdfrwt>
<totfact> 0.13668946E+06</totfact>
</mgrwt>
</event>
<event>
 6    2  0.8544106E+000  0.1061224E+03  0.7546771E-02  0.1267924E+00
         21   -1    0    0  501  502  0.00000000000E+00  0.00000000000E+00  0.12617142334E+03  0.12617142334E+03  0.00000000000E+00 0. -1.
          2   -1    0    0  502    0 -0.00000000000E+00 -0.00000000000E+00 -0.17383855804E+03  0.17383855804E+03  0.00000000000E+00 0. -1.
         24    2    1    2    0    0 -0.21058632665E+02  0.65367625009E+02 -0.14573940471E+03  0.18028294786E+03  0.80904726654E+02 0.  0.
        -13    1    3    3    0    0 -0.29291815071E+02 -0.77055599862E+01 -0.26777405417E+02  0.40427905285E+02  0.00000000000E+00 0.  1.
         14    1    3    3    0    0  0.82331824060E+01  0.73073184995E+02 -0.11896199930E+03  0.13985504258E+03  0.00000000000E+00 0. -1.
          1    1    1    2  501    0  0.21058632665E+02 -0.65367625009E+02  0.98072270017E+02  0.11972703352E+03  0.00000000000E+00 0. -1.
<mgrwt>
<rscale>  1 0.10612242E+03</rscale>
<asrwt>0</asrwt>
<pdfrwt beam="1">  1       21 0.19410988E-01 0.10612242E+03</pdfrwt>
<pdfrwt beam="2">  1        2 0.26744393E-01 0.10612242E+03</pdfrwt>
<totfact> 0.59189287E+04</totfact>
</mgrwt>
</event>
<event>
 6    2  0.8544106E+000  0.8399093E+02  0.7546771E-02  0.1318093E+00
         21   -1    0    0  501  502  0.00000000000E+00  0.00000000000E+00  0.16654208555E+01  0.16654208555E+01  0.00000000000E+00 0.  1.
          2   -1    0    0  502    0 -0.00000000000E+00 -0.00000000000E+00 -0.18493334924E+04  0.18493334924E+04  0.00000000000E+00 0. -1.
         24    2    1    2    0    0  0.10564185178E+02 -0.21637201344E+02 -0.12316935921E+04  0.12345540010E+04  0.80465558666E+02 0.  0.
        -11    1    3    3    0    0  0.14875901501E+02 -0.51234809315E+02 -0.86421806814E+03  0.86586324984E+03  0.00000000000E+00 0.  1.
         12    1    3    3    0    0 -0.43117163227E+01  0.29597607971E+02 -0.36747552398E+03  0.36869075120E+03  0.00000000000E+00 0. -1.
          1    1    1    2  501    0 -0.10564185178E+02  0.21637201344E+02 -0.61597447939E+03  0.61644491218E+03  0.00000000000E+00 0. -1.
<mgrwt>
<rscale>  1 0.83990932E+02</rscale>
<asrwt>0</asrwt>
<pdfrwt beam="1">  1       21 0.25621845E-03 0.83990932E+02</pdfrwt>
<pdfrwt beam="2">  1        2 0.28451300E+00 0.83990932E+02</pdfrwt>
<totfact> 0.34210556E+06</totfact>
</mgrwt>
</event>
<event>
 6    2  0.8544106E+000  0.8113217E+02  0.7546771E-02  0.1325869E+00
          4   -1    0    0  502    0 -0.00000000000E+00  0.00000000000E+00  0.87659654333E+01  0.87659654333E+01  0.00000000000E+00 0. -1.
         21   -1    0    0  501  502  0.00000000000E+00 -0.00000000000E+00 -0.42361301195E+03  0.42361301195E+03  0.00000000000E+00 0.  1.
         24    2    1    2    0    0  0.80171991472E+01 -0.30536202035E+02 -0.36059410494E+03  0.36960862780E+03  0.74737501372E+02 0.  0.
        -13    1    3    3    0    0  0.59929882069E+01 -0.26210575192E+02 -0.36318256303E+03  0.36417644658E+03  0.00000000000E+00 0.  1.
         14    1    3    3    0    0  0.20242109403E+01 -0.43256268430E+01  0.25884580872E+01  0.54321812180E+01  0.00000000000E+00 0. -1.
          3    1    1    2  501    0 -0.80171991472E+01  0.30536202035E+02 -0.54252941581E+02  0.62770349585E+02  0.00000000000E+00 0. -1.
<mgrwt>
<rscale>  1 0.81132171E+02</rscale>
<asrwt>0</asrwt>
<pdfrwt beam="1">  1       21 0.65171233E-01 0.81132171E+02</pdfrwt>
<pdfrwt beam="2">  1        4 0.13486101E-02 0.81132171E+02</pdfrwt>
<totfact> 0.15219759E+05</totfact>
</mgrwt>
</event>
<event>
 6    2  0.8544106E+000  0.8860812E+02  0.7546771E-02  0.1306258E+00
         -1   -1    0    0    0  501 -0.00000000000E+00  0.00000000000E+00  0.19321723576E+03  0.19321723576E+03  0.00000000000E+00 0.  1.
         21   -1    0    0  501  502  0.00000000000E+00 -0.00000000000E+00 -0.17968347381E+02  0.17968347381E+02  0.00000000000E+00 0. -1.
         24    2    1    2    0    0  0.12061525313E+02 -0.16220651641E+02  0.16758425199E+03  0.18956761415E+03  0.86271715439E+02 0.  0.
        -13    1    3    3    0    0  0.38661203858E+02 -0.16689525249E+02  0.15408385669E+03  0.15973435394E+03  0.00000000000E+00 0.  1.
         14    1    3    3    0    0 -0.26599678545E+02  0.46887360829E+00  0.13500395304E+02  0.29833260206E+02  0.00000000000E+00 0. -1.
         -2    1    1    2    0  502 -0.12061525313E+02  0.16220651641E+02  0.76646363883E+01  0.21617968996E+02  0.00000000000E+00 0.  1.
<mgrwt>
<rscale>  1 0.88608119E+02</rscale>
<asrwt>0</asrwt>
<pdfrwt beam="1">  1       21 0.27643613E-02 0.88608119E+02</pdfrwt>
<pdfrwt beam="2">  1       -1 0.29725727E-01 0.88608119E+02</pdfrwt>
<totfact> 0.63794645E+05</totfact>
</mgrwt>
</event>
<event>
 6    2  0.8544106E+000  0.8289498E+02  0.7546771E-02  0.1321031E+00
          2   -1    0    0  502    0 -0.00000000000E+00  0.00000000000E+00  0.16674052955E+04  0.16674052955E+04  0.00000000000E+00 0. -1.
         21   -1    0    0  501  502  0.00000000000E+00 -0.00000000000E+00 -0.68760395358E+01  0.68760395358E+01  0.00000000000E+00 0. -1.
         24    2    1    2    0    0  0.18936960829E+02 -0.14378253178E+02  0.16421193235E+04  0.16442102814E+04  0.79411802221E+02 0.  0.
        -13    1    3    3    0    0 -0.28251073069E+02  0.64622739516E+00  0.34865814224E+03  0.34980143066E+03  0.00000000000E+00 0.  1.
         14    1    3    3    0    0  0.47188033898E+02 -0.15024480573E+02  0.12934611813E+04  0.12944088508E+04  0.00000000000E+00 0. -1.
          1    1    1    2  501    0 -0.18936960829E+02  0.14378253178E+02  0.18409932416E+02  0.30071053548E+02  0.00000000000E+00 0. -1.
<mgrwt>
<rscale>  1 0.82894976E+02</rscale>
<asrwt>0</asrwt>
<pdfrwt beam="1">  1       21 0.10578536E-02 0.82894976E+02</pdfrwt>
<pdfrwt beam="2">  1        2 0.25652357E+00 0.82894976E+02</pdfrwt>
<totfact> 0.48012370E+05</totfact>
</mgrwt>
</event>
<event>
 6    2  0.8544106E+000  0.8574870E+02  0.7546771E-02  0.1313486E+00
         -1   -1    0    0    0  501 -0.00000000000E+00  0.00000000000E+00  0.85549666402E+02  0.85549666402E+02  0.00000000000E+00 0.  1.
         21   -1    0    0  501  502  0.00000000000E+00 -0.00000000000E+00 -0.41321931680E+02  0.41321931680E+02  0.00000000000E+00 0. -1.
         24    2    1    2    0    0 -0.20840460032E+01 -0.28033132049E+02  0.48381095353E+02  0.98455930841E+02  0.81010123997E+02 0.  0.
        -11    1    3    3    0    0 -0.21402333351E+02  0.14917378691E+02  0.44006457099E+02  0.51158150146E+02  0.00000000000E+00 0.  1.
         12    1    3    3    0    0  0.19318287348E+02 -0.42950510740E+02  0.43746382540E+01  0.47297780696E+02  0.00000000000E+00 0. -1.
         -2    1    1    2    0  502  0.20840460032E+01  0.28033132049E+02 -0.41533606311E+01  0.28415667241E+02  0.00000000000E+00 0.  1.
<mgrwt>
<rscale>  1 0.85748702E+02</rscale>
<asrwt>0</asrwt>
<pdfrwt beam="1">  1       21 0.63572203E-02 0.85748702E+02</pdfrwt>
<pdfrwt beam="2">  1       -1 0.13161487E-01 0.85748702E+02</pdfrwt>
<totfact> 0.58704460E+05</totfact>
</mgrwt>
</event>
<event>
 6    2  0.8544106E+000  0.1228310E+03  0.7546771E-02  0.1238499E+00
         21   -1    0    0  501  502  0.00000000000E+00  0.00000000000E+00  0.26426387787E+03  0.26426387787E+03  0.00000000000E+00 0. -1.
          2   -1    0    0  502    0 -0.00000000000E+00 -0.00000000000E+00 -0.48413204714E+02  0.48413204714E+02  0.00000000000E+00 0. -1.
         24    2    1    2    0    0  0.68978102255E+02 -0.60576243389E+02  0.73042954559E+02  0.14290810914E+03  0.81608789924E+02 0.  0.
        -11    1    3    3    0    0  0.54175741840E+02 -0.59851453714E+00  0.57913011455E+02  0.79305019509E+02  0.00000000000E+00 0.  1.
         12    1    3    3    0    0  0.14802360416E+02 -0.59977728852E+02  0.15129943104E+02  0.63603089630E+02  0.00000000000E+00 0. -1.
          1    1    1    2  501    0 -0.68978102255E+02  0.60576243389E+02  0.14280771860E+03  0.16976897345E+03  0.00000000000E+00 0. -1.
<mgrwt>
<rscale>  1 0.12283100E+03</rscale>
<asrwt>0</asrwt>
<pdfrwt beam="1">  1       21 0.40655980E-01 0.12283100E+03</pdfrwt>
<pdfrwt beam="2">  1        2 0.74481855E-02 0.12283100E+03</pdfrwt>
<totfact> 0.64822966E+04</totfact>
</mgrwt>
</event>
<event>
 6    2  0.8544106E+000  0.1280689E+03  0.7546771E-02  0.1230350E+00
         21   -1    0    0  501  502  0.00000000000E+00  0.00000000000E+00  0.34447420039E+03  0.34447420039E+03  0.00000000000E+00 0.  1.
          2   -1    0    0  502    0 -0.00000000000E+00 -0.00000000000E+00 -0.39971046502E+02  0.39971046502E+02  0.00000000000E+00 0. -1.
         24    2    1    2    0    0  0.79019925368E+02 -0.62180581381E+02  0.21275223032E+03  0.24832469267E+03  0.79316254184E+02 0.  0.
        -13    1    3    3    0    0  0.60218950415E+02 -0.66967073781E+02  0.21029598312E+03  0.22876912265E+03  0.00000000000E+00 0.  1.
         14    1    3    3    0    0  0.18800974952E+02  0.47864923999E+01  0.24562471996E+01  0.19555570024E+02  0.00000000000E+00 0. -1.
          1    1    1    2  501    0 -0.79019925368E+02  0.62180581381E+02  0.91750923564E+02  0.13612055422E+03  0.00000000000E+00 0. -1.
<mgrwt>
<rscale>  1 0.12806889E+03</rscale>
<asrwt>0</asrwt>
<pdfrwt beam="1">  1       21 0.52996029E-01 0.12806889E+03</pdfrwt>
<pdfrwt beam="2">  1        2 0.61493920E-02 0.12806889E+03</pdfrwt>
<totfact> 0.48215289E+04</totfact>
</mgrwt>
</event>
<event>
 6    2  0.8544106E+000  0.8453882E+02  0.7546771E-02  0.1316643E+00
         21   -1    0    0  501  502  0.00000000000E+00  0.00000000000E+00  0.82080080622E+03  0.82080080622E+03  0.00000000000E+00 0.  1.
         -3   -1    0    0    0  501 -0.00000000000E+00 -0.00000000000E+00 -0.20821910780E+02  0.20821910780E+02  0.00000000000E+00 0.  1.
         24    2    1    2    0    0  0.23230463921E+02 -0.51084411516E+01  0.65980846449E+02  0.10723937940E+03  0.81123743569E+02 0.  0.
        -11    1    3    3    0    0  0.20322592908E+02 -0.41158155306E+02  0.23897685243E+02  0.51750370923E+02  0.00000000000E+00 0.  1.
         12    1    3    3    0    0  0.29078710128E+01  0.36049714155E+02  0.42083161206E+02  0.55489008475E+02  0.00000000000E+00 0. -1.
         -4    1    1    2    0  502 -0.23230463921E+02  0.51084411516E+01  0.73399804900E+03  0.73438333761E+03  0.00000000000E+00 0.  1.
<mgrwt>
<rscale>  1 0.84538822E+02</rscale>
<asrwt>0</asrwt>
<pdfrwt beam="1">  1       21 0.12627702E+00 0.84538822E+02</pdfrwt>
<pdfrwt beam="2">  1       -3 0.32033715E-02 0.84538822E+02</pdfrwt>
<totfact> 0.10248328E+04</totfact>
</mgrwt>
</event>
<event>
 6    2  0.8544106E+000  0.8137966E+02  0.7546771E-02  0.1325181E+00
         -3   -1    0    0    0  501 -0.00000000000E+00  0.00000000000E+00  0.96797811760E+02  0.96797811760E+02  0.00000000000E+00 0.  1.
         21   -1    0    0  501  502  0.00000000000E+00 -0.00000000000E+00 -0.64245615599E+02  0.64245615599E+02  0.00000000000E+00 0.  1.
         24    2    1    2    0    0  0.20326183370E+02 -0.97755758196E+00  0.77078002045E+02  0.11208776641E+03  0.78794286788E+02 0.  0.
        -11    1    3    3    0    0  0.36329902097E+02 -0.83899201225E+01  0.84950884737E+02  0.92773408709E+02  0.00000000000E+00 0.  1.
         12    1    3    3    0    0 -0.16003718727E+02  0.74123625405E+01 -0.78728826916E+01  0.19314357701E+02  0.00000000000E+00 0. -1.
         -4    1    1    2    0  502 -0.20326183370E+02  0.97755758196E+00 -0.44525805884E+02  0.48955660948E+02  0.00000000000E+00 0.  1.
<mgrwt>
<rscale>  1 0.81379659E+02</rscale>
<asrwt>0</asrwt>
<pdfrwt beam="1">  1       21 0.98839408E-02 0.81379659E+02</pdfrwt>
<pdfrwt beam="2">  1       -3 0.14891971E-01 0.81379659E+02</pdfrwt>
<totfact> 0.13785872E+05</totfact>
</mgrwt>
</event>
<event>
 6    2  0.8544106E+000  0.9345550E+02  0.7546771E-02  0.1294693E+00
         21   -1    0    0  501  502  0.00000000000E+00  0.00000000000E+00  0.16627557891E+02  0.16627557891E+02  0.00000000000E+00 0. -1.
         -3   -1    0    0    0  501 -0.00000000000E+00 -0.00000000000E+00 -0.26309303693E+03  0.26309303693E+03  0.00000000000E+00 0.  1.
         24    2    1    2    0    0  0.23086737132E+02 -0.11204165830E+02 -0.23233257897E+03  0.25042435568E+03  0.89863228873E+02 0.  0.
        -13    1    3    3    0    0  0.25301948090E+02 -0.47394235848E+02 -0.17029055141E+03  0.17856448154E+03  0.00000000000E+00 0.  1.
         14    1    3    3    0    0 -0.22152109579E+01  0.36190070018E+02 -0.62042027568E+02  0.71859874145E+02  0.00000000000E+00 0. -1.
         -4    1    1    2    0  502 -0.23086737132E+02  0.11204165830E+02 -0.14132900066E+02  0.29296239138E+02  0.00000000000E+00 0.  1.
<mgrwt>
<rscale>  1 0.93455501E+02</rscale>
<asrwt>0</asrwt>
<pdfrwt beam="1">  1       21 0.25580860E-02 0.93455501E+02</pdfrwt>
<pdfrwt beam="2">  1       -3 0.40475849E-01 0.93455501E+02</pdfrwt>
<totfact> 0.22358023E+05</totfact>
</mgrwt>
</event>
<event>
 6    2  0.8544106E+000  0.1093146E+03  0.7546771E-02  0.1261845E+00
         -3   -1    0    0    0  501 -0.00000000000E+00  0.00000000000E+00  0.15229344209E+03  0.15229344209E+03  0.00000000000E+00 0.  1.
         21   -1    0    0  501  502  0.00000000000E+00 -0.00000000000E+00 -0.69493673779E+02  0.69493673779E+02  0.00000000000E+00 0. -1.
         24    2    1    2    0    0  0.14254118655E+02  0.73876080398E+02 -0.79788552934E+00  0.10931746271E+03  0.79302054694E+02 0.  0.
        -11    1    3    3    0    0  0.94996538547E+01 -0.83872195745E+01  0.20598345573E+02  0.24184307224E+02  0.00000000000E+00 0.  1.
         12    1    3    3    0    0  0.47544648006E+01  0.82263299972E+02 -0.21396231102E+02  0.85133155487E+02  0.00000000000E+00 0. -1.
         -4    1    1    2    0  502 -0.14254118655E+02 -0.73876080398E+02  0.83597653840E+02  0.11246965316E+03  0.00000000000E+00 0.  1.
<mgrwt>
<rscale>  1 0.10931455E+03</rscale>
<asrwt>0</asrwt>
<pdfrwt beam="1">  1       21 0.10691334E-01 0.10931455E+03</pdfrwt>
<pdfrwt beam="2">  1       -3 0.23429760E-01 0.10931455E+03</pdfrwt>
<totfact> 0.56942144E+04</totfact>
</mgrwt>
</event>
<event>
 6    2  0.8544106E+000  0.8658085E+02  0.7546771E-02  0.1311349E+00
         21   -1    0    0  501  502  0.00000000000E+00  0.00000000000E+00  0.15940454837E+02  0.15940454837E+02  0.00000000000E+00 0. -1.
          2   -1    0    0  502    0 -0.00000000000E+00 -0.00000000000E+00 -0.24190525001E+03  0.24190525001E+03  0.00000000000E+00 0. -1.
         24    2    1    2    0    0 -0.32410583378E+02 -0.15729463562E+02 -0.17715613007E+03  0.19718148369E+03  0.78729798369E+02 0.  0.
        -11    1    3    3    0    0 -0.34687053917E+01  0.27134174950E+02 -0.27281256047E+02  0.38633693828E+02  0.00000000000E+00 0.  1.
         12    1    3    3    0    0 -0.28941877987E+02 -0.42863638512E+02 -0.14987487402E+03  0.15854778986E+03  0.00000000000E+00 0. -1.
          1    1    1    2  501    0  0.32410583378E+02  0.15729463562E+02 -0.48808665104E+02  0.60664221153E+02  0.00000000000E+00 0. -1.
<mgrwt>
<rscale>  1 0.86580847E+02</rscale>
<asrwt>0</asrwt>
<pdfrwt beam="1">  1       21 0.24523778E-02 0.86580847E+02</pdfrwt>
<pdfrwt beam="2">  1        2 0.37216190E-01 0.86580847E+02</pdfrwt>
<totfact> 0.13936349E+06</totfact>
</mgrwt>
</event>
<event>
 6    2  0.8544106E+000  0.1012565E+03  0.7546771E-02  0.1277676E+00
          2   -1    0    0  502    0 -0.00000000000E+00  0.00000000000E+00  0.64839899947E+03  0.64839899947E+03  0.00000000000E+00 0. -1.
         21   -1    0    0  501  502  0.00000000000E+00 -0.00000000000E+00 -0.11773110540E+02  0.11773110540E+02  0.00000000000E+00 0. -1.
         24    2    1    2    0    0 -0.58488014382E+02 -0.46016108217E+01  0.26030639634E+03  0.27930680160E+03  0.82527854661E+02 0.  0.
        -13    1    3    3    0    0 -0.49208487014E+02 -0.23574904162E+02  0.74718021010E+02  0.92520451599E+02  0.00000000000E+00 0.  1.
         14    1    3    3    0    0 -0.92795273684E+01  0.18973293340E+02  0.18558837533E+03  0.18678635000E+03  0.00000000000E+00 0. -1.
          1    1    1    2  501    0  0.58488014382E+02  0.46016108217E+01  0.37631949259E+03  0.38086530841E+03  0.00000000000E+00 0. -1.
<mgrwt>
<rscale>  1 0.10125645E+03</rscale>
<asrwt>0</asrwt>
<pdfrwt beam="1">  1       21 0.18112483E-02 0.10125645E+03</pdfrwt>
<pdfrwt beam="2">  1        2 0.99753664E-01 0.10125645E+03</pdfrwt>
<totfact> 0.80235584E+05</totfact>
</mgrwt>
</event>
<event>
 6    2  0.8544106E+000  0.1092092E+03  0.7546771E-02  0.1262041E+00
         21   -1    0    0  501  502  0.00000000000E+00  0.00000000000E+00  0.67938210044E+01  0.67938210044E+01  0.00000000000E+00 0. -1.
          2   -1    0    0  502    0 -0.00000000000E+00 -0.00000000000E+00 -0.13329104867E+04  0.13329104867E+04  0.00000000000E+00 0. -1.
         24    2    1    2    0    0  0.80205066015E+02 -0.11845126292E+02 -0.77414252610E+03  0.78180771298E+03  0.73167545500E+02 0.  0.
        -13    1    3    3    0    0 -0.13562251104E+02 -0.62659247412E+01 -0.86789991470E+02  0.88066447000E+02  0.00000000000E+00 0.  1.
         14    1    3    3    0    0  0.93767317119E+02 -0.55792015504E+01 -0.68735253464E+03  0.69374126598E+03  0.00000000000E+00 0. -1.
          1    1    1    2  501    0 -0.80205066015E+02  0.11845126292E+02 -0.55197413954E+03  0.55789659468E+03  0.00000000000E+00 0. -1.
<mgrwt>
<rscale>  1 0.10920920E+03</rscale>
<asrwt>0</asrwt>
<pdfrwt beam="1">  1       21 0.10452033E-02 0.10920920E+03</pdfrwt>
<pdfrwt beam="2">  1        2 0.20506314E+00 0.10920920E+03</pdfrwt>
<totfact> 0.73621260E+05</totfact>
</mgrwt>
</event>
<event>
 6    2  0.8544106E+000  0.8381398E+02  0.7546771E-02  0.1318564E+00
         21   -1    0    0  501  502  0.00000000000E+00  0.00000000000E+00  0.91842676806E+00  0.91842676806E+00  0.00000000000E+00 0.  1.
          2   -1    0    0  502    0 -0.00000000000E+00 -0.00000000000E+00 -0.36754615545E+04  0.36754615545E+04  0.00000000000E+00 0. -1.
         24    2    1    2    0    0  0.24419640040E+02  0.87056166401E+01 -0.32257552871E+04  0.32268439622E+04  0.79703684126E+02 0.  0.
        -13    1    3    3    0    0  0.22345022324E+01  0.20976053426E+02 -0.22618819705E+03  0.22716973457E+03  0.00000000000E+00 0.  1.
         14    1    3    3    0    0  0.22185137807E+02 -0.12270436786E+02 -0.29995670901E+04  0.29996742276E+04  0.00000000000E+00 0. -1.
          1    1    1    2  501    0 -0.24419640040E+02 -0.87056166401E+01 -0.44878784065E+03  0.44953601913E+03  0.00000000000E+00 0. -1.
<mgrwt>
<rscale>  1 0.83813984E+02</rscale>
<asrwt>0</asrwt>
<pdfrwt beam="1">  1       21 0.14129489E-03 0.83813984E+02</pdfrwt>
<pdfrwt beam="2">  1        2 0.56546179E+00 0.83813984E+02</pdfrwt>
<totfact> 0.80247046E+05</totfact>
</mgrwt>
</event>
<event>
 6    2  0.8544106E+000  0.9431331E+02  0.7546771E-02  0.1292730E+00
          4   -1    0    0  502    0 -0.00000000000E+00  0.00000000000E+00  0.53920156217E+03  0.53920156217E+03  0.00000000000E+00 0. -1.
         21   -1    0    0  501  502  0.00000000000E+00 -0.00000000000E+00 -0.92340856454E+01  0.92340856454E+01  0.00000000000E+00 0.  1.
         24    2    1    2    0    0  0.27443510115E+02 -0.35217231481E+02  0.40158347005E+03  0.41250973874E+03  0.83075877928E+02 0.  0.
        -13    1    3    3    0    0  0.56866946647E+02 -0.22749954961E+02  0.23244870895E+03  0.24038263740E+03  0.00000000000E+00 0.  1.
         14    1    3    3    0    0 -0.29423436531E+02 -0.12467276520E+02  0.16913476111E+03  0.17212710134E+03  0.00000000000E+00 0. -1.
          3    1    1    2  501    0 -0.27443510115E+02  0.35217231481E+02  0.12838400647E+03  0.13592590908E+03  0.00000000000E+00 0. -1.
<mgrwt>
<rscale>  1 0.94313314E+02</rscale>
<asrwt>0</asrwt>
<pdfrwt beam="1">  1       21 0.14206290E-02 0.94313314E+02</pdfrwt>
<pdfrwt beam="2">  1        4 0.82954062E-01 0.94313314E+02</pdfrwt>
<totfact> 0.10618766E+05</totfact>
</mgrwt>
</event>
<event>
 6    2  0.8544106E+000  0.9485228E+02  0.7546771E-02  0.1291509E+00
          2   -1    0    0  502    0 -0.00000000000E+00  0.00000000000E+00  0.64393459930E+03  0.64393459930E+03  0.00000000000E+00 0. -1.
         21   -1    0    0  501  502  0.00000000000E+00 -0.00000000000E+00 -0.10924850500E+02  0.10924850500E+02  0.00000000000E+00 0.  1.
         24    2    1    2    0    0 -0.34536754997E+02  0.38277981165E+02  0.54220968357E+03  0.55044372716E+03  0.79617614444E+02 0.  0.
        -13    1    3    3    0    0 -0.12236965498E+02 -0.12277986720E+02  0.25777971681E+02  0.31064386466E+02  0.00000000000E+00 0.  1.
         14    1    3    3    0    0 -0.22299789500E+02  0.50555967885E+02  0.51643171189E+03  0.51937934070E+03  0.00000000000E+00 0. -1.
          1    1    1    2  501    0  0.34536754997E+02 -0.38277981165E+02  0.90800065229E+02  0.10441572263E+03  0.00000000000E+00 0. -1.
<mgrwt>
<rscale>  1 0.94852284E+02</rscale>
<asrwt>0</asrwt>
<pdfrwt beam="1">  1       21 0.16807467E-02 0.94852284E+02</pdfrwt>
<pdfrwt beam="2">  1        2 0.99066832E-01 0.94852284E+02</pdfrwt>
<totfact> 0.90628138E+05</totfact>
</mgrwt>
</event>
<event>
 6    2  0.8544106E+000  0.8486480E+02  0.7546771E-02  0.1315786E+00
         21   -1    0    0  501  502  0.00000000000E+00  0.00000000000E+00  0.51179190102E+02  0.51179190102E+02  0.00000000000E+00 0. -1.
          4   -1    0    0  502    0 -0.00000000000E+00 -0.00000000000E+00 -0.65339251866E+02  0.65339251866E+02  0.00000000000E+00 0. -1.
         24    2    1    2    0    0  0.50332071647E+01 -0.28907683527E+02 -0.18496671961E+02  0.86857128287E+02  0.79630688302E+02 0.  0.
        -11    1    3    3    0    0 -0.27942842605E+02  0.53587594641E+01  0.11436562711E+02  0.30664535256E+02  0.00000000000E+00 0.  1.
         12    1    3    3    0    0  0.32976049770E+02 -0.34266442991E+02 -0.29933234671E+02  0.56192593031E+02  0.00000000000E+00 0. -1.
          3    1    1    2  501    0 -0.50332071647E+01  0.28907683527E+02  0.43366101964E+01  0.29661313680E+02  0.00000000000E+00 0. -1.
<mgrwt>
<rscale>  1 0.84864798E+02</rscale>
<asrwt>0</asrwt>
<pdfrwt beam="1">  1       21 0.78737216E-02 0.84864798E+02</pdfrwt>
<pdfrwt beam="2">  1        4 0.10052193E-01 0.84864798E+02</pdfrwt>
<totfact> 0.33968391E+05</totfact>
</mgrwt>
</event>
<event>
 6    2  0.8544106E+000  0.8532392E+02  0.7546771E-02  0.1314588E+00
          2   -1    0    0  502    0 -0.00000000000E+00  0.00000000000E+00  0.29977572811E+04  0.29977572811E+04  0.00000000000E+00 0. -1.
         21   -1    0    0  501  502  0.00000000000E+00 -0.00000000000E+00 -0.12069941804E+01  0.12069941804E+01  0.00000000000E+00 0.  1.
         24    2    1    2    0    0 -0.17096128064E+02  0.29985323760E+02  0.22478111248E+04  0.22494299331E+04  0.78030595651E+02 0.  0.
        -13    1    3    3    0    0  0.23200823419E+02  0.37696818624E+02  0.11970240355E+04  0.11978421724E+04  0.00000000000E+00 0.  1.
         14    1    3    3    0    0 -0.40296951483E+02 -0.77114948643E+01  0.10507870893E+04  0.10515877607E+04  0.00000000000E+00 0. -1.
          1    1    1    2  501    0  0.17096128064E+02 -0.29985323760E+02  0.74873916216E+03  0.74953434223E+03  0.00000000000E+00 0. -1.
<mgrwt>
<rscale>  1 0.85323919E+02</rscale>
<asrwt>0</asrwt>
<pdfrwt beam="1">  1       21 0.18569381E-03 0.85323919E+02</pdfrwt>
<pdfrwt beam="2">  1        2 0.46118747E+00 0.85323919E+02</pdfrwt>
<totfact> 0.13906142E+06</totfact>
</mgrwt>
</event>
