<event>
 4    1  0.1896644E-005  0.4703616E+03  0.7818608E-02  0.1021818E+00
         -2   -1    0    0    0  501 -0.00000000000E+00  0.00000000000E+00  0.26665479958E+03  0.26665479959E+03  0.25500000000E-02 0. -1.
          2   -1    0    0  501    0  0.00000000000E+00 -0.00000000000E+00 -0.20742172394E+03  0.20742172396E+03  0.25500000000E-02 0.  1.
    5000001    1    1    2    0    0 -0.18398960396E+02  0.13354713617E+03  0.12974344967E+02  0.23495891758E+03  0.19200000000E+03 0.  0.
   -5000001    1    1    2    0    0  0.18398960396E+02 -0.13354713617E+03  0.46258730675E+02  0.23911760597E+03  0.19200000000E+03 0.  0.
<mgrwt>
<rscale>  0 0.47036156E+03</rscale>
<asrwt>0</asrwt>
<pdfrwt beam="1">  1        2 0.29631675E-01 0.47036156E+03</pdfrwt>
<pdfrwt beam="2">  1       -2 0.38093543E-01 0.47036156E+03</pdfrwt>
<totfact> 0.11729783E+03</totfact>
</mgrwt>
</event>
<event>
 4    1  0.1896644E-005  0.5154812E+03  0.7818608E-02  0.1009815E+00
         -2   -1    0    0    0  501 -0.00000000000E+00  0.00000000000E+00  0.32322663765E+03  0.32322663766E+03  0.25500000000E-02 0. -1.
          2   -1    0    0  501    0  0.00000000000E+00 -0.00000000000E+00 -0.20552211699E+03  0.20552211700E+03  0.25500000000E-02 0.  1.
    5000001    1    1    2    0    0 -0.15091858194E+03 -0.78363189569E+02  0.84983732106E+02  0.27019149242E+03  0.19200000000E+03 0.  0.
   -5000001    1    1    2    0    0  0.15091858194E+03  0.78363189569E+02  0.32720788553E+02  0.25855726224E+03  0.19200000000E+03 0.  0.
<mgrwt>
<rscale>  0 0.51548122E+03</rscale>
<asrwt>0</asrwt>
<pdfrwt beam="1">  1        2 0.29360303E-01 0.51548122E+03</pdfrwt>
<pdfrwt beam="2">  1       -2 0.46175234E-01 0.51548122E+03</pdfrwt>
<totfact> 0.81429566E+02</totfact>
</mgrwt>
</event>
<event>
 4    1  0.1896644E-005  0.6603677E+03  0.7818608E-02  0.9787517E-01
          2   -1    0    0  501    0  0.00000000000E+00  0.00000000000E+00  0.15286809364E+04  0.15286809364E+04  0.25500000000E-02 0.  1.
         -2   -1    0    0    0  501 -0.00000000000E+00 -0.00000000000E+00 -0.71317278625E+02  0.71317278670E+02  0.25500000000E-02 0. -1.
    5000001    1    1    2    0    0  0.26745817545E+03  0.17926710475E+02  0.77079565405E+03  0.83835862426E+03  0.19200000000E+03 0.  0.
   -5000001    1    1    2    0    0 -0.26745817545E+03 -0.17926710475E+02  0.68656800374E+03  0.76163959083E+03  0.19200000000E+03 0.  0.
<mgrwt>
<rscale>  0 0.66036767E+03</rscale>
<asrwt>0</asrwt>
<pdfrwt beam="1">  1        2 0.21838297E+00 0.66036767E+03</pdfrwt>
<pdfrwt beam="2">  1       -2 0.10188184E-01 0.66036767E+03</pdfrwt>
<totfact> 0.95261710E+02</totfact>
</mgrwt>
</event>
<event>
 4    1  0.1896644E-005  0.5725141E+03  0.7818608E-02  0.9964131E-01
         -2   -1    0    0    0  501 -0.00000000000E+00  0.00000000000E+00  0.77858993830E+02  0.77858993872E+02  0.25500000000E-02 0. -1.
          2   -1    0    0  501    0  0.00000000000E+00 -0.00000000000E+00 -0.10524549767E+04  0.10524549767E+04  0.25500000000E-02 0.  1.
    5000001    1    1    2    0    0 -0.13859057573E+03 -0.13234677603E+03 -0.30682428169E+03  0.40954628144E+03  0.19200000000E+03 0.  0.
   -5000001    1    1    2    0    0  0.13859057573E+03  0.13234677603E+03 -0.66777170117E+03  0.72076768913E+03  0.19200000000E+03 0.  0.
<mgrwt>
<rscale>  0 0.57251405E+03</rscale>
<asrwt>0</asrwt>
<pdfrwt beam="1">  1        2 0.15035070E+00 0.57251405E+03</pdfrwt>
<pdfrwt beam="2">  1       -2 0.11122714E-01 0.57251405E+03</pdfrwt>
<totfact> 0.15123054E+03</totfact>
</mgrwt>
</event>
<event>
 4    1  0.1896644E-005  0.4980699E+03  0.7818608E-02  0.1014284E+00
         -2   -1    0    0    0  501 -0.00000000000E+00  0.00000000000E+00  0.19088010849E+03  0.19088010851E+03  0.25500000000E-02 0. -1.
          2   -1    0    0  501    0  0.00000000000E+00 -0.00000000000E+00 -0.32490770690E+03  0.32490770691E+03  0.25500000000E-02 0.  1.
    5000001    1    1    2    0    0 -0.97767519439E+02 -0.82658412388E+02 -0.16395758269E+03  0.28308477514E+03  0.19200000000E+03 0.  0.
   -5000001    1    1    2    0    0  0.97767519439E+02  0.82658412388E+02  0.29929984283E+02  0.23270304028E+03  0.19200000000E+03 0.  0.
<mgrwt>
<rscale>  0 0.49806995E+03</rscale>
<asrwt>0</asrwt>
<pdfrwt beam="1">  1        2 0.46415386E-01 0.49806995E+03</pdfrwt>
<pdfrwt beam="2">  1       -2 0.27268587E-01 0.49806995E+03</pdfrwt>
<totfact> 0.13320968E+03</totfact>
</mgrwt>
</event>
<event>
 4    1  0.1896644E-005  0.7472984E+03  0.7818608E-02  0.9639598E-01
         -2   -1    0    0    0  501 -0.00000000000E+00  0.00000000000E+00  0.63641181201E+02  0.63641181252E+02  0.25500000000E-02 0.  1.
          2   -1    0    0  501    0  0.00000000000E+00 -0.00000000000E+00 -0.21937639136E+04  0.21937639136E+04  0.25500000000E-02 0. -1.
    5000001    1    1    2    0    0  0.29866975715E+03  0.11638302454E+03 -0.10682217143E+04  0.11316847013E+04  0.19200000000E+03 0.  0.
   -5000001    1    1    2    0    0 -0.29866975715E+03 -0.11638302454E+03 -0.10619010181E+04  0.11257203936E+04  0.19200000000E+03 0.  0.
<mgrwt>
<rscale>  0 0.74729841E+03</rscale>
<asrwt>0</asrwt>
<pdfrwt beam="1">  1        2 0.31339480E+00 0.74729841E+03</pdfrwt>
<pdfrwt beam="2">  1       -2 0.90915987E-02 0.74729841E+03</pdfrwt>
<totfact> 0.52301165E+02</totfact>
</mgrwt>
</event>
<event>
 4    1  0.1896644E-005  0.4352296E+03  0.7818608E-02  0.1032221E+00
         -2   -1    0    0    0  501 -0.00000000000E+00  0.00000000000E+00  0.54941776988E+02  0.54941777047E+02  0.25500000000E-02 0. -1.
          2   -1    0    0  501    0  0.00000000000E+00 -0.00000000000E+00 -0.86193422438E+03  0.86193422438E+03  0.25500000000E-02 0.  1.
    5000001    1    1    2    0    0  0.78565905736E+02 -0.53481184427E+02 -0.32301893883E+03  0.38760556430E+03  0.19200000000E+03 0.  0.
   -5000001    1    1    2    0    0 -0.78565905736E+02  0.53481184427E+02 -0.48397350856E+03  0.52927043713E+03  0.19200000000E+03 0.  0.
<mgrwt>
<rscale>  0 0.43522959E+03</rscale>
<asrwt>0</asrwt>
<pdfrwt beam="1">  1        2 0.12313345E+00 0.43522959E+03</pdfrwt>
<pdfrwt beam="2">  1       -2 0.78488258E-02 0.43522959E+03</pdfrwt>
<totfact> 0.34760035E+03</totfact>
</mgrwt>
</event>
<event>
 4    1  0.1896644E-005  0.6923802E+03  0.7818608E-02  0.9730352E-01
         -2   -1    0    0    0  501 -0.00000000000E+00  0.00000000000E+00  0.66085336894E+02  0.66085336943E+02  0.25500000000E-02 0. -1.
          2   -1    0    0  501    0  0.00000000000E+00 -0.00000000000E+00 -0.18135277651E+04  0.18135277651E+04  0.25500000000E-02 0.  1.
    5000001    1    1    2    0    0  0.27770633056E+03  0.34673768871E+01 -0.10813703475E+04  0.11328542082E+04  0.19200000000E+03 0.  0.
   -5000001    1    1    2    0    0 -0.27770633056E+03 -0.34673768871E+01 -0.66607208070E+03  0.74675889377E+03  0.19200000000E+03 0.  0.
<mgrwt>
<rscale>  0 0.69238022E+03</rscale>
<asrwt>0</asrwt>
<pdfrwt beam="1">  1        2 0.25907536E+00 0.69238022E+03</pdfrwt>
<pdfrwt beam="2">  1       -2 0.94407636E-02 0.69238022E+03</pdfrwt>
<totfact> 0.76890792E+02</totfact>
</mgrwt>
</event>
<event>
 4    1  0.1896644E-005  0.1249586E+04  0.7818608E-02  0.9070528E-01
          2   -1    0    0  501    0  0.00000000000E+00  0.00000000000E+00  0.10843335495E+04  0.10843335495E+04  0.25500000000E-02 0.  1.
         -2   -1    0    0    0  501 -0.00000000000E+00 -0.00000000000E+00 -0.36000559099E+03  0.36000559100E+03  0.25500000000E-02 0. -1.
    5000001    1    1    2    0    0 -0.19656622404E+03 -0.54307839845E+03  0.52533898525E+03  0.80400091835E+03  0.19200000000E+03 0.  0.
   -5000001    1    1    2    0    0  0.19656622404E+03  0.54307839845E+03  0.19898897330E+03  0.64033822218E+03  0.19200000000E+03 0.  0.
<mgrwt>
<rscale>  0 0.12495858E+04</rscale>
<asrwt>0</asrwt>
<pdfrwt beam="1">  1        2 0.15490479E+00 0.12495858E+04</pdfrwt>
<pdfrwt beam="2">  1       -2 0.51429370E-01 0.12495858E+04</pdfrwt>
<totfact> 0.87716452E+01</totfact>
</mgrwt>
</event>
<event>
 4    1  0.1896644E-005  0.4662951E+03  0.7818608E-02  0.1022971E+00
         -2   -1    0    0    0  501 -0.00000000000E+00  0.00000000000E+00  0.21415792527E+03  0.21415792529E+03  0.25500000000E-02 0. -1.
          2   -1    0    0  501    0  0.00000000000E+00 -0.00000000000E+00 -0.25382095588E+03  0.25382095590E+03  0.25500000000E-02 0.  1.
    5000001    1    1    2    0    0  0.73108591657E+02 -0.39021674694E+02  0.83624246949E+02  0.22522116230E+03  0.19200000000E+03 0.  0.
   -5000001    1    1    2    0    0 -0.73108591657E+02  0.39021674694E+02 -0.12328727756E+03  0.24275771888E+03  0.19200000000E+03 0.  0.
<mgrwt>
<rscale>  0 0.46629505E+03</rscale>
<asrwt>0</asrwt>
<pdfrwt beam="1">  1        2 0.36260136E-01 0.46629505E+03</pdfrwt>
<pdfrwt beam="2">  1       -2 0.30593989E-01 0.46629505E+03</pdfrwt>
<totfact> 0.14152707E+03</totfact>
</mgrwt>
</event>
<event>
 4    1  0.1896644E-005  0.6369805E+03  0.7818608E-02  0.9831521E-01
          2   -1    0    0  501    0  0.00000000000E+00  0.00000000000E+00  0.32299076418E+03  0.32299076419E+03  0.25500000000E-02 0.  1.
         -2   -1    0    0    0  501 -0.00000000000E+00 -0.00000000000E+00 -0.31405240722E+03  0.31405240723E+03  0.25500000000E-02 0. -1.
    5000001    1    1    2    0    0 -0.95473927740E+02  0.14832326306E+03  0.18739963987E+03  0.32108828422E+03  0.19200000000E+03 0.  0.
   -5000001    1    1    2    0    0  0.95473927740E+02 -0.14832326306E+03 -0.17846128291E+03  0.31595488719E+03  0.19200000000E+03 0.  0.
<mgrwt>
<rscale>  0 0.63698046E+03</rscale>
<asrwt>0</asrwt>
<pdfrwt beam="1">  1        2 0.46141538E-01 0.63698046E+03</pdfrwt>
<pdfrwt beam="2">  1       -2 0.44864629E-01 0.63698046E+03</pdfrwt>
<totfact> 0.52131730E+02</totfact>
</mgrwt>
</event>
<event>
 4    1  0.1896644E-005  0.6349803E+03  0.7818608E-02  0.9835378E-01
          2   -1    0    0  501    0  0.00000000000E+00  0.00000000000E+00  0.41692282930E+04  0.41692282930E+04  0.25500000000E-02 0.  1.
         -2   -1    0    0    0  501 -0.00000000000E+00 -0.00000000000E+00 -0.24177137886E+02  0.24177138020E+02  0.25500000000E-02 0. -1.
    5000001    1    1    2    0    0  0.47813628015E+01  0.25249358246E+03  0.19889551934E+04  0.20140959838E+04  0.19200000000E+03 0.  0.
   -5000001    1    1    2    0    0 -0.47813628015E+01 -0.25249358246E+03  0.21560959617E+04  0.21793094472E+04  0.19200000000E+03 0.  0.
<mgrwt>
<rscale>  0 0.63498034E+03</rscale>
<asrwt>0</asrwt>
<pdfrwt beam="1">  1        2 0.59560421E+00 0.63498034E+03</pdfrwt>
<pdfrwt beam="2">  1       -2 0.34538759E-02 0.63498034E+03</pdfrwt>
<totfact> 0.17611467E+02</totfact>
</mgrwt>
</event>
<event>
 4    1  0.1896644E-005  0.6656371E+03  0.7818608E-02  0.9777872E-01
          2   -1    0    0  501    0  0.00000000000E+00  0.00000000000E+00  0.15061990151E+04  0.15061990151E+04  0.25500000000E-02 0. -1.
         -2   -1    0    0    0  501 -0.00000000000E+00 -0.00000000000E+00 -0.73541535514E+02  0.73541535558E+02  0.25500000000E-02 0.  1.
    5000001    1    1    2    0    0  0.18240565205E+03  0.14214355553E+03  0.10555293797E+04  0.10974893547E+04  0.19200000000E+03 0.  0.
   -5000001    1    1    2    0    0 -0.18240565205E+03 -0.14214355553E+03  0.37712809990E+03  0.48225119597E+03  0.19200000000E+03 0.  0.
<mgrwt>
<rscale>  0 0.66563710E+03</rscale>
<asrwt>0</asrwt>
<pdfrwt beam="1">  1        2 0.21517129E+00 0.66563710E+03</pdfrwt>
<pdfrwt beam="2">  1       -2 0.10505934E-01 0.66563710E+03</pdfrwt>
<totfact> 0.93073218E+02</totfact>
</mgrwt>
</event>
<event>
 4    1  0.1896644E-005  0.7833508E+03  0.7818608E-02  0.9584434E-01
         -2   -1    0    0    0  501 -0.00000000000E+00  0.00000000000E+00  0.59057725841E+03  0.59057725842E+03  0.25500000000E-02 0. -1.
          2   -1    0    0  501    0  0.00000000000E+00 -0.00000000000E+00 -0.25976216790E+03  0.25976216792E+03  0.25500000000E-02 0.  1.
    5000001    1    1    2    0    0 -0.23738092077E+03 -0.17547529010E+03 -0.20733351567E+02  0.35275366879E+03  0.19200000000E+03 0.  0.
   -5000001    1    1    2    0    0  0.23738092077E+03  0.17547529010E+03  0.35154844207E+03  0.49758575754E+03  0.19200000000E+03 0.  0.
<mgrwt>
<rscale>  0 0.78335083E+03</rscale>
<asrwt>0</asrwt>
<pdfrwt beam="1">  1        2 0.37108881E-01 0.78335083E+03</pdfrwt>
<pdfrwt beam="2">  1       -2 0.84368181E-01 0.78335083E+03</pdfrwt>
<totfact> 0.17299875E+02</totfact>
</mgrwt>
</event>
<event>
 4    1  0.1896644E-005  0.7755325E+03  0.7818608E-02  0.9596124E-01
         -2   -1    0    0    0  501 -0.00000000000E+00  0.00000000000E+00  0.44682150215E+02  0.44682150288E+02  0.25500000000E-02 0. -1.
          2   -1    0    0  501    0  0.00000000000E+00 -0.00000000000E+00 -0.33651615520E+04  0.33651615520E+04  0.25500000000E-02 0.  1.
    5000001    1    1    2    0    0  0.14735255874E+03 -0.29933268683E+03 -0.18658011617E+04  0.19050960104E+04  0.19200000000E+03 0.  0.
   -5000001    1    1    2    0    0 -0.14735255874E+03  0.29933268683E+03 -0.14546782401E+04  0.15047476919E+04  0.19200000000E+03 0.  0.
<mgrwt>
<rscale>  0 0.77553247E+03</rscale>
<asrwt>0</asrwt>
<pdfrwt beam="1">  1        2 0.48073720E+00 0.77553247E+03</pdfrwt>
<pdfrwt beam="2">  1       -2 0.63831665E-02 0.77553247E+03</pdfrwt>
<totfact> 0.21605080E+02</totfact>
</mgrwt>
</event>
<event>
 4    1  0.1896644E-005  0.4490674E+03  0.7818608E-02  0.1028001E+00
         -2   -1    0    0    0  501 -0.00000000000E+00  0.00000000000E+00  0.13963595025E+03  0.13963595028E+03  0.25500000000E-02 0. -1.
          2   -1    0    0  501    0  0.00000000000E+00 -0.00000000000E+00 -0.36104873803E+03  0.36104873804E+03  0.25500000000E-02 0.  1.
    5000001    1    1    2    0    0  0.99645151457E+02  0.59228055193E+02 -0.98788234244E+02  0.24507189548E+03  0.19200000000E+03 0.  0.
   -5000001    1    1    2    0    0 -0.99645151457E+02 -0.59228055193E+02 -0.12262455353E+03  0.25561279283E+03  0.19200000000E+03 0.  0.
<mgrwt>
<rscale>  0 0.44906741E+03</rscale>
<asrwt>0</asrwt>
<pdfrwt beam="1">  1        2 0.51578391E-01 0.44906741E+03</pdfrwt>
<pdfrwt beam="2">  1       -2 0.19947993E-01 0.44906741E+03</pdfrwt>
<totfact> 0.20616871E+03</totfact>
</mgrwt>
</event>
<event>
 4    1  0.1896644E-005  0.5380481E+03  0.7818608E-02  0.1004299E+00
          2   -1    0    0  501    0  0.00000000000E+00  0.00000000000E+00  0.33684661800E+04  0.33684661800E+04  0.25500000000E-02 0.  1.
         -2   -1    0    0    0  501 -0.00000000000E+00 -0.00000000000E+00 -0.21485722594E+02  0.21485722745E+02  0.25500000000E-02 0. -1.
    5000001    1    1    2    0    0  0.98249656207E+02 -0.19148923512E+02  0.66757926114E+03  0.70181603438E+03  0.19200000000E+03 0.  0.
   -5000001    1    1    2    0    0 -0.98249656207E+02  0.19148923512E+02  0.26794011963E+04  0.26881358684E+04  0.19200000000E+03 0.  0.
<mgrwt>
<rscale>  0 0.53804807E+03</rscale>
<asrwt>0</asrwt>
<pdfrwt beam="1">  1        2 0.48120932E+00 0.53804807E+03</pdfrwt>
<pdfrwt beam="2">  1       -2 0.30693898E-02 0.53804807E+03</pdfrwt>
<totfact> 0.68516682E+02</totfact>
</mgrwt>
</event>
<event>
 4    1  0.1896644E-005  0.9861068E+03  0.7818608E-02  0.9323915E-01
         -2   -1    0    0    0  501 -0.00000000000E+00  0.00000000000E+00  0.20423226662E+03  0.20423226664E+03  0.25500000000E-02 0. -1.
          2   -1    0    0  501    0  0.00000000000E+00 -0.00000000000E+00 -0.11903195498E+04  0.11903195498E+04  0.25500000000E-02 0.  1.
    5000001    1    1    2    0    0 -0.41829306347E+03  0.64011154143E+02 -0.72615566134E+03  0.86210936621E+03  0.19200000000E+03 0.  0.
   -5000001    1    1    2    0    0  0.41829306347E+03 -0.64011154143E+02 -0.25993162187E+03  0.53244245027E+03  0.19200000000E+03 0.  0.
<mgrwt>
<rscale>  0 0.98610681E+03</rscale>
<asrwt>0</asrwt>
<pdfrwt beam="1">  1        2 0.17004565E+00 0.98610681E+03</pdfrwt>
<pdfrwt beam="2">  1       -2 0.29176039E-01 0.98610681E+03</pdfrwt>
<totfact> 0.23287981E+02</totfact>
</mgrwt>
</event>
<event>
 4    1  0.1896644E-005  0.7926351E+03  0.7818608E-02  0.9570739E-01
          2   -1    0    0  501    0  0.00000000000E+00  0.00000000000E+00  0.78637587538E+03  0.78637587539E+03  0.25500000000E-02 0.  1.
         -2   -1    0    0    0  501 -0.00000000000E+00 -0.00000000000E+00 -0.19973601686E+03  0.19973601688E+03  0.25500000000E-02 0. -1.
    5000001    1    1    2    0    0  0.31797162048E+03 -0.86311401570E+02  0.15905019038E+03  0.41317862061E+03  0.19200000000E+03 0.  0.
   -5000001    1    1    2    0    0 -0.31797162048E+03  0.86311401570E+02  0.42758966814E+03  0.57293327166E+03  0.19200000000E+03 0.  0.
<mgrwt>
<rscale>  0 0.79263506E+03</rscale>
<asrwt>0</asrwt>
<pdfrwt beam="1">  1        2 0.11233941E+00 0.79263506E+03</pdfrwt>
<pdfrwt beam="2">  1       -2 0.28533716E-01 0.79263506E+03</pdfrwt>
<totfact> 0.43850240E+02</totfact>
</mgrwt>
</event>
<event>
 4    1  0.1896644E-005  0.4962720E+03  0.7818608E-02  0.1014757E+00
          2   -1    0    0  501    0  0.00000000000E+00  0.00000000000E+00  0.25240198175E+04  0.25240198175E+04  0.25500000000E-02 0.  1.
         -2   -1    0    0    0  501 -0.00000000000E+00 -0.00000000000E+00 -0.24394211574E+02  0.24394211708E+02  0.25500000000E-02 0. -1.
    5000001    1    1    2    0    0  0.87109288152E+02 -0.10845707831E+03  0.87398311417E+03  0.90557244314E+03  0.19200000000E+03 0.  0.
   -5000001    1    1    2    0    0 -0.87109288152E+02  0.10845707831E+03  0.16256424918E+04  0.16428415861E+04  0.19200000000E+03 0.  0.
<mgrwt>
<rscale>  0 0.49627200E+03</rscale>
<asrwt>0</asrwt>
<pdfrwt beam="1">  1        2 0.36057417E+00 0.49627200E+03</pdfrwt>
<pdfrwt beam="2">  1       -2 0.34848883E-02 0.49627200E+03</pdfrwt>
<totfact> 0.16189324E+03</totfact>
</mgrwt>
</event>
<event>
 4    1  0.1896644E-005  0.5672393E+03  0.7818608E-02  0.9975806E-01
          2   -1    0    0  501    0  0.00000000000E+00  0.00000000000E+00  0.32834125577E+04  0.32834125577E+04  0.25500000000E-02 0.  1.
         -2   -1    0    0    0  501 -0.00000000000E+00 -0.00000000000E+00 -0.24498936018E+02  0.24498936150E+02  0.25500000000E-02 0. -1.
    5000001    1    1    2    0    0  0.14599963311E+03  0.83231784144E+02  0.23515558154E+04  0.23653587837E+04  0.19200000000E+03 0.  0.
   -5000001    1    1    2    0    0 -0.14599963311E+03 -0.83231784144E+02  0.90735780629E+03  0.94255271014E+03  0.19200000000E+03 0.  0.
<mgrwt>
<rscale>  0 0.56723933E+03</rscale>
<asrwt>0</asrwt>
<pdfrwt beam="1">  1        2 0.46905852E+00 0.56723933E+03</pdfrwt>
<pdfrwt beam="2">  1       -2 0.34998511E-02 0.56723933E+03</pdfrwt>
<totfact> 0.62568147E+02</totfact>
</mgrwt>
</event>
<event>
 4    1  0.1896644E-005  0.5013164E+03  0.7818608E-02  0.1013436E+00
         -2   -1    0    0    0  501 -0.00000000000E+00  0.00000000000E+00  0.65722007915E+03  0.65722007915E+03  0.25500000000E-02 0. -1.
          2   -1    0    0  501    0  0.00000000000E+00 -0.00000000000E+00 -0.95598936564E+02  0.95598936598E+02  0.25500000000E-02 0.  1.
    5000001    1    1    2    0    0 -0.45543385997E+02  0.14014129751E+03  0.18289249328E+03  0.30336026005E+03  0.19200000000E+03 0.  0.
   -5000001    1    1    2    0    0  0.45543385997E+02 -0.14014129751E+03  0.37872864930E+03  0.44945875570E+03  0.19200000000E+03 0.  0.
<mgrwt>
<rscale>  0 0.50131643E+03</rscale>
<asrwt>0</asrwt>
<pdfrwt beam="1">  1        2 0.13656992E-01 0.50131643E+03</pdfrwt>
<pdfrwt beam="2">  1       -2 0.93888578E-01 0.50131643E+03</pdfrwt>
<totfact> 0.43516288E+02</totfact>
</mgrwt>
</event>
<event>
 4    1  0.1896644E-005  0.5159077E+03  0.7818608E-02  0.1009708E+00
         -2   -1    0    0    0  501 -0.00000000000E+00  0.00000000000E+00  0.59001594090E+02  0.59001594145E+02  0.25500000000E-02 0. -1.
          2   -1    0    0  501    0  0.00000000000E+00 -0.00000000000E+00 -0.11277692798E+04  0.11277692798E+04  0.25500000000E-02 0.  1.
    5000001    1    1    2    0    0  0.13171487306E+03 -0.10541525184E+03 -0.45420063748E+03  0.52117502069E+03  0.19200000000E+03 0.  0.
   -5000001    1    1    2    0    0 -0.13171487306E+03  0.10541525184E+03 -0.61456704825E+03  0.66559585328E+03  0.19200000000E+03 0.  0.
<mgrwt>
<rscale>  0 0.51590769E+03</rscale>
<asrwt>0</asrwt>
<pdfrwt beam="1">  1        2 0.16110988E+00 0.51590769E+03</pdfrwt>
<pdfrwt beam="2">  1       -2 0.84287998E-02 0.51590769E+03</pdfrwt>
<totfact> 0.21402396E+03</totfact>
</mgrwt>
</event>
<event>
 4    1  0.1896644E-005  0.6362516E+03  0.7818608E-02  0.9832925E-01
         -2   -1    0    0    0  501 -0.00000000000E+00  0.00000000000E+00  0.22519756165E+03  0.22519756166E+03  0.25500000000E-02 0. -1.
          2   -1    0    0  501    0  0.00000000000E+00 -0.00000000000E+00 -0.44940110223E+03  0.44940110224E+03  0.25500000000E-02 0.  1.
    5000001    1    1    2    0    0 -0.22010128708E+03 -0.81158303991E+02 -0.21439881447E+03  0.37129785689E+03  0.19200000000E+03 0.  0.
   -5000001    1    1    2    0    0  0.22010128708E+03  0.81158303991E+02 -0.98047261101E+01  0.30330080702E+03  0.19200000000E+03 0.  0.
<mgrwt>
<rscale>  0 0.63625162E+03</rscale>
<asrwt>0</asrwt>
<pdfrwt beam="1">  1        2 0.64200157E-01 0.63625162E+03</pdfrwt>
<pdfrwt beam="2">  1       -2 0.32171080E-01 0.63625162E+03</pdfrwt>
<totfact> 0.68511515E+02</totfact>
</mgrwt>
</event>
<event>
 4    1  0.1896644E-005  0.4402376E+03  0.7818608E-02  0.1030674E+00
          2   -1    0    0  501    0  0.00000000000E+00  0.00000000000E+00  0.55194691448E+03  0.55194691449E+03  0.25500000000E-02 0. -1.
         -2   -1    0    0    0  501 -0.00000000000E+00 -0.00000000000E+00 -0.87784316926E+02  0.87784316963E+02  0.25500000000E-02 0.  1.
    5000001    1    1    2    0    0  0.61634452737E+02 -0.20359339719E+02  0.10728816399E+03  0.22932086388E+03  0.19200000000E+03 0.  0.
   -5000001    1    1    2    0    0 -0.61634452737E+02  0.20359339719E+02  0.35687443356E+03  0.41041036757E+03  0.19200000000E+03 0.  0.
<mgrwt>
<rscale>  0 0.44023759E+03</rscale>
<asrwt>0</asrwt>
<pdfrwt beam="1">  1        2 0.78849563E-01 0.44023759E+03</pdfrwt>
<pdfrwt beam="2">  1       -2 0.12540616E-01 0.44023759E+03</pdfrwt>
<totfact> 0.28055334E+03</totfact>
</mgrwt>
</event>
<event>
 4    1  0.1896644E-005  0.4736641E+03  0.7818608E-02  0.1020891E+00
         -2   -1    0    0    0  501 -0.00000000000E+00  0.00000000000E+00  0.93364457463E+02  0.93364457498E+02  0.25500000000E-02 0. -1.
          2   -1    0    0  501    0  0.00000000000E+00 -0.00000000000E+00 -0.60075769188E+03  0.60075769188E+03  0.25500000000E-02 0.  1.
    5000001    1    1    2    0    0  0.28210575754E+02  0.12223058546E+03 -0.34025962220E+03  0.41033737717E+03  0.19200000000E+03 0.  0.
   -5000001    1    1    2    0    0 -0.28210575754E+02 -0.12223058546E+03 -0.16713361222E+03  0.28378477221E+03  0.19200000000E+03 0.  0.
<mgrwt>
<rscale>  0 0.47366408E+03</rscale>
<asrwt>0</asrwt>
<pdfrwt beam="1">  1        2 0.85822526E-01 0.47366408E+03</pdfrwt>
<pdfrwt beam="2">  1       -2 0.13337780E-01 0.47366408E+03</pdfrwt>
<totfact> 0.22997890E+03</totfact>
</mgrwt>
</event>
<event>
 4    1  0.1896644E-005  0.5555300E+03  0.7818608E-02  0.1000222E+00
          2   -1    0    0  501    0  0.00000000000E+00  0.00000000000E+00  0.88526780656E+02  0.88526780693E+02  0.25500000000E-02 0.  1.
         -2   -1    0    0    0  501 -0.00000000000E+00 -0.00000000000E+00 -0.87152593590E+03  0.87152593591E+03  0.25500000000E-02 0. -1.
    5000001    1    1    2    0    0  0.99914607388E+02 -0.15036739881E+03 -0.54310788491E+03  0.60367496059E+03  0.19200000000E+03 0.  0.
   -5000001    1    1    2    0    0 -0.99914607388E+02  0.15036739881E+03 -0.23989127034E+03  0.35637775601E+03  0.19200000000E+03 0.  0.
<mgrwt>
<rscale>  0 0.55552996E+03</rscale>
<asrwt>0</asrwt>
<pdfrwt beam="1">  1        2 0.12646683E-01 0.55552996E+03</pdfrwt>
<pdfrwt beam="2">  1       -2 0.12450370E+00 0.55552996E+03</pdfrwt>
<totfact> 0.24284069E+02</totfact>
</mgrwt>
</event>
<event>
 4    1  0.1896644E-005  0.4563063E+03  0.7818608E-02  0.1025858E+00
          2   -1    0    0  501    0  0.00000000000E+00  0.00000000000E+00  0.38224870627E+03  0.38224870628E+03  0.25500000000E-02 0.  1.
         -2   -1    0    0    0  501 -0.00000000000E+00 -0.00000000000E+00 -0.13617800456E+03  0.13617800459E+03  0.25500000000E-02 0. -1.
    5000001    1    1    2    0    0 -0.26002681090E+02 -0.10352771148E+03  0.53038406054E+02  0.22598937803E+03  0.19200000000E+03 0.  0.
   -5000001    1    1    2    0    0  0.26002681090E+02  0.10352771148E+03  0.19303229565E+03  0.29243733283E+03  0.19200000000E+03 0.  0.
<mgrwt>
<rscale>  0 0.45630633E+03</rscale>
<asrwt>0</asrwt>
<pdfrwt beam="1">  1        2 0.54606958E-01 0.45630633E+03</pdfrwt>
<pdfrwt beam="2">  1       -2 0.19454001E-01 0.45630633E+03</pdfrwt>
<totfact> 0.20225124E+03</totfact>
</mgrwt>
</event>
<event>
 4    1  0.1896644E-005  0.4873914E+03  0.7818608E-02  0.1017123E+00
          2   -1    0    0  501    0  0.00000000000E+00  0.00000000000E+00  0.22512280883E+04  0.22512280883E+04  0.25500000000E-02 0.  1.
         -2   -1    0    0    0  501 -0.00000000000E+00 -0.00000000000E+00 -0.26380086834E+02  0.26380086957E+02  0.25500000000E-02 0. -1.
    5000001    1    1    2    0    0  0.70974044315E+02 -0.12872297989E+03  0.97093973077E+03  0.10005972623E+04  0.19200000000E+03 0.  0.
   -5000001    1    1    2    0    0 -0.70974044315E+02  0.12872297989E+03  0.12539082707E+04  0.12770109130E+04  0.19200000000E+03 0.  0.
<mgrwt>
<rscale>  0 0.48739139E+03</rscale>
<asrwt>0</asrwt>
<pdfrwt beam="1">  1        2 0.32160402E+00 0.48739139E+03</pdfrwt>
<pdfrwt beam="2">  1       -2 0.37685837E-02 0.48739139E+03</pdfrwt>
<totfact> 0.19752305E+03</totfact>
</mgrwt>
</event>
<event>
 4    1  0.1896644E-005  0.5024275E+03  0.7818608E-02  0.1013147E+00
          2   -1    0    0  501    0  0.00000000000E+00  0.00000000000E+00  0.15015970176E+03  0.15015970178E+03  0.25500000000E-02 0.  1.
         -2   -1    0    0    0  501 -0.00000000000E+00 -0.00000000000E+00 -0.42027478828E+03  0.42027478829E+03  0.25500000000E-02 0. -1.
    5000001    1    1    2    0    0 -0.90986582841E+02  0.82399553020E+02 -0.25508411523E+03  0.34205284744E+03  0.19200000000E+03 0.  0.
   -5000001    1    1    2    0    0  0.90986582841E+02 -0.82399553020E+02 -0.15030971295E+02  0.22838164264E+03  0.19200000000E+03 0.  0.
<mgrwt>
<rscale>  0 0.50242745E+03</rscale>
<asrwt>0</asrwt>
<pdfrwt beam="1">  1        2 0.21451386E-01 0.50242745E+03</pdfrwt>
<pdfrwt beam="2">  1       -2 0.60039255E-01 0.50242745E+03</pdfrwt>
<totfact> 0.68101535E+02</totfact>
</mgrwt>
</event>
<event>
 4    1  0.1896644E-005  0.5383531E+03  0.7818608E-02  0.1004226E+00
         -2   -1    0    0    0  501 -0.00000000000E+00  0.00000000000E+00  0.29143382037E+03  0.29143382038E+03  0.25500000000E-02 0. -1.
          2   -1    0    0  501    0  0.00000000000E+00 -0.00000000000E+00 -0.24861911436E+03  0.24861911437E+03  0.25500000000E-02 0.  1.
    5000001    1    1    2    0    0 -0.18714442692E+03  0.22324439599E+02  0.12978371240E+02  0.26935822848E+03  0.19200000000E+03 0.  0.
   -5000001    1    1    2    0    0  0.18714442692E+03 -0.22324439599E+02  0.29836334767E+02  0.27069470627E+03  0.19200000000E+03 0.  0.
<mgrwt>
<rscale>  0 0.53835311E+03</rscale>
<asrwt>0</asrwt>
<pdfrwt beam="1">  1        2 0.35517016E-01 0.53835311E+03</pdfrwt>
<pdfrwt beam="2">  1       -2 0.41633403E-01 0.53835311E+03</pdfrwt>
<totfact> 0.80759963E+02</totfact>
</mgrwt>
</event>
<event>
 4    1  0.1896644E-005  0.7332988E+03  0.7818608E-02  0.9661922E-01
          2   -1    0    0  501    0  0.00000000000E+00  0.00000000000E+00  0.15784281948E+04  0.15784281948E+04  0.25500000000E-02 0.  1.
         -2   -1    0    0    0  501 -0.00000000000E+00 -0.00000000000E+00 -0.85168130902E+02  0.85168130940E+02  0.25500000000E-02 0. -1.
    5000001    1    1    2    0    0  0.14366721924E+03 -0.22052422688E+03  0.11282524832E+04  0.11743461459E+04  0.19200000000E+03 0.  0.
   -5000001    1    1    2    0    0 -0.14366721924E+03  0.22052422688E+03  0.36500758072E+03  0.48925017987E+03  0.19200000000E+03 0.  0.
<mgrwt>
<rscale>  0 0.73329879E+03</rscale>
<asrwt>0</asrwt>
<pdfrwt beam="1">  1        2 0.22548974E+00 0.73329879E+03</pdfrwt>
<pdfrwt beam="2">  1       -2 0.12166876E-01 0.73329879E+03</pdfrwt>
<totfact> 0.66856234E+02</totfact>
</mgrwt>
</event>
<event>
 4    1  0.1896644E-005  0.4181171E+03  0.7818608E-02  0.1037681E+00
         -2   -1    0    0    0  501 -0.00000000000E+00  0.00000000000E+00  0.52828929646E+02  0.52828929708E+02  0.25500000000E-02 0. -1.
          2   -1    0    0  501    0  0.00000000000E+00 -0.00000000000E+00 -0.82730182706E+03  0.82730182706E+03  0.25500000000E-02 0.  1.
    5000001    1    1    2    0    0  0.74939844594E+02  0.34837422417E+02 -0.37999219410E+03  0.43369078141E+03  0.19200000000E+03 0.  0.
   -5000001    1    1    2    0    0 -0.74939844594E+02 -0.34837422417E+02 -0.39448070332E+03  0.44643997536E+03  0.19200000000E+03 0.  0.
<mgrwt>
<rscale>  0 0.41811707E+03</rscale>
<asrwt>0</asrwt>
<pdfrwt beam="1">  1        2 0.11818597E+00 0.41811707E+03</pdfrwt>
<pdfrwt beam="2">  1       -2 0.75469904E-02 0.41811707E+03</pdfrwt>
<totfact> 0.38964680E+03</totfact>
</mgrwt>
</event>
<event>
 4    1  0.1896644E-005  0.7547411E+03  0.7818608E-02  0.9627942E-01
          2   -1    0    0  501    0  0.00000000000E+00  0.00000000000E+00  0.16839930620E+04  0.16839930620E+04  0.25500000000E-02 0.  1.
         -2   -1    0    0    0  501 -0.00000000000E+00 -0.00000000000E+00 -0.84565976891E+02  0.84565976929E+02  0.25500000000E-02 0. -1.
    5000001    1    1    2    0    0  0.18802147623E+03  0.25072146268E+03  0.10003495378E+04  0.10657281666E+04  0.19200000000E+03 0.  0.
   -5000001    1    1    2    0    0 -0.18802147623E+03 -0.25072146268E+03  0.59907754734E+03  0.70283087233E+03  0.19200000000E+03 0.  0.
<mgrwt>
<rscale>  0 0.75474106E+03</rscale>
<asrwt>0</asrwt>
<pdfrwt beam="1">  1        2 0.24057042E+00 0.75474106E+03</pdfrwt>
<pdfrwt beam="2">  1       -2 0.12080855E-01 0.75474106E+03</pdfrwt>
<totfact> 0.59606069E+02</totfact>
</mgrwt>
</event>
<event>
 4    1  0.1896644E-005  0.4552498E+03  0.7818608E-02  0.1026168E+00
          2   -1    0    0  501    0  0.00000000000E+00  0.00000000000E+00  0.12391180628E+03  0.12391180631E+03  0.25500000000E-02 0. -1.
         -2   -1    0    0    0  501 -0.00000000000E+00 -0.00000000000E+00 -0.41814502518E+03  0.41814502519E+03  0.25500000000E-02 0.  1.
    5000001    1    1    2    0    0 -0.33260348914E+00  0.10915657304E+03 -0.21269959134E+03  0.30662743553E+03  0.19200000000E+03 0.  0.
   -5000001    1    1    2    0    0  0.33260348914E+00 -0.10915657304E+03 -0.81533627562E+02  0.23542939597E+03  0.19200000000E+03 0.  0.
<mgrwt>
<rscale>  0 0.45524985E+03</rscale>
<asrwt>0</asrwt>
<pdfrwt beam="1">  1        2 0.17701687E-01 0.45524985E+03</pdfrwt>
<pdfrwt beam="2">  1       -2 0.59735003E-01 0.45524985E+03</pdfrwt>
<totfact> 0.86136189E+02</totfact>
</mgrwt>
</event>
<event>
 4    1  0.1896644E-005  0.4707942E+03  0.7818608E-02  0.1021696E+00
         -2   -1    0    0    0  501 -0.00000000000E+00  0.00000000000E+00  0.89844641427E+02  0.89844641463E+02  0.25500000000E-02 0. -1.
          2   -1    0    0  501    0  0.00000000000E+00 -0.00000000000E+00 -0.61675121569E+03  0.61675121569E+03  0.25500000000E-02 0.  1.
    5000001    1    1    2    0    0 -0.58942231298E+02  0.12202333084E+03 -0.24309951281E+03  0.33812017542E+03  0.19200000000E+03 0.  0.
   -5000001    1    1    2    0    0  0.58942231298E+02 -0.12202333084E+03 -0.28380706145E+03  0.36847568173E+03  0.19200000000E+03 0.  0.
<mgrwt>
<rscale>  0 0.47079419E+03</rscale>
<asrwt>0</asrwt>
<pdfrwt beam="1">  1        2 0.88107314E-01 0.47079419E+03</pdfrwt>
<pdfrwt beam="2">  1       -2 0.12834949E-01 0.47079419E+03</pdfrwt>
<totfact> 0.23761296E+03</totfact>
</mgrwt>
</event>
<event>
 4    1  0.1896644E-005  0.5273296E+03  0.7818608E-02  0.1006882E+00
          2   -1    0    0  501    0  0.00000000000E+00  0.00000000000E+00  0.12635046178E+04  0.12635046178E+04  0.25500000000E-02 0. -1.
         -2   -1    0    0    0  501 -0.00000000000E+00 -0.00000000000E+00 -0.55020873248E+02  0.55020873307E+02  0.25500000000E-02 0.  1.
    5000001    1    1    2    0    0  0.17800944672E+03  0.80181613022E+01  0.52908580062E+03  0.59037906335E+03  0.19200000000E+03 0.  0.
   -5000001    1    1    2    0    0 -0.17800944672E+03 -0.80181613022E+01  0.67939794391E+03  0.72814642773E+03  0.19200000000E+03 0.  0.
<mgrwt>
<rscale>  0 0.52732960E+03</rscale>
<asrwt>0</asrwt>
<pdfrwt beam="1">  1        2 0.18050067E+00 0.52732960E+03</pdfrwt>
<pdfrwt beam="2">  1       -2 0.78601245E-02 0.52732960E+03</pdfrwt>
<totfact> 0.20082559E+03</totfact>
</mgrwt>
</event>
<event>
 4    1  0.1896644E-005  0.4662594E+03  0.7818608E-02  0.1022981E+00
         -2   -1    0    0    0  501 -0.00000000000E+00  0.00000000000E+00  0.54598687844E+02  0.54598687903E+02  0.25500000000E-02 0. -1.
          2   -1    0    0  501    0  0.00000000000E+00 -0.00000000000E+00 -0.99543533656E+03  0.99543533657E+03  0.25500000000E-02 0.  1.
    5000001    1    1    2    0    0 -0.27389034822E+02 -0.96299108321E+02 -0.66495304875E+03  0.69932126704E+03  0.19200000000E+03 0.  0.
   -5000001    1    1    2    0    0  0.27389034822E+02  0.96299108321E+02 -0.27588359997E+03  0.35071275743E+03  0.19200000000E+03 0.  0.
<mgrwt>
<rscale>  0 0.46625943E+03</rscale>
<asrwt>0</asrwt>
<pdfrwt beam="1">  1        2 0.14220504E+00 0.46625943E+03</pdfrwt>
<pdfrwt beam="2">  1       -2 0.77998132E-02 0.46625943E+03</pdfrwt>
<totfact> 0.28955467E+03</totfact>
</mgrwt>
</event>
<event>
 4    1  0.1896644E-005  0.6780974E+03  0.7818608E-02  0.9755439E-01
         -2   -1    0    0    0  501 -0.00000000000E+00  0.00000000000E+00  0.10949791466E+03  0.10949791469E+03  0.25500000000E-02 0. -1.
          2   -1    0    0  501    0  0.00000000000E+00 -0.00000000000E+00 -0.10498283711E+04  0.10498283711E+04  0.25500000000E-02 0.  1.
    5000001    1    1    2    0    0  0.20369588374E+03 -0.13271466568E+03 -0.23459691415E+03  0.38859349926E+03  0.19200000000E+03 0.  0.
   -5000001    1    1    2    0    0 -0.20369588374E+03  0.13271466568E+03 -0.70573354230E+03  0.77073278655E+03  0.19200000000E+03 0.  0.
<mgrwt>
<rscale>  0 0.67809739E+03</rscale>
<asrwt>0</asrwt>
<pdfrwt beam="1">  1        2 0.14997548E+00 0.67809739E+03</pdfrwt>
<pdfrwt beam="2">  1       -2 0.15642560E-01 0.67809739E+03</pdfrwt>
<totfact> 0.85848743E+02</totfact>
</mgrwt>
</event>
<event>
 4    1  0.1896644E-005  0.7032178E+03  0.7818608E-02  0.9711745E-01
          2   -1    0    0  501    0  0.00000000000E+00  0.00000000000E+00  0.96081929333E+03  0.96081929333E+03  0.25500000000E-02 0.  1.
         -2   -1    0    0    0  501 -0.00000000000E+00 -0.00000000000E+00 -0.12867022619E+03  0.12867022622E+03  0.25500000000E-02 0. -1.
    5000001    1    1    2    0    0 -0.11659256295E+03  0.26578309221E+03  0.49400802885E+03  0.60427014688E+03  0.19200000000E+03 0.  0.
   -5000001    1    1    2    0    0  0.11659256295E+03 -0.26578309221E+03  0.33814103828E+03  0.48521937267E+03  0.19200000000E+03 0.  0.
<mgrwt>
<rscale>  0 0.70321785E+03</rscale>
<asrwt>0</asrwt>
<pdfrwt beam="1">  1        2 0.13725990E+00 0.70321785E+03</pdfrwt>
<pdfrwt beam="2">  1       -2 0.18381460E-01 0.70321785E+03</pdfrwt>
<totfact> 0.73769323E+02</totfact>
</mgrwt>
</event>
<event>
 4    1  0.1896644E-005  0.5744960E+03  0.7818608E-02  0.9959779E-01
          2   -1    0    0  501    0  0.00000000000E+00  0.00000000000E+00  0.10160516222E+03  0.10160516225E+03  0.25500000000E-02 0.  1.
         -2   -1    0    0    0  501 -0.00000000000E+00 -0.00000000000E+00 -0.81207905142E+03  0.81207905142E+03  0.25500000000E-02 0. -1.
    5000001    1    1    2    0    0 -0.90326309654E+02 -0.15720306931E+03 -0.17547293808E+03  0.31705898381E+03  0.19200000000E+03 0.  0.
   -5000001    1    1    2    0    0  0.90326309654E+02  0.15720306931E+03 -0.53500095112E+03  0.59662522987E+03  0.19200000000E+03 0.  0.
<mgrwt>
<rscale>  0 0.57449604E+03</rscale>
<asrwt>0</asrwt>
<pdfrwt beam="1">  1        2 0.14515024E-01 0.57449604E+03</pdfrwt>
<pdfrwt beam="2">  1       -2 0.11601129E+00 0.57449604E+03</pdfrwt>
<totfact> 0.24402469E+02</totfact>
</mgrwt>
</event>
<event>
 4    1  0.1896644E-005  0.7013801E+03  0.7818608E-02  0.9714875E-01
         -2   -1    0    0    0  501 -0.00000000000E+00  0.00000000000E+00  0.25146480641E+03  0.25146480642E+03  0.25500000000E-02 0. -1.
          2   -1    0    0  501    0  0.00000000000E+00 -0.00000000000E+00 -0.48906841857E+03  0.48906841858E+03  0.25500000000E-02 0.  1.
    5000001    1    1    2    0    0 -0.17395905646E+03  0.16609293728E+03 -0.29632732294E+03  0.42722652008E+03  0.19200000000E+03 0.  0.
   -5000001    1    1    2    0    0  0.17395905646E+03 -0.16609293728E+03  0.58723710778E+02  0.31330670492E+03  0.19200000000E+03 0.  0.
<mgrwt>
<rscale>  0 0.70138005E+03</rscale>
<asrwt>0</asrwt>
<pdfrwt beam="1">  1        2 0.69866917E-01 0.70138005E+03</pdfrwt>
<pdfrwt beam="2">  1       -2 0.35923544E-01 0.70138005E+03</pdfrwt>
<totfact> 0.50470454E+02</totfact>
</mgrwt>
</event>
<event>
 4    1  0.1896644E-005  0.6511202E+03  0.7818608E-02  0.9804680E-01
         -2   -1    0    0    0  501 -0.00000000000E+00  0.00000000000E+00  0.38967345634E+03  0.38967345635E+03  0.25500000000E-02 0. -1.
          2   -1    0    0  501    0  0.00000000000E+00 -0.00000000000E+00 -0.27199535680E+03  0.27199535681E+03  0.25500000000E-02 0.  1.
    5000001    1    1    2    0    0 -0.23548344352E+03  0.11656621423E+03  0.68220972980E+02  0.33250298589E+03  0.19200000000E+03 0.  0.
   -5000001    1    1    2    0    0  0.23548344352E+03 -0.11656621423E+03  0.49457126562E+02  0.32916582727E+03  0.19200000000E+03 0.  0.
<mgrwt>
<rscale>  0 0.65112018E+03</rscale>
<asrwt>0</asrwt>
<pdfrwt beam="1">  1        2 0.38856480E-01 0.65112018E+03</pdfrwt>
<pdfrwt beam="2">  1       -2 0.55667637E-01 0.65112018E+03</pdfrwt>
<totfact> 0.40686134E+02</totfact>
</mgrwt>
</event>
<event>
 4    1  0.1896644E-005  0.7340201E+03  0.7818608E-02  0.9660759E-01
          2   -1    0    0  501    0  0.00000000000E+00  0.00000000000E+00  0.84900824935E+03  0.84900824936E+03  0.25500000000E-02 0.  1.
         -2   -1    0    0    0  501 -0.00000000000E+00 -0.00000000000E+00 -0.15865142697E+03  0.15865142699E+03  0.25500000000E-02 0. -1.
    5000001    1    1    2    0    0 -0.23085037330E+03 -0.40323030992E+02  0.62956434443E+03  0.69866523132E+03  0.19200000000E+03 0.  0.
   -5000001    1    1    2    0    0  0.23085037330E+03  0.40323030992E+02  0.60792477952E+02  0.30899444503E+03  0.19200000000E+03 0.  0.
<mgrwt>
<rscale>  0 0.73402008E+03</rscale>
<asrwt>0</asrwt>
<pdfrwt beam="1">  1        2 0.12128689E+00 0.73402008E+03</pdfrwt>
<pdfrwt beam="2">  1       -2 0.22664490E-01 0.73402008E+03</pdfrwt>
<totfact> 0.60325619E+02</totfact>
</mgrwt>
</event>
<event>
 4    1  0.1896644E-005  0.7261757E+03  0.7818608E-02  0.9673486E-01
          2   -1    0    0  501    0  0.00000000000E+00  0.00000000000E+00  0.91173137681E+03  0.91173137681E+03  0.25500000000E-02 0.  1.
         -2   -1    0    0    0  501 -0.00000000000E+00 -0.00000000000E+00 -0.14459609358E+03  0.14459609360E+03  0.25500000000E-02 0. -1.
    5000001    1    1    2    0    0 -0.24281795979E+03  0.13456276515E+03  0.18894352242E+03  0.38682212194E+03  0.19200000000E+03 0.  0.
   -5000001    1    1    2    0    0  0.24281795979E+03 -0.13456276515E+03  0.57819176081E+03  0.66950534847E+03  0.19200000000E+03 0.  0.
<mgrwt>
<rscale>  0 0.72617572E+03</rscale>
<asrwt>0</asrwt>
<pdfrwt beam="1">  1        2 0.13024734E+00 0.72617572E+03</pdfrwt>
<pdfrwt beam="2">  1       -2 0.20656585E-01 0.72617572E+03</pdfrwt>
<totfact> 0.64635155E+02</totfact>
</mgrwt>
</event>
<event>
 4    1  0.1896644E-005  0.4871211E+03  0.7818608E-02  0.1017196E+00
          2   -1    0    0  501    0  0.00000000000E+00  0.00000000000E+00  0.87269062321E+03  0.87269062321E+03  0.25500000000E-02 0.  1.
         -2   -1    0    0    0  501 -0.00000000000E+00 -0.00000000000E+00 -0.67975674094E+02  0.67975674142E+02  0.25500000000E-02 0. -1.
    5000001    1    1    2    0    0  0.52346418546E+02 -0.12891438706E+03  0.29486300928E+03  0.37837449830E+03  0.19200000000E+03 0.  0.
   -5000001    1    1    2    0    0 -0.52346418546E+02  0.12891438706E+03  0.50985193984E+03  0.56229179905E+03  0.19200000000E+03 0.  0.
<mgrwt>
<rscale>  0 0.48712107E+03</rscale>
<asrwt>0</asrwt>
<pdfrwt beam="1">  1        2 0.12467010E+00 0.48712107E+03</pdfrwt>
<pdfrwt beam="2">  1       -2 0.97108095E-02 0.48712107E+03</pdfrwt>
<totfact> 0.24377127E+03</totfact>
</mgrwt>
</event>
<event>
 4    1  0.1896644E-005  0.6563045E+03  0.7818608E-02  0.9795021E-01
          2   -1    0    0  501    0  0.00000000000E+00  0.00000000000E+00  0.19945205444E+04  0.19945205444E+04  0.25500000000E-02 0.  1.
         -2   -1    0    0    0  501 -0.00000000000E+00 -0.00000000000E+00 -0.53989873081E+02  0.53989873141E+02  0.25500000000E-02 0. -1.
    5000001    1    1    2    0    0 -0.11189016760E+03  0.19605412650E+03  0.14101696931E+04  0.14409716144E+04  0.19200000000E+03 0.  0.
   -5000001    1    1    2    0    0  0.11189016760E+03 -0.19605412650E+03  0.53036097818E+03  0.60753880312E+03  0.19200000000E+03 0.  0.
<mgrwt>
<rscale>  0 0.65630454E+03</rscale>
<asrwt>0</asrwt>
<pdfrwt beam="1">  1        2 0.28493148E+00 0.65630454E+03</pdfrwt>
<pdfrwt beam="2">  1       -2 0.77128398E-02 0.65630454E+03</pdfrwt>
<totfact> 0.86350916E+02</totfact>
</mgrwt>
</event>
<event>
 4    1  0.1896644E-005  0.7839592E+03  0.7818608E-02  0.9583530E-01
         -2   -1    0    0    0  501 -0.00000000000E+00  0.00000000000E+00  0.29085487319E+03  0.29085487320E+03  0.25500000000E-02 0. -1.
          2   -1    0    0  501    0  0.00000000000E+00 -0.00000000000E+00 -0.52826348930E+03  0.52826348930E+03  0.25500000000E-02 0.  1.
    5000001    1    1    2    0    0 -0.76472340060E+02  0.32770859607E+03 -0.56511107472E+02  0.39153345706E+03  0.19200000000E+03 0.  0.
   -5000001    1    1    2    0    0  0.76472340060E+02 -0.32770859607E+03 -0.18089750863E+03  0.42758490544E+03  0.19200000000E+03 0.  0.
<mgrwt>
<rscale>  0 0.78395921E+03</rscale>
<asrwt>0</asrwt>
<pdfrwt beam="1">  1        2 0.75466213E-01 0.78395921E+03</pdfrwt>
<pdfrwt beam="2">  1       -2 0.41550696E-01 0.78395921E+03</pdfrwt>
<totfact> 0.34769767E+02</totfact>
</mgrwt>
</event>
<event>
 4    1  0.1896644E-005  0.5574888E+03  0.7818608E-02  0.9997753E-01
         -2   -1    0    0    0  501 -0.00000000000E+00  0.00000000000E+00  0.48166966664E+02  0.48166966732E+02  0.25500000000E-02 0. -1.
          2   -1    0    0  501    0  0.00000000000E+00 -0.00000000000E+00 -0.16131064814E+04  0.16131064814E+04  0.25500000000E-02 0.  1.
    5000001    1    1    2    0    0 -0.13401501321E+03 -0.14670815395E+03 -0.89200531720E+03  0.93382053528E+03  0.19200000000E+03 0.  0.
   -5000001    1    1    2    0    0  0.13401501321E+03  0.14670815395E+03 -0.67293419751E+03  0.72745291282E+03  0.19200000000E+03 0.  0.
<mgrwt>
<rscale>  0 0.55748882E+03</rscale>
<asrwt>0</asrwt>
<pdfrwt beam="1">  1        2 0.23044375E+00 0.55748882E+03</pdfrwt>
<pdfrwt beam="2">  1       -2 0.68809962E-02 0.55748882E+03</pdfrwt>
<totfact> 0.16211461E+03</totfact>
</mgrwt>
</event>
<event>
 4    1  0.1896644E-005  0.4685711E+03  0.7818608E-02  0.1022324E+00
         -2   -1    0    0    0  501 -0.00000000000E+00  0.00000000000E+00  0.15264329072E+02  0.15264329285E+02  0.25500000000E-02 0. -1.
          2   -1    0    0  501    0  0.00000000000E+00 -0.00000000000E+00 -0.35959467738E+04  0.35959467738E+04  0.25500000000E-02 0.  1.
    5000001    1    1    2    0    0 -0.11173260631E+03 -0.43861401240E+02 -0.13267932201E+04  0.13459763173E+04  0.19200000000E+03 0.  0.
   -5000001    1    1    2    0    0  0.11173260631E+03  0.43861401240E+02 -0.22538892246E+04  0.22652347858E+04  0.19200000000E+03 0.  0.
<mgrwt>
<rscale>  0 0.46857108E+03</rscale>
<asrwt>0</asrwt>
<pdfrwt beam="1">  1        2 0.51370614E+00 0.46857108E+03</pdfrwt>
<pdfrwt beam="2">  1       -2 0.21806208E-02 0.46857108E+03</pdfrwt>
<totfact> 0.84960355E+02</totfact>
</mgrwt>
</event>
<event>
 4    1  0.1896644E-005  0.9671438E+03  0.7818608E-02  0.9345334E-01
         -2   -1    0    0    0  501 -0.00000000000E+00  0.00000000000E+00  0.19486473864E+03  0.19486473866E+03  0.25500000000E-02 0. -1.
          2   -1    0    0  501    0  0.00000000000E+00 -0.00000000000E+00 -0.12000210228E+04  0.12000210228E+04  0.25500000000E-02 0.  1.
    5000001    1    1    2    0    0 -0.52211381513E+02  0.39660994341E+03 -0.77982610877E+03  0.89722808443E+03  0.19200000000E+03 0.  0.
   -5000001    1    1    2    0    0  0.52211381513E+02 -0.39660994341E+03 -0.22533017541E+03  0.49765767705E+03  0.19200000000E+03 0.  0.
<mgrwt>
<rscale>  0 0.96714380E+03</rscale>
<asrwt>0</asrwt>
<pdfrwt beam="1">  1        2 0.17143157E+00 0.96714380E+03</pdfrwt>
<pdfrwt beam="2">  1       -2 0.27837820E-01 0.96714380E+03</pdfrwt>
<totfact> 0.25099782E+02</totfact>
</mgrwt>
</event>
<event>
 4    1  0.1896644E-005  0.5960432E+03  0.7818608E-02  0.9913649E-01
          2   -1    0    0  501    0  0.00000000000E+00  0.00000000000E+00  0.29045464662E+03  0.29045464663E+03  0.25500000000E-02 0.  1.
         -2   -1    0    0    0  501 -0.00000000000E+00 -0.00000000000E+00 -0.30578568084E+03  0.30578568085E+03  0.25500000000E-02 0. -1.
    5000001    1    1    2    0    0  0.94864920624E+02  0.19873723108E+03  0.51150457104E+02  0.29660783780E+03  0.19200000000E+03 0.  0.
   -5000001    1    1    2    0    0 -0.94864920624E+02 -0.19873723108E+03 -0.66481491317E+02  0.29963248968E+03  0.19200000000E+03 0.  0.
<mgrwt>
<rscale>  0 0.59604319E+03</rscale>
<asrwt>0</asrwt>
<pdfrwt beam="1">  1        2 0.41493521E-01 0.59604319E+03</pdfrwt>
<pdfrwt beam="2">  1       -2 0.43683668E-01 0.59604319E+03</pdfrwt>
<totfact> 0.61840904E+02</totfact>
</mgrwt>
</event>
<event>
 4    1  0.1896644E-005  0.5337884E+03  0.7818608E-02  0.1005318E+00
         -2   -1    0    0    0  501 -0.00000000000E+00  0.00000000000E+00  0.10452528930E+03  0.10452528933E+03  0.25500000000E-02 0. -1.
          2   -1    0    0  501    0  0.00000000000E+00 -0.00000000000E+00 -0.68148582793E+03  0.68148582793E+03  0.25500000000E-02 0.  1.
    5000001    1    1    2    0    0 -0.70300186543E+02 -0.17149263735E+03 -0.29449102264E+03  0.39741766860E+03  0.19200000000E+03 0.  0.
   -5000001    1    1    2    0    0  0.70300186543E+02  0.17149263735E+03 -0.28246951598E+03  0.38859344867E+03  0.19200000000E+03 0.  0.
<mgrwt>
<rscale>  0 0.53378836E+03</rscale>
<asrwt>0</asrwt>
<pdfrwt beam="1">  1        2 0.97355116E-01 0.53378836E+03</pdfrwt>
<pdfrwt beam="2">  1       -2 0.14932185E-01 0.53378836E+03</pdfrwt>
<totfact> 0.16409584E+03</totfact>
</mgrwt>
</event>
<event>
 4    1  0.1896644E-005  0.6564564E+03  0.7818608E-02  0.9794739E-01
          2   -1    0    0  501    0  0.00000000000E+00  0.00000000000E+00  0.38239338732E+03  0.38239338733E+03  0.25500000000E-02 0.  1.
         -2   -1    0    0    0  501 -0.00000000000E+00 -0.00000000000E+00 -0.28173536498E+03  0.28173536499E+03  0.25500000000E-02 0. -1.
    5000001    1    1    2    0    0  0.21571683829E+03  0.14432303320E+03  0.11023978209E+03  0.34114469334E+03  0.19200000000E+03 0.  0.
   -5000001    1    1    2    0    0 -0.21571683829E+03 -0.14432303320E+03 -0.95817597507E+01  0.32298405898E+03  0.19200000000E+03 0.  0.
<mgrwt>
<rscale>  0 0.65645637E+03</rscale>
<asrwt>0</asrwt>
<pdfrwt beam="1">  1        2 0.54627627E-01 0.65645637E+03</pdfrwt>
<pdfrwt beam="2">  1       -2 0.40247909E-01 0.65645637E+03</pdfrwt>
<totfact> 0.53503975E+02</totfact>
</mgrwt>
</event>
<event>
 4    1  0.1896644E-005  0.5554240E+03  0.7818608E-02  0.1000246E+00
          2   -1    0    0  501    0  0.00000000000E+00  0.00000000000E+00  0.19093315700E+03  0.19093315702E+03  0.25500000000E-02 0.  1.
         -2   -1    0    0    0  501 -0.00000000000E+00 -0.00000000000E+00 -0.40393176120E+03  0.40393176120E+03  0.25500000000E-02 0. -1.
    5000001    1    1    2    0    0  0.10917598408E+03 -0.15911829907E+03 -0.47623553371E+02  0.27635128267E+03  0.19200000000E+03 0.  0.
   -5000001    1    1    2    0    0 -0.10917598408E+03  0.15911829907E+03 -0.16537505082E+03  0.31851363555E+03  0.19200000000E+03 0.  0.
<mgrwt>
<rscale>  0 0.55542404E+03</rscale>
<asrwt>0</asrwt>
<pdfrwt beam="1">  1        2 0.27276165E-01 0.55542404E+03</pdfrwt>
<pdfrwt beam="2">  1       -2 0.57704537E-01 0.55542404E+03</pdfrwt>
<totfact> 0.56185560E+02</totfact>
</mgrwt>
</event>
<event>
 4    1  0.1896644E-005  0.4213848E+03  0.7818608E-02  0.1036617E+00
          2   -1    0    0  501    0  0.00000000000E+00  0.00000000000E+00  0.28606122722E+02  0.28606122835E+02  0.25500000000E-02 0.  1.
         -2   -1    0    0    0  501 -0.00000000000E+00 -0.00000000000E+00 -0.15518103727E+04  0.15518103727E+04  0.25500000000E-02 0. -1.
    5000001    1    1    2    0    0  0.83311962423E+02 -0.19368313860E+02 -0.81611572412E+03  0.84274841431E+03  0.19200000000E+03 0.  0.
   -5000001    1    1    2    0    0 -0.83311962423E+02  0.19368313860E+02 -0.70708852589E+03  0.73766808126E+03  0.19200000000E+03 0.  0.
<mgrwt>
<rscale>  0 0.42138476E+03</rscale>
<asrwt>0</asrwt>
<pdfrwt beam="1">  1        2 0.40865900E-02 0.42138476E+03</pdfrwt>
<pdfrwt beam="2">  1       -2 0.22168714E+00 0.42138476E+03</pdfrwt>
<totfact> 0.21731173E+02</totfact>
</mgrwt>
</event>
<event>
 4    1  0.1896644E-005  0.6611184E+03  0.7818608E-02  0.9786137E-01
          2   -1    0    0  501    0  0.00000000000E+00  0.00000000000E+00  0.33734185161E+03  0.33734185162E+03  0.25500000000E-02 0.  1.
         -2   -1    0    0    0  501 -0.00000000000E+00 -0.00000000000E+00 -0.32391289904E+03  0.32391289905E+03  0.25500000000E-02 0. -1.
    5000001    1    1    2    0    0 -0.21337136676E+03  0.65301417380E+02  0.15712422408E+03  0.33368193996E+03  0.19200000000E+03 0.  0.
   -5000001    1    1    2    0    0  0.21337136676E+03 -0.65301417380E+02 -0.14369527151E+03  0.32757281071E+03  0.19200000000E+03 0.  0.
<mgrwt>
<rscale>  0 0.66111838E+03</rscale>
<asrwt>0</asrwt>
<pdfrwt beam="1">  1        2 0.48191693E-01 0.66111838E+03</pdfrwt>
<pdfrwt beam="2">  1       -2 0.46273271E-01 0.66111838E+03</pdfrwt>
<totfact> 0.46692742E+02</totfact>
</mgrwt>
</event>
<event>
 4    1  0.1896644E-005  0.5046519E+03  0.7818608E-02  0.1012572E+00
         -2   -1    0    0    0  501 -0.00000000000E+00  0.00000000000E+00  0.72491013483E+02  0.72491013528E+02  0.25500000000E-02 0. -1.
          2   -1    0    0  501    0  0.00000000000E+00 -0.00000000000E+00 -0.87829334025E+03  0.87829334025E+03  0.25500000000E-02 0.  1.
    5000001    1    1    2    0    0 -0.75294780852E+02  0.13596355090E+03 -0.49986945663E+03  0.55757408913E+03  0.19200000000E+03 0.  0.
   -5000001    1    1    2    0    0  0.75294780852E+02 -0.13596355090E+03 -0.30593287014E+03  0.39321026465E+03  0.19200000000E+03 0.  0.
<mgrwt>
<rscale>  0 0.50465186E+03</rscale>
<asrwt>0</asrwt>
<pdfrwt beam="1">  1        2 0.12547047E+00 0.50465186E+03</pdfrwt>
<pdfrwt beam="2">  1       -2 0.10355860E-01 0.50465186E+03</pdfrwt>
<totfact> 0.21790436E+03</totfact>
</mgrwt>
</event>
<event>
 4    1  0.1896644E-005  0.4548235E+03  0.7818608E-02  0.1026293E+00
          2   -1    0    0  501    0  0.00000000000E+00  0.00000000000E+00  0.10103251791E+04  0.10103251791E+04  0.25500000000E-02 0.  1.
         -2   -1    0    0    0  501 -0.00000000000E+00 -0.00000000000E+00 -0.51187575969E+02  0.51187576032E+02  0.25500000000E-02 0. -1.
    5000001    1    1    2    0    0 -0.80445413177E+02  0.84587058473E+02  0.39786021462E+03  0.45692798704E+03  0.19200000000E+03 0.  0.
   -5000001    1    1    2    0    0  0.80445413177E+02 -0.84587058473E+02  0.56127738855E+03  0.60458476813E+03  0.19200000000E+03 0.  0.
<mgrwt>
<rscale>  0 0.45482347E+03</rscale>
<asrwt>0</asrwt>
<pdfrwt beam="1">  1        2 0.14433217E+00 0.45482347E+03</pdfrwt>
<pdfrwt beam="2">  1       -2 0.73125107E-02 0.45482347E+03</pdfrwt>
<totfact> 0.31399670E+03</totfact>
</mgrwt>
</event>
<event>
 4    1  0.1896644E-005  0.6599442E+03  0.7818608E-02  0.9788296E-01
          2   -1    0    0  501    0  0.00000000000E+00  0.00000000000E+00  0.42088950673E+03  0.42088950673E+03  0.25500000000E-02 0.  1.
         -2   -1    0    0    0  501 -0.00000000000E+00 -0.00000000000E+00 -0.25869403029E+03  0.25869403030E+03  0.25500000000E-02 0. -1.
    5000001    1    1    2    0    0  0.14334013318E+02 -0.22866469885E+03 -0.62790936038E+02  0.30545001242E+03  0.19200000000E+03 0.  0.
   -5000001    1    1    2    0    0 -0.14334013318E+02  0.22866469885E+03  0.22498641248E+03  0.37413352461E+03  0.19200000000E+03 0.  0.
<mgrwt>
<rscale>  0 0.65994425E+03</rscale>
<asrwt>0</asrwt>
<pdfrwt beam="1">  1        2 0.60127072E-01 0.65994425E+03</pdfrwt>
<pdfrwt beam="2">  1       -2 0.36956290E-01 0.65994425E+03</pdfrwt>
<totfact> 0.56684792E+02</totfact>
</mgrwt>
</event>
<event>
 4    1  0.1896644E-005  0.5599631E+03  0.7818608E-02  0.9992138E-01
          2   -1    0    0  501    0  0.00000000000E+00  0.00000000000E+00  0.39046106332E+03  0.39046106332E+03  0.25500000000E-02 0.  1.
         -2   -1    0    0    0  501 -0.00000000000E+00 -0.00000000000E+00 -0.20076179696E+03  0.20076179698E+03  0.25500000000E-02 0. -1.
    5000001    1    1    2    0    0 -0.19047192411E+03  0.57186845170E+02  0.47918544743E+02  0.28055316086E+03  0.19200000000E+03 0.  0.
   -5000001    1    1    2    0    0  0.19047192411E+03 -0.57186845170E+02  0.14178072161E+03  0.31066969945E+03  0.19200000000E+03 0.  0.
<mgrwt>
<rscale>  0 0.55996309E+03</rscale>
<asrwt>0</asrwt>
<pdfrwt beam="1">  1        2 0.55780151E-01 0.55996309E+03</pdfrwt>
<pdfrwt beam="2">  1       -2 0.28680257E-01 0.55996309E+03</pdfrwt>
<totfact> 0.99219477E+02</totfact>
</mgrwt>
</event>
<event>
 4    1  0.1896644E-005  0.5043947E+03  0.7818608E-02  0.1012638E+00
          2   -1    0    0  501    0  0.00000000000E+00  0.00000000000E+00  0.16284564366E+04  0.16284564366E+04  0.25500000000E-02 0.  1.
         -2   -1    0    0    0  501 -0.00000000000E+00 -0.00000000000E+00 -0.39057535240E+02  0.39057535324E+02  0.25500000000E-02 0. -1.
    5000001    1    1    2    0    0 -0.14730514349E+03 -0.64336812916E+02  0.89395920031E+03  0.92836689009E+03  0.19200000000E+03 0.  0.
   -5000001    1    1    2    0    0  0.14730514349E+03  0.64336812916E+02  0.69543970106E+03  0.73914708185E+03  0.19200000000E+03 0.  0.
<mgrwt>
<rscale>  0 0.50439467E+03</rscale>
<asrwt>0</asrwt>
<pdfrwt beam="1">  1        2 0.23263663E+00 0.50439467E+03</pdfrwt>
<pdfrwt beam="2">  1       -2 0.55796481E-02 0.50439467E+03</pdfrwt>
<totfact> 0.22138208E+03</totfact>
</mgrwt>
</event>
<event>
 4    1  0.1896644E-005  0.6733819E+03  0.7818608E-02  0.9763868E-01
         -2   -1    0    0    0  501 -0.00000000000E+00  0.00000000000E+00  0.32828952792E+03  0.32828952793E+03  0.25500000000E-02 0. -1.
          2   -1    0    0  501    0  0.00000000000E+00 -0.00000000000E+00 -0.34530736484E+03  0.34530736485E+03  0.25500000000E-02 0.  1.
    5000001    1    1    2    0    0 -0.19844380282E+03  0.12255202344E+03 -0.15720983981E+03  0.34055524524E+03  0.19200000000E+03 0.  0.
   -5000001    1    1    2    0    0  0.19844380282E+03 -0.12255202344E+03  0.14019200288E+03  0.33304164754E+03  0.19200000000E+03 0.  0.
<mgrwt>
<rscale>  0 0.67338189E+03</rscale>
<asrwt>0</asrwt>
<pdfrwt beam="1">  1        2 0.49329624E-01 0.67338189E+03</pdfrwt>
<pdfrwt beam="2">  1       -2 0.46898504E-01 0.67338189E+03</pdfrwt>
<totfact> 0.44282630E+02</totfact>
</mgrwt>
</event>
<event>
 4    1  0.1896644E-005  0.4344587E+03  0.7818608E-02  0.1032461E+00
         -2   -1    0    0    0  501 -0.00000000000E+00  0.00000000000E+00  0.24261780586E+02  0.24261780720E+02  0.25500000000E-02 0. -1.
          2   -1    0    0  501    0  0.00000000000E+00 -0.00000000000E+00 -0.19449759815E+04  0.19449759815E+04  0.25500000000E-02 0.  1.
    5000001    1    1    2    0    0 -0.13736034781E+02  0.49407596279E+02 -0.13579587049E+04  0.13724232705E+04  0.19200000000E+03 0.  0.
   -5000001    1    1    2    0    0  0.13736034781E+02 -0.49407596279E+02 -0.56275549597E+03  0.59681449167E+03  0.19200000000E+03 0.  0.
<mgrwt>
<rscale>  0 0.43445865E+03</rscale>
<asrwt>0</asrwt>
<pdfrwt beam="1">  1        2 0.27785361E+00 0.43445865E+03</pdfrwt>
<pdfrwt beam="2">  1       -2 0.34659699E-02 0.43445865E+03</pdfrwt>
<totfact> 0.31940770E+03</totfact>
</mgrwt>
</event>
<event>
 4    1  0.1896644E-005  0.4877473E+03  0.7818608E-02  0.1017027E+00
         -2   -1    0    0    0  501 -0.00000000000E+00  0.00000000000E+00  0.25728527010E+03  0.25728527011E+03  0.25500000000E-02 0. -1.
          2   -1    0    0  501    0  0.00000000000E+00 -0.00000000000E+00 -0.23116115597E+03  0.23116115598E+03  0.25500000000E-02 0.  1.
    5000001    1    1    2    0    0  0.14252183240E+03 -0.39880763312E+02 -0.13573292666E+02  0.24279864552E+03  0.19200000000E+03 0.  0.
   -5000001    1    1    2    0    0 -0.14252183240E+03  0.39880763312E+02  0.39697406796E+02  0.24564778057E+03  0.19200000000E+03 0.  0.
<mgrwt>
<rscale>  0 0.48774731E+03</rscale>
<asrwt>0</asrwt>
<pdfrwt beam="1">  1        2 0.33023022E-01 0.48774731E+03</pdfrwt>
<pdfrwt beam="2">  1       -2 0.36755039E-01 0.48774731E+03</pdfrwt>
<totfact> 0.11132961E+03</totfact>
</mgrwt>
</event>
<event>
 4    1  0.1896644E-005  0.7616607E+03  0.7818608E-02  0.9617232E-01
         -2   -1    0    0    0  501 -0.00000000000E+00  0.00000000000E+00  0.18055763491E+03  0.18055763493E+03  0.25500000000E-02 0. -1.
          2   -1    0    0  501    0  0.00000000000E+00 -0.00000000000E+00 -0.80324357983E+03  0.80324357983E+03  0.25500000000E-02 0.  1.
    5000001    1    1    2    0    0 -0.27107471601E+03 -0.97835836824E+02 -0.51603799152E+03  0.62146002391E+03  0.19200000000E+03 0.  0.
   -5000001    1    1    2    0    0  0.27107471601E+03  0.97835836824E+02 -0.10664795339E+03  0.36234119085E+03  0.19200000000E+03 0.  0.
<mgrwt>
<rscale>  0 0.76166071E+03</rscale>
<asrwt>0</asrwt>
<pdfrwt beam="1">  1        2 0.11474908E+00 0.76166071E+03</pdfrwt>
<pdfrwt beam="2">  1       -2 0.25793948E-01 0.76166071E+03</pdfrwt>
<totfact> 0.51363738E+02</totfact>
</mgrwt>
</event>
<event>
 4    1  0.1896644E-005  0.4356907E+03  0.7818608E-02  0.1032077E+00
         -2   -1    0    0    0  501 -0.00000000000E+00  0.00000000000E+00  0.35517361949E+02  0.35517362040E+02  0.25500000000E-02 0. -1.
          2   -1    0    0  501    0  0.00000000000E+00 -0.00000000000E+00 -0.13361518516E+04  0.13361518516E+04  0.25500000000E-02 0.  1.
    5000001    1    1    2    0    0 -0.55969576091E+02  0.86026242239E+02 -0.67459793224E+03  0.70885786868E+03  0.19200000000E+03 0.  0.
   -5000001    1    1    2    0    0  0.55969576091E+02 -0.86026242239E+02 -0.62603655741E+03  0.66281134497E+03  0.19200000000E+03 0.  0.
<mgrwt>
<rscale>  0 0.43569067E+03</rscale>
<asrwt>0</asrwt>
<pdfrwt beam="1">  1        2 0.19087881E+00 0.43569067E+03</pdfrwt>
<pdfrwt beam="2">  1       -2 0.50739097E-02 0.43569067E+03</pdfrwt>
<totfact> 0.36391436E+03</totfact>
</mgrwt>
</event>
<event>
 4    1  0.1896644E-005  0.5828450E+03  0.7818608E-02  0.9941650E-01
         -2   -1    0    0    0  501 -0.00000000000E+00  0.00000000000E+00  0.15176502169E+03  0.15176502171E+03  0.25500000000E-02 0. -1.
          2   -1    0    0  501    0  0.00000000000E+00 -0.00000000000E+00 -0.55959589950E+03  0.55959589950E+03  0.25500000000E-02 0.  1.
    5000001    1    1    2    0    0  0.21397337137E+03  0.21113294212E+02 -0.15166575638E+03  0.32572515486E+03  0.19200000000E+03 0.  0.
   -5000001    1    1    2    0    0 -0.21397337137E+03 -0.21113294212E+02 -0.25616512143E+03  0.38563576635E+03  0.19200000000E+03 0.  0.
<mgrwt>
<rscale>  0 0.58284504E+03</rscale>
<asrwt>0</asrwt>
<pdfrwt beam="1">  1        2 0.79942270E-01 0.58284504E+03</pdfrwt>
<pdfrwt beam="2">  1       -2 0.21680718E-01 0.58284504E+03</pdfrwt>
<totfact> 0.10917536E+03</totfact>
</mgrwt>
</event>
<event>
 4    1  0.1896644E-005  0.4005387E+03  0.7818608E-02  0.1043593E+00
         -2   -1    0    0    0  501 -0.00000000000E+00  0.00000000000E+00  0.59030160600E+02  0.59030160655E+02  0.25500000000E-02 0. -1.
          2   -1    0    0  501    0  0.00000000000E+00 -0.00000000000E+00 -0.67944607873E+03  0.67944607874E+03  0.25500000000E-02 0.  1.
    5000001    1    1    2    0    0 -0.18478531884E+02 -0.52124922429E+02 -0.33530863429E+03  0.39032594573E+03  0.19200000000E+03 0.  0.
   -5000001    1    1    2    0    0  0.18478531884E+02  0.52124922429E+02 -0.28510728384E+03  0.34815029366E+03  0.19200000000E+03 0.  0.
<mgrwt>
<rscale>  0 0.40053869E+03</rscale>
<asrwt>0</asrwt>
<pdfrwt beam="1">  1        2 0.97063721E-01 0.40053869E+03</pdfrwt>
<pdfrwt beam="2">  1       -2 0.84328805E-02 0.40053869E+03</pdfrwt>
<totfact> 0.41661476E+03</totfact>
</mgrwt>
</event>
<event>
 4    1  0.1896644E-005  0.4923959E+03  0.7818608E-02  0.1015783E+00
         -2   -1    0    0    0  501 -0.00000000000E+00  0.00000000000E+00  0.10562998116E+03  0.10562998119E+03  0.25500000000E-02 0. -1.
          2   -1    0    0  501    0  0.00000000000E+00 -0.00000000000E+00 -0.57382797872E+03  0.57382797873E+03  0.25500000000E-02 0.  1.
    5000001    1    1    2    0    0  0.72414977484E+02 -0.12455247226E+03 -0.15861710097E+03  0.28771623526E+03  0.19200000000E+03 0.  0.
   -5000001    1    1    2    0    0 -0.72414977484E+02  0.12455247226E+03 -0.30958089659E+03  0.39174172466E+03  0.19200000000E+03 0.  0.
<mgrwt>
<rscale>  0 0.49239593E+03</rscale>
<asrwt>0</asrwt>
<pdfrwt beam="1">  1        2 0.81975423E-01 0.49239593E+03</pdfrwt>
<pdfrwt beam="2">  1       -2 0.15089998E-01 0.49239593E+03</pdfrwt>
<totfact> 0.19754166E+03</totfact>
</mgrwt>
</event>
<event>
 4    1  0.1896644E-005  0.5248848E+03  0.7818608E-02  0.1007480E+00
          2   -1    0    0  501    0  0.00000000000E+00  0.00000000000E+00  0.16056986875E+04  0.16056986875E+04  0.25500000000E-02 0.  1.
         -2   -1    0    0    0  501 -0.00000000000E+00 -0.00000000000E+00 -0.42894728058E+02  0.42894728134E+02  0.25500000000E-02 0. -1.
    5000001    1    1    2    0    0  0.15249584324E+03 -0.68538887268E+02  0.98151854264E+03  0.10139996109E+04  0.19200000000E+03 0.  0.
   -5000001    1    1    2    0    0 -0.15249584324E+03  0.68538887268E+02  0.58128541678E+03  0.63459380475E+03  0.19200000000E+03 0.  0.
<mgrwt>
<rscale>  0 0.52488478E+03</rscale>
<asrwt>0</asrwt>
<pdfrwt beam="1">  1        2 0.22938557E+00 0.52488478E+03</pdfrwt>
<pdfrwt beam="2">  1       -2 0.61278172E-02 0.52488478E+03</pdfrwt>
<totfact> 0.19637487E+03</totfact>
</mgrwt>
</event>
<event>
 4    1  0.1896644E-005  0.6901757E+03  0.7818608E-02  0.9734182E-01
         -2   -1    0    0    0  501 -0.00000000000E+00  0.00000000000E+00  0.94912465886E+02  0.94912465920E+02  0.25500000000E-02 0.  1.
          2   -1    0    0  501    0  0.00000000000E+00 -0.00000000000E+00 -0.12546888379E+04  0.12546888379E+04  0.25500000000E-02 0. -1.
    5000001    1    1    2    0    0  0.18597021578E+02 -0.25420741705E+03 -0.83674741105E+03  0.89553195922E+03  0.19200000000E+03 0.  0.
   -5000001    1    1    2    0    0 -0.18597021578E+02  0.25420741705E+03 -0.32302896101E+03  0.45406934464E+03  0.19200000000E+03 0.  0.
<mgrwt>
<rscale>  0 0.69017566E+03</rscale>
<asrwt>0</asrwt>
<pdfrwt beam="1">  1        2 0.17924125E+00 0.69017566E+03</pdfrwt>
<pdfrwt beam="2">  1       -2 0.13558924E-01 0.69017566E+03</pdfrwt>
<totfact> 0.83277294E+02</totfact>
</mgrwt>
</event>
<event>
 4    1  0.1896644E-005  0.4818797E+03  0.7818608E-02  0.1018620E+00
          2   -1    0    0  501    0  0.00000000000E+00  0.00000000000E+00  0.46497601666E+03  0.46497601667E+03  0.25500000000E-02 0.  1.
         -2   -1    0    0    0  501 -0.00000000000E+00 -0.00000000000E+00 -0.12484945991E+03  0.12484945994E+03  0.25500000000E-02 0. -1.
    5000001    1    1    2    0    0  0.29590055632E+02 -0.13318020123E+03  0.10794592686E+03  0.25909237835E+03  0.19200000000E+03 0.  0.
   -5000001    1    1    2    0    0 -0.29590055632E+02  0.13318020123E+03  0.23218062989E+03  0.33073309826E+03  0.19200000000E+03 0.  0.
<mgrwt>
<rscale>  0 0.48187967E+03</rscale>
<asrwt>0</asrwt>
<pdfrwt beam="1">  1        2 0.66425146E-01 0.48187967E+03</pdfrwt>
<pdfrwt beam="2">  1       -2 0.17835637E-01 0.48187967E+03</pdfrwt>
<totfact> 0.18905268E+03</totfact>
</mgrwt>
</event>
<event>
 4    1  0.1896644E-005  0.5276547E+03  0.7818608E-02  0.1006802E+00
         -2   -1    0    0    0  501 -0.00000000000E+00  0.00000000000E+00  0.14975405369E+03  0.14975405371E+03  0.25500000000E-02 0. -1.
          2   -1    0    0  501    0  0.00000000000E+00 -0.00000000000E+00 -0.46479455428E+03  0.46479455429E+03  0.25500000000E-02 0.  1.
    5000001    1    1    2    0    0  0.17510651504E+03 -0.31942389906E+02 -0.19540834635E+03  0.32669715289E+03  0.19200000000E+03 0.  0.
   -5000001    1    1    2    0    0 -0.17510651504E+03  0.31942389906E+02 -0.11963215424E+03  0.28785145511E+03  0.19200000000E+03 0.  0.
<mgrwt>
<rscale>  0 0.52765469E+03</rscale>
<asrwt>0</asrwt>
<pdfrwt beam="1">  1        2 0.66399222E-01 0.52765469E+03</pdfrwt>
<pdfrwt beam="2">  1       -2 0.21393436E-01 0.52765469E+03</pdfrwt>
<totfact> 0.13811547E+03</totfact>
</mgrwt>
</event>
<event>
 4    1  0.1896644E-005  0.4262161E+03  0.7818608E-02  0.1035062E+00
         -2   -1    0    0    0  501 -0.00000000000E+00  0.00000000000E+00  0.24762037231E+03  0.24762037233E+03  0.25500000000E-02 0. -1.
          2   -1    0    0  501    0  0.00000000000E+00 -0.00000000000E+00 -0.18340590679E+03  0.18340590680E+03  0.25500000000E-02 0.  1.
    5000001    1    1    2    0    0  0.89154865069E+02  0.27676391491E+01  0.56770773373E+02  0.21918752360E+03  0.19200000000E+03 0.  0.
   -5000001    1    1    2    0    0 -0.89154865069E+02 -0.27676391491E+01  0.74436921532E+01  0.21183875553E+03  0.19200000000E+03 0.  0.
<mgrwt>
<rscale>  0 0.42621609E+03</rscale>
<asrwt>0</asrwt>
<pdfrwt beam="1">  1        2 0.26200844E-01 0.42621609E+03</pdfrwt>
<pdfrwt beam="2">  1       -2 0.35374339E-01 0.42621609E+03</pdfrwt>
<totfact> 0.15490638E+03</totfact>
</mgrwt>
</event>
<event>
 4    1  0.1896644E-005  0.4703422E+03  0.7818608E-02  0.1021824E+00
         -2   -1    0    0    0  501 -0.00000000000E+00  0.00000000000E+00  0.15745778536E+03  0.15745778538E+03  0.25500000000E-02 0. -1.
          2   -1    0    0  501    0  0.00000000000E+00 -0.00000000000E+00 -0.35123990494E+03  0.35123990495E+03  0.25500000000E-02 0.  1.
    5000001    1    1    2    0    0 -0.11301142958E+03  0.66144788268E+02 -0.13580787414E+03  0.26917372626E+03  0.19200000000E+03 0.  0.
   -5000001    1    1    2    0    0  0.11301142958E+03 -0.66144788268E+02 -0.57974245436E+02  0.23952396407E+03  0.19200000000E+03 0.  0.
<mgrwt>
<rscale>  0 0.47034225E+03</rscale>
<asrwt>0</asrwt>
<pdfrwt beam="1">  1        2 0.50177129E-01 0.47034225E+03</pdfrwt>
<pdfrwt beam="2">  1       -2 0.22493970E-01 0.47034225E+03</pdfrwt>
<totfact> 0.17238626E+03</totfact>
</mgrwt>
</event>
<event>
 4    1  0.1896644E-005  0.5593844E+03  0.7818608E-02  0.9993448E-01
         -2   -1    0    0    0  501 -0.00000000000E+00  0.00000000000E+00  0.54037116622E+02  0.54037116682E+02  0.25500000000E-02 0. -1.
          2   -1    0    0  501    0  0.00000000000E+00 -0.00000000000E+00 -0.14476666072E+04  0.14476666072E+04  0.25500000000E-02 0.  1.
    5000001    1    1    2    0    0  0.30127109243E+02  0.51733143772E+02 -0.12186141097E+04  0.12350985018E+04  0.19200000000E+03 0.  0.
   -5000001    1    1    2    0    0 -0.30127109243E+02 -0.51733143772E+02 -0.17501538086E+03  0.26660522203E+03  0.19200000000E+03 0.  0.
<mgrwt>
<rscale>  0 0.55938441E+03</rscale>
<asrwt>0</asrwt>
<pdfrwt beam="1">  1        2 0.20680949E+00 0.55938441E+03</pdfrwt>
<pdfrwt beam="2">  1       -2 0.77195890E-02 0.55938441E+03</pdfrwt>
<totfact> 0.16460572E+03</totfact>
</mgrwt>
</event>
<event>
 4    1  0.1896644E-005  0.8954327E+03  0.7818608E-02  0.9431309E-01
          2   -1    0    0  501    0  0.00000000000E+00  0.00000000000E+00  0.84678503276E+03  0.84678503277E+03  0.25500000000E-02 0.  1.
         -2   -1    0    0    0  501 -0.00000000000E+00 -0.00000000000E+00 -0.23671879085E+03  0.23671879087E+03  0.25500000000E-02 0. -1.
    5000001    1    1    2    0    0 -0.29617148149E+03 -0.27017761678E+03  0.24018120180E+03  0.50523707381E+03  0.19200000000E+03 0.  0.
   -5000001    1    1    2    0    0  0.29617148149E+03  0.27017761678E+03  0.36988504011E+03  0.57826674983E+03  0.19200000000E+03 0.  0.
<mgrwt>
<rscale>  0 0.89543270E+03</rscale>
<asrwt>0</asrwt>
<pdfrwt beam="1">  1        2 0.12096929E+00 0.89543270E+03</pdfrwt>
<pdfrwt beam="2">  1       -2 0.33816970E-01 0.89543270E+03</pdfrwt>
<totfact> 0.28877883E+02</totfact>
</mgrwt>
</event>
<event>
 4    1  0.1896644E-005  0.6006722E+03  0.7818608E-02  0.9904012E-01
          2   -1    0    0  501    0  0.00000000000E+00  0.00000000000E+00  0.15379776762E+04  0.15379776762E+04  0.25500000000E-02 0.  1.
         -2   -1    0    0    0  501 -0.00000000000E+00 -0.00000000000E+00 -0.58649601009E+02  0.58649601064E+02  0.25500000000E-02 0. -1.
    5000001    1    1    2    0    0 -0.20288151441E+03  0.52906000078E+02  0.48225900919E+03  0.55981935093E+03  0.19200000000E+03 0.  0.
   -5000001    1    1    2    0    0  0.20288151441E+03 -0.52906000078E+02  0.99706906601E+03  0.10368079263E+04  0.19200000000E+03 0.  0.
<mgrwt>
<rscale>  0 0.60067221E+03</rscale>
<asrwt>0</asrwt>
<pdfrwt beam="1">  1        2 0.21971110E+00 0.60067221E+03</pdfrwt>
<pdfrwt beam="2">  1       -2 0.83785142E-02 0.60067221E+03</pdfrwt>
<totfact> 0.12944717E+03</totfact>
</mgrwt>
</event>
<event>
 4    1  0.1896644E-005  0.5887343E+03  0.7818608E-02  0.9929058E-01
         -2   -1    0    0    0  501 -0.00000000000E+00  0.00000000000E+00  0.58387544745E+03  0.58387544746E+03  0.25500000000E-02 0. -1.
          2   -1    0    0  501    0  0.00000000000E+00 -0.00000000000E+00 -0.14840841633E+03  0.14840841635E+03  0.25500000000E-02 0.  1.
    5000001    1    1    2    0    0  0.12336078098E+03  0.16181315216E+03  0.10382546795E+03  0.29840426655E+03  0.19200000000E+03 0.  0.
   -5000001    1    1    2    0    0 -0.12336078098E+03 -0.16181315216E+03  0.33164156317E+03  0.43387959726E+03  0.19200000000E+03 0.  0.
<mgrwt>
<rscale>  0 0.58873434E+03</rscale>
<asrwt>0</asrwt>
<pdfrwt beam="1">  1        2 0.21201202E-01 0.58873434E+03</pdfrwt>
<pdfrwt beam="2">  1       -2 0.83410780E-01 0.58873434E+03</pdfrwt>
<totfact> 0.33722921E+02</totfact>
</mgrwt>
</event>
<event>
 4    1  0.1896644E-005  0.6448260E+03  0.7818608E-02  0.9816537E-01
          2   -1    0    0  501    0  0.00000000000E+00  0.00000000000E+00  0.18864225412E+04  0.18864225412E+04  0.25500000000E-02 0.  1.
         -2   -1    0    0    0  501 -0.00000000000E+00 -0.00000000000E+00 -0.55104379154E+02  0.55104379213E+02  0.25500000000E-02 0. -1.
    5000001    1    1    2    0    0  0.23577705584E+03  0.97958681529E+02  0.78443566458E+03  0.84698880465E+03  0.19200000000E+03 0.  0.
   -5000001    1    1    2    0    0 -0.23577705584E+03 -0.97958681529E+02  0.10468824975E+04  0.10945381157E+04  0.19200000000E+03 0.  0.
<mgrwt>
<rscale>  0 0.64482600E+03</rscale>
<asrwt>0</asrwt>
<pdfrwt beam="1">  1        2 0.26948885E+00 0.64482600E+03</pdfrwt>
<pdfrwt beam="2">  1       -2 0.78720567E-02 0.64482600E+03</pdfrwt>
<totfact> 0.94815000E+02</totfact>
</mgrwt>
</event>
<event>
 4    1  0.1896644E-005  0.5314902E+03  0.7818608E-02  0.1005871E+00
          2   -1    0    0  501    0  0.00000000000E+00  0.00000000000E+00  0.25119628671E+04  0.25119628671E+04  0.25500000000E-02 0.  1.
         -2   -1    0    0    0  501 -0.00000000000E+00 -0.00000000000E+00 -0.28113660316E+02  0.28113660432E+02  0.25500000000E-02 0. -1.
    5000001    1    1    2    0    0  0.14354181273E+03 -0.11446691969E+03  0.12755636439E+04  0.13029326680E+04  0.19200000000E+03 0.  0.
   -5000001    1    1    2    0    0 -0.14354181273E+03  0.11446691969E+03  0.12082855629E+04  0.12371438596E+04  0.19200000000E+03 0.  0.
<mgrwt>
<rscale>  0 0.53149025E+03</rscale>
<asrwt>0</asrwt>
<pdfrwt beam="1">  1        2 0.35885177E+00 0.53149025E+03</pdfrwt>
<pdfrwt beam="2">  1       -2 0.40162379E-02 0.53149025E+03</pdfrwt>
<totfact> 0.13191108E+03</totfact>
</mgrwt>
</event>
<event>
 4    1  0.1896644E-005  0.7249210E+03  0.7818608E-02  0.9675538E-01
         -2   -1    0    0    0  501 -0.00000000000E+00  0.00000000000E+00  0.98027943554E+03  0.98027943555E+03  0.25500000000E-02 0. -1.
          2   -1    0    0  501    0  0.00000000000E+00 -0.00000000000E+00 -0.13402056510E+03  0.13402056512E+03  0.25500000000E-02 0.  1.
    5000001    1    1    2    0    0  0.10391803809E+03  0.15263957774E+03  0.80095100531E+03  0.84408785813E+03  0.19200000000E+03 0.  0.
   -5000001    1    1    2    0    0 -0.10391803809E+03 -0.15263957774E+03  0.45307865129E+02  0.27021214254E+03  0.19200000000E+03 0.  0.
<mgrwt>
<rscale>  0 0.72492097E+03</rscale>
<asrwt>0</asrwt>
<pdfrwt beam="1">  1        2 0.19145795E-01 0.72492097E+03</pdfrwt>
<pdfrwt beam="2">  1       -2 0.14003992E+00 0.72492097E+03</pdfrwt>
<totfact> 0.10859494E+02</totfact>
</mgrwt>
</event>
<event>
 4    1  0.1896644E-005  0.9032388E+03  0.7818608E-02  0.9421542E-01
          2   -1    0    0  501    0  0.00000000000E+00  0.00000000000E+00  0.42962102141E+03  0.42962102142E+03  0.25500000000E-02 0.  1.
         -2   -1    0    0    0  501 -0.00000000000E+00 -0.00000000000E+00 -0.47474417313E+03  0.47474417314E+03  0.25500000000E-02 0. -1.
    5000001    1    1    2    0    0  0.19935576838E+03  0.20281230081E+03  0.27143792422E+03  0.43751354088E+03  0.19200000000E+03 0.  0.
   -5000001    1    1    2    0    0 -0.19935576838E+03 -0.20281230081E+03 -0.31656107594E+03  0.46685165368E+03  0.19200000000E+03 0.  0.
<mgrwt>
<rscale>  0 0.90323879E+03</rscale>
<asrwt>0</asrwt>
<pdfrwt beam="1">  1        2 0.61374432E-01 0.90323879E+03</pdfrwt>
<pdfrwt beam="2">  1       -2 0.67820596E-01 0.90323879E+03</pdfrwt>
<totfact> 0.15951564E+02</totfact>
</mgrwt>
</event>
<event>
 4    1  0.1896644E-005  0.4736879E+03  0.7818608E-02  0.1020884E+00
         -2   -1    0    0    0  501 -0.00000000000E+00  0.00000000000E+00  0.48291414537E+02  0.48291414604E+02  0.25500000000E-02 0. -1.
          2   -1    0    0  501    0  0.00000000000E+00 -0.00000000000E+00 -0.11615949698E+04  0.11615949698E+04  0.25500000000E-02 0.  1.
    5000001    1    1    2    0    0 -0.98495986640E+02  0.55875879666E+02 -0.76110608723E+03  0.79307631999E+03  0.19200000000E+03 0.  0.
   -5000001    1    1    2    0    0  0.98495986640E+02 -0.55875879666E+02 -0.35219746806E+03  0.41681006444E+03  0.19200000000E+03 0.  0.
<mgrwt>
<rscale>  0 0.47368793E+03</rscale>
<asrwt>0</asrwt>
<pdfrwt beam="1">  1        2 0.16594212E+00 0.47368793E+03</pdfrwt>
<pdfrwt beam="2">  1       -2 0.68987742E-02 0.47368793E+03</pdfrwt>
<totfact> 0.28117642E+03</totfact>
</mgrwt>
</event>
<event>
 4    1  0.1896644E-005  0.1165058E+04  0.7818608E-02  0.9144003E-01
         -2   -1    0    0    0  501 -0.00000000000E+00  0.00000000000E+00  0.19388573654E+03  0.19388573656E+03  0.25500000000E-02 0. -1.
          2   -1    0    0  501    0  0.00000000000E+00 -0.00000000000E+00 -0.17502071079E+04  0.17502071079E+04  0.25500000000E-02 0.  1.
    5000001    1    1    2    0    0 -0.29637117380E+03  0.45857429125E+03 -0.66810536688E+03  0.88394289098E+03  0.19200000000E+03 0.  0.
   -5000001    1    1    2    0    0  0.29637117380E+03 -0.45857429125E+03 -0.88821600449E+03  0.10601499535E+04  0.19200000000E+03 0.  0.
<mgrwt>
<rscale>  0 0.11650583E+04</rscale>
<asrwt>0</asrwt>
<pdfrwt beam="1">  1        2 0.25002958E+00 0.11650583E+04</pdfrwt>
<pdfrwt beam="2">  1       -2 0.27697963E-01 0.11650583E+04</pdfrwt>
<totfact> 0.12694280E+02</totfact>
</mgrwt>
</event>
<event>
 4    1  0.1896644E-005  0.6840900E+03  0.7818608E-02  0.9744834E-01
          2   -1    0    0  501    0  0.00000000000E+00  0.00000000000E+00  0.65734292853E+03  0.65734292853E+03  0.25500000000E-02 0.  1.
         -2   -1    0    0    0  501 -0.00000000000E+00 -0.00000000000E+00 -0.17798136014E+03  0.17798136016E+03  0.25500000000E-02 0. -1.
    5000001    1    1    2    0    0  0.87213525416E+02 -0.26134844712E+03  0.16034314023E+03  0.37213321869E+03  0.19200000000E+03 0.  0.
   -5000001    1    1    2    0    0 -0.87213525416E+02  0.26134844712E+03  0.31901842816E+03  0.46319107001E+03  0.19200000000E+03 0.  0.
<mgrwt>
<rscale>  0 0.68409002E+03</rscale>
<asrwt>0</asrwt>
<pdfrwt beam="1">  1        2 0.93906132E-01 0.68409002E+03</pdfrwt>
<pdfrwt beam="2">  1       -2 0.25425909E-01 0.68409002E+03</pdfrwt>
<totfact> 0.67828802E+02</totfact>
</mgrwt>
</event>
<event>
 4    1  0.1896644E-005  0.4525380E+03  0.7818608E-02  0.1026968E+00
          2   -1    0    0  501    0  0.00000000000E+00  0.00000000000E+00  0.13289644154E+04  0.13289644154E+04  0.25500000000E-02 0.  1.
         -2   -1    0    0    0  501 -0.00000000000E+00 -0.00000000000E+00 -0.38524483571E+02  0.38524483655E+02  0.25500000000E-02 0. -1.
    5000001    1    1    2    0    0  0.40354734189E+02 -0.89584367490E+02  0.43849992881E+03  0.48867172113E+03  0.19200000000E+03 0.  0.
   -5000001    1    1    2    0    0 -0.40354734189E+02  0.89584367490E+02  0.85194000304E+03  0.87881717795E+03  0.19200000000E+03 0.  0.
<mgrwt>
<rscale>  0 0.45253803E+03</rscale>
<asrwt>0</asrwt>
<pdfrwt beam="1">  1        2 0.18985203E+00 0.45253803E+03</pdfrwt>
<pdfrwt beam="2">  1       -2 0.55034985E-02 0.45253803E+03</pdfrwt>
<totfact> 0.32384272E+03</totfact>
</mgrwt>
</event>
<event>
 4    1  0.1896644E-005  0.5363097E+03  0.7818608E-02  0.1004713E+00
         -2   -1    0    0    0  501 -0.00000000000E+00  0.00000000000E+00  0.24796117197E+03  0.24796117198E+03  0.25500000000E-02 0.  1.
          2   -1    0    0  501    0  0.00000000000E+00 -0.00000000000E+00 -0.28999308911E+03  0.28999308912E+03  0.25500000000E-02 0. -1.
    5000001    1    1    2    0    0  0.24802120871E+02  0.16488977038E+03  0.64328694910E+02  0.26230890676E+03  0.19200000000E+03 0.  0.
   -5000001    1    1    2    0    0 -0.24802120871E+02 -0.16488977038E+03 -0.10636061205E+03  0.27564535434E+03  0.19200000000E+03 0.  0.
<mgrwt>
<rscale>  0 0.53630971E+03</rscale>
<asrwt>0</asrwt>
<pdfrwt beam="1">  1        2 0.41427584E-01 0.53630971E+03</pdfrwt>
<pdfrwt beam="2">  1       -2 0.35423025E-01 0.53630971E+03</pdfrwt>
<totfact> 0.92952799E+02</totfact>
</mgrwt>
</event>
<event>
 4    1  0.1896644E-005  0.5356303E+03  0.7818608E-02  0.1004876E+00
         -2   -1    0    0    0  501 -0.00000000000E+00  0.00000000000E+00  0.90011967359E+02  0.90011967395E+02  0.25500000000E-02 0. -1.
          2   -1    0    0  501    0  0.00000000000E+00 -0.00000000000E+00 -0.79683784408E+03  0.79683784409E+03  0.25500000000E-02 0.  1.
    5000001    1    1    2    0    0  0.53786141203E+02 -0.11094028877E+03 -0.58556868924E+03  0.62845476088E+03  0.19200000000E+03 0.  0.
   -5000001    1    1    2    0    0 -0.53786141203E+02  0.11094028877E+03 -0.12125718749E+03  0.25839505060E+03  0.19200000000E+03 0.  0.
<mgrwt>
<rscale>  0 0.53563025E+03</rscale>
<asrwt>0</asrwt>
<pdfrwt beam="1">  1        2 0.11383397E+00 0.53563025E+03</pdfrwt>
<pdfrwt beam="2">  1       -2 0.12858853E-01 0.53563025E+03</pdfrwt>
<totfact> 0.17342492E+03</totfact>
</mgrwt>
</event>
<event>
 4    1  0.1896644E-005  0.4948714E+03  0.7818608E-02  0.1015126E+00
          2   -1    0    0  501    0  0.00000000000E+00  0.00000000000E+00  0.39478730854E+03  0.39478730854E+03  0.25500000000E-02 0.  1.
         -2   -1    0    0    0  501 -0.00000000000E+00 -0.00000000000E+00 -0.15508204713E+03  0.15508204715E+03  0.25500000000E-02 0. -1.
    5000001    1    1    2    0    0  0.14239639526E+03 -0.29627308133E+02  0.56939246227E+02  0.24750876455E+03  0.19200000000E+03 0.  0.
   -5000001    1    1    2    0    0 -0.14239639526E+03  0.29627308133E+02  0.18276601518E+03  0.30236059114E+03  0.19200000000E+03 0.  0.
<mgrwt>
<rscale>  0 0.49487139E+03</rscale>
<asrwt>0</asrwt>
<pdfrwt beam="1">  1        2 0.56398186E-01 0.49487139E+03</pdfrwt>
<pdfrwt beam="2">  1       -2 0.22154578E-01 0.49487139E+03</pdfrwt>
<totfact> 0.15573323E+03</totfact>
</mgrwt>
</event>
<event>
 4    1  0.1896644E-005  0.4691694E+03  0.7818608E-02  0.1022155E+00
          2   -1    0    0  501    0  0.00000000000E+00  0.00000000000E+00  0.21168282126E+04  0.21168282126E+04  0.25500000000E-02 0.  1.
         -2   -1    0    0    0  501 -0.00000000000E+00 -0.00000000000E+00 -0.25996431860E+02  0.25996431985E+02  0.25500000000E-02 0. -1.
    5000001    1    1    2    0    0 -0.73450996456E+02 -0.55573344228E+02  0.59599682078E+03  0.63289782418E+03  0.19200000000E+03 0.  0.
   -5000001    1    1    2    0    0  0.73450996456E+02  0.55573344228E+02  0.14948349599E+04  0.15099268204E+04  0.19200000000E+03 0.  0.
<mgrwt>
<rscale>  0 0.46916940E+03</rscale>
<asrwt>0</asrwt>
<pdfrwt beam="1">  1        2 0.30240412E+00 0.46916940E+03</pdfrwt>
<pdfrwt beam="2">  1       -2 0.37137749E-02 0.46916940E+03</pdfrwt>
<totfact> 0.23595980E+03</totfact>
</mgrwt>
</event>
<event>
 4    1  0.1896644E-005  0.6352677E+03  0.7818608E-02  0.9834823E-01
          2   -1    0    0  501    0  0.00000000000E+00  0.00000000000E+00  0.97904508936E+03  0.97904508937E+03  0.25500000000E-02 0.  1.
         -2   -1    0    0    0  501 -0.00000000000E+00 -0.00000000000E+00 -0.10305067440E+03  0.10305067443E+03  0.25500000000E-02 0. -1.
    5000001    1    1    2    0    0 -0.16577117539E+03 -0.90082431939E+02  0.72521752494E+03  0.77356278712E+03  0.19200000000E+03 0.  0.
   -5000001    1    1    2    0    0  0.16577117539E+03  0.90082431939E+02  0.15077689002E+03  0.30853297668E+03  0.19200000000E+03 0.  0.
<mgrwt>
<rscale>  0 0.63526768E+03</rscale>
<asrwt>0</asrwt>
<pdfrwt beam="1">  1        2 0.13986358E+00 0.63526768E+03</pdfrwt>
<pdfrwt beam="2">  1       -2 0.14721525E-01 0.63526768E+03</pdfrwt>
<totfact> 0.10513063E+03</totfact>
</mgrwt>
</event>
<event>
 4    1  0.1896644E-005  0.6148379E+03  0.7818608E-02  0.9875092E-01
          2   -1    0    0  501    0  0.00000000000E+00  0.00000000000E+00  0.85356559997E+03  0.85356559997E+03  0.25500000000E-02 0.  1.
         -2   -1    0    0    0  501 -0.00000000000E+00 -0.00000000000E+00 -0.11071954604E+03  0.11071954607E+03  0.25500000000E-02 0. -1.
    5000001    1    1    2    0    0  0.14063439733E+03  0.19380571593E+03  0.34409099382E+03  0.46108708642E+03  0.19200000000E+03 0.  0.
   -5000001    1    1    2    0    0 -0.14063439733E+03 -0.19380571593E+03  0.39875506011E+03  0.50319805962E+03  0.19200000000E+03 0.  0.
<mgrwt>
<rscale>  0 0.61483785E+03</rscale>
<asrwt>0</asrwt>
<pdfrwt beam="1">  1        2 0.12193795E+00 0.61483785E+03</pdfrwt>
<pdfrwt beam="2">  1       -2 0.15817078E-01 0.61483785E+03</pdfrwt>
<totfact> 0.11212296E+03</totfact>
</mgrwt>
</event>
<event>
 4    1  0.1896644E-005  0.7081096E+03  0.7818608E-02  0.9703463E-01
         -2   -1    0    0    0  501 -0.00000000000E+00  0.00000000000E+00  0.10245190151E+03  0.10245190154E+03  0.25500000000E-02 0. -1.
          2   -1    0    0  501    0  0.00000000000E+00 -0.00000000000E+00 -0.12235477627E+04  0.12235477627E+04  0.25500000000E-02 0.  1.
    5000001    1    1    2    0    0  0.43679429755E+02  0.27596074352E+03 -0.75177762490E+03  0.82467922360E+03  0.19200000000E+03 0.  0.
   -5000001    1    1    2    0    0 -0.43679429755E+02 -0.27596074352E+03 -0.36931823627E+03  0.50132044063E+03  0.19200000000E+03 0.  0.
<mgrwt>
<rscale>  0 0.70810958E+03</rscale>
<asrwt>0</asrwt>
<pdfrwt beam="1">  1        2 0.17479253E+00 0.70810958E+03</pdfrwt>
<pdfrwt beam="2">  1       -2 0.14635987E-01 0.70810958E+03</pdfrwt>
<totfact> 0.76184877E+02</totfact>
</mgrwt>
</event>
<event>
 4    1  0.1896644E-005  0.9626048E+03  0.7818608E-02  0.9350538E-01
          2   -1    0    0  501    0  0.00000000000E+00  0.00000000000E+00  0.42654892750E+03  0.42654892750E+03  0.25500000000E-02 0.  1.
         -2   -1    0    0    0  501 -0.00000000000E+00 -0.00000000000E+00 -0.54308424015E+03  0.54308424016E+03  0.25500000000E-02 0. -1.
    5000001    1    1    2    0    0  0.31172328283E+03 -0.10988802363E+03  0.23634211919E+03  0.44940892303E+03  0.19200000000E+03 0.  0.
   -5000001    1    1    2    0    0 -0.31172328283E+03  0.10988802363E+03 -0.35287743185E+03  0.52022424463E+03  0.19200000000E+03 0.  0.
<mgrwt>
<rscale>  0 0.96260480E+03</rscale>
<asrwt>0</asrwt>
<pdfrwt beam="1">  1        2 0.60935561E-01 0.96260480E+03</pdfrwt>
<pdfrwt beam="2">  1       -2 0.77583463E-01 0.96260480E+03</pdfrwt>
<totfact> 0.11926554E+02</totfact>
</mgrwt>
</event>
<event>
 4    1  0.1896644E-005  0.5968723E+03  0.7818608E-02  0.9911916E-01
         -2   -1    0    0    0  501 -0.00000000000E+00  0.00000000000E+00  0.27207600417E+03  0.27207600419E+03  0.25500000000E-02 0. -1.
          2   -1    0    0  501    0  0.00000000000E+00 -0.00000000000E+00 -0.32735018680E+03  0.32735018681E+03  0.25500000000E-02 0.  1.
    5000001    1    1    2    0    0 -0.14325738343E+03 -0.10204404353E+02 -0.20608622694E+03  0.31616821584E+03  0.19200000000E+03 0.  0.
   -5000001    1    1    2    0    0  0.14325738343E+03  0.10204404353E+02  0.15081204432E+03  0.28325797515E+03  0.19200000000E+03 0.  0.
<mgrwt>
<rscale>  0 0.59687228E+03</rscale>
<asrwt>0</asrwt>
<pdfrwt beam="1">  1        2 0.46764312E-01 0.59687228E+03</pdfrwt>
<pdfrwt beam="2">  1       -2 0.38868001E-01 0.59687228E+03</pdfrwt>
<totfact> 0.68071877E+02</totfact>
</mgrwt>
</event>
<event>
 4    1  0.1896644E-005  0.6162088E+03  0.7818608E-02  0.9872337E-01
         -2   -1    0    0    0  501 -0.00000000000E+00  0.00000000000E+00  0.47426726802E+02  0.47426726871E+02  0.25500000000E-02 0. -1.
          2   -1    0    0  501    0  0.00000000000E+00 -0.00000000000E+00 -0.20015785264E+04  0.20015785264E+04  0.25500000000E-02 0.  1.
    5000001    1    1    2    0    0 -0.57459498696E+02  0.17664080080E+03 -0.46667697274E+03  0.53773131152E+03  0.19200000000E+03 0.  0.
   -5000001    1    1    2    0    0  0.57459498696E+02 -0.17664080080E+03 -0.14874748268E+04  0.15112739417E+04  0.19200000000E+03 0.  0.
<mgrwt>
<rscale>  0 0.61620879E+03</rscale>
<asrwt>0</asrwt>
<pdfrwt beam="1">  1        2 0.28593974E+00 0.61620879E+03</pdfrwt>
<pdfrwt beam="2">  1       -2 0.67752480E-02 0.61620879E+03</pdfrwt>
<totfact> 0.10542618E+03</totfact>
</mgrwt>
</event>
<event>
 4    1  0.1896644E-005  0.4584694E+03  0.7818608E-02  0.1025226E+00
          2   -1    0    0  501    0  0.00000000000E+00  0.00000000000E+00  0.11990081711E+04  0.11990081711E+04  0.25500000000E-02 0.  1.
         -2   -1    0    0    0  501 -0.00000000000E+00 -0.00000000000E+00 -0.43826672850E+02  0.43826672924E+02  0.25500000000E-02 0. -1.
    5000001    1    1    2    0    0  0.98869890012E+02  0.73411107355E+02  0.63941283268E+03  0.67887938283E+03  0.19200000000E+03 0.  0.
   -5000001    1    1    2    0    0 -0.98869890012E+02 -0.73411107355E+02  0.51576866560E+03  0.56395546123E+03  0.19200000000E+03 0.  0.
<mgrwt>
<rscale>  0 0.45846936E+03</rscale>
<asrwt>0</asrwt>
<pdfrwt beam="1">  1        2 0.17128689E+00 0.45846936E+03</pdfrwt>
<pdfrwt beam="2">  1       -2 0.62609528E-02 0.45846936E+03</pdfrwt>
<totfact> 0.31188731E+03</totfact>
</mgrwt>
</event>
<event>
 4    1  0.1896644E-005  0.3954555E+03  0.7818608E-02  0.1045365E+00
         -2   -1    0    0    0  501 -0.00000000000E+00  0.00000000000E+00  0.37363872698E+02  0.37363872785E+02  0.25500000000E-02 0. -1.
          2   -1    0    0  501    0  0.00000000000E+00 -0.00000000000E+00 -0.10463655645E+04  0.10463655645E+04  0.25500000000E-02 0.  1.
    5000001    1    1    2    0    0  0.68512146228E+01  0.46738831710E+02 -0.50203099012E+03  0.53956516990E+03  0.19200000000E+03 0.  0.
   -5000001    1    1    2    0    0 -0.68512146228E+01 -0.46738831710E+02 -0.50697070163E+03  0.54416426733E+03  0.19200000000E+03 0.  0.
<mgrwt>
<rscale>  0 0.39545553E+03</rscale>
<asrwt>0</asrwt>
<pdfrwt beam="1">  1        2 0.14948078E+00 0.39545553E+03</pdfrwt>
<pdfrwt beam="2">  1       -2 0.53376968E-02 0.39545553E+03</pdfrwt>
<totfact> 0.48734655E+03</totfact>
</mgrwt>
</event>
<event>
 4    1  0.1896644E-005  0.5809994E+03  0.7818608E-02  0.9945630E-01
         -2   -1    0    0    0  501 -0.00000000000E+00  0.00000000000E+00  0.51642369936E+02  0.51642369999E+02  0.25500000000E-02 0. -1.
          2   -1    0    0  501    0  0.00000000000E+00 -0.00000000000E+00 -0.16341248741E+04  0.16341248741E+04  0.25500000000E-02 0.  1.
    5000001    1    1    2    0    0 -0.17108688458E+03  0.65380696615E+02 -0.44816809439E+03  0.52083010511E+03  0.19200000000E+03 0.  0.
   -5000001    1    1    2    0    0  0.17108688458E+03 -0.65380696615E+02 -0.11343144098E+04  0.11649371390E+04  0.19200000000E+03 0.  0.
<mgrwt>
<rscale>  0 0.58099942E+03</rscale>
<asrwt>0</asrwt>
<pdfrwt beam="1">  1        2 0.23344638E+00 0.58099942E+03</pdfrwt>
<pdfrwt beam="2">  1       -2 0.73774825E-02 0.58099942E+03</pdfrwt>
<totfact> 0.14154203E+03</totfact>
</mgrwt>
</event>
<event>
 4    1  0.1896644E-005  0.5581347E+03  0.7818608E-02  0.9996284E-01
         -2   -1    0    0    0  501 -0.00000000000E+00  0.00000000000E+00  0.20687723680E+03  0.20687723681E+03  0.25500000000E-02 0. -1.
          2   -1    0    0  501    0  0.00000000000E+00 -0.00000000000E+00 -0.37644831918E+03  0.37644831919E+03  0.25500000000E-02 0.  1.
    5000001    1    1    2    0    0  0.42907042293E+02  0.18508989819E+03 -0.11512007240E+02  0.27036236979E+03  0.19200000000E+03 0.  0.
   -5000001    1    1    2    0    0 -0.42907042293E+02 -0.18508989819E+03 -0.15805907514E+03  0.31296318621E+03  0.19200000000E+03 0.  0.
<mgrwt>
<rscale>  0 0.55813471E+03</rscale>
<asrwt>0</asrwt>
<pdfrwt beam="1">  1        2 0.53778331E-01 0.55813471E+03</pdfrwt>
<pdfrwt beam="2">  1       -2 0.29553891E-01 0.55813471E+03</pdfrwt>
<totfact> 0.97781001E+02</totfact>
</mgrwt>
</event>
<event>
 4    1  0.1896644E-005  0.4809960E+03  0.7818608E-02  0.1018862E+00
          2   -1    0    0  501    0  0.00000000000E+00  0.00000000000E+00  0.15022517989E+04  0.15022517989E+04  0.25500000000E-02 0.  1.
         -2   -1    0    0    0  501 -0.00000000000E+00 -0.00000000000E+00 -0.38501726141E+02  0.38501726225E+02  0.25500000000E-02 0. -1.
    5000001    1    1    2    0    0 -0.95447711743E+02 -0.87487014532E+02  0.93974253922E+03  0.96785550750E+03  0.19200000000E+03 0.  0.
   -5000001    1    1    2    0    0  0.95447711743E+02  0.87487014532E+02  0.52400753353E+03  0.57289801761E+03  0.19200000000E+03 0.  0.
<mgrwt>
<rscale>  0 0.48099600E+03</rscale>
<asrwt>0</asrwt>
<pdfrwt beam="1">  1        2 0.21460736E+00 0.48099600E+03</pdfrwt>
<pdfrwt beam="2">  1       -2 0.55002476E-02 0.48099600E+03</pdfrwt>
<totfact> 0.26285067E+03</totfact>
</mgrwt>
</event>
<event>
 4    1  0.1896644E-005  0.6234846E+03  0.7818608E-02  0.9857846E-01
         -2   -1    0    0    0  501 -0.00000000000E+00  0.00000000000E+00  0.16192344139E+03  0.16192344141E+03  0.25500000000E-02 0. -1.
          2   -1    0    0  501    0  0.00000000000E+00 -0.00000000000E+00 -0.60018033010E+03  0.60018033010E+03  0.25500000000E-02 0.  1.
    5000001    1    1    2    0    0  0.33819155895E+02  0.19625485690E+03 -0.39481920014E+03  0.48208495616E+03  0.19200000000E+03 0.  0.
   -5000001    1    1    2    0    0 -0.33819155895E+02 -0.19625485690E+03 -0.43437688569E+02  0.28001881535E+03  0.19200000000E+03 0.  0.
<mgrwt>
<rscale>  0 0.62348461E+03</rscale>
<asrwt>0</asrwt>
<pdfrwt beam="1">  1        2 0.85740046E-01 0.62348461E+03</pdfrwt>
<pdfrwt beam="2">  1       -2 0.23131920E-01 0.62348461E+03</pdfrwt>
<totfact> 0.89662187E+02</totfact>
</mgrwt>
</event>
<event>
 4    1  0.1896644E-005  0.9130238E+03  0.7818608E-02  0.9409446E-01
          2   -1    0    0  501    0  0.00000000000E+00  0.00000000000E+00  0.11701747379E+04  0.11701747379E+04  0.25500000000E-02 0.  1.
         -2   -1    0    0    0  501 -0.00000000000E+00 -0.00000000000E+00 -0.17809571771E+03  0.17809571773E+03  0.25500000000E-02 0. -1.
    5000001    1    1    2    0    0 -0.55276136216E+02  0.38306117317E+03  0.71381176693E+03  0.83437554628E+03  0.19200000000E+03 0.  0.
   -5000001    1    1    2    0    0  0.55276136216E+02 -0.38306117317E+03  0.27826725326E+03  0.51389490936E+03  0.19200000000E+03 0.  0.
<mgrwt>
<rscale>  0 0.91302379E+03</rscale>
<asrwt>0</asrwt>
<pdfrwt beam="1">  1        2 0.16716782E+00 0.91302379E+03</pdfrwt>
<pdfrwt beam="2">  1       -2 0.25442246E-01 0.91302379E+03</pdfrwt>
<totfact> 0.30849134E+02</totfact>
</mgrwt>
</event>
<event>
 4    1  0.1896644E-005  0.1288287E+04  0.7818608E-02  0.9038906E-01
         -2   -1    0    0    0  501 -0.00000000000E+00  0.00000000000E+00  0.36915168560E+03  0.36915168561E+03  0.25500000000E-02 0. -1.
          2   -1    0    0  501    0  0.00000000000E+00 -0.00000000000E+00 -0.11239845613E+04  0.11239845613E+04  0.25500000000E-02 0.  1.
    5000001    1    1    2    0    0  0.12272509610E+03  0.58445843127E+03 -0.20785341484E+03  0.66084805300E+03  0.19200000000E+03 0.  0.
   -5000001    1    1    2    0    0 -0.12272509610E+03 -0.58445843127E+03 -0.54697946083E+03  0.83228819388E+03  0.19200000000E+03 0.  0.
<mgrwt>
<rscale>  0 0.12882869E+04</rscale>
<asrwt>0</asrwt>
<pdfrwt beam="1">  1        2 0.16056922E+00 0.12882869E+04</pdfrwt>
<pdfrwt beam="2">  1       -2 0.52735956E-01 0.12882869E+04</pdfrwt>
<totfact> 0.78732025E+01</totfact>
</mgrwt>
</event>
<event>
 4    1  0.1896644E-005  0.1826304E+04  0.7818608E-02  0.8692435E-01
         -2   -1    0    0    0  501 -0.00000000000E+00  0.00000000000E+00  0.45706526219E+03  0.45706526220E+03  0.25500000000E-02 0. -1.
          2   -1    0    0  501    0  0.00000000000E+00 -0.00000000000E+00 -0.18243490584E+04  0.18243490584E+04  0.25500000000E-02 0.  1.
    5000001    1    1    2    0    0  0.56235144024E+03 -0.66056756896E+03 -0.94684612814E+03  0.12984491695E+04  0.19200000000E+03 0.  0.
   -5000001    1    1    2    0    0 -0.56235144024E+03  0.66056756896E+03 -0.42043766809E+03  0.98296515109E+03  0.19200000000E+03 0.  0.
<mgrwt>
<rscale>  0 0.18263040E+04</rscale>
<asrwt>0</asrwt>
<pdfrwt beam="1">  1        2 0.26062129E+00 0.18263040E+04</pdfrwt>
<pdfrwt beam="2">  1       -2 0.65295038E-01 0.18263040E+04</pdfrwt>
<totfact> 0.20194853E+01</totfact>
</mgrwt>
</event>
<event>
 4    1  0.1896644E-005  0.5752107E+03  0.7818608E-02  0.9958214E-01
         -2   -1    0    0    0  501 -0.00000000000E+00  0.00000000000E+00  0.13172402833E+03  0.13172402836E+03  0.25500000000E-02 0.  1.
          2   -1    0    0  501    0  0.00000000000E+00 -0.00000000000E+00 -0.62795551086E+03  0.62795551086E+03  0.25500000000E-02 0. -1.
    5000001    1    1    2    0    0  0.64268825206E+02  0.20148432374E+03 -0.20379033868E+03  0.35088590275E+03  0.19200000000E+03 0.  0.
   -5000001    1    1    2    0    0 -0.64268825206E+02 -0.20148432374E+03 -0.29244114385E+03  0.40879363647E+03  0.19200000000E+03 0.  0.
<mgrwt>
<rscale>  0 0.57521067E+03</rscale>
<asrwt>0</asrwt>
<pdfrwt beam="1">  1        2 0.89707929E-01 0.57521067E+03</pdfrwt>
<pdfrwt beam="2">  1       -2 0.18817719E-01 0.57521067E+03</pdfrwt>
<totfact> 0.12208419E+03</totfact>
</mgrwt>
</event>
<event>
 4    1  0.1896644E-005  0.4854930E+03  0.7818608E-02  0.1017636E+00
          2   -1    0    0  501    0  0.00000000000E+00  0.00000000000E+00  0.12759352072E+04  0.12759352072E+04  0.25500000000E-02 0.  1.
         -2   -1    0    0    0  501 -0.00000000000E+00 -0.00000000000E+00 -0.46182485929E+02  0.46182486000E+02  0.25500000000E-02 0. -1.
    5000001    1    1    2    0    0 -0.94373198749E+02 -0.86903369521E+02  0.41102596587E+03  0.47144972255E+03  0.19200000000E+03 0.  0.
   -5000001    1    1    2    0    0  0.94373198749E+02  0.86903369521E+02  0.81872675538E+03  0.85066797063E+03  0.19200000000E+03 0.  0.
<mgrwt>
<rscale>  0 0.48549299E+03</rscale>
<asrwt>0</asrwt>
<pdfrwt beam="1">  1        2 0.18227646E+00 0.48549299E+03</pdfrwt>
<pdfrwt beam="2">  1       -2 0.65974980E-02 0.48549299E+03</pdfrwt>
<totfact> 0.26073776E+03</totfact>
</mgrwt>
</event>
<event>
 4    1  0.1896644E-005  0.7896044E+03  0.7818608E-02  0.9575187E-01
         -2   -1    0    0    0  501 -0.00000000000E+00  0.00000000000E+00  0.11254601918E+03  0.11254601921E+03  0.25500000000E-02 0. -1.
          2   -1    0    0  501    0  0.00000000000E+00 -0.00000000000E+00 -0.13849337183E+04  0.13849337183E+04  0.25500000000E-02 0.  1.
    5000001    1    1    2    0    0 -0.36433753945E+02  0.33164455879E+03 -0.80249423132E+03  0.89004298946E+03  0.19200000000E+03 0.  0.
   -5000001    1    1    2    0    0  0.36433753945E+02 -0.33164455879E+03 -0.46989346781E+03  0.60743674806E+03  0.19200000000E+03 0.  0.
<mgrwt>
<rscale>  0 0.78960440E+03</rscale>
<asrwt>0</asrwt>
<pdfrwt beam="1">  1        2 0.19784766E+00 0.78960440E+03</pdfrwt>
<pdfrwt beam="2">  1       -2 0.16078004E-01 0.78960440E+03</pdfrwt>
<totfact> 0.52816272E+02</totfact>
</mgrwt>
</event>
<event>
 4    1  0.1896644E-005  0.5585789E+03  0.7818608E-02  0.9995275E-01
         -2   -1    0    0    0  501 -0.00000000000E+00  0.00000000000E+00  0.11559345066E+04  0.11559345066E+04  0.25500000000E-02 0. -1.
          2   -1    0    0  501    0  0.00000000000E+00 -0.00000000000E+00 -0.67480129586E+02  0.67480129634E+02  0.25500000000E-02 0.  1.
    5000001    1    1    2    0    0  0.71755298699E+02 -0.18947919800E+03  0.56470562983E+03  0.62992669234E+03  0.19200000000E+03 0.  0.
   -5000001    1    1    2    0    0 -0.71755298699E+02  0.18947919800E+03  0.52374874719E+03  0.59348794390E+03  0.19200000000E+03 0.  0.
<mgrwt>
<rscale>  0 0.55857895E+03</rscale>
<asrwt>0</asrwt>
<pdfrwt beam="1">  1        2 0.96400185E-02 0.55857895E+03</pdfrwt>
<pdfrwt beam="2">  1       -2 0.16513350E+00 0.55857895E+03</pdfrwt>
<totfact> 0.16401814E+02</totfact>
</mgrwt>
</event>
<event>
 4    1  0.1896644E-005  0.7713698E+03  0.7818608E-02  0.9602408E-01
         -2   -1    0    0    0  501 -0.00000000000E+00  0.00000000000E+00  0.99979348115E+03  0.99979348116E+03  0.25500000000E-02 0. -1.
          2   -1    0    0  501    0  0.00000000000E+00 -0.00000000000E+00 -0.14878355390E+03  0.14878355392E+03  0.25500000000E-02 0.  1.
    5000001    1    1    2    0    0 -0.33301137151E+03 -0.31422527164E+02  0.42221612743E+03  0.57185173519E+03  0.19200000000E+03 0.  0.
   -5000001    1    1    2    0    0  0.33301137151E+03  0.31422527164E+02  0.42879379982E+03  0.57672529989E+03  0.19200000000E+03 0.  0.
<mgrwt>
<rscale>  0 0.77136976E+03</rscale>
<asrwt>0</asrwt>
<pdfrwt beam="1">  1        2 0.21254793E-01 0.77136976E+03</pdfrwt>
<pdfrwt beam="2">  1       -2 0.14282764E+00 0.77136976E+03</pdfrwt>
<totfact> 0.91061074E+01</totfact>
</mgrwt>
</event>
<event>
 4    1  0.1896644E-005  0.1129881E+04  0.7818608E-02  0.9176547E-01
         -2   -1    0    0    0  501 -0.00000000000E+00  0.00000000000E+00  0.26698494148E+03  0.26698494149E+03  0.25500000000E-02 0. -1.
          2   -1    0    0  501    0  0.00000000000E+00 -0.00000000000E+00 -0.11954158383E+04  0.11954158383E+04  0.25500000000E-02 0.  1.
    5000001    1    1    2    0    0 -0.11550503401E+03  0.36085022051E+03 -0.94631192269E+03  0.10372678292E+04  0.19200000000E+03 0.  0.
   -5000001    1    1    2    0    0  0.11550503401E+03 -0.36085022051E+03  0.17881025923E+02  0.42513295052E+03  0.19200000000E+03 0.  0.
<mgrwt>
<rscale>  0 0.11298815E+04</rscale>
<asrwt>0</asrwt>
<pdfrwt beam="1">  1        2 0.17077369E+00 0.11298815E+04</pdfrwt>
<pdfrwt beam="2">  1       -2 0.38140706E-01 0.11298815E+04</pdfrwt>
<totfact> 0.13812439E+02</totfact>
</mgrwt>
</event>
<event>
 4    1  0.1896644E-005  0.5439288E+03  0.7818608E-02  0.1002909E+00
          2   -1    0    0  501    0  0.00000000000E+00  0.00000000000E+00  0.27218033263E+03  0.27218033264E+03  0.25500000000E-02 0.  1.
         -2   -1    0    0    0  501 -0.00000000000E+00 -0.00000000000E+00 -0.27174859132E+03  0.27174859133E+03  0.25500000000E-02 0. -1.
    5000001    1    1    2    0    0 -0.18816718323E+03  0.20820773959E+02  0.35715579185E+02  0.27199263973E+03  0.19200000000E+03 0.  0.
   -5000001    1    1    2    0    0  0.18816718323E+03 -0.20820773959E+02 -0.35283837873E+02  0.27193628424E+03  0.19200000000E+03 0.  0.
<mgrwt>
<rscale>  0 0.54392875E+03</rscale>
<asrwt>0</asrwt>
<pdfrwt beam="1">  1        2 0.38882905E-01 0.54392875E+03</pdfrwt>
<pdfrwt beam="2">  1       -2 0.38821227E-01 0.54392875E+03</pdfrwt>
<totfact> 0.83670279E+02</totfact>
</mgrwt>
</event>
<event>
 4    1  0.1896644E-005  0.6022663E+03  0.7818608E-02  0.9900715E-01
         -2   -1    0    0    0  501 -0.00000000000E+00  0.00000000000E+00  0.21190521716E+03  0.21190521718E+03  0.25500000000E-02 0. -1.
          2   -1    0    0  501    0  0.00000000000E+00 -0.00000000000E+00 -0.42793268138E+03  0.42793268139E+03  0.25500000000E-02 0.  1.
    5000001    1    1    2    0    0  0.15114601757E+02 -0.22394112687E+03 -0.45711576120E+02  0.29888397026E+03  0.19200000000E+03 0.  0.
   -5000001    1    1    2    0    0 -0.15114601757E+02  0.22394112687E+03 -0.17031588810E+03  0.34095392831E+03  0.19200000000E+03 0.  0.
<mgrwt>
<rscale>  0 0.60226628E+03</rscale>
<asrwt>0</asrwt>
<pdfrwt beam="1">  1        2 0.61133240E-01 0.60226628E+03</pdfrwt>
<pdfrwt beam="2">  1       -2 0.30272174E-01 0.60226628E+03</pdfrwt>
<totfact> 0.81092093E+02</totfact>
</mgrwt>
</event>
<event>
 4    1  0.1896644E-005  0.5247433E+03  0.7818608E-02  0.1007515E+00
         -2   -1    0    0    0  501 -0.00000000000E+00  0.00000000000E+00  0.83480641167E+02  0.83480641206E+02  0.25500000000E-02 0. -1.
          2   -1    0    0  501    0  0.00000000000E+00 -0.00000000000E+00 -0.82460899208E+03  0.82460899208E+03  0.25500000000E-02 0.  1.
    5000001    1    1    2    0    0 -0.16105074135E+03  0.72743578048E+02 -0.32330051744E+03  0.41547105075E+03  0.19200000000E+03 0.  0.
   -5000001    1    1    2    0    0  0.16105074135E+03 -0.72743578048E+02 -0.41782783347E+03  0.49261858254E+03  0.19200000000E+03 0.  0.
<mgrwt>
<rscale>  0 0.52474332E+03</rscale>
<asrwt>0</asrwt>
<pdfrwt beam="1">  1        2 0.11780128E+00 0.52474332E+03</pdfrwt>
<pdfrwt beam="2">  1       -2 0.11925806E-01 0.52474332E+03</pdfrwt>
<totfact> 0.18792299E+03</totfact>
</mgrwt>
</event>
<event>
 4    1  0.1896644E-005  0.5003488E+03  0.7818608E-02  0.1013688E+00
         -2   -1    0    0    0  501 -0.00000000000E+00  0.00000000000E+00  0.49442546223E+04  0.49442546223E+04  0.25500000000E-02 0. -1.
          2   -1    0    0  501    0  0.00000000000E+00 -0.00000000000E+00 -0.12658576887E+02  0.12658577144E+02  0.25500000000E-02 0.  1.
    5000001    1    1    2    0    0  0.74763367965E+02 -0.89244967849E+02  0.35586615931E+04  0.35657384312E+04  0.19200000000E+03 0.  0.
   -5000001    1    1    2    0    0 -0.74763367965E+02  0.89244967849E+02  0.13729344523E+04  0.13911747683E+04  0.19200000000E+03 0.  0.
<mgrwt>
<rscale>  0 0.50034879E+03</rscale>
<asrwt>0</asrwt>
<pdfrwt beam="1">  1        2 0.18083702E-02 0.50034879E+03</pdfrwt>
<pdfrwt beam="2">  1       -2 0.70632129E+00 0.50034879E+03</pdfrwt>
<totfact> 0.16321222E+00</totfact>
</mgrwt>
</event>
<event>
 4    1  0.1896644E-005  0.6375697E+03  0.7818608E-02  0.9830387E-01
          2   -1    0    0  501    0  0.00000000000E+00  0.00000000000E+00  0.80908314188E+03  0.80908314188E+03  0.25500000000E-02 0.  1.
         -2   -1    0    0    0  501 -0.00000000000E+00 -0.00000000000E+00 -0.12560364066E+03  0.12560364069E+03  0.25500000000E-02 0. -1.
    5000001    1    1    2    0    0  0.14099949992E+03  0.19846635485E+03  0.23311570293E+03  0.38791324280E+03  0.19200000000E+03 0.  0.
   -5000001    1    1    2    0    0 -0.14099949992E+03 -0.19846635485E+03  0.45036379828E+03  0.54677353977E+03  0.19200000000E+03 0.  0.
<mgrwt>
<rscale>  0 0.63756972E+03</rscale>
<asrwt>0</asrwt>
<pdfrwt beam="1">  1        2 0.11558330E+00 0.63756972E+03</pdfrwt>
<pdfrwt beam="2">  1       -2 0.17943378E-01 0.63756972E+03</pdfrwt>
<totfact> 0.96865690E+02</totfact>
</mgrwt>
</event>
<event>
 4    1  0.1896644E-005  0.9234132E+03  0.7818608E-02  0.9396778E-01
          2   -1    0    0  501    0  0.00000000000E+00  0.00000000000E+00  0.12581619566E+04  0.12581619566E+04  0.25500000000E-02 0.  1.
         -2   -1    0    0    0  501 -0.00000000000E+00 -0.00000000000E+00 -0.16943206032E+03  0.16943206034E+03  0.25500000000E-02 0. -1.
    5000001    1    1    2    0    0 -0.10813389481E+03 -0.14811018168E+03  0.11283332868E+04  0.11591503661E+04  0.19200000000E+03 0.  0.
   -5000001    1    1    2    0    0  0.10813389481E+03  0.14811018168E+03 -0.39603390538E+02  0.26844365082E+03  0.19200000000E+03 0.  0.
<mgrwt>
<rscale>  0 0.92341317E+03</rscale>
<asrwt>0</asrwt>
<pdfrwt beam="1">  1        2 0.17973742E+00 0.92341317E+03</pdfrwt>
<pdfrwt beam="2">  1       -2 0.24204581E-01 0.92341317E+03</pdfrwt>
<totfact> 0.30085395E+02</totfact>
</mgrwt>
</event>
<event>
 4    1  0.1896644E-005  0.7160716E+03  0.7818608E-02  0.9690136E-01
          2   -1    0    0  501    0  0.00000000000E+00  0.00000000000E+00  0.24611904223E+04  0.24611904223E+04  0.25500000000E-02 0.  1.
         -2   -1    0    0    0  501 -0.00000000000E+00 -0.00000000000E+00 -0.52084399057E+02  0.52084399119E+02  0.25500000000E-02 0. -1.
    5000001    1    1    2    0    0 -0.29820384812E+03 -0.36858261704E+02  0.10912803216E+04  0.11480595833E+04  0.19200000000E+03 0.  0.
   -5000001    1    1    2    0    0  0.29820384812E+03  0.36858261704E+02  0.13178257017E+04  0.13652152381E+04  0.19200000000E+03 0.  0.
<mgrwt>
<rscale>  0 0.71607157E+03</rscale>
<asrwt>0</asrwt>
<pdfrwt beam="1">  1        2 0.35159870E+00 0.71607157E+03</pdfrwt>
<pdfrwt beam="2">  1       -2 0.74406269E-02 0.71607157E+03</pdfrwt>
<totfact> 0.52790754E+02</totfact>
</mgrwt>
</event>
<event>
 4    1  0.1896644E-005  0.6629920E+03  0.7818608E-02  0.9782702E-01
         -2   -1    0    0    0  501 -0.00000000000E+00  0.00000000000E+00  0.39314892557E+02  0.39314892640E+02  0.25500000000E-02 0. -1.
          2   -1    0    0  501    0  0.00000000000E+00 -0.00000000000E+00 -0.27951135631E+04  0.27951135631E+04  0.25500000000E-02 0.  1.
    5000001    1    1    2    0    0  0.22388128263E+02  0.26571867797E+03 -0.11906693724E+04  0.12351782052E+04  0.19200000000E+03 0.  0.
   -5000001    1    1    2    0    0 -0.22388128263E+02 -0.26571867797E+03 -0.15651292981E+04  0.15992502506E+04  0.19200000000E+03 0.  0.
<mgrwt>
<rscale>  0 0.66299197E+03</rscale>
<asrwt>0</asrwt>
<pdfrwt beam="1">  1        2 0.39930181E+00 0.66299197E+03</pdfrwt>
<pdfrwt beam="2">  1       -2 0.56164150E-02 0.66299197E+03</pdfrwt>
<totfact> 0.55319519E+02</totfact>
</mgrwt>
</event>
<event>
 4    1  0.1896644E-005  0.6908175E+03  0.7818608E-02  0.9733066E-01
         -2   -1    0    0    0  501 -0.00000000000E+00  0.00000000000E+00  0.13012291476E+03  0.13012291479E+03  0.25500000000E-02 0. -1.
          2   -1    0    0  501    0  0.00000000000E+00 -0.00000000000E+00 -0.91688081574E+03  0.91688081574E+03  0.25500000000E-02 0.  1.
    5000001    1    1    2    0    0 -0.10658485801E+03 -0.20780056181E+03 -0.64654239753E+03  0.71373838152E+03  0.19200000000E+03 0.  0.
   -5000001    1    1    2    0    0  0.10658485801E+03  0.20780056181E+03 -0.14021550344E+03  0.33326534901E+03  0.19200000000E+03 0.  0.
<mgrwt>
<rscale>  0 0.69081750E+03</rscale>
<asrwt>0</asrwt>
<pdfrwt beam="1">  1        2 0.13098297E+00 0.69081750E+03</pdfrwt>
<pdfrwt beam="2">  1       -2 0.18588988E-01 0.69081750E+03</pdfrwt>
<totfact> 0.77170523E+02</totfact>
</mgrwt>
</event>
<event>
 4    1  0.1896644E-005  0.1151814E+04  0.7818608E-02  0.9156111E-01
         -2   -1    0    0    0  501 -0.00000000000E+00  0.00000000000E+00  0.24397873828E+03  0.24397873830E+03  0.25500000000E-02 0. -1.
          2   -1    0    0  501    0  0.00000000000E+00 -0.00000000000E+00 -0.13594182882E+04  0.13594182882E+04  0.25500000000E-02 0.  1.
    5000001    1    1    2    0    0  0.26457869750E+03  0.39481283891E+03 -0.92318862533E+03  0.10559452177E+04  0.19200000000E+03 0.  0.
   -5000001    1    1    2    0    0 -0.26457869750E+03 -0.39481283891E+03 -0.19225092462E+03  0.54745180879E+03  0.19200000000E+03 0.  0.
<mgrwt>
<rscale>  0 0.11518145E+04</rscale>
<asrwt>0</asrwt>
<pdfrwt beam="1">  1        2 0.19420261E+00 0.11518145E+04</pdfrwt>
<pdfrwt beam="2">  1       -2 0.34854106E-01 0.11518145E+04</pdfrwt>
<totfact> 0.13289225E+02</totfact>
</mgrwt>
</event>
<event>
 4    1  0.1896644E-005  0.4949248E+03  0.7818608E-02  0.1015112E+00
         -2   -1    0    0    0  501 -0.00000000000E+00  0.00000000000E+00  0.13452779283E+03  0.13452779285E+03  0.25500000000E-02 0. -1.
          2   -1    0    0  501    0  0.00000000000E+00 -0.00000000000E+00 -0.45520435656E+03  0.45520435657E+03  0.25500000000E-02 0.  1.
    5000001    1    1    2    0    0  0.41167303812E+02  0.14551048497E+03 -0.11410349639E+03  0.26972514904E+03  0.19200000000E+03 0.  0.
   -5000001    1    1    2    0    0 -0.41167303812E+02 -0.14551048497E+03 -0.20657306734E+03  0.32000700038E+03  0.19200000000E+03 0.  0.
<mgrwt>
<rscale>  0 0.49492479E+03</rscale>
<asrwt>0</asrwt>
<pdfrwt beam="1">  1        2 0.65029193E-01 0.49492479E+03</pdfrwt>
<pdfrwt beam="2">  1       -2 0.19218256E-01 0.49492479E+03</pdfrwt>
<totfact> 0.17033377E+03</totfact>
</mgrwt>
</event>
<event>
 4    1  0.1896644E-005  0.4655494E+03  0.7818608E-02  0.1023184E+00
          2   -1    0    0  501    0  0.00000000000E+00  0.00000000000E+00  0.18167308940E+03  0.18167308942E+03  0.25500000000E-02 0.  1.
         -2   -1    0    0    0  501 -0.00000000000E+00 -0.00000000000E+00 -0.29825031790E+03  0.29825031791E+03  0.25500000000E-02 0. -1.
    5000001    1    1    2    0    0  0.10776076430E+03  0.75120207050E+02 -0.66576034638E+02  0.24197478426E+03  0.19200000000E+03 0.  0.
   -5000001    1    1    2    0    0 -0.10776076430E+03 -0.75120207050E+02 -0.50001193864E+02  0.23794862306E+03  0.19200000000E+03 0.  0.
<mgrwt>
<rscale>  0 0.46554938E+03</rscale>
<asrwt>0</asrwt>
<pdfrwt beam="1">  1        2 0.25953299E-01 0.46554938E+03</pdfrwt>
<pdfrwt beam="2">  1       -2 0.42607188E-01 0.46554938E+03</pdfrwt>
<totfact> 0.10962336E+03</totfact>
</mgrwt>
</event>
<event>
 4    1  0.1896644E-005  0.6057096E+03  0.7818608E-02  0.9893631E-01
          2   -1    0    0  501    0  0.00000000000E+00  0.00000000000E+00  0.23991532305E+04  0.23991532305E+04  0.25500000000E-02 0.  1.
         -2   -1    0    0    0  501 -0.00000000000E+00 -0.00000000000E+00 -0.38230582206E+02  0.38230582291E+02  0.25500000000E-02 0. -1.
    5000001    1    1    2    0    0 -0.21052730812E+03 -0.22945065503E+02  0.15830397650E+04  0.16086413898E+04  0.19200000000E+03 0.  0.
   -5000001    1    1    2    0    0  0.21052730812E+03  0.22945065503E+02  0.77788288328E+03  0.82874242295E+03  0.19200000000E+03 0.  0.
<mgrwt>
<rscale>  0 0.60570958E+03</rscale>
<asrwt>0</asrwt>
<pdfrwt beam="1">  1        2 0.34273625E+00 0.60570958E+03</pdfrwt>
<pdfrwt beam="2">  1       -2 0.54615106E-02 0.60570958E+03</pdfrwt>
<totfact> 0.93184825E+02</totfact>
</mgrwt>
</event>
<event>
 4    1  0.1896644E-005  0.6817574E+03  0.7818608E-02  0.9748948E-01
         -2   -1    0    0    0  501 -0.00000000000E+00  0.00000000000E+00  0.16004504675E+03  0.16004504677E+03  0.25500000000E-02 0. -1.
          2   -1    0    0  501    0  0.00000000000E+00 -0.00000000000E+00 -0.72603486197E+03  0.72603486198E+03  0.25500000000E-02 0.  1.
    5000001    1    1    2    0    0  0.10315373401E+03  0.15347617467E+03 -0.68625240463E+01  0.26665843933E+03  0.19200000000E+03 0.  0.
   -5000001    1    1    2    0    0 -0.10315373401E+03 -0.15347617467E+03 -0.55912729118E+03  0.61942146941E+03  0.19200000000E+03 0.  0.
<mgrwt>
<rscale>  0 0.68175739E+03</rscale>
<asrwt>0</asrwt>
<pdfrwt beam="1">  1        2 0.10371926E+00 0.68175739E+03</pdfrwt>
<pdfrwt beam="2">  1       -2 0.22863578E-01 0.68175739E+03</pdfrwt>
<totfact> 0.72640879E+02</totfact>
</mgrwt>
</event>
<event>
 4    1  0.1896644E-005  0.7879242E+03  0.7818608E-02  0.9577663E-01
         -2   -1    0    0    0  501 -0.00000000000E+00  0.00000000000E+00  0.50053409007E+03  0.50053409008E+03  0.25500000000E-02 0. -1.
          2   -1    0    0  501    0  0.00000000000E+00 -0.00000000000E+00 -0.31008104454E+03  0.31008104455E+03  0.25500000000E-02 0.  1.
    5000001    1    1    2    0    0 -0.30617935011E+02  0.93481822961E+02 -0.24391171709E+03  0.32562744801E+03  0.19200000000E+03 0.  0.
   -5000001    1    1    2    0    0  0.30617935011E+02 -0.93481822961E+02  0.43436476262E+03  0.48498768662E+03  0.19200000000E+03 0.  0.
<mgrwt>
<rscale>  0 0.78792419E+03</rscale>
<asrwt>0</asrwt>
<pdfrwt beam="1">  1        2 0.44297292E-01 0.78792419E+03</pdfrwt>
<pdfrwt beam="2">  1       -2 0.71504871E-01 0.78792419E+03</pdfrwt>
<totfact> 0.20549984E+02</totfact>
</mgrwt>
</event>
<event>
 4    1  0.1896644E-005  0.6205479E+03  0.7818608E-02  0.9863669E-01
          2   -1    0    0  501    0  0.00000000000E+00  0.00000000000E+00  0.48002016342E+03  0.48002016343E+03  0.25500000000E-02 0.  1.
         -2   -1    0    0    0  501 -0.00000000000E+00 -0.00000000000E+00 -0.20055391369E+03  0.20055391370E+03  0.25500000000E-02 0. -1.
    5000001    1    1    2    0    0  0.23634357989E+03  0.48291272465E+02  0.10149529462E+03  0.32458531942E+03  0.19200000000E+03 0.  0.
   -5000001    1    1    2    0    0 -0.23634357989E+03 -0.48291272465E+02  0.17797095511E+03  0.35598875771E+03  0.19200000000E+03 0.  0.
<mgrwt>
<rscale>  0 0.62054789E+03</rscale>
<asrwt>0</asrwt>
<pdfrwt beam="1">  1        2 0.68574309E-01 0.62054789E+03</pdfrwt>
<pdfrwt beam="2">  1       -2 0.28650559E-01 0.62054789E+03</pdfrwt>
<totfact> 0.78853261E+02</totfact>
</mgrwt>
</event>
<event>
 4    1  0.1896644E-005  0.4692480E+03  0.7818608E-02  0.1022133E+00
         -2   -1    0    0    0  501 -0.00000000000E+00  0.00000000000E+00  0.40361902049E+02  0.40361902130E+02  0.25500000000E-02 0. -1.
          2   -1    0    0  501    0  0.00000000000E+00 -0.00000000000E+00 -0.13638708612E+04  0.13638708612E+04  0.25500000000E-02 0.  1.
    5000001    1    1    2    0    0 -0.11948853687E+03 -0.49584078193E+02 -0.54786841958E+03  0.59477718217E+03  0.19200000000E+03 0.  0.
   -5000001    1    1    2    0    0  0.11948853687E+03  0.49584078193E+02 -0.77564053960E+03  0.80945558119E+03  0.19200000000E+03 0.  0.
<mgrwt>
<rscale>  0 0.46924800E+03</rscale>
<asrwt>0</asrwt>
<pdfrwt beam="1">  1        2 0.19483867E+00 0.46924800E+03</pdfrwt>
<pdfrwt beam="2">  1       -2 0.57659868E-02 0.46924800E+03</pdfrwt>
<totfact> 0.28863653E+03</totfact>
</mgrwt>
</event>
<event>
 4    1  0.1896644E-005  0.4996581E+03  0.7818608E-02  0.1013868E+00
         -2   -1    0    0    0  501 -0.00000000000E+00  0.00000000000E+00  0.12810202227E+03  0.12810202230E+03  0.25500000000E-02 0. -1.
          2   -1    0    0  501    0  0.00000000000E+00 -0.00000000000E+00 -0.48722540415E+03  0.48722540415E+03  0.25500000000E-02 0.  1.
    5000001    1    1    2    0    0 -0.60840093806E+02 -0.14161335880E+03 -0.23173269009E+03  0.33811225955E+03  0.19200000000E+03 0.  0.
   -5000001    1    1    2    0    0  0.60840093806E+02  0.14161335880E+03 -0.12739069179E+03  0.27721516690E+03  0.19200000000E+03 0.  0.
<mgrwt>
<rscale>  0 0.49965812E+03</rscale>
<asrwt>0</asrwt>
<pdfrwt beam="1">  1        2 0.69603629E-01 0.49965812E+03</pdfrwt>
<pdfrwt beam="2">  1       -2 0.18300289E-01 0.49965812E+03</pdfrwt>
<totfact> 0.17169511E+03</totfact>
</mgrwt>
</event>
<event>
 4    1  0.1896644E-005  0.1019741E+04  0.7818608E-02  0.9287155E-01
          2   -1    0    0  501    0  0.00000000000E+00  0.00000000000E+00  0.50306739090E+03  0.50306739090E+03  0.25500000000E-02 0.  1.
         -2   -1    0    0    0  501 -0.00000000000E+00 -0.00000000000E+00 -0.51676522221E+03  0.51676522222E+03  0.25500000000E-02 0. -1.
    5000001    1    1    2    0    0  0.43666123000E+03 -0.28904200329E+02  0.17091764588E+03  0.50752864378E+03  0.19200000000E+03 0.  0.
   -5000001    1    1    2    0    0 -0.43666123000E+03  0.28904200329E+02 -0.18461547720E+03  0.51230396934E+03  0.19200000000E+03 0.  0.
<mgrwt>
<rscale>  0 0.10197406E+04</rscale>
<asrwt>0</asrwt>
<pdfrwt beam="1">  1        2 0.71866770E-01 0.10197406E+04</pdfrwt>
<pdfrwt beam="2">  1       -2 0.73823603E-01 0.10197406E+04</pdfrwt>
<totfact> 0.11007624E+02</totfact>
</mgrwt>
</event>
<event>
 4    1  0.1896644E-005  0.4613458E+03  0.7818608E-02  0.1024392E+00
         -2   -1    0    0    0  501 -0.00000000000E+00  0.00000000000E+00  0.18704562336E+03  0.18704562338E+03  0.25500000000E-02 0. -1.
          2   -1    0    0  501    0  0.00000000000E+00 -0.00000000000E+00 -0.28447599638E+03  0.28447599639E+03  0.25500000000E-02 0.  1.
    5000001    1    1    2    0    0  0.83430857644E+02 -0.41927648840E+02  0.40545862608E+02  0.21731682567E+03  0.19200000000E+03 0.  0.
   -5000001    1    1    2    0    0 -0.83430857644E+02  0.41927648840E+02 -0.13797623563E+03  0.25420479410E+03  0.19200000000E+03 0.  0.
<mgrwt>
<rscale>  0 0.46134581E+03</rscale>
<asrwt>0</asrwt>
<pdfrwt beam="1">  1        2 0.40639428E-01 0.46134581E+03</pdfrwt>
<pdfrwt beam="2">  1       -2 0.26720803E-01 0.46134581E+03</pdfrwt>
<totfact> 0.15979174E+03</totfact>
</mgrwt>
</event>
<event>
 4    1  0.1896644E-005  0.8737777E+03  0.7818608E-02  0.9458968E-01
          2   -1    0    0  501    0  0.00000000000E+00  0.00000000000E+00  0.11189859913E+04  0.11189859913E+04  0.25500000000E-02 0.  1.
         -2   -1    0    0    0  501 -0.00000000000E+00 -0.00000000000E+00 -0.17057573986E+03  0.17057573988E+03  0.25500000000E-02 0. -1.
    5000001    1    1    2    0    0  0.12297452062E+03  0.23787792665E+03  0.89759361917E+03  0.95616261477E+03  0.19200000000E+03 0.  0.
   -5000001    1    1    2    0    0 -0.12297452062E+03 -0.23787792665E+03  0.50816632265E+02  0.33339911641E+03  0.19200000000E+03 0.  0.
<mgrwt>
<rscale>  0 0.87377769E+03</rscale>
<asrwt>0</asrwt>
<pdfrwt beam="1">  1        2 0.15985514E+00 0.87377769E+03</pdfrwt>
<pdfrwt beam="2">  1       -2 0.24367964E-01 0.87377769E+03</pdfrwt>
<totfact> 0.35771802E+02</totfact>
</mgrwt>
</event>
<event>
 4    1  0.1896644E-005  0.9666732E+03  0.7818608E-02  0.9345872E-01
          2   -1    0    0  501    0  0.00000000000E+00  0.00000000000E+00  0.81755435713E+03  0.81755435714E+03  0.25500000000E-02 0.  1.
         -2   -1    0    0    0  501 -0.00000000000E+00 -0.00000000000E+00 -0.28574767935E+03  0.28574767936E+03  0.25500000000E-02 0. -1.
    5000001    1    1    2    0    0 -0.44297369988E+03  0.22780741622E+02  0.26320260071E+03  0.55034922549E+03  0.19200000000E+03 0.  0.
   -5000001    1    1    2    0    0  0.44297369988E+03 -0.22780741622E+02  0.26860407707E+03  0.55295281100E+03  0.19200000000E+03 0.  0.
<mgrwt>
<rscale>  0 0.96667318E+03</rscale>
<asrwt>0</asrwt>
<pdfrwt beam="1">  1        2 0.11679348E+00 0.96667318E+03</pdfrwt>
<pdfrwt beam="2">  1       -2 0.40821097E-01 0.96667318E+03</pdfrwt>
<totfact> 0.20969857E+02</totfact>
</mgrwt>
</event>
<event>
 4    1  0.1896644E-005  0.4236549E+03  0.7818608E-02  0.1035883E+00
          2   -1    0    0  501    0  0.00000000000E+00  0.00000000000E+00  0.24510650846E+03  0.24510650847E+03  0.25500000000E-02 0.  1.
         -2   -1    0    0    0  501 -0.00000000000E+00 -0.00000000000E+00 -0.18306678086E+03  0.18306678088E+03  0.25500000000E-02 0. -1.
    5000001    1    1    2    0    0  0.71741901367E+02  0.76707963769E+01 -0.22470195545E+02  0.20633625764E+03  0.19200000000E+03 0.  0.
   -5000001    1    1    2    0    0 -0.71741901367E+02 -0.76707963769E+01  0.84509923146E+02  0.22183703171E+03  0.19200000000E+03 0.  0.
<mgrwt>
<rscale>  0 0.42365486E+03</rscale>
<asrwt>0</asrwt>
<pdfrwt beam="1">  1        2 0.35015216E-01 0.42365486E+03</pdfrwt>
<pdfrwt beam="2">  1       -2 0.26152397E-01 0.42365486E+03</pdfrwt>
<totfact> 0.19547342E+03</totfact>
</mgrwt>
</event>
<event>
 4    1  0.1896644E-005  0.6318023E+03  0.7818608E-02  0.9841538E-01
         -2   -1    0    0    0  501 -0.00000000000E+00  0.00000000000E+00  0.13778426189E+04  0.13778426189E+04  0.25500000000E-02 0. -1.
          2   -1    0    0  501    0  0.00000000000E+00 -0.00000000000E+00 -0.72427379672E+02  0.72427379716E+02  0.25500000000E-02 0.  1.
    5000001    1    1    2    0    0  0.72935392322E+02  0.23610753126E+03  0.55362520853E+03  0.63594906187E+03  0.19200000000E+03 0.  0.
   -5000001    1    1    2    0    0 -0.72935392322E+02 -0.23610753126E+03  0.75179003065E+03  0.81432093671E+03  0.19200000000E+03 0.  0.
<mgrwt>
<rscale>  0 0.63180228E+03</rscale>
<asrwt>0</asrwt>
<pdfrwt beam="1">  1        2 0.10346769E-01 0.63180228E+03</pdfrwt>
<pdfrwt beam="2">  1       -2 0.19683465E+00 0.63180228E+03</pdfrwt>
<totfact> 0.90897596E+01</totfact>
</mgrwt>
</event>
<event>
 4    1  0.1896644E-005  0.8935366E+03  0.7818608E-02  0.9433697E-01
         -2   -1    0    0    0  501 -0.00000000000E+00  0.00000000000E+00  0.83222146282E+02  0.83222146321E+02  0.25500000000E-02 0. -1.
          2   -1    0    0  501    0  0.00000000000E+00 -0.00000000000E+00 -0.23984228015E+04  0.23984228015E+04  0.25500000000E-02 0.  1.
    5000001    1    1    2    0    0 -0.24018173181E+03 -0.32172399648E+03 -0.12667426091E+04  0.13426445665E+04  0.19200000000E+03 0.  0.
   -5000001    1    1    2    0    0  0.24018173181E+03  0.32172399648E+03 -0.10484580461E+04  0.11390003813E+04  0.19200000000E+03 0.  0.
<mgrwt>
<rscale>  0 0.89353655E+03</rscale>
<asrwt>0</asrwt>
<pdfrwt beam="1">  1        2 0.34263178E+00 0.89353655E+03</pdfrwt>
<pdfrwt beam="2">  1       -2 0.11888880E-01 0.89353655E+03</pdfrwt>
<totfact> 0.26223070E+02</totfact>
</mgrwt>
</event>
<event>
 4    1  0.1896644E-005  0.7610157E+03  0.7818608E-02  0.9618225E-01
         -2   -1    0    0    0  501 -0.00000000000E+00  0.00000000000E+00  0.26195414270E+03  0.26195414271E+03  0.25500000000E-02 0. -1.
          2   -1    0    0  501    0  0.00000000000E+00 -0.00000000000E+00 -0.55271596867E+03  0.55271596868E+03  0.25500000000E-02 0.  1.
    5000001    1    1    2    0    0  0.16771324799E+03 -0.19913041679E+03  0.69098387380E+02  0.33078579712E+03  0.19200000000E+03 0.  0.
   -5000001    1    1    2    0    0 -0.16771324799E+03  0.19913041679E+03 -0.35986021335E+03  0.48388431427E+03  0.19200000000E+03 0.  0.
<mgrwt>
<rscale>  0 0.76101574E+03</rscale>
<asrwt>0</asrwt>
<pdfrwt beam="1">  1        2 0.78959424E-01 0.76101574E+03</pdfrwt>
<pdfrwt beam="2">  1       -2 0.37422020E-01 0.76101574E+03</pdfrwt>
<totfact> 0.40463817E+02</totfact>
</mgrwt>
</event>
<event>
 4    1  0.1896644E-005  0.4268415E+03  0.7818608E-02  0.1034862E+00
          2   -1    0    0  501    0  0.00000000000E+00  0.00000000000E+00  0.35370852286E+03  0.35370852287E+03  0.25500000000E-02 0.  1.
         -2   -1    0    0    0  501 -0.00000000000E+00 -0.00000000000E+00 -0.12877389543E+03  0.12877389546E+03  0.25500000000E-02 0. -1.
    5000001    1    1    2    0    0 -0.59288861319E+02  0.61141430873E+02  0.15522672385E+03  0.26117576351E+03  0.19200000000E+03 0.  0.
   -5000001    1    1    2    0    0  0.59288861319E+02 -0.61141430873E+02  0.69707903571E+02  0.22130665482E+03  0.19200000000E+03 0.  0.
<mgrwt>
<rscale>  0 0.42684154E+03</rscale>
<asrwt>0</asrwt>
<pdfrwt beam="1">  1        2 0.50529789E-01 0.42684154E+03</pdfrwt>
<pdfrwt beam="2">  1       -2 0.18396271E-01 0.42684154E+03</pdfrwt>
<totfact> 0.24223426E+03</totfact>
</mgrwt>
</event>
<event>
 4    1  0.1896644E-005  0.1053514E+04  0.7818608E-02  0.9251723E-01
          2   -1    0    0  501    0  0.00000000000E+00  0.00000000000E+00  0.15185378396E+04  0.15185378396E+04  0.25500000000E-02 0.  1.
         -2   -1    0    0    0  501 -0.00000000000E+00 -0.00000000000E+00 -0.18272385997E+03  0.18272385999E+03  0.25500000000E-02 0. -1.
    5000001    1    1    2    0    0  0.30219030691E+03  0.13521708684E+03  0.83417058274E+02  0.39169509542E+03  0.19200000000E+03 0.  0.
   -5000001    1    1    2    0    0 -0.30219030691E+03 -0.13521708684E+03  0.12523969213E+04  0.13095666042E+04  0.19200000000E+03 0.  0.
<mgrwt>
<rscale>  0 0.10535143E+04</rscale>
<asrwt>0</asrwt>
<pdfrwt beam="1">  1        2 0.21693399E+00 0.10535143E+04</pdfrwt>
<pdfrwt beam="2">  1       -2 0.26103407E-01 0.10535143E+04</pdfrwt>
<totfact> 0.18825578E+02</totfact>
</mgrwt>
</event>
<event>
 4    1  0.1896644E-005  0.1306495E+04  0.7818608E-02  0.9024431E-01
          2   -1    0    0  501    0  0.00000000000E+00  0.00000000000E+00  0.61581339143E+03  0.61581339144E+03  0.25500000000E-02 0.  1.
         -2   -1    0    0    0  501 -0.00000000000E+00 -0.00000000000E+00 -0.69295680527E+03  0.69295680527E+03  0.25500000000E-02 0. -1.
    5000001    1    1    2    0    0 -0.40000830829E+03 -0.24179513252E+02 -0.51823423931E+03  0.68265805669E+03  0.19200000000E+03 0.  0.
   -5000001    1    1    2    0    0  0.40000830829E+03  0.24179513252E+02  0.44109082548E+03  0.62611214002E+03  0.19200000000E+03 0.  0.
<mgrwt>
<rscale>  0 0.13064947E+04</rscale>
<asrwt>0</asrwt>
<pdfrwt beam="1">  1        2 0.87973341E-01 0.13064947E+04</pdfrwt>
<pdfrwt beam="2">  1       -2 0.98993830E-01 0.13064947E+04</pdfrwt>
<totfact> 0.43670252E+01</totfact>
</mgrwt>
</event>
<event>
 4    1  0.1896644E-005  0.6185271E+03  0.7818608E-02  0.9867697E-01
         -2   -1    0    0    0  501 -0.00000000000E+00  0.00000000000E+00  0.62825347579E+02  0.62825347631E+02  0.25500000000E-02 0. -1.
          2   -1    0    0  501    0  0.00000000000E+00 -0.00000000000E+00 -0.15223782488E+04  0.15223782488E+04  0.25500000000E-02 0.  1.
    5000001    1    1    2    0    0  0.22208385368E+03  0.85517200490E+02 -0.84848770547E+03  0.90190344050E+03  0.19200000000E+03 0.  0.
   -5000001    1    1    2    0    0 -0.22208385368E+03 -0.85517200490E+02 -0.61106519577E+03  0.68330015595E+03  0.19200000000E+03 0.  0.
<mgrwt>
<rscale>  0 0.61852710E+03</rscale>
<asrwt>0</asrwt>
<pdfrwt beam="1">  1        2 0.21748258E+00 0.61852710E+03</pdfrwt>
<pdfrwt beam="2">  1       -2 0.89750506E-02 0.61852710E+03</pdfrwt>
<totfact> 0.11803160E+03</totfact>
</mgrwt>
</event>
<event>
 4    1  0.1896644E-005  0.4501321E+03  0.7818608E-02  0.1027683E+00
         -2   -1    0    0    0  501 -0.00000000000E+00  0.00000000000E+00  0.10351705653E+04  0.10351705653E+04  0.25500000000E-02 0. -1.
          2   -1    0    0  501    0  0.00000000000E+00 -0.00000000000E+00 -0.48933700084E+02  0.48933700150E+02  0.25500000000E-02 0.  1.
    5000001    1    1    2    0    0 -0.49615836148E+02  0.88352124179E+02  0.63606740689E+03  0.67209640316E+03  0.19200000000E+03 0.  0.
   -5000001    1    1    2    0    0  0.49615836148E+02 -0.88352124179E+02  0.35016945835E+03  0.41200786231E+03  0.19200000000E+03 0.  0.
<mgrwt>
<rscale>  0 0.45013210E+03</rscale>
<asrwt>0</asrwt>
<pdfrwt beam="1">  1        2 0.69905286E-02 0.45013210E+03</pdfrwt>
<pdfrwt beam="2">  1       -2 0.14788151E+00 0.45013210E+03</pdfrwt>
<totfact> 0.33394087E+02</totfact>
</mgrwt>
</event>
<event>
 4    1  0.1896644E-005  0.5197304E+03  0.7818608E-02  0.1008754E+00
         -2   -1    0    0    0  501 -0.00000000000E+00  0.00000000000E+00  0.30159565502E+02  0.30159565610E+02  0.25500000000E-02 0. -1.
          2   -1    0    0  501    0  0.00000000000E+00 -0.00000000000E+00 -0.22390881077E+04  0.22390881077E+04  0.25500000000E-02 0.  1.
    5000001    1    1    2    0    0 -0.14830145133E+03  0.90641356016E+02 -0.10111512126E+04  0.10437911432E+04  0.19200000000E+03 0.  0.
   -5000001    1    1    2    0    0  0.14830145133E+03 -0.90641356016E+02 -0.11977773295E+04  0.12254565300E+04  0.19200000000E+03 0.  0.
<mgrwt>
<rscale>  0 0.51973041E+03</rscale>
<asrwt>0</asrwt>
<pdfrwt beam="1">  1        2 0.31986962E+00 0.51973041E+03</pdfrwt>
<pdfrwt beam="2">  1       -2 0.43085108E-02 0.51973041E+03</pdfrwt>
<totfact> 0.16291938E+03</totfact>
</mgrwt>
</event>
<event>
 4    1  0.1896644E-005  0.6479906E+03  0.7818608E-02  0.9810557E-01
          2   -1    0    0  501    0  0.00000000000E+00  0.00000000000E+00  0.92507541624E+03  0.92507541624E+03  0.25500000000E-02 0.  1.
         -2   -1    0    0    0  501 -0.00000000000E+00 -0.00000000000E+00 -0.11347502934E+03  0.11347502936E+03  0.25500000000E-02 0. -1.
    5000001    1    1    2    0    0 -0.18816156124E+03 -0.11876258002E+03  0.62438053840E+03  0.69009012475E+03  0.19200000000E+03 0.  0.
   -5000001    1    1    2    0    0  0.18816156124E+03  0.11876258002E+03  0.18721984850E+03  0.34846032086E+03  0.19200000000E+03 0.  0.
<mgrwt>
<rscale>  0 0.64799062E+03</rscale>
<asrwt>0</asrwt>
<pdfrwt beam="1">  1        2 0.13215364E+00 0.64799062E+03</pdfrwt>
<pdfrwt beam="2">  1       -2 0.16210717E-01 0.64799062E+03</pdfrwt>
<totfact> 0.96530247E+02</totfact>
</mgrwt>
</event>
<event>
 4    1  0.1896644E-005  0.9190010E+03  0.7818608E-02  0.9402136E-01
         -2   -1    0    0    0  501 -0.00000000000E+00  0.00000000000E+00  0.91808223973E+02  0.91808224008E+02  0.25500000000E-02 0. -1.
          2   -1    0    0  501    0  0.00000000000E+00 -0.00000000000E+00 -0.22998016276E+04  0.22998016276E+04  0.25500000000E-02 0.  1.
    5000001    1    1    2    0    0 -0.47719967503E+01  0.35822937707E+03 -0.16616984244E+04  0.17106889583E+04  0.19200000000E+03 0.  0.
   -5000001    1    1    2    0    0  0.47719967503E+01 -0.35822937707E+03 -0.54629497920E+03  0.68092089324E+03  0.19200000000E+03 0.  0.
<mgrwt>
<rscale>  0 0.91900099E+03</rscale>
<asrwt>0</asrwt>
<pdfrwt beam="1">  1        2 0.32854305E+00 0.91900099E+03</pdfrwt>
<pdfrwt beam="2">  1       -2 0.13115462E-01 0.91900099E+03</pdfrwt>
<totfact> 0.24978675E+02</totfact>
</mgrwt>
</event>
<event>
 4    1  0.1896644E-005  0.4875133E+03  0.7818608E-02  0.1017090E+00
         -2   -1    0    0    0  501 -0.00000000000E+00  0.00000000000E+00  0.86204951840E+02  0.86204951878E+02  0.25500000000E-02 0. -1.
          2   -1    0    0  501    0  0.00000000000E+00 -0.00000000000E+00 -0.68925627362E+03  0.68925627363E+03  0.25500000000E-02 0.  1.
    5000001    1    1    2    0    0 -0.42900140343E+02 -0.10556658679E+03 -0.14593006060E+03  0.26672890521E+03  0.19200000000E+03 0.  0.
   -5000001    1    1    2    0    0  0.42900140343E+02  0.10556658679E+03 -0.45712126118E+03  0.50873232029E+03  0.19200000000E+03 0.  0.
<mgrwt>
<rscale>  0 0.48751330E+03</rscale>
<asrwt>0</asrwt>
<pdfrwt beam="1">  1        2 0.98465179E-01 0.48751330E+03</pdfrwt>
<pdfrwt beam="2">  1       -2 0.12314993E-01 0.48751330E+03</pdfrwt>
<totfact> 0.22285476E+03</totfact>
</mgrwt>
</event>
<event>
 4    1  0.1896644E-005  0.8102673E+03  0.7818608E-02  0.9545273E-01
         -2   -1    0    0    0  501 -0.00000000000E+00  0.00000000000E+00  0.50132183501E+03  0.50132183502E+03  0.25500000000E-02 0. -1.
          2   -1    0    0  501    0  0.00000000000E+00 -0.00000000000E+00 -0.32740098743E+03  0.32740098744E+03  0.25500000000E-02 0.  1.
    5000001    1    1    2    0    0 -0.29587792130E+03  0.54723061935E+02 -0.10905796767E+03  0.37322379095E+03  0.19200000000E+03 0.  0.
   -5000001    1    1    2    0    0  0.29587792130E+03 -0.54723061935E+02  0.28297881525E+03  0.45549903150E+03  0.19200000000E+03 0.  0.
<mgrwt>
<rscale>  0 0.81026727E+03</rscale>
<asrwt>0</asrwt>
<pdfrwt beam="1">  1        2 0.46771570E-01 0.81026727E+03</pdfrwt>
<pdfrwt beam="2">  1       -2 0.71617405E-01 0.81026727E+03</pdfrwt>
<totfact> 0.19263658E+02</totfact>
</mgrwt>
</event>
<event>
 4    1  0.1896644E-005  0.8168394E+03  0.7818608E-02  0.9535958E-01
         -2   -1    0    0    0  501 -0.00000000000E+00  0.00000000000E+00  0.11828668542E+03  0.11828668545E+03  0.25500000000E-02 0. -1.
          2   -1    0    0  501    0  0.00000000000E+00 -0.00000000000E+00 -0.14101896631E+04  0.14101896631E+04  0.25500000000E-02 0.  1.
    5000001    1    1    2    0    0 -0.29658661754E+03 -0.18435225550E+03 -0.81324715435E+03  0.90564027619E+03  0.19200000000E+03 0.  0.
   -5000001    1    1    2    0    0  0.29658661754E+03  0.18435225550E+03 -0.47865582331E+03  0.62283607233E+03  0.19200000000E+03 0.  0.
<mgrwt>
<rscale>  0 0.81683942E+03</rscale>
<asrwt>0</asrwt>
<pdfrwt beam="1">  1        2 0.20145566E+00 0.81683942E+03</pdfrwt>
<pdfrwt beam="2">  1       -2 0.16898099E-01 0.81683942E+03</pdfrwt>
<totfact> 0.46956220E+02</totfact>
</mgrwt>
</event>
<event>
 4    1  0.1896644E-005  0.5774233E+03  0.7818608E-02  0.9953385E-01
          2   -1    0    0  501    0  0.00000000000E+00  0.00000000000E+00  0.26443675160E+03  0.26443675161E+03  0.25500000000E-02 0.  1.
         -2   -1    0    0    0  501 -0.00000000000E+00 -0.00000000000E+00 -0.31521489843E+03  0.31521489844E+03  0.25500000000E-02 0. -1.
    5000001    1    1    2    0    0  0.14938646984E+03  0.13585133632E+03 -0.10130167952E+03  0.29647585606E+03  0.19200000000E+03 0.  0.
   -5000001    1    1    2    0    0 -0.14938646984E+03 -0.13585133632E+03  0.50523532681E+02  0.28317579400E+03  0.19200000000E+03 0.  0.
<mgrwt>
<rscale>  0 0.57742325E+03</rscale>
<asrwt>0</asrwt>
<pdfrwt beam="1">  1        2 0.37776679E-01 0.57742325E+03</pdfrwt>
<pdfrwt beam="2">  1       -2 0.45030699E-01 0.57742325E+03</pdfrwt>
<totfact> 0.64616286E+02</totfact>
</mgrwt>
</event>
<event>
 4    1  0.1896644E-005  0.5226252E+03  0.7818608E-02  0.1008036E+00
         -2   -1    0    0    0  501 -0.00000000000E+00  0.00000000000E+00  0.13185126261E+03  0.13185126264E+03  0.25500000000E-02 0. -1.
          2   -1    0    0  501    0  0.00000000000E+00 -0.00000000000E+00 -0.51788866728E+03  0.51788866728E+03  0.25500000000E-02 0.  1.
    5000001    1    1    2    0    0 -0.17475790399E+03 -0.23446424901E+02 -0.17042707564E+03  0.31144734380E+03  0.19200000000E+03 0.  0.
   -5000001    1    1    2    0    0  0.17475790399E+03  0.23446424901E+02 -0.21561032902E+03  0.33829258612E+03  0.19200000000E+03 0.  0.
<mgrwt>
<rscale>  0 0.52262520E+03</rscale>
<asrwt>0</asrwt>
<pdfrwt beam="1">  1        2 0.73984094E-01 0.52262520E+03</pdfrwt>
<pdfrwt beam="2">  1       -2 0.18835895E-01 0.52262520E+03</pdfrwt>
<totfact> 0.15248683E+03</totfact>
</mgrwt>
</event>
<event>
 4    1  0.1896644E-005  0.4180428E+03  0.7818608E-02  0.1037705E+00
          2   -1    0    0  501    0  0.00000000000E+00  0.00000000000E+00  0.96333533728E+02  0.96333533761E+02  0.25500000000E-02 0.  1.
         -2   -1    0    0    0  501 -0.00000000000E+00 -0.00000000000E+00 -0.45352794285E+03  0.45352794286E+03  0.25500000000E-02 0. -1.
    5000001    1    1    2    0    0  0.16296851202E+01  0.80687729564E+02 -0.20185961227E+03  0.29004218425E+03  0.19200000000E+03 0.  0.
   -5000001    1    1    2    0    0 -0.16296851202E+01 -0.80687729564E+02 -0.15533479685E+03  0.25981929237E+03  0.19200000000E+03 0.  0.
<mgrwt>
<rscale>  0 0.41804282E+03</rscale>
<asrwt>0</asrwt>
<pdfrwt beam="1">  1        2 0.13761934E-01 0.41804282E+03</pdfrwt>
<pdfrwt beam="2">  1       -2 0.64789705E-01 0.41804282E+03</pdfrwt>
<totfact> 0.98060230E+02</totfact>
</mgrwt>
</event>
<event>
 4    1  0.1896644E-005  0.8168959E+03  0.7818608E-02  0.9535878E-01
          2   -1    0    0  501    0  0.00000000000E+00  0.00000000000E+00  0.77904475456E+03  0.77904475456E+03  0.25500000000E-02 0.  1.
         -2   -1    0    0    0  501 -0.00000000000E+00 -0.00000000000E+00 -0.21414652285E+03  0.21414652286E+03  0.25500000000E-02 0. -1.
    5000001    1    1    2    0    0  0.23705507275E+03  0.21097003264E+03  0.74469802762E+02  0.37830307124E+03  0.19200000000E+03 0.  0.
   -5000001    1    1    2    0    0 -0.23705507275E+03 -0.21097003264E+03  0.49042842894E+03  0.61488820618E+03  0.19200000000E+03 0.  0.
<mgrwt>
<rscale>  0 0.81689589E+03</rscale>
<asrwt>0</asrwt>
<pdfrwt beam="1">  1        2 0.11129211E+00 0.81689589E+03</pdfrwt>
<pdfrwt beam="2">  1       -2 0.30592360E-01 0.81689589E+03</pdfrwt>
<totfact> 0.38972789E+02</totfact>
</mgrwt>
</event>
<event>
 4    1  0.1896644E-005  0.8452226E+03  0.7818608E-02  0.9496772E-01
         -2   -1    0    0    0  501 -0.00000000000E+00  0.00000000000E+00  0.63714230531E+03  0.63714230531E+03  0.25500000000E-02 0. -1.
          2   -1    0    0  501    0  0.00000000000E+00 -0.00000000000E+00 -0.28031463690E+03  0.28031463691E+03  0.25500000000E-02 0.  1.
    5000001    1    1    2    0    0 -0.15053806725E+03 -0.24954831251E+03 -0.80282150081E+02  0.35811352053E+03  0.19200000000E+03 0.  0.
   -5000001    1    1    2    0    0  0.15053806725E+03  0.24954831251E+03  0.43710981849E+03  0.55934342169E+03  0.19200000000E+03 0.  0.
<mgrwt>
<rscale>  0 0.84522261E+03</rscale>
<asrwt>0</asrwt>
<pdfrwt beam="1">  1        2 0.40044948E-01 0.84522261E+03</pdfrwt>
<pdfrwt beam="2">  1       -2 0.91020329E-01 0.84522261E+03</pdfrwt>
<totfact> 0.13321368E+02</totfact>
</mgrwt>
</event>
<event>
 4    1  0.1896644E-005  0.4741347E+03  0.7818608E-02  0.1020760E+00
          2   -1    0    0  501    0  0.00000000000E+00  0.00000000000E+00  0.41133132042E+03  0.41133132043E+03  0.25500000000E-02 0.  1.
         -2   -1    0    0    0  501 -0.00000000000E+00 -0.00000000000E+00 -0.13663176847E+03  0.13663176850E+03  0.25500000000E-02 0. -1.
    5000001    1    1    2    0    0  0.11044718536E+03  0.47027678170E+02  0.21847006809E+03  0.31464798414E+03  0.19200000000E+03 0.  0.
   -5000001    1    1    2    0    0 -0.11044718536E+03 -0.47027678170E+02  0.56229483857E+02  0.23331510479E+03  0.19200000000E+03 0.  0.
<mgrwt>
<rscale>  0 0.47413469E+03</rscale>
<asrwt>0</asrwt>
<pdfrwt beam="1">  1        2 0.58761618E-01 0.47413469E+03</pdfrwt>
<pdfrwt beam="2">  1       -2 0.19518824E-01 0.47413469E+03</pdfrwt>
<totfact> 0.18553588E+03</totfact>
</mgrwt>
</event>
<event>
 4    1  0.1896644E-005  0.6541327E+03  0.7818608E-02  0.9799055E-01
         -2   -1    0    0    0  501 -0.00000000000E+00  0.00000000000E+00  0.10061677262E+03  0.10061677265E+03  0.25500000000E-02 0. -1.
          2   -1    0    0  501    0  0.00000000000E+00 -0.00000000000E+00 -0.10631665512E+04  0.10631665512E+04  0.25500000000E-02 0.  1.
    5000001    1    1    2    0    0 -0.92734723171E+02 -0.13788984603E+03 -0.11452038551E+03  0.27855386771E+03  0.19200000000E+03 0.  0.
   -5000001    1    1    2    0    0  0.92734723171E+02  0.13788984603E+03 -0.84802939310E+03  0.88522945618E+03  0.19200000000E+03 0.  0.
<mgrwt>
<rscale>  0 0.65413267E+03</rscale>
<asrwt>0</asrwt>
<pdfrwt beam="1">  1        2 0.15188093E+00 0.65413267E+03</pdfrwt>
<pdfrwt beam="2">  1       -2 0.14373825E-01 0.65413267E+03</pdfrwt>
<totfact> 0.97292757E+02</totfact>
</mgrwt>
</event>
<event>
 4    1  0.1896644E-005  0.4351689E+03  0.7818608E-02  0.1032239E+00
          2   -1    0    0  501    0  0.00000000000E+00  0.00000000000E+00  0.11635221404E+03  0.11635221407E+03  0.25500000000E-02 0.  1.
         -2   -1    0    0    0  501 -0.00000000000E+00 -0.00000000000E+00 -0.40689371027E+03  0.40689371028E+03  0.25500000000E-02 0. -1.
    5000001    1    1    2    0    0  0.97893584956E+02  0.29423277275E+02 -0.15186761129E+03  0.26528598640E+03  0.19200000000E+03 0.  0.
   -5000001    1    1    2    0    0 -0.97893584956E+02 -0.29423277275E+02 -0.13867388494E+03  0.25795993795E+03  0.19200000000E+03 0.  0.
<mgrwt>
<rscale>  0 0.43516886E+03</rscale>
<asrwt>0</asrwt>
<pdfrwt beam="1">  1        2 0.16621745E-01 0.43516886E+03</pdfrwt>
<pdfrwt beam="2">  1       -2 0.58127672E-01 0.43516886E+03</pdfrwt>
<totfact> 0.98204725E+02</totfact>
</mgrwt>
</event>
<event>
 4    1  0.1896644E-005  0.4384187E+03  0.7818608E-02  0.1031233E+00
          2   -1    0    0  501    0  0.00000000000E+00  0.00000000000E+00  0.69353239741E+02  0.69353239787E+02  0.25500000000E-02 0.  1.
         -2   -1    0    0    0  501 -0.00000000000E+00 -0.00000000000E+00 -0.69286943368E+03  0.69286943369E+03  0.25500000000E-02 0. -1.
    5000001    1    1    2    0    0 -0.58609405815E+02  0.12730198972E+02 -0.16027645383E+03  0.25719576604E+03  0.19200000000E+03 0.  0.
   -5000001    1    1    2    0    0  0.58609405815E+02 -0.12730198972E+02 -0.46323974011E+03  0.50502690744E+03  0.19200000000E+03 0.  0.
<mgrwt>
<rscale>  0 0.43841870E+03</rscale>
<asrwt>0</asrwt>
<pdfrwt beam="1">  1        2 0.99076061E-02 0.43841870E+03</pdfrwt>
<pdfrwt beam="2">  1       -2 0.98981344E-01 0.43841870E+03</pdfrwt>
<totfact> 0.57328670E+02</totfact>
</mgrwt>
</event>
<event>
 4    1  0.1896644E-005  0.5700614E+03  0.7818608E-02  0.9969543E-01
          2   -1    0    0  501    0  0.00000000000E+00  0.00000000000E+00  0.14779662464E+04  0.14779662464E+04  0.25500000000E-02 0.  1.
         -2   -1    0    0    0  501 -0.00000000000E+00 -0.00000000000E+00 -0.54969117966E+02  0.54969118026E+02  0.25500000000E-02 0. -1.
    5000001    1    1    2    0    0 -0.17728501196E+02 -0.17269964087E+03  0.10323784457E+04  0.10643348725E+04  0.19200000000E+03 0.  0.
   -5000001    1    1    2    0    0  0.17728501196E+02  0.17269964087E+03  0.39061868270E+03  0.46860049187E+03  0.19200000000E+03 0.  0.
<mgrwt>
<rscale>  0 0.57006140E+03</rscale>
<asrwt>0</asrwt>
<pdfrwt beam="1">  1        2 0.21113803E+00 0.57006140E+03</pdfrwt>
<pdfrwt beam="2">  1       -2 0.78527314E-02 0.57006140E+03</pdfrwt>
<totfact> 0.15439937E+03</totfact>
</mgrwt>
</event>
<event>
 4    1  0.1896644E-005  0.9324707E+03  0.7818608E-02  0.9385878E-01
          2   -1    0    0  501    0  0.00000000000E+00  0.00000000000E+00  0.17338277104E+04  0.17338277104E+04  0.25500000000E-02 0.  1.
         -2   -1    0    0    0  501 -0.00000000000E+00 -0.00000000000E+00 -0.12537313997E+03  0.12537314000E+03  0.25500000000E-02 0. -1.
    5000001    1    1    2    0    0  0.61450554344E+02 -0.40776279187E+03  0.10081923144E+04  0.11060571449E+04  0.19200000000E+03 0.  0.
   -5000001    1    1    2    0    0 -0.61450554344E+02  0.40776279187E+03  0.60026225601E+03  0.75314370544E+03  0.19200000000E+03 0.  0.
<mgrwt>
<rscale>  0 0.93247075E+03</rscale>
<asrwt>0</asrwt>
<pdfrwt beam="1">  1        2 0.24768968E+00 0.93247075E+03</pdfrwt>
<pdfrwt beam="2">  1       -2 0.17910448E-01 0.93247075E+03</pdfrwt>
<totfact> 0.28578824E+02</totfact>
</mgrwt>
</event>
<event>
 4    1  0.1896644E-005  0.6195443E+03  0.7818608E-02  0.9865667E-01
         -2   -1    0    0    0  501 -0.00000000000E+00  0.00000000000E+00  0.83251641425E+02  0.83251641464E+02  0.25500000000E-02 0. -1.
          2   -1    0    0  501    0  0.00000000000E+00 -0.00000000000E+00 -0.11526352548E+04  0.11526352548E+04  0.25500000000E-02 0.  1.
    5000001    1    1    2    0    0 -0.30108533624E+02  0.24037482635E+03 -0.57499512051E+03  0.65281694949E+03  0.19200000000E+03 0.  0.
   -5000001    1    1    2    0    0  0.30108533624E+02 -0.24037482635E+03 -0.49438849284E+03  0.58306994675E+03  0.19200000000E+03 0.  0.
<mgrwt>
<rscale>  0 0.61954427E+03</rscale>
<asrwt>0</asrwt>
<pdfrwt beam="1">  1        2 0.16466217E+00 0.61954427E+03</pdfrwt>
<pdfrwt beam="2">  1       -2 0.11893092E-01 0.61954427E+03</pdfrwt>
<totfact> 0.11837268E+03</totfact>
</mgrwt>
</event>
<event>
 4    1  0.1896644E-005  0.6572421E+03  0.7818608E-02  0.9793284E-01
          2   -1    0    0  501    0  0.00000000000E+00  0.00000000000E+00  0.96274561566E+03  0.96274561566E+03  0.25500000000E-02 0.  1.
         -2   -1    0    0    0  501 -0.00000000000E+00 -0.00000000000E+00 -0.11217062722E+03  0.11217062725E+03  0.25500000000E-02 0. -1.
    5000001    1    1    2    0    0  0.16309438819E+03  0.20861769423E+03  0.47717827522E+03  0.57851899549E+03  0.19200000000E+03 0.  0.
   -5000001    1    1    2    0    0 -0.16309438819E+03 -0.20861769423E+03  0.37339671321E+03  0.49639724742E+03  0.19200000000E+03 0.  0.
<mgrwt>
<rscale>  0 0.65724205E+03</rscale>
<asrwt>0</asrwt>
<pdfrwt beam="1">  1        2 0.13753509E+00 0.65724205E+03</pdfrwt>
<pdfrwt beam="2">  1       -2 0.16024376E-01 0.65724205E+03</pdfrwt>
<totfact> 0.93185023E+02</totfact>
</mgrwt>
</event>
<event>
 4    1  0.1896644E-005  0.5113951E+03  0.7818608E-02  0.1010847E+00
         -2   -1    0    0    0  501 -0.00000000000E+00  0.00000000000E+00  0.41155367726E+02  0.41155367805E+02  0.25500000000E-02 0. -1.
          2   -1    0    0  501    0  0.00000000000E+00 -0.00000000000E+00 -0.15886444441E+04  0.15886444441E+04  0.25500000000E-02 0.  1.
    5000001    1    1    2    0    0 -0.15304488704E+02 -0.12479913799E+03 -0.41447566625E+03  0.47377540051E+03  0.19200000000E+03 0.  0.
   -5000001    1    1    2    0    0  0.15304488704E+02  0.12479913799E+03 -0.11330134101E+04  0.11560244114E+04  0.19200000000E+03 0.  0.
<mgrwt>
<rscale>  0 0.51139514E+03</rscale>
<asrwt>0</asrwt>
<pdfrwt beam="1">  1        2 0.22694917E+00 0.51139514E+03</pdfrwt>
<pdfrwt beam="2">  1       -2 0.58793393E-02 0.51139514E+03</pdfrwt>
<totfact> 0.21380786E+03</totfact>
</mgrwt>
</event>
<event>
 4    1  0.1896644E-005  0.8609314E+03  0.7818608E-02  0.9475782E-01
         -2   -1    0    0    0  501 -0.00000000000E+00  0.00000000000E+00  0.86511014710E+02  0.86511014748E+02  0.25500000000E-02 0. -1.
          2   -1    0    0  501    0  0.00000000000E+00 -0.00000000000E+00 -0.21419319205E+04  0.21419319205E+04  0.25500000000E-02 0.  1.
    5000001    1    1    2    0    0  0.25313131392E+03  0.25409913548E+03 -0.13918847806E+04  0.14501203658E+04  0.19200000000E+03 0.  0.
   -5000001    1    1    2    0    0 -0.25313131392E+03 -0.25409913548E+03 -0.66353612521E+03  0.77832256950E+03  0.19200000000E+03 0.  0.
<mgrwt>
<rscale>  0 0.86093137E+03</rscale>
<asrwt>0</asrwt>
<pdfrwt beam="1">  1        2 0.30599024E+00 0.86093137E+03</pdfrwt>
<pdfrwt beam="2">  1       -2 0.12358718E-01 0.86093137E+03</pdfrwt>
<totfact> 0.33343775E+02</totfact>
</mgrwt>
</event>
<event>
 4    1  0.1896644E-005  0.6389311E+03  0.7818608E-02  0.9827774E-01
         -2   -1    0    0    0  501 -0.00000000000E+00  0.00000000000E+00  0.37082903554E+02  0.37082903641E+02  0.25500000000E-02 0. -1.
          2   -1    0    0  501    0  0.00000000000E+00 -0.00000000000E+00 -0.27521644116E+04  0.27521644116E+04  0.25500000000E-02 0.  1.
    5000001    1    1    2    0    0  0.14049571440E+03 -0.42635576023E+02 -0.44560875510E+03  0.50693983936E+03  0.19200000000E+03 0.  0.
   -5000001    1    1    2    0    0 -0.14049571440E+03  0.42635576023E+02 -0.22694727529E+04  0.22823074759E+04  0.19200000000E+03 0.  0.
<mgrwt>
<rscale>  0 0.63893113E+03</rscale>
<asrwt>0</asrwt>
<pdfrwt beam="1">  1        2 0.39316621E+00 0.63893113E+03</pdfrwt>
<pdfrwt beam="2">  1       -2 0.52975594E-02 0.63893113E+03</pdfrwt>
<totfact> 0.63992014E+02</totfact>
</mgrwt>
</event>
<event>
 4    1  0.1896644E-005  0.7477720E+03  0.7818608E-02  0.9638852E-01
         -2   -1    0    0    0  501 -0.00000000000E+00  0.00000000000E+00  0.43035850136E+03  0.43035850136E+03  0.25500000000E-02 0.  1.
          2   -1    0    0  501    0  0.00000000000E+00 -0.00000000000E+00 -0.32482395527E+03  0.32482395528E+03  0.25500000000E-02 0. -1.
    5000001    1    1    2    0    0 -0.87070619160E+02 -0.22159653135E+03  0.26993417443E+03  0.40793966950E+03  0.19200000000E+03 0.  0.
   -5000001    1    1    2    0    0  0.87070619160E+02  0.22159653135E+03 -0.16439962835E+03  0.34724278715E+03  0.19200000000E+03 0.  0.
<mgrwt>
<rscale>  0 0.74777203E+03</rscale>
<asrwt>0</asrwt>
<pdfrwt beam="1">  1        2 0.46403422E-01 0.74777203E+03</pdfrwt>
<pdfrwt beam="2">  1       -2 0.61479786E-01 0.74777203E+03</pdfrwt>
<totfact> 0.27066228E+02</totfact>
</mgrwt>
</event>
<event>
 4    1  0.1896644E-005  0.4626474E+03  0.7818608E-02  0.1024016E+00
         -2   -1    0    0    0  501 -0.00000000000E+00  0.00000000000E+00  0.11895025072E+03  0.11895025074E+03  0.25500000000E-02 0. -1.
          2   -1    0    0  501    0  0.00000000000E+00 -0.00000000000E+00 -0.44985744403E+03  0.44985744403E+03  0.25500000000E-02 0.  1.
    5000001    1    1    2    0    0 -0.11315219343E+03  0.76707409932E+01 -0.89820191525E+02  0.24040367292E+03  0.19200000000E+03 0.  0.
   -5000001    1    1    2    0    0  0.11315219343E+03 -0.76707409932E+01 -0.24108700178E+03  0.32840402186E+03  0.19200000000E+03 0.  0.
<mgrwt>
<rscale>  0 0.46264741E+03</rscale>
<asrwt>0</asrwt>
<pdfrwt beam="1">  1        2 0.64265348E-01 0.46264741E+03</pdfrwt>
<pdfrwt beam="2">  1       -2 0.16992893E-01 0.46264741E+03</pdfrwt>
<totfact> 0.21293639E+03</totfact>
</mgrwt>
</event>
<event>
 4    1  0.1896644E-005  0.7547253E+03  0.7818608E-02  0.9627966E-01
         -2   -1    0    0    0  501 -0.00000000000E+00  0.00000000000E+00  0.39749459117E+03  0.39749459118E+03  0.25500000000E-02 0. -1.
          2   -1    0    0  501    0  0.00000000000E+00 -0.00000000000E+00 -0.35825030527E+03  0.35825030528E+03  0.25500000000E-02 0.  1.
    5000001    1    1    2    0    0  0.25604075385E+03  0.25055478096E+02 -0.17902407338E+03  0.36755715673E+03  0.19200000000E+03 0.  0.
   -5000001    1    1    2    0    0 -0.25604075385E+03 -0.25055478096E+02  0.21826835928E+03  0.38818773973E+03  0.19200000000E+03 0.  0.
<mgrwt>
<rscale>  0 0.75472527E+03</rscale>
<asrwt>0</asrwt>
<pdfrwt beam="1">  1        2 0.51178615E-01 0.75472527E+03</pdfrwt>
<pdfrwt beam="2">  1       -2 0.56784942E-01 0.75472527E+03</pdfrwt>
<totfact> 0.28682687E+02</totfact>
</mgrwt>
</event>
<event>
 4    1  0.1896644E-005  0.5011220E+03  0.7818608E-02  0.1013486E+00
         -2   -1    0    0    0  501 -0.00000000000E+00  0.00000000000E+00  0.69055825923E+02  0.69055825971E+02  0.25500000000E-02 0. -1.
          2   -1    0    0  501    0  0.00000000000E+00 -0.00000000000E+00 -0.90913141359E+03  0.90913141359E+03  0.25500000000E-02 0.  1.
    5000001    1    1    2    0    0  0.14293404934E+03 -0.68464303478E+02 -0.47522496384E+03  0.53648883452E+03  0.19200000000E+03 0.  0.
   -5000001    1    1    2    0    0 -0.14293404934E+03  0.68464303478E+02 -0.36485062383E+03  0.44169840505E+03  0.19200000000E+03 0.  0.
<mgrwt>
<rscale>  0 0.50112202E+03</rscale>
<asrwt>0</asrwt>
<pdfrwt beam="1">  1        2 0.12987591E+00 0.50112202E+03</pdfrwt>
<pdfrwt beam="2">  1       -2 0.98651185E-02 0.50112202E+03</pdfrwt>
<totfact> 0.22515071E+03</totfact>
</mgrwt>
</event>
<event>
 4    1  0.1896644E-005  0.5533804E+03  0.7818608E-02  0.1000715E+00
          2   -1    0    0  501    0  0.00000000000E+00  0.00000000000E+00  0.58221292881E+03  0.58221292882E+03  0.25500000000E-02 0.  1.
         -2   -1    0    0    0  501 -0.00000000000E+00 -0.00000000000E+00 -0.13149392297E+03  0.13149392300E+03  0.25500000000E-02 0. -1.
    5000001    1    1    2    0    0 -0.18394777735E+03  0.31155886859E+02  0.31551086698E+03  0.41378567068E+03  0.19200000000E+03 0.  0.
   -5000001    1    1    2    0    0  0.18394777735E+03 -0.31155886859E+02  0.13520813886E+03  0.29992118113E+03  0.19200000000E+03 0.  0.
<mgrwt>
<rscale>  0 0.55338038E+03</rscale>
<asrwt>0</asrwt>
<pdfrwt beam="1">  1        2 0.83173274E-01 0.55338038E+03</pdfrwt>
<pdfrwt beam="2">  1       -2 0.18784847E-01 0.55338038E+03</pdfrwt>
<totfact> 0.13386523E+03</totfact>
</mgrwt>
</event>
<event>
 4    1  0.1896644E-005  0.4490973E+03  0.7818608E-02  0.1027992E+00
          2   -1    0    0  501    0  0.00000000000E+00  0.00000000000E+00  0.73116020828E+03  0.73116020828E+03  0.25500000000E-02 0.  1.
         -2   -1    0    0    0  501 -0.00000000000E+00 -0.00000000000E+00 -0.68961750567E+02  0.68961750614E+02  0.25500000000E-02 0. -1.
    5000001    1    1    2    0    0  0.22229778687E+02 -0.10103915041E+03  0.42629550821E+03  0.47884750526E+03  0.19200000000E+03 0.  0.
   -5000001    1    1    2    0    0 -0.22229778687E+02  0.10103915041E+03  0.23590294951E+03  0.32127445364E+03  0.19200000000E+03 0.  0.
<mgrwt>
<rscale>  0 0.44909726E+03</rscale>
<asrwt>0</asrwt>
<pdfrwt beam="1">  1        2 0.10445147E+00 0.44909726E+03</pdfrwt>
<pdfrwt beam="2">  1       -2 0.98516780E-02 0.44909726E+03</pdfrwt>
<totfact> 0.29786553E+03</totfact>
</mgrwt>
</event>
<event>
 4    1  0.1896644E-005  0.1190826E+04  0.7818608E-02  0.9120925E-01
         -2   -1    0    0    0  501 -0.00000000000E+00  0.00000000000E+00  0.24819888018E+03  0.24819888019E+03  0.25500000000E-02 0. -1.
          2   -1    0    0  501    0  0.00000000000E+00 -0.00000000000E+00 -0.14283562062E+04  0.14283562062E+04  0.25500000000E-02 0.  1.
    5000001    1    1    2    0    0 -0.47986139642E+03 -0.26211564880E+03 -0.39765085431E+03  0.70282414234E+03  0.19200000000E+03 0.  0.
   -5000001    1    1    2    0    0  0.47986139642E+03  0.26211564880E+03 -0.78250647168E+03  0.97373094402E+03  0.19200000000E+03 0.  0.
<mgrwt>
<rscale>  0 0.11908256E+04</rscale>
<asrwt>0</asrwt>
<pdfrwt beam="1">  1        2 0.20405088E+00 0.11908256E+04</pdfrwt>
<pdfrwt beam="2">  1       -2 0.35456983E-01 0.11908256E+04</pdfrwt>
<totfact> 0.11771502E+02</totfact>
</mgrwt>
</event>
<event>
 4    1  0.1896644E-005  0.4792507E+03  0.7818608E-02  0.1019341E+00
         -2   -1    0    0    0  501 -0.00000000000E+00  0.00000000000E+00  0.13853448288E+03  0.13853448290E+03  0.25500000000E-02 0. -1.
          2   -1    0    0  501    0  0.00000000000E+00 -0.00000000000E+00 -0.41448382692E+03  0.41448382692E+03  0.25500000000E-02 0.  1.
    5000001    1    1    2    0    0  0.94094058991E+02 -0.54701954300E+02 -0.30280176869E+02  0.22277092461E+03  0.19200000000E+03 0.  0.
   -5000001    1    1    2    0    0 -0.94094058991E+02  0.54701954300E+02 -0.24566916717E+03  0.33024738521E+03  0.19200000000E+03 0.  0.
<mgrwt>
<rscale>  0 0.47925068E+03</rscale>
<asrwt>0</asrwt>
<pdfrwt beam="1">  1        2 0.59211975E-01 0.47925068E+03</pdfrwt>
<pdfrwt beam="2">  1       -2 0.19790641E-01 0.47925068E+03</pdfrwt>
<totfact> 0.17964321E+03</totfact>
</mgrwt>
</event>
<event>
 4    1  0.1896644E-005  0.5348313E+03  0.7818608E-02  0.1005067E+00
          2   -1    0    0  501    0  0.00000000000E+00  0.00000000000E+00  0.19126781536E+04  0.19126781536E+04  0.25500000000E-02 0.  1.
         -2   -1    0    0    0  501 -0.00000000000E+00 -0.00000000000E+00 -0.37387955305E+02  0.37387955392E+02  0.25500000000E-02 0. -1.
    5000001    1    1    2    0    0 -0.10782819067E+02  0.18477576593E+03  0.86575313880E+03  0.90589781443E+03  0.19200000000E+03 0.  0.
   -5000001    1    1    2    0    0  0.10782819067E+02 -0.18477576593E+03  0.10095370595E+04  0.10441682945E+04  0.19200000000E+03 0.  0.
<mgrwt>
<rscale>  0 0.53483128E+03</rscale>
<asrwt>0</asrwt>
<pdfrwt beam="1">  1        2 0.27323978E+00 0.53483128E+03</pdfrwt>
<pdfrwt beam="2">  1       -2 0.53411357E-02 0.53483128E+03</pdfrwt>
<totfact> 0.17019538E+03</totfact>
</mgrwt>
</event>
<event>
 4    1  0.1896644E-005  0.8506109E+03  0.7818608E-02  0.9489517E-01
          2   -1    0    0  501    0  0.00000000000E+00  0.00000000000E+00  0.34484260629E+03  0.34484260630E+03  0.25500000000E-02 0.  1.
         -2   -1    0    0    0  501 -0.00000000000E+00 -0.00000000000E+00 -0.52454287482E+03  0.52454287483E+03  0.25500000000E-02 0. -1.
    5000001    1    1    2    0    0 -0.36382467669E+03  0.66549807794E+02 -0.29832865705E+01  0.41673753405E+03  0.19200000000E+03 0.  0.
   -5000001    1    1    2    0    0  0.36382467669E+03 -0.66549807794E+02 -0.17671698196E+03  0.45264794708E+03  0.19200000000E+03 0.  0.
<mgrwt>
<rscale>  0 0.85061091E+03</rscale>
<asrwt>0</asrwt>
<pdfrwt beam="1">  1        2 0.49263230E-01 0.85061091E+03</pdfrwt>
<pdfrwt beam="2">  1       -2 0.74934696E-01 0.85061091E+03</pdfrwt>
<totfact> 0.16429735E+02</totfact>
</mgrwt>
</event>
<event>
 4    1  0.1896644E-005  0.4627408E+03  0.7818608E-02  0.1023989E+00
          2   -1    0    0  501    0  0.00000000000E+00  0.00000000000E+00  0.28833806732E+03  0.28833806734E+03  0.25500000000E-02 0.  1.
         -2   -1    0    0    0  501 -0.00000000000E+00 -0.00000000000E+00 -0.18565799462E+03  0.18565799464E+03  0.25500000000E-02 0. -1.
    5000001    1    1    2    0    0  0.11205444426E+03 -0.45589841996E+02  0.51473262698E+01  0.22699146931E+03  0.19200000000E+03 0.  0.
   -5000001    1    1    2    0    0 -0.11205444426E+03  0.45589841996E+02  0.97532746434E+02  0.24700459267E+03  0.19200000000E+03 0.  0.
<mgrwt>
<rscale>  0 0.46274082E+03</rscale>
<asrwt>0</asrwt>
<pdfrwt beam="1">  1        2 0.41191153E-01 0.46274082E+03</pdfrwt>
<pdfrwt beam="2">  1       -2 0.26522571E-01 0.46274082E+03</pdfrwt>
<totfact> 0.15957855E+03</totfact>
</mgrwt>
</event>
<event>
 4    1  0.1896644E-005  0.6553072E+03  0.7818608E-02  0.9796871E-01
         -2   -1    0    0    0  501 -0.00000000000E+00  0.00000000000E+00  0.48535184895E+02  0.48535184962E+02  0.25500000000E-02 0. -1.
          2   -1    0    0  501    0  0.00000000000E+00 -0.00000000000E+00 -0.22119390956E+04  0.22119390956E+04  0.25500000000E-02 0.  1.
    5000001    1    1    2    0    0 -0.65019563426E+02  0.25731054555E+03 -0.11076563621E+04  0.11550770004E+04  0.19200000000E+03 0.  0.
   -5000001    1    1    2    0    0  0.65019563426E+02 -0.25731054555E+03 -0.10557475486E+04  0.11053972801E+04  0.19200000000E+03 0.  0.
<mgrwt>
<rscale>  0 0.65530717E+03</rscale>
<asrwt>0</asrwt>
<pdfrwt beam="1">  1        2 0.31599123E+00 0.65530717E+03</pdfrwt>
<pdfrwt beam="2">  1       -2 0.69335993E-02 0.65530717E+03</pdfrwt>
<totfact> 0.79452966E+02</totfact>
</mgrwt>
</event>
<event>
 4    1  0.1896644E-005  0.5208114E+03  0.7818608E-02  0.1008485E+00
          2   -1    0    0  501    0  0.00000000000E+00  0.00000000000E+00  0.16667829637E+03  0.16667829639E+03  0.25500000000E-02 0.  1.
         -2   -1    0    0    0  501 -0.00000000000E+00 -0.00000000000E+00 -0.40683832647E+03  0.40683832648E+03  0.25500000000E-02 0. -1.
    5000001    1    1    2    0    0 -0.67250625618E+02 -0.16197165411E+03 -0.10491479916E+03  0.28040787875E+03  0.19200000000E+03 0.  0.
   -5000001    1    1    2    0    0  0.67250625618E+02  0.16197165411E+03 -0.13524523094E+03  0.29310874411E+03  0.19200000000E+03 0.  0.
<mgrwt>
<rscale>  0 0.52081136E+03</rscale>
<asrwt>0</asrwt>
<pdfrwt beam="1">  1        2 0.23811185E-01 0.52081136E+03</pdfrwt>
<pdfrwt beam="2">  1       -2 0.58119761E-01 0.52081136E+03</pdfrwt>
<totfact> 0.64630630E+02</totfact>
</mgrwt>
</event>
<event>
 4    1  0.1896644E-005  0.4783118E+03  0.7818608E-02  0.1019600E+00
          2   -1    0    0  501    0  0.00000000000E+00  0.00000000000E+00  0.16928626906E+03  0.16928626908E+03  0.25500000000E-02 0.  1.
         -2   -1    0    0    0  501 -0.00000000000E+00 -0.00000000000E+00 -0.33786293415E+03  0.33786293416E+03  0.25500000000E-02 0. -1.
    5000001    1    1    2    0    0  0.58785093411E+02  0.73564367640E+02 -0.19781439677E+03  0.29131072579E+03  0.19200000000E+03 0.  0.
   -5000001    1    1    2    0    0 -0.58785093411E+02 -0.73564367640E+02  0.29237731682E+02  0.21583847745E+03  0.19200000000E+03 0.  0.
<mgrwt>
<rscale>  0 0.47831185E+03</rscale>
<asrwt>0</asrwt>
<pdfrwt beam="1">  1        2 0.24183753E-01 0.47831185E+03</pdfrwt>
<pdfrwt beam="2">  1       -2 0.48266133E-01 0.47831185E+03</pdfrwt>
<totfact> 0.92814079E+02</totfact>
</mgrwt>
</event>
<event>
 4    1  0.1896644E-005  0.4242301E+03  0.7818608E-02  0.1035698E+00
          2   -1    0    0  501    0  0.00000000000E+00  0.00000000000E+00  0.13598304091E+03  0.13598304094E+03  0.25500000000E-02 0.  1.
         -2   -1    0    0    0  501 -0.00000000000E+00 -0.00000000000E+00 -0.33087063656E+03  0.33087063657E+03  0.25500000000E-02 0. -1.
    5000001    1    1    2    0    0  0.73012100218E+02 -0.14898402502E+02 -0.15329825112E+03  0.25674322381E+03  0.19200000000E+03 0.  0.
   -5000001    1    1    2    0    0 -0.73012100218E+02  0.14898402502E+02 -0.41589344531E+02  0.21011045370E+03  0.19200000000E+03 0.  0.
<mgrwt>
<rscale>  0 0.42423010E+03</rscale>
<asrwt>0</asrwt>
<pdfrwt beam="1">  1        2 0.19426149E-01 0.42423010E+03</pdfrwt>
<pdfrwt beam="2">  1       -2 0.47267234E-01 0.42423010E+03</pdfrwt>
<totfact> 0.12447213E+03</totfact>
</mgrwt>
</event>
<event>
 4    1  0.1896644E-005  0.5749746E+03  0.7818608E-02  0.9958731E-01
         -2   -1    0    0    0  501 -0.00000000000E+00  0.00000000000E+00  0.24860240637E+03  0.24860240638E+03  0.25500000000E-02 0. -1.
          2   -1    0    0  501    0  0.00000000000E+00 -0.00000000000E+00 -0.33245436213E+03  0.33245436214E+03  0.25500000000E-02 0.  1.
    5000001    1    1    2    0    0  0.25114918388E+02  0.18145529576E+03  0.69824821332E+02  0.27440169307E+03  0.19200000000E+03 0.  0.
   -5000001    1    1    2    0    0 -0.25114918388E+02 -0.18145529576E+03 -0.15367677710E+03  0.30665507546E+03  0.19200000000E+03 0.  0.
<mgrwt>
<rscale>  0 0.57497462E+03</rscale>
<asrwt>0</asrwt>
<pdfrwt beam="1">  1        2 0.47493481E-01 0.57497462E+03</pdfrwt>
<pdfrwt beam="2">  1       -2 0.35514629E-01 0.57497462E+03</pdfrwt>
<totfact> 0.79556252E+02</totfact>
</mgrwt>
</event>
<event>
 4    1  0.1896644E-005  0.7255753E+03  0.7818608E-02  0.9674468E-01
          2   -1    0    0  501    0  0.00000000000E+00  0.00000000000E+00  0.60465820596E+03  0.60465820597E+03  0.25500000000E-02 0.  1.
         -2   -1    0    0    0  501 -0.00000000000E+00 -0.00000000000E+00 -0.21766823180E+03  0.21766823182E+03  0.25500000000E-02 0. -1.
    5000001    1    1    2    0    0  0.25236514111E+03  0.37691215321E+02  0.38862144936E+03  0.50299048010E+03  0.19200000000E+03 0.  0.
   -5000001    1    1    2    0    0 -0.25236514111E+03 -0.37691215321E+02 -0.16314752034E+01  0.31933595769E+03  0.19200000000E+03 0.  0.
<mgrwt>
<rscale>  0 0.72557531E+03</rscale>
<asrwt>0</asrwt>
<pdfrwt beam="1">  1        2 0.86379746E-01 0.72557531E+03</pdfrwt>
<pdfrwt beam="2">  1       -2 0.31095461E-01 0.72557531E+03</pdfrwt>
<totfact> 0.51765530E+02</totfact>
</mgrwt>
</event>
<event>
 4    1  0.1896644E-005  0.6001349E+03  0.7818608E-02  0.9905126E-01
          2   -1    0    0  501    0  0.00000000000E+00  0.00000000000E+00  0.73717883554E+03  0.73717883554E+03  0.25500000000E-02 0.  1.
         -2   -1    0    0    0  501 -0.00000000000E+00 -0.00000000000E+00 -0.12214198448E+03  0.12214198450E+03  0.25500000000E-02 0. -1.
    5000001    1    1    2    0    0 -0.10742059233E+03 -0.20354525316E+03  0.28693558158E+03  0.41492876704E+03  0.19200000000E+03 0.  0.
   -5000001    1    1    2    0    0  0.10742059233E+03  0.20354525316E+03  0.32810126948E+03  0.44439205300E+03  0.19200000000E+03 0.  0.
<mgrwt>
<rscale>  0 0.60013494E+03</rscale>
<asrwt>0</asrwt>
<pdfrwt beam="1">  1        2 0.10531127E+00 0.60013494E+03</pdfrwt>
<pdfrwt beam="2">  1       -2 0.17448854E-01 0.60013494E+03</pdfrwt>
<totfact> 0.11438787E+03</totfact>
</mgrwt>
</event>
<event>
 4    1  0.1896644E-005  0.9037260E+03  0.7818608E-02  0.9420936E-01
         -2   -1    0    0    0  501 -0.00000000000E+00  0.00000000000E+00  0.12949430957E+03  0.12949430960E+03  0.25500000000E-02 0. -1.
          2   -1    0    0  501    0  0.00000000000E+00 -0.00000000000E+00 -0.15767502040E+04  0.15767502040E+04  0.25500000000E-02 0.  1.
    5000001    1    1    2    0    0 -0.26784592003E+03 -0.30287454893E+03 -0.60660554192E+03  0.75386252909E+03  0.19200000000E+03 0.  0.
   -5000001    1    1    2    0    0  0.26784592003E+03  0.30287454893E+03 -0.84065035254E+03  0.95238198455E+03  0.19200000000E+03 0.  0.
<mgrwt>
<rscale>  0 0.90372602E+03</rscale>
<asrwt>0</asrwt>
<pdfrwt beam="1">  1        2 0.22525002E+00 0.90372602E+03</pdfrwt>
<pdfrwt beam="2">  1       -2 0.18499188E-01 0.90372602E+03</pdfrwt>
<totfact> 0.32645449E+02</totfact>
</mgrwt>
</event>
<event>
 4    1  0.1896644E-005  0.4759933E+03  0.7818608E-02  0.1020242E+00
          2   -1    0    0  501    0  0.00000000000E+00  0.00000000000E+00  0.18591350108E+04  0.18591350108E+04  0.25500000000E-02 0.  1.
         -2   -1    0    0    0  501 -0.00000000000E+00 -0.00000000000E+00 -0.30467080231E+02  0.30467080338E+02  0.25500000000E-02 0. -1.
    5000001    1    1    2    0    0  0.12047586890E+03  0.59781246021E+02  0.75112786721E+03  0.78685786853E+03  0.19200000000E+03 0.  0.
   -5000001    1    1    2    0    0 -0.12047586890E+03 -0.59781246021E+02  0.10775400634E+04  0.11027442226E+04  0.19200000000E+03 0.  0.
<mgrwt>
<rscale>  0 0.47599334E+03</rscale>
<asrwt>0</asrwt>
<pdfrwt beam="1">  1        2 0.26559070E+00 0.47599334E+03</pdfrwt>
<pdfrwt beam="2">  1       -2 0.43524402E-02 0.47599334E+03</pdfrwt>
<totfact> 0.24878341E+03</totfact>
</mgrwt>
</event>
<event>
 4    1  0.1896644E-005  0.5609233E+03  0.7818608E-02  0.9989968E-01
         -2   -1    0    0    0  501 -0.00000000000E+00  0.00000000000E+00  0.59680455436E+02  0.59680455490E+02  0.25500000000E-02 0. -1.
          2   -1    0    0  501    0  0.00000000000E+00 -0.00000000000E+00 -0.13179984828E+04  0.13179984828E+04  0.25500000000E-02 0.  1.
    5000001    1    1    2    0    0  0.18684273678E+03 -0.62830304638E+02 -0.76226226417E+03  0.81041076921E+03  0.19200000000E+03 0.  0.
   -5000001    1    1    2    0    0 -0.18684273678E+03  0.62830304638E+02 -0.49605576323E+03  0.56726816913E+03  0.19200000000E+03 0.  0.
<mgrwt>
<rscale>  0 0.56092335E+03</rscale>
<asrwt>0</asrwt>
<pdfrwt beam="1">  1        2 0.18828548E+00 0.56092335E+03</pdfrwt>
<pdfrwt beam="2">  1       -2 0.85257802E-02 0.56092335E+03</pdfrwt>
<totfact> 0.16469272E+03</totfact>
</mgrwt>
</event>
<event>
 4    1  0.1896644E-005  0.5236383E+03  0.7818608E-02  0.1007787E+00
         -2   -1    0    0    0  501 -0.00000000000E+00  0.00000000000E+00  0.13901138214E+03  0.13901138216E+03  0.25500000000E-02 0. -1.
          2   -1    0    0  501    0  0.00000000000E+00 -0.00000000000E+00 -0.49311974730E+03  0.49311974731E+03  0.25500000000E-02 0.  1.
    5000001    1    1    2    0    0 -0.76675574912E+02 -0.85755800702E+02 -0.34103694269E+03  0.40792572537E+03  0.19200000000E+03 0.  0.
   -5000001    1    1    2    0    0  0.76675574912E+02  0.85755800702E+02 -0.13071422471E+02  0.22420540410E+03  0.19200000000E+03 0.  0.
<mgrwt>
<rscale>  0 0.52363826E+03</rscale>
<asrwt>0</asrwt>
<pdfrwt beam="1">  1        2 0.70445677E-01 0.52363826E+03</pdfrwt>
<pdfrwt beam="2">  1       -2 0.19858769E-01 0.52363826E+03</pdfrwt>
<totfact> 0.14712004E+03</totfact>
</mgrwt>
</event>
<event>
 4    1  0.1896644E-005  0.7339572E+03  0.7818608E-02  0.9660861E-01
          2   -1    0    0  501    0  0.00000000000E+00  0.00000000000E+00  0.16936713985E+04  0.16936713985E+04  0.25500000000E-02 0.  1.
         -2   -1    0    0    0  501 -0.00000000000E+00 -0.00000000000E+00 -0.79515594031E+02  0.79515594072E+02  0.25500000000E-02 0. -1.
    5000001    1    1    2    0    0 -0.30828729748E+03 -0.69528414310E+01  0.68108116802E+03  0.77189698614E+03  0.19200000000E+03 0.  0.
   -5000001    1    1    2    0    0  0.30828729748E+03  0.69528414310E+01  0.93307463647E+03  0.10012900064E+04  0.19200000000E+03 0.  0.
<mgrwt>
<rscale>  0 0.73395719E+03</rscale>
<asrwt>0</asrwt>
<pdfrwt beam="1">  1        2 0.24195304E+00 0.73395719E+03</pdfrwt>
<pdfrwt beam="2">  1       -2 0.11359371E-01 0.73395719E+03</pdfrwt>
<totfact> 0.65301291E+02</totfact>
</mgrwt>
</event>
<event>
 4    1  0.1896644E-005  0.4684779E+03  0.7818608E-02  0.1022351E+00
          2   -1    0    0  501    0  0.00000000000E+00  0.00000000000E+00  0.93932245753E+03  0.93932245753E+03  0.25500000000E-02 0.  1.
         -2   -1    0    0    0  501 -0.00000000000E+00 -0.00000000000E+00 -0.58412204973E+02  0.58412205029E+02  0.25500000000E-02 0. -1.
    5000001    1    1    2    0    0 -0.56172338092E+02 -0.11278195900E+03  0.34219151027E+03  0.41210936843E+03  0.19200000000E+03 0.  0.
   -5000001    1    1    2    0    0  0.56172338092E+02  0.11278195900E+03  0.53871874228E+03  0.58562529413E+03  0.19200000000E+03 0.  0.
<mgrwt>
<rscale>  0 0.46847794E+03</rscale>
<asrwt>0</asrwt>
<pdfrwt beam="1">  1        2 0.13418892E+00 0.46847794E+03</pdfrwt>
<pdfrwt beam="2">  1       -2 0.83446010E-02 0.46847794E+03</pdfrwt>
<totfact> 0.28166065E+03</totfact>
</mgrwt>
</event>
<event>
 4    1  0.1896644E-005  0.4286409E+03  0.7818608E-02  0.1034290E+00
          2   -1    0    0  501    0  0.00000000000E+00  0.00000000000E+00  0.85777543061E+02  0.85777543099E+02  0.25500000000E-02 0.  1.
         -2   -1    0    0    0  501 -0.00000000000E+00 -0.00000000000E+00 -0.53549288720E+03  0.53549288720E+03  0.25500000000E-02 0. -1.
    5000001    1    1    2    0    0  0.90610150769E+02  0.25606188987E+02 -0.24552810412E+03  0.32559779829E+03  0.19200000000E+03 0.  0.
   -5000001    1    1    2    0    0 -0.90610150769E+02 -0.25606188987E+02 -0.20418724001E+03  0.29567263201E+03  0.19200000000E+03 0.  0.
<mgrwt>
<rscale>  0 0.42864094E+03</rscale>
<asrwt>0</asrwt>
<pdfrwt beam="1">  1        2 0.12253935E-01 0.42864094E+03</pdfrwt>
<pdfrwt beam="2">  1       -2 0.76498982E-01 0.42864094E+03</pdfrwt>
<totfact> 0.78901906E+02</totfact>
</mgrwt>
</event>
<event>
 4    1  0.1896644E-005  0.1318109E+04  0.7818608E-02  0.9015327E-01
         -2   -1    0    0    0  501 -0.00000000000E+00  0.00000000000E+00  0.45536132248E+03  0.45536132248E+03  0.25500000000E-02 0. -1.
          2   -1    0    0  501    0  0.00000000000E+00 -0.00000000000E+00 -0.95386368534E+03  0.95386368535E+03  0.25500000000E-02 0.  1.
    5000001    1    1    2    0    0 -0.12377952570E+03  0.54398692337E+03  0.64725434264E+02  0.59354572328E+03  0.19200000000E+03 0.  0.
   -5000001    1    1    2    0    0  0.12377952570E+03 -0.54398692337E+03 -0.56322779713E+03  0.81567928455E+03  0.19200000000E+03 0.  0.
<mgrwt>
<rscale>  0 0.13181087E+04</rscale>
<asrwt>0</asrwt>
<pdfrwt beam="1">  1        2 0.13626624E+00 0.13181087E+04</pdfrwt>
<pdfrwt beam="2">  1       -2 0.65051618E-01 0.13181087E+04</pdfrwt>
<totfact> 0.64125418E+01</totfact>
</mgrwt>
</event>
<event>
 4    1  0.1896644E-005  0.4694564E+03  0.7818608E-02  0.1022074E+00
         -2   -1    0    0    0  501 -0.00000000000E+00  0.00000000000E+00  0.10885555705E+03  0.10885555708E+03  0.25500000000E-02 0. -1.
          2   -1    0    0  501    0  0.00000000000E+00 -0.00000000000E+00 -0.50615071499E+03  0.50615071499E+03  0.25500000000E-02 0.  1.
    5000001    1    1    2    0    0  0.11938742659E+03 -0.60964439831E+02 -0.17739029957E+03  0.29377089532E+03  0.19200000000E+03 0.  0.
   -5000001    1    1    2    0    0 -0.11938742659E+03  0.60964439831E+02 -0.21990485836E+03  0.32123537676E+03  0.19200000000E+03 0.  0.
<mgrwt>
<rscale>  0 0.46945636E+03</rscale>
<asrwt>0</asrwt>
<pdfrwt beam="1">  1        2 0.72307244E-01 0.46945636E+03</pdfrwt>
<pdfrwt beam="2">  1       -2 0.15550794E-01 0.46945636E+03</pdfrwt>
<totfact> 0.21673068E+03</totfact>
</mgrwt>
</event>
<event>
 4    1  0.1896644E-005  0.8782608E+03  0.7818608E-02  0.9453172E-01
         -2   -1    0    0    0  501 -0.00000000000E+00  0.00000000000E+00  0.18336161129E+03  0.18336161131E+03  0.25500000000E-02 0. -1.
          2   -1    0    0  501    0  0.00000000000E+00 -0.00000000000E+00 -0.10516677311E+04  0.10516677311E+04  0.25500000000E-02 0.  1.
    5000001    1    1    2    0    0 -0.39297437194E+03 -0.28163278984E+02 -0.39565589595E+03  0.59044865592E+03  0.19200000000E+03 0.  0.
   -5000001    1    1    2    0    0  0.39297437194E+03  0.28163278984E+02 -0.47265022386E+03  0.64458068649E+03  0.19200000000E+03 0.  0.
<mgrwt>
<rscale>  0 0.87826076E+03</rscale>
<asrwt>0</asrwt>
<pdfrwt beam="1">  1        2 0.15023824E+00 0.87826076E+03</pdfrwt>
<pdfrwt beam="2">  1       -2 0.26194517E-01 0.87826076E+03</pdfrwt>
<totfact> 0.34399347E+02</totfact>
</mgrwt>
</event>
<event>
 4    1  0.1896644E-005  0.6648635E+03  0.7818608E-02  0.9779282E-01
         -2   -1    0    0    0  501 -0.00000000000E+00  0.00000000000E+00  0.21230004572E+03  0.21230004574E+03  0.25500000000E-02 0. -1.
          2   -1    0    0  501    0  0.00000000000E+00 -0.00000000000E+00 -0.52054101432E+03  0.52054101433E+03  0.25500000000E-02 0.  1.
    5000001    1    1    2    0    0  0.18253863320E+03 -0.14551849480E+03 -0.15846685362E+01  0.30226229688E+03  0.19200000000E+03 0.  0.
   -5000001    1    1    2    0    0 -0.18253863320E+03  0.14551849480E+03 -0.30665630006E+03  0.43057876319E+03  0.19200000000E+03 0.  0.
<mgrwt>
<rscale>  0 0.66486354E+03</rscale>
<asrwt>0</asrwt>
<pdfrwt beam="1">  1        2 0.74363002E-01 0.66486354E+03</pdfrwt>
<pdfrwt beam="2">  1       -2 0.30328578E-01 0.66486354E+03</pdfrwt>
<totfact> 0.64673044E+02</totfact>
</mgrwt>
</event>
<event>
 4    1  0.1896644E-005  0.6249408E+03  0.7818608E-02  0.9854972E-01
         -2   -1    0    0    0  501 -0.00000000000E+00  0.00000000000E+00  0.64146327475E+02  0.64146327526E+02  0.25500000000E-02 0. -1.
          2   -1    0    0  501    0  0.00000000000E+00 -0.00000000000E+00 -0.15221096484E+04  0.15221096484E+04  0.25500000000E-02 0.  1.
    5000001    1    1    2    0    0  0.20875666338E+03  0.12971432616E+03 -0.68025036005E+03  0.74833796059E+03  0.19200000000E+03 0.  0.
   -5000001    1    1    2    0    0 -0.20875666338E+03 -0.12971432616E+03 -0.77771296091E+03  0.83791801537E+03  0.19200000000E+03 0.  0.
<mgrwt>
<rscale>  0 0.62494078E+03</rscale>
<asrwt>0</asrwt>
<pdfrwt beam="1">  1        2 0.21744421E+00 0.62494078E+03</pdfrwt>
<pdfrwt beam="2">  1       -2 0.91637620E-02 0.62494078E+03</pdfrwt>
<totfact> 0.11415103E+03</totfact>
</mgrwt>
</event>
<event>
 4    1  0.1896644E-005  0.4628017E+03  0.7818608E-02  0.1023972E+00
          2   -1    0    0  501    0  0.00000000000E+00  0.00000000000E+00  0.17620340368E+03  0.17620340370E+03  0.25500000000E-02 0.  1.
         -2   -1    0    0    0  501 -0.00000000000E+00 -0.00000000000E+00 -0.30388942204E+03  0.30388942205E+03  0.25500000000E-02 0. -1.
    5000001    1    1    2    0    0 -0.12897398889E+03  0.17555185459E+01 -0.56885809163E+02  0.23819606827E+03  0.19200000000E+03 0.  0.
   -5000001    1    1    2    0    0  0.12897398889E+03 -0.17555185459E+01 -0.70800209192E+02  0.24189675748E+03  0.19200000000E+03 0.  0.
<mgrwt>
<rscale>  0 0.46280169E+03</rscale>
<asrwt>0</asrwt>
<pdfrwt beam="1">  1        2 0.25171915E-01 0.46280169E+03</pdfrwt>
<pdfrwt beam="2">  1       -2 0.43412774E-01 0.46280169E+03</pdfrwt>
<totfact> 0.10939766E+03</totfact>
</mgrwt>
</event>
<event>
 4    1  0.1896644E-005  0.8719435E+03  0.7818608E-02  0.9461349E-01
          2   -1    0    0  501    0  0.00000000000E+00  0.00000000000E+00  0.48421866507E+03  0.48421866508E+03  0.25500000000E-02 0.  1.
         -2   -1    0    0    0  501 -0.00000000000E+00 -0.00000000000E+00 -0.39253206810E+03  0.39253206811E+03  0.25500000000E-02 0. -1.
    5000001    1    1    2    0    0  0.38334754139E+03  0.75890966144E+02  0.23526842791E+02  0.43604161334E+03  0.19200000000E+03 0.  0.
   -5000001    1    1    2    0    0 -0.38334754139E+03 -0.75890966144E+02  0.68159754177E+02  0.44070911985E+03  0.19200000000E+03 0.  0.
<mgrwt>
<rscale>  0 0.87194347E+03</rscale>
<asrwt>0</asrwt>
<pdfrwt beam="1">  1        2 0.69174095E-01 0.87194347E+03</pdfrwt>
<pdfrwt beam="2">  1       -2 0.56076009E-01 0.87194347E+03</pdfrwt>
<totfact> 0.20891484E+02</totfact>
</mgrwt>
</event>
<event>
 4    1  0.1896644E-005  0.5232253E+03  0.7818608E-02  0.1007888E+00
          2   -1    0    0  501    0  0.00000000000E+00  0.00000000000E+00  0.16884593399E+03  0.16884593401E+03  0.25500000000E-02 0.  1.
         -2   -1    0    0    0  501 -0.00000000000E+00 -0.00000000000E+00 -0.40534696286E+03  0.40534696287E+03  0.25500000000E-02 0. -1.
    5000001    1    1    2    0    0 -0.11856516384E+03 -0.12996375778E+03 -0.90729568912E+02  0.27576100356E+03  0.19200000000E+03 0.  0.
   -5000001    1    1    2    0    0  0.11856516384E+03  0.12996375778E+03 -0.14577145996E+03  0.29843189332E+03  0.19200000000E+03 0.  0.
<mgrwt>
<rscale>  0 0.52322533E+03</rscale>
<asrwt>0</asrwt>
<pdfrwt beam="1">  1        2 0.24120848E-01 0.52322533E+03</pdfrwt>
<pdfrwt beam="2">  1       -2 0.57906709E-01 0.52322533E+03</pdfrwt>
<totfact> 0.64169837E+02</totfact>
</mgrwt>
</event>
<event>
 4    1  0.1896644E-005  0.1044106E+04  0.7818608E-02  0.9261450E-01
          2   -1    0    0  501    0  0.00000000000E+00  0.00000000000E+00  0.21429245985E+04  0.21429245985E+04  0.25500000000E-02 0.  1.
         -2   -1    0    0    0  501 -0.00000000000E+00 -0.00000000000E+00 -0.12718112828E+03  0.12718112830E+03  0.25500000000E-02 0. -1.
    5000001    1    1    2    0    0  0.16264182663E+03  0.31697292631E+03  0.29087253337E+03  0.49839244622E+03  0.19200000000E+03 0.  0.
   -5000001    1    1    2    0    0 -0.16264182663E+03 -0.31697292631E+03  0.17248709368E+04  0.17717132806E+04  0.19200000000E+03 0.  0.
<mgrwt>
<rscale>  0 0.10441064E+04</rscale>
<asrwt>0</asrwt>
<pdfrwt beam="1">  1        2 0.30613208E+00 0.10441064E+04</pdfrwt>
<pdfrwt beam="2">  1       -2 0.18168733E-01 0.10441064E+04</pdfrwt>
<totfact> 0.17094159E+02</totfact>
</mgrwt>
</event>
<event>
 4    1  0.1896644E-005  0.7970972E+03  0.7818608E-02  0.9564228E-01
          2   -1    0    0  501    0  0.00000000000E+00  0.00000000000E+00  0.14550841821E+03  0.14550841824E+03  0.25500000000E-02 0.  1.
         -2   -1    0    0    0  501 -0.00000000000E+00 -0.00000000000E+00 -0.10916273349E+04  0.10916273349E+04  0.25500000000E-02 0. -1.
    5000001    1    1    2    0    0  0.41719688163E+02  0.29915951081E+03 -0.20094088517E+03  0.41046094166E+03  0.19200000000E+03 0.  0.
   -5000001    1    1    2    0    0 -0.41719688163E+02 -0.29915951081E+03 -0.74517803152E+03  0.82667481149E+03  0.19200000000E+03 0.  0.
<mgrwt>
<rscale>  0 0.79709715E+03</rscale>
<asrwt>0</asrwt>
<pdfrwt beam="1">  1        2 0.20786918E-01 0.79709715E+03</pdfrwt>
<pdfrwt beam="2">  1       -2 0.15594676E+00 0.79709715E+03</pdfrwt>
<totfact> 0.74022865E+01</totfact>
</mgrwt>
</event>
<event>
 4    1  0.1896644E-005  0.4873743E+03  0.7818608E-02  0.1017128E+00
         -2   -1    0    0    0  501 -0.00000000000E+00  0.00000000000E+00  0.93785579960E+02  0.93785579995E+02  0.25500000000E-02 0. -1.
          2   -1    0    0  501    0  0.00000000000E+00 -0.00000000000E+00 -0.63318298666E+03  0.63318298666E+03  0.25500000000E-02 0.  1.
    5000001    1    1    2    0    0  0.13805846353E+03  0.25461097961E+02 -0.19061527728E+03  0.30480582474E+03  0.19200000000E+03 0.  0.
   -5000001    1    1    2    0    0 -0.13805846353E+03 -0.25461097961E+02 -0.34878212941E+03  0.42216274191E+03  0.19200000000E+03 0.  0.
<mgrwt>
<rscale>  0 0.48737433E+03</rscale>
<asrwt>0</asrwt>
<pdfrwt beam="1">  1        2 0.90454710E-01 0.48737433E+03</pdfrwt>
<pdfrwt beam="2">  1       -2 0.13397940E-01 0.48737433E+03</pdfrwt>
<totfact> 0.21464189E+03</totfact>
</mgrwt>
</event>
<event>
 4    1  0.1896644E-005  0.4248177E+03  0.7818608E-02  0.1035510E+00
         -2   -1    0    0    0  501 -0.00000000000E+00  0.00000000000E+00  0.10289528629E+03  0.10289528632E+03  0.25500000000E-02 0. -1.
          2   -1    0    0  501    0  0.00000000000E+00 -0.00000000000E+00 -0.43848002246E+03  0.43848002247E+03  0.25500000000E-02 0.  1.
    5000001    1    1    2    0    0 -0.58031897885E+02 -0.43743597688E+02 -0.98314917656E+02  0.22762035617E+03  0.19200000000E+03 0.  0.
   -5000001    1    1    2    0    0  0.58031897885E+02  0.43743597688E+02 -0.23726981852E+03  0.31375495261E+03  0.19200000000E+03 0.  0.
<mgrwt>
<rscale>  0 0.42481774E+03</rscale>
<asrwt>0</asrwt>
<pdfrwt beam="1">  1        2 0.62640002E-01 0.42481774E+03</pdfrwt>
<pdfrwt beam="2">  1       -2 0.14699327E-01 0.42481774E+03</pdfrwt>
<totfact> 0.27929616E+03</totfact>
</mgrwt>
</event>
<event>
 4    1  0.1896644E-005  0.6060748E+03  0.7818608E-02  0.9892882E-01
         -2   -1    0    0    0  501 -0.00000000000E+00  0.00000000000E+00  0.29233012973E+03  0.29233012974E+03  0.25500000000E-02 0.  1.
          2   -1    0    0  501    0  0.00000000000E+00 -0.00000000000E+00 -0.31413683898E+03  0.31413683899E+03  0.25500000000E-02 0. -1.
    5000001    1    1    2    0    0 -0.19639185704E+03 -0.10707987156E+03  0.59368880939E+02  0.30070670832E+03  0.19200000000E+03 0.  0.
   -5000001    1    1    2    0    0  0.19639185704E+03  0.10707987156E+03 -0.81175590189E+02  0.30576026041E+03  0.19200000000E+03 0.  0.
<mgrwt>
<rscale>  0 0.60607479E+03</rscale>
<asrwt>0</asrwt>
<pdfrwt beam="1">  1        2 0.44876691E-01 0.60607479E+03</pdfrwt>
<pdfrwt beam="2">  1       -2 0.41761447E-01 0.60607479E+03</pdfrwt>
<totfact> 0.61949761E+02</totfact>
</mgrwt>
</event>
<event>
 4    1  0.1896644E-005  0.1217622E+04  0.7818608E-02  0.9097570E-01
         -2   -1    0    0    0  501 -0.00000000000E+00  0.00000000000E+00  0.59138734130E+03  0.59138734130E+03  0.25500000000E-02 0. -1.
          2   -1    0    0  501    0  0.00000000000E+00 -0.00000000000E+00 -0.62674803539E+03  0.62674803539E+03  0.25500000000E-02 0.  1.
    5000001    1    1    2    0    0  0.47294023310E+03 -0.32707083229E+03  0.38370596574E+02  0.60744061117E+03  0.19200000000E+03 0.  0.
   -5000001    1    1    2    0    0 -0.47294023310E+03  0.32707083229E+03 -0.73731290666E+02  0.61069476553E+03  0.19200000000E+03 0.  0.
<mgrwt>
<rscale>  0 0.12176220E+04</rscale>
<asrwt>0</asrwt>
<pdfrwt beam="1">  1        2 0.89535434E-01 0.12176220E+04</pdfrwt>
<pdfrwt beam="2">  1       -2 0.84483906E-01 0.12176220E+04</pdfrwt>
<totfact> 0.62108047E+01</totfact>
</mgrwt>
</event>
<event>
 4    1  0.1896644E-005  0.5305242E+03  0.7818608E-02  0.1006105E+00
         -2   -1    0    0    0  501 -0.00000000000E+00  0.00000000000E+00  0.26771601718E+03  0.26771601719E+03  0.25500000000E-02 0.  1.
          2   -1    0    0  501    0  0.00000000000E+00 -0.00000000000E+00 -0.26283069774E+03  0.26283069775E+03  0.25500000000E-02 0. -1.
    5000001    1    1    2    0    0  0.46449734268E+02  0.17688166779E+03  0.98783890419E+01  0.26534182630E+03  0.19200000000E+03 0.  0.
   -5000001    1    1    2    0    0 -0.46449734268E+02 -0.17688166779E+03 -0.49930696068E+01  0.26520488864E+03  0.19200000000E+03 0.  0.
<mgrwt>
<rscale>  0 0.53052422E+03</rscale>
<asrwt>0</asrwt>
<pdfrwt beam="1">  1        2 0.37547243E-01 0.53052422E+03</pdfrwt>
<pdfrwt beam="2">  1       -2 0.38245145E-01 0.53052422E+03</pdfrwt>
<totfact> 0.89508292E+02</totfact>
</mgrwt>
</event>
<event>
 4    1  0.1896644E-005  0.7037048E+03  0.7818608E-02  0.9710917E-01
          2   -1    0    0  501    0  0.00000000000E+00  0.00000000000E+00  0.22661990470E+04  0.22661990470E+04  0.25500000000E-02 0.  1.
         -2   -1    0    0    0  501 -0.00000000000E+00 -0.00000000000E+00 -0.54628961660E+02  0.54628961720E+02  0.25500000000E-02 0. -1.
    5000001    1    1    2    0    0 -0.26451048035E+03  0.37661581085E+02  0.15170714507E+04  0.15523382284E+04  0.19200000000E+03 0.  0.
   -5000001    1    1    2    0    0  0.26451048035E+03 -0.37661581085E+02  0.69449863467E+03  0.76848978033E+03  0.19200000000E+03 0.  0.
<mgrwt>
<rscale>  0 0.70370477E+03</rscale>
<asrwt>0</asrwt>
<pdfrwt beam="1">  1        2 0.32374277E+00 0.70370477E+03</pdfrwt>
<pdfrwt beam="2">  1       -2 0.78041362E-02 0.70370477E+03</pdfrwt>
<totfact> 0.61595230E+02</totfact>
</mgrwt>
</event>
<event>
 4    1  0.1896644E-005  0.7111259E+03  0.7818608E-02  0.9698392E-01
          2   -1    0    0  501    0  0.00000000000E+00  0.00000000000E+00  0.11105665994E+04  0.11105665994E+04  0.25500000000E-02 0.  1.
         -2   -1    0    0    0  501 -0.00000000000E+00 -0.00000000000E+00 -0.11383831081E+03  0.11383831084E+03  0.25500000000E-02 0. -1.
    5000001    1    1    2    0    0  0.23404883269E+03 -0.16755896538E+03  0.63936299949E+03  0.72698274263E+03  0.19200000000E+03 0.  0.
   -5000001    1    1    2    0    0 -0.23404883269E+03  0.16755896538E+03  0.35736528908E+03  0.49742216758E+03  0.19200000000E+03 0.  0.
<mgrwt>
<rscale>  0 0.71112594E+03</rscale>
<asrwt>0</asrwt>
<pdfrwt beam="1">  1        2 0.15865237E+00 0.71112594E+03</pdfrwt>
<pdfrwt beam="2">  1       -2 0.16262616E-01 0.71112594E+03</pdfrwt>
<totfact> 0.73916409E+02</totfact>
</mgrwt>
</event>
<event>
 4    1  0.1896644E-005  0.4834553E+03  0.7818608E-02  0.1018190E+00
         -2   -1    0    0    0  501 -0.00000000000E+00  0.00000000000E+00  0.36544818462E+02  0.36544818551E+02  0.25500000000E-02 0. -1.
          2   -1    0    0  501    0  0.00000000000E+00 -0.00000000000E+00 -0.15989201098E+04  0.15989201098E+04  0.25500000000E-02 0.  1.
    5000001    1    1    2    0    0  0.10093026172E+03  0.39402274951E+02 -0.11165659320E+04  0.11381225495E+04  0.19200000000E+03 0.  0.
   -5000001    1    1    2    0    0 -0.10093026172E+03 -0.39402274951E+02 -0.44580935931E+03  0.49734237890E+03  0.19200000000E+03 0.  0.
<mgrwt>
<rscale>  0 0.48345525E+03</rscale>
<asrwt>0</asrwt>
<pdfrwt beam="1">  1        2 0.22841711E+00 0.48345525E+03</pdfrwt>
<pdfrwt beam="2">  1       -2 0.52206894E-02 0.48345525E+03</pdfrwt>
<totfact> 0.25419576E+03</totfact>
</mgrwt>
</event>
<event>
 4    1  0.1896644E-005  0.6524839E+03  0.7818608E-02  0.9802129E-01
          2   -1    0    0  501    0  0.00000000000E+00  0.00000000000E+00  0.28224447971E+04  0.28224447971E+04  0.25500000000E-02 0.  1.
         -2   -1    0    0    0  501 -0.00000000000E+00 -0.00000000000E+00 -0.37709791451E+02  0.37709791537E+02  0.25500000000E-02 0. -1.
    5000001    1    1    2    0    0  0.14250172439E+03  0.29899502188E+02  0.23564265730E+04  0.23687150347E+04  0.19200000000E+03 0.  0.
   -5000001    1    1    2    0    0 -0.14250172439E+03 -0.29899502188E+02  0.42830843258E+03  0.49143955387E+03  0.19200000000E+03 0.  0.
<mgrwt>
<rscale>  0 0.65248388E+03</rscale>
<asrwt>0</asrwt>
<pdfrwt beam="1">  1        2 0.40320636E+00 0.65248388E+03</pdfrwt>
<pdfrwt beam="2">  1       -2 0.53871136E-02 0.65248388E+03</pdfrwt>
<totfact> 0.57151198E+02</totfact>
</mgrwt>
</event>
<event>
 4    1  0.1896644E-005  0.6191666E+03  0.7818608E-02  0.9866420E-01
          2   -1    0    0  501    0  0.00000000000E+00  0.00000000000E+00  0.11580716510E+03  0.11580716513E+03  0.25500000000E-02 0.  1.
         -2   -1    0    0    0  501 -0.00000000000E+00 -0.00000000000E+00 -0.82759837431E+03  0.82759837432E+03  0.25500000000E-02 0. -1.
    5000001    1    1    2    0    0 -0.14765203412E+03  0.17583228837E+03 -0.47644577321E+03  0.56265681514E+03  0.19200000000E+03 0.  0.
   -5000001    1    1    2    0    0  0.14765203412E+03 -0.17583228837E+03 -0.23534543600E+03  0.38074872431E+03  0.19200000000E+03 0.  0.
<mgrwt>
<rscale>  0 0.61916661E+03</rscale>
<asrwt>0</asrwt>
<pdfrwt beam="1">  1        2 0.16543881E-01 0.61916661E+03</pdfrwt>
<pdfrwt beam="2">  1       -2 0.11822833E+00 0.61916661E+03</pdfrwt>
<totfact> 0.19872220E+02</totfact>
</mgrwt>
</event>
<event>
 4    1  0.1896644E-005  0.5119095E+03  0.7818608E-02  0.1010716E+00
         -2   -1    0    0    0  501 -0.00000000000E+00  0.00000000000E+00  0.16996391580E+03  0.16996391582E+03  0.25500000000E-02 0. -1.
          2   -1    0    0  501    0  0.00000000000E+00 -0.00000000000E+00 -0.38545148694E+03  0.38545148695E+03  0.25500000000E-02 0.  1.
    5000001    1    1    2    0    0 -0.69171506097E+02  0.15056718959E+03 -0.14522956250E+03  0.29225126460E+03  0.19200000000E+03 0.  0.
   -5000001    1    1    2    0    0  0.69171506097E+02 -0.15056718959E+03 -0.70258008638E+02  0.26316413816E+03  0.19200000000E+03 0.  0.
<mgrwt>
<rscale>  0 0.51190954E+03</rscale>
<asrwt>0</asrwt>
<pdfrwt beam="1">  1        2 0.55064498E-01 0.51190954E+03</pdfrwt>
<pdfrwt beam="2">  1       -2 0.24280559E-01 0.51190954E+03</pdfrwt>
<totfact> 0.13597684E+03</totfact>
</mgrwt>
</event>
<event>
 4    1  0.1896644E-005  0.4415419E+03  0.7818608E-02  0.1030275E+00
          2   -1    0    0  501    0  0.00000000000E+00  0.00000000000E+00  0.17045936012E+03  0.17045936014E+03  0.25500000000E-02 0.  1.
         -2   -1    0    0    0  501 -0.00000000000E+00 -0.00000000000E+00 -0.28593219908E+03  0.28593219909E+03  0.25500000000E-02 0. -1.
    5000001    1    1    2    0    0 -0.10425227069E+03  0.26735262012E+02 -0.75414522146E+02  0.23266856326E+03  0.19200000000E+03 0.  0.
   -5000001    1    1    2    0    0  0.10425227069E+03 -0.26735262012E+02 -0.40058316818E+02  0.22372299597E+03  0.19200000000E+03 0.  0.
<mgrwt>
<rscale>  0 0.44154193E+03</rscale>
<asrwt>0</asrwt>
<pdfrwt beam="1">  1        2 0.24351337E-01 0.44154193E+03</pdfrwt>
<pdfrwt beam="2">  1       -2 0.40847457E-01 0.44154193E+03</pdfrwt>
<totfact> 0.12787875E+03</totfact>
</mgrwt>
</event>
<event>
 4    1  0.1896644E-005  0.4525118E+03  0.7818608E-02  0.1026976E+00
          2   -1    0    0  501    0  0.00000000000E+00  0.00000000000E+00  0.57558512013E+03  0.57558512013E+03  0.25500000000E-02 0.  1.
         -2   -1    0    0    0  501 -0.00000000000E+00 -0.00000000000E+00 -0.88938589286E+02  0.88938589323E+02  0.25500000000E-02 0. -1.
    5000001    1    1    2    0    0  0.77674309104E+02 -0.81180161305E+02  0.18269957608E+03  0.28786568393E+03  0.19200000000E+03 0.  0.
   -5000001    1    1    2    0    0 -0.77674309104E+02  0.81180161305E+02  0.30394695476E+03  0.37665802553E+03  0.19200000000E+03 0.  0.
<mgrwt>
<rscale>  0 0.45251178E+03</rscale>
<asrwt>0</asrwt>
<pdfrwt beam="1">  1        2 0.82226446E-01 0.45251178E+03</pdfrwt>
<pdfrwt beam="2">  1       -2 0.12705513E-01 0.45251178E+03</pdfrwt>
<totfact> 0.26174850E+03</totfact>
</mgrwt>
</event>
<event>
 4    1  0.1896644E-005  0.4333847E+03  0.7818608E-02  0.1032796E+00
         -2   -1    0    0    0  501 -0.00000000000E+00  0.00000000000E+00  0.24026880587E+02  0.24026880723E+02  0.25500000000E-02 0. -1.
          2   -1    0    0  501    0  0.00000000000E+00 -0.00000000000E+00 -0.19542933628E+04  0.19542933628E+04  0.25500000000E-02 0.  1.
    5000001    1    1    2    0    0 -0.94717840727E+02 -0.30891920167E+02 -0.10239101209E+04  0.10465093004E+04  0.19200000000E+03 0.  0.
   -5000001    1    1    2    0    0  0.94717840727E+02  0.30891920167E+02 -0.90635636124E+03  0.93181094308E+03  0.19200000000E+03 0.  0.
<mgrwt>
<rscale>  0 0.43338469E+03</rscale>
<asrwt>0</asrwt>
<pdfrwt beam="1">  1        2 0.27918467E+00 0.43338469E+03</pdfrwt>
<pdfrwt beam="2">  1       -2 0.34324128E-02 0.43338469E+03</pdfrwt>
<totfact> 0.32072602E+03</totfact>
</mgrwt>
</event>
<event>
 4    1  0.1896644E-005  0.6601315E+03  0.7818608E-02  0.9787952E-01
         -2   -1    0    0    0  501 -0.00000000000E+00  0.00000000000E+00  0.10274471088E+03  0.10274471091E+03  0.25500000000E-02 0. -1.
          2   -1    0    0  501    0  0.00000000000E+00 -0.00000000000E+00 -0.10603310352E+04  0.10603310352E+04  0.25500000000E-02 0.  1.
    5000001    1    1    2    0    0  0.23974654630E+03  0.94728770286E+02 -0.34662291236E+03  0.47271914469E+03  0.19200000000E+03 0.  0.
   -5000001    1    1    2    0    0 -0.23974654630E+03 -0.94728770286E+02 -0.61096341196E+03  0.69035660143E+03  0.19200000000E+03 0.  0.
<mgrwt>
<rscale>  0 0.66013152E+03</rscale>
<asrwt>0</asrwt>
<pdfrwt beam="1">  1        2 0.15147586E+00 0.66013152E+03</pdfrwt>
<pdfrwt beam="2">  1       -2 0.14677816E-01 0.66013152E+03</pdfrwt>
<totfact> 0.94277687E+02</totfact>
</mgrwt>
</event>
<event>
 4    1  0.1896644E-005  0.6203617E+03  0.7818608E-02  0.9864040E-01
          2   -1    0    0  501    0  0.00000000000E+00  0.00000000000E+00  0.23450357224E+03  0.23450357226E+03  0.25500000000E-02 0.  1.
         -2   -1    0    0    0  501 -0.00000000000E+00 -0.00000000000E+00 -0.41028017661E+03  0.41028017662E+03  0.25500000000E-02 0. -1.
    5000001    1    1    2    0    0  0.15766706191E+03 -0.17586341805E+03 -0.14991444295E+03  0.33930102332E+03  0.19200000000E+03 0.  0.
   -5000001    1    1    2    0    0 -0.15766706191E+03  0.17586341805E+03 -0.25862161419E+02  0.30548272556E+03  0.19200000000E+03 0.  0.
<mgrwt>
<rscale>  0 0.62036172E+03</rscale>
<asrwt>0</asrwt>
<pdfrwt beam="1">  1        2 0.33500511E-01 0.62036172E+03</pdfrwt>
<pdfrwt beam="2">  1       -2 0.58611453E-01 0.62036172E+03</pdfrwt>
<totfact> 0.43131124E+02</totfact>
</mgrwt>
</event>
<event>
 4    1  0.1896644E-005  0.9318796E+03  0.7818608E-02  0.9386585E-01
          2   -1    0    0  501    0  0.00000000000E+00  0.00000000000E+00  0.29350499665E+04  0.29350499665E+04  0.25500000000E-02 0.  1.
         -2   -1    0    0    0  501 -0.00000000000E+00 -0.00000000000E+00 -0.73968043614E+02  0.73968043658E+02  0.25500000000E-02 0. -1.
    5000001    1    1    2    0    0 -0.14593873259E+02  0.41978731593E+03  0.16296286089E+04  0.16938086594E+04  0.19200000000E+03 0.  0.
   -5000001    1    1    2    0    0  0.14593873259E+02 -0.41978731593E+03  0.12314533139E+04  0.13152093507E+04  0.19200000000E+03 0.  0.
<mgrwt>
<rscale>  0 0.93187961E+03</rscale>
<asrwt>0</asrwt>
<pdfrwt beam="1">  1        2 0.41929272E+00 0.93187961E+03</pdfrwt>
<pdfrwt beam="2">  1       -2 0.10566867E-01 0.93187961E+03</pdfrwt>
<totfact> 0.16515694E+02</totfact>
</mgrwt>
</event>
<event>
 4    1  0.1896644E-005  0.5579510E+03  0.7818608E-02  0.9996702E-01
          2   -1    0    0  501    0  0.00000000000E+00  0.00000000000E+00  0.83826295293E+03  0.83826295293E+03  0.25500000000E-02 0.  1.
         -2   -1    0    0    0  501 -0.00000000000E+00 -0.00000000000E+00 -0.92843568567E+02  0.92843568602E+02  0.25500000000E-02 0. -1.
    5000001    1    1    2    0    0  0.17490579352E+03  0.95755424555E+02  0.43057112206E+03  0.51187559924E+03  0.19200000000E+03 0.  0.
   -5000001    1    1    2    0    0 -0.17490579352E+03 -0.95755424555E+02  0.31484826229E+03  0.41923092229E+03  0.19200000000E+03 0.  0.
<mgrwt>
<rscale>  0 0.55795098E+03</rscale>
<asrwt>0</asrwt>
<pdfrwt beam="1">  1        2 0.11975185E+00 0.55795098E+03</pdfrwt>
<pdfrwt beam="2">  1       -2 0.13263367E-01 0.55795098E+03</pdfrwt>
<totfact> 0.15435181E+03</totfact>
</mgrwt>
</event>
<event>
 4    1  0.1896644E-005  0.1937676E+04  0.7818608E-02  0.8636326E-01
         -2   -1    0    0    0  501 -0.00000000000E+00  0.00000000000E+00  0.38898305794E+03  0.38898305795E+03  0.25500000000E-02 0. -1.
          2   -1    0    0  501    0  0.00000000000E+00 -0.00000000000E+00 -0.24130803138E+04  0.24130803138E+04  0.25500000000E-02 0.  1.
    5000001    1    1    2    0    0  0.27168225963E+03  0.41054536915E+03 -0.21863492781E+04  0.22492989833E+04  0.19200000000E+03 0.  0.
   -5000001    1    1    2    0    0 -0.27168225963E+03 -0.41054536915E+03  0.16225202232E+03  0.55276438839E+03  0.19200000000E+03 0.  0.
<mgrwt>
<rscale>  0 0.19376763E+04</rscale>
<asrwt>0</asrwt>
<pdfrwt beam="1">  1        2 0.34472575E+00 0.19376763E+04</pdfrwt>
<pdfrwt beam="2">  1       -2 0.55569010E-01 0.19376763E+04</pdfrwt>
<totfact> 0.13965080E+01</totfact>
</mgrwt>
</event>
<event>
 4    1  0.1896644E-005  0.9342552E+03  0.7818608E-02  0.9383746E-01
          2   -1    0    0  501    0  0.00000000000E+00  0.00000000000E+00  0.13349372653E+04  0.13349372653E+04  0.25500000000E-02 0.  1.
         -2   -1    0    0    0  501 -0.00000000000E+00 -0.00000000000E+00 -0.16345951531E+03  0.16345951533E+03  0.25500000000E-02 0. -1.
    5000001    1    1    2    0    0 -0.11653383100E+03 -0.39759907463E+03  0.74352814109E+03  0.87256131848E+03  0.19200000000E+03 0.  0.
   -5000001    1    1    2    0    0  0.11653383100E+03  0.39759907463E+03  0.42794960887E+03  0.62583546212E+03  0.19200000000E+03 0.  0.
<mgrwt>
<rscale>  0 0.93425521E+03</rscale>
<asrwt>0</asrwt>
<pdfrwt beam="1">  1        2 0.19070533E+00 0.93425521E+03</pdfrwt>
<pdfrwt beam="2">  1       -2 0.23351359E-01 0.93425521E+03</pdfrwt>
<totfact> 0.29086552E+02</totfact>
</mgrwt>
</event>
<event>
 4    1  0.1896644E-005  0.5083093E+03  0.7818608E-02  0.1011633E+00
          2   -1    0    0  501    0  0.00000000000E+00  0.00000000000E+00  0.28365961589E+04  0.28365961589E+04  0.25500000000E-02 0.  1.
         -2   -1    0    0    0  501 -0.00000000000E+00 -0.00000000000E+00 -0.22771868141E+02  0.22771868283E+02  0.25500000000E-02 0. -1.
    5000001    1    1    2    0    0  0.14007977039E+03 -0.44392780550E+02  0.96621636697E+03  0.99600759477E+03  0.19200000000E+03 0.  0.
   -5000001    1    1    2    0    0 -0.14007977039E+03  0.44392780550E+02  0.18476079238E+04  0.18633604324E+04  0.19200000000E+03 0.  0.
<mgrwt>
<rscale>  0 0.50830933E+03</rscale>
<asrwt>0</asrwt>
<pdfrwt beam="1">  1        2 0.40522840E+00 0.50830933E+03</pdfrwt>
<pdfrwt beam="2">  1       -2 0.32531210E-02 0.50830933E+03</pdfrwt>
<totfact> 0.12356462E+03</totfact>
</mgrwt>
</event>
<event>
 4    1  0.1896644E-005  0.5478112E+03  0.7818608E-02  0.1002002E+00
          2   -1    0    0  501    0  0.00000000000E+00  0.00000000000E+00  0.11304823372E+04  0.11304823372E+04  0.25500000000E-02 0.  1.
         -2   -1    0    0    0  501 -0.00000000000E+00 -0.00000000000E+00 -0.66364849721E+02  0.66364849770E+02  0.25500000000E-02 0. -1.
    5000001    1    1    2    0    0 -0.31492516762E+02  0.11891684257E+03  0.86359363028E+03  0.89319144214E+03  0.19200000000E+03 0.  0.
   -5000001    1    1    2    0    0  0.31492516762E+02 -0.11891684257E+03  0.20052385718E+03  0.30365574481E+03  0.19200000000E+03 0.  0.
<mgrwt>
<rscale>  0 0.54781125E+03</rscale>
<asrwt>0</asrwt>
<pdfrwt beam="1">  1        2 0.16149747E+00 0.54781125E+03</pdfrwt>
<pdfrwt beam="2">  1       -2 0.94806933E-02 0.54781125E+03</pdfrwt>
<totfact> 0.17655691E+03</totfact>
</mgrwt>
</event>
<event>
 4    1  0.1896644E-005  0.6980697E+03  0.7818608E-02  0.9720539E-01
          2   -1    0    0  501    0  0.00000000000E+00  0.00000000000E+00  0.20208063132E+04  0.20208063132E+04  0.25500000000E-02 0.  1.
         -2   -1    0    0    0  501 -0.00000000000E+00 -0.00000000000E+00 -0.60285498679E+02  0.60285498733E+02  0.25500000000E-02 0. -1.
    5000001    1    1    2    0    0 -0.15172055558E+03 -0.23845533037E+03  0.11927695067E+04  0.12407429902E+04  0.19200000000E+03 0.  0.
   -5000001    1    1    2    0    0  0.15172055558E+03  0.23845533037E+03  0.76775130782E+03  0.84034882176E+03  0.19200000000E+03 0.  0.
<mgrwt>
<rscale>  0 0.69806967E+03</rscale>
<asrwt>0</asrwt>
<pdfrwt beam="1">  1        2 0.28868662E+00 0.69806967E+03</pdfrwt>
<pdfrwt beam="2">  1       -2 0.86122139E-02 0.69806967E+03</pdfrwt>
<totfact> 0.70030526E+02</totfact>
</mgrwt>
</event>
<event>
 4    1  0.1896644E-005  0.5790165E+03  0.7818608E-02  0.9949922E-01
          2   -1    0    0  501    0  0.00000000000E+00  0.00000000000E+00  0.75533791609E+03  0.75533791609E+03  0.25500000000E-02 0.  1.
         -2   -1    0    0    0  501 -0.00000000000E+00 -0.00000000000E+00 -0.11096362769E+03  0.11096362772E+03  0.25500000000E-02 0. -1.
    5000001    1    1    2    0    0  0.15193559111E+03  0.10850263662E+03  0.48672253449E+03  0.55553584185E+03  0.19200000000E+03 0.  0.
   -5000001    1    1    2    0    0 -0.15193559111E+03 -0.10850263662E+03  0.15765175391E+03  0.31076570195E+03  0.19200000000E+03 0.  0.
<mgrwt>
<rscale>  0 0.57901653E+03</rscale>
<asrwt>0</asrwt>
<pdfrwt beam="1">  1        2 0.10790542E+00 0.57901653E+03</pdfrwt>
<pdfrwt beam="2">  1       -2 0.15851947E-01 0.57901653E+03</pdfrwt>
<totfact> 0.13069603E+03</totfact>
</mgrwt>
</event>
<event>
 4    1  0.1896644E-005  0.5587938E+03  0.7818608E-02  0.9994788E-01
          2   -1    0    0  501    0  0.00000000000E+00  0.00000000000E+00  0.34283847825E+03  0.34283847826E+03  0.25500000000E-02 0.  1.
         -2   -1    0    0    0  501 -0.00000000000E+00 -0.00000000000E+00 -0.22769508234E+03  0.22769508235E+03  0.25500000000E-02 0. -1.
    5000001    1    1    2    0    0 -0.10986742970E+03 -0.31647395252E+02  0.22880385400E+03  0.31982434764E+03  0.19200000000E+03 0.  0.
   -5000001    1    1    2    0    0  0.10986742970E+03  0.31647395252E+02 -0.11366045809E+03  0.25070921297E+03  0.19200000000E+03 0.  0.
<mgrwt>
<rscale>  0 0.55879383E+03</rscale>
<asrwt>0</asrwt>
<pdfrwt beam="1">  1        2 0.48976925E-01 0.55879383E+03</pdfrwt>
<pdfrwt beam="2">  1       -2 0.32527869E-01 0.55879383E+03</pdfrwt>
<totfact> 0.90755110E+02</totfact>
</mgrwt>
</event>
<event>
 4    1  0.1896644E-005  0.5405426E+03  0.7818608E-02  0.1003707E+00
          2   -1    0    0  501    0  0.00000000000E+00  0.00000000000E+00  0.52579149497E+03  0.52579149497E+03  0.25500000000E-02 0.  1.
         -2   -1    0    0    0  501 -0.00000000000E+00 -0.00000000000E+00 -0.13892688205E+03  0.13892688208E+03  0.25500000000E-02 0. -1.
    5000001    1    1    2    0    0 -0.19517843201E+02 -0.18881273304E+03  0.17830226601E+03  0.32355353873E+03  0.19200000000E+03 0.  0.
   -5000001    1    1    2    0    0  0.19517843201E+02  0.18881273304E+03  0.20856234690E+03  0.34116483832E+03  0.19200000000E+03 0.  0.
<mgrwt>
<rscale>  0 0.54054259E+03</rscale>
<asrwt>0</asrwt>
<pdfrwt beam="1">  1        2 0.75113071E-01 0.54054259E+03</pdfrwt>
<pdfrwt beam="2">  1       -2 0.19846697E-01 0.54054259E+03</pdfrwt>
<totfact> 0.13691611E+03</totfact>
</mgrwt>
</event>
<event>
 4    1  0.1896644E-005  0.5913122E+03  0.7818608E-02  0.9923596E-01
          2   -1    0    0  501    0  0.00000000000E+00  0.00000000000E+00  0.39161790046E+03  0.39161790047E+03  0.25500000000E-02 0.  1.
         -2   -1    0    0    0  501 -0.00000000000E+00 -0.00000000000E+00 -0.22320874413E+03  0.22320874415E+03  0.25500000000E-02 0. -1.
    5000001    1    1    2    0    0  0.22126580534E+03 -0.32290882312E+02  0.59880218353E+02  0.30075055818E+03  0.19200000000E+03 0.  0.
   -5000001    1    1    2    0    0 -0.22126580534E+03  0.32290882312E+02  0.10852893798E+03  0.31407608644E+03  0.19200000000E+03 0.  0.
<mgrwt>
<rscale>  0 0.59131223E+03</rscale>
<asrwt>0</asrwt>
<pdfrwt beam="1">  1        2 0.55945414E-01 0.59131223E+03</pdfrwt>
<pdfrwt beam="2">  1       -2 0.31886964E-01 0.59131223E+03</pdfrwt>
<totfact> 0.81280635E+02</totfact>
</mgrwt>
</event>
<event>
 4    1  0.1896644E-005  0.5021674E+03  0.7818608E-02  0.1013215E+00
         -2   -1    0    0    0  501 -0.00000000000E+00  0.00000000000E+00  0.15603817775E+03  0.15603817777E+03  0.25500000000E-02 0. -1.
          2   -1    0    0  501    0  0.00000000000E+00 -0.00000000000E+00 -0.40402302763E+03  0.40402302763E+03  0.25500000000E-02 0.  1.
    5000001    1    1    2    0    0  0.31364930092E+02 -0.12525255962E+03 -0.15247251060E+02  0.23188023028E+03  0.19200000000E+03 0.  0.
   -5000001    1    1    2    0    0 -0.31364930092E+02  0.12525255962E+03 -0.23273759881E+03  0.32818097512E+03  0.19200000000E+03 0.  0.
<mgrwt>
<rscale>  0 0.50216737E+03</rscale>
<asrwt>0</asrwt>
<pdfrwt beam="1">  1        2 0.57717575E-01 0.50216737E+03</pdfrwt>
<pdfrwt beam="2">  1       -2 0.22291168E-01 0.50216737E+03</pdfrwt>
<totfact> 0.15017657E+03</totfact>
</mgrwt>
</event>
<event>
 4    1  0.1896644E-005  0.7700287E+03  0.7818608E-02  0.9604442E-01
          2   -1    0    0  501    0  0.00000000000E+00  0.00000000000E+00  0.16062716273E+04  0.16062716273E+04  0.25500000000E-02 0.  1.
         -2   -1    0    0    0  501 -0.00000000000E+00 -0.00000000000E+00 -0.92285795312E+02  0.92285795348E+02  0.25500000000E-02 0. -1.
    5000001    1    1    2    0    0  0.14021126317E+03 -0.30274289723E+03  0.77402141676E+03  0.86445683163E+03  0.19200000000E+03 0.  0.
   -5000001    1    1    2    0    0 -0.14021126317E+03  0.30274289723E+03  0.73996441523E+03  0.83410059103E+03  0.19200000000E+03 0.  0.
<mgrwt>
<rscale>  0 0.77002871E+03</rscale>
<asrwt>0</asrwt>
<pdfrwt beam="1">  1        2 0.22946736E+00 0.77002871E+03</pdfrwt>
<pdfrwt beam="2">  1       -2 0.13183686E-01 0.77002871E+03</pdfrwt>
<totfact> 0.56489146E+02</totfact>
</mgrwt>
</event>
<event>
 4    1  0.1896644E-005  0.9084413E+03  0.7818608E-02  0.9415090E-01
          2   -1    0    0  501    0  0.00000000000E+00  0.00000000000E+00  0.18184078639E+03  0.18184078641E+03  0.25500000000E-02 0.  1.
         -2   -1    0    0    0  501 -0.00000000000E+00 -0.00000000000E+00 -0.11345990967E+04  0.11345990967E+04  0.25500000000E-02 0. -1.
    5000001    1    1    2    0    0 -0.87555621916E+02  0.36813493945E+03 -0.71122177996E+03  0.82818460555E+03  0.19200000000E+03 0.  0.
   -5000001    1    1    2    0    0  0.87555621916E+02 -0.36813493945E+03 -0.24153653034E+03  0.48825527755E+03  0.19200000000E+03 0.  0.
<mgrwt>
<rscale>  0 0.90844128E+03</rscale>
<asrwt>0</asrwt>
<pdfrwt beam="1">  1        2 0.25977256E-01 0.90844128E+03</pdfrwt>
<pdfrwt beam="2">  1       -2 0.16208558E+00 0.90844128E+03</pdfrwt>
<totfact> 0.51183542E+01</totfact>
</mgrwt>
</event>
<event>
 4    1  0.1896644E-005  0.6738976E+03  0.7818608E-02  0.9762942E-01
         -2   -1    0    0    0  501 -0.00000000000E+00  0.00000000000E+00  0.48075199801E+02  0.48075199869E+02  0.25500000000E-02 0. -1.
          2   -1    0    0  501    0  0.00000000000E+00 -0.00000000000E+00 -0.23616024364E+04  0.23616024364E+04  0.25500000000E-02 0.  1.
    5000001    1    1    2    0    0  0.26899207329E+03 -0.47507907287E+02 -0.13189289883E+04  0.13605335030E+04  0.19200000000E+03 0.  0.
   -5000001    1    1    2    0    0 -0.26899207329E+03  0.47507907287E+02 -0.99459824826E+03  0.10491441332E+04  0.19200000000E+03 0.  0.
<mgrwt>
<rscale>  0 0.67389765E+03</rscale>
<asrwt>0</asrwt>
<pdfrwt beam="1">  1        2 0.33737170E+00 0.67389765E+03</pdfrwt>
<pdfrwt beam="2">  1       -2 0.68678872E-02 0.67389765E+03</pdfrwt>
<totfact> 0.67630425E+02</totfact>
</mgrwt>
</event>
<event>
 4    1  0.1896644E-005  0.4585417E+03  0.7818608E-02  0.1025205E+00
          2   -1    0    0  501    0  0.00000000000E+00  0.00000000000E+00  0.80082940079E+03  0.80082940079E+03  0.25500000000E-02 0.  1.
         -2   -1    0    0    0  501 -0.00000000000E+00 -0.00000000000E+00 -0.65638349862E+02  0.65638349911E+02  0.25500000000E-02 0. -1.
    5000001    1    1    2    0    0 -0.25115862305E+02  0.93675278261E+02  0.51752267273E+03  0.56044587704E+03  0.19200000000E+03 0.  0.
   -5000001    1    1    2    0    0  0.25115862305E+02 -0.93675278261E+02  0.21766837820E+03  0.30602187367E+03  0.19200000000E+03 0.  0.
<mgrwt>
<rscale>  0 0.45854169E+03</rscale>
<asrwt>0</asrwt>
<pdfrwt beam="1">  1        2 0.11440419E+00 0.45854169E+03</pdfrwt>
<pdfrwt beam="2">  1       -2 0.93769077E-02 0.45854169E+03</pdfrwt>
<totfact> 0.28793774E+03</totfact>
</mgrwt>
</event>
<event>
 4    1  0.1896644E-005  0.4802195E+03  0.7818608E-02  0.1019075E+00
         -2   -1    0    0    0  501 -0.00000000000E+00  0.00000000000E+00  0.94454956211E+02  0.94454956245E+02  0.25500000000E-02 0. -1.
          2   -1    0    0  501    0  0.00000000000E+00 -0.00000000000E+00 -0.61037221174E+03  0.61037221174E+03  0.25500000000E-02 0.  1.
    5000001    1    1    2    0    0  0.97893174913E+02  0.96466481889E+02 -0.32193206056E+03  0.39924066356E+03  0.19200000000E+03 0.  0.
   -5000001    1    1    2    0    0 -0.97893174913E+02 -0.96466481889E+02 -0.19398519497E+03  0.30558650443E+03  0.19200000000E+03 0.  0.
<mgrwt>
<rscale>  0 0.48021945E+03</rscale>
<asrwt>0</asrwt>
<pdfrwt beam="1">  1        2 0.87196028E-01 0.48021945E+03</pdfrwt>
<pdfrwt beam="2">  1       -2 0.13493566E-01 0.48021945E+03</pdfrwt>
<totfact> 0.22147053E+03</totfact>
</mgrwt>
</event>
<event>
 4    1  0.1896644E-005  0.5178697E+03  0.7818608E-02  0.1009217E+00
         -2   -1    0    0    0  501 -0.00000000000E+00  0.00000000000E+00  0.26430157207E+02  0.26430157330E+02  0.25500000000E-02 0. -1.
          2   -1    0    0  501    0  0.00000000000E+00 -0.00000000000E+00 -0.25367706275E+04  0.25367706275E+04  0.25500000000E-02 0.  1.
    5000001    1    1    2    0    0 -0.61365520630E+02  0.14015183186E+03 -0.16625657845E+04  0.16805943148E+04  0.19200000000E+03 0.  0.
   -5000001    1    1    2    0    0  0.61365520630E+02 -0.14015183186E+03 -0.84777468579E+03  0.88260647004E+03  0.19200000000E+03 0.  0.
<mgrwt>
<rscale>  0 0.51786966E+03</rscale>
<asrwt>0</asrwt>
<pdfrwt beam="1">  1        2 0.36239565E+00 0.51786966E+03</pdfrwt>
<pdfrwt beam="2">  1       -2 0.37757384E-02 0.51786966E+03</pdfrwt>
<totfact> 0.14093294E+03</totfact>
</mgrwt>
</event>
<event>
 4    1  0.1896644E-005  0.7662827E+03  0.7818608E-02  0.9610146E-01
         -2   -1    0    0    0  501 -0.00000000000E+00  0.00000000000E+00  0.13380531250E+03  0.13380531253E+03  0.25500000000E-02 0. -1.
          2   -1    0    0  501    0  0.00000000000E+00 -0.00000000000E+00 -0.10970962058E+04  0.10970962058E+04  0.25500000000E-02 0.  1.
    5000001    1    1    2    0    0 -0.20449030373E+03 -0.14454382829E+03 -0.83071832962E+03  0.88863161421E+03  0.19200000000E+03 0.  0.
   -5000001    1    1    2    0    0  0.20449030373E+03  0.14454382829E+03 -0.13257256366E+03  0.34226990410E+03  0.19200000000E+03 0.  0.
<mgrwt>
<rscale>  0 0.76628272E+03</rscale>
<asrwt>0</asrwt>
<pdfrwt beam="1">  1        2 0.15672802E+00 0.76628272E+03</pdfrwt>
<pdfrwt beam="2">  1       -2 0.19115045E-01 0.76628272E+03</pdfrwt>
<totfact> 0.56875187E+02</totfact>
</mgrwt>
</event>
<event>
 4    1  0.1896644E-005  0.4219110E+03  0.7818608E-02  0.1036446E+00
         -2   -1    0    0    0  501 -0.00000000000E+00  0.00000000000E+00  0.86390540395E+02  0.86390540433E+02  0.25500000000E-02 0. -1.
          2   -1    0    0  501    0  0.00000000000E+00 -0.00000000000E+00 -0.51512832599E+03  0.51512832599E+03  0.25500000000E-02 0.  1.
    5000001    1    1    2    0    0 -0.74082494360E+02  0.46341691346E+02 -0.21213907616E+03  0.29917011208E+03  0.19200000000E+03 0.  0.
   -5000001    1    1    2    0    0  0.74082494360E+02 -0.46341691346E+02 -0.21659870943E+03  0.30234875434E+03  0.19200000000E+03 0.  0.
<mgrwt>
<rscale>  0 0.42191096E+03</rscale>
<asrwt>0</asrwt>
<pdfrwt beam="1">  1        2 0.73589759E-01 0.42191096E+03</pdfrwt>
<pdfrwt beam="2">  1       -2 0.12341506E-01 0.42191096E+03</pdfrwt>
<totfact> 0.31135776E+03</totfact>
</mgrwt>
</event>
<event>
 4    1  0.1896644E-005  0.7149645E+03  0.7818608E-02  0.9691978E-01
         -2   -1    0    0    0  501 -0.00000000000E+00  0.00000000000E+00  0.41071259046E+02  0.41071259125E+02  0.25500000000E-02 0.  1.
          2   -1    0    0  501    0  0.00000000000E+00 -0.00000000000E+00 -0.31115079941E+04  0.31115079941E+04  0.25500000000E-02 0. -1.
    5000001    1    1    2    0    0  0.19030791438E+02  0.28780350060E+03 -0.11473766557E+04  0.11985533847E+04  0.19200000000E+03 0.  0.
   -5000001    1    1    2    0    0 -0.19030791438E+02 -0.28780350060E+03 -0.19230600794E+04  0.19540258685E+04  0.19200000000E+03 0.  0.
<mgrwt>
<rscale>  0 0.71496448E+03</rscale>
<asrwt>0</asrwt>
<pdfrwt beam="1">  1        2 0.44450099E+00 0.71496448E+03</pdfrwt>
<pdfrwt beam="2">  1       -2 0.58673247E-02 0.71496448E+03</pdfrwt>
<totfact> 0.34610931E+02</totfact>
</mgrwt>
</event>
<event>
 4    1  0.1896644E-005  0.6813913E+03  0.7818608E-02  0.9749596E-01
         -2   -1    0    0    0  501 -0.00000000000E+00  0.00000000000E+00  0.11030722900E+03  0.11030722903E+03  0.25500000000E-02 0. -1.
          2   -1    0    0  501    0  0.00000000000E+00 -0.00000000000E+00 -0.10522749212E+04  0.10522749212E+04  0.25500000000E-02 0.  1.
    5000001    1    1    2    0    0  0.15751059606E+03  0.23208348059E+03 -0.43143849653E+03  0.54924994868E+03  0.19200000000E+03 0.  0.
   -5000001    1    1    2    0    0 -0.15751059606E+03 -0.23208348059E+03 -0.51052919562E+03  0.61333220152E+03  0.19200000000E+03 0.  0.
<mgrwt>
<rscale>  0 0.68139131E+03</rscale>
<asrwt>0</asrwt>
<pdfrwt beam="1">  1        2 0.15032498E+00 0.68139131E+03</pdfrwt>
<pdfrwt beam="2">  1       -2 0.15758176E-01 0.68139131E+03</pdfrwt>
<totfact> 0.84489927E+02</totfact>
</mgrwt>
</event>
<event>
 4    1  0.1896644E-005  0.6014206E+03  0.7818608E-02  0.9902463E-01
         -2   -1    0    0    0  501 -0.00000000000E+00  0.00000000000E+00  0.20680023368E+02  0.20680023525E+02  0.25500000000E-02 0. -1.
          2   -1    0    0  501    0  0.00000000000E+00 -0.00000000000E+00 -0.43726589751E+04  0.43726589751E+04  0.25500000000E-02 0.  1.
    5000001    1    1    2    0    0 -0.19571860518E+03  0.12307403649E+03 -0.22524994841E+04  0.22724592223E+04  0.19200000000E+03 0.  0.
   -5000001    1    1    2    0    0  0.19571860518E+03 -0.12307403649E+03 -0.20994794676E+04  0.21208797764E+04  0.19200000000E+03 0.  0.
<mgrwt>
<rscale>  0 0.60142062E+03</rscale>
<asrwt>0</asrwt>
<pdfrwt beam="1">  1        2 0.62466498E+00 0.60142062E+03</pdfrwt>
<pdfrwt beam="2">  1       -2 0.29542919E-02 0.60142062E+03</pdfrwt>
<totfact> 0.16027997E+02</totfact>
</mgrwt>
</event>
<event>
 4    1  0.1896644E-005  0.4715033E+03  0.7818608E-02  0.1021497E+00
          2   -1    0    0  501    0  0.00000000000E+00  0.00000000000E+00  0.30412369893E+04  0.30412369893E+04  0.25500000000E-02 0.  1.
         -2   -1    0    0    0  501 -0.00000000000E+00 -0.00000000000E+00 -0.18275077861E+02  0.18275078039E+02  0.25500000000E-02 0. -1.
    5000001    1    1    2    0    0  0.63580356911E+02 -0.90551482562E+02  0.20335330741E+04  0.20455715084E+04  0.19200000000E+03 0.  0.
   -5000001    1    1    2    0    0 -0.63580356911E+02  0.90551482562E+02  0.98942883742E+03  0.10139405590E+04  0.19200000000E+03 0.  0.
<mgrwt>
<rscale>  0 0.47150331E+03</rscale>
<asrwt>0</asrwt>
<pdfrwt beam="1">  1        2 0.43446163E+00 0.47150331E+03</pdfrwt>
<pdfrwt beam="2">  1       -2 0.26107302E-02 0.47150331E+03</pdfrwt>
<totfact> 0.13428932E+03</totfact>
</mgrwt>
</event>
<event>
 4    1  0.1896644E-005  0.6549713E+03  0.7818608E-02  0.9797495E-01
          2   -1    0    0  501    0  0.00000000000E+00  0.00000000000E+00  0.38207268825E+03  0.38207268826E+03  0.25500000000E-02 0. -1.
         -2   -1    0    0    0  501 -0.00000000000E+00 -0.00000000000E+00 -0.28069753279E+03  0.28069753280E+03  0.25500000000E-02 0.  1.
    5000001    1    1    2    0    0  0.25700164180E+03 -0.85466060167E+01  0.11673320947E+03  0.34148723337E+03  0.19200000000E+03 0.  0.
   -5000001    1    1    2    0    0 -0.25700164180E+03  0.85466060167E+01 -0.15358054003E+02  0.32128298770E+03  0.19200000000E+03 0.  0.
<mgrwt>
<rscale>  0 0.65497133E+03</rscale>
<asrwt>0</asrwt>
<pdfrwt beam="1">  1        2 0.54581813E-01 0.65497133E+03</pdfrwt>
<pdfrwt beam="2">  1       -2 0.40099648E-01 0.65497133E+03</pdfrwt>
<totfact> 0.53941543E+02</totfact>
</mgrwt>
</event>
<event>
 4    1  0.1896644E-005  0.7779313E+03  0.7818608E-02  0.9592522E-01
          2   -1    0    0  501    0  0.00000000000E+00  0.00000000000E+00  0.18891016545E+04  0.18891016545E+04  0.25500000000E-02 0.  1.
         -2   -1    0    0    0  501 -0.00000000000E+00 -0.00000000000E+00 -0.80087948639E+02  0.80087948680E+02  0.25500000000E-02 0. -1.
    5000001    1    1    2    0    0 -0.86462067665E+02  0.23266677665E+03  0.32274049322E+03  0.45014991288E+03  0.19200000000E+03 0.  0.
   -5000001    1    1    2    0    0  0.86462067665E+02 -0.23266677665E+03  0.14862732127E+04  0.15190396903E+04  0.19200000000E+03 0.  0.
<mgrwt>
<rscale>  0 0.77793130E+03</rscale>
<asrwt>0</asrwt>
<pdfrwt beam="1">  1        2 0.26987163E+00 0.77793130E+03</pdfrwt>
<pdfrwt beam="2">  1       -2 0.11441137E-01 0.77793130E+03</pdfrwt>
<totfact> 0.51184056E+02</totfact>
</mgrwt>
</event>
<event>
 4    1  0.1896644E-005  0.6114012E+03  0.7818608E-02  0.9882031E-01
         -2   -1    0    0    0  501 -0.00000000000E+00  0.00000000000E+00  0.81252130830E+02  0.81252130870E+02  0.25500000000E-02 0. -1.
          2   -1    0    0  501    0  0.00000000000E+00 -0.00000000000E+00 -0.11501587678E+04  0.11501587678E+04  0.25500000000E-02 0.  1.
    5000001    1    1    2    0    0 -0.83413584130E+02  0.18704462951E+03 -0.77819304539E+03  0.82727984101E+03  0.19200000000E+03 0.  0.
   -5000001    1    1    2    0    0  0.83413584130E+02 -0.18704462951E+03 -0.29071359161E+03  0.40413105769E+03  0.19200000000E+03 0.  0.
<mgrwt>
<rscale>  0 0.61140118E+03</rscale>
<asrwt>0</asrwt>
<pdfrwt beam="1">  1        2 0.16430839E+00 0.61140118E+03</pdfrwt>
<pdfrwt beam="2">  1       -2 0.11607448E-01 0.61140118E+03</pdfrwt>
<totfact> 0.12362831E+03</totfact>
</mgrwt>
</event>
<event>
 4    1  0.1896644E-005  0.5302241E+03  0.7818608E-02  0.1006178E+00
          2   -1    0    0  501    0  0.00000000000E+00  0.00000000000E+00  0.54857714515E+02  0.54857714574E+02  0.25500000000E-02 0.  1.
         -2   -1    0    0    0  501 -0.00000000000E+00 -0.00000000000E+00 -0.12812128772E+04  0.12812128772E+04  0.25500000000E-02 0. -1.
    5000001    1    1    2    0    0 -0.10892509130E+02 -0.95822768210E+02 -0.10045195300E+04  0.10272410311E+04  0.19200000000E+03 0.  0.
   -5000001    1    1    2    0    0  0.10892509130E+02  0.95822768210E+02 -0.22183563265E+03  0.30882956072E+03  0.19200000000E+03 0.  0.
<mgrwt>
<rscale>  0 0.53022414E+03</rscale>
<asrwt>0</asrwt>
<pdfrwt beam="1">  1        2 0.78368172E-02 0.53022414E+03</pdfrwt>
<pdfrwt beam="2">  1       -2 0.18303039E+00 0.53022414E+03</pdfrwt>
<totfact> 0.16100258E+02</totfact>
</mgrwt>
</event>
<event>
 4    1  0.1896644E-005  0.6343269E+03  0.7818608E-02  0.9836641E-01
          2   -1    0    0  501    0  0.00000000000E+00  0.00000000000E+00  0.68457357070E+03  0.68457357071E+03  0.25500000000E-02 0.  1.
         -2   -1    0    0    0  501 -0.00000000000E+00 -0.00000000000E+00 -0.14694207435E+03  0.14694207438E+03  0.25500000000E-02 0. -1.
    5000001    1    1    2    0    0  0.23498560208E+03 -0.29334330154E+02  0.15416263429E+03  0.34162677577E+03  0.19200000000E+03 0.  0.
   -5000001    1    1    2    0    0 -0.23498560208E+03  0.29334330154E+02  0.38346886206E+03  0.48988886931E+03  0.19200000000E+03 0.  0.
<mgrwt>
<rscale>  0 0.63432692E+03</rscale>
<asrwt>0</asrwt>
<pdfrwt beam="1">  1        2 0.97796226E-01 0.63432692E+03</pdfrwt>
<pdfrwt beam="2">  1       -2 0.20991725E-01 0.63432692E+03</pdfrwt>
<totfact> 0.90899340E+02</totfact>
</mgrwt>
</event>
<event>
 4    1  0.1896644E-005  0.5455479E+03  0.7818608E-02  0.1002530E+00
         -2   -1    0    0    0  501 -0.00000000000E+00  0.00000000000E+00  0.44918794543E+02  0.44918794616E+02  0.25500000000E-02 0. -1.
          2   -1    0    0  501    0  0.00000000000E+00 -0.00000000000E+00 -0.16564477852E+04  0.16564477852E+04  0.25500000000E-02 0.  1.
    5000001    1    1    2    0    0 -0.14452908433E+03  0.11808518604E+03 -0.96807965946E+03  0.10044276950E+04  0.19200000000E+03 0.  0.
   -5000001    1    1    2    0    0  0.14452908433E+03 -0.11808518604E+03 -0.64344933116E+03  0.69693888481E+03  0.19200000000E+03 0.  0.
<mgrwt>
<rscale>  0 0.54554794E+03</rscale>
<asrwt>0</asrwt>
<pdfrwt beam="1">  1        2 0.23663536E+00 0.54554794E+03</pdfrwt>
<pdfrwt beam="2">  1       -2 0.64169717E-02 0.54554794E+03</pdfrwt>
<totfact> 0.17201332E+03</totfact>
</mgrwt>
</event>
<event>
 4    1  0.1896644E-005  0.5878558E+03  0.7818608E-02  0.9930927E-01
         -2   -1    0    0    0  501 -0.00000000000E+00  0.00000000000E+00  0.22120938747E+02  0.22120938894E+02  0.25500000000E-02 0. -1.
          2   -1    0    0  501    0  0.00000000000E+00 -0.00000000000E+00 -0.39055126739E+04  0.39055126739E+04  0.25500000000E-02 0.  1.
    5000001    1    1    2    0    0 -0.21830180911E+03  0.29946532621E+02 -0.17328447311E+04  0.17573182230E+04  0.19200000000E+03 0.  0.
   -5000001    1    1    2    0    0  0.21830180911E+03 -0.29946532621E+02 -0.21505470041E+04  0.21703153899E+04  0.19200000000E+03 0.  0.
<mgrwt>
<rscale>  0 0.58785579E+03</rscale>
<asrwt>0</asrwt>
<pdfrwt beam="1">  1        2 0.55792994E+00 0.58785579E+03</pdfrwt>
<pdfrwt beam="2">  1       -2 0.31601366E-02 0.58785579E+03</pdfrwt>
<totfact> 0.30583253E+02</totfact>
</mgrwt>
</event>
<event>
 4    1  0.1896644E-005  0.5590534E+03  0.7818608E-02  0.9994199E-01
          2   -1    0    0  501    0  0.00000000000E+00  0.00000000000E+00  0.53549569004E+03  0.53549569005E+03  0.25500000000E-02 0.  1.
         -2   -1    0    0    0  501 -0.00000000000E+00 -0.00000000000E+00 -0.14591186794E+03  0.14591186796E+03  0.25500000000E-02 0. -1.
    5000001    1    1    2    0    0 -0.18488277276E+03  0.84535688456E+01  0.29690058154E+03  0.39908277063E+03  0.19200000000E+03 0.  0.
   -5000001    1    1    2    0    0  0.18488277276E+03 -0.84535688456E+01  0.92683240556E+02  0.28232478738E+03  0.19200000000E+03 0.  0.
<mgrwt>
<rscale>  0 0.55905340E+03</rscale>
<asrwt>0</asrwt>
<pdfrwt beam="1">  1        2 0.76499384E-01 0.55905340E+03</pdfrwt>
<pdfrwt beam="2">  1       -2 0.20844553E-01 0.55905340E+03</pdfrwt>
<totfact> 0.12308580E+03</totfact>
</mgrwt>
</event>
<event>
 4    1  0.1896644E-005  0.1524289E+04  0.7818608E-02  0.8868460E-01
         -2   -1    0    0    0  501 -0.00000000000E+00  0.00000000000E+00  0.40915662718E+03  0.40915662719E+03  0.25500000000E-02 0. -1.
          2   -1    0    0  501    0  0.00000000000E+00 -0.00000000000E+00 -0.14196618823E+04  0.14196618823E+04  0.25500000000E-02 0.  1.
    5000001    1    1    2    0    0  0.14144615339E+03  0.63737824790E+03 -0.91694147526E+03  0.11418860338E+04  0.19200000000E+03 0.  0.
   -5000001    1    1    2    0    0 -0.14144615339E+03 -0.63737824790E+03 -0.93563779839E+02  0.68693247565E+03  0.19200000000E+03 0.  0.
<mgrwt>
<rscale>  0 0.15242888E+04</rscale>
<asrwt>0</asrwt>
<pdfrwt beam="1">  1        2 0.20280884E+00 0.15242888E+04</pdfrwt>
<pdfrwt beam="2">  1       -2 0.58450948E-01 0.15242888E+04</pdfrwt>
<totfact> 0.42684376E+01</totfact>
</mgrwt>
</event>
<event>
 4    1  0.1896644E-005  0.5072233E+03  0.7818608E-02  0.1011911E+00
         -2   -1    0    0    0  501 -0.00000000000E+00  0.00000000000E+00  0.25518345337E+03  0.25518345338E+03  0.25500000000E-02 0. -1.
          2   -1    0    0  501    0  0.00000000000E+00 -0.00000000000E+00 -0.25204951912E+03  0.25204951913E+03  0.25500000000E-02 0.  1.
    5000001    1    1    2    0    0 -0.78953124537E+02 -0.13216378081E+03  0.62838079340E+02  0.25399504926E+03  0.19200000000E+03 0.  0.
   -5000001    1    1    2    0    0  0.78953124537E+02  0.13216378081E+03 -0.59704145092E+02  0.25323792325E+03  0.19200000000E+03 0.  0.
<mgrwt>
<rscale>  0 0.50722329E+03</rscale>
<asrwt>0</asrwt>
<pdfrwt beam="1">  1        2 0.36007074E-01 0.50722329E+03</pdfrwt>
<pdfrwt beam="2">  1       -2 0.36454779E-01 0.50722329E+03</pdfrwt>
<totfact> 0.10275294E+03</totfact>
</mgrwt>
</event>
<event>
 4    1  0.1896644E-005  0.4818046E+03  0.7818608E-02  0.1018640E+00
          2   -1    0    0  501    0  0.00000000000E+00  0.00000000000E+00  0.72477145468E+03  0.72477145468E+03  0.25500000000E-02 0.  1.
         -2   -1    0    0    0  501 -0.00000000000E+00 -0.00000000000E+00 -0.80072018947E+02  0.80072018987E+02  0.25500000000E-02 0. -1.
    5000001    1    1    2    0    0  0.12584016201E+03 -0.67828533782E+02  0.27710916337E+03  0.36618293897E+03  0.19200000000E+03 0.  0.
   -5000001    1    1    2    0    0 -0.12584016201E+03  0.67828533782E+02  0.36759027236E+03  0.43866053470E+03  0.19200000000E+03 0.  0.
<mgrwt>
<rscale>  0 0.48180458E+03</rscale>
<asrwt>0</asrwt>
<pdfrwt beam="1">  1        2 0.10353878E+00 0.48180458E+03</pdfrwt>
<pdfrwt beam="2">  1       -2 0.11438860E-01 0.48180458E+03</pdfrwt>
<totfact> 0.23652288E+03</totfact>
</mgrwt>
</event>
<event>
 4    1  0.1896644E-005  0.5252674E+03  0.7818608E-02  0.1007386E+00
          2   -1    0    0  501    0  0.00000000000E+00  0.00000000000E+00  0.12138608740E+04  0.12138608740E+04  0.25500000000E-02 0.  1.
         -2   -1    0    0    0  501 -0.00000000000E+00 -0.00000000000E+00 -0.56824033469E+02  0.56824033526E+02  0.25500000000E-02 0. -1.
    5000001    1    1    2    0    0 -0.10985837241E+03  0.13866228948E+03  0.64763832949E+03  0.69828038661E+03  0.19200000000E+03 0.  0.
   -5000001    1    1    2    0    0  0.10985837241E+03 -0.13866228948E+03  0.50939851107E+03  0.57240452094E+03  0.19200000000E+03 0.  0.
<mgrwt>
<rscale>  0 0.52526744E+03</rscale>
<asrwt>0</asrwt>
<pdfrwt beam="1">  1        2 0.17340871E+00 0.52526744E+03</pdfrwt>
<pdfrwt beam="2">  1       -2 0.81177186E-02 0.52526744E+03</pdfrwt>
<totfact> 0.20320086E+03</totfact>
</mgrwt>
</event>
<event>
 4    1  0.1896644E-005  0.4251835E+03  0.7818608E-02  0.1035392E+00
         -2   -1    0    0    0  501 -0.00000000000E+00  0.00000000000E+00  0.54557337967E+02  0.54557338027E+02  0.25500000000E-02 0. -1.
          2   -1    0    0  501    0  0.00000000000E+00 -0.00000000000E+00 -0.82839922970E+03  0.82839922971E+03  0.25500000000E-02 0.  1.
    5000001    1    1    2    0    0 -0.57502493374E+02  0.16787316483E+02 -0.52993712693E+03  0.56682070290E+03  0.19200000000E+03 0.  0.
   -5000001    1    1    2    0    0  0.57502493374E+02 -0.16787316483E+02 -0.24390476481E+03  0.31613586484E+03  0.19200000000E+03 0.  0.
<mgrwt>
<rscale>  0 0.42518352E+03</rscale>
<asrwt>0</asrwt>
<pdfrwt beam="1">  1        2 0.11834274E+00 0.42518352E+03</pdfrwt>
<pdfrwt beam="2">  1       -2 0.77939059E-02 0.42518352E+03</pdfrwt>
<totfact> 0.36981665E+03</totfact>
</mgrwt>
</event>
<event>
 4    1  0.1896644E-005  0.4598083E+03  0.7818608E-02  0.1024837E+00
          2   -1    0    0  501    0  0.00000000000E+00  0.00000000000E+00  0.11359078665E+04  0.11359078665E+04  0.25500000000E-02 0.  1.
         -2   -1    0    0    0  501 -0.00000000000E+00 -0.00000000000E+00 -0.46531860930E+02  0.46531861000E+02  0.25500000000E-02 0. -1.
    5000001    1    1    2    0    0  0.69496805875E+02  0.10522616884E+03  0.56902379180E+03  0.61364030854E+03  0.19200000000E+03 0.  0.
   -5000001    1    1    2    0    0 -0.69496805875E+02 -0.10522616884E+03  0.52035221382E+03  0.56879941901E+03  0.19200000000E+03 0.  0.
<mgrwt>
<rscale>  0 0.45980825E+03</rscale>
<asrwt>0</asrwt>
<pdfrwt beam="1">  1        2 0.16227254E+00 0.45980825E+03</pdfrwt>
<pdfrwt beam="2">  1       -2 0.66474090E-02 0.45980825E+03</pdfrwt>
<totfact> 0.30814586E+03</totfact>
</mgrwt>
</event>
<event>
 4    1  0.1896644E-005  0.7109077E+03  0.7818608E-02  0.9698758E-01
          2   -1    0    0  501    0  0.00000000000E+00  0.00000000000E+00  0.10029242252E+04  0.10029242252E+04  0.25500000000E-02 0.  1.
         -2   -1    0    0    0  501 -0.00000000000E+00 -0.00000000000E+00 -0.12597904604E+03  0.12597904606E+03  0.25500000000E-02 0. -1.
    5000001    1    1    2    0    0 -0.15985434802E+03  0.23929331888E+03  0.30879493310E+03  0.46371652521E+03  0.19200000000E+03 0.  0.
   -5000001    1    1    2    0    0  0.15985434802E+03 -0.23929331888E+03  0.56815024609E+03  0.66518674609E+03  0.19200000000E+03 0.  0.
<mgrwt>
<rscale>  0 0.71090769E+03</rscale>
<asrwt>0</asrwt>
<pdfrwt beam="1">  1        2 0.14327489E+00 0.71090769E+03</pdfrwt>
<pdfrwt beam="2">  1       -2 0.17997007E-01 0.71090769E+03</pdfrwt>
<totfact> 0.72036986E+02</totfact>
</mgrwt>
</event>
<event>
 4    1  0.1896644E-005  0.6961018E+03  0.7818608E-02  0.9723922E-01
          2   -1    0    0  501    0  0.00000000000E+00  0.00000000000E+00  0.17136169960E+04  0.17136169960E+04  0.25500000000E-02 0.  1.
         -2   -1    0    0    0  501 -0.00000000000E+00 -0.00000000000E+00 -0.70692242832E+02  0.70692242878E+02  0.25500000000E-02 0. -1.
    5000001    1    1    2    0    0 -0.26628758474E+03  0.93688068226E+02  0.64782168001E+03  0.73227280505E+03  0.19200000000E+03 0.  0.
   -5000001    1    1    2    0    0  0.26628758474E+03 -0.93688068226E+02  0.99510307313E+03  0.10520364338E+04  0.19200000000E+03 0.  0.
<mgrwt>
<rscale>  0 0.69610180E+03</rscale>
<asrwt>0</asrwt>
<pdfrwt beam="1">  1        2 0.24480243E+00 0.69610180E+03</pdfrwt>
<pdfrwt beam="2">  1       -2 0.10098892E-01 0.69610180E+03</pdfrwt>
<totfact> 0.77470000E+02</totfact>
</mgrwt>
</event>
<event>
 4    1  0.1896644E-005  0.5553216E+03  0.7818608E-02  0.1000270E+00
          2   -1    0    0  501    0  0.00000000000E+00  0.00000000000E+00  0.69533908309E+03  0.69533908310E+03  0.25500000000E-02 0.  1.
         -2   -1    0    0    0  501 -0.00000000000E+00 -0.00000000000E+00 -0.11087471470E+03  0.11087471473E+03  0.25500000000E-02 0. -1.
    5000001    1    1    2    0    0 -0.12169860059E+03 -0.15020146531E+03  0.36987943618E+03  0.45939724300E+03  0.19200000000E+03 0.  0.
   -5000001    1    1    2    0    0  0.12169860059E+03  0.15020146531E+03  0.21458493222E+03  0.34681655483E+03  0.19200000000E+03 0.  0.
<mgrwt>
<rscale>  0 0.55532161E+03</rscale>
<asrwt>0</asrwt>
<pdfrwt beam="1">  1        2 0.99334154E-01 0.55532161E+03</pdfrwt>
<pdfrwt beam="2">  1       -2 0.15839245E-01 0.55532161E+03</pdfrwt>
<totfact> 0.14498043E+03</totfact>
</mgrwt>
</event>
<event>
 4    1  0.1896644E-005  0.9412192E+03  0.7818608E-02  0.9375473E-01
         -2   -1    0    0    0  501 -0.00000000000E+00  0.00000000000E+00  0.51436730558E+02  0.51436730621E+02  0.25500000000E-02 0. -1.
          2   -1    0    0  501    0  0.00000000000E+00 -0.00000000000E+00 -0.43057444576E+04  0.43057444576E+04  0.25500000000E-02 0.  1.
    5000001    1    1    2    0    0 -0.42928445809E+03  0.42104477685E+01 -0.22082053731E+04  0.22577284698E+04  0.19200000000E+03 0.  0.
   -5000001    1    1    2    0    0  0.42928445809E+03 -0.42104477685E+01 -0.20461023539E+04  0.20994527184E+04  0.19200000000E+03 0.  0.
<mgrwt>
<rscale>  0 0.94121925E+03</rscale>
<asrwt>0</asrwt>
<pdfrwt beam="1">  1        2 0.61510612E+00 0.94121925E+03</pdfrwt>
<pdfrwt beam="2">  1       -2 0.73481071E-02 0.94121925E+03</pdfrwt>
<totfact> 0.41405540E+01</totfact>
</mgrwt>
</event>
<event>
 4    1  0.1896644E-005  0.4399149E+03  0.7818608E-02  0.1030773E+00
         -2   -1    0    0    0  501 -0.00000000000E+00  0.00000000000E+00  0.16921600984E+03  0.16921600986E+03  0.25500000000E-02 0. -1.
          2   -1    0    0  501    0  0.00000000000E+00 -0.00000000000E+00 -0.28591437468E+03  0.28591437469E+03  0.25500000000E-02 0.  1.
    5000001    1    1    2    0    0 -0.44040151188E+02 -0.86106191705E+02 -0.10647115305E+03  0.23990397578E+03  0.19200000000E+03 0.  0.
   -5000001    1    1    2    0    0  0.44040151188E+02  0.86106191705E+02 -0.10227211795E+02  0.21522640876E+03  0.19200000000E+03 0.  0.
<mgrwt>
<rscale>  0 0.43991494E+03</rscale>
<asrwt>0</asrwt>
<pdfrwt beam="1">  1        2 0.40844911E-01 0.43991494E+03</pdfrwt>
<pdfrwt beam="2">  1       -2 0.24173716E-01 0.43991494E+03</pdfrwt>
<totfact> 0.19002151E+03</totfact>
</mgrwt>
</event>
<event>
 4    1  0.1896644E-005  0.8189622E+03  0.7818608E-02  0.9532968E-01
          2   -1    0    0  501    0  0.00000000000E+00  0.00000000000E+00  0.11554239491E+04  0.11554239491E+04  0.25500000000E-02 0.  1.
         -2   -1    0    0    0  501 -0.00000000000E+00 -0.00000000000E+00 -0.14511971081E+03  0.14511971083E+03  0.25500000000E-02 0. -1.
    5000001    1    1    2    0    0  0.40189022468E+02  0.31511688983E+03  0.23056845329E+03  0.43696638707E+03  0.19200000000E+03 0.  0.
   -5000001    1    1    2    0    0 -0.40189022468E+02 -0.31511688983E+03  0.77973578496E+03  0.86357727282E+03  0.19200000000E+03 0.  0.
<mgrwt>
<rscale>  0 0.81896224E+03</rscale>
<asrwt>0</asrwt>
<pdfrwt beam="1">  1        2 0.16506056E+00 0.81896224E+03</pdfrwt>
<pdfrwt beam="2">  1       -2 0.20731387E-01 0.81896224E+03</pdfrwt>
<totfact> 0.45539809E+02</totfact>
</mgrwt>
</event>
<event>
 4    1  0.1896644E-005  0.5173212E+03  0.7818608E-02  0.1009354E+00
          2   -1    0    0  501    0  0.00000000000E+00  0.00000000000E+00  0.77388844844E+03  0.77388844844E+03  0.25500000000E-02 0.  1.
         -2   -1    0    0    0  501 -0.00000000000E+00 -0.00000000000E+00 -0.86453428901E+02  0.86453428939E+02  0.25500000000E-02 0. -1.
    5000001    1    1    2    0    0  0.65978170450E+02  0.16008929009E+03  0.35655768794E+03  0.44043056729E+03  0.19200000000E+03 0.  0.
   -5000001    1    1    2    0    0 -0.65978170450E+02 -0.16008929009E+03  0.33087733160E+03  0.41991131009E+03  0.19200000000E+03 0.  0.
<mgrwt>
<rscale>  0 0.51732122E+03</rscale>
<asrwt>0</asrwt>
<pdfrwt beam="1">  1        2 0.11055549E+00 0.51732122E+03</pdfrwt>
<pdfrwt beam="2">  1       -2 0.12350490E-01 0.51732122E+03</pdfrwt>
<totfact> 0.19233199E+03</totfact>
</mgrwt>
</event>
<event>
 4    1  0.1896644E-005  0.5384242E+03  0.7818608E-02  0.1004209E+00
          2   -1    0    0  501    0  0.00000000000E+00  0.00000000000E+00  0.12555453837E+03  0.12555453839E+03  0.25500000000E-02 0.  1.
         -2   -1    0    0    0  501 -0.00000000000E+00 -0.00000000000E+00 -0.57724042560E+03  0.57724042561E+03  0.25500000000E-02 0. -1.
    5000001    1    1    2    0    0 -0.42634895448E+02  0.16946991289E+03 -0.13287091340E+03  0.29164441588E+03  0.19200000000E+03 0.  0.
   -5000001    1    1    2    0    0  0.42634895448E+02 -0.16946991289E+03 -0.31881497383E+03  0.41115054813E+03  0.19200000000E+03 0.  0.
<mgrwt>
<rscale>  0 0.53842420E+03</rscale>
<asrwt>0</asrwt>
<pdfrwt beam="1">  1        2 0.17936363E-01 0.53842420E+03</pdfrwt>
<pdfrwt beam="2">  1       -2 0.82462917E-01 0.53842420E+03</pdfrwt>
<totfact> 0.42137302E+02</totfact>
</mgrwt>
</event>
<event>
 4    1  0.1896644E-005  0.5101397E+03  0.7818608E-02  0.1011166E+00
         -2   -1    0    0    0  501 -0.00000000000E+00  0.00000000000E+00  0.44636301123E+02  0.44636301196E+02  0.25500000000E-02 0. -1.
          2   -1    0    0  501    0  0.00000000000E+00 -0.00000000000E+00 -0.14575720222E+04  0.14575720222E+04  0.25500000000E-02 0.  1.
    5000001    1    1    2    0    0 -0.44864496081E+02 -0.65615121885E+02 -0.27090644849E+03  0.34142710944E+03  0.19200000000E+03 0.  0.
   -5000001    1    1    2    0    0  0.44864496081E+02  0.65615121885E+02 -0.11420292726E+04  0.11607812140E+04  0.19200000000E+03 0.  0.
<mgrwt>
<rscale>  0 0.51013968E+03</rscale>
<asrwt>0</asrwt>
<pdfrwt beam="1">  1        2 0.20822454E+00 0.51013968E+03</pdfrwt>
<pdfrwt beam="2">  1       -2 0.63766154E-02 0.51013968E+03</pdfrwt>
<totfact> 0.22011415E+03</totfact>
</mgrwt>
</event>
<event>
 4    1  0.1896644E-005  0.5882126E+03  0.7818608E-02  0.9930168E-01
         -2   -1    0    0    0  501 -0.00000000000E+00  0.00000000000E+00  0.84771025691E+03  0.84771025691E+03  0.25500000000E-02 0. -1.
          2   -1    0    0  501    0  0.00000000000E+00 -0.00000000000E+00 -0.10203781682E+03  0.10203781685E+03  0.25500000000E-02 0.  1.
    5000001    1    1    2    0    0 -0.20298458213E+03  0.81339952184E+02  0.44163508722E+03  0.52888985495E+03  0.19200000000E+03 0.  0.
   -5000001    1    1    2    0    0  0.20298458213E+03 -0.81339952184E+02  0.30403735287E+03  0.42085821882E+03  0.19200000000E+03 0.  0.
<mgrwt>
<rscale>  0 0.58821256E+03</rscale>
<asrwt>0</asrwt>
<pdfrwt beam="1">  1        2 0.14576830E-01 0.58821256E+03</pdfrwt>
<pdfrwt beam="2">  1       -2 0.12110147E+00 0.58821256E+03</pdfrwt>
<totfact> 0.21840431E+02</totfact>
</mgrwt>
</event>
<event>
 4    1  0.1896644E-005  0.5402934E+03  0.7818608E-02  0.1003766E+00
         -2   -1    0    0    0  501 -0.00000000000E+00  0.00000000000E+00  0.12056746434E+03  0.12056746437E+03  0.25500000000E-02 0.  1.
          2   -1    0    0  501    0  0.00000000000E+00 -0.00000000000E+00 -0.60529792593E+03  0.60529792594E+03  0.25500000000E-02 0. -1.
    5000001    1    1    2    0    0 -0.61888021372E+01  0.18962451617E+03 -0.25705009298E+03  0.37273919663E+03  0.19200000000E+03 0.  0.
   -5000001    1    1    2    0    0  0.61888021372E+01 -0.18962451617E+03 -0.22768036861E+03  0.35312619367E+03  0.19200000000E+03 0.  0.
<mgrwt>
<rscale>  0 0.54029339E+03</rscale>
<asrwt>0</asrwt>
<pdfrwt beam="1">  1        2 0.86471130E-01 0.54029339E+03</pdfrwt>
<pdfrwt beam="2">  1       -2 0.17223924E-01 0.54029339E+03</pdfrwt>
<totfact> 0.14843366E+03</totfact>
</mgrwt>
</event>
<event>
 4    1  0.1896644E-005  0.6601433E+03  0.7818608E-02  0.9787930E-01
          2   -1    0    0  501    0  0.00000000000E+00  0.00000000000E+00  0.13039334044E+04  0.13039334044E+04  0.25500000000E-02 0.  1.
         -2   -1    0    0    0  501 -0.00000000000E+00 -0.00000000000E+00 -0.83552795239E+02  0.83552795278E+02  0.25500000000E-02 0. -1.
    5000001    1    1    2    0    0 -0.21361715485E+03  0.32320601166E+02  0.94520340796E+03  0.98840800914E+03  0.19200000000E+03 0.  0.
   -5000001    1    1    2    0    0  0.21361715485E+03 -0.32320601166E+02  0.27517720118E+03  0.39907819053E+03  0.19200000000E+03 0.  0.
<mgrwt>
<rscale>  0 0.66014326E+03</rscale>
<asrwt>0</asrwt>
<pdfrwt beam="1">  1        2 0.18627620E+00 0.66014326E+03</pdfrwt>
<pdfrwt beam="2">  1       -2 0.11936114E-01 0.66014326E+03</pdfrwt>
<totfact> 0.96789166E+02</totfact>
</mgrwt>
</event>
<event>
 4    1  0.1896644E-005  0.1030384E+04  0.7818608E-02  0.9275834E-01
         -2   -1    0    0    0  501 -0.00000000000E+00  0.00000000000E+00  0.74940754371E+02  0.74940754415E+02  0.25500000000E-02 0. -1.
          2   -1    0    0  501    0  0.00000000000E+00 -0.00000000000E+00 -0.35417659285E+04  0.35417659285E+04  0.25500000000E-02 0.  1.
    5000001    1    1    2    0    0 -0.45295623074E+03  0.15226647265E+03 -0.17835689642E+04  0.18564311664E+04  0.19200000000E+03 0.  0.
   -5000001    1    1    2    0    0  0.45295623074E+03 -0.15226647265E+03 -0.16832562099E+04  0.17602755165E+04  0.19200000000E+03 0.  0.
<mgrwt>
<rscale>  0 0.10303836E+04</rscale>
<asrwt>0</asrwt>
<pdfrwt beam="1">  1        2 0.50596646E+00 0.10303836E+04</pdfrwt>
<pdfrwt beam="2">  1       -2 0.10705824E-01 0.10303836E+04</pdfrwt>
<totfact> 0.71772415E+01</totfact>
</mgrwt>
</event>
<event>
 4    1  0.1896644E-005  0.1520304E+04  0.7818608E-02  0.8871062E-01
         -2   -1    0    0    0  501 -0.00000000000E+00  0.00000000000E+00  0.19137235237E+04  0.19137235237E+04  0.25500000000E-02 0. -1.
          2   -1    0    0  501    0  0.00000000000E+00 -0.00000000000E+00 -0.30194061025E+03  0.30194061026E+03  0.25500000000E-02 0.  1.
    5000001    1    1    2    0    0 -0.61739283501E+03  0.86880646500E+02  0.23724197721E+03  0.69416850635E+03  0.19200000000E+03 0.  0.
   -5000001    1    1    2    0    0  0.61739283501E+03 -0.86880646500E+02  0.13745409362E+04  0.15214956276E+04  0.19200000000E+03 0.  0.
<mgrwt>
<rscale>  0 0.15203037E+04</rscale>
<asrwt>0</asrwt>
<pdfrwt beam="1">  1        2 0.43134374E-01 0.15203037E+04</pdfrwt>
<pdfrwt beam="2">  1       -2 0.27338907E+00 0.15203037E+04</pdfrwt>
<totfact> 0.52994634E+00</totfact>
</mgrwt>
</event>
<event>
 4    1  0.1896644E-005  0.5135649E+03  0.7818608E-02  0.1010298E+00
         -2   -1    0    0    0  501 -0.00000000000E+00  0.00000000000E+00  0.66861715420E+03  0.66861715420E+03  0.25500000000E-02 0. -1.
          2   -1    0    0  501    0  0.00000000000E+00 -0.00000000000E+00 -0.98617323364E+02  0.98617323397E+02  0.25500000000E-02 0.  1.
    5000001    1    1    2    0    0  0.11857602213E+03 -0.85784164893E+02  0.15429917034E+03  0.28651602039E+03  0.19200000000E+03 0.  0.
   -5000001    1    1    2    0    0 -0.11857602213E+03  0.85784164893E+02  0.41570066049E+03  0.48071845721E+03  0.19200000000E+03 0.  0.
<mgrwt>
<rscale>  0 0.51356493E+03</rscale>
<asrwt>0</asrwt>
<pdfrwt beam="1">  1        2 0.14088189E-01 0.51356493E+03</pdfrwt>
<pdfrwt beam="2">  1       -2 0.95516734E-01 0.51356493E+03</pdfrwt>
<totfact> 0.40256167E+02</totfact>
</mgrwt>
</event>
<event>
 4    1  0.1896644E-005  0.7270682E+03  0.7818608E-02  0.9672030E-01
          2   -1    0    0  501    0  0.00000000000E+00  0.00000000000E+00  0.50965883238E+03  0.50965883238E+03  0.25500000000E-02 0.  1.
         -2   -1    0    0    0  501 -0.00000000000E+00 -0.00000000000E+00 -0.25930493036E+03  0.25930493037E+03  0.25500000000E-02 0. -1.
    5000001    1    1    2    0    0 -0.52948268154E+02 -0.27462244530E+03  0.26336594097E+03  0.42947249671E+03  0.19200000000E+03 0.  0.
   -5000001    1    1    2    0    0  0.52948268154E+02  0.27462244530E+03 -0.13012038948E+02  0.33949126605E+03  0.19200000000E+03 0.  0.
<mgrwt>
<rscale>  0 0.72706822E+03</rscale>
<asrwt>0</asrwt>
<pdfrwt beam="1">  1        2 0.72808404E-01 0.72706822E+03</pdfrwt>
<pdfrwt beam="2">  1       -2 0.37043562E-01 0.72706822E+03</pdfrwt>
<totfact> 0.45365741E+02</totfact>
</mgrwt>
</event>
<event>
 4    1  0.1896644E-005  0.6108273E+03  0.7818608E-02  0.9883194E-01
         -2   -1    0    0    0  501 -0.00000000000E+00  0.00000000000E+00  0.21261866722E+03  0.21261866723E+03  0.25500000000E-02 0. -1.
          2   -1    0    0  501    0  0.00000000000E+00 -0.00000000000E+00 -0.43870794322E+03  0.43870794322E+03  0.25500000000E-02 0.  1.
    5000001    1    1    2    0    0 -0.23298124060E+03  0.39804561158E+02 -0.13802518401E+03  0.33433458239E+03  0.19200000000E+03 0.  0.
   -5000001    1    1    2    0    0  0.23298124060E+03 -0.39804561158E+02 -0.88064091987E+02  0.31699202807E+03  0.19200000000E+03 0.  0.
<mgrwt>
<rscale>  0 0.61082730E+03</rscale>
<asrwt>0</asrwt>
<pdfrwt beam="1">  1        2 0.62672563E-01 0.61082730E+03</pdfrwt>
<pdfrwt beam="2">  1       -2 0.30374096E-01 0.61082730E+03</pdfrwt>
<totfact> 0.78368287E+02</totfact>
</mgrwt>
</event>
<event>
 4    1  0.1896644E-005  0.5795351E+03  0.7818608E-02  0.9948798E-01
         -2   -1    0    0    0  501 -0.00000000000E+00  0.00000000000E+00  0.22212781691E+02  0.22212781838E+02  0.25500000000E-02 0. -1.
          2   -1    0    0  501    0  0.00000000000E+00 -0.00000000000E+00 -0.37800418335E+04  0.37800418335E+04  0.25500000000E-02 0.  1.
    5000001    1    1    2    0    0 -0.16592507629E+03 -0.63164146225E+02 -0.10599769861E+04  0.10917582386E+04  0.19200000000E+03 0.  0.
   -5000001    1    1    2    0    0  0.16592507629E+03  0.63164146225E+02 -0.26978520657E+04  0.27104963768E+04  0.19200000000E+03 0.  0.
<mgrwt>
<rscale>  0 0.57953514E+03</rscale>
<asrwt>0</asrwt>
<pdfrwt beam="1">  1        2 0.54000557E+00 0.57953514E+03</pdfrwt>
<pdfrwt beam="2">  1       -2 0.31732569E-02 0.57953514E+03</pdfrwt>
<totfact> 0.36612035E+02</totfact>
</mgrwt>
</event>
<event>
 4    1  0.1896644E-005  0.5966883E+03  0.7818608E-02  0.9912301E-01
         -2   -1    0    0    0  501 -0.00000000000E+00  0.00000000000E+00  0.52729853187E+03  0.52729853188E+03  0.25500000000E-02 0. -1.
          2   -1    0    0  501    0  0.00000000000E+00 -0.00000000000E+00 -0.16880236335E+03  0.16880236337E+03  0.25500000000E-02 0.  1.
    5000001    1    1    2    0    0  0.62286243201E+02 -0.78374076556E+01  0.43538210213E+03  0.47996101499E+03  0.19200000000E+03 0.  0.
   -5000001    1    1    2    0    0 -0.62286243201E+02  0.78374076556E+01 -0.76885933615E+02  0.21613988026E+03  0.19200000000E+03 0.  0.
<mgrwt>
<rscale>  0 0.59668832E+03</rscale>
<asrwt>0</asrwt>
<pdfrwt beam="1">  1        2 0.24114623E-01 0.59668832E+03</pdfrwt>
<pdfrwt beam="2">  1       -2 0.75328363E-01 0.59668832E+03</pdfrwt>
<totfact> 0.36486187E+02</totfact>
</mgrwt>
</event>
<event>
 4    1  0.1896644E-005  0.5415133E+03  0.7818608E-02  0.1003478E+00
          2   -1    0    0  501    0  0.00000000000E+00  0.00000000000E+00  0.51273824705E+03  0.51273824706E+03  0.25500000000E-02 0.  1.
         -2   -1    0    0    0  501 -0.00000000000E+00 -0.00000000000E+00 -0.14297578080E+03  0.14297578082E+03  0.25500000000E-02 0. -1.
    5000001    1    1    2    0    0  0.15594118175E+02  0.18959628240E+03  0.20422613276E+03  0.33876575997E+03  0.19200000000E+03 0.  0.
   -5000001    1    1    2    0    0 -0.15594118175E+02 -0.18959628240E+03  0.16553633350E+03  0.31694826791E+03  0.19200000000E+03 0.  0.
<mgrwt>
<rscale>  0 0.54151325E+03</rscale>
<asrwt>0</asrwt>
<pdfrwt beam="1">  1        2 0.73248322E-01 0.54151325E+03</pdfrwt>
<pdfrwt beam="2">  1       -2 0.20425111E-01 0.54151325E+03</pdfrwt>
<totfact> 0.13403213E+03</totfact>
</mgrwt>
</event>
<event>
 4    1  0.1896644E-005  0.5167582E+03  0.7818608E-02  0.1009495E+00
         -2   -1    0    0    0  501 -0.00000000000E+00  0.00000000000E+00  0.73236590768E+02  0.73236590813E+02  0.25500000000E-02 0. -1.
          2   -1    0    0  501    0  0.00000000000E+00 -0.00000000000E+00 -0.91156295295E+03  0.91156295296E+03  0.25500000000E-02 0.  1.
    5000001    1    1    2    0    0  0.12776251460E+03 -0.10276324550E+03 -0.52375643269E+03  0.58143645014E+03  0.19200000000E+03 0.  0.
   -5000001    1    1    2    0    0 -0.12776251460E+03  0.10276324550E+03 -0.31456992949E+03  0.40336309363E+03  0.19200000000E+03 0.  0.
<mgrwt>
<rscale>  0 0.51675821E+03</rscale>
<asrwt>0</asrwt>
<pdfrwt beam="1">  1        2 0.13022327E+00 0.51675821E+03</pdfrwt>
<pdfrwt beam="2">  1       -2 0.10462371E-01 0.51675821E+03</pdfrwt>
<totfact> 0.20400081E+03</totfact>
</mgrwt>
</event>
<event>
 4    1  0.1896644E-005  0.6641080E+03  0.7818608E-02  0.9780661E-01
          2   -1    0    0  501    0  0.00000000000E+00  0.00000000000E+00  0.17431990453E+04  0.17431990453E+04  0.25500000000E-02 0.  1.
         -2   -1    0    0    0  501 -0.00000000000E+00 -0.00000000000E+00 -0.63251453520E+02  0.63251453571E+02  0.25500000000E-02 0. -1.
    5000001    1    1    2    0    0 -0.22270774256E+03 -0.49772388066E+02  0.44280114233E+03  0.53386597650E+03  0.19200000000E+03 0.  0.
   -5000001    1    1    2    0    0  0.22270774256E+03  0.49772388066E+02  0.12371464495E+04  0.12725845224E+04  0.19200000000E+03 0.  0.
<mgrwt>
<rscale>  0 0.66410804E+03</rscale>
<asrwt>0</asrwt>
<pdfrwt beam="1">  1        2 0.24902845E+00 0.66410804E+03</pdfrwt>
<pdfrwt beam="2">  1       -2 0.90359215E-02 0.66410804E+03</pdfrwt>
<totfact> 0.89738291E+02</totfact>
</mgrwt>
</event>
<event>
 4    1  0.1896644E-005  0.7196163E+03  0.7818608E-02  0.9684262E-01
         -2   -1    0    0    0  501 -0.00000000000E+00  0.00000000000E+00  0.32885515120E+03  0.32885515121E+03  0.25500000000E-02 0. -1.
          2   -1    0    0  501    0  0.00000000000E+00 -0.00000000000E+00 -0.39367456992E+03  0.39367456992E+03  0.25500000000E-02 0.  1.
    5000001    1    1    2    0    0 -0.19164630524E+03 -0.14270360235E+03  0.15678161691E+03  0.34429217220E+03  0.19200000000E+03 0.  0.
   -5000001    1    1    2    0    0  0.19164630524E+03  0.14270360235E+03 -0.22160103563E+03  0.37823754894E+03  0.19200000000E+03 0.  0.
<mgrwt>
<rscale>  0 0.71961632E+03</rscale>
<asrwt>0</asrwt>
<pdfrwt beam="1">  1        2 0.56239224E-01 0.71961632E+03</pdfrwt>
<pdfrwt beam="2">  1       -2 0.46979307E-01 0.71961632E+03</pdfrwt>
<totfact> 0.38098465E+02</totfact>
</mgrwt>
</event>
<event>
 4    1  0.1896644E-005  0.5188319E+03  0.7818608E-02  0.1008977E+00
          2   -1    0    0  501    0  0.00000000000E+00  0.00000000000E+00  0.41946870857E+03  0.41946870858E+03  0.25500000000E-02 0.  1.
         -2   -1    0    0    0  501 -0.00000000000E+00 -0.00000000000E+00 -0.16043303715E+03  0.16043303717E+03  0.25500000000E-02 0. -1.
    5000001    1    1    2    0    0  0.42208869510E+02 -0.16651626506E+03  0.16348183626E+03  0.30512221483E+03  0.19200000000E+03 0.  0.
   -5000001    1    1    2    0    0 -0.42208869510E+02  0.16651626506E+03  0.95553835161E+02  0.27477953092E+03  0.19200000000E+03 0.  0.
<mgrwt>
<rscale>  0 0.51883191E+03</rscale>
<asrwt>0</asrwt>
<pdfrwt beam="1">  1        2 0.59924100E-01 0.51883191E+03</pdfrwt>
<pdfrwt beam="2">  1       -2 0.22919006E-01 0.51883191E+03</pdfrwt>
<totfact> 0.13718286E+03</totfact>
</mgrwt>
</event>
<event>
 4    1  0.1896644E-005  0.9593465E+03  0.7818608E-02  0.9354292E-01
          2   -1    0    0  501    0  0.00000000000E+00  0.00000000000E+00  0.17147166395E+04  0.17147166396E+04  0.25500000000E-02 0.  1.
         -2   -1    0    0    0  501 -0.00000000000E+00 -0.00000000000E+00 -0.13418335194E+03  0.13418335197E+03  0.25500000000E-02 0. -1.
    5000001    1    1    2    0    0  0.32849332339E+03 -0.13849717339E+03  0.12858849647E+04  0.13481296202E+04  0.19200000000E+03 0.  0.
   -5000001    1    1    2    0    0 -0.32849332339E+03  0.13849717339E+03  0.29464832290E+03  0.50077037127E+03  0.19200000000E+03 0.  0.
<mgrwt>
<rscale>  0 0.95934650E+03</rscale>
<asrwt>0</asrwt>
<pdfrwt beam="1">  1        2 0.24495948E+00 0.95934650E+03</pdfrwt>
<pdfrwt beam="2">  1       -2 0.19169053E-01 0.95934650E+03</pdfrwt>
<totfact> 0.25937138E+02</totfact>
</mgrwt>
</event>
<event>
 4    1  0.1896644E-005  0.7773585E+03  0.7818608E-02  0.9593381E-01
         -2   -1    0    0    0  501 -0.00000000000E+00  0.00000000000E+00  0.20992709299E+03  0.20992709301E+03  0.25500000000E-02 0. -1.
          2   -1    0    0  501    0  0.00000000000E+00 -0.00000000000E+00 -0.71963820625E+03  0.71963820626E+03  0.25500000000E-02 0.  1.
    5000001    1    1    2    0    0 -0.21722049655E+02 -0.30414066375E+03 -0.80604204002E+02  0.36923492318E+03  0.19200000000E+03 0.  0.
   -5000001    1    1    2    0    0  0.21722049655E+02  0.30414066375E+03 -0.42910690926E+03  0.56033037609E+03  0.19200000000E+03 0.  0.
<mgrwt>
<rscale>  0 0.77735849E+03</rscale>
<asrwt>0</asrwt>
<pdfrwt beam="1">  1        2 0.10280546E+00 0.77735849E+03</pdfrwt>
<pdfrwt beam="2">  1       -2 0.29989585E-01 0.77735849E+03</pdfrwt>
<totfact> 0.44757462E+02</totfact>
</mgrwt>
</event>
<event>
 4    1  0.1896644E-005  0.6606142E+03  0.7818608E-02  0.9787064E-01
         -2   -1    0    0    0  501 -0.00000000000E+00  0.00000000000E+00  0.18272207528E+03  0.18272207530E+03  0.25500000000E-02 0. -1.
          2   -1    0    0  501    0  0.00000000000E+00 -0.00000000000E+00 -0.59709687986E+03  0.59709687986E+03  0.25500000000E-02 0.  1.
    5000001    1    1    2    0    0 -0.92813982289E+02  0.11472175902E+03 -0.47236299544E+03  0.53081665080E+03  0.19200000000E+03 0.  0.
   -5000001    1    1    2    0    0  0.92813982289E+02 -0.11472175902E+03  0.57988190864E+02  0.24900230437E+03  0.19200000000E+03 0.  0.
<mgrwt>
<rscale>  0 0.66061420E+03</rscale>
<asrwt>0</asrwt>
<pdfrwt beam="1">  1        2 0.85299554E-01 0.66061420E+03</pdfrwt>
<pdfrwt beam="2">  1       -2 0.26103154E-01 0.66061420E+03</pdfrwt>
<totfact> 0.72579583E+02</totfact>
</mgrwt>
</event>
<event>
 4    1  0.1896644E-005  0.8541577E+03  0.7818608E-02  0.9484774E-01
         -2   -1    0    0    0  501 -0.00000000000E+00  0.00000000000E+00  0.32817316624E+03  0.32817316625E+03  0.25500000000E-02 0. -1.
          2   -1    0    0  501    0  0.00000000000E+00 -0.00000000000E+00 -0.55579300766E+03  0.55579300766E+03  0.25500000000E-02 0.  1.
    5000001    1    1    2    0    0 -0.18773456679E+03  0.29127913124E+03  0.51270275261E+02  0.39947520698E+03  0.19200000000E+03 0.  0.
   -5000001    1    1    2    0    0  0.18773456679E+03 -0.29127913124E+03 -0.27889011668E+03  0.48449096694E+03  0.19200000000E+03 0.  0.
<mgrwt>
<rscale>  0 0.85415772E+03</rscale>
<asrwt>0</asrwt>
<pdfrwt beam="1">  1        2 0.79399001E-01 0.85415772E+03</pdfrwt>
<pdfrwt beam="2">  1       -2 0.46881881E-01 0.85415772E+03</pdfrwt>
<totfact> 0.25721064E+02</totfact>
</mgrwt>
</event>
<event>
 4    1  0.1896644E-005  0.4902482E+03  0.7818608E-02  0.1016356E+00
         -2   -1    0    0    0  501 -0.00000000000E+00  0.00000000000E+00  0.28614485316E+02  0.28614485429E+02  0.25500000000E-02 0.  1.
          2   -1    0    0  501    0  0.00000000000E+00 -0.00000000000E+00 -0.20998390799E+04  0.20998390799E+04  0.25500000000E-02 0. -1.
    5000001    1    1    2    0    0 -0.12216252443E+03  0.78586515404E+02 -0.12356218607E+04  0.12588585724E+04  0.19200000000E+03 0.  0.
   -5000001    1    1    2    0    0  0.12216252443E+03 -0.78586515404E+02 -0.83560273391E+03  0.86959499291E+03  0.19200000000E+03 0.  0.
<mgrwt>
<rscale>  0 0.49024816E+03</rscale>
<asrwt>0</asrwt>
<pdfrwt beam="1">  1        2 0.29997691E+00 0.49024816E+03</pdfrwt>
<pdfrwt beam="2">  1       -2 0.40877850E-02 0.49024816E+03</pdfrwt>
<totfact> 0.20763391E+03</totfact>
</mgrwt>
</event>
<event>
 4    1  0.1896644E-005  0.6876758E+03  0.7818608E-02  0.9738543E-01
          2   -1    0    0  501    0  0.00000000000E+00  0.00000000000E+00  0.36762380433E+03  0.36762380434E+03  0.25500000000E-02 0.  1.
         -2   -1    0    0    0  501 -0.00000000000E+00 -0.00000000000E+00 -0.32159095696E+03  0.32159095697E+03  0.25500000000E-02 0. -1.
    5000001    1    1    2    0    0  0.22602907519E+03 -0.86771026300E+02 -0.12812603608E+03  0.33451253334E+03  0.19200000000E+03 0.  0.
   -5000001    1    1    2    0    0 -0.22602907519E+03  0.86771026300E+02  0.17415888346E+03  0.35470222797E+03  0.19200000000E+03 0.  0.
<mgrwt>
<rscale>  0 0.68767577E+03</rscale>
<asrwt>0</asrwt>
<pdfrwt beam="1">  1        2 0.52517686E-01 0.68767577E+03</pdfrwt>
<pdfrwt beam="2">  1       -2 0.45941565E-01 0.68767577E+03</pdfrwt>
<totfact> 0.43034231E+02</totfact>
</mgrwt>
</event>
<event>
 4    1  0.1896644E-005  0.7191383E+03  0.7818608E-02  0.9685052E-01
         -2   -1    0    0    0  501 -0.00000000000E+00  0.00000000000E+00  0.10722187269E+03  0.10722187272E+03  0.25500000000E-02 0. -1.
          2   -1    0    0  501    0  0.00000000000E+00 -0.00000000000E+00 -0.12058169953E+04  0.12058169953E+04  0.25500000000E-02 0.  1.
    5000001    1    1    2    0    0  0.29434122573E+03  0.65643917729E+02 -0.47905390756E+03  0.59774787950E+03  0.19200000000E+03 0.  0.
   -5000001    1    1    2    0    0 -0.29434122573E+03 -0.65643917729E+02 -0.61954121501E+03  0.71529098848E+03  0.19200000000E+03 0.  0.
<mgrwt>
<rscale>  0 0.71913825E+03</rscale>
<asrwt>0</asrwt>
<pdfrwt beam="1">  1        2 0.17225956E+00 0.71913825E+03</pdfrwt>
<pdfrwt beam="2">  1       -2 0.15317411E-01 0.71913825E+03</pdfrwt>
<totfact> 0.72153566E+02</totfact>
</mgrwt>
</event>
<event>
 4    1  0.1896644E-005  0.5403990E+03  0.7818608E-02  0.1003741E+00
          2   -1    0    0  501    0  0.00000000000E+00  0.00000000000E+00  0.29896474674E+04  0.29896474674E+04  0.25500000000E-02 0.  1.
         -2   -1    0    0    0  501 -0.00000000000E+00 -0.00000000000E+00 -0.24420195609E+02  0.24420195742E+02  0.25500000000E-02 0. -1.
    5000001    1    1    2    0    0 -0.12316194400E+03  0.14352256437E+03  0.13744355455E+04  0.14006086747E+04  0.19200000000E+03 0.  0.
   -5000001    1    1    2    0    0  0.12316194400E+03 -0.14352256437E+03  0.15907917263E+04  0.16134589885E+04  0.19200000000E+03 0.  0.
<mgrwt>
<rscale>  0 0.54039902E+03</rscale>
<asrwt>0</asrwt>
<pdfrwt beam="1">  1        2 0.42709204E+00 0.54039902E+03</pdfrwt>
<pdfrwt beam="2">  1       -2 0.34886031E-02 0.54039902E+03</pdfrwt>
<totfact> 0.91746127E+02</totfact>
</mgrwt>
</event>
<event>
 4    1  0.1896644E-005  0.6480707E+03  0.7818608E-02  0.9810406E-01
          2   -1    0    0  501    0  0.00000000000E+00  0.00000000000E+00  0.20704978684E+03  0.20704978685E+03  0.25500000000E-02 0.  1.
         -2   -1    0    0    0  501 -0.00000000000E+00 -0.00000000000E+00 -0.50711917348E+03  0.50711917348E+03  0.25500000000E-02 0. -1.
    5000001    1    1    2    0    0 -0.25177743348E+03  0.56465538303E+02 -0.10658371138E+03  0.33882786272E+03  0.19200000000E+03 0.  0.
   -5000001    1    1    2    0    0  0.25177743348E+03 -0.56465538303E+02 -0.19348567526E+03  0.37534109761E+03  0.19200000000E+03 0.  0.
<mgrwt>
<rscale>  0 0.64807073E+03</rscale>
<asrwt>0</asrwt>
<pdfrwt beam="1">  1        2 0.29578541E-01 0.64807073E+03</pdfrwt>
<pdfrwt beam="2">  1       -2 0.72445596E-01 0.64807073E+03</pdfrwt>
<totfact> 0.31480712E+02</totfact>
</mgrwt>
</event>
<event>
 4    1  0.1896644E-005  0.5968114E+03  0.7818608E-02  0.9912044E-01
          2   -1    0    0  501    0  0.00000000000E+00  0.00000000000E+00  0.13407661085E+04  0.13407661085E+04  0.25500000000E-02 0.  1.
         -2   -1    0    0    0  501 -0.00000000000E+00 -0.00000000000E+00 -0.66414244965E+02  0.66414245014E+02  0.25500000000E-02 0. -1.
    5000001    1    1    2    0    0  0.62422741326E+02 -0.20607003194E+03  0.45729164267E+03  0.54068577118E+03  0.19200000000E+03 0.  0.
   -5000001    1    1    2    0    0 -0.62422741326E+02  0.20607003194E+03  0.81706022087E+03  0.86649458234E+03  0.19200000000E+03 0.  0.
<mgrwt>
<rscale>  0 0.59681142E+03</rscale>
<asrwt>0</asrwt>
<pdfrwt beam="1">  1        2 0.19153801E+00 0.59681142E+03</pdfrwt>
<pdfrwt beam="2">  1       -2 0.94877497E-02 0.59681142E+03</pdfrwt>
<totfact> 0.13470977E+03</totfact>
</mgrwt>
</event>
<event>
 4    1  0.1896644E-005  0.8501509E+03  0.7818608E-02  0.9490134E-01
          2   -1    0    0  501    0  0.00000000000E+00  0.00000000000E+00  0.14769215625E+04  0.14769215625E+04  0.25500000000E-02 0.  1.
         -2   -1    0    0    0  501 -0.00000000000E+00 -0.00000000000E+00 -0.12234173248E+03  0.12234173251E+03  0.25500000000E-02 0. -1.
    5000001    1    1    2    0    0  0.36671742607E+03 -0.21658578170E+02  0.85450182658E+03  0.94973055980E+03  0.19200000000E+03 0.  0.
   -5000001    1    1    2    0    0 -0.36671742607E+03  0.21658578170E+02  0.50007800343E+03  0.64953273521E+03  0.19200000000E+03 0.  0.
<mgrwt>
<rscale>  0 0.85015091E+03</rscale>
<asrwt>0</asrwt>
<pdfrwt beam="1">  1        2 0.21098878E+00 0.85015091E+03</pdfrwt>
<pdfrwt beam="2">  1       -2 0.17477392E-01 0.85015091E+03</pdfrwt>
<totfact> 0.40762307E+02</totfact>
</mgrwt>
</event>
<event>
 4    1  0.1896644E-005  0.5804982E+03  0.7818608E-02  0.9946713E-01
          2   -1    0    0  501    0  0.00000000000E+00  0.00000000000E+00  0.70315749042E+02  0.70315749088E+02  0.25500000000E-02 0.  1.
         -2   -1    0    0    0  501 -0.00000000000E+00 -0.00000000000E+00 -0.11980890504E+04  0.11980890504E+04  0.25500000000E-02 0. -1.
    5000001    1    1    2    0    0  0.60241471706E+02 -0.12414671158E+03 -0.93171903599E+03  0.96125220568E+03  0.19200000000E+03 0.  0.
   -5000001    1    1    2    0    0 -0.60241471706E+02  0.12414671158E+03 -0.19605426535E+03  0.30715259379E+03  0.19200000000E+03 0.  0.
<mgrwt>
<rscale>  0 0.58049816E+03</rscale>
<asrwt>0</asrwt>
<pdfrwt beam="1">  1        2 0.10045108E-01 0.58049816E+03</pdfrwt>
<pdfrwt beam="2">  1       -2 0.17115557E+00 0.58049816E+03</pdfrwt>
<totfact> 0.14098974E+02</totfact>
</mgrwt>
</event>
<event>
 4    1  0.1896644E-005  0.5106789E+03  0.7818608E-02  0.1011029E+00
          2   -1    0    0  501    0  0.00000000000E+00  0.00000000000E+00  0.12274422119E+04  0.12274422119E+04  0.25500000000E-02 0.  1.
         -2   -1    0    0    0  501 -0.00000000000E+00 -0.00000000000E+00 -0.53117154978E+02  0.53117155039E+02  0.25500000000E-02 0. -1.
    5000001    1    1    2    0    0 -0.11634711325E+03 -0.17761007740E+02  0.28539807997E+03  0.36354940271E+03  0.19200000000E+03 0.  0.
   -5000001    1    1    2    0    0  0.11634711325E+03  0.17761007740E+02  0.88892697692E+03  0.91700996421E+03  0.19200000000E+03 0.  0.
<mgrwt>
<rscale>  0 0.51067891E+03</rscale>
<asrwt>0</asrwt>
<pdfrwt beam="1">  1        2 0.17534887E+00 0.51067891E+03</pdfrwt>
<pdfrwt beam="2">  1       -2 0.75881657E-02 0.51067891E+03</pdfrwt>
<totfact> 0.22231818E+03</totfact>
</mgrwt>
</event>
<event>
 4    1  0.1896644E-005  0.7159137E+03  0.7818608E-02  0.9690398E-01
          2   -1    0    0  501    0  0.00000000000E+00  0.00000000000E+00  0.35272080962E+03  0.35272080963E+03  0.25500000000E-02 0.  1.
         -2   -1    0    0    0  501 -0.00000000000E+00 -0.00000000000E+00 -0.36327056768E+03  0.36327056769E+03  0.25500000000E-02 0. -1.
    5000001    1    1    2    0    0 -0.25830013338E+03  0.12236992797E+03 -0.10314116516E+03  0.35943769714E+03  0.19200000000E+03 0.  0.
   -5000001    1    1    2    0    0  0.25830013338E+03 -0.12236992797E+03  0.92591407094E+02  0.35655368017E+03  0.19200000000E+03 0.  0.
<mgrwt>
<rscale>  0 0.71591365E+03</rscale>
<asrwt>0</asrwt>
<pdfrwt beam="1">  1        2 0.50388687E-01 0.71591365E+03</pdfrwt>
<pdfrwt beam="2">  1       -2 0.51895796E-01 0.71591365E+03</pdfrwt>
<totfact> 0.35192904E+02</totfact>
</mgrwt>
</event>
<event>
 4    1  0.1896644E-005  0.5553481E+03  0.7818608E-02  0.1000264E+00
          2   -1    0    0  501    0  0.00000000000E+00  0.00000000000E+00  0.19301428427E+03  0.19301428428E+03  0.25500000000E-02 0.  1.
         -2   -1    0    0    0  501 -0.00000000000E+00 -0.00000000000E+00 -0.39946718784E+03  0.39946718785E+03  0.25500000000E-02 0. -1.
    5000001    1    1    2    0    0  0.14109130021E+02  0.19121445150E+03 -0.40319041291E+02  0.27432035853E+03  0.19200000000E+03 0.  0.
   -5000001    1    1    2    0    0 -0.14109130021E+02 -0.19121445150E+03 -0.16613386229E+03  0.31816111361E+03  0.19200000000E+03 0.  0.
<mgrwt>
<rscale>  0 0.55534808E+03</rscale>
<asrwt>0</asrwt>
<pdfrwt beam="1">  1        2 0.27573469E-01 0.55534808E+03</pdfrwt>
<pdfrwt beam="2">  1       -2 0.57066741E-01 0.55534808E+03</pdfrwt>
<totfact> 0.56799629E+02</totfact>
</mgrwt>
</event>
<event>
 4    1  0.1896644E-005  0.4979086E+03  0.7818608E-02  0.1014326E+00
         -2   -1    0    0    0  501 -0.00000000000E+00  0.00000000000E+00  0.13348648360E+03  0.13348648363E+03  0.25500000000E-02 0. -1.
          2   -1    0    0  501    0  0.00000000000E+00 -0.00000000000E+00 -0.46430345823E+03  0.46430345823E+03  0.25500000000E-02 0.  1.
    5000001    1    1    2    0    0 -0.11090007289E+03 -0.11310081934E+03 -0.17124277868E+03  0.30212366798E+03  0.19200000000E+03 0.  0.
   -5000001    1    1    2    0    0  0.11090007289E+03  0.11310081934E+03 -0.15957419594E+03  0.29566627388E+03  0.19200000000E+03 0.  0.
<mgrwt>
<rscale>  0 0.49790857E+03</rscale>
<asrwt>0</asrwt>
<pdfrwt beam="1">  1        2 0.66329065E-01 0.49790857E+03</pdfrwt>
<pdfrwt beam="2">  1       -2 0.19069498E-01 0.49790857E+03</pdfrwt>
<totfact> 0.16885628E+03</totfact>
</mgrwt>
</event>
<event>
 4    1  0.1896644E-005  0.5153337E+03  0.7818608E-02  0.1009852E+00
          2   -1    0    0  501    0  0.00000000000E+00  0.00000000000E+00  0.60747428900E+03  0.60747428900E+03  0.25500000000E-02 0.  1.
         -2   -1    0    0    0  501 -0.00000000000E+00 -0.00000000000E+00 -0.10929220352E+03  0.10929220355E+03  0.25500000000E-02 0. -1.
    5000001    1    1    2    0    0 -0.48786616368E+02  0.16246586956E+03  0.21092642142E+03  0.33185727047E+03  0.19200000000E+03 0.  0.
   -5000001    1    1    2    0    0  0.48786616368E+02 -0.16246586956E+03  0.28725566406E+03  0.38490922208E+03  0.19200000000E+03 0.  0.
<mgrwt>
<rscale>  0 0.51533369E+03</rscale>
<asrwt>0</asrwt>
<pdfrwt beam="1">  1        2 0.86782044E-01 0.51533369E+03</pdfrwt>
<pdfrwt beam="2">  1       -2 0.15613171E-01 0.51533369E+03</pdfrwt>
<totfact> 0.17457679E+03</totfact>
</mgrwt>
</event>
<event>
 4    1  0.1896644E-005  0.1173056E+04  0.7818608E-02  0.9136773E-01
         -2   -1    0    0    0  501 -0.00000000000E+00  0.00000000000E+00  0.18759145457E+03  0.18759145459E+03  0.25500000000E-02 0. -1.
          2   -1    0    0  501    0  0.00000000000E+00 -0.00000000000E+00 -0.18338512063E+04  0.18338512063E+04  0.25500000000E-02 0.  1.
    5000001    1    1    2    0    0 -0.49340862155E+03 -0.21339011139E+03 -0.59088746814E+03  0.82158347565E+03  0.19200000000E+03 0.  0.
   -5000001    1    1    2    0    0  0.49340862155E+03  0.21339011139E+03 -0.10553722836E+04  0.11998591852E+04  0.19200000000E+03 0.  0.
<mgrwt>
<rscale>  0 0.11730555E+04</rscale>
<asrwt>0</asrwt>
<pdfrwt beam="1">  1        2 0.26197873E+00 0.11730555E+04</pdfrwt>
<pdfrwt beam="2">  1       -2 0.26798780E-01 0.11730555E+04</pdfrwt>
<totfact> 0.12205767E+02</totfact>
</mgrwt>
</event>
<event>
 4    1  0.1896644E-005  0.4616161E+03  0.7818608E-02  0.1024314E+00
          2   -1    0    0  501    0  0.00000000000E+00  0.00000000000E+00  0.22369416654E+03  0.22369416655E+03  0.25500000000E-02 0.  1.
         -2   -1    0    0    0  501 -0.00000000000E+00 -0.00000000000E+00 -0.23814814922E+03  0.23814814923E+03  0.25500000000E-02 0. -1.
    5000001    1    1    2    0    0  0.77849138138E+02 -0.50849353462E+02  0.80919573781E+02  0.22816249139E+03  0.19200000000E+03 0.  0.
   -5000001    1    1    2    0    0 -0.77849138138E+02  0.50849353462E+02 -0.95373556461E+02  0.23367982439E+03  0.19200000000E+03 0.  0.
<mgrwt>
<rscale>  0 0.46161608E+03</rscale>
<asrwt>0</asrwt>
<pdfrwt beam="1">  1        2 0.31956309E-01 0.46161608E+03</pdfrwt>
<pdfrwt beam="2">  1       -2 0.34021164E-01 0.46161608E+03</pdfrwt>
<totfact> 0.13358759E+03</totfact>
</mgrwt>
</event>
<event>
 4    1  0.1896644E-005  0.5139672E+03  0.7818608E-02  0.1010196E+00
          2   -1    0    0  501    0  0.00000000000E+00  0.00000000000E+00  0.84536763832E+02  0.84536763870E+02  0.25500000000E-02 0.  1.
         -2   -1    0    0    0  501 -0.00000000000E+00 -0.00000000000E+00 -0.78120539214E+03  0.78120539215E+03  0.25500000000E-02 0. -1.
    5000001    1    1    2    0    0  0.14682491797E+03 -0.85491085367E+02 -0.31866281326E+03  0.40899421851E+03  0.19200000000E+03 0.  0.
   -5000001    1    1    2    0    0 -0.14682491797E+03  0.85491085367E+02 -0.37800581505E+03  0.45674793751E+03  0.19200000000E+03 0.  0.
<mgrwt>
<rscale>  0 0.51396722E+03</rscale>
<asrwt>0</asrwt>
<pdfrwt beam="1">  1        2 0.12076681E-01 0.51396722E+03</pdfrwt>
<pdfrwt beam="2">  1       -2 0.11160077E+00 0.51396722E+03</pdfrwt>
<totfact> 0.33631931E+02</totfact>
</mgrwt>
</event>
<event>
 4    1  0.1896644E-005  0.5815739E+03  0.7818608E-02  0.9944389E-01
          2   -1    0    0  501    0  0.00000000000E+00  0.00000000000E+00  0.75313406214E+03  0.75313406215E+03  0.25500000000E-02 0.  1.
         -2   -1    0    0    0  501 -0.00000000000E+00 -0.00000000000E+00 -0.11227357810E+03  0.11227357812E+03  0.25500000000E-02 0. -1.
    5000001    1    1    2    0    0 -0.47384825260E+02 -0.20288223453E+03  0.41785490199E+03  0.50484972207E+03  0.19200000000E+03 0.  0.
   -5000001    1    1    2    0    0  0.47384825260E+02  0.20288223453E+03  0.22300558206E+03  0.36055791821E+03  0.19200000000E+03 0.  0.
<mgrwt>
<rscale>  0 0.58157392E+03</rscale>
<asrwt>0</asrwt>
<pdfrwt beam="1">  1        2 0.10759058E+00 0.58157392E+03</pdfrwt>
<pdfrwt beam="2">  1       -2 0.16039083E-01 0.58157392E+03</pdfrwt>
<totfact> 0.12858968E+03</totfact>
</mgrwt>
</event>
<event>
 4    1  0.1896644E-005  0.5542817E+03  0.7818608E-02  0.1000508E+00
          2   -1    0    0  501    0  0.00000000000E+00  0.00000000000E+00  0.11509983652E+04  0.11509983652E+04  0.25500000000E-02 0.  1.
         -2   -1    0    0    0  501 -0.00000000000E+00 -0.00000000000E+00 -0.66730816929E+02  0.66730816977E+02  0.25500000000E-02 0. -1.
    5000001    1    1    2    0    0  0.11853915627E+03 -0.15763360576E+03  0.47117617140E+03  0.54568385512E+03  0.19200000000E+03 0.  0.
   -5000001    1    1    2    0    0 -0.11853915627E+03  0.15763360576E+03  0.61309137684E+03  0.67204532703E+03  0.19200000000E+03 0.  0.
<mgrwt>
<rscale>  0 0.55428174E+03</rscale>
<asrwt>0</asrwt>
<pdfrwt beam="1">  1        2 0.16442832E+00 0.55428174E+03</pdfrwt>
<pdfrwt beam="2">  1       -2 0.95329750E-02 0.55428174E+03</pdfrwt>
<totfact> 0.17032633E+03</totfact>
</mgrwt>
</event>
<event>
 4    1  0.1896644E-005  0.6821768E+03  0.7818608E-02  0.9748207E-01
          2   -1    0    0  501    0  0.00000000000E+00  0.00000000000E+00  0.43142746259E+03  0.43142746260E+03  0.25500000000E-02 0.  1.
         -2   -1    0    0    0  501 -0.00000000000E+00 -0.00000000000E+00 -0.26966598010E+03  0.26966598011E+03  0.25500000000E-02 0. -1.
    5000001    1    1    2    0    0 -0.13275250666E+03 -0.19513547607E+03 -0.77590481662E+02  0.31398306466E+03  0.19200000000E+03 0.  0.
   -5000001    1    1    2    0    0  0.13275250666E+03  0.19513547607E+03  0.23935196416E+03  0.38711037805E+03  0.19200000000E+03 0.  0.
<mgrwt>
<rscale>  0 0.68217684E+03</rscale>
<asrwt>0</asrwt>
<pdfrwt beam="1">  1        2 0.61632494E-01 0.68217684E+03</pdfrwt>
<pdfrwt beam="2">  1       -2 0.38523712E-01 0.68217684E+03</pdfrwt>
<totfact> 0.50875601E+02</totfact>
</mgrwt>
</event>
<event>
 4    1  0.1896644E-005  0.5539695E+03  0.7818608E-02  0.1000579E+00
          2   -1    0    0  501    0  0.00000000000E+00  0.00000000000E+00  0.17117711559E+04  0.17117711559E+04  0.25500000000E-02 0.  1.
         -2   -1    0    0    0  501 -0.00000000000E+00 -0.00000000000E+00 -0.44819398475E+02  0.44819398548E+02  0.25500000000E-02 0. -1.
    5000001    1    1    2    0    0  0.46006765591E+02 -0.16756525044E+03  0.52179216570E+03  0.58251678072E+03  0.19200000000E+03 0.  0.
   -5000001    1    1    2    0    0 -0.46006765591E+02  0.16756525044E+03  0.11451595917E+04  0.11740737737E+04  0.19200000000E+03 0.  0.
<mgrwt>
<rscale>  0 0.55396951E+03</rscale>
<asrwt>0</asrwt>
<pdfrwt beam="1">  1        2 0.24453877E+00 0.55396951E+03</pdfrwt>
<pdfrwt beam="2">  1       -2 0.64027704E-02 0.55396951E+03</pdfrwt>
<totfact> 0.16175132E+03</totfact>
</mgrwt>
</event>
<event>
 4    1  0.1896644E-005  0.5278082E+03  0.7818608E-02  0.1006765E+00
          2   -1    0    0  501    0  0.00000000000E+00  0.00000000000E+00  0.82437415337E+03  0.82437415337E+03  0.25500000000E-02 0.  1.
         -2   -1    0    0    0  501 -0.00000000000E+00 -0.00000000000E+00 -0.84482710745E+02  0.84482710784E+02  0.25500000000E-02 0. -1.
    5000001    1    1    2    0    0 -0.92445642371E+02 -0.12517892882E+03  0.21058060232E+03  0.32469085464E+03  0.19200000000E+03 0.  0.
   -5000001    1    1    2    0    0  0.92445642371E+02  0.12517892882E+03  0.52931084030E+03  0.58416600951E+03  0.19200000000E+03 0.  0.
<mgrwt>
<rscale>  0 0.52780816E+03</rscale>
<asrwt>0</asrwt>
<pdfrwt beam="1">  1        2 0.11776774E+00 0.52780816E+03</pdfrwt>
<pdfrwt beam="2">  1       -2 0.12068959E-01 0.52780816E+03</pdfrwt>
<totfact> 0.18434382E+03</totfact>
</mgrwt>
</event>
<event>
 4    1  0.1896644E-005  0.8715879E+03  0.7818608E-02  0.9461812E-01
          2   -1    0    0  501    0  0.00000000000E+00  0.00000000000E+00  0.58756414823E+03  0.58756414823E+03  0.25500000000E-02 0.  1.
         -2   -1    0    0    0  501 -0.00000000000E+00 -0.00000000000E+00 -0.32322658704E+03  0.32322658705E+03  0.25500000000E-02 0. -1.
    5000001    1    1    2    0    0  0.61825104935E+02 -0.37603403593E+03  0.39710814999E+02  0.42856141754E+03  0.19200000000E+03 0.  0.
   -5000001    1    1    2    0    0 -0.61825104935E+02  0.37603403593E+03  0.22462674619E+03  0.48222931773E+03  0.19200000000E+03 0.  0.
<mgrwt>
<rscale>  0 0.87158787E+03</rscale>
<asrwt>0</asrwt>
<pdfrwt beam="1">  1        2 0.83937735E-01 0.87158787E+03</pdfrwt>
<pdfrwt beam="2">  1       -2 0.46175227E-01 0.87158787E+03</pdfrwt>
<totfact> 0.24822183E+02</totfact>
</mgrwt>
</event>
<event>
 4    1  0.1896644E-005  0.5260181E+03  0.7818608E-02  0.1007202E+00
         -2   -1    0    0    0  501 -0.00000000000E+00  0.00000000000E+00  0.18703575418E+03  0.18703575419E+03  0.25500000000E-02 0. -1.
          2   -1    0    0  501    0  0.00000000000E+00 -0.00000000000E+00 -0.36984249591E+03  0.36984249592E+03  0.25500000000E-02 0.  1.
    5000001    1    1    2    0    0 -0.36845473289E+02  0.16896270311E+03 -0.14330816309E+03  0.29547794089E+03  0.19200000000E+03 0.  0.
   -5000001    1    1    2    0    0  0.36845473289E+02 -0.16896270311E+03 -0.39498578642E+02  0.26140030922E+03  0.19200000000E+03 0.  0.
<mgrwt>
<rscale>  0 0.52601814E+03</rscale>
<asrwt>0</asrwt>
<pdfrwt beam="1">  1        2 0.52834642E-01 0.52601814E+03</pdfrwt>
<pdfrwt beam="2">  1       -2 0.26719394E-01 0.52601814E+03</pdfrwt>
<totfact> 0.11986065E+03</totfact>
</mgrwt>
</event>
<event>
 4    1  0.1896644E-005  0.4590695E+03  0.7818608E-02  0.1025051E+00
          2   -1    0    0  501    0  0.00000000000E+00  0.00000000000E+00  0.37653222767E+03  0.37653222768E+03  0.25500000000E-02 0.  1.
         -2   -1    0    0    0  501 -0.00000000000E+00 -0.00000000000E+00 -0.13992482808E+03  0.13992482810E+03  0.25500000000E-02 0. -1.
    5000001    1    1    2    0    0 -0.32931938479E+02 -0.12032705927E+03  0.13641226262E+03  0.26652470647E+03  0.19200000000E+03 0.  0.
   -5000001    1    1    2    0    0  0.32931938479E+02  0.12032705927E+03  0.10019513697E+03  0.24993234932E+03  0.19200000000E+03 0.  0.
<mgrwt>
<rscale>  0 0.45906953E+03</rscale>
<asrwt>0</asrwt>
<pdfrwt beam="1">  1        2 0.53790318E-01 0.45906953E+03</pdfrwt>
<pdfrwt beam="2">  1       -2 0.19989261E-01 0.45906953E+03</pdfrwt>
<totfact> 0.19621785E+03</totfact>
</mgrwt>
</event>
<event>
 4    1  0.1896644E-005  0.8257973E+03  0.7818608E-02  0.9523409E-01
         -2   -1    0    0    0  501 -0.00000000000E+00  0.00000000000E+00  0.17201335670E+03  0.17201335671E+03  0.25500000000E-02 0. -1.
          2   -1    0    0  501    0  0.00000000000E+00 -0.00000000000E+00 -0.99111666380E+03  0.99111666380E+03  0.25500000000E-02 0.  1.
    5000001    1    1    2    0    0 -0.22797916298E+03  0.21593380273E+03 -0.14597366772E+03  0.39594724090E+03  0.19200000000E+03 0.  0.
   -5000001    1    1    2    0    0  0.22797916298E+03 -0.21593380273E+03 -0.67312963939E+03  0.76718277961E+03  0.19200000000E+03 0.  0.
<mgrwt>
<rscale>  0 0.82579732E+03</rscale>
<asrwt>0</asrwt>
<pdfrwt beam="1">  1        2 0.14158809E+00 0.82579732E+03</pdfrwt>
<pdfrwt beam="2">  1       -2 0.24573337E-01 0.82579732E+03</pdfrwt>
<totfact> 0.42139274E+02</totfact>
</mgrwt>
</event>
<event>
 4    1  0.1896644E-005  0.6971416E+03  0.7818608E-02  0.9722133E-01
          2   -1    0    0  501    0  0.00000000000E+00  0.00000000000E+00  0.17253931771E+04  0.17253931771E+04  0.25500000000E-02 0.  1.
         -2   -1    0    0    0  501 -0.00000000000E+00 -0.00000000000E+00 -0.70419666118E+02  0.70419666164E+02  0.25500000000E-02 0. -1.
    5000001    1    1    2    0    0  0.76024849396E+02 -0.20643698414E+03  0.13178792018E+04  0.13498391003E+04  0.19200000000E+03 0.  0.
   -5000001    1    1    2    0    0 -0.76024849396E+02  0.20643698414E+03  0.33709430922E+03  0.44597374301E+03  0.19200000000E+03 0.  0.
<mgrwt>
<rscale>  0 0.69714163E+03</rscale>
<asrwt>0</asrwt>
<pdfrwt beam="1">  1        2 0.24648475E+00 0.69714163E+03</pdfrwt>
<pdfrwt beam="2">  1       -2 0.10059952E-01 0.69714163E+03</pdfrwt>
<totfact> 0.76882617E+02</totfact>
</mgrwt>
</event>
<event>
 4    1  0.1896644E-005  0.7677564E+03  0.7818608E-02  0.9607898E-01
         -2   -1    0    0    0  501 -0.00000000000E+00  0.00000000000E+00  0.44023434248E+03  0.44023434249E+03  0.25500000000E-02 0. -1.
          2   -1    0    0  501    0  0.00000000000E+00 -0.00000000000E+00 -0.33473640661E+03  0.33473640662E+03  0.25500000000E-02 0.  1.
    5000001    1    1    2    0    0  0.14942417746E+03 -0.33355237756E+02  0.35057796900E+03  0.42802928526E+03  0.19200000000E+03 0.  0.
   -5000001    1    1    2    0    0 -0.14942417746E+03  0.33355237756E+02 -0.24508003313E+03  0.34694146384E+03  0.19200000000E+03 0.  0.
<mgrwt>
<rscale>  0 0.76775637E+03</rscale>
<asrwt>0</asrwt>
<pdfrwt beam="1">  1        2 0.47819486E-01 0.76775637E+03</pdfrwt>
<pdfrwt beam="2">  1       -2 0.62890621E-01 0.76775637E+03</pdfrwt>
<totfact> 0.24928957E+02</totfact>
</mgrwt>
</event>
<event>
 4    1  0.1896644E-005  0.5846939E+03  0.7818608E-02  0.9937680E-01
          2   -1    0    0  501    0  0.00000000000E+00  0.00000000000E+00  0.48289262897E+03  0.48289262897E+03  0.25500000000E-02 0.  1.
         -2   -1    0    0    0  501 -0.00000000000E+00 -0.00000000000E+00 -0.17698913354E+03  0.17698913356E+03  0.25500000000E-02 0. -1.
    5000001    1    1    2    0    0 -0.14549738405E+03  0.11411313650E+03  0.17466690258E+02  0.26713364063E+03  0.19200000000E+03 0.  0.
   -5000001    1    1    2    0    0  0.14549738405E+03 -0.11411313650E+03  0.28843680517E+03  0.39274812191E+03  0.19200000000E+03 0.  0.
<mgrwt>
<rscale>  0 0.58469393E+03</rscale>
<asrwt>0</asrwt>
<pdfrwt beam="1">  1        2 0.68984661E-01 0.58469393E+03</pdfrwt>
<pdfrwt beam="2">  1       -2 0.25284162E-01 0.58469393E+03</pdfrwt>
<totfact> 0.98325324E+02</totfact>
</mgrwt>
</event>
<event>
 4    1  0.1896644E-005  0.9551205E+03  0.7818608E-02  0.9359185E-01
         -2   -1    0    0    0  501 -0.00000000000E+00  0.00000000000E+00  0.10778427457E+03  0.10778427460E+03  0.25500000000E-02 0. -1.
          2   -1    0    0  501    0  0.00000000000E+00 -0.00000000000E+00 -0.21159282187E+04  0.21159282187E+04  0.25500000000E-02 0.  1.
    5000001    1    1    2    0    0 -0.94893762366E+02 -0.38512078019E+03 -0.14325934594E+04  0.14988365026E+04  0.19200000000E+03 0.  0.
   -5000001    1    1    2    0    0  0.94893762366E+02  0.38512078019E+03 -0.57555048469E+03  0.72487599070E+03  0.19200000000E+03 0.  0.
<mgrwt>
<rscale>  0 0.95512049E+03</rscale>
<asrwt>0</asrwt>
<pdfrwt beam="1">  1        2 0.30227543E+00 0.95512049E+03</pdfrwt>
<pdfrwt beam="2">  1       -2 0.15397755E-01 0.95512049E+03</pdfrwt>
<totfact> 0.23597713E+02</totfact>
</mgrwt>
</event>
<event>
 4    1  0.1896644E-005  0.4455300E+03  0.7818608E-02  0.1029063E+00
          2   -1    0    0  501    0  0.00000000000E+00  0.00000000000E+00  0.23359320279E+04  0.23359320279E+04  0.25500000000E-02 0.  1.
         -2   -1    0    0    0  501 -0.00000000000E+00 -0.00000000000E+00 -0.21243869036E+02  0.21243869189E+02  0.25500000000E-02 0. -1.
    5000001    1    1    2    0    0  0.92339184782E+02 -0.13250447650E+02  0.82030650238E+03  0.84762542273E+03  0.19200000000E+03 0.  0.
   -5000001    1    1    2    0    0 -0.92339184782E+02  0.13250447650E+02  0.14943816565E+04  0.15095504743E+04  0.19200000000E+03 0.  0.
<mgrwt>
<rscale>  0 0.44552995E+03</rscale>
<asrwt>0</asrwt>
<pdfrwt beam="1">  1        2 0.33370481E+00 0.44552995E+03</pdfrwt>
<pdfrwt beam="2">  1       -2 0.30348364E-02 0.44552995E+03</pdfrwt>
<totfact> 0.24931924E+03</totfact>
</mgrwt>
</event>
<event>
 4    1  0.1896644E-005  0.5186080E+03  0.7818608E-02  0.1009033E+00
          2   -1    0    0  501    0  0.00000000000E+00  0.00000000000E+00  0.11821807394E+04  0.11821807394E+04  0.25500000000E-02 0.  1.
         -2   -1    0    0    0  501 -0.00000000000E+00 -0.00000000000E+00 -0.56876731171E+02  0.56876731228E+02  0.25500000000E-02 0. -1.
    5000001    1    1    2    0    0  0.13955233810E+03 -0.34964171882E+02  0.32761963291E+03  0.40607385074E+03  0.19200000000E+03 0.  0.
   -5000001    1    1    2    0    0 -0.13955233810E+03  0.34964171882E+02  0.79768437534E+03  0.83298361991E+03  0.19200000000E+03 0.  0.
<mgrwt>
<rscale>  0 0.51860805E+03</rscale>
<asrwt>0</asrwt>
<pdfrwt beam="1">  1        2 0.16888294E+00 0.51860805E+03</pdfrwt>
<pdfrwt beam="2">  1       -2 0.81252484E-02 0.51860805E+03</pdfrwt>
<totfact> 0.21134863E+03</totfact>
</mgrwt>
</event>
<event>
 4    1  0.1896644E-005  0.6266615E+03  0.7818608E-02  0.9851585E-01
         -2   -1    0    0    0  501 -0.00000000000E+00  0.00000000000E+00  0.17090578649E+03  0.17090578651E+03  0.25500000000E-02 0. -1.
          2   -1    0    0  501    0  0.00000000000E+00 -0.00000000000E+00 -0.57444603131E+03  0.57444603131E+03  0.25500000000E-02 0.  1.
    5000001    1    1    2    0    0  0.17649868265E+03 -0.53408095126E+02 -0.39832000938E+03  0.47908980315E+03  0.19200000000E+03 0.  0.
   -5000001    1    1    2    0    0 -0.17649868265E+03  0.53408095126E+02 -0.52202354288E+01  0.26626201468E+03  0.19200000000E+03 0.  0.
<mgrwt>
<rscale>  0 0.62666147E+03</rscale>
<asrwt>0</asrwt>
<pdfrwt beam="1">  1        2 0.82063718E-01 0.62666147E+03</pdfrwt>
<pdfrwt beam="2">  1       -2 0.24415113E-01 0.62666147E+03</pdfrwt>
<totfact> 0.85719017E+02</totfact>
</mgrwt>
</event>
<event>
 4    1  0.1896644E-005  0.4213294E+03  0.7818608E-02  0.1036634E+00
          2   -1    0    0  501    0  0.00000000000E+00  0.00000000000E+00  0.11491290852E+04  0.11491290852E+04  0.25500000000E-02 0.  1.
         -2   -1    0    0    0  501 -0.00000000000E+00 -0.00000000000E+00 -0.38620222376E+02  0.38620222460E+02  0.25500000000E-02 0. -1.
    5000001    1    1    2    0    0  0.59027175624E+02 -0.84926001957E+01  0.73263727223E+03  0.75972212313E+03  0.19200000000E+03 0.  0.
   -5000001    1    1    2    0    0 -0.59027175624E+02  0.84926001957E+01  0.37787159063E+03  0.42802718457E+03  0.19200000000E+03 0.  0.
<mgrwt>
<rscale>  0 0.42132942E+03</rscale>
<asrwt>0</asrwt>
<pdfrwt beam="1">  1        2 0.16416128E+00 0.42132942E+03</pdfrwt>
<pdfrwt beam="2">  1       -2 0.55171753E-02 0.42132942E+03</pdfrwt>
<totfact> 0.40456060E+03</totfact>
</mgrwt>
</event>
<event>
 4    1  0.1896644E-005  0.4809069E+03  0.7818608E-02  0.1018886E+00
          2   -1    0    0  501    0  0.00000000000E+00  0.00000000000E+00  0.30913275613E+03  0.30913275615E+03  0.25500000000E-02 0.  1.
         -2   -1    0    0    0  501 -0.00000000000E+00 -0.00000000000E+00 -0.18703245008E+03  0.18703245010E+03  0.25500000000E-02 0. -1.
    5000001    1    1    2    0    0 -0.13189438503E+03 -0.45969188634E+02  0.21836855838E+02  0.23843268102E+03  0.19200000000E+03 0.  0.
   -5000001    1    1    2    0    0  0.13189438503E+03  0.45969188634E+02  0.10026345022E+03  0.25773252522E+03  0.19200000000E+03 0.  0.
<mgrwt>
<rscale>  0 0.48090688E+03</rscale>
<asrwt>0</asrwt>
<pdfrwt beam="1">  1        2 0.44161822E-01 0.48090688E+03</pdfrwt>
<pdfrwt beam="2">  1       -2 0.26718922E-01 0.48090688E+03</pdfrwt>
<totfact> 0.14593762E+03</totfact>
</mgrwt>
</event>
<event>
 4    1  0.1896644E-005  0.1262686E+04  0.7818608E-02  0.9059690E-01
         -2   -1    0    0    0  501 -0.00000000000E+00  0.00000000000E+00  0.23053594708E+03  0.23053594709E+03  0.25500000000E-02 0. -1.
          2   -1    0    0  501    0  0.00000000000E+00 -0.00000000000E+00 -0.17289891602E+04  0.17289891602E+04  0.25500000000E-02 0.  1.
    5000001    1    1    2    0    0  0.23779681290E+03  0.48711191075E+03 -0.34483171376E+03  0.67052087859E+03  0.19200000000E+03 0.  0.
   -5000001    1    1    2    0    0 -0.23779681290E+03 -0.48711191075E+03 -0.11536214994E+04  0.12890042287E+04  0.19200000000E+03 0.  0.
<mgrwt>
<rscale>  0 0.12626863E+04</rscale>
<asrwt>0</asrwt>
<pdfrwt beam="1">  1        2 0.24699844E+00 0.12626863E+04</pdfrwt>
<pdfrwt beam="2">  1       -2 0.32933708E-01 0.12626863E+04</pdfrwt>
<totfact> 0.93633385E+01</totfact>
</mgrwt>
</event>
<event>
 4    1  0.1896644E-005  0.6739273E+03  0.7818608E-02  0.9762889E-01
          2   -1    0    0  501    0  0.00000000000E+00  0.00000000000E+00  0.29346101806E+04  0.29346101806E+04  0.25500000000E-02 0. -1.
         -2   -1    0    0    0  501 -0.00000000000E+00 -0.00000000000E+00 -0.38691515456E+02  0.38691515540E+02  0.25500000000E-02 0.  1.
    5000001    1    1    2    0    0  0.80706368795E+02 -0.24825258410E+03  0.18556165372E+04  0.18836983826E+04  0.19200000000E+03 0.  0.
   -5000001    1    1    2    0    0 -0.80706368795E+02  0.24825258410E+03  0.10403021280E+04  0.10896033136E+04  0.19200000000E+03 0.  0.
<mgrwt>
<rscale>  0 0.67392734E+03</rscale>
<asrwt>0</asrwt>
<pdfrwt beam="1">  1        2 0.41923021E+00 0.67392734E+03</pdfrwt>
<pdfrwt beam="2">  1       -2 0.55273569E-02 0.67392734E+03</pdfrwt>
<totfact> 0.47705401E+02</totfact>
</mgrwt>
</event>
<event>
 4    1  0.1896644E-005  0.7291697E+03  0.7818608E-02  0.9668609E-01
         -2   -1    0    0    0  501 -0.00000000000E+00  0.00000000000E+00  0.18939868474E+03  0.18939868476E+03  0.25500000000E-02 0. -1.
          2   -1    0    0  501    0  0.00000000000E+00 -0.00000000000E+00 -0.70181107739E+03  0.70181107739E+03  0.25500000000E-02 0.  1.
    5000001    1    1    2    0    0  0.15411593875E+03 -0.25896339641E+03 -0.34471702950E+03  0.49649531084E+03  0.19200000000E+03 0.  0.
   -5000001    1    1    2    0    0 -0.15411593875E+03  0.25896339641E+03 -0.16769536314E+03  0.39471445131E+03  0.19200000000E+03 0.  0.
<mgrwt>
<rscale>  0 0.72916965E+03</rscale>
<asrwt>0</asrwt>
<pdfrwt beam="1">  1        2 0.10025872E+00 0.72916965E+03</pdfrwt>
<pdfrwt beam="2">  1       -2 0.27056955E-01 0.72916965E+03</pdfrwt>
<totfact> 0.55877359E+02</totfact>
</mgrwt>
</event>
<event>
 4    1  0.1896644E-005  0.5613932E+03  0.7818608E-02  0.9988907E-01
          2   -1    0    0  501    0  0.00000000000E+00  0.00000000000E+00  0.15096456488E+04  0.15096456488E+04  0.25500000000E-02 0.  1.
         -2   -1    0    0    0  501 -0.00000000000E+00 -0.00000000000E+00 -0.52191433762E+02  0.52191433824E+02  0.25500000000E-02 0. -1.
    5000001    1    1    2    0    0 -0.13252012410E+03  0.13275966807E+03  0.50032821719E+03  0.56778432320E+03  0.19200000000E+03 0.  0.
   -5000001    1    1    2    0    0  0.13252012410E+03 -0.13275966807E+03  0.95712599783E+03  0.99405275940E+03  0.19200000000E+03 0.  0.
<mgrwt>
<rscale>  0 0.56139316E+03</rscale>
<asrwt>0</asrwt>
<pdfrwt beam="1">  1        2 0.21566371E+00 0.56139316E+03</pdfrwt>
<pdfrwt beam="2">  1       -2 0.74559177E-02 0.56139316E+03</pdfrwt>
<totfact> 0.16143985E+03</totfact>
</mgrwt>
</event>
<event>
 4    1  0.1896644E-005  0.5835284E+03  0.7818608E-02  0.9940181E-01
          2   -1    0    0  501    0  0.00000000000E+00  0.00000000000E+00  0.86703596975E+03  0.86703596975E+03  0.25500000000E-02 0. -1.
         -2   -1    0    0    0  501 -0.00000000000E+00 -0.00000000000E+00 -0.98180880926E+02  0.98180880960E+02  0.25500000000E-02 0.  1.
    5000001    1    1    2    0    0 -0.73416093481E+02 -0.20665791248E+03  0.40567101869E+03  0.49953017023E+03  0.19200000000E+03 0.  0.
   -5000001    1    1    2    0    0  0.73416093481E+02  0.20665791248E+03  0.36318407013E+03  0.46568668047E+03  0.19200000000E+03 0.  0.
<mgrwt>
<rscale>  0 0.58352842E+03</rscale>
<asrwt>0</asrwt>
<pdfrwt beam="1">  1        2 0.12386228E+00 0.58352842E+03</pdfrwt>
<pdfrwt beam="2">  1       -2 0.14025840E-01 0.58352842E+03</pdfrwt>
<totfact> 0.13452592E+03</totfact>
</mgrwt>
</event>
<event>
 4    1  0.1896644E-005  0.1323839E+04  0.7818608E-02  0.9010871E-01
          2   -1    0    0  501    0  0.00000000000E+00  0.00000000000E+00  0.15703576555E+04  0.15703576555E+04  0.25500000000E-02 0.  1.
         -2   -1    0    0    0  501 -0.00000000000E+00 -0.00000000000E+00 -0.27900499680E+03  0.27900499681E+03  0.25500000000E-02 0. -1.
    5000001    1    1    2    0    0  0.43020490344E+03  0.45940392171E+02  0.12920472483E+04  0.13760221184E+04  0.19200000000E+03 0.  0.
   -5000001    1    1    2    0    0 -0.43020490344E+03 -0.45940392171E+02 -0.69458958301E+00  0.47334053390E+03  0.19200000000E+03 0.  0.
<mgrwt>
<rscale>  0 0.13238393E+04</rscale>
<asrwt>0</asrwt>
<pdfrwt beam="1">  1        2 0.22433681E+00 0.13238393E+04</pdfrwt>
<pdfrwt beam="2">  1       -2 0.39857857E-01 0.13238393E+04</pdfrwt>
<totfact> 0.78184852E+01</totfact>
</mgrwt>
</event>
<event>
 4    1  0.1896644E-005  0.4375924E+03  0.7818608E-02  0.1031488E+00
          2   -1    0    0  501    0  0.00000000000E+00  0.00000000000E+00  0.21912242142E+03  0.21912242143E+03  0.25500000000E-02 0.  1.
         -2   -1    0    0    0  501 -0.00000000000E+00 -0.00000000000E+00 -0.21847048315E+03  0.21847048317E+03  0.25500000000E-02 0. -1.
    5000001    1    1    2    0    0  0.97148533489E+02 -0.53421302322E+01 -0.38934810154E+02  0.21873796048E+03  0.19200000000E+03 0.  0.
   -5000001    1    1    2    0    0 -0.97148533489E+02  0.53421302322E+01  0.39586748421E+02  0.21885494412E+03  0.19200000000E+03 0.  0.
<mgrwt>
<rscale>  0 0.43759242E+03</rscale>
<asrwt>0</asrwt>
<pdfrwt beam="1">  1        2 0.31303203E-01 0.43759242E+03</pdfrwt>
<pdfrwt beam="2">  1       -2 0.31210069E-01 0.43759242E+03</pdfrwt>
<totfact> 0.16042477E+03</totfact>
</mgrwt>
</event>
<event>
 4    1  0.1896644E-005  0.1658399E+04  0.7818608E-02  0.8785453E-01
          2   -1    0    0  501    0  0.00000000000E+00  0.00000000000E+00  0.45621771710E+03  0.45621771710E+03  0.25500000000E-02 0.  1.
         -2   -1    0    0    0  501 -0.00000000000E+00 -0.00000000000E+00 -0.15071135101E+04  0.15071135101E+04  0.25500000000E-02 0. -1.
    5000001    1    1    2    0    0 -0.21986109431E+03 -0.77012601613E+03 -0.63946216974E+03  0.10426930747E+04  0.19200000000E+03 0.  0.
   -5000001    1    1    2    0    0  0.21986109431E+03  0.77012601613E+03 -0.41143362328E+03  0.92063815252E+03  0.19200000000E+03 0.  0.
<mgrwt>
<rscale>  0 0.16583991E+04</rscale>
<asrwt>0</asrwt>
<pdfrwt beam="1">  1        2 0.65173960E-01 0.16583991E+04</pdfrwt>
<pdfrwt beam="2">  1       -2 0.21530193E+00 0.16583991E+04</pdfrwt>
<totfact> 0.75481964E+00</totfact>
</mgrwt>
</event>
<event>
 4    1  0.1896644E-005  0.4565445E+03  0.7818608E-02  0.1025788E+00
         -2   -1    0    0    0  501 -0.00000000000E+00  0.00000000000E+00  0.21711526055E+03  0.21711526056E+03  0.25500000000E-02 0. -1.
          2   -1    0    0  501    0  0.00000000000E+00 -0.00000000000E+00 -0.24000257542E+03  0.24000257543E+03  0.25500000000E-02 0.  1.
    5000001    1    1    2    0    0 -0.23403984022E+02 -0.96446710441E+02 -0.84983202176E+02  0.23224095047E+03  0.19200000000E+03 0.  0.
   -5000001    1    1    2    0    0  0.23403984022E+02  0.96446710441E+02  0.62095887309E+02  0.22487688553E+03  0.19200000000E+03 0.  0.
<mgrwt>
<rscale>  0 0.45654451E+03</rscale>
<asrwt>0</asrwt>
<pdfrwt beam="1">  1        2 0.34286082E-01 0.45654451E+03</pdfrwt>
<pdfrwt beam="2">  1       -2 0.31016466E-01 0.45654451E+03</pdfrwt>
<totfact> 0.14676588E+03</totfact>
</mgrwt>
</event>
<event>
 4    1  0.1896644E-005  0.4423800E+03  0.7818608E-02  0.1030019E+00
         -2   -1    0    0    0  501 -0.00000000000E+00  0.00000000000E+00  0.76919805281E+02  0.76919805324E+02  0.25500000000E-02 0. -1.
          2   -1    0    0  501    0  0.00000000000E+00 -0.00000000000E+00 -0.63605236061E+03  0.63605236062E+03  0.25500000000E-02 0.  1.
    5000001    1    1    2    0    0  0.50938978368E+02  0.93660307185E+02 -0.23710881826E+03  0.32318976524E+03  0.19200000000E+03 0.  0.
   -5000001    1    1    2    0    0 -0.50938978368E+02 -0.93660307185E+02 -0.32202373708E+03  0.38978240071E+03  0.19200000000E+03 0.  0.
<mgrwt>
<rscale>  0 0.44238003E+03</rscale>
<asrwt>0</asrwt>
<pdfrwt beam="1">  1        2 0.90864620E-01 0.44238003E+03</pdfrwt>
<pdfrwt beam="2">  1       -2 0.10988544E-01 0.44238003E+03</pdfrwt>
<totfact> 0.29520158E+03</totfact>
</mgrwt>
</event>
<event>
 4    1  0.1896644E-005  0.4360642E+03  0.7818608E-02  0.1031961E+00
         -2   -1    0    0    0  501 -0.00000000000E+00  0.00000000000E+00  0.58595393607E+02  0.58595393662E+02  0.25500000000E-02 0. -1.
          2   -1    0    0  501    0  0.00000000000E+00 -0.00000000000E+00 -0.81129222280E+03  0.81129222280E+03  0.25500000000E-02 0.  1.
    5000001    1    1    2    0    0 -0.17874316688E+02 -0.84446314851E+02 -0.26309163959E+03  0.33694492444E+03  0.19200000000E+03 0.  0.
   -5000001    1    1    2    0    0  0.17874316688E+02  0.84446314851E+02 -0.48960518961E+03  0.53294269202E+03  0.19200000000E+03 0.  0.
<mgrwt>
<rscale>  0 0.43606416E+03</rscale>
<asrwt>0</asrwt>
<pdfrwt beam="1">  1        2 0.11589888E+00 0.43606416E+03</pdfrwt>
<pdfrwt beam="2">  1       -2 0.83707710E-02 0.43606416E+03</pdfrwt>
<totfact> 0.33928899E+03</totfact>
</mgrwt>
</event>
<event>
 4    1  0.1896644E-005  0.5789216E+03  0.7818608E-02  0.9950128E-01
          2   -1    0    0  501    0  0.00000000000E+00  0.00000000000E+00  0.17014115727E+04  0.17014115727E+04  0.25500000000E-02 0.  1.
         -2   -1    0    0    0  501 -0.00000000000E+00 -0.00000000000E+00 -0.49245906978E+02  0.49245907044E+02  0.25500000000E-02 0. -1.
    5000001    1    1    2    0    0 -0.54563034094E+02  0.18714275444E+03  0.11117509124E+04  0.11449251619E+04  0.19200000000E+03 0.  0.
   -5000001    1    1    2    0    0  0.54563034094E+02 -0.18714275444E+03  0.54041475338E+03  0.60573231786E+03  0.19200000000E+03 0.  0.
<mgrwt>
<rscale>  0 0.57892160E+03</rscale>
<asrwt>0</asrwt>
<pdfrwt beam="1">  1        2 0.24305874E+00 0.57892160E+03</pdfrwt>
<pdfrwt beam="2">  1       -2 0.70351311E-02 0.57892160E+03</pdfrwt>
<totfact> 0.14101977E+03</totfact>
</mgrwt>
</event>
<event>
 4    1  0.1896644E-005  0.5233656E+03  0.7818608E-02  0.1007854E+00
         -2   -1    0    0    0  501 -0.00000000000E+00  0.00000000000E+00  0.87267266072E+02  0.87267266109E+02  0.25500000000E-02 0. -1.
          2   -1    0    0  501    0  0.00000000000E+00 -0.00000000000E+00 -0.78469161348E+03  0.78469161348E+03  0.25500000000E-02 0.  1.
    5000001    1    1    2    0    0  0.30886385666E+02 -0.17286829957E+03 -0.30228692029E+03  0.39884683776E+03  0.19200000000E+03 0.  0.
   -5000001    1    1    2    0    0 -0.30886385666E+02  0.17286829957E+03 -0.39513742712E+03  0.47311204183E+03  0.19200000000E+03 0.  0.
<mgrwt>
<rscale>  0 0.52336562E+03</rscale>
<asrwt>0</asrwt>
<pdfrwt beam="1">  1        2 0.11209880E+00 0.52336562E+03</pdfrwt>
<pdfrwt beam="2">  1       -2 0.12466753E-01 0.52336562E+03</pdfrwt>
<totfact> 0.18610896E+03</totfact>
</mgrwt>
</event>
<event>
 4    1  0.1896644E-005  0.5520385E+03  0.7818608E-02  0.1001023E+00
         -2   -1    0    0    0  501 -0.00000000000E+00  0.00000000000E+00  0.20934670755E+02  0.20934670910E+02  0.25500000000E-02 0. -1.
          2   -1    0    0  501    0  0.00000000000E+00 -0.00000000000E+00 -0.36392557067E+04  0.36392557067E+04  0.25500000000E-02 0.  1.
    5000001    1    1    2    0    0 -0.12005743170E+03  0.12027710245E+03 -0.24866950118E+04  0.24998792870E+04  0.19200000000E+03 0.  0.
   -5000001    1    1    2    0    0  0.12005743170E+03 -0.12027710245E+03 -0.11316260242E+04  0.11603110905E+04  0.19200000000E+03 0.  0.
<mgrwt>
<rscale>  0 0.55203848E+03</rscale>
<asrwt>0</asrwt>
<pdfrwt beam="1">  1        2 0.51989327E+00 0.55203848E+03</pdfrwt>
<pdfrwt beam="2">  1       -2 0.29906696E-02 0.55203848E+03</pdfrwt>
<totfact> 0.49163369E+02</totfact>
</mgrwt>
</event>
<event>
 4    1  0.1896644E-005  0.7308440E+03  0.7818608E-02  0.9665892E-01
          2   -1    0    0  501    0  0.00000000000E+00  0.00000000000E+00  0.23259265877E+03  0.23259265879E+03  0.25500000000E-02 0.  1.
         -2   -1    0    0    0  501 -0.00000000000E+00 -0.00000000000E+00 -0.57410763433E+03  0.57410763434E+03  0.25500000000E-02 0. -1.
    5000001    1    1    2    0    0 -0.26573023569E+03  0.88290337070E+02 -0.21596402578E+02  0.34020309579E+03  0.19200000000E+03 0.  0.
   -5000001    1    1    2    0    0  0.26573023569E+03 -0.88290337070E+02 -0.31991857298E+03  0.46649719733E+03  0.19200000000E+03 0.  0.
<mgrwt>
<rscale>  0 0.73084395E+03</rscale>
<asrwt>0</asrwt>
<pdfrwt beam="1">  1        2 0.33227523E-01 0.73084395E+03</pdfrwt>
<pdfrwt beam="2">  1       -2 0.82015376E-01 0.73084395E+03</pdfrwt>
<totfact> 0.20908761E+02</totfact>
</mgrwt>
</event>
<event>
 4    1  0.1896644E-005  0.5704746E+03  0.7818608E-02  0.9968629E-01
          2   -1    0    0  501    0  0.00000000000E+00  0.00000000000E+00  0.14415081545E+04  0.14415081545E+04  0.25500000000E-02 0.  1.
         -2   -1    0    0    0  501 -0.00000000000E+00 -0.00000000000E+00 -0.56441099451E+02  0.56441099508E+02  0.25500000000E-02 0. -1.
    5000001    1    1    2    0    0 -0.14581491006E+03  0.14235868282E+03  0.54947413750E+03  0.61669588157E+03  0.19200000000E+03 0.  0.
   -5000001    1    1    2    0    0  0.14581491006E+03 -0.14235868282E+03  0.83559291753E+03  0.88125337241E+03  0.19200000000E+03 0.  0.
<mgrwt>
<rscale>  0 0.57047456E+03</rscale>
<asrwt>0</asrwt>
<pdfrwt beam="1">  1        2 0.20592974E+00 0.57047456E+03</pdfrwt>
<pdfrwt beam="2">  1       -2 0.80630142E-02 0.57047456E+03</pdfrwt>
<totfact> 0.15469495E+03</totfact>
</mgrwt>
</event>
<event>
 4    1  0.1896644E-005  0.7522362E+03  0.7818608E-02  0.9631849E-01
          2   -1    0    0  501    0  0.00000000000E+00  0.00000000000E+00  0.68135448720E+03  0.68135448720E+03  0.25500000000E-02 0.  1.
         -2   -1    0    0    0  501 -0.00000000000E+00 -0.00000000000E+00 -0.20762296384E+03  0.20762296386E+03  0.25500000000E-02 0. -1.
    5000001    1    1    2    0    0  0.88987601567E+02  0.26959634906E+03  0.53785809338E+02  0.34692635810E+03  0.19200000000E+03 0.  0.
   -5000001    1    1    2    0    0 -0.88987601567E+02 -0.26959634906E+03  0.41994571402E+03  0.54205109296E+03  0.19200000000E+03 0.  0.
<mgrwt>
<rscale>  0 0.75223623E+03</rscale>
<asrwt>0</asrwt>
<pdfrwt beam="1">  1        2 0.97336355E-01 0.75223623E+03</pdfrwt>
<pdfrwt beam="2">  1       -2 0.29660423E-01 0.75223623E+03</pdfrwt>
<totfact> 0.48908958E+02</totfact>
</mgrwt>
</event>
<event>
 4    1  0.1896644E-005  0.5404817E+03  0.7818608E-02  0.1003721E+00
          2   -1    0    0  501    0  0.00000000000E+00  0.00000000000E+00  0.77094069738E+03  0.77094069738E+03  0.25500000000E-02 0.  1.
         -2   -1    0    0    0  501 -0.00000000000E+00 -0.00000000000E+00 -0.94728575006E+02  0.94728575040E+02  0.25500000000E-02 0. -1.
    5000001    1    1    2    0    0 -0.18510702518E+03  0.40108358919E+02  0.31069832188E+03  0.41142525256E+03  0.19200000000E+03 0.  0.
   -5000001    1    1    2    0    0  0.18510702518E+03 -0.40108358919E+02  0.36551380049E+03  0.45424401986E+03  0.19200000000E+03 0.  0.
<mgrwt>
<rscale>  0 0.54048169E+03</rscale>
<asrwt>0</asrwt>
<pdfrwt beam="1">  1        2 0.11013439E+00 0.54048169E+03</pdfrwt>
<pdfrwt beam="2">  1       -2 0.13532654E-01 0.54048169E+03</pdfrwt>
<totfact> 0.16613611E+03</totfact>
</mgrwt>
</event>
<event>
 4    1  0.1896644E-005  0.6442282E+03  0.7818608E-02  0.9817670E-01
          2   -1    0    0  501    0  0.00000000000E+00  0.00000000000E+00  0.40815404474E+04  0.40815404474E+04  0.25500000000E-02 0.  1.
         -2   -1    0    0    0  501 -0.00000000000E+00 -0.00000000000E+00 -0.25421156343E+02  0.25421156471E+02  0.25500000000E-02 0. -1.
    5000001    1    1    2    0    0  0.99770988871E+02 -0.23851038346E+03  0.19820778007E+04  0.20080681913E+04  0.19200000000E+03 0.  0.
   -5000001    1    1    2    0    0 -0.99770988871E+02  0.23851038346E+03  0.20740414904E+04  0.20988934125E+04  0.19200000000E+03 0.  0.
<mgrwt>
<rscale>  0 0.64422815E+03</rscale>
<asrwt>0</asrwt>
<pdfrwt beam="1">  1        2 0.58307699E+00 0.64422815E+03</pdfrwt>
<pdfrwt beam="2">  1       -2 0.36315951E-02 0.64422815E+03</pdfrwt>
<totfact> 0.18726585E+02</totfact>
</mgrwt>
</event>
<event>
 4    1  0.1896644E-005  0.5931051E+03  0.7818608E-02  0.9919815E-01
          2   -1    0    0  501    0  0.00000000000E+00  0.00000000000E+00  0.16170555787E+04  0.16170555787E+04  0.25500000000E-02 0.  1.
         -2   -1    0    0    0  501 -0.00000000000E+00 -0.00000000000E+00 -0.54384907601E+02  0.54384907661E+02  0.25500000000E-02 0. -1.
    5000001    1    1    2    0    0 -0.36115973511E+02  0.18443458137E+03  0.11351067606E+04  0.11664698180E+04  0.19200000000E+03 0.  0.
   -5000001    1    1    2    0    0  0.36115973511E+02 -0.18443458137E+03  0.42756391052E+03  0.50497066838E+03  0.19200000000E+03 0.  0.
<mgrwt>
<rscale>  0 0.59310511E+03</rscale>
<asrwt>0</asrwt>
<pdfrwt beam="1">  1        2 0.23100798E+00 0.59310511E+03</pdfrwt>
<pdfrwt beam="2">  1       -2 0.77692712E-02 0.59310511E+03</pdfrwt>
<totfact> 0.13296831E+03</totfact>
</mgrwt>
</event>
<event>
 4    1  0.1896644E-005  0.5630084E+03  0.7818608E-02  0.9985270E-01
          2   -1    0    0  501    0  0.00000000000E+00  0.00000000000E+00  0.69523741954E+03  0.69523741955E+03  0.25500000000E-02 0.  1.
         -2   -1    0    0    0  501 -0.00000000000E+00 -0.00000000000E+00 -0.11398209106E+03  0.11398209109E+03  0.25500000000E-02 0. -1.
    5000001    1    1    2    0    0  0.19573201012E+03 -0.63345489345E+02  0.30147381758E+03  0.41240045283E+03  0.19200000000E+03 0.  0.
   -5000001    1    1    2    0    0 -0.19573201012E+03  0.63345489345E+02  0.27978151090E+03  0.39681905781E+03  0.19200000000E+03 0.  0.
<mgrwt>
<rscale>  0 0.56300840E+03</rscale>
<asrwt>0</asrwt>
<pdfrwt beam="1">  1        2 0.99319628E-01 0.56300840E+03</pdfrwt>
<pdfrwt beam="2">  1       -2 0.16283157E-01 0.56300840E+03</pdfrwt>
<totfact> 0.13836826E+03</totfact>
</mgrwt>
</event>
<event>
 4    1  0.1896644E-005  0.6401889E+03  0.7818608E-02  0.9825365E-01
         -2   -1    0    0    0  501 -0.00000000000E+00  0.00000000000E+00  0.11079596311E+03  0.11079596314E+03  0.25500000000E-02 0. -1.
          2   -1    0    0  501    0  0.00000000000E+00 -0.00000000000E+00 -0.92476709985E+03  0.92476709985E+03  0.25500000000E-02 0.  1.
    5000001    1    1    2    0    0 -0.18715858140E+03 -0.11738246005E+03 -0.61658354652E+03  0.68252930073E+03  0.19200000000E+03 0.  0.
   -5000001    1    1    2    0    0  0.18715858140E+03  0.11738246005E+03 -0.19738759022E+03  0.35303376226E+03  0.19200000000E+03 0.  0.
<mgrwt>
<rscale>  0 0.64018891E+03</rscale>
<asrwt>0</asrwt>
<pdfrwt beam="1">  1        2 0.13210958E+00 0.64018891E+03</pdfrwt>
<pdfrwt beam="2">  1       -2 0.15827995E-01 0.64018891E+03</pdfrwt>
<totfact> 0.10059149E+03</totfact>
</mgrwt>
</event>
<event>
 4    1  0.1896644E-005  0.7640910E+03  0.7818608E-02  0.9613500E-01
          2   -1    0    0  501    0  0.00000000000E+00  0.00000000000E+00  0.73431511317E+03  0.73431511317E+03  0.25500000000E-02 0.  1.
         -2   -1    0    0    0  501 -0.00000000000E+00 -0.00000000000E+00 -0.19876854852E+03  0.19876854853E+03  0.25500000000E-02 0. -1.
    5000001    1    1    2    0    0 -0.25978764653E+03  0.20290361779E+03  0.29325007878E+03  0.48116432547E+03  0.19200000000E+03 0.  0.
   -5000001    1    1    2    0    0  0.25978764653E+03 -0.20290361779E+03  0.24229648587E+03  0.45191933624E+03  0.19200000000E+03 0.  0.
<mgrwt>
<rscale>  0 0.76409096E+03</rscale>
<asrwt>0</asrwt>
<pdfrwt beam="1">  1        2 0.10490216E+00 0.76409096E+03</pdfrwt>
<pdfrwt beam="2">  1       -2 0.28395507E-01 0.76409096E+03</pdfrwt>
<totfact> 0.48298708E+02</totfact>
</mgrwt>
</event>
<event>
 4    1  0.1896644E-005  0.5438227E+03  0.7818608E-02  0.1002934E+00
          2   -1    0    0  501    0  0.00000000000E+00  0.00000000000E+00  0.33808619082E+04  0.33808619082E+04  0.25500000000E-02 0.  1.
         -2   -1    0    0    0  501 -0.00000000000E+00 -0.00000000000E+00 -0.21868913337E+02  0.21868913486E+02  0.25500000000E-02 0. -1.
    5000001    1    1    2    0    0  0.36323531813E+02 -0.17096387925E+03  0.11741162677E+04  0.12024812086E+04  0.19200000000E+03 0.  0.
   -5000001    1    1    2    0    0 -0.36323531813E+02  0.17096387925E+03  0.21848767271E+04  0.22002496131E+04  0.19200000000E+03 0.  0.
<mgrwt>
<rscale>  0 0.54382268E+03</rscale>
<asrwt>0</asrwt>
<pdfrwt beam="1">  1        2 0.48298015E+00 0.54382268E+03</pdfrwt>
<pdfrwt beam="2">  1       -2 0.31241313E-02 0.54382268E+03</pdfrwt>
<totfact> 0.65568626E+02</totfact>
</mgrwt>
</event>
<event>
 4    1  0.1896644E-005  0.5183277E+03  0.7818608E-02  0.1009103E+00
          2   -1    0    0  501    0  0.00000000000E+00  0.00000000000E+00  0.39156677349E+04  0.39156677349E+04  0.25500000000E-02 0.  1.
         -2   -1    0    0    0  501 -0.00000000000E+00 -0.00000000000E+00 -0.17153115563E+02  0.17153115753E+02  0.25500000000E-02 0. -1.
    5000001    1    1    2    0    0 -0.96093730664E+02  0.11747719949E+03  0.13024462378E+04  0.13252415251E+04  0.19200000000E+03 0.  0.
   -5000001    1    1    2    0    0  0.96093730664E+02 -0.11747719949E+03  0.25960683815E+04  0.26075793255E+04  0.19200000000E+03 0.  0.
<mgrwt>
<rscale>  0 0.51832770E+03</rscale>
<asrwt>0</asrwt>
<pdfrwt beam="1">  1        2 0.55938162E+00 0.51832770E+03</pdfrwt>
<pdfrwt beam="2">  1       -2 0.24504428E-02 0.51832770E+03</pdfrwt>
<totfact> 0.44712631E+02</totfact>
</mgrwt>
</event>
<event>
 4    1  0.1896644E-005  0.4282119E+03  0.7818608E-02  0.1034426E+00
          2   -1    0    0  501    0  0.00000000000E+00  0.00000000000E+00  0.47608967957E+03  0.47608967958E+03  0.25500000000E-02 0.  1.
         -2   -1    0    0    0  501 -0.00000000000E+00 -0.00000000000E+00 -0.96287249338E+02  0.96287249372E+02  0.25500000000E-02 0. -1.
    5000001    1    1    2    0    0 -0.13490370659E+02 -0.81920551722E+02  0.25092705400E+03  0.32668234314E+03  0.19200000000E+03 0.  0.
   -5000001    1    1    2    0    0  0.13490370659E+02  0.81920551722E+02  0.12887537624E+03  0.24569458581E+03  0.19200000000E+03 0.  0.
<mgrwt>
<rscale>  0 0.42821194E+03</rscale>
<asrwt>0</asrwt>
<pdfrwt beam="1">  1        2 0.68012810E-01 0.42821194E+03</pdfrwt>
<pdfrwt beam="2">  1       -2 0.13755322E-01 0.42821194E+03</pdfrwt>
<totfact> 0.28461284E+03</totfact>
</mgrwt>
</event>
<event>
 4    1  0.1896644E-005  0.4474922E+03  0.7818608E-02  0.1028473E+00
          2   -1    0    0  501    0  0.00000000000E+00  0.00000000000E+00  0.14792820042E+03  0.14792820044E+03  0.25500000000E-02 0.  1.
         -2   -1    0    0    0  501 -0.00000000000E+00 -0.00000000000E+00 -0.33842302420E+03  0.33842302421E+03  0.25500000000E-02 0. -1.
    5000001    1    1    2    0    0  0.74254532249E+02 -0.22278303264E+02 -0.18739334764E+03  0.27926747948E+03  0.19200000000E+03 0.  0.
   -5000001    1    1    2    0    0 -0.74254532249E+02  0.22278303264E+02 -0.31014761388E+01  0.20708374516E+03  0.19200000000E+03 0.  0.
<mgrwt>
<rscale>  0 0.44749216E+03</rscale>
<asrwt>0</asrwt>
<pdfrwt beam="1">  1        2 0.21132600E-01 0.44749216E+03</pdfrwt>
<pdfrwt beam="2">  1       -2 0.48346146E-01 0.44749216E+03</pdfrwt>
<totfact> 0.10796028E+03</totfact>
</mgrwt>
</event>
<event>
 4    1  0.1896644E-005  0.4291509E+03  0.7818608E-02  0.1034129E+00
         -2   -1    0    0    0  501 -0.00000000000E+00  0.00000000000E+00  0.44370044322E+02  0.44370044395E+02  0.25500000000E-02 0. -1.
          2   -1    0    0  501    0  0.00000000000E+00 -0.00000000000E+00 -0.10376962662E+04  0.10376962662E+04  0.25500000000E-02 0.  1.
    5000001    1    1    2    0    0  0.48974247073E+02 -0.81865229841E+02 -0.47436085009E+03  0.52055989937E+03  0.19200000000E+03 0.  0.
   -5000001    1    1    2    0    0 -0.48974247073E+02  0.81865229841E+02 -0.51896537175E+03  0.56150641119E+03  0.19200000000E+03 0.  0.
<mgrwt>
<rscale>  0 0.42915093E+03</rscale>
<asrwt>0</asrwt>
<pdfrwt beam="1">  1        2 0.14824231E+00 0.42915093E+03</pdfrwt>
<pdfrwt beam="2">  1       -2 0.63385784E-02 0.42915093E+03</pdfrwt>
<totfact> 0.37817836E+03</totfact>
</mgrwt>
</event>
<event>
 4    1  0.1896644E-005  0.9552258E+03  0.7818608E-02  0.9359063E-01
          2   -1    0    0  501    0  0.00000000000E+00  0.00000000000E+00  0.13817051329E+04  0.13817051329E+04  0.25500000000E-02 0.  1.
         -2   -1    0    0    0  501 -0.00000000000E+00 -0.00000000000E+00 -0.16509605773E+03  0.16509605775E+03  0.25500000000E-02 0. -1.
    5000001    1    1    2    0    0  0.43099310113E+03 -0.19164609794E+02  0.49234906566E+03  0.68219787301E+03  0.19200000000E+03 0.  0.
   -5000001    1    1    2    0    0 -0.43099310113E+03  0.19164609794E+02  0.72426000949E+03  0.86460331762E+03  0.19200000000E+03 0.  0.
<mgrwt>
<rscale>  0 0.95522578E+03</rscale>
<asrwt>0</asrwt>
<pdfrwt beam="1">  1        2 0.19738645E+00 0.95522578E+03</pdfrwt>
<pdfrwt beam="2">  1       -2 0.23585151E-01 0.95522578E+03</pdfrwt>
<totfact> 0.26915898E+02</totfact>
</mgrwt>
</event>
<event>
 4    1  0.1896644E-005  0.1328842E+04  0.7818608E-02  0.9007001E-01
          2   -1    0    0  501    0  0.00000000000E+00  0.00000000000E+00  0.29010404650E+04  0.29010404651E+04  0.25500000000E-02 0.  1.
         -2   -1    0    0    0  501 -0.00000000000E+00 -0.00000000000E+00 -0.15217127106E+03  0.15217127109E+03  0.25500000000E-02 0. -1.
    5000001    1    1    2    0    0  0.57029232799E+03 -0.14069204717E+03  0.19351900762E+04  0.20314655356E+04  0.19200000000E+03 0.  0.
   -5000001    1    1    2    0    0 -0.57029232799E+03  0.14069204717E+03  0.81367911779E+03  0.10217462005E+04  0.19200000000E+03 0.  0.
<mgrwt>
<rscale>  0 0.13288416E+04</rscale>
<asrwt>0</asrwt>
<pdfrwt beam="1">  1        2 0.41443432E+00 0.13288416E+04</pdfrwt>
<pdfrwt beam="2">  1       -2 0.21738755E-01 0.13288416E+04</pdfrwt>
<totfact> 0.48676784E+01</totfact>
</mgrwt>
</event>
<event>
 4    1  0.1896644E-005  0.6918429E+03  0.7818608E-02  0.9731285E-01
          2   -1    0    0  501    0  0.00000000000E+00  0.00000000000E+00  0.16012494812E+04  0.16012494812E+04  0.25500000000E-02 0.  1.
         -2   -1    0    0    0  501 -0.00000000000E+00 -0.00000000000E+00 -0.74730161933E+02  0.74730161976E+02  0.25500000000E-02 0. -1.
    5000001    1    1    2    0    0 -0.12262995970E+03 -0.22995971411E+03  0.10587439351E+04  0.11071234336E+04  0.19200000000E+03 0.  0.
   -5000001    1    1    2    0    0  0.12262995970E+03  0.22995971411E+03  0.46777538413E+03  0.56885620953E+03  0.19200000000E+03 0.  0.
<mgrwt>
<rscale>  0 0.69184285E+03</rscale>
<asrwt>0</asrwt>
<pdfrwt beam="1">  1        2 0.22874992E+00 0.69184285E+03</pdfrwt>
<pdfrwt beam="2">  1       -2 0.10675737E-01 0.69184285E+03</pdfrwt>
<totfact> 0.80830059E+02</totfact>
</mgrwt>
</event>
<event>
 4    1  0.1896644E-005  0.7075767E+03  0.7818608E-02  0.9704362E-01
          2   -1    0    0  501    0  0.00000000000E+00  0.00000000000E+00  0.99750352081E+03  0.99750352081E+03  0.25500000000E-02 0. -1.
         -2   -1    0    0    0  501 -0.00000000000E+00 -0.00000000000E+00 -0.12547946409E+03  0.12547946412E+03  0.25500000000E-02 0.  1.
    5000001    1    1    2    0    0 -0.12030281942E+03  0.17041951166E+03  0.10014001214E+03  0.30067856649E+03  0.19200000000E+03 0.  0.
   -5000001    1    1    2    0    0  0.12030281942E+03 -0.17041951166E+03  0.77188404457E+03  0.82230441844E+03  0.19200000000E+03 0.  0.
<mgrwt>
<rscale>  0 0.70757673E+03</rscale>
<asrwt>0</asrwt>
<pdfrwt beam="1">  1        2 0.14250050E+00 0.70757673E+03</pdfrwt>
<pdfrwt beam="2">  1       -2 0.17925638E-01 0.70757673E+03</pdfrwt>
<totfact> 0.73096892E+02</totfact>
</mgrwt>
</event>
<event>
 4    1  0.1896644E-005  0.4371794E+03  0.7818608E-02  0.1031616E+00
         -2   -1    0    0    0  501 -0.00000000000E+00  0.00000000000E+00  0.17945938499E+03  0.17945938501E+03  0.25500000000E-02 0. -1.
          2   -1    0    0  501    0  0.00000000000E+00 -0.00000000000E+00 -0.26625214574E+03  0.26625214575E+03  0.25500000000E-02 0.  1.
    5000001    1    1    2    0    0  0.88479465759E+01 -0.50269963872E+02  0.49553614537E+02  0.20475574751E+03  0.19200000000E+03 0.  0.
   -5000001    1    1    2    0    0 -0.88479465759E+01  0.50269963872E+02 -0.13634637528E+03  0.24095578324E+03  0.19200000000E+03 0.  0.
<mgrwt>
<rscale>  0 0.43717935E+03</rscale>
<asrwt>0</asrwt>
<pdfrwt beam="1">  1        2 0.38036021E-01 0.43717935E+03</pdfrwt>
<pdfrwt beam="2">  1       -2 0.25637055E-01 0.43717935E+03</pdfrwt>
<totfact> 0.18501170E+03</totfact>
</mgrwt>
</event>
<event>
 4    1  0.1896644E-005  0.5218857E+03  0.7818608E-02  0.1008219E+00
         -2   -1    0    0    0  501 -0.00000000000E+00  0.00000000000E+00  0.92412750040E+02  0.92412750076E+02  0.25500000000E-02 0. -1.
          2   -1    0    0  501    0  0.00000000000E+00 -0.00000000000E+00 -0.73681564401E+03  0.73681564402E+03  0.25500000000E-02 0.  1.
    5000001    1    1    2    0    0 -0.90586805270E+02 -0.14592066128E+03 -0.25614506093E+03  0.36328102196E+03  0.19200000000E+03 0.  0.
   -5000001    1    1    2    0    0  0.90586805270E+02  0.14592066128E+03 -0.38825783305E+03  0.46594737213E+03  0.19200000000E+03 0.  0.
<mgrwt>
<rscale>  0 0.52188566E+03</rscale>
<asrwt>0</asrwt>
<pdfrwt beam="1">  1        2 0.10525937E+00 0.52188566E+03</pdfrwt>
<pdfrwt beam="2">  1       -2 0.13201822E-01 0.52188566E+03</pdfrwt>
<totfact> 0.18316158E+03</totfact>
</mgrwt>
</event>
<event>
 4    1  0.1896644E-005  0.1319102E+04  0.7818608E-02  0.9014553E-01
          2   -1    0    0  501    0  0.00000000000E+00  0.00000000000E+00  0.24501584886E+03  0.24501584887E+03  0.25500000000E-02 0.  1.
         -2   -1    0    0    0  501 -0.00000000000E+00 -0.00000000000E+00 -0.17754250880E+04  0.17754250880E+04  0.25500000000E-02 0. -1.
    5000001    1    1    2    0    0  0.59038068314E+03  0.11076921963E+03 -0.10611166707E+04  0.12343628963E+04  0.19200000000E+03 0.  0.
   -5000001    1    1    2    0    0 -0.59038068314E+03 -0.11076921963E+03 -0.46929256851E+03  0.78607804060E+03  0.19200000000E+03 0.  0.
<mgrwt>
<rscale>  0 0.13191016E+04</rscale>
<asrwt>0</asrwt>
<pdfrwt beam="1">  1        2 0.35002265E-01 0.13191016E+04</pdfrwt>
<pdfrwt beam="2">  1       -2 0.25363215E+00 0.13191016E+04</pdfrwt>
<totfact> 0.89701931E+00</totfact>
</mgrwt>
</event>
<event>
 4    1  0.1896644E-005  0.8639502E+03  0.7818608E-02  0.9471802E-01
         -2   -1    0    0    0  501 -0.00000000000E+00  0.00000000000E+00  0.15741693711E+03  0.15741693713E+03  0.25500000000E-02 0. -1.
          2   -1    0    0  501    0  0.00000000000E+00 -0.00000000000E+00 -0.11854028148E+04  0.11854028148E+04  0.25500000000E-02 0.  1.
    5000001    1    1    2    0    0 -0.67870011517E+02  0.34081852675E+03 -0.77856245002E+03  0.87394913766E+03  0.19200000000E+03 0.  0.
   -5000001    1    1    2    0    0  0.67870011517E+02 -0.34081852675E+03 -0.24942342764E+03  0.46887061424E+03  0.19200000000E+03 0.  0.
<mgrwt>
<rscale>  0 0.86395018E+03</rscale>
<asrwt>0</asrwt>
<pdfrwt beam="1">  1        2 0.16934325E+00 0.86395018E+03</pdfrwt>
<pdfrwt beam="2">  1       -2 0.22488135E-01 0.86395018E+03</pdfrwt>
<totfact> 0.37828751E+02</totfact>
</mgrwt>
</event>
<event>
 4    1  0.1896644E-005  0.5958093E+03  0.7818608E-02  0.9914139E-01
         -2   -1    0    0    0  501 -0.00000000000E+00  0.00000000000E+00  0.16824022512E+03  0.16824022514E+03  0.25500000000E-02 0. -1.
          2   -1    0    0  501    0  0.00000000000E+00 -0.00000000000E+00 -0.52750274841E+03  0.52750274842E+03  0.25500000000E-02 0.  1.
    5000001    1    1    2    0    0  0.22165665663E+03 -0.38654359281E+01 -0.24071766046E+03  0.37941482191E+03  0.19200000000E+03 0.  0.
   -5000001    1    1    2    0    0 -0.22165665663E+03  0.38654359281E+01 -0.11854486283E+03  0.31632815165E+03  0.19200000000E+03 0.  0.
<mgrwt>
<rscale>  0 0.59580930E+03</rscale>
<asrwt>0</asrwt>
<pdfrwt beam="1">  1        2 0.75357535E-01 0.59580930E+03</pdfrwt>
<pdfrwt beam="2">  1       -2 0.24034318E-01 0.59580930E+03</pdfrwt>
<totfact> 0.97350230E+02</totfact>
</mgrwt>
</event>
<event>
 4    1  0.1896644E-005  0.4945346E+03  0.7818608E-02  0.1015215E+00
          2   -1    0    0  501    0  0.00000000000E+00  0.00000000000E+00  0.14619200646E+04  0.14619200646E+04  0.25500000000E-02 0.  1.
         -2   -1    0    0    0  501 -0.00000000000E+00 -0.00000000000E+00 -0.41822476067E+02  0.41822476144E+02  0.25500000000E-02 0. -1.
    5000001    1    1    2    0    0 -0.84996187763E+02  0.87863211255E+02  0.41629514012E+03  0.47445752129E+03  0.19200000000E+03 0.  0.
   -5000001    1    1    2    0    0  0.84996187763E+02 -0.87863211255E+02  0.10038024484E+04  0.10292850195E+04  0.19200000000E+03 0.  0.
<mgrwt>
<rscale>  0 0.49453460E+03</rscale>
<asrwt>0</asrwt>
<pdfrwt beam="1">  1        2 0.20884572E+00 0.49453460E+03</pdfrwt>
<pdfrwt beam="2">  1       -2 0.59746395E-02 0.49453460E+03</pdfrwt>
<totfact> 0.24248508E+03</totfact>
</mgrwt>
</event>
<event>
 4    1  0.1896644E-005  0.5966166E+03  0.7818608E-02  0.9912451E-01
          2   -1    0    0  501    0  0.00000000000E+00  0.00000000000E+00  0.14060360815E+04  0.14060360815E+04  0.25500000000E-02 0.  1.
         -2   -1    0    0    0  501 -0.00000000000E+00 -0.00000000000E+00 -0.63289868473E+02  0.63289868524E+02  0.25500000000E-02 0. -1.
    5000001    1    1    2    0    0 -0.20308284104E+03  0.93645818478E+02  0.55820221837E+03  0.63124155142E+03  0.19200000000E+03 0.  0.
   -5000001    1    1    2    0    0  0.20308284104E+03 -0.93645818478E+02  0.78454399470E+03  0.83808439865E+03  0.19200000000E+03 0.  0.
<mgrwt>
<rscale>  0 0.59661659E+03</rscale>
<asrwt>0</asrwt>
<pdfrwt beam="1">  1        2 0.20086226E+00 0.59661659E+03</pdfrwt>
<pdfrwt beam="2">  1       -2 0.90414112E-02 0.59661659E+03</pdfrwt>
<totfact> 0.13435585E+03</totfact>
</mgrwt>
</event>
<event>
 4    1  0.1896644E-005  0.6679653E+03  0.7818608E-02  0.9773640E-01
          2   -1    0    0  501    0  0.00000000000E+00  0.00000000000E+00  0.81365833629E+03  0.81365833629E+03  0.25500000000E-02 0.  1.
         -2   -1    0    0    0  501 -0.00000000000E+00 -0.00000000000E+00 -0.13709000516E+03  0.13709000518E+03  0.25500000000E-02 0. -1.
    5000001    1    1    2    0    0 -0.14703440242E+03 -0.14940635352E+03  0.58783376493E+03  0.65295781576E+03  0.19200000000E+03 0.  0.
   -5000001    1    1    2    0    0  0.14703440242E+03  0.14940635352E+03  0.88734566197E+02  0.29779052572E+03  0.19200000000E+03 0.  0.
<mgrwt>
<rscale>  0 0.66796535E+03</rscale>
<asrwt>0</asrwt>
<pdfrwt beam="1">  1        2 0.11623690E+00 0.66796535E+03</pdfrwt>
<pdfrwt beam="2">  1       -2 0.19584287E-01 0.66796535E+03</pdfrwt>
<totfact> 0.82595821E+02</totfact>
</mgrwt>
</event>
<event>
 4    1  0.1896644E-005  0.1903297E+04  0.7818608E-02  0.8653217E-01
         -2   -1    0    0    0  501 -0.00000000000E+00  0.00000000000E+00  0.99553405369E+03  0.99553405369E+03  0.25500000000E-02 0. -1.
          2   -1    0    0  501    0  0.00000000000E+00 -0.00000000000E+00 -0.90969770145E+03  0.90969770145E+03  0.25500000000E-02 0.  1.
    5000001    1    1    2    0    0  0.68207434507E+03  0.44349882851E+03  0.49819297026E+03  0.97312735996E+03  0.19200000000E+03 0.  0.
   -5000001    1    1    2    0    0 -0.68207434507E+03 -0.44349882851E+03 -0.41235661801E+03  0.93210439518E+03  0.19200000000E+03 0.  0.
<mgrwt>
<rscale>  0 0.19032972E+04</rscale>
<asrwt>0</asrwt>
<pdfrwt beam="1">  1        2 0.12995681E+00 0.19032972E+04</pdfrwt>
<pdfrwt beam="2">  1       -2 0.14221915E+00 0.19032972E+04</pdfrwt>
<totfact> 0.10378712E+01</totfact>
</mgrwt>
</event>
<event>
 4    1  0.1896644E-005  0.7348383E+03  0.7818608E-02  0.9659441E-01
         -2   -1    0    0    0  501 -0.00000000000E+00  0.00000000000E+00  0.39680683075E+02  0.39680683157E+02  0.25500000000E-02 0. -1.
          2   -1    0    0  501    0  0.00000000000E+00 -0.00000000000E+00 -0.34020796809E+04  0.34020796809E+04  0.25500000000E-02 0.  1.
    5000001    1    1    2    0    0 -0.24618805051E+03  0.17670883942E+03 -0.20529055692E+04  0.20840153181E+04  0.19200000000E+03 0.  0.
   -5000001    1    1    2    0    0  0.24618805051E+03 -0.17670883942E+03 -0.13094934287E+04  0.13577450460E+04  0.19200000000E+03 0.  0.
<mgrwt>
<rscale>  0 0.73483834E+03</rscale>
<asrwt>0</asrwt>
<pdfrwt beam="1">  1        2 0.48601120E+00 0.73483834E+03</pdfrwt>
<pdfrwt beam="2">  1       -2 0.56686712E-02 0.73483834E+03</pdfrwt>
<totfact> 0.24889639E+02</totfact>
</mgrwt>
</event>
<event>
 4    1  0.1896644E-005  0.6302116E+03  0.7818608E-02  0.9844636E-01
         -2   -1    0    0    0  501 -0.00000000000E+00  0.00000000000E+00  0.45104808060E+02  0.45104808132E+02  0.25500000000E-02 0. -1.
          2   -1    0    0  501    0  0.00000000000E+00 -0.00000000000E+00 -0.22013543512E+04  0.22013543512E+04  0.25500000000E-02 0.  1.
    5000001    1    1    2    0    0 -0.12939785673E+03  0.27168126100E+01 -0.18399554266E+04  0.18544678909E+04  0.19200000000E+03 0.  0.
   -5000001    1    1    2    0    0  0.12939785673E+03 -0.27168126100E+01 -0.31629411657E+03  0.39199126850E+03  0.19200000000E+03 0.  0.
<mgrwt>
<rscale>  0 0.63021160E+03</rscale>
<asrwt>0</asrwt>
<pdfrwt beam="1">  1        2 0.31447913E+00 0.63021160E+03</pdfrwt>
<pdfrwt beam="2">  1       -2 0.64435454E-02 0.63021160E+03</pdfrwt>
<totfact> 0.90449025E+02</totfact>
</mgrwt>
</event>
<event>
 4    1  0.1896644E-005  0.6831157E+03  0.7818608E-02  0.9746550E-01
          2   -1    0    0  501    0  0.00000000000E+00  0.00000000000E+00  0.88036421357E+03  0.88036421357E+03  0.25500000000E-02 0.  1.
         -2   -1    0    0    0  501 -0.00000000000E+00 -0.00000000000E+00 -0.13251534729E+03  0.13251534731E+03  0.25500000000E-02 0. -1.
    5000001    1    1    2    0    0 -0.19711266120E+03  0.10993475140E+02  0.74340365600E+02  0.28524506597E+03  0.19200000000E+03 0.  0.
   -5000001    1    1    2    0    0  0.19711266120E+03 -0.10993475140E+02  0.67350850068E+03  0.72763449492E+03  0.19200000000E+03 0.  0.
<mgrwt>
<rscale>  0 0.68311571E+03</rscale>
<asrwt>0</asrwt>
<pdfrwt beam="1">  1        2 0.12576632E+00 0.68311571E+03</pdfrwt>
<pdfrwt beam="2">  1       -2 0.18930764E-01 0.68311571E+03</pdfrwt>
<totfact> 0.78986024E+02</totfact>
</mgrwt>
</event>
<event>
 4    1  0.1896644E-005  0.8317476E+03  0.7818608E-02  0.9515167E-01
         -2   -1    0    0    0  501 -0.00000000000E+00  0.00000000000E+00  0.63558673843E+03  0.63558673844E+03  0.25500000000E-02 0. -1.
          2   -1    0    0  501    0  0.00000000000E+00 -0.00000000000E+00 -0.27211238535E+03  0.27211238537E+03  0.25500000000E-02 0.  1.
    5000001    1    1    2    0    0 -0.11968969605E+02 -0.35989789411E+03  0.26916015783E+03  0.48885676940E+03  0.19200000000E+03 0.  0.
   -5000001    1    1    2    0    0  0.11968969605E+02  0.35989789411E+03  0.94314195246E+02  0.41884235441E+03  0.19200000000E+03 0.  0.
<mgrwt>
<rscale>  0 0.83174761E+03</rscale>
<asrwt>0</asrwt>
<pdfrwt beam="1">  1        2 0.38873199E-01 0.83174761E+03</pdfrwt>
<pdfrwt beam="2">  1       -2 0.90798104E-01 0.83174761E+03</pdfrwt>
<totfact> 0.13855228E+02</totfact>
</mgrwt>
</event>
<event>
 4    1  0.1896644E-005  0.7346787E+03  0.7818608E-02  0.9659698E-01
         -2   -1    0    0    0  501 -0.00000000000E+00  0.00000000000E+00  0.72555644964E+02  0.72555645009E+02  0.25500000000E-02 0. -1.
          2   -1    0    0  501    0  0.00000000000E+00 -0.00000000000E+00 -0.18597889084E+04  0.18597889084E+04  0.25500000000E-02 0.  1.
    5000001    1    1    2    0    0  0.15363116597E+03  0.11689387120E+03 -0.15421997105E+04  0.15660493796E+04  0.19200000000E+03 0.  0.
   -5000001    1    1    2    0    0 -0.15363116597E+03 -0.11689387120E+03 -0.24503355289E+03  0.36629517377E+03  0.19200000000E+03 0.  0.
<mgrwt>
<rscale>  0 0.73467866E+03</rscale>
<asrwt>0</asrwt>
<pdfrwt beam="1">  1        2 0.26568410E+00 0.73467866E+03</pdfrwt>
<pdfrwt beam="2">  1       -2 0.10365093E-01 0.73467866E+03</pdfrwt>
<totfact> 0.62438284E+02</totfact>
</mgrwt>
</event>
<event>
 4    1  0.1896644E-005  0.5760259E+03  0.7818608E-02  0.9956432E-01
          2   -1    0    0  501    0  0.00000000000E+00  0.00000000000E+00  0.67439152953E+03  0.67439152954E+03  0.25500000000E-02 0.  1.
         -2   -1    0    0    0  501 -0.00000000000E+00 -0.00000000000E+00 -0.12300193824E+03  0.12300193827E+03  0.25500000000E-02 0. -1.
    5000001    1    1    2    0    0  0.47879683521E+02  0.20861236738E+03  0.29868759395E+03  0.41459602349E+03  0.19200000000E+03 0.  0.
   -5000001    1    1    2    0    0 -0.47879683521E+02 -0.20861236738E+03  0.25270199734E+03  0.38279744432E+03  0.19200000000E+03 0.  0.
<mgrwt>
<rscale>  0 0.57602592E+03</rscale>
<asrwt>0</asrwt>
<pdfrwt beam="1">  1        2 0.96341645E-01 0.57602592E+03</pdfrwt>
<pdfrwt beam="2">  1       -2 0.17571706E-01 0.57602592E+03</pdfrwt>
<totfact> 0.12608970E+03</totfact>
</mgrwt>
</event>
<event>
 4    1  0.1896644E-005  0.7782745E+03  0.7818608E-02  0.9592007E-01
         -2   -1    0    0    0  501 -0.00000000000E+00  0.00000000000E+00  0.36435806829E+03  0.36435806830E+03  0.25500000000E-02 0. -1.
          2   -1    0    0  501    0  0.00000000000E+00 -0.00000000000E+00 -0.41560164614E+03  0.41560164615E+03  0.25500000000E-02 0.  1.
    5000001    1    1    2    0    0  0.24156611756E+03 -0.17430344969E+03  0.13543690085E+03  0.37939825492E+03  0.19200000000E+03 0.  0.
   -5000001    1    1    2    0    0 -0.24156611756E+03  0.17430344969E+03 -0.18668047871E+03  0.40056145952E+03  0.19200000000E+03 0.  0.
<mgrwt>
<rscale>  0 0.77827454E+03</rscale>
<asrwt>0</asrwt>
<pdfrwt beam="1">  1        2 0.59371663E-01 0.77827454E+03</pdfrwt>
<pdfrwt beam="2">  1       -2 0.52051153E-01 0.77827454E+03</pdfrwt>
<totfact> 0.29070261E+02</totfact>
</mgrwt>
</event>
<event>
 4    1  0.1896644E-005  0.4523769E+03  0.7818608E-02  0.1027016E+00
         -2   -1    0    0    0  501 -0.00000000000E+00  0.00000000000E+00  0.33035024040E+02  0.33035024138E+02  0.25500000000E-02 0. -1.
          2   -1    0    0  501    0  0.00000000000E+00 -0.00000000000E+00 -0.15486964839E+04  0.15486964839E+04  0.25500000000E-02 0.  1.
    5000001    1    1    2    0    0  0.10153039998E+03  0.29971528585E+02 -0.95220888142E+03  0.97712459211E+03  0.19200000000E+03 0.  0.
   -5000001    1    1    2    0    0 -0.10153039998E+03 -0.29971528585E+02 -0.56345257846E+03  0.60460691595E+03  0.19200000000E+03 0.  0.
<mgrwt>
<rscale>  0 0.45237695E+03</rscale>
<asrwt>0</asrwt>
<pdfrwt beam="1">  1        2 0.22124231E+00 0.45237695E+03</pdfrwt>
<pdfrwt beam="2">  1       -2 0.47192901E-02 0.45237695E+03</pdfrwt>
<totfact> 0.31524209E+03</totfact>
</mgrwt>
</event>
<event>
 4    1  0.1896644E-005  0.9232885E+03  0.7818608E-02  0.9396929E-01
          2   -1    0    0  501    0  0.00000000000E+00  0.00000000000E+00  0.15426770830E+04  0.15426770831E+04  0.25500000000E-02 0.  1.
         -2   -1    0    0    0  501 -0.00000000000E+00 -0.00000000000E+00 -0.13814648828E+03  0.13814648830E+03  0.25500000000E-02 0. -1.
    5000001    1    1    2    0    0 -0.35571062197E+03  0.16840343006E+03  0.96833914637E+03  0.10627485423E+04  0.19200000000E+03 0.  0.
   -5000001    1    1    2    0    0  0.35571062197E+03 -0.16840343006E+03  0.43619144840E+03  0.61807502902E+03  0.19200000000E+03 0.  0.
<mgrwt>
<rscale>  0 0.92328852E+03</rscale>
<asrwt>0</asrwt>
<pdfrwt beam="1">  1        2 0.22038243E+00 0.92328852E+03</pdfrwt>
<pdfrwt beam="2">  1       -2 0.19735213E-01 0.92328852E+03</pdfrwt>
<totfact> 0.30353129E+02</totfact>
</mgrwt>
</event>
<event>
 4    1  0.1896644E-005  0.6178496E+03  0.7818608E-02  0.9869050E-01
          2   -1    0    0  501    0  0.00000000000E+00  0.00000000000E+00  0.10407496898E+04  0.10407496898E+04  0.25500000000E-02 0.  1.
         -2   -1    0    0    0  501 -0.00000000000E+00 -0.00000000000E+00 -0.91697874914E+02  0.91697874949E+02  0.25500000000E-02 0. -1.
    5000001    1    1    2    0    0 -0.18913533621E+03 -0.13912251972E+03  0.36697310079E+03  0.47608876022E+03  0.19200000000E+03 0.  0.
   -5000001    1    1    2    0    0  0.18913533621E+03  0.13912251972E+03  0.58207871414E+03  0.65635880458E+03  0.19200000000E+03 0.  0.
<mgrwt>
<rscale>  0 0.61784961E+03</rscale>
<asrwt>0</asrwt>
<pdfrwt beam="1">  1        2 0.14867852E+00 0.61784961E+03</pdfrwt>
<pdfrwt beam="2">  1       -2 0.13099697E-01 0.61784961E+03</pdfrwt>
<totfact> 0.11726730E+03</totfact>
</mgrwt>
</event>
<event>
 4    1  0.1896644E-005  0.5448017E+03  0.7818608E-02  0.1002704E+00
          2   -1    0    0  501    0  0.00000000000E+00  0.00000000000E+00  0.25442373406E+03  0.25442373407E+03  0.25500000000E-02 0.  1.
         -2   -1    0    0    0  501 -0.00000000000E+00 -0.00000000000E+00 -0.29164814897E+03  0.29164814898E+03  0.25500000000E-02 0. -1.
    5000001    1    1    2    0    0  0.14774893350E+03 -0.12006009367E+03 -0.51765566098E+02  0.27529592673E+03  0.19200000000E+03 0.  0.
   -5000001    1    1    2    0    0 -0.14774893350E+03  0.12006009367E+03  0.14541151184E+02  0.27077595632E+03  0.19200000000E+03 0.  0.
<mgrwt>
<rscale>  0 0.54480166E+03</rscale>
<asrwt>0</asrwt>
<pdfrwt beam="1">  1        2 0.36346248E-01 0.54480166E+03</pdfrwt>
<pdfrwt beam="2">  1       -2 0.41664021E-01 0.54480166E+03</pdfrwt>
<totfact> 0.78604741E+02</totfact>
</mgrwt>
</event>
<event>
 4    1  0.1896644E-005  0.5449309E+03  0.7818608E-02  0.1002674E+00
          2   -1    0    0  501    0  0.00000000000E+00  0.00000000000E+00  0.29206674600E+04  0.29206674600E+04  0.25500000000E-02 0.  1.
         -2   -1    0    0    0  501 -0.00000000000E+00 -0.00000000000E+00 -0.25417964284E+02  0.25417964412E+02  0.25500000000E-02 0. -1.
    5000001    1    1    2    0    0 -0.15506171692E+03 -0.11544775555E+03  0.14532976966E+04  0.14786177718E+04  0.19200000000E+03 0.  0.
   -5000001    1    1    2    0    0  0.15506171692E+03  0.11544775555E+03  0.14419517991E+04  0.14674676525E+04  0.19200000000E+03 0.  0.
<mgrwt>
<rscale>  0 0.54493090E+03</rscale>
<asrwt>0</asrwt>
<pdfrwt beam="1">  1        2 0.41723807E+00 0.54493090E+03</pdfrwt>
<pdfrwt beam="2">  1       -2 0.36311390E-02 0.54493090E+03</pdfrwt>
<totfact> 0.93981162E+02</totfact>
</mgrwt>
</event>
<event>
 4    1  0.1896644E-005  0.7165241E+03  0.7818608E-02  0.9689384E-01
         -2   -1    0    0    0  501 -0.00000000000E+00  0.00000000000E+00  0.15709172721E+03  0.15709172723E+03  0.25500000000E-02 0. -1.
          2   -1    0    0  501    0  0.00000000000E+00 -0.00000000000E+00 -0.81704947999E+03  0.81704948000E+03  0.25500000000E-02 0.  1.
    5000001    1    1    2    0    0  0.19798284368E+03  0.22794661618E+03 -0.30524995243E+03  0.47031733933E+03  0.19200000000E+03 0.  0.
   -5000001    1    1    2    0    0 -0.19798284368E+03 -0.22794661618E+03 -0.35470780036E+03  0.50382386789E+03  0.19200000000E+03 0.  0.
<mgrwt>
<rscale>  0 0.71652415E+03</rscale>
<asrwt>0</asrwt>
<pdfrwt beam="1">  1        2 0.11672135E+00 0.71652415E+03</pdfrwt>
<pdfrwt beam="2">  1       -2 0.22441676E-01 0.71652415E+03</pdfrwt>
<totfact> 0.64581515E+02</totfact>
</mgrwt>
</event>
<event>
 4    1  0.1896644E-005  0.7348537E+03  0.7818608E-02  0.9659417E-01
          2   -1    0    0  501    0  0.00000000000E+00  0.00000000000E+00  0.43225081004E+03  0.43225081005E+03  0.25500000000E-02 0.  1.
         -2   -1    0    0    0  501 -0.00000000000E+00 -0.00000000000E+00 -0.31232441537E+03  0.31232441538E+03  0.25500000000E-02 0. -1.
    5000001    1    1    2    0    0  0.18061494253E+03  0.11485673531E+03 -0.17180876330E+03  0.33495683044E+03  0.19200000000E+03 0.  0.
   -5000001    1    1    2    0    0 -0.18061494253E+03 -0.11485673531E+03  0.29173515798E+03  0.40961839499E+03  0.19200000000E+03 0.  0.
<mgrwt>
<rscale>  0 0.73485368E+03</rscale>
<asrwt>0</asrwt>
<pdfrwt beam="1">  1        2 0.61750116E-01 0.73485368E+03</pdfrwt>
<pdfrwt beam="2">  1       -2 0.44617773E-01 0.73485368E+03</pdfrwt>
<totfact> 0.38018451E+02</totfact>
</mgrwt>
</event>
<event>
 4    1  0.1896644E-005  0.6329817E+03  0.7818608E-02  0.9839247E-01
         -2   -1    0    0    0  501 -0.00000000000E+00  0.00000000000E+00  0.14877261606E+03  0.14877261608E+03  0.25500000000E-02 0.  1.
          2   -1    0    0  501    0  0.00000000000E+00 -0.00000000000E+00 -0.67328555234E+03  0.67328555234E+03  0.25500000000E-02 0. -1.
    5000001    1    1    2    0    0 -0.23089412935E+03  0.70183157984E+02 -0.16983191900E+03  0.35205774433E+03  0.19200000000E+03 0.  0.
   -5000001    1    1    2    0    0  0.23089412935E+03 -0.70183157984E+02 -0.35468101728E+03  0.47000042410E+03  0.19200000000E+03 0.  0.
<mgrwt>
<rscale>  0 0.63298168E+03</rscale>
<asrwt>0</asrwt>
<pdfrwt beam="1">  1        2 0.96183649E-01 0.63298168E+03</pdfrwt>
<pdfrwt beam="2">  1       -2 0.21253231E-01 0.63298168E+03</pdfrwt>
<totfact> 0.90762579E+02</totfact>
</mgrwt>
</event>
<event>
 4    1  0.1896644E-005  0.5055735E+03  0.7818608E-02  0.1012334E+00
         -2   -1    0    0    0  501 -0.00000000000E+00  0.00000000000E+00  0.17666196984E+03  0.17666196986E+03  0.25500000000E-02 0. -1.
          2   -1    0    0  501    0  0.00000000000E+00 -0.00000000000E+00 -0.36171420159E+03  0.36171420160E+03  0.25500000000E-02 0.  1.
    5000001    1    1    2    0    0 -0.74354981471E+02  0.11337900404E+03  0.65347168380E+01  0.23513860668E+03  0.19200000000E+03 0.  0.
   -5000001    1    1    2    0    0  0.74354981471E+02 -0.11337900404E+03 -0.19158694858E+03  0.30323756478E+03  0.19200000000E+03 0.  0.
<mgrwt>
<rscale>  0 0.50557351E+03</rscale>
<asrwt>0</asrwt>
<pdfrwt beam="1">  1        2 0.51673457E-01 0.50557351E+03</pdfrwt>
<pdfrwt beam="2">  1       -2 0.25237425E-01 0.50557351E+03</pdfrwt>
<totfact> 0.13611334E+03</totfact>
</mgrwt>
</event>
<event>
 4    1  0.1896644E-005  0.7785251E+03  0.7818608E-02  0.9591632E-01
         -2   -1    0    0    0  501 -0.00000000000E+00  0.00000000000E+00  0.18551843750E+03  0.18551843752E+03  0.25500000000E-02 0. -1.
          2   -1    0    0  501    0  0.00000000000E+00 -0.00000000000E+00 -0.81676691103E+03  0.81676691104E+03  0.25500000000E-02 0.  1.
    5000001    1    1    2    0    0 -0.23678906695E+03 -0.18586593822E+03 -0.11598715547E+03  0.37540941578E+03  0.19200000000E+03 0.  0.
   -5000001    1    1    2    0    0  0.23678906695E+03  0.18586593822E+03 -0.51526131805E+03  0.62687593278E+03  0.19200000000E+03 0.  0.
<mgrwt>
<rscale>  0 0.77852507E+03</rscale>
<asrwt>0</asrwt>
<pdfrwt beam="1">  1        2 0.11668099E+00 0.77852507E+03</pdfrwt>
<pdfrwt beam="2">  1       -2 0.26502634E-01 0.77852507E+03</pdfrwt>
<totfact> 0.47824951E+02</totfact>
</mgrwt>
</event>
<event>
 4    1  0.1896644E-005  0.4541516E+03  0.7818608E-02  0.1026491E+00
          2   -1    0    0  501    0  0.00000000000E+00  0.00000000000E+00  0.66358970955E+03  0.66358970956E+03  0.25500000000E-02 0.  1.
         -2   -1    0    0    0  501 -0.00000000000E+00 -0.00000000000E+00 -0.77703781564E+02  0.77703781605E+02  0.25500000000E-02 0. -1.
    5000001    1    1    2    0    0 -0.11696913381E+03 -0.18846212049E+02  0.25093099678E+03  0.33744232562E+03  0.19200000000E+03 0.  0.
   -5000001    1    1    2    0    0  0.11696913381E+03  0.18846212049E+02  0.33495493121E+03  0.40385116555E+03  0.19200000000E+03 0.  0.
<mgrwt>
<rscale>  0 0.45415165E+03</rscale>
<asrwt>0</asrwt>
<pdfrwt beam="1">  1        2 0.94798524E-01 0.45415165E+03</pdfrwt>
<pdfrwt beam="2">  1       -2 0.11100541E-01 0.45415165E+03</pdfrwt>
<totfact> 0.27621279E+03</totfact>
</mgrwt>
</event>
<event>
 4    1  0.1896644E-005  0.8175651E+03  0.7818608E-02  0.9534935E-01
         -2   -1    0    0    0  501 -0.00000000000E+00  0.00000000000E+00  0.10379298192E+03  0.10379298195E+03  0.25500000000E-02 0. -1.
          2   -1    0    0  501    0  0.00000000000E+00 -0.00000000000E+00 -0.16099661344E+04  0.16099661344E+04  0.25500000000E-02 0.  1.
    5000001    1    1    2    0    0  0.71178954426E+02 -0.32825963651E+03 -0.47643639055E+03  0.61373973862E+03  0.19200000000E+03 0.  0.
   -5000001    1    1    2    0    0 -0.71178954426E+02  0.32825963651E+03 -0.10297367619E+04  0.11000193777E+04  0.19200000000E+03 0.  0.
<mgrwt>
<rscale>  0 0.81756513E+03</rscale>
<asrwt>0</asrwt>
<pdfrwt beam="1">  1        2 0.22999515E+00 0.81756513E+03</pdfrwt>
<pdfrwt beam="2">  1       -2 0.14827570E-01 0.81756513E+03</pdfrwt>
<totfact> 0.46047145E+02</totfact>
</mgrwt>
</event>
<event>
 4    1  0.1896644E-005  0.6795432E+03  0.7818608E-02  0.9752870E-01
          2   -1    0    0  501    0  0.00000000000E+00  0.00000000000E+00  0.80725127563E+03  0.80725127563E+03  0.25500000000E-02 0.  1.
         -2   -1    0    0    0  501 -0.00000000000E+00 -0.00000000000E+00 -0.14300966429E+03  0.14300966432E+03  0.25500000000E-02 0. -1.
    5000001    1    1    2    0    0 -0.50041758942E+01  0.27993309874E+03  0.31268619411E+03  0.46154548805E+03  0.19200000000E+03 0.  0.
   -5000001    1    1    2    0    0  0.50041758942E+01 -0.27993309874E+03  0.35155541723E+03  0.48871545190E+03  0.19200000000E+03 0.  0.
<mgrwt>
<rscale>  0 0.67954318E+03</rscale>
<asrwt>0</asrwt>
<pdfrwt beam="1">  1        2 0.11532161E+00 0.67954318E+03</pdfrwt>
<pdfrwt beam="2">  1       -2 0.20429952E-01 0.67954318E+03</pdfrwt>
<totfact> 0.77482492E+02</totfact>
</mgrwt>
</event>
<event>
 4    1  0.1896644E-005  0.5400722E+03  0.7818608E-02  0.1003818E+00
         -2   -1    0    0    0  501 -0.00000000000E+00  0.00000000000E+00  0.21405743166E+03  0.21405743168E+03  0.25500000000E-02 0. -1.
          2   -1    0    0  501    0  0.00000000000E+00 -0.00000000000E+00 -0.34065390748E+03  0.34065390749E+03  0.25500000000E-02 0.  1.
    5000001    1    1    2    0    0  0.10718603710E+03  0.11339530761E+03 -0.17443544948E+03  0.30271945489E+03  0.19200000000E+03 0.  0.
   -5000001    1    1    2    0    0 -0.10718603710E+03 -0.11339530761E+03  0.47838973658E+02  0.25199188427E+03  0.19200000000E+03 0.  0.
<mgrwt>
<rscale>  0 0.54007222E+03</rscale>
<asrwt>0</asrwt>
<pdfrwt beam="1">  1        2 0.48664844E-01 0.54007222E+03</pdfrwt>
<pdfrwt beam="2">  1       -2 0.30579633E-01 0.54007222E+03</pdfrwt>
<totfact> 0.10252664E+03</totfact>
</mgrwt>
</event>
<event>
 4    1  0.1896644E-005  0.6170370E+03  0.7818608E-02  0.9870677E-01
          2   -1    0    0  501    0  0.00000000000E+00  0.00000000000E+00  0.76135260594E+03  0.76135260594E+03  0.25500000000E-02 0.  1.
         -2   -1    0    0    0  501 -0.00000000000E+00 -0.00000000000E+00 -0.12501916808E+03  0.12501916811E+03  0.25500000000E-02 0. -1.
    5000001    1    1    2    0    0 -0.12641540047E+03  0.37334675085E+02  0.27493641042E+02  0.23450934254E+03  0.19200000000E+03 0.  0.
   -5000001    1    1    2    0    0  0.12641540047E+03 -0.37334675085E+02  0.60883979681E+03  0.65186243152E+03  0.19200000000E+03 0.  0.
<mgrwt>
<rscale>  0 0.61703701E+03</rscale>
<asrwt>0</asrwt>
<pdfrwt beam="1">  1        2 0.10876466E+00 0.61703701E+03</pdfrwt>
<pdfrwt beam="2">  1       -2 0.17859881E-01 0.61703701E+03</pdfrwt>
<totfact> 0.10553497E+03</totfact>
</mgrwt>
</event>
<event>
 4    1  0.1896644E-005  0.5212948E+03  0.7818608E-02  0.1008365E+00
          2   -1    0    0  501    0  0.00000000000E+00  0.00000000000E+00  0.52370364469E+03  0.52370364470E+03  0.25500000000E-02 0.  1.
         -2   -1    0    0    0  501 -0.00000000000E+00 -0.00000000000E+00 -0.12972424055E+03  0.12972424057E+03  0.25500000000E-02 0. -1.
    5000001    1    1    2    0    0  0.13730224731E+03 -0.91715292969E+02  0.27435492028E+03  0.37336071614E+03  0.19200000000E+03 0.  0.
   -5000001    1    1    2    0    0 -0.13730224731E+03  0.91715292969E+02  0.11962448387E+03  0.28006716913E+03  0.19200000000E+03 0.  0.
<mgrwt>
<rscale>  0 0.52129476E+03</rscale>
<asrwt>0</asrwt>
<pdfrwt beam="1">  1        2 0.74814806E-01 0.52129476E+03</pdfrwt>
<pdfrwt beam="2">  1       -2 0.18532035E-01 0.52129476E+03</pdfrwt>
<totfact> 0.15483153E+03</totfact>
</mgrwt>
</event>
<event>
 4    1  0.1896644E-005  0.8836316E+03  0.7818608E-02  0.9446277E-01
          2   -1    0    0  501    0  0.00000000000E+00  0.00000000000E+00  0.14211530137E+04  0.14211530137E+04  0.25500000000E-02 0.  1.
         -2   -1    0    0    0  501 -0.00000000000E+00 -0.00000000000E+00 -0.13735409126E+03  0.13735409128E+03  0.25500000000E-02 0. -1.
    5000001    1    1    2    0    0  0.16539094922E+03  0.31339106085E+03  0.96117786750E+03  0.10422547750E+04  0.19200000000E+03 0.  0.
   -5000001    1    1    2    0    0 -0.16539094922E+03 -0.31339106085E+03  0.32262105497E+03  0.51625232999E+03  0.19200000000E+03 0.  0.
<mgrwt>
<rscale>  0 0.88363155E+03</rscale>
<asrwt>0</asrwt>
<pdfrwt beam="1">  1        2 0.20302184E+00 0.88363155E+03</pdfrwt>
<pdfrwt beam="2">  1       -2 0.19622015E-01 0.88363155E+03</pdfrwt>
<totfact> 0.35640039E+02</totfact>
</mgrwt>
</event>
<event>
 4    1  0.1896644E-005  0.1757083E+04  0.7818608E-02  0.8729461E-01
         -2   -1    0    0    0  501 -0.00000000000E+00  0.00000000000E+00  0.23269195984E+03  0.23269195985E+03  0.25500000000E-02 0. -1.
          2   -1    0    0  501    0  0.00000000000E+00 -0.00000000000E+00 -0.33169818953E+04  0.33169818953E+04  0.25500000000E-02 0.  1.
    5000001    1    1    2    0    0 -0.17633268790E+02 -0.85368507681E+03 -0.13872083294E+04  0.16402134287E+04  0.19200000000E+03 0.  0.
   -5000001    1    1    2    0    0  0.17633268790E+02  0.85368507681E+03 -0.16970816061E+04  0.19094604265E+04  0.19200000000E+03 0.  0.
<mgrwt>
<rscale>  0 0.17570828E+04</rscale>
<asrwt>0</asrwt>
<pdfrwt beam="1">  1        2 0.47385453E+00 0.17570828E+04</pdfrwt>
<pdfrwt beam="2">  1       -2 0.33241710E-01 0.17570828E+04</pdfrwt>
<totfact> 0.12492798E+01</totfact>
</mgrwt>
</event>
<event>
 4    1  0.1896644E-005  0.5524231E+03  0.7818608E-02  0.1000935E+00
          2   -1    0    0  501    0  0.00000000000E+00  0.00000000000E+00  0.69627696510E+03  0.69627696511E+03  0.25500000000E-02 0.  1.
         -2   -1    0    0    0  501 -0.00000000000E+00 -0.00000000000E+00 -0.10957252289E+03  0.10957252292E+03  0.25500000000E-02 0. -1.
    5000001    1    1    2    0    0 -0.15660008564E+02  0.11627757228E+03  0.52704041440E+03  0.57306309259E+03  0.19200000000E+03 0.  0.
   -5000001    1    1    2    0    0  0.15660008564E+02 -0.11627757228E+03  0.59664027815E+02  0.23278639543E+03  0.19200000000E+03 0.  0.
<mgrwt>
<rscale>  0 0.55242311E+03</rscale>
<asrwt>0</asrwt>
<pdfrwt beam="1">  1        2 0.99468145E-01 0.55242311E+03</pdfrwt>
<pdfrwt beam="2">  1       -2 0.15653216E-01 0.55242311E+03</pdfrwt>
<totfact> 0.14766295E+03</totfact>
</mgrwt>
</event>
<event>
 4    1  0.1896644E-005  0.4937298E+03  0.7818608E-02  0.1015429E+00
         -2   -1    0    0    0  501 -0.00000000000E+00  0.00000000000E+00  0.23113229894E+03  0.23113229895E+03  0.25500000000E-02 0. -1.
          2   -1    0    0  501    0  0.00000000000E+00 -0.00000000000E+00 -0.26366833448E+03  0.26366833449E+03  0.25500000000E-02 0.  1.
    5000001    1    1    2    0    0  0.67678405171E+02  0.13939824555E+03 -0.81244516776E+01  0.24686482962E+03  0.19200000000E+03 0.  0.
   -5000001    1    1    2    0    0 -0.67678405171E+02 -0.13939824555E+03 -0.24411583862E+02  0.24793580382E+03  0.19200000000E+03 0.  0.
<mgrwt>
<rscale>  0 0.49372976E+03</rscale>
<asrwt>0</asrwt>
<pdfrwt beam="1">  1        2 0.37666905E-01 0.49372976E+03</pdfrwt>
<pdfrwt beam="2">  1       -2 0.33018900E-01 0.49372976E+03</pdfrwt>
<totfact> 0.11782605E+03</totfact>
</mgrwt>
</event>
<event>
 4    1  0.1896644E-005  0.5720855E+03  0.7818608E-02  0.9965074E-01
          2   -1    0    0  501    0  0.00000000000E+00  0.00000000000E+00  0.38910873658E+04  0.38910873658E+04  0.25500000000E-02 0.  1.
         -2   -1    0    0    0  501 -0.00000000000E+00 -0.00000000000E+00 -0.21027655202E+02  0.21027655357E+02  0.25500000000E-02 0. -1.
    5000001    1    1    2    0    0  0.19769390129E+02  0.21025758301E+03  0.18057574056E+04  0.18281747421E+04  0.19200000000E+03 0.  0.
   -5000001    1    1    2    0    0 -0.19769390129E+02 -0.21025758301E+03  0.20643023051E+04  0.20839402791E+04  0.19200000000E+03 0.  0.
<mgrwt>
<rscale>  0 0.57208546E+03</rscale>
<asrwt>0</asrwt>
<pdfrwt beam="1">  1        2 0.55586997E+00 0.57208546E+03</pdfrwt>
<pdfrwt beam="2">  1       -2 0.30039489E-02 0.57208546E+03</pdfrwt>
<totfact> 0.33830072E+02</totfact>
</mgrwt>
</event>
<event>
 4    1  0.1896644E-005  0.5178566E+03  0.7818608E-02  0.1009220E+00
          2   -1    0    0  501    0  0.00000000000E+00  0.00000000000E+00  0.64601219508E+03  0.64601219509E+03  0.25500000000E-02 0.  1.
         -2   -1    0    0    0  501 -0.00000000000E+00 -0.00000000000E+00 -0.10378109772E+03  0.10378109775E+03  0.25500000000E-02 0. -1.
    5000001    1    1    2    0    0 -0.12256542686E+03 -0.55575419536E+00  0.92860250675E+02  0.24598702990E+03  0.19200000000E+03 0.  0.
   -5000001    1    1    2    0    0  0.12256542686E+03  0.55575419536E+00  0.44937084669E+03  0.50380626294E+03  0.19200000000E+03 0.  0.
<mgrwt>
<rscale>  0 0.51785656E+03</rscale>
<asrwt>0</asrwt>
<pdfrwt beam="1">  1        2 0.92287454E-01 0.51785656E+03</pdfrwt>
<pdfrwt beam="2">  1       -2 0.14825871E-01 0.51785656E+03</pdfrwt>
<totfact> 0.17708008E+03</totfact>
</mgrwt>
</event>
<event>
 4    1  0.1896644E-005  0.8014213E+03  0.7818608E-02  0.9557962E-01
          2   -1    0    0  501    0  0.00000000000E+00  0.00000000000E+00  0.16849394778E+04  0.16849394779E+04  0.25500000000E-02 0.  1.
         -2   -1    0    0    0  501 -0.00000000000E+00 -0.00000000000E+00 -0.95296615349E+02  0.95296615384E+02  0.25500000000E-02 0. -1.
    5000001    1    1    2    0    0  0.23070060886E+03 -0.26290564233E+03  0.71281540153E+03  0.81689163562E+03  0.19200000000E+03 0.  0.
   -5000001    1    1    2    0    0 -0.23070060886E+03  0.26290564233E+03  0.87682746097E+03  0.96334445761E+03  0.19200000000E+03 0.  0.
<mgrwt>
<rscale>  0 0.80142131E+03</rscale>
<asrwt>0</asrwt>
<pdfrwt beam="1">  1        2 0.24070566E+00 0.80142131E+03</pdfrwt>
<pdfrwt beam="2">  1       -2 0.13613801E-01 0.80142131E+03</pdfrwt>
<totfact> 0.48675419E+02</totfact>
</mgrwt>
</event>
<event>
 4    1  0.1896644E-005  0.6066207E+03  0.7818608E-02  0.9891765E-01
          2   -1    0    0  501    0  0.00000000000E+00  0.00000000000E+00  0.18575821977E+03  0.18575821978E+03  0.25500000000E-02 0.  1.
         -2   -1    0    0    0  501 -0.00000000000E+00 -0.00000000000E+00 -0.49525221879E+03  0.49525221880E+03  0.25500000000E-02 0. -1.
    5000001    1    1    2    0    0 -0.66573260528E+01  0.19690857937E+03 -0.11349509949E+02  0.27533637608E+03  0.19200000000E+03 0.  0.
   -5000001    1    1    2    0    0  0.66573260528E+01 -0.19690857937E+03 -0.29814448908E+03  0.40567406250E+03  0.19200000000E+03 0.  0.
<mgrwt>
<rscale>  0 0.60662071E+03</rscale>
<asrwt>0</asrwt>
<pdfrwt beam="1">  1        2 0.26536889E-01 0.60662071E+03</pdfrwt>
<pdfrwt beam="2">  1       -2 0.70750317E-01 0.60662071E+03</pdfrwt>
<totfact> 0.37521631E+02</totfact>
</mgrwt>
</event>
<event>
 4    1  0.1896644E-005  0.4742143E+03  0.7818608E-02  0.1020737E+00
          2   -1    0    0  501    0  0.00000000000E+00  0.00000000000E+00  0.50738739858E+03  0.50738739858E+03  0.25500000000E-02 0.  1.
         -2   -1    0    0    0  501 -0.00000000000E+00 -0.00000000000E+00 -0.11080249981E+03  0.11080249984E+03  0.25500000000E-02 0. -1.
    5000001    1    1    2    0    0  0.13658119558E+03  0.14393055254E+02  0.16931216331E+03  0.29050334193E+03  0.19200000000E+03 0.  0.
   -5000001    1    1    2    0    0 -0.13658119558E+03 -0.14393055254E+02  0.22727273546E+03  0.32768655649E+03  0.19200000000E+03 0.  0.
<mgrwt>
<rscale>  0 0.47421426E+03</rscale>
<asrwt>0</asrwt>
<pdfrwt beam="1">  1        2 0.72483913E-01 0.47421426E+03</pdfrwt>
<pdfrwt beam="2">  1       -2 0.15828929E-01 0.47421426E+03</pdfrwt>
<totfact> 0.20979882E+03</totfact>
</mgrwt>
</event>
<event>
 4    1  0.1896644E-005  0.8830868E+03  0.7818608E-02  0.9446974E-01
         -2   -1    0    0    0  501 -0.00000000000E+00  0.00000000000E+00  0.31852469387E+03  0.31852469388E+03  0.25500000000E-02 0. -1.
          2   -1    0    0  501    0  0.00000000000E+00 -0.00000000000E+00 -0.61207369163E+03  0.61207369163E+03  0.25500000000E-02 0.  1.
    5000001    1    1    2    0    0  0.26816050161E+03  0.29336416776E+03 -0.15850893485E+03  0.46900071639E+03  0.19200000000E+03 0.  0.
   -5000001    1    1    2    0    0 -0.26816050161E+03 -0.29336416776E+03 -0.13504006290E+03  0.46159766912E+03  0.19200000000E+03 0.  0.
<mgrwt>
<rscale>  0 0.88308683E+03</rscale>
<asrwt>0</asrwt>
<pdfrwt beam="1">  1        2 0.87439099E-01 0.88308683E+03</pdfrwt>
<pdfrwt beam="2">  1       -2 0.45503528E-01 0.88308683E+03</pdfrwt>
<totfact> 0.24337984E+02</totfact>
</mgrwt>
</event>
<event>
 4    1  0.1896644E-005  0.4695280E+03  0.7818608E-02  0.1022054E+00
          2   -1    0    0  501    0  0.00000000000E+00  0.00000000000E+00  0.48825836360E+03  0.48825836360E+03  0.25500000000E-02 0.  1.
         -2   -1    0    0    0  501 -0.00000000000E+00 -0.00000000000E+00 -0.11287903672E+03  0.11287903675E+03  0.25500000000E-02 0. -1.
    5000001    1    1    2    0    0  0.11298119710E+03 -0.71935480704E+02  0.16512330110E+03  0.28647716986E+03  0.19200000000E+03 0.  0.
   -5000001    1    1    2    0    0 -0.11298119710E+03  0.71935480704E+02  0.21025602577E+03  0.31466023049E+03  0.19200000000E+03 0.  0.
<mgrwt>
<rscale>  0 0.46952799E+03</rscale>
<asrwt>0</asrwt>
<pdfrwt beam="1">  1        2 0.69751197E-01 0.46952799E+03</pdfrwt>
<pdfrwt beam="2">  1       -2 0.16125576E-01 0.46952799E+03</pdfrwt>
<totfact> 0.21232654E+03</totfact>
</mgrwt>
</event>
<event>
 4    1  0.1896644E-005  0.5312272E+03  0.7818608E-02  0.1005935E+00
          2   -1    0    0  501    0  0.00000000000E+00  0.00000000000E+00  0.82463444397E+03  0.82463444397E+03  0.25500000000E-02 0.  1.
         -2   -1    0    0    0  501 -0.00000000000E+00 -0.00000000000E+00 -0.85553760196E+02  0.85553760234E+02  0.25500000000E-02 0. -1.
    5000001    1    1    2    0    0 -0.92010031193E+02 -0.15869588326E+03  0.35921051913E+03  0.44670619680E+03  0.19200000000E+03 0.  0.
   -5000001    1    1    2    0    0  0.92010031193E+02  0.15869588326E+03  0.37987016464E+03  0.46348200741E+03  0.19200000000E+03 0.  0.
<mgrwt>
<rscale>  0 0.53122717E+03</rscale>
<asrwt>0</asrwt>
<pdfrwt beam="1">  1        2 0.11780492E+00 0.53122717E+03</pdfrwt>
<pdfrwt beam="2">  1       -2 0.12221966E-01 0.53122717E+03</pdfrwt>
<totfact> 0.18049055E+03</totfact>
</mgrwt>
</event>
<event>
 4    1  0.1896644E-005  0.9918503E+03  0.7818608E-02  0.9317529E-01
          2   -1    0    0  501    0  0.00000000000E+00  0.00000000000E+00  0.73715937083E+03  0.73715937084E+03  0.25500000000E-02 0.  1.
         -2   -1    0    0    0  501 -0.00000000000E+00 -0.00000000000E+00 -0.33363443095E+03  0.33363443096E+03  0.25500000000E-02 0. -1.
    5000001    1    1    2    0    0 -0.33960959182E+03  0.17121753299E-01 -0.12878155940E+03  0.41083252694E+03  0.19200000000E+03 0.  0.
   -5000001    1    1    2    0    0  0.33960959182E+03 -0.17121753299E-01  0.53230649927E+03  0.65996127486E+03  0.19200000000E+03 0.  0.
<mgrwt>
<rscale>  0 0.99185029E+03</rscale>
<asrwt>0</asrwt>
<pdfrwt beam="1">  1        2 0.10530848E+00 0.99185029E+03</pdfrwt>
<pdfrwt beam="2">  1       -2 0.47662063E-01 0.99185029E+03</pdfrwt>
<totfact> 0.17570261E+02</totfact>
</mgrwt>
</event>
<event>
 4    1  0.1896644E-005  0.4646194E+03  0.7818608E-02  0.1023450E+00
          2   -1    0    0  501    0  0.00000000000E+00  0.00000000000E+00  0.31430283697E+03  0.31430283698E+03  0.25500000000E-02 0.  1.
         -2   -1    0    0    0  501 -0.00000000000E+00 -0.00000000000E+00 -0.17170639890E+03  0.17170639892E+03  0.25500000000E-02 0. -1.
    5000001    1    1    2    0    0 -0.11508639016E+03 -0.52259344274E+02  0.10642844169E+03  0.25331192129E+03  0.19200000000E+03 0.  0.
   -5000001    1    1    2    0    0  0.11508639016E+03  0.52259344274E+02  0.36167996376E+02  0.23269731461E+03  0.19200000000E+03 0.  0.
<mgrwt>
<rscale>  0 0.46461945E+03</rscale>
<asrwt>0</asrwt>
<pdfrwt beam="1">  1        2 0.44900405E-01 0.46461945E+03</pdfrwt>
<pdfrwt beam="2">  1       -2 0.24529486E-01 0.46461945E+03</pdfrwt>
<totfact> 0.16700917E+03</totfact>
</mgrwt>
</event>
<event>
 4    1  0.1896644E-005  0.8334505E+03  0.7818608E-02  0.9512822E-01
         -2   -1    0    0    0  501 -0.00000000000E+00  0.00000000000E+00  0.18531931837E+03  0.18531931839E+03  0.25500000000E-02 0.  1.
          2   -1    0    0  501    0  0.00000000000E+00 -0.00000000000E+00 -0.93708481800E+03  0.93708481800E+03  0.25500000000E-02 0. -1.
    5000001    1    1    2    0    0 -0.31431045336E+03  0.19255514759E+03 -0.41689342063E+03  0.58867025585E+03  0.19200000000E+03 0.  0.
   -5000001    1    1    2    0    0  0.31431045336E+03 -0.19255514759E+03 -0.33487207899E+03  0.53373388055E+03  0.19200000000E+03 0.  0.
<mgrwt>
<rscale>  0 0.83345047E+03</rscale>
<asrwt>0</asrwt>
<pdfrwt beam="1">  1        2 0.13386926E+00 0.83345047E+03</pdfrwt>
<pdfrwt beam="2">  1       -2 0.26474189E-01 0.83345047E+03</pdfrwt>
<totfact> 0.39800403E+02</totfact>
</mgrwt>
</event>
<event>
 4    1  0.1896644E-005  0.6901280E+03  0.7818608E-02  0.9734265E-01
          2   -1    0    0  501    0  0.00000000000E+00  0.00000000000E+00  0.80239673097E+03  0.80239673098E+03  0.25500000000E-02 0.  1.
         -2   -1    0    0    0  501 -0.00000000000E+00 -0.00000000000E+00 -0.14839186696E+03  0.14839186698E+03  0.25500000000E-02 0. -1.
    5000001    1    1    2    0    0 -0.11751277714E+03  0.18129761205E+03  0.67325092620E+02  0.29677389545E+03  0.19200000000E+03 0.  0.
   -5000001    1    1    2    0    0  0.11751277714E+03 -0.18129761205E+03  0.58667977140E+03  0.65401470250E+03  0.19200000000E+03 0.  0.
<mgrwt>
<rscale>  0 0.69012796E+03</rscale>
<asrwt>0</asrwt>
<pdfrwt beam="1">  1        2 0.11462810E+00 0.69012796E+03</pdfrwt>
<pdfrwt beam="2">  1       -2 0.21198838E-01 0.69012796E+03</pdfrwt>
<totfact> 0.73162672E+02</totfact>
</mgrwt>
</event>
<event>
 4    1  0.1896644E-005  0.4923852E+03  0.7818608E-02  0.1015786E+00
          2   -1    0    0  501    0  0.00000000000E+00  0.00000000000E+00  0.15704822727E+04  0.15704822727E+04  0.25500000000E-02 0.  1.
         -2   -1    0    0    0  501 -0.00000000000E+00 -0.00000000000E+00 -0.38593754069E+02  0.38593754153E+02  0.25500000000E-02 0. -1.
    5000001    1    1    2    0    0  0.14589776381E+03 -0.48200150358E+02  0.72763916711E+03  0.76807041962E+03  0.19200000000E+03 0.  0.
   -5000001    1    1    2    0    0 -0.14589776381E+03  0.48200150358E+02  0.80424935150E+03  0.84100560722E+03  0.19200000000E+03 0.  0.
<mgrwt>
<rscale>  0 0.49238524E+03</rscale>
<asrwt>0</asrwt>
<pdfrwt beam="1">  1        2 0.22435456E+00 0.49238524E+03</pdfrwt>
<pdfrwt beam="2">  1       -2 0.55133946E-02 0.49238524E+03</pdfrwt>
<totfact> 0.24149934E+03</totfact>
</mgrwt>
</event>
<event>
 4    1  0.1896644E-005  0.5535836E+03  0.7818608E-02  0.1000668E+00
          2   -1    0    0  501    0  0.00000000000E+00  0.00000000000E+00  0.37867258274E+03  0.37867258275E+03  0.25500000000E-02 0.  1.
         -2   -1    0    0    0  501 -0.00000000000E+00 -0.00000000000E+00 -0.20232178662E+03  0.20232178664E+03  0.25500000000E-02 0. -1.
    5000001    1    1    2    0    0 -0.17786035914E+03  0.39846681827E+02  0.33810241903E+01  0.26475931850E+03  0.19200000000E+03 0.  0.
   -5000001    1    1    2    0    0  0.17786035914E+03 -0.39846681827E+02  0.17296977193E+03  0.31623505089E+03  0.19200000000E+03 0.  0.
<mgrwt>
<rscale>  0 0.55358365E+03</rscale>
<asrwt>0</asrwt>
<pdfrwt beam="1">  1        2 0.54096082E-01 0.55358365E+03</pdfrwt>
<pdfrwt beam="2">  1       -2 0.28903113E-01 0.55358365E+03</pdfrwt>
<totfact> 0.10120363E+03</totfact>
</mgrwt>
</event>
<event>
 4    1  0.1896644E-005  0.9966298E+03  0.7818608E-02  0.9312249E-01
          2   -1    0    0  501    0  0.00000000000E+00  0.00000000000E+00  0.27984968224E+04  0.27984968224E+04  0.25500000000E-02 0.  1.
         -2   -1    0    0    0  501 -0.00000000000E+00 -0.00000000000E+00 -0.88732542817E+02  0.88732542854E+02  0.25500000000E-02 0. -1.
    5000001    1    1    2    0    0  0.14289221769E+03 -0.42192740509E+03  0.10244113353E+04  0.11334564416E+04  0.19200000000E+03 0.  0.
   -5000001    1    1    2    0    0 -0.14289221769E+03  0.42192740509E+03  0.16853529442E+04  0.17537729236E+04  0.19200000000E+03 0.  0.
<mgrwt>
<rscale>  0 0.99662980E+03</rscale>
<asrwt>0</asrwt>
<pdfrwt beam="1">  1        2 0.39978531E+00 0.99662980E+03</pdfrwt>
<pdfrwt beam="2">  1       -2 0.12676076E-01 0.99662980E+03</pdfrwt>
<totfact> 0.14406155E+02</totfact>
</mgrwt>
</event>
<event>
 4    1  0.1896644E-005  0.8798734E+03  0.7818608E-02  0.9451096E-01
          2   -1    0    0  501    0  0.00000000000E+00  0.00000000000E+00  0.28711509415E+04  0.28711509415E+04  0.25500000000E-02 0.  1.
         -2   -1    0    0    0  501 -0.00000000000E+00 -0.00000000000E+00 -0.67410001997E+02  0.67410002045E+02  0.25500000000E-02 0. -1.
    5000001    1    1    2    0    0  0.35116283104E+03 -0.12729587729E+03  0.18393746755E+04  0.18867121591E+04  0.19200000000E+03 0.  0.
   -5000001    1    1    2    0    0 -0.35116283104E+03  0.12729587729E+03  0.96436626401E+03  0.10518487845E+04  0.19200000000E+03 0.  0.
<mgrwt>
<rscale>  0 0.87987338E+03</rscale>
<asrwt>0</asrwt>
<pdfrwt beam="1">  1        2 0.41016427E+00 0.87987338E+03</pdfrwt>
<pdfrwt beam="2">  1       -2 0.96300038E-02 0.87987338E+03</pdfrwt>
<totfact> 0.20917779E+02</totfact>
</mgrwt>
</event>
<event>
 4    1  0.1896644E-005  0.6782372E+03  0.7818608E-02  0.9755191E-01
          2   -1    0    0  501    0  0.00000000000E+00  0.00000000000E+00  0.83136327104E+02  0.83136327143E+02  0.25500000000E-02 0.  1.
         -2   -1    0    0    0  501 -0.00000000000E+00 -0.00000000000E+00 -0.13832872986E+04  0.13832872986E+04  0.25500000000E-02 0. -1.
    5000001    1    1    2    0    0 -0.22898735038E+02 -0.27252038814E+03 -0.52501443412E+03  0.62233099718E+03  0.19200000000E+03 0.  0.
   -5000001    1    1    2    0    0  0.22898735038E+02  0.27252038814E+03 -0.77513653739E+03  0.84409262858E+03  0.19200000000E+03 0.  0.
<mgrwt>
<rscale>  0 0.67823720E+03</rscale>
<asrwt>0</asrwt>
<pdfrwt beam="1">  1        2 0.11876619E-01 0.67823720E+03</pdfrwt>
<pdfrwt beam="2">  1       -2 0.19761246E+00 0.67823720E+03</pdfrwt>
<totfact> 0.75341491E+01</totfact>
</mgrwt>
</event>
<event>
 4    1  0.1896644E-005  0.4355501E+03  0.7818608E-02  0.1032121E+00
         -2   -1    0    0    0  501 -0.00000000000E+00  0.00000000000E+00  0.17544970874E+03  0.17544970876E+03  0.25500000000E-02 0. -1.
          2   -1    0    0  501    0  0.00000000000E+00 -0.00000000000E+00 -0.27031094482E+03  0.27031094483E+03  0.25500000000E-02 0.  1.
    5000001    1    1    2    0    0  0.54501477839E+02  0.86253294669E+02 -0.34815481316E+02  0.22019573036E+03  0.19200000000E+03 0.  0.
   -5000001    1    1    2    0    0 -0.54501477839E+02 -0.86253294669E+02 -0.60045754769E+02  0.22556492323E+03  0.19200000000E+03 0.  0.
<mgrwt>
<rscale>  0 0.43555012E+03</rscale>
<asrwt>0</asrwt>
<pdfrwt beam="1">  1        2 0.38615849E-01 0.43555012E+03</pdfrwt>
<pdfrwt beam="2">  1       -2 0.25064244E-01 0.43555012E+03</pdfrwt>
<totfact> 0.18945455E+03</totfact>
</mgrwt>
</event>
<event>
 4    1  0.1896644E-005  0.7310988E+03  0.7818608E-02  0.9665479E-01
         -2   -1    0    0    0  501 -0.00000000000E+00  0.00000000000E+00  0.18792811688E+04  0.18792811688E+04  0.25500000000E-02 0. -1.
          2   -1    0    0  501    0  0.00000000000E+00 -0.00000000000E+00 -0.71105043526E+02  0.71105043572E+02  0.25500000000E-02 0.  1.
    5000001    1    1    2    0    0  0.21622149709E+03 -0.11448428243E+03  0.14165730605E+04  0.14503108710E+04  0.19200000000E+03 0.  0.
   -5000001    1    1    2    0    0 -0.21622149709E+03  0.11448428243E+03  0.39160306473E+03  0.50007534136E+03  0.19200000000E+03 0.  0.
<mgrwt>
<rscale>  0 0.73109882E+03</rscale>
<asrwt>0</asrwt>
<pdfrwt beam="1">  1        2 0.10157863E-01 0.73109882E+03</pdfrwt>
<pdfrwt beam="2">  1       -2 0.26846876E+00 0.73109882E+03</pdfrwt>
<totfact> 0.33382157E+01</totfact>
</mgrwt>
</event>
<event>
 4    1  0.1896644E-005  0.4921667E+03  0.7818608E-02  0.1015844E+00
          2   -1    0    0  501    0  0.00000000000E+00  0.00000000000E+00  0.66513165699E+03  0.66513165699E+03  0.25500000000E-02 0.  1.
         -2   -1    0    0    0  501 -0.00000000000E+00 -0.00000000000E+00 -0.91045165931E+02  0.91045165967E+02  0.25500000000E-02 0. -1.
    5000001    1    1    2    0    0  0.50758381798E+02 -0.14501734324E+03  0.27274715752E+03  0.36723487729E+03  0.19200000000E+03 0.  0.
   -5000001    1    1    2    0    0 -0.50758381798E+02  0.14501734324E+03  0.30133933354E+03  0.38894194567E+03  0.19200000000E+03 0.  0.
<mgrwt>
<rscale>  0 0.49216673E+03</rscale>
<asrwt>0</asrwt>
<pdfrwt beam="1">  1        2 0.95018808E-01 0.49216673E+03</pdfrwt>
<pdfrwt beam="2">  1       -2 0.13006452E-01 0.49216673E+03</pdfrwt>
<totfact> 0.21261601E+03</totfact>
</mgrwt>
</event>
<event>
 4    1  0.1896644E-005  0.5051602E+03  0.7818608E-02  0.1012441E+00
          2   -1    0    0  501    0  0.00000000000E+00  0.00000000000E+00  0.15402953133E+03  0.15402953135E+03  0.25500000000E-02 0.  1.
         -2   -1    0    0    0  501 -0.00000000000E+00 -0.00000000000E+00 -0.41418493128E+03  0.41418493129E+03  0.25500000000E-02 0. -1.
    5000001    1    1    2    0    0  0.14692889967E+03 -0.14397907784E+02 -0.49456174560E+02  0.24719489175E+03  0.19200000000E+03 0.  0.
   -5000001    1    1    2    0    0 -0.14692889967E+03  0.14397907784E+02 -0.21069922539E+03  0.32101957088E+03  0.19200000000E+03 0.  0.
<mgrwt>
<rscale>  0 0.50516022E+03</rscale>
<asrwt>0</asrwt>
<pdfrwt beam="1">  1        2 0.22004219E-01 0.50516022E+03</pdfrwt>
<pdfrwt beam="2">  1       -2 0.59169275E-01 0.50516022E+03</pdfrwt>
<totfact> 0.68179421E+02</totfact>
</mgrwt>
</event>
<event>
 4    1  0.1896644E-005  0.6425863E+03  0.7818608E-02  0.9820791E-01
         -2   -1    0    0    0  501 -0.00000000000E+00  0.00000000000E+00  0.54483777989E+02  0.54483778049E+02  0.25500000000E-02 0. -1.
          2   -1    0    0  501    0  0.00000000000E+00 -0.00000000000E+00 -0.18946791373E+04  0.18946791373E+04  0.25500000000E-02 0.  1.
    5000001    1    1    2    0    0 -0.57571264732E+02  0.23460342873E+03 -0.11916095047E+04  0.12309144695E+04  0.19200000000E+03 0.  0.
   -5000001    1    1    2    0    0  0.57571264732E+02 -0.23460342873E+03 -0.64858585454E+03  0.71824844588E+03  0.19200000000E+03 0.  0.
<mgrwt>
<rscale>  0 0.64258627E+03</rscale>
<asrwt>0</asrwt>
<pdfrwt beam="1">  1        2 0.27066841E+00 0.64258627E+03</pdfrwt>
<pdfrwt beam="2">  1       -2 0.77833981E-02 0.64258627E+03</pdfrwt>
<totfact> 0.95632549E+02</totfact>
</mgrwt>
</event>
<event>
 4    1  0.1896644E-005  0.6405361E+03  0.7818608E-02  0.9824701E-01
         -2   -1    0    0    0  501 -0.00000000000E+00  0.00000000000E+00  0.43323900573E+03  0.43323900574E+03  0.25500000000E-02 0.  1.
          2   -1    0    0  501    0  0.00000000000E+00 -0.00000000000E+00 -0.23675530669E+03  0.23675530670E+03  0.25500000000E-02 0. -1.
    5000001    1    1    2    0    0  0.21939415350E+03 -0.44725812990E+02 -0.32290985760E+02  0.29671686959E+03  0.19200000000E+03 0.  0.
   -5000001    1    1    2    0    0 -0.21939415350E+03  0.44725812990E+02  0.22877468481E+03  0.37327744285E+03  0.19200000000E+03 0.  0.
<mgrwt>
<rscale>  0 0.64053613E+03</rscale>
<asrwt>0</asrwt>
<pdfrwt beam="1">  1        2 0.33822186E-01 0.64053613E+03</pdfrwt>
<pdfrwt beam="2">  1       -2 0.61891287E-01 0.64053613E+03</pdfrwt>
<totfact> 0.38034072E+02</totfact>
</mgrwt>
</event>
<event>
 4    1  0.1896644E-005  0.5868273E+03  0.7818608E-02  0.9933118E-01
         -2   -1    0    0    0  501 -0.00000000000E+00  0.00000000000E+00  0.76979612103E+02  0.76979612145E+02  0.25500000000E-02 0. -1.
          2   -1    0    0  501    0  0.00000000000E+00 -0.00000000000E+00 -0.11183684468E+04  0.11183684468E+04  0.25500000000E-02 0.  1.
    5000001    1    1    2    0    0  0.13591090294E+03  0.16896507485E+03 -0.42500899009E+03  0.51431275671E+03  0.19200000000E+03 0.  0.
   -5000001    1    1    2    0    0 -0.13591090294E+03 -0.16896507485E+03 -0.61637984458E+03  0.68103530221E+03  0.19200000000E+03 0.  0.
<mgrwt>
<rscale>  0 0.58682730E+03</rscale>
<asrwt>0</asrwt>
<pdfrwt beam="1">  1        2 0.15976691E+00 0.58682730E+03</pdfrwt>
<pdfrwt beam="2">  1       -2 0.10997088E-01 0.58682730E+03</pdfrwt>
<totfact> 0.14093906E+03</totfact>
</mgrwt>
</event>
<event>
 4    1  0.1896644E-005  0.1350659E+04  0.7818608E-02  0.8990330E-01
         -2   -1    0    0    0  501 -0.00000000000E+00  0.00000000000E+00  0.45044929855E+03  0.45044929855E+03  0.25500000000E-02 0. -1.
          2   -1    0    0  501    0  0.00000000000E+00 -0.00000000000E+00 -0.10124773974E+04  0.10124773974E+04  0.25500000000E-02 0.  1.
    5000001    1    1    2    0    0  0.36538308238E+03 -0.33134141973E+03 -0.73529748218E+03  0.90599024312E+03  0.19200000000E+03 0.  0.
   -5000001    1    1    2    0    0 -0.36538308238E+03  0.33134141973E+03  0.17326938332E+03  0.55693645285E+03  0.19200000000E+03 0.  0.
<mgrwt>
<rscale>  0 0.13506587E+04</rscale>
<asrwt>0</asrwt>
<pdfrwt beam="1">  1        2 0.14463963E+00 0.13506587E+04</pdfrwt>
<pdfrwt beam="2">  1       -2 0.64349900E-01 0.13506587E+04</pdfrwt>
<totfact> 0.60195521E+01</totfact>
</mgrwt>
</event>
<event>
 4    1  0.1896644E-005  0.5337379E+03  0.7818608E-02  0.1005330E+00
         -2   -1    0    0    0  501 -0.00000000000E+00  0.00000000000E+00  0.39684205682E+02  0.39684205764E+02  0.25500000000E-02 0.  1.
          2   -1    0    0  501    0  0.00000000000E+00 -0.00000000000E+00 -0.17946442160E+04  0.17946442160E+04  0.25500000000E-02 0. -1.
    5000001    1    1    2    0    0 -0.84671996459E+02 -0.11576407097E+03 -0.12809789699E+04  0.13032044308E+04  0.19200000000E+03 0.  0.
   -5000001    1    1    2    0    0  0.84671996459E+02  0.11576407097E+03 -0.47398104043E+03  0.53112399098E+03  0.19200000000E+03 0.  0.
<mgrwt>
<rscale>  0 0.53373788E+03</rscale>
<asrwt>0</asrwt>
<pdfrwt beam="1">  1        2 0.25637769E+00 0.53373788E+03</pdfrwt>
<pdfrwt beam="2">  1       -2 0.56691734E-02 0.53373788E+03</pdfrwt>
<totfact> 0.17780638E+03</totfact>
</mgrwt>
</event>
<event>
 4    1  0.1896644E-005  0.4433721E+03  0.7818608E-02  0.1029717E+00
         -2   -1    0    0    0  501 -0.00000000000E+00  0.00000000000E+00  0.15687298499E+03  0.15687298501E+03  0.25500000000E-02 0. -1.
          2   -1    0    0  501    0  0.00000000000E+00 -0.00000000000E+00 -0.31327701344E+03  0.31327701345E+03  0.25500000000E-02 0.  1.
    5000001    1    1    2    0    0  0.11486052794E+02 -0.99058174129E+02 -0.12945600178E+03  0.25212557916E+03  0.19200000000E+03 0.  0.
   -5000001    1    1    2    0    0 -0.11486052794E+02  0.99058174129E+02 -0.26948026673E+02  0.21802441930E+03  0.19200000000E+03 0.  0.
<mgrwt>
<rscale>  0 0.44337208E+03</rscale>
<asrwt>0</asrwt>
<pdfrwt beam="1">  1        2 0.44753859E-01 0.44337208E+03</pdfrwt>
<pdfrwt beam="2">  1       -2 0.22410427E-01 0.44337208E+03</pdfrwt>
<totfact> 0.19656577E+03</totfact>
</mgrwt>
</event>
<event>
 4    1  0.1896644E-005  0.4721432E+03  0.7818608E-02  0.1021317E+00
          2   -1    0    0  501    0  0.00000000000E+00  0.00000000000E+00  0.39056409381E+03  0.39056409382E+03  0.25500000000E-02 0.  1.
         -2   -1    0    0    0  501 -0.00000000000E+00 -0.00000000000E+00 -0.14269052105E+03  0.14269052108E+03  0.25500000000E-02 0. -1.
    5000001    1    1    2    0    0 -0.40163735440E+02 -0.94541172898E+02  0.20949763587E+02  0.21875568932E+03  0.19200000000E+03 0.  0.
   -5000001    1    1    2    0    0  0.40163735440E+02  0.94541172898E+02  0.22692380917E+03  0.31449892557E+03  0.19200000000E+03 0.  0.
<mgrwt>
<rscale>  0 0.47214317E+03</rscale>
<asrwt>0</asrwt>
<pdfrwt beam="1">  1        2 0.55794870E-01 0.47214317E+03</pdfrwt>
<pdfrwt beam="2">  1       -2 0.20384361E-01 0.47214317E+03</pdfrwt>
<totfact> 0.18222377E+03</totfact>
</mgrwt>
</event>
<event>
 4    1  0.1896644E-005  0.5149398E+03  0.7818608E-02  0.1009951E+00
         -2   -1    0    0    0  501 -0.00000000000E+00  0.00000000000E+00  0.52946547984E+02  0.52946548045E+02  0.25500000000E-02 0. -1.
          2   -1    0    0  501    0  0.00000000000E+00 -0.00000000000E+00 -0.12520317880E+04  0.12520317880E+04  0.25500000000E-02 0.  1.
    5000001    1    1    2    0    0  0.14674881256E+03  0.84228802758E+02 -0.52799565506E+03  0.58674791603E+03  0.19200000000E+03 0.  0.
   -5000001    1    1    2    0    0 -0.14674881256E+03 -0.84228802758E+02 -0.67108958494E+03  0.71823042000E+03  0.19200000000E+03 0.  0.
<mgrwt>
<rscale>  0 0.51493985E+03</rscale>
<asrwt>0</asrwt>
<pdfrwt beam="1">  1        2 0.17886167E+00 0.51493985E+03</pdfrwt>
<pdfrwt beam="2">  1       -2 0.75637933E-02 0.51493985E+03</pdfrwt>
<totfact> 0.21658835E+03</totfact>
</mgrwt>
</event>
<event>
 4    1  0.1896644E-005  0.6424289E+03  0.7818608E-02  0.9821090E-01
         -2   -1    0    0    0  501 -0.00000000000E+00  0.00000000000E+00  0.36137877785E+02  0.36137877875E+02  0.25500000000E-02 0. -1.
          2   -1    0    0  501    0  0.00000000000E+00 -0.00000000000E+00 -0.28551407233E+04  0.28551407233E+04  0.25500000000E-02 0.  1.
    5000001    1    1    2    0    0 -0.86804921346E+01  0.25733842386E+03 -0.13913249638E+04  0.14279172141E+04  0.19200000000E+03 0.  0.
   -5000001    1    1    2    0    0  0.86804921346E+01 -0.25733842386E+03 -0.14276778817E+04  0.14633613871E+04  0.19200000000E+03 0.  0.
<mgrwt>
<rscale>  0 0.64242891E+03</rscale>
<asrwt>0</asrwt>
<pdfrwt beam="1">  1        2 0.40787710E+00 0.64242891E+03</pdfrwt>
<pdfrwt beam="2">  1       -2 0.51625558E-02 0.64242891E+03</pdfrwt>
<totfact> 0.58719929E+02</totfact>
</mgrwt>
</event>
<event>
 4    1  0.1896644E-005  0.7770131E+03  0.7818608E-02  0.9593899E-01
         -2   -1    0    0    0  501 -0.00000000000E+00  0.00000000000E+00  0.15389497357E+03  0.15389497360E+03  0.25500000000E-02 0. -1.
          2   -1    0    0  501    0  0.00000000000E+00 -0.00000000000E+00 -0.98078137689E+03  0.98078137689E+03  0.25500000000E-02 0.  1.
    5000001    1    1    2    0    0  0.13776780632E+03 -0.68000991588E+02  0.25788936226E+02  0.24725123366E+03  0.19200000000E+03 0.  0.
   -5000001    1    1    2    0    0 -0.13776780632E+03  0.68000991588E+02 -0.85267533954E+03  0.88742511683E+03  0.19200000000E+03 0.  0.
<mgrwt>
<rscale>  0 0.77701306E+03</rscale>
<asrwt>0</asrwt>
<pdfrwt beam="1">  1        2 0.14011162E+00 0.77701306E+03</pdfrwt>
<pdfrwt beam="2">  1       -2 0.21984997E-01 0.77701306E+03</pdfrwt>
<totfact> 0.52272204E+02</totfact>
</mgrwt>
</event>
<event>
 4    1  0.1896644E-005  0.5474799E+03  0.7818608E-02  0.1002079E+00
         -2   -1    0    0    0  501 -0.00000000000E+00  0.00000000000E+00  0.92341589672E+02  0.92341589707E+02  0.25500000000E-02 0. -1.
          2   -1    0    0  501    0  0.00000000000E+00 -0.00000000000E+00 -0.81148229269E+03  0.81148229270E+03  0.25500000000E-02 0.  1.
    5000001    1    1    2    0    0  0.47652877997E+02  0.10495880296E+03 -0.99681615260E+02  0.24512766372E+03  0.19200000000E+03 0.  0.
   -5000001    1    1    2    0    0 -0.47652877997E+02 -0.10495880296E+03 -0.61945908776E+03  0.65869621868E+03  0.19200000000E+03 0.  0.
<mgrwt>
<rscale>  0 0.54747992E+03</rscale>
<asrwt>0</asrwt>
<pdfrwt beam="1">  1        2 0.11592604E+00 0.54747992E+03</pdfrwt>
<pdfrwt beam="2">  1       -2 0.13191656E-01 0.54747992E+03</pdfrwt>
<totfact> 0.16241319E+03</totfact>
</mgrwt>
</event>
<event>
 4    1  0.1896644E-005  0.4910438E+03  0.7818608E-02  0.1016143E+00
         -2   -1    0    0    0  501 -0.00000000000E+00  0.00000000000E+00  0.33019709572E+02  0.33019709670E+02  0.25500000000E-02 0. -1.
          2   -1    0    0  501    0  0.00000000000E+00 -0.00000000000E+00 -0.18256069693E+04  0.18256069693E+04  0.25500000000E-02 0.  1.
    5000001    1    1    2    0    0 -0.64696831916E+01  0.10247116200E+03 -0.46681414639E+03  0.51509381972E+03  0.19200000000E+03 0.  0.
   -5000001    1    1    2    0    0  0.64696831916E+01 -0.10247116200E+03 -0.13257731133E+04  0.13435328592E+04  0.19200000000E+03 0.  0.
<mgrwt>
<rscale>  0 0.49104384E+03</rscale>
<asrwt>0</asrwt>
<pdfrwt beam="1">  1        2 0.26080093E+00 0.49104384E+03</pdfrwt>
<pdfrwt beam="2">  1       -2 0.47171025E-02 0.49104384E+03</pdfrwt>
<totfact> 0.22839447E+03</totfact>
</mgrwt>
</event>
<event>
 4    1  0.1896644E-005  0.1109905E+04  0.7818608E-02  0.9195591E-01
          2   -1    0    0  501    0  0.00000000000E+00  0.00000000000E+00  0.11452883505E+04  0.11452883505E+04  0.25500000000E-02 0.  1.
         -2   -1    0    0    0  501 -0.00000000000E+00 -0.00000000000E+00 -0.26890384576E+03  0.26890384578E+03  0.25500000000E-02 0. -1.
    5000001    1    1    2    0    0  0.31970877773E+03 -0.40737088524E+03  0.50732270189E+03  0.74993670703E+03  0.19200000000E+03 0.  0.
   -5000001    1    1    2    0    0 -0.31970877773E+03  0.40737088524E+03  0.36906180288E+03  0.66425548928E+03  0.19200000000E+03 0.  0.
<mgrwt>
<rscale>  0 0.11099053E+04</rscale>
<asrwt>0</asrwt>
<pdfrwt beam="1">  1        2 0.16361262E+00 0.11099053E+04</pdfrwt>
<pdfrwt beam="2">  1       -2 0.38414835E-01 0.11099053E+04</pdfrwt>
<totfact> 0.14575725E+02</totfact>
</mgrwt>
</event>
<event>
 4    1  0.1896644E-005  0.8232910E+03  0.7818608E-02  0.9526903E-01
         -2   -1    0    0    0  501 -0.00000000000E+00  0.00000000000E+00  0.60486877105E+02  0.60486877159E+02  0.25500000000E-02 0. -1.
          2   -1    0    0  501    0  0.00000000000E+00 -0.00000000000E+00 -0.28014674299E+04  0.28014674299E+04  0.25500000000E-02 0.  1.
    5000001    1    1    2    0    0  0.12557528475E+03 -0.33304452482E+03 -0.16375097969E+04  0.16867098573E+04  0.19200000000E+03 0.  0.
   -5000001    1    1    2    0    0 -0.12557528475E+03  0.33304452482E+03 -0.11034707559E+04  0.11752444498E+04  0.19200000000E+03 0.  0.
<mgrwt>
<rscale>  0 0.82329100E+03</rscale>
<asrwt>0</asrwt>
<pdfrwt beam="1">  1        2 0.40020955E+00 0.82329100E+03</pdfrwt>
<pdfrwt beam="2">  1       -2 0.86409842E-02 0.82329100E+03</pdfrwt>
<totfact> 0.27315795E+02</totfact>
</mgrwt>
</event>
<event>
 4    1  0.1896644E-005  0.5284035E+03  0.7818608E-02  0.1006620E+00
          2   -1    0    0  501    0  0.00000000000E+00  0.00000000000E+00  0.16865546667E+04  0.16865546668E+04  0.25500000000E-02 0.  1.
         -2   -1    0    0    0  501 -0.00000000000E+00 -0.00000000000E+00 -0.41387661389E+02  0.41387661467E+02  0.25500000000E-02 0. -1.
    5000001    1    1    2    0    0  0.16515958798E+03 -0.58553853976E+02  0.66807909778E+03  0.71686813585E+03  0.19200000000E+03 0.  0.
   -5000001    1    1    2    0    0 -0.16515958798E+03  0.58553853976E+02  0.97708790759E+03  0.10110741924E+04  0.19200000000E+03 0.  0.
<mgrwt>
<rscale>  0 0.52840346E+03</rscale>
<asrwt>0</asrwt>
<pdfrwt beam="1">  1        2 0.24093632E+00 0.52840346E+03</pdfrwt>
<pdfrwt beam="2">  1       -2 0.59125244E-02 0.52840346E+03</pdfrwt>
<totfact> 0.18886368E+03</totfact>
</mgrwt>
</event>
<event>
 4    1  0.1896644E-005  0.5461134E+03  0.7818608E-02  0.1002398E+00
          2   -1    0    0  501    0  0.00000000000E+00  0.00000000000E+00  0.79942173107E+03  0.79942173107E+03  0.25500000000E-02 0. -1.
         -2   -1    0    0    0  501 -0.00000000000E+00 -0.00000000000E+00 -0.93267355084E+02  0.93267355119E+02  0.25500000000E-02 0.  1.
    5000001    1    1    2    0    0  0.47884343393E+01 -0.19404464080E+03  0.36033217590E+03  0.45208354174E+03  0.19200000000E+03 0.  0.
   -5000001    1    1    2    0    0 -0.47884343393E+01  0.19404464080E+03  0.34582220008E+03  0.44060554445E+03  0.19200000000E+03 0.  0.
<mgrwt>
<rscale>  0 0.54611336E+03</rscale>
<asrwt>0</asrwt>
<pdfrwt beam="1">  1        2 0.11420311E+00 0.54611336E+03</pdfrwt>
<pdfrwt beam="2">  1       -2 0.13323907E-01 0.54611336E+03</pdfrwt>
<totfact> 0.16283145E+03</totfact>
</mgrwt>
</event>
<event>
 4    1  0.1896644E-005  0.4016640E+03  0.7818608E-02  0.1043205E+00
         -2   -1    0    0    0  501 -0.00000000000E+00  0.00000000000E+00  0.19275460167E+03  0.19275460169E+03  0.25500000000E-02 0. -1.
          2   -1    0    0  501    0  0.00000000000E+00 -0.00000000000E+00 -0.20924791088E+03  0.20924791090E+03  0.25500000000E-02 0.  1.
    5000001    1    1    2    0    0 -0.56606656366E+02 -0.97841740523E+01 -0.21275078676E+02  0.20153578486E+03  0.19200000000E+03 0.  0.
   -5000001    1    1    2    0    0  0.56606656366E+02  0.97841740523E+01  0.47817694664E+01  0.20046672773E+03  0.19200000000E+03 0.  0.
<mgrwt>
<rscale>  0 0.40166403E+03</rscale>
<asrwt>0</asrwt>
<pdfrwt beam="1">  1        2 0.29892558E-01 0.40166403E+03</pdfrwt>
<pdfrwt beam="2">  1       -2 0.27536372E-01 0.40166403E+03</pdfrwt>
<totfact> 0.21205427E+03</totfact>
</mgrwt>
</event>
<event>
 4    1  0.1896644E-005  0.2148597E+04  0.7818608E-02  0.8540133E-01
         -2   -1    0    0    0  501 -0.00000000000E+00  0.00000000000E+00  0.63315300503E+03  0.63315300503E+03  0.25500000000E-02 0. -1.
          2   -1    0    0  501    0  0.00000000000E+00 -0.00000000000E+00 -0.18228101290E+04  0.18228101290E+04  0.25500000000E-02 0.  1.
    5000001    1    1    2    0    0  0.79276748221E+03 -0.33910931616E+03  0.10400513515E+03  0.88946977312E+03  0.19200000000E+03 0.  0.
   -5000001    1    1    2    0    0 -0.79276748221E+03  0.33910931616E+03 -0.12936622591E+04  0.15664933609E+04  0.19200000000E+03 0.  0.
<mgrwt>
<rscale>  0 0.21485974E+04</rscale>
<asrwt>0</asrwt>
<pdfrwt beam="1">  1        2 0.26040144E+00 0.21485974E+04</pdfrwt>
<pdfrwt beam="2">  1       -2 0.90450430E-01 0.21485974E+04</pdfrwt>
<totfact> 0.95408473E+00</totfact>
</mgrwt>
</event>
<event>
 4    1  0.1896644E-005  0.5876187E+03  0.7818608E-02  0.9931432E-01
          2   -1    0    0  501    0  0.00000000000E+00  0.00000000000E+00  0.44493144494E+03  0.44493144495E+03  0.25500000000E-02 0.  1.
         -2   -1    0    0    0  501 -0.00000000000E+00 -0.00000000000E+00 -0.19401623624E+03  0.19401623625E+03  0.25500000000E-02 0. -1.
    5000001    1    1    2    0    0  0.15947126546E+03  0.98915135398E+02  0.25523390503E+03  0.37043708615E+03  0.19200000000E+03 0.  0.
   -5000001    1    1    2    0    0 -0.15947126546E+03 -0.98915135398E+02 -0.43186963272E+01  0.26851059505E+03  0.19200000000E+03 0.  0.
<mgrwt>
<rscale>  0 0.58761867E+03</rscale>
<asrwt>0</asrwt>
<pdfrwt beam="1">  1        2 0.63561634E-01 0.58761867E+03</pdfrwt>
<pdfrwt beam="2">  1       -2 0.27716606E-01 0.58761867E+03</pdfrwt>
<totfact> 0.91301359E+02</totfact>
</mgrwt>
</event>
<event>
 4    1  0.1896644E-005  0.7371971E+03  0.7818608E-02  0.9655653E-01
         -2   -1    0    0    0  501 -0.00000000000E+00  0.00000000000E+00  0.10844807969E+03  0.10844807972E+03  0.25500000000E-02 0. -1.
          2   -1    0    0  501    0  0.00000000000E+00 -0.00000000000E+00 -0.12528103577E+04  0.12528103577E+04  0.25500000000E-02 0.  1.
    5000001    1    1    2    0    0  0.15368886231E+03  0.26290387791E+03 -0.42605795008E+03  0.55778857307E+03  0.19200000000E+03 0.  0.
   -5000001    1    1    2    0    0 -0.15368886231E+03 -0.26290387791E+03 -0.71830432795E+03  0.80346986439E+03  0.19200000000E+03 0.  0.
<mgrwt>
<rscale>  0 0.73719706E+03</rscale>
<asrwt>0</asrwt>
<pdfrwt beam="1">  1        2 0.17897290E+00 0.73719706E+03</pdfrwt>
<pdfrwt beam="2">  1       -2 0.15492584E-01 0.73719706E+03</pdfrwt>
<totfact> 0.66574503E+02</totfact>
</mgrwt>
</event>
<event>
 4    1  0.1896644E-005  0.1001193E+04  0.7818608E-02  0.9307238E-01
         -2   -1    0    0    0  501 -0.00000000000E+00  0.00000000000E+00  0.17146912177E+03  0.17146912179E+03  0.25500000000E-02 0. -1.
          2   -1    0    0  501    0  0.00000000000E+00 -0.00000000000E+00 -0.14614686487E+04  0.14614686487E+04  0.25500000000E-02 0.  1.
    5000001    1    1    2    0    0 -0.30097465098E+03 -0.16460082890E+03 -0.11504852447E+04  0.12157958182E+04  0.19200000000E+03 0.  0.
   -5000001    1    1    2    0    0  0.30097465098E+03  0.16460082890E+03 -0.13951428230E+03  0.41714195231E+03  0.19200000000E+03 0.  0.
<mgrwt>
<rscale>  0 0.10011928E+04</rscale>
<asrwt>0</asrwt>
<pdfrwt beam="1">  1        2 0.20878123E+00 0.10011928E+04</pdfrwt>
<pdfrwt beam="2">  1       -2 0.24495590E-01 0.10011928E+04</pdfrwt>
<totfact> 0.22722264E+02</totfact>
</mgrwt>
</event>
<event>
 4    1  0.1896644E-005  0.9267110E+03  0.7818608E-02  0.9392794E-01
          2   -1    0    0  501    0  0.00000000000E+00  0.00000000000E+00  0.21447988052E+04  0.21447988052E+04  0.25500000000E-02 0.  1.
         -2   -1    0    0    0  501 -0.00000000000E+00 -0.00000000000E+00 -0.10010184698E+03  0.10010184702E+03  0.25500000000E-02 0. -1.
    5000001    1    1    2    0    0  0.23445275471E+03 -0.22792145965E+03  0.37724236938E+03  0.53487577176E+03  0.19200000000E+03 0.  0.
   -5000001    1    1    2    0    0 -0.23445275471E+03  0.22792145965E+03  0.16674545888E+04  0.17100248805E+04  0.19200000000E+03 0.  0.
<mgrwt>
<rscale>  0 0.92671101E+03</rscale>
<asrwt>0</asrwt>
<pdfrwt beam="1">  1        2 0.30639979E+00 0.92671101E+03</pdfrwt>
<pdfrwt beam="2">  1       -2 0.14300266E-01 0.92671101E+03</pdfrwt>
<totfact> 0.25908201E+02</totfact>
</mgrwt>
</event>
<event>
 4    1  0.1896644E-005  0.6860247E+03  0.7818608E-02  0.9741435E-01
         -2   -1    0    0    0  501 -0.00000000000E+00  0.00000000000E+00  0.17354529884E+03  0.17354529886E+03  0.25500000000E-02 0. -1.
          2   -1    0    0  501    0  0.00000000000E+00 -0.00000000000E+00 -0.67796403640E+03  0.67796403641E+03  0.25500000000E-02 0.  1.
    5000001    1    1    2    0    0  0.27924138547E+03  0.64572440944E+01 -0.18681185066E+03  0.38701436008E+03  0.19200000000E+03 0.  0.
   -5000001    1    1    2    0    0 -0.27924138547E+03 -0.64572440944E+01 -0.31760688690E+03  0.46449497518E+03  0.19200000000E+03 0.  0.
<mgrwt>
<rscale>  0 0.68602470E+03</rscale>
<asrwt>0</asrwt>
<pdfrwt beam="1">  1        2 0.96852004E-01 0.68602470E+03</pdfrwt>
<pdfrwt beam="2">  1       -2 0.24792186E-01 0.68602470E+03</pdfrwt>
<totfact> 0.68369947E+02</totfact>
</mgrwt>
</event>
<event>
 4    1  0.1896644E-005  0.7396142E+03  0.7818608E-02  0.9651786E-01
          2   -1    0    0  501    0  0.00000000000E+00  0.00000000000E+00  0.76748916455E+03  0.76748916456E+03  0.25500000000E-02 0.  1.
         -2   -1    0    0    0  501 -0.00000000000E+00 -0.00000000000E+00 -0.17818793262E+03  0.17818793264E+03  0.25500000000E-02 0. -1.
    5000001    1    1    2    0    0  0.29173943012E+03  0.52266316450E+02  0.43500459327E+03  0.56030050784E+03  0.19200000000E+03 0.  0.
   -5000001    1    1    2    0    0 -0.29173943012E+03 -0.52266316450E+02  0.15429663867E+03  0.38537658936E+03  0.19200000000E+03 0.  0.
<mgrwt>
<rscale>  0 0.73961424E+03</rscale>
<asrwt>0</asrwt>
<pdfrwt beam="1">  1        2 0.10964131E+00 0.73961424E+03</pdfrwt>
<pdfrwt beam="2">  1       -2 0.25455419E-01 0.73961424E+03</pdfrwt>
<totfact> 0.55799997E+02</totfact>
</mgrwt>
</event>
<event>
 4    1  0.1896644E-005  0.4301698E+03  0.7818608E-02  0.1033806E+00
          2   -1    0    0  501    0  0.00000000000E+00  0.00000000000E+00  0.19707240373E+04  0.19707240373E+04  0.25500000000E-02 0.  1.
         -2   -1    0    0    0  501 -0.00000000000E+00 -0.00000000000E+00 -0.23474369461E+02  0.23474369599E+02  0.25500000000E-02 0. -1.
    5000001    1    1    2    0    0 -0.39083466505E+02 -0.48238970340E+01  0.56297420940E+03  0.59611638778E+03  0.19200000000E+03 0.  0.
   -5000001    1    1    2    0    0  0.39083466505E+02  0.48238970340E+01  0.13842754584E+04  0.13980820191E+04  0.19200000000E+03 0.  0.
<mgrwt>
<rscale>  0 0.43016975E+03</rscale>
<asrwt>0</asrwt>
<pdfrwt beam="1">  1        2 0.28153195E+00 0.43016975E+03</pdfrwt>
<pdfrwt beam="2">  1       -2 0.33534820E-02 0.43016975E+03</pdfrwt>
<totfact> 0.32607263E+03</totfact>
</mgrwt>
</event>
<event>
 4    1  0.1896644E-005  0.5460153E+03  0.7818608E-02  0.1002420E+00
         -2   -1    0    0    0  501 -0.00000000000E+00  0.00000000000E+00  0.17760018415E+02  0.17760018598E+02  0.25500000000E-02 0. -1.
          2   -1    0    0  501    0  0.00000000000E+00 -0.00000000000E+00 -0.41966833871E+04  0.41966833871E+04  0.25500000000E-02 0.  1.
    5000001    1    1    2    0    0  0.14121332760E+03  0.73726594660E+02 -0.29452237982E+04  0.29557713098E+04  0.19200000000E+03 0.  0.
   -5000001    1    1    2    0    0 -0.14121332760E+03 -0.73726594660E+02 -0.12336995705E+04  0.12586720958E+04  0.19200000000E+03 0.  0.
<mgrwt>
<rscale>  0 0.54601529E+03</rscale>
<asrwt>0</asrwt>
<pdfrwt beam="1">  1        2 0.59952557E+00 0.54601529E+03</pdfrwt>
<pdfrwt beam="2">  1       -2 0.25371482E-02 0.54601529E+03</pdfrwt>
<totfact> 0.27295037E+02</totfact>
</mgrwt>
</event>
<event>
 4    1  0.1896644E-005  0.6541157E+03  0.7818608E-02  0.9799087E-01
         -2   -1    0    0    0  501 -0.00000000000E+00  0.00000000000E+00  0.44852172461E+02  0.44852172533E+02  0.25500000000E-02 0. -1.
          2   -1    0    0  501    0  0.00000000000E+00 -0.00000000000E+00 -0.23848751435E+04  0.23848751435E+04  0.25500000000E-02 0.  1.
    5000001    1    1    2    0    0 -0.10013691449E+03  0.20157877054E+03 -0.65208625698E+03  0.71605997579E+03  0.19200000000E+03 0.  0.
   -5000001    1    1    2    0    0  0.10013691449E+03 -0.20157877054E+03 -0.16879367141E+04  0.17136673403E+04  0.19200000000E+03 0.  0.
<mgrwt>
<rscale>  0 0.65411568E+03</rscale>
<asrwt>0</asrwt>
<pdfrwt beam="1">  1        2 0.34069637E+00 0.65411568E+03</pdfrwt>
<pdfrwt beam="2">  1       -2 0.64074547E-02 0.65411568E+03</pdfrwt>
<totfact> 0.73530914E+02</totfact>
</mgrwt>
</event>
<event>
 4    1  0.1896644E-005  0.4903378E+03  0.7818608E-02  0.1016332E+00
          2   -1    0    0  501    0  0.00000000000E+00  0.00000000000E+00  0.20926258064E+04  0.20926258064E+04  0.25500000000E-02 0.  1.
         -2   -1    0    0    0  501 -0.00000000000E+00 -0.00000000000E+00 -0.28723616742E+02  0.28723616855E+02  0.25500000000E-02 0. -1.
    5000001    1    1    2    0    0  0.13885717651E+03  0.52857895934E+02  0.11798390898E+04  0.12045578236E+04  0.19200000000E+03 0.  0.
   -5000001    1    1    2    0    0 -0.13885717651E+03 -0.52857895934E+02  0.88406309991E+03  0.91679159969E+03  0.19200000000E+03 0.  0.
<mgrwt>
<rscale>  0 0.49033777E+03</rscale>
<asrwt>0</asrwt>
<pdfrwt beam="1">  1        2 0.29894663E+00 0.49033777E+03</pdfrwt>
<pdfrwt beam="2">  1       -2 0.41033727E-02 0.49033777E+03</pdfrwt>
<totfact> 0.20814460E+03</totfact>
</mgrwt>
</event>
<event>
 4    1  0.1896644E-005  0.4376708E+03  0.7818608E-02  0.1031464E+00
          2   -1    0    0  501    0  0.00000000000E+00  0.00000000000E+00  0.36451458199E+03  0.36451458200E+03  0.25500000000E-02 0.  1.
         -2   -1    0    0    0  501 -0.00000000000E+00 -0.00000000000E+00 -0.13137724512E+03  0.13137724514E+03  0.25500000000E-02 0. -1.
    5000001    1    1    2    0    0  0.33354689103E+02 -0.58308880007E+02  0.25133769704E+02  0.20495894016E+03  0.19200000000E+03 0.  0.
   -5000001    1    1    2    0    0 -0.33354689103E+02  0.58308880007E+02  0.20800356717E+03  0.29093288698E+03  0.19200000000E+03 0.  0.
<mgrwt>
<rscale>  0 0.43767075E+03</rscale>
<asrwt>0</asrwt>
<pdfrwt beam="1">  1        2 0.52073511E-01 0.43767075E+03</pdfrwt>
<pdfrwt beam="2">  1       -2 0.18768178E-01 0.43767075E+03</pdfrwt>
<totfact> 0.22655394E+03</totfact>
</mgrwt>
</event>
<event>
 4    1  0.1896644E-005  0.6717835E+03  0.7818608E-02  0.9766741E-01
         -2   -1    0    0    0  501 -0.00000000000E+00  0.00000000000E+00  0.30582018063E+04  0.30582018063E+04  0.25500000000E-02 0.  1.
          2   -1    0    0  501    0  0.00000000000E+00 -0.00000000000E+00 -0.36892022931E+02  0.36892023019E+02  0.25500000000E-02 0. -1.
    5000001    1    1    2    0    0  0.10089332859E+03  0.23874968566E+03  0.10789851707E+04  0.11261677826E+04  0.19200000000E+03 0.  0.
   -5000001    1    1    2    0    0 -0.10089332859E+03 -0.23874968566E+03  0.19423246127E+04  0.19689260466E+04  0.19200000000E+03 0.  0.
<mgrwt>
<rscale>  0 0.67178345E+03</rscale>
<asrwt>0</asrwt>
<pdfrwt beam="1">  1        2 0.52702879E-02 0.67178345E+03</pdfrwt>
<pdfrwt beam="2">  1       -2 0.43688606E+00 0.67178345E+03</pdfrwt>
<totfact> 0.70612090E+00</totfact>
</mgrwt>
</event>
<event>
 4    1  0.1896644E-005  0.4095992E+03  0.7818608E-02  0.1040506E+00
         -2   -1    0    0    0  501 -0.00000000000E+00  0.00000000000E+00  0.72161473707E+02  0.72161473752E+02  0.25500000000E-02 0. -1.
          2   -1    0    0  501    0  0.00000000000E+00 -0.00000000000E+00 -0.58123641367E+03  0.58123641368E+03  0.25500000000E-02 0.  1.
    5000001    1    1    2    0    0 -0.27226730700E+02 -0.52759617612E+02 -0.31742212808E+03  0.37569359791E+03  0.19200000000E+03 0.  0.
   -5000001    1    1    2    0    0  0.27226730700E+02  0.52759617612E+02 -0.19165281189E+03  0.27770428952E+03  0.19200000000E+03 0.  0.
<mgrwt>
<rscale>  0 0.40959920E+03</rscale>
<asrwt>0</asrwt>
<pdfrwt beam="1">  1        2 0.83033771E-01 0.40959920E+03</pdfrwt>
<pdfrwt beam="2">  1       -2 0.10308782E-01 0.40959920E+03</pdfrwt>
<totfact> 0.36318277E+03</totfact>
</mgrwt>
</event>
<event>
 4    1  0.1896644E-005  0.5912033E+03  0.7818608E-02  0.9923826E-01
         -2   -1    0    0    0  501 -0.00000000000E+00  0.00000000000E+00  0.81030302341E+02  0.81030302381E+02  0.25500000000E-02 0. -1.
          2   -1    0    0  501    0  0.00000000000E+00 -0.00000000000E+00 -0.10783662803E+04  0.10783662803E+04  0.25500000000E-02 0.  1.
    5000001    1    1    2    0    0  0.53063121044E+02  0.16523620458E+03 -0.21858599899E+03  0.33876619824E+03  0.19200000000E+03 0.  0.
   -5000001    1    1    2    0    0 -0.53063121044E+02 -0.16523620458E+03 -0.77874997894E+03  0.82063038441E+03  0.19200000000E+03 0.  0.
<mgrwt>
<rscale>  0 0.59120333E+03</rscale>
<asrwt>0</asrwt>
<pdfrwt beam="1">  1        2 0.15405232E+00 0.59120333E+03</pdfrwt>
<pdfrwt beam="2">  1       -2 0.11575758E-01 0.59120333E+03</pdfrwt>
<totfact> 0.13671495E+03</totfact>
</mgrwt>
</event>
<event>
 4    1  0.1896644E-005  0.5300295E+03  0.7818608E-02  0.1006225E+00
         -2   -1    0    0    0  501 -0.00000000000E+00  0.00000000000E+00  0.61598069861E+03  0.61598069861E+03  0.25500000000E-02 0. -1.
          2   -1    0    0  501    0  0.00000000000E+00 -0.00000000000E+00 -0.11401789853E+03  0.11401789856E+03  0.25500000000E-02 0.  1.
    5000001    1    1    2    0    0 -0.48466573604E+02 -0.17539410401E+03  0.22891378141E+03  0.34982512746E+03  0.19200000000E+03 0.  0.
   -5000001    1    1    2    0    0  0.48466573604E+02  0.17539410401E+03  0.27304901866E+03  0.38017346971E+03  0.19200000000E+03 0.  0.
<mgrwt>
<rscale>  0 0.53002953E+03</rscale>
<asrwt>0</asrwt>
<pdfrwt beam="1">  1        2 0.16288271E-01 0.53002953E+03</pdfrwt>
<pdfrwt beam="2">  1       -2 0.87997243E-01 0.53002953E+03</pdfrwt>
<totfact> 0.40800547E+02</totfact>
</mgrwt>
</event>
<event>
 4    1  0.1896644E-005  0.8851766E+03  0.7818608E-02  0.9444303E-01
          2   -1    0    0  501    0  0.00000000000E+00  0.00000000000E+00  0.19152767339E+04  0.19152767339E+04  0.25500000000E-02 0.  1.
         -2   -1    0    0    0  501 -0.00000000000E+00 -0.00000000000E+00 -0.10227472925E+03  0.10227472929E+03  0.25500000000E-02 0. -1.
    5000001    1    1    2    0    0 -0.21368131297E+03  0.24137025376E+03  0.14415269563E+04  0.14895580783E+04  0.19200000000E+03 0.  0.
   -5000001    1    1    2    0    0  0.21368131297E+03 -0.24137025376E+03  0.37147504828E+03  0.52799338481E+03  0.19200000000E+03 0.  0.
<mgrwt>
<rscale>  0 0.88517661E+03</rscale>
<asrwt>0</asrwt>
<pdfrwt beam="1">  1        2 0.27361094E+00 0.88517661E+03</pdfrwt>
<pdfrwt beam="2">  1       -2 0.14610677E-01 0.88517661E+03</pdfrwt>
<totfact> 0.32789024E+02</totfact>
</mgrwt>
</event>
<event>
 4    1  0.1896644E-005  0.4795629E+03  0.7818608E-02  0.1019255E+00
          2   -1    0    0  501    0  0.00000000000E+00  0.00000000000E+00  0.12712922247E+04  0.12712922247E+04  0.25500000000E-02 0. -1.
         -2   -1    0    0    0  501 -0.00000000000E+00 -0.00000000000E+00 -0.45225748256E+02  0.45225748328E+02  0.25500000000E-02 0.  1.
    5000001    1    1    2    0    0  0.95140130367E+02 -0.70881385850E+02  0.83530198334E+03  0.86525673568E+03  0.19200000000E+03 0.  0.
   -5000001    1    1    2    0    0 -0.95140130367E+02  0.70881385850E+02  0.39076449311E+03  0.45126123736E+03  0.19200000000E+03 0.  0.
<mgrwt>
<rscale>  0 0.47956289E+03</rscale>
<asrwt>0</asrwt>
<pdfrwt beam="1">  1        2 0.18161314E+00 0.47956289E+03</pdfrwt>
<pdfrwt beam="2">  1       -2 0.64608225E-02 0.47956289E+03</pdfrwt>
<totfact> 0.27100562E+03</totfact>
</mgrwt>
</event>
<event>
 4    1  0.1896644E-005  0.8034849E+03  0.7818608E-02  0.9554987E-01
          2   -1    0    0  501    0  0.00000000000E+00  0.00000000000E+00  0.23109279048E+04  0.23109279048E+04  0.25500000000E-02 0.  1.
         -2   -1    0    0    0  501 -0.00000000000E+00 -0.00000000000E+00 -0.69840770841E+02  0.69840770887E+02  0.25500000000E-02 0. -1.
    5000001    1    1    2    0    0 -0.23512445624E+03 -0.13281473130E+03  0.44740378173E+03  0.55673818503E+03  0.19200000000E+03 0.  0.
   -5000001    1    1    2    0    0  0.23512445624E+03  0.13281473130E+03  0.17936833522E+04  0.18240304906E+04  0.19200000000E+03 0.  0.
<mgrwt>
<rscale>  0 0.80348488E+03</rscale>
<asrwt>0</asrwt>
<pdfrwt beam="1">  1        2 0.33013248E+00 0.80348488E+03</pdfrwt>
<pdfrwt beam="2">  1       -2 0.99772554E-02 0.80348488E+03</pdfrwt>
<totfact> 0.39049507E+02</totfact>
</mgrwt>
</event>
<event>
 4    1  0.1896644E-005  0.4968482E+03  0.7818608E-02  0.1014605E+00
          2   -1    0    0  501    0  0.00000000000E+00  0.00000000000E+00  0.36242029380E+03  0.36242029381E+03  0.25500000000E-02 0.  1.
         -2   -1    0    0    0  501 -0.00000000000E+00 -0.00000000000E+00 -0.17028445471E+03  0.17028445473E+03  0.25500000000E-02 0. -1.
    5000001    1    1    2    0    0 -0.10383572251E+03 -0.25764958971E+02 -0.28066959180E+02  0.22157943175E+03  0.19200000000E+03 0.  0.
   -5000001    1    1    2    0    0  0.10383572251E+03  0.25764958971E+02  0.22020279827E+03  0.31112531678E+03  0.19200000000E+03 0.  0.
<mgrwt>
<rscale>  0 0.49684823E+03</rscale>
<asrwt>0</asrwt>
<pdfrwt beam="1">  1        2 0.51774327E-01 0.49684823E+03</pdfrwt>
<pdfrwt beam="2">  1       -2 0.24326351E-01 0.49684823E+03</pdfrwt>
<totfact> 0.14503610E+03</totfact>
</mgrwt>
</event>
<event>
 4    1  0.1896644E-005  0.4820504E+03  0.7818608E-02  0.1018573E+00
         -2   -1    0    0    0  501 -0.00000000000E+00  0.00000000000E+00  0.35638089530E+02  0.35638089621E+02  0.25500000000E-02 0. -1.
          2   -1    0    0  501    0  0.00000000000E+00 -0.00000000000E+00 -0.16300857209E+04  0.16300857209E+04  0.25500000000E-02 0.  1.
    5000001    1    1    2    0    0 -0.45432440133E+02  0.42241054594E+01 -0.31907497551E+03  0.37517301299E+03  0.19200000000E+03 0.  0.
   -5000001    1    1    2    0    0  0.45432440133E+02 -0.42241054594E+01 -0.12753726559E+04  0.12905507976E+04  0.19200000000E+03 0.  0.
<mgrwt>
<rscale>  0 0.48205037E+03</rscale>
<asrwt>0</asrwt>
<pdfrwt beam="1">  1        2 0.23286934E+00 0.48205037E+03</pdfrwt>
<pdfrwt beam="2">  1       -2 0.50911567E-02 0.48205037E+03</pdfrwt>
<totfact> 0.25479304E+03</totfact>
</mgrwt>
</event>
<event>
 4    1  0.1896644E-005  0.5871649E+03  0.7818608E-02  0.9932398E-01
          2   -1    0    0  501    0  0.00000000000E+00  0.00000000000E+00  0.28837895534E+04  0.28837895534E+04  0.25500000000E-02 0.  1.
         -2   -1    0    0    0  501 -0.00000000000E+00 -0.00000000000E+00 -0.29887986134E+02  0.29887986243E+02  0.25500000000E-02 0. -1.
    5000001    1    1    2    0    0 -0.13994203971E+03  0.62771413898E+02  0.22240519263E+04  0.22375868689E+04  0.19200000000E+03 0.  0.
   -5000001    1    1    2    0    0  0.13994203971E+03 -0.62771413898E+02  0.62984964101E+03  0.67609067081E+03  0.19200000000E+03 0.  0.
<mgrwt>
<rscale>  0 0.58716493E+03</rscale>
<asrwt>0</asrwt>
<pdfrwt beam="1">  1        2 0.41196977E+00 0.58716493E+03</pdfrwt>
<pdfrwt beam="2">  1       -2 0.42697141E-02 0.58716493E+03</pdfrwt>
<totfact> 0.76428116E+02</totfact>
</mgrwt>
</event>
<event>
 4    1  0.1896644E-005  0.6521952E+03  0.7818608E-02  0.9802669E-01
         -2   -1    0    0    0  501 -0.00000000000E+00  0.00000000000E+00  0.20386163404E+03  0.20386163406E+03  0.25500000000E-02 0. -1.
          2   -1    0    0  501    0  0.00000000000E+00 -0.00000000000E+00 -0.52162664844E+03  0.52162664844E+03  0.25500000000E-02 0.  1.
    5000001    1    1    2    0    0  0.83527615904E+01 -0.25610683064E+03 -0.22759101109E+03  0.39283857455E+03  0.19200000000E+03 0.  0.
   -5000001    1    1    2    0    0 -0.83527615904E+01  0.25610683064E+03 -0.90174003298E+02  0.33264970795E+03  0.19200000000E+03 0.  0.
<mgrwt>
<rscale>  0 0.65219525E+03</rscale>
<asrwt>0</asrwt>
<pdfrwt beam="1">  1        2 0.74518092E-01 0.65219525E+03</pdfrwt>
<pdfrwt beam="2">  1       -2 0.29123091E-01 0.65219525E+03</pdfrwt>
<totfact> 0.69557344E+02</totfact>
</mgrwt>
</event>
<event>
 4    1  0.1896644E-005  0.7886767E+03  0.7818608E-02  0.9576553E-01
         -2   -1    0    0    0  501 -0.00000000000E+00  0.00000000000E+00  0.64505310738E+02  0.64505310789E+02  0.25500000000E-02 0. -1.
          2   -1    0    0  501    0  0.00000000000E+00 -0.00000000000E+00 -0.24106964806E+04  0.24106964806E+04  0.25500000000E-02 0.  1.
    5000001    1    1    2    0    0  0.88829273729E+02  0.32699541335E+03 -0.97906874679E+03  0.10536869797E+04  0.19200000000E+03 0.  0.
   -5000001    1    1    2    0    0 -0.88829273729E+02 -0.32699541335E+03 -0.13671224231E+04  0.14215148117E+04  0.19200000000E+03 0.  0.
<mgrwt>
<rscale>  0 0.78867668E+03</rscale>
<asrwt>0</asrwt>
<pdfrwt beam="1">  1        2 0.34438516E+00 0.78867668E+03</pdfrwt>
<pdfrwt beam="2">  1       -2 0.92150459E-02 0.78867668E+03</pdfrwt>
<totfact> 0.39539668E+02</totfact>
</mgrwt>
</event>
<event>
 4    1  0.1896644E-005  0.6041196E+03  0.7818608E-02  0.9896896E-01
         -2   -1    0    0    0  501 -0.00000000000E+00  0.00000000000E+00  0.18550055229E+03  0.18550055231E+03  0.25500000000E-02 0. -1.
          2   -1    0    0  501    0  0.00000000000E+00 -0.00000000000E+00 -0.49185910505E+03  0.49185910505E+03  0.25500000000E-02 0.  1.
    5000001    1    1    2    0    0 -0.96257403552E+02 -0.20617524216E+03 -0.21037780399E+03  0.36454977525E+03  0.19200000000E+03 0.  0.
   -5000001    1    1    2    0    0  0.96257403552E+02  0.20617524216E+03 -0.95980748762E+02  0.31280988212E+03  0.19200000000E+03 0.  0.
<mgrwt>
<rscale>  0 0.60411964E+03</rscale>
<asrwt>0</asrwt>
<pdfrwt beam="1">  1        2 0.70265586E-01 0.60411964E+03</pdfrwt>
<pdfrwt beam="2">  1       -2 0.26500079E-01 0.60411964E+03</pdfrwt>
<totfact> 0.88451705E+02</totfact>
</mgrwt>
</event>
<event>
 4    1  0.1896644E-005  0.5686034E+03  0.7818608E-02  0.9972774E-01
          2   -1    0    0  501    0  0.00000000000E+00  0.00000000000E+00  0.16885344437E+04  0.16885344437E+04  0.25500000000E-02 0.  1.
         -2   -1    0    0    0  501 -0.00000000000E+00 -0.00000000000E+00 -0.47868402077E+02  0.47868402145E+02  0.25500000000E-02 0. -1.
    5000001    1    1    2    0    0  0.13960248372E+02  0.19201391563E+03  0.10739865185E+04  0.11078697010E+04  0.19200000000E+03 0.  0.
   -5000001    1    1    2    0    0 -0.13960248372E+02 -0.19201391563E+03  0.56667952312E+03  0.62853314492E+03  0.19200000000E+03 0.  0.
<mgrwt>
<rscale>  0 0.56860336E+03</rscale>
<asrwt>0</asrwt>
<pdfrwt beam="1">  1        2 0.24121921E+00 0.56860336E+03</pdfrwt>
<pdfrwt beam="2">  1       -2 0.68383432E-02 0.56860336E+03</pdfrwt>
<totfact> 0.14977612E+03</totfact>
</mgrwt>
</event>
<event>
 4    1  0.1896644E-005  0.4569158E+03  0.7818608E-02  0.1025680E+00
          2   -1    0    0  501    0  0.00000000000E+00  0.00000000000E+00  0.92495124885E+03  0.92495124885E+03  0.25500000000E-02 0.  1.
         -2   -1    0    0    0  501 -0.00000000000E+00 -0.00000000000E+00 -0.56427854838E+02  0.56427854896E+02  0.25500000000E-02 0. -1.
    5000001    1    1    2    0    0  0.70507122927E+02 -0.21951095474E+02  0.22081512838E+03  0.30178871069E+03  0.19200000000E+03 0.  0.
   -5000001    1    1    2    0    0 -0.70507122927E+02  0.21951095474E+02  0.64770826563E+03  0.67959039306E+03  0.19200000000E+03 0.  0.
<mgrwt>
<rscale>  0 0.45691581E+03</rscale>
<asrwt>0</asrwt>
<pdfrwt beam="1">  1        2 0.13213589E+00 0.45691581E+03</pdfrwt>
<pdfrwt beam="2">  1       -2 0.80611223E-02 0.45691581E+03</pdfrwt>
<totfact> 0.30373519E+03</totfact>
</mgrwt>
</event>
<event>
 4    1  0.1896644E-005  0.8584521E+03  0.7818608E-02  0.9479062E-01
          2   -1    0    0  501    0  0.00000000000E+00  0.00000000000E+00  0.30552358393E+04  0.30552358393E+04  0.25500000000E-02 0.  1.
         -2   -1    0    0    0  501 -0.00000000000E+00 -0.00000000000E+00 -0.60301404810E+02  0.60301404864E+02  0.25500000000E-02 0. -1.
    5000001    1    1    2    0    0  0.37728075293E+03 -0.13732390538E+02  0.17499980295E+04  0.18005239372E+04  0.19200000000E+03 0.  0.
   -5000001    1    1    2    0    0 -0.37728075293E+03  0.13732390538E+02  0.12449364049E+04  0.13150133069E+04  0.19200000000E+03 0.  0.
<mgrwt>
<rscale>  0 0.85845213E+03</rscale>
<asrwt>0</asrwt>
<pdfrwt beam="1">  1        2 0.43646221E+00 0.85845213E+03</pdfrwt>
<pdfrwt beam="2">  1       -2 0.86144873E-02 0.85845213E+03</pdfrwt>
<totfact> 0.19910471E+02</totfact>
</mgrwt>
</event>
<event>
 4    1  0.1896644E-005  0.9513320E+03  0.7818608E-02  0.9363595E-01
         -2   -1    0    0    0  501 -0.00000000000E+00  0.00000000000E+00  0.52879413992E+03  0.52879413993E+03  0.25500000000E-02 0. -1.
          2   -1    0    0  501    0  0.00000000000E+00 -0.00000000000E+00 -0.42787562536E+03  0.42787562537E+03  0.25500000000E-02 0.  1.
    5000001    1    1    2    0    0  0.12199675930E+03  0.96524266995E+02  0.45918036902E+03  0.52145062536E+03  0.19200000000E+03 0.  0.
   -5000001    1    1    2    0    0 -0.12199675930E+03 -0.96524266995E+02 -0.35826185446E+03  0.43521913993E+03  0.19200000000E+03 0.  0.
<mgrwt>
<rscale>  0 0.95133196E+03</rscale>
<asrwt>0</asrwt>
<pdfrwt beam="1">  1        2 0.61125090E-01 0.95133196E+03</pdfrwt>
<pdfrwt beam="2">  1       -2 0.75542020E-01 0.95133196E+03</pdfrwt>
<totfact> 0.12619370E+02</totfact>
</mgrwt>
</event>
<event>
 4    1  0.1896644E-005  0.5366256E+03  0.7818608E-02  0.1004638E+00
          2   -1    0    0  501    0  0.00000000000E+00  0.00000000000E+00  0.14284313360E+04  0.14284313360E+04  0.25500000000E-02 0.  1.
         -2   -1    0    0    0  501 -0.00000000000E+00 -0.00000000000E+00 -0.50399169687E+02  0.50399169751E+02  0.25500000000E-02 0. -1.
    5000001    1    1    2    0    0  0.14006416791E+03  0.56838392298E+02  0.99438983256E+03  0.10239744690E+04  0.19200000000E+03 0.  0.
   -5000001    1    1    2    0    0 -0.14006416791E+03 -0.56838392298E+02  0.38364233379E+03  0.45485603684E+03  0.19200000000E+03 0.  0.
<mgrwt>
<rscale>  0 0.53662558E+03</rscale>
<asrwt>0</asrwt>
<pdfrwt beam="1">  1        2 0.20406158E+00 0.53662558E+03</pdfrwt>
<pdfrwt beam="2">  1       -2 0.71998827E-02 0.53662558E+03</pdfrwt>
<totfact> 0.18825064E+03</totfact>
</mgrwt>
</event>
<event>
 4    1  0.1896644E-005  0.6960516E+03  0.7818608E-02  0.9724008E-01
          2   -1    0    0  501    0  0.00000000000E+00  0.00000000000E+00  0.17943595199E+04  0.17943595199E+04  0.25500000000E-02 0.  1.
         -2   -1    0    0    0  501 -0.00000000000E+00 -0.00000000000E+00 -0.67501502098E+02  0.67501502147E+02  0.25500000000E-02 0. -1.
    5000001    1    1    2    0    0  0.10616960711E+03 -0.22015782677E+03  0.44460156923E+03  0.54247212788E+03  0.19200000000E+03 0.  0.
   -5000001    1    1    2    0    0 -0.10616960711E+03  0.22015782677E+03  0.12822564486E+04  0.13193888942E+04  0.19200000000E+03 0.  0.
<mgrwt>
<rscale>  0 0.69605162E+03</rscale>
<asrwt>0</asrwt>
<pdfrwt beam="1">  1        2 0.25633708E+00 0.69605162E+03</pdfrwt>
<pdfrwt beam="2">  1       -2 0.96430716E-02 0.69605162E+03</pdfrwt>
<totfact> 0.75962700E+02</totfact>
</mgrwt>
</event>
<event>
 4    1  0.1896644E-005  0.4953388E+03  0.7818608E-02  0.1015003E+00
         -2   -1    0    0    0  501 -0.00000000000E+00  0.00000000000E+00  0.49217667368E+02  0.49217667434E+02  0.25500000000E-02 0.  1.
          2   -1    0    0  501    0  0.00000000000E+00 -0.00000000000E+00 -0.12463032638E+04  0.12463032638E+04  0.25500000000E-02 0. -1.
    5000001    1    1    2    0    0 -0.90852711447E+02 -0.12252757580E+03 -0.50760584629E+03  0.56373301943E+03  0.19200000000E+03 0.  0.
   -5000001    1    1    2    0    0  0.90852711447E+02  0.12252757580E+03 -0.68947975012E+03  0.73178791178E+03  0.19200000000E+03 0.  0.
<mgrwt>
<rscale>  0 0.49533883E+03</rscale>
<asrwt>0</asrwt>
<pdfrwt beam="1">  1        2 0.17804330E+00 0.49533883E+03</pdfrwt>
<pdfrwt beam="2">  1       -2 0.70310961E-02 0.49533883E+03</pdfrwt>
<totfact> 0.24486622E+03</totfact>
</mgrwt>
</event>
<event>
 4    1  0.1896644E-005  0.4552623E+03  0.7818608E-02  0.1026164E+00
          2   -1    0    0  501    0  0.00000000000E+00  0.00000000000E+00  0.64016021972E+03  0.64016021973E+03  0.25500000000E-02 0. -1.
         -2   -1    0    0    0  501 -0.00000000000E+00 -0.00000000000E+00 -0.80942133680E+02  0.80942133720E+02  0.25500000000E-02 0.  1.
    5000001    1    1    2    0    0  0.12062167842E+03 -0.20742793576E+01  0.24800811863E+03  0.33604451915E+03  0.19200000000E+03 0.  0.
   -5000001    1    1    2    0    0 -0.12062167842E+03  0.20742793576E+01  0.31120996741E+03  0.38505783430E+03  0.19200000000E+03 0.  0.
<mgrwt>
<rscale>  0 0.45526227E+03</rscale>
<asrwt>0</asrwt>
<pdfrwt beam="1">  1        2 0.91451458E-01 0.45526227E+03</pdfrwt>
<pdfrwt beam="2">  1       -2 0.11563162E-01 0.45526227E+03</pdfrwt>
<totfact> 0.26974053E+03</totfact>
</mgrwt>
</event>
<event>
 4    1  0.1896644E-005  0.7009594E+03  0.7818608E-02  0.9715593E-01
         -2   -1    0    0    0  501 -0.00000000000E+00  0.00000000000E+00  0.10668330780E+03  0.10668330783E+03  0.25500000000E-02 0. -1.
          2   -1    0    0  501    0  0.00000000000E+00 -0.00000000000E+00 -0.11514080318E+04  0.11514080318E+04  0.25500000000E-02 0.  1.
    5000001    1    1    2    0    0  0.20065664104E+03 -0.21330463135E+03 -0.49634907297E+03  0.60744411726E+03  0.19200000000E+03 0.  0.
   -5000001    1    1    2    0    0 -0.20065664104E+03  0.21330463135E+03 -0.54837565101E+03  0.65064722237E+03  0.19200000000E+03 0.  0.
<mgrwt>
<rscale>  0 0.70095939E+03</rscale>
<asrwt>0</asrwt>
<pdfrwt beam="1">  1        2 0.16448685E+00 0.70095939E+03</pdfrwt>
<pdfrwt beam="2">  1       -2 0.15240473E-01 0.70095939E+03</pdfrwt>
<totfact> 0.78190546E+02</totfact>
</mgrwt>
</event>
<event>
 4    1  0.1896644E-005  0.4330029E+03  0.7818608E-02  0.1032916E+00
          2   -1    0    0  501    0  0.00000000000E+00  0.00000000000E+00  0.15554874062E+04  0.15554874062E+04  0.25500000000E-02 0.  1.
         -2   -1    0    0    0  501 -0.00000000000E+00 -0.00000000000E+00 -0.30133886216E+02  0.30133886323E+02  0.25500000000E-02 0. -1.
    5000001    1    1    2    0    0 -0.83037467689E+02  0.33723273342E+02  0.59987986519E+03  0.63620148764E+03  0.19200000000E+03 0.  0.
   -5000001    1    1    2    0    0  0.83037467689E+02 -0.33723273342E+02  0.92547365479E+03  0.94941980489E+03  0.19200000000E+03 0.  0.
<mgrwt>
<rscale>  0 0.43300291E+03</rscale>
<asrwt>0</asrwt>
<pdfrwt beam="1">  1        2 0.22221259E+00 0.43300291E+03</pdfrwt>
<pdfrwt beam="2">  1       -2 0.43048389E-02 0.43300291E+03</pdfrwt>
<totfact> 0.36010264E+03</totfact>
</mgrwt>
</event>
<event>
 4    1  0.1896644E-005  0.4839961E+03  0.7818608E-02  0.1018043E+00
          2   -1    0    0  501    0  0.00000000000E+00  0.00000000000E+00  0.21770439189E+03  0.21770439190E+03  0.25500000000E-02 0.  1.
         -2   -1    0    0    0  501 -0.00000000000E+00 -0.00000000000E+00 -0.26900259122E+03  0.26900259123E+03  0.25500000000E-02 0. -1.
    5000001    1    1    2    0    0  0.93430597828E+02 -0.11098888530E+03 -0.51311368243E+02  0.24605825689E+03  0.19200000000E+03 0.  0.
   -5000001    1    1    2    0    0 -0.93430597828E+02  0.11098888530E+03  0.13168915478E-01  0.24064872625E+03  0.19200000000E+03 0.  0.
<mgrwt>
<rscale>  0 0.48399606E+03</rscale>
<asrwt>0</asrwt>
<pdfrwt beam="1">  1        2 0.31100627E-01 0.48399606E+03</pdfrwt>
<pdfrwt beam="2">  1       -2 0.38428942E-01 0.48399606E+03</pdfrwt>
<totfact> 0.10929454E+03</totfact>
</mgrwt>
</event>
<event>
 4    1  0.1896644E-005  0.9256102E+03  0.7818608E-02  0.9394122E-01
         -2   -1    0    0    0  501 -0.00000000000E+00  0.00000000000E+00  0.15285162870E+03  0.15285162872E+03  0.25500000000E-02 0. -1.
          2   -1    0    0  501    0  0.00000000000E+00 -0.00000000000E+00 -0.14012841239E+04  0.14012841239E+04  0.25500000000E-02 0.  1.
    5000001    1    1    2    0    0 -0.38140326632E+03  0.13922768399E+03 -0.43670612797E+03  0.62644157090E+03  0.19200000000E+03 0.  0.
   -5000001    1    1    2    0    0  0.38140326632E+03 -0.13922768399E+03 -0.81172636722E+03  0.92769418171E+03  0.19200000000E+03 0.  0.
<mgrwt>
<rscale>  0 0.92561020E+03</rscale>
<asrwt>0</asrwt>
<pdfrwt beam="1">  1        2 0.20018344E+00 0.92561020E+03</pdfrwt>
<pdfrwt beam="2">  1       -2 0.21835948E-01 0.92561020E+03</pdfrwt>
<totfact> 0.30188755E+02</totfact>
</mgrwt>
</event>
<event>
 4    1  0.1896644E-005  0.5269726E+03  0.7818608E-02  0.1006969E+00
         -2   -1    0    0    0  501 -0.00000000000E+00  0.00000000000E+00  0.52382545830E+03  0.52382545830E+03  0.25500000000E-02 0. -1.
          2   -1    0    0  501    0  0.00000000000E+00 -0.00000000000E+00 -0.13253468543E+03  0.13253468545E+03  0.25500000000E-02 0.  1.
    5000001    1    1    2    0    0  0.82176006065E+02 -0.13525141815E+03  0.30362068363E+03  0.39254982055E+03  0.19200000000E+03 0.  0.
   -5000001    1    1    2    0    0 -0.82176006065E+02  0.13525141815E+03  0.87670089234E+02  0.26381032321E+03  0.19200000000E+03 0.  0.
<mgrwt>
<rscale>  0 0.52697265E+03</rscale>
<asrwt>0</asrwt>
<pdfrwt beam="1">  1        2 0.18933527E-01 0.52697265E+03</pdfrwt>
<pdfrwt beam="2">  1       -2 0.74832207E-01 0.52697265E+03</pdfrwt>
<totfact> 0.49074295E+02</totfact>
</mgrwt>
</event>
<event>
 4    1  0.1896644E-005  0.5263445E+03  0.7818608E-02  0.1007123E+00
          2   -1    0    0  501    0  0.00000000000E+00  0.00000000000E+00  0.16404071589E+03  0.16404071591E+03  0.25500000000E-02 0.  1.
         -2   -1    0    0    0  501 -0.00000000000E+00 -0.00000000000E+00 -0.42220996342E+03  0.42220996343E+03  0.25500000000E-02 0. -1.
    5000001    1    1    2    0    0 -0.12314613193E+03 -0.86059371555E+02 -0.23948414399E+03  0.34174235977E+03  0.19200000000E+03 0.  0.
   -5000001    1    1    2    0    0  0.12314613193E+03  0.86059371555E+02 -0.18685103541E+02  0.24450831956E+03  0.19200000000E+03 0.  0.
<mgrwt>
<rscale>  0 0.52634447E+03</rscale>
<asrwt>0</asrwt>
<pdfrwt beam="1">  1        2 0.23434388E-01 0.52634447E+03</pdfrwt>
<pdfrwt beam="2">  1       -2 0.60315709E-01 0.52634447E+03</pdfrwt>
<totfact> 0.60907782E+02</totfact>
</mgrwt>
</event>
<event>
 4    1  0.1896644E-005  0.5151311E+03  0.7818608E-02  0.1009903E+00
         -2   -1    0    0    0  501 -0.00000000000E+00  0.00000000000E+00  0.81482621287E+02  0.81482621327E+02  0.25500000000E-02 0. -1.
          2   -1    0    0  501    0  0.00000000000E+00 -0.00000000000E+00 -0.81416158194E+03  0.81416158194E+03  0.25500000000E-02 0.  1.
    5000001    1    1    2    0    0  0.16392384391E+03  0.50897117432E+02 -0.37295482633E+03  0.45323376490E+03  0.19200000000E+03 0.  0.
   -5000001    1    1    2    0    0 -0.16392384391E+03 -0.50897117432E+02 -0.35972413432E+03  0.44241043836E+03  0.19200000000E+03 0.  0.
<mgrwt>
<rscale>  0 0.51513113E+03</rscale>
<asrwt>0</asrwt>
<pdfrwt beam="1">  1        2 0.11630879E+00 0.51513113E+03</pdfrwt>
<pdfrwt beam="2">  1       -2 0.11640375E-01 0.51513113E+03</pdfrwt>
<totfact> 0.19875754E+03</totfact>
</mgrwt>
</event>
<event>
 4    1  0.1896644E-005  0.7106927E+03  0.7818608E-02  0.9699119E-01
          2   -1    0    0  501    0  0.00000000000E+00  0.00000000000E+00  0.14631277811E+03  0.14631277813E+03  0.25500000000E-02 0.  1.
         -2   -1    0    0    0  501 -0.00000000000E+00 -0.00000000000E+00 -0.86302117896E+03  0.86302117896E+03  0.25500000000E-02 0. -1.
    5000001    1    1    2    0    0 -0.23363662531E+03  0.15750938263E+03 -0.50045875180E+03  0.60557265506E+03  0.19200000000E+03 0.  0.
   -5000001    1    1    2    0    0  0.23363662531E+03 -0.15750938263E+03 -0.21624964905E+03  0.40376130203E+03  0.19200000000E+03 0.  0.
<mgrwt>
<rscale>  0 0.71069269E+03</rscale>
<asrwt>0</asrwt>
<pdfrwt beam="1">  1        2 0.20901826E-01 0.71069269E+03</pdfrwt>
<pdfrwt beam="2">  1       -2 0.12328874E+00 0.71069269E+03</pdfrwt>
<totfact> 0.13536257E+02</totfact>
</mgrwt>
</event>
<event>
 4    1  0.1896644E-005  0.6492854E+03  0.7818608E-02  0.9808121E-01
         -2   -1    0    0    0  501 -0.00000000000E+00  0.00000000000E+00  0.11995512788E+04  0.11995512788E+04  0.25500000000E-02 0. -1.
          2   -1    0    0  501    0  0.00000000000E+00 -0.00000000000E+00 -0.87860246539E+02  0.87860246576E+02  0.25500000000E-02 0.  1.
    5000001    1    1    2    0    0 -0.18667763925E+03 -0.14170093964E+03  0.78708925076E+03  0.84338673570E+03  0.19200000000E+03 0.  0.
   -5000001    1    1    2    0    0  0.18667763925E+03  0.14170093964E+03  0.32460178148E+03  0.44402478966E+03  0.19200000000E+03 0.  0.
<mgrwt>
<rscale>  0 0.64928536E+03</rscale>
<asrwt>0</asrwt>
<pdfrwt beam="1">  1        2 0.12551465E-01 0.64928536E+03</pdfrwt>
<pdfrwt beam="2">  1       -2 0.17136445E+00 0.64928536E+03</pdfrwt>
<totfact> 0.10593978E+02</totfact>
</mgrwt>
</event>
<event>
 4    1  0.1896644E-005  0.6607510E+03  0.7818608E-02  0.9786812E-01
         -2   -1    0    0    0  501 -0.00000000000E+00  0.00000000000E+00  0.14077309599E+04  0.14077309599E+04  0.25500000000E-02 0.  1.
          2   -1    0    0  501    0  0.00000000000E+00 -0.00000000000E+00 -0.77534686075E+02  0.77534686117E+02  0.25500000000E-02 0. -1.
    5000001    1    1    2    0    0 -0.12871278112E+03  0.22960812368E+03  0.78815829278E+03  0.85284486571E+03  0.19200000000E+03 0.  0.
   -5000001    1    1    2    0    0  0.12871278112E+03 -0.22960812368E+03  0.54203798108E+03  0.63242078035E+03  0.19200000000E+03 0.  0.
<mgrwt>
<rscale>  0 0.66075102E+03</rscale>
<asrwt>0</asrwt>
<pdfrwt beam="1">  1        2 0.11076384E-01 0.66075102E+03</pdfrwt>
<pdfrwt beam="2">  1       -2 0.20110441E+00 0.66075102E+03</pdfrwt>
<totfact> 0.78122372E+01</totfact>
</mgrwt>
</event>
<event>
 4    1  0.1896644E-005  0.4801952E+03  0.7818608E-02  0.1019082E+00
          2   -1    0    0  501    0  0.00000000000E+00  0.00000000000E+00  0.23594831559E+04  0.23594831559E+04  0.25500000000E-02 0.  1.
         -2   -1    0    0    0  501 -0.00000000000E+00 -0.00000000000E+00 -0.24431988811E+02  0.24431988945E+02  0.25500000000E-02 0. -1.
    5000001    1    1    2    0    0  0.14165228193E+03  0.26653877996E+02  0.11543271523E+04  0.11790296742E+04  0.19200000000E+03 0.  0.
   -5000001    1    1    2    0    0 -0.14165228193E+03 -0.26653877996E+02  0.11807240148E+04  0.12048854706E+04  0.19200000000E+03 0.  0.
<mgrwt>
<rscale>  0 0.48019524E+03</rscale>
<asrwt>0</asrwt>
<pdfrwt beam="1">  1        2 0.33706857E+00 0.48019524E+03</pdfrwt>
<pdfrwt beam="2">  1       -2 0.34902889E-02 0.48019524E+03</pdfrwt>
<totfact> 0.19593686E+03</totfact>
</mgrwt>
</event>
<event>
 4    1  0.1896644E-005  0.7905225E+03  0.7818608E-02  0.9573838E-01
          2   -1    0    0  501    0  0.00000000000E+00  0.00000000000E+00  0.24837158674E+03  0.24837158675E+03  0.25500000000E-02 0.  1.
         -2   -1    0    0    0  501 -0.00000000000E+00 -0.00000000000E+00 -0.62902308646E+03  0.62902308646E+03  0.25500000000E-02 0. -1.
    5000001    1    1    2    0    0  0.21125287766E+03  0.23207573991E+03 -0.29945252026E+02  0.36911738714E+03  0.19200000000E+03 0.  0.
   -5000001    1    1    2    0    0 -0.21125287766E+03 -0.23207573991E+03 -0.35070624769E+03  0.50827728608E+03  0.19200000000E+03 0.  0.
<mgrwt>
<rscale>  0 0.79052252E+03</rscale>
<asrwt>0</asrwt>
<pdfrwt beam="1">  1        2 0.35481656E-01 0.79052252E+03</pdfrwt>
<pdfrwt beam="2">  1       -2 0.89860440E-01 0.79052252E+03</pdfrwt>
<totfact> 0.15739989E+02</totfact>
</mgrwt>
</event>
<event>
 4    1  0.1896644E-005  0.5051493E+03  0.7818608E-02  0.1012444E+00
         -2   -1    0    0    0  501 -0.00000000000E+00  0.00000000000E+00  0.38337334828E+03  0.38337334829E+03  0.25500000000E-02 0. -1.
          2   -1    0    0  501    0  0.00000000000E+00 -0.00000000000E+00 -0.16640167177E+03  0.16640167179E+03  0.25500000000E-02 0.  1.
    5000001    1    1    2    0    0  0.50052851135E+02  0.14918547355E+03  0.15916532016E+03  0.29488844088E+03  0.19200000000E+03 0.  0.
   -5000001    1    1    2    0    0 -0.50052851135E+02 -0.14918547355E+03  0.57806356351E+02  0.25488657921E+03  0.19200000000E+03 0.  0.
<mgrwt>
<rscale>  0 0.50514935E+03</rscale>
<asrwt>0</asrwt>
<pdfrwt beam="1">  1        2 0.23771668E-01 0.50514935E+03</pdfrwt>
<pdfrwt beam="2">  1       -2 0.54767620E-01 0.50514935E+03</pdfrwt>
<totfact> 0.73236040E+02</totfact>
</mgrwt>
</event>
<event>
 4    1  0.1896644E-005  0.4994434E+03  0.7818608E-02  0.1013924E+00
          2   -1    0    0  501    0  0.00000000000E+00  0.00000000000E+00  0.20187722352E+04  0.20187722352E+04  0.25500000000E-02 0.  1.
         -2   -1    0    0    0  501 -0.00000000000E+00 -0.00000000000E+00 -0.30890527162E+02  0.30890527267E+02  0.25500000000E-02 0. -1.
    5000001    1    1    2    0    0  0.10289623117E+02 -0.15206383671E+03  0.79851397907E+03  0.83529507454E+03  0.19200000000E+03 0.  0.
   -5000001    1    1    2    0    0 -0.10289623117E+02  0.15206383671E+03  0.11893677290E+04  0.12143676879E+04  0.19200000000E+03 0.  0.
<mgrwt>
<rscale>  0 0.49944344E+03</rscale>
<asrwt>0</asrwt>
<pdfrwt beam="1">  1        2 0.28839605E+00 0.49944344E+03</pdfrwt>
<pdfrwt beam="2">  1       -2 0.44129323E-02 0.49944344E+03</pdfrwt>
<totfact> 0.20258288E+03</totfact>
</mgrwt>
</event>
<event>
 4    1  0.1896644E-005  0.6379176E+03  0.7818608E-02  0.9829719E-01
         -2   -1    0    0    0  501 -0.00000000000E+00  0.00000000000E+00  0.15977185337E+03  0.15977185339E+03  0.25500000000E-02 0. -1.
          2   -1    0    0  501    0  0.00000000000E+00 -0.00000000000E+00 -0.63674984557E+03  0.63674984558E+03  0.25500000000E-02 0.  1.
    5000001    1    1    2    0    0 -0.16354858530E+03 -0.18396613758E+03 -0.15681094097E+03  0.34934989729E+03  0.19200000000E+03 0.  0.
   -5000001    1    1    2    0    0  0.16354858530E+03  0.18396613758E+03 -0.32016705123E+03  0.44717180169E+03  0.19200000000E+03 0.  0.
<mgrwt>
<rscale>  0 0.63791756E+03</rscale>
<asrwt>0</asrwt>
<pdfrwt beam="1">  1        2 0.90964262E-01 0.63791756E+03</pdfrwt>
<pdfrwt beam="2">  1       -2 0.22824551E-01 0.63791756E+03</pdfrwt>
<totfact> 0.85572167E+02</totfact>
</mgrwt>
</event>
<event>
 4    1  0.1896644E-005  0.4434815E+03  0.7818608E-02  0.1029684E+00
          2   -1    0    0  501    0  0.00000000000E+00  0.00000000000E+00  0.53348607447E+02  0.53348607508E+02  0.25500000000E-02 0.  1.
         -2   -1    0    0    0  501 -0.00000000000E+00 -0.00000000000E+00 -0.92165396439E+03  0.92165396439E+03  0.25500000000E-02 0. -1.
    5000001    1    1    2    0    0 -0.52908367056E+02  0.93862332209E+02 -0.37617164120E+03  0.43586527317E+03  0.19200000000E+03 0.  0.
   -5000001    1    1    2    0    0  0.52908367056E+02 -0.93862332209E+02 -0.49213371574E+03  0.53913729873E+03  0.19200000000E+03 0.  0.
<mgrwt>
<rscale>  0 0.44348148E+03</rscale>
<asrwt>0</asrwt>
<pdfrwt beam="1">  1        2 0.76212302E-02 0.44348148E+03</pdfrwt>
<pdfrwt beam="2">  1       -2 0.13166484E+00 0.44348148E+03</pdfrwt>
<totfact> 0.40168631E+02</totfact>
</mgrwt>
</event>
<event>
 4    1  0.1896644E-005  0.1130095E+04  0.7818608E-02  0.9176345E-01
         -2   -1    0    0    0  501 -0.00000000000E+00  0.00000000000E+00  0.28809369768E+03  0.28809369769E+03  0.25500000000E-02 0.  1.
          2   -1    0    0  501    0  0.00000000000E+00 -0.00000000000E+00 -0.11082465351E+04  0.11082465351E+04  0.25500000000E-02 0. -1.
    5000001    1    1    2    0    0  0.11640083483E+03 -0.51684325296E+03 -0.46159850985E+03  0.72843207423E+03  0.19200000000E+03 0.  0.
   -5000001    1    1    2    0    0 -0.11640083483E+03  0.51684325296E+03 -0.35855432761E+03  0.66790815860E+03  0.19200000000E+03 0.  0.
<mgrwt>
<rscale>  0 0.11300953E+04</rscale>
<asrwt>0</asrwt>
<pdfrwt beam="1">  1        2 0.15832093E+00 0.11300953E+04</pdfrwt>
<pdfrwt beam="2">  1       -2 0.41156243E-01 0.11300953E+04</pdfrwt>
<totfact> 0.13376396E+02</totfact>
</mgrwt>
</event>
<event>
 4    1  0.1896644E-005  0.7084710E+03  0.7818608E-02  0.9702854E-01
         -2   -1    0    0    0  501 -0.00000000000E+00  0.00000000000E+00  0.66462904852E+02  0.66462904901E+02  0.25500000000E-02 0. -1.
          2   -1    0    0  501    0  0.00000000000E+00 -0.00000000000E+00 -0.18880125580E+04  0.18880125580E+04  0.25500000000E-02 0.  1.
    5000001    1    1    2    0    0  0.77827747898E+02  0.24485697504E+03 -0.13255633555E+04  0.13638160822E+04  0.19200000000E+03 0.  0.
   -5000001    1    1    2    0    0 -0.77827747898E+02 -0.24485697504E+03 -0.49598629758E+03  0.59065938066E+03  0.19200000000E+03 0.  0.
<mgrwt>
<rscale>  0 0.70847103E+03</rscale>
<asrwt>0</asrwt>
<pdfrwt beam="1">  1        2 0.26971605E+00 0.70847103E+03</pdfrwt>
<pdfrwt beam="2">  1       -2 0.94947019E-02 0.70847103E+03</pdfrwt>
<totfact> 0.69782304E+02</totfact>
</mgrwt>
</event>
<event>
 4    1  0.1896644E-005  0.6008039E+03  0.7818608E-02  0.9903740E-01
         -2   -1    0    0    0  501 -0.00000000000E+00  0.00000000000E+00  0.11214042100E+03  0.11214042103E+03  0.25500000000E-02 0. -1.
          2   -1    0    0  501    0  0.00000000000E+00 -0.00000000000E+00 -0.80471724481E+03  0.80471724482E+03  0.25500000000E-02 0.  1.
    5000001    1    1    2    0    0  0.13414927352E+03  0.15457511120E+03 -0.18272418256E+03  0.33487552834E+03  0.19200000000E+03 0.  0.
   -5000001    1    1    2    0    0 -0.13414927352E+03 -0.15457511120E+03 -0.50985264125E+03  0.58198213751E+03  0.19200000000E+03 0.  0.
<mgrwt>
<rscale>  0 0.60080390E+03</rscale>
<asrwt>0</asrwt>
<pdfrwt beam="1">  1        2 0.11495960E+00 0.60080390E+03</pdfrwt>
<pdfrwt beam="2">  1       -2 0.16020061E-01 0.60080390E+03</pdfrwt>
<totfact> 0.11845925E+03</totfact>
</mgrwt>
</event>
<event>
 4    1  0.1896644E-005  0.4532062E+03  0.7818608E-02  0.1026770E+00
          2   -1    0    0  501    0  0.00000000000E+00  0.00000000000E+00  0.15754427170E+04  0.15754427170E+04  0.25500000000E-02 0.  1.
         -2   -1    0    0    0  501 -0.00000000000E+00 -0.00000000000E+00 -0.32593352865E+02  0.32593352965E+02  0.25500000000E-02 0. -1.
    5000001    1    1    2    0    0  0.91850460153E+02 -0.73429400849E+02  0.68050819596E+03  0.71678712929E+03  0.19200000000E+03 0.  0.
   -5000001    1    1    2    0    0 -0.91850460153E+02  0.73429400849E+02  0.86234116819E+03  0.89124894070E+03  0.19200000000E+03 0.  0.
<mgrwt>
<rscale>  0 0.45320618E+03</rscale>
<asrwt>0</asrwt>
<pdfrwt beam="1">  1        2 0.22506328E+00 0.45320618E+03</pdfrwt>
<pdfrwt beam="2">  1       -2 0.46561925E-02 0.45320618E+03</pdfrwt>
<totfact> 0.31185600E+03</totfact>
</mgrwt>
</event>
<event>
 4    1  0.1896644E-005  0.6099118E+03  0.7818608E-02  0.9885053E-01
          2   -1    0    0  501    0  0.00000000000E+00  0.00000000000E+00  0.12030674149E+04  0.12030674149E+04  0.25500000000E-02 0.  1.
         -2   -1    0    0    0  501 -0.00000000000E+00 -0.00000000000E+00 -0.77300821756E+02  0.77300821798E+02  0.25500000000E-02 0. -1.
    5000001    1    1    2    0    0  0.21102897476E+03 -0.10148832434E+03  0.63860233921E+03  0.70676025342E+03  0.19200000000E+03 0.  0.
   -5000001    1    1    2    0    0 -0.21102897476E+03  0.10148832434E+03  0.48716425390E+03  0.57360798325E+03  0.19200000000E+03 0.  0.
<mgrwt>
<rscale>  0 0.60991180E+03</rscale>
<asrwt>0</asrwt>
<pdfrwt beam="1">  1        2 0.17186679E+00 0.60991180E+03</pdfrwt>
<pdfrwt beam="2">  1       -2 0.11042974E-01 0.60991180E+03</pdfrwt>
<totfact> 0.12522543E+03</totfact>
</mgrwt>
</event>
<event>
 4    1  0.1896644E-005  0.4553901E+03  0.7818608E-02  0.1026127E+00
         -2   -1    0    0    0  501 -0.00000000000E+00  0.00000000000E+00  0.17037529274E+03  0.17037529276E+03  0.25500000000E-02 0. -1.
          2   -1    0    0  501    0  0.00000000000E+00 -0.00000000000E+00 -0.30429902253E+03  0.30429902254E+03  0.25500000000E-02 0.  1.
    5000001    1    1    2    0    0 -0.21444053167E+01  0.12213782361E+03 -0.58969803969E+02  0.23508229242E+03  0.19200000000E+03 0.  0.
   -5000001    1    1    2    0    0  0.21444053167E+01 -0.12213782361E+03 -0.74953925822E+02  0.23959202288E+03  0.19200000000E+03 0.  0.
<mgrwt>
<rscale>  0 0.45539010E+03</rscale>
<asrwt>0</asrwt>
<pdfrwt beam="1">  1        2 0.43471289E-01 0.45539010E+03</pdfrwt>
<pdfrwt beam="2">  1       -2 0.24339328E-01 0.45539010E+03</pdfrwt>
<totfact> 0.17541254E+03</totfact>
</mgrwt>
</event>
<event>
 4    1  0.1896644E-005  0.9297098E+03  0.7818608E-02  0.9389186E-01
          2   -1    0    0  501    0  0.00000000000E+00  0.00000000000E+00  0.33167585899E+03  0.33167585900E+03  0.25500000000E-02 0.  1.
         -2   -1    0    0    0  501 -0.00000000000E+00 -0.00000000000E+00 -0.65150983313E+03  0.65150983313E+03  0.25500000000E-02 0. -1.
    5000001    1    1    2    0    0  0.18545503332E+03 -0.34175515425E+03  0.17153266400E+02  0.43399123192E+03  0.19200000000E+03 0.  0.
   -5000001    1    1    2    0    0 -0.18545503332E+03  0.34175515425E+03 -0.33698724054E+03  0.54919446021E+03  0.19200000000E+03 0.  0.
<mgrwt>
<rscale>  0 0.92970981E+03</rscale>
<asrwt>0</asrwt>
<pdfrwt beam="1">  1        2 0.47382266E-01 0.92970981E+03</pdfrwt>
<pdfrwt beam="2">  1       -2 0.93072833E-01 0.92970981E+03</pdfrwt>
<totfact> 0.10450864E+02</totfact>
</mgrwt>
</event>
<event>
 4    1  0.1896644E-005  0.4521877E+03  0.7818608E-02  0.1027072E+00
         -2   -1    0    0    0  501 -0.00000000000E+00  0.00000000000E+00  0.57839530167E+02  0.57839530223E+02  0.25500000000E-02 0. -1.
          2   -1    0    0  501    0  0.00000000000E+00 -0.00000000000E+00 -0.88379725962E+03  0.88379725963E+03  0.25500000000E-02 0.  1.
    5000001    1    1    2    0    0 -0.72613637272E+02  0.87781753454E+02 -0.33859184532E+03  0.40556974033E+03  0.19200000000E+03 0.  0.
   -5000001    1    1    2    0    0  0.72613637272E+02 -0.87781753454E+02 -0.48736588414E+03  0.53606704952E+03  0.19200000000E+03 0.  0.
<mgrwt>
<rscale>  0 0.45218765E+03</rscale>
<asrwt>0</asrwt>
<pdfrwt beam="1">  1        2 0.12625674E+00 0.45218765E+03</pdfrwt>
<pdfrwt beam="2">  1       -2 0.82627905E-02 0.45218765E+03</pdfrwt>
<totfact> 0.31022005E+03</totfact>
</mgrwt>
</event>
<event>
 4    1  0.1896644E-005  0.5971971E+03  0.7818608E-02  0.9911238E-01
         -2   -1    0    0    0  501 -0.00000000000E+00  0.00000000000E+00  0.32531626118E+02  0.32531626218E+02  0.25500000000E-02 0. -1.
          2   -1    0    0  501    0  0.00000000000E+00 -0.00000000000E+00 -0.27407508663E+04  0.27407508663E+04  0.25500000000E-02 0.  1.
    5000001    1    1    2    0    0  0.13260813253E+03  0.82089189141E+02 -0.21308038719E+04  0.21451136781E+04  0.19200000000E+03 0.  0.
   -5000001    1    1    2    0    0 -0.13260813253E+03 -0.82089189141E+02 -0.57741536829E+03  0.62816881436E+03  0.19200000000E+03 0.  0.
<mgrwt>
<rscale>  0 0.59719706E+03</rscale>
<asrwt>0</asrwt>
<pdfrwt beam="1">  1        2 0.39153569E+00 0.59719706E+03</pdfrwt>
<pdfrwt beam="2">  1       -2 0.46473769E-02 0.59719706E+03</pdfrwt>
<totfact> 0.79782319E+02</totfact>
</mgrwt>
</event>
<event>
 4    1  0.1896644E-005  0.6624667E+03  0.7818608E-02  0.9783664E-01
          2   -1    0    0  501    0  0.00000000000E+00  0.00000000000E+00  0.30855445001E+04  0.30855445001E+04  0.25500000000E-02 0.  1.
         -2   -1    0    0    0  501 -0.00000000000E+00 -0.00000000000E+00 -0.35557910977E+02  0.35557911069E+02  0.25500000000E-02 0. -1.
    5000001    1    1    2    0    0 -0.10618383935E+03  0.22573386053E+03  0.10394575050E+04  0.10860785829E+04  0.19200000000E+03 0.  0.
   -5000001    1    1    2    0    0  0.10618383935E+03 -0.22573386053E+03  0.20105290841E+04  0.20350238282E+04  0.19200000000E+03 0.  0.
<mgrwt>
<rscale>  0 0.66246665E+03</rscale>
<asrwt>0</asrwt>
<pdfrwt beam="1">  1        2 0.44079216E+00 0.66246665E+03</pdfrwt>
<pdfrwt beam="2">  1       -2 0.50797005E-02 0.66246665E+03</pdfrwt>
<totfact> 0.45054191E+02</totfact>
</mgrwt>
</event>
<event>
 4    1  0.1896644E-005  0.6726317E+03  0.7818608E-02  0.9765215E-01
          2   -1    0    0  501    0  0.00000000000E+00  0.00000000000E+00  0.26561567060E+03  0.26561567061E+03  0.25500000000E-02 0.  1.
         -2   -1    0    0    0  501 -0.00000000000E+00 -0.00000000000E+00 -0.42583467743E+03  0.42583467744E+03  0.25500000000E-02 0. -1.
    5000001    1    1    2    0    0 -0.10817592005E+03  0.14259872932E+02 -0.34085736975E+03  0.40614421105E+03  0.19200000000E+03 0.  0.
   -5000001    1    1    2    0    0  0.10817592005E+03 -0.14259872932E+02  0.18063836291E+03  0.28530613700E+03  0.19200000000E+03 0.  0.
<mgrwt>
<rscale>  0 0.67263174E+03</rscale>
<asrwt>0</asrwt>
<pdfrwt beam="1">  1        2 0.37945096E-01 0.67263174E+03</pdfrwt>
<pdfrwt beam="2">  1       -2 0.60833525E-01 0.67263174E+03</pdfrwt>
<totfact> 0.34675601E+02</totfact>
</mgrwt>
</event>
<event>
 4    1  0.1896644E-005  0.6966899E+03  0.7818608E-02  0.9722910E-01
         -2   -1    0    0    0  501 -0.00000000000E+00  0.00000000000E+00  0.18356616731E+03  0.18356616733E+03  0.25500000000E-02 0. -1.
          2   -1    0    0  501    0  0.00000000000E+00 -0.00000000000E+00 -0.66103792628E+03  0.66103792628E+03  0.25500000000E-02 0.  1.
    5000001    1    1    2    0    0 -0.18458501337E+02 -0.28683179447E+03 -0.18635336995E+03  0.39268915580E+03  0.19200000000E+03 0.  0.
   -5000001    1    1    2    0    0  0.18458501337E+02  0.28683179447E+03 -0.29111838901E+03  0.45191493781E+03  0.19200000000E+03 0.  0.
<mgrwt>
<rscale>  0 0.69668988E+03</rscale>
<asrwt>0</asrwt>
<pdfrwt beam="1">  1        2 0.94433988E-01 0.69668988E+03</pdfrwt>
<pdfrwt beam="2">  1       -2 0.26223739E-01 0.69668988E+03</pdfrwt>
<totfact> 0.63689124E+02</totfact>
</mgrwt>
</event>
<event>
 4    1  0.1896644E-005  0.4988356E+03  0.7818608E-02  0.1014083E+00
         -2   -1    0    0    0  501 -0.00000000000E+00  0.00000000000E+00  0.44559060023E+02  0.44559060096E+02  0.25500000000E-02 0. -1.
          2   -1    0    0  501    0  0.00000000000E+00 -0.00000000000E+00 -0.13961074951E+04  0.13961074951E+04  0.25500000000E-02 0.  1.
    5000001    1    1    2    0    0  0.12462129869E+03  0.43104783018E+02 -0.41815763071E+03  0.47865258228E+03  0.19200000000E+03 0.  0.
   -5000001    1    1    2    0    0 -0.12462129869E+03 -0.43104783018E+02 -0.93339080433E+03  0.96201397288E+03  0.19200000000E+03 0.  0.
<mgrwt>
<rscale>  0 0.49883560E+03</rscale>
<asrwt>0</asrwt>
<pdfrwt beam="1">  1        2 0.19944390E+00 0.49883560E+03</pdfrwt>
<pdfrwt beam="2">  1       -2 0.63655809E-02 0.49883560E+03</pdfrwt>
<totfact> 0.23777826E+03</totfact>
</mgrwt>
</event>
<event>
 4    1  0.1896644E-005  0.7227412E+03  0.7818608E-02  0.9679113E-01
          2   -1    0    0  501    0  0.00000000000E+00  0.00000000000E+00  0.11165522155E+04  0.11165522156E+04  0.25500000000E-02 0.  1.
         -2   -1    0    0    0  501 -0.00000000000E+00 -0.00000000000E+00 -0.11695711095E+03  0.11695711098E+03  0.25500000000E-02 0. -1.
    5000001    1    1    2    0    0  0.28058934136E+03  0.56484565281E+02  0.31437130685E+03  0.46649137524E+03  0.19200000000E+03 0.  0.
   -5000001    1    1    2    0    0 -0.28058934136E+03 -0.56484565281E+02  0.68522379775E+03  0.76701795129E+03  0.19200000000E+03 0.  0.
<mgrwt>
<rscale>  0 0.72274123E+03</rscale>
<asrwt>0</asrwt>
<pdfrwt beam="1">  1        2 0.15950746E+00 0.72274123E+03</pdfrwt>
<pdfrwt beam="2">  1       -2 0.16708159E-01 0.72274123E+03</pdfrwt>
<totfact> 0.69990747E+02</totfact>
</mgrwt>
</event>
<event>
 4    1  0.1896644E-005  0.8131343E+03  0.7818608E-02  0.9541198E-01
         -2   -1    0    0    0  501 -0.00000000000E+00  0.00000000000E+00  0.63346558744E+02  0.63346558796E+02  0.25500000000E-02 0. -1.
          2   -1    0    0  501    0  0.00000000000E+00 -0.00000000000E+00 -0.26094056153E+04  0.26094056153E+04  0.25500000000E-02 0.  1.
    5000001    1    1    2    0    0 -0.22379511756E+03 -0.27904604169E+03 -0.12008717716E+04  0.12676387340E+04  0.19200000000E+03 0.  0.
   -5000001    1    1    2    0    0  0.22379511756E+03  0.27904604169E+03 -0.13451872849E+04  0.14051134401E+04  0.19200000000E+03 0.  0.
<mgrwt>
<rscale>  0 0.81313435E+03</rscale>
<asrwt>0</asrwt>
<pdfrwt beam="1">  1        2 0.37277216E+00 0.81313435E+03</pdfrwt>
<pdfrwt beam="2">  1       -2 0.90495100E-02 0.81313435E+03</pdfrwt>
<totfact> 0.32057644E+02</totfact>
</mgrwt>
</event>
<event>
 4    1  0.1896644E-005  0.7192695E+03  0.7818608E-02  0.9684835E-01
          2   -1    0    0  501    0  0.00000000000E+00  0.00000000000E+00  0.38640194353E+03  0.38640194354E+03  0.25500000000E-02 0.  1.
         -2   -1    0    0    0  501 -0.00000000000E+00 -0.00000000000E+00 -0.33472175194E+03  0.33472175195E+03  0.25500000000E-02 0. -1.
    5000001    1    1    2    0    0  0.27257144257E+03 -0.41738052575E+01  0.16094849046E+03  0.37024455234E+03  0.19200000000E+03 0.  0.
   -5000001    1    1    2    0    0 -0.27257144257E+03  0.41738052575E+01 -0.10926829887E+03  0.35087914315E+03  0.19200000000E+03 0.  0.
<mgrwt>
<rscale>  0 0.71926945E+03</rscale>
<asrwt>0</asrwt>
<pdfrwt beam="1">  1        2 0.55200277E-01 0.71926945E+03</pdfrwt>
<pdfrwt beam="2">  1       -2 0.47817393E-01 0.71926945E+03</pdfrwt>
<totfact> 0.37541407E+02</totfact>
</mgrwt>
</event>
<event>
 4    1  0.1896644E-005  0.6791613E+03  0.7818608E-02  0.9753548E-01
          2   -1    0    0  501    0  0.00000000000E+00  0.00000000000E+00  0.89268122463E+02  0.89268122500E+02  0.25500000000E-02 0.  1.
         -2   -1    0    0    0  501 -0.00000000000E+00 -0.00000000000E+00 -0.12917829050E+04  0.12917829050E+04  0.25500000000E-02 0. -1.
    5000001    1    1    2    0    0  0.19529584686E+03 -0.16019853574E+03 -0.84735706809E+03  0.90481049922E+03  0.19200000000E+03 0.  0.
   -5000001    1    1    2    0    0 -0.19529584686E+03  0.16019853574E+03 -0.35515771448E+03  0.47624052831E+03  0.19200000000E+03 0.  0.
<mgrwt>
<rscale>  0 0.67916135E+03</rscale>
<asrwt>0</asrwt>
<pdfrwt beam="1">  1        2 0.12752590E-01 0.67916135E+03</pdfrwt>
<pdfrwt beam="2">  1       -2 0.18454040E+00 0.67916135E+03</pdfrwt>
<totfact> 0.84175701E+01</totfact>
</mgrwt>
</event>
<event>
 4    1  0.1896644E-005  0.8531563E+03  0.7818608E-02  0.9486111E-01
         -2   -1    0    0    0  501 -0.00000000000E+00  0.00000000000E+00  0.76712793651E+02  0.76712793693E+02  0.25500000000E-02 0. -1.
          2   -1    0    0  501    0  0.00000000000E+00 -0.00000000000E+00 -0.23720801846E+04  0.23720801846E+04  0.25500000000E-02 0.  1.
    5000001    1    1    2    0    0  0.15630711646E+03 -0.34104990623E+03 -0.95820327274E+03  0.10467876886E+04  0.19200000000E+03 0.  0.
   -5000001    1    1    2    0    0 -0.15630711646E+03  0.34104990623E+03 -0.13371641182E+04  0.14020052897E+04  0.19200000000E+03 0.  0.
<mgrwt>
<rscale>  0 0.85315625E+03</rscale>
<asrwt>0</asrwt>
<pdfrwt beam="1">  1        2 0.33886855E+00 0.85315625E+03</pdfrwt>
<pdfrwt beam="2">  1       -2 0.10958972E-01 0.85315625E+03</pdfrwt>
<totfact> 0.31041641E+02</totfact>
</mgrwt>
</event>
<event>
 4    1  0.1896644E-005  0.4570464E+03  0.7818608E-02  0.1025641E+00
          2   -1    0    0  501    0  0.00000000000E+00  0.00000000000E+00  0.20389163106E+02  0.20389163266E+02  0.25500000000E-02 0.  1.
         -2   -1    0    0    0  501 -0.00000000000E+00 -0.00000000000E+00 -0.25613046195E+04  0.25613046195E+04  0.25500000000E-02 0. -1.
    5000001    1    1    2    0    0 -0.41398502055E+02  0.10089556108E+03 -0.93794920576E+03  0.96359040199E+03  0.19200000000E+03 0.  0.
   -5000001    1    1    2    0    0  0.41398502055E+02 -0.10089556108E+03 -0.16029662507E+04  0.16181033808E+04  0.19200000000E+03 0.  0.
<mgrwt>
<rscale>  0 0.45704642E+03</rscale>
<asrwt>0</asrwt>
<pdfrwt beam="1">  1        2 0.29127392E-02 0.45704642E+03</pdfrwt>
<pdfrwt beam="2">  1       -2 0.36590046E+00 0.45704642E+03</pdfrwt>
<totfact> 0.46900821E+01</totfact>
</mgrwt>
</event>
<event>
 4    1  0.1896644E-005  0.5747316E+03  0.7818608E-02  0.9959263E-01
          2   -1    0    0  501    0  0.00000000000E+00  0.00000000000E+00  0.37311568877E+03  0.37311568878E+03  0.25500000000E-02 0.  1.
         -2   -1    0    0    0  501 -0.00000000000E+00 -0.00000000000E+00 -0.22132305940E+03  0.22132305941E+03  0.25500000000E-02 0. -1.
    5000001    1    1    2    0    0  0.15149731423E+03  0.58217699189E+02 -0.68068317297E+02  0.26045735262E+03  0.19200000000E+03 0.  0.
   -5000001    1    1    2    0    0 -0.15149731423E+03 -0.58217699189E+02  0.21986094666E+03  0.33398139557E+03  0.19200000000E+03 0.  0.
<mgrwt>
<rscale>  0 0.57473161E+03</rscale>
<asrwt>0</asrwt>
<pdfrwt beam="1">  1        2 0.53302241E-01 0.57473161E+03</pdfrwt>
<pdfrwt beam="2">  1       -2 0.31617580E-01 0.57473161E+03</pdfrwt>
<totfact> 0.87141188E+02</totfact>
</mgrwt>
</event>
<event>
 4    1  0.1896644E-005  0.4172130E+03  0.7818608E-02  0.1037977E+00
          2   -1    0    0  501    0  0.00000000000E+00  0.00000000000E+00  0.55677951662E+03  0.55677951663E+03  0.25500000000E-02 0.  1.
         -2   -1    0    0    0  501 -0.00000000000E+00 -0.00000000000E+00 -0.78157818611E+02  0.78157818653E+02  0.25500000000E-02 0. -1.
    5000001    1    1    2    0    0  0.73841875619E+02 -0.30210133396E+02  0.21351114674E+03  0.29802061093E+03  0.19200000000E+03 0.  0.
   -5000001    1    1    2    0    0 -0.73841875619E+02  0.30210133396E+02  0.26511055127E+03  0.33691672435E+03  0.19200000000E+03 0.  0.
<mgrwt>
<rscale>  0 0.41721300E+03</rscale>
<asrwt>0</asrwt>
<pdfrwt beam="1">  1        2 0.79539931E-01 0.41721300E+03</pdfrwt>
<pdfrwt beam="2">  1       -2 0.11165403E-01 0.41721300E+03</pdfrwt>
<totfact> 0.33548209E+03</totfact>
</mgrwt>
</event>
<event>
 4    1  0.1896644E-005  0.7418182E+03  0.7818608E-02  0.9648275E-01
          2   -1    0    0  501    0  0.00000000000E+00  0.00000000000E+00  0.12912923569E+04  0.12912923569E+04  0.25500000000E-02 0.  1.
         -2   -1    0    0    0  501 -0.00000000000E+00 -0.00000000000E+00 -0.10653942509E+03  0.10653942512E+03  0.25500000000E-02 0. -1.
    5000001    1    1    2    0    0 -0.29228334359E+03  0.12354655961E+03  0.59997011915E+03  0.70535200376E+03  0.19200000000E+03 0.  0.
   -5000001    1    1    2    0    0  0.29228334359E+03 -0.12354655961E+03  0.58478281267E+03  0.69247977828E+03  0.19200000000E+03 0.  0.
<mgrwt>
<rscale>  0 0.74181816E+03</rscale>
<asrwt>0</asrwt>
<pdfrwt beam="1">  1        2 0.18447032E+00 0.74181816E+03</pdfrwt>
<pdfrwt beam="2">  1       -2 0.15219919E-01 0.74181816E+03</pdfrwt>
<totfact> 0.65319644E+02</totfact>
</mgrwt>
</event>
<event>
 4    1  0.1896644E-005  0.5185692E+03  0.7818608E-02  0.1009043E+00
          2   -1    0    0  501    0  0.00000000000E+00  0.00000000000E+00  0.93249163497E+03  0.93249163498E+03  0.25500000000E-02 0.  1.
         -2   -1    0    0    0  501 -0.00000000000E+00 -0.00000000000E+00 -0.72095560000E+02  0.72095560045E+02  0.25500000000E-02 0. -1.
    5000001    1    1    2    0    0 -0.15480368277E+03 -0.78614192326E+02  0.45894061207E+03  0.52691067254E+03  0.19200000000E+03 0.  0.
   -5000001    1    1    2    0    0  0.15480368277E+03  0.78614192326E+02  0.40145546290E+03  0.47767652248E+03  0.19200000000E+03 0.  0.
<mgrwt>
<rscale>  0 0.51856921E+03</rscale>
<asrwt>0</asrwt>
<pdfrwt beam="1">  1        2 0.13321309E+00 0.51856921E+03</pdfrwt>
<pdfrwt beam="2">  1       -2 0.10299366E-01 0.51856921E+03</pdfrwt>
<totfact> 0.20296706E+03</totfact>
</mgrwt>
</event>
<event>
 4    1  0.1896644E-005  0.4824768E+03  0.7818608E-02  0.1018457E+00
         -2   -1    0    0    0  501 -0.00000000000E+00  0.00000000000E+00  0.11728221363E+03  0.11728221366E+03  0.25500000000E-02 0.  1.
          2   -1    0    0  501    0  0.00000000000E+00 -0.00000000000E+00 -0.49620452507E+03  0.49620452507E+03  0.25500000000E-02 0. -1.
    5000001    1    1    2    0    0  0.20092868540E+02  0.14055735201E+03 -0.14593313319E+03  0.27985812822E+03  0.19200000000E+03 0.  0.
   -5000001    1    1    2    0    0 -0.20092868540E+02 -0.14055735201E+03 -0.23298917825E+03  0.33362861051E+03  0.19200000000E+03 0.  0.
<mgrwt>
<rscale>  0 0.48247680E+03</rscale>
<asrwt>0</asrwt>
<pdfrwt beam="1">  1        2 0.70886360E-01 0.48247680E+03</pdfrwt>
<pdfrwt beam="2">  1       -2 0.16754602E-01 0.48247680E+03</pdfrwt>
<totfact> 0.19547080E+03</totfact>
</mgrwt>
</event>
<event>
 4    1  0.1896644E-005  0.5132459E+03  0.7818608E-02  0.1010378E+00
          2   -1    0    0  501    0  0.00000000000E+00  0.00000000000E+00  0.97187212965E+03  0.97187212966E+03  0.25500000000E-02 0.  1.
         -2   -1    0    0    0  501 -0.00000000000E+00 -0.00000000000E+00 -0.67761316357E+02  0.67761316405E+02  0.25500000000E-02 0. -1.
    5000001    1    1    2    0    0 -0.17025177417E+03 -0.19683472788E+01  0.44934240926E+03  0.51745738159E+03  0.19200000000E+03 0.  0.
   -5000001    1    1    2    0    0  0.17025177417E+03  0.19683472788E+01  0.45476840403E+03  0.52217606447E+03  0.19200000000E+03 0.  0.
<mgrwt>
<rscale>  0 0.51324589E+03</rscale>
<asrwt>0</asrwt>
<pdfrwt beam="1">  1        2 0.13883887E+00 0.51324589E+03</pdfrwt>
<pdfrwt beam="2">  1       -2 0.96801883E-02 0.51324589E+03</pdfrwt>
<totfact> 0.21204752E+03</totfact>
</mgrwt>
</event>
<event>
 4    1  0.1896644E-005  0.5301916E+03  0.7818608E-02  0.1006186E+00
          2   -1    0    0  501    0  0.00000000000E+00  0.00000000000E+00  0.44860640112E+03  0.44860640113E+03  0.25500000000E-02 0.  1.
         -2   -1    0    0    0  501 -0.00000000000E+00 -0.00000000000E+00 -0.15665356903E+03  0.15665356905E+03  0.25500000000E-02 0. -1.
    5000001    1    1    2    0    0  0.41335091173E+02 -0.17563721553E+03  0.17935242248E+03  0.31872921531E+03  0.19200000000E+03 0.  0.
   -5000001    1    1    2    0    0 -0.41335091173E+02  0.17563721553E+03  0.11260040961E+03  0.28653075487E+03  0.19200000000E+03 0.  0.
<mgrwt>
<rscale>  0 0.53019164E+03</rscale>
<asrwt>0</asrwt>
<pdfrwt beam="1">  1        2 0.64086628E-01 0.53019164E+03</pdfrwt>
<pdfrwt beam="2">  1       -2 0.22379081E-01 0.53019164E+03</pdfrwt>
<totfact> 0.13277062E+03</totfact>
</mgrwt>
</event>
<event>
 4    1  0.1896644E-005  0.4351188E+03  0.7818608E-02  0.1032255E+00
          2   -1    0    0  501    0  0.00000000000E+00  0.00000000000E+00  0.13390912531E+04  0.13390912531E+04  0.25500000000E-02 0.  1.
         -2   -1    0    0    0  501 -0.00000000000E+00 -0.00000000000E+00 -0.35346423956E+02  0.35346424048E+02  0.25500000000E-02 0. -1.
    5000001    1    1    2    0    0  0.12044268065E+02 -0.95941754921E+02  0.54624480439E+03  0.58702408047E+03  0.19200000000E+03 0.  0.
   -5000001    1    1    2    0    0 -0.12044268065E+02  0.95941754921E+02  0.75750002473E+03  0.78741359666E+03  0.19200000000E+03 0.  0.
<mgrwt>
<rscale>  0 0.43511878E+03</rscale>
<asrwt>0</asrwt>
<pdfrwt beam="1">  1        2 0.19129865E+00 0.43511878E+03</pdfrwt>
<pdfrwt beam="2">  1       -2 0.50494917E-02 0.43511878E+03</pdfrwt>
<totfact> 0.36530994E+03</totfact>
</mgrwt>
</event>
<event>
 4    1  0.1896644E-005  0.5118095E+03  0.7818608E-02  0.1010742E+00
          2   -1    0    0  501    0  0.00000000000E+00  0.00000000000E+00  0.12061433338E+03  0.12061433340E+03  0.25500000000E-02 0.  1.
         -2   -1    0    0    0  501 -0.00000000000E+00 -0.00000000000E+00 -0.54294752511E+03  0.54294752511E+03  0.25500000000E-02 0. -1.
    5000001    1    1    2    0    0 -0.10965099800E+03 -0.41463217985E+02 -0.53010871810E+02  0.23112051475E+03  0.19200000000E+03 0.  0.
   -5000001    1    1    2    0    0  0.10965099800E+03  0.41463217985E+02 -0.36932231992E+03  0.43244134377E+03  0.19200000000E+03 0.  0.
<mgrwt>
<rscale>  0 0.51180955E+03</rscale>
<asrwt>0</asrwt>
<pdfrwt beam="1">  1        2 0.17230619E-01 0.51180955E+03</pdfrwt>
<pdfrwt beam="2">  1       -2 0.77563931E-01 0.51180955E+03</pdfrwt>
<totfact> 0.50685043E+02</totfact>
</mgrwt>
</event>
<event>
 4    1  0.1896644E-005  0.6174388E+03  0.7818608E-02  0.9869872E-01
         -2   -1    0    0    0  501 -0.00000000000E+00  0.00000000000E+00  0.24614039857E+03  0.24614039859E+03  0.25500000000E-02 0. -1.
          2   -1    0    0  501    0  0.00000000000E+00 -0.00000000000E+00 -0.38720858233E+03  0.38720858234E+03  0.25500000000E-02 0.  1.
    5000001    1    1    2    0    0 -0.18139737827E+03 -0.11381186604E+03  0.44541922900E+02  0.29104317994E+03  0.19200000000E+03 0.  0.
   -5000001    1    1    2    0    0  0.18139737827E+03  0.11381186604E+03 -0.18561010665E+03  0.34230580098E+03  0.19200000000E+03 0.  0.
<mgrwt>
<rscale>  0 0.61743882E+03</rscale>
<asrwt>0</asrwt>
<pdfrwt beam="1">  1        2 0.55315512E-01 0.61743882E+03</pdfrwt>
<pdfrwt beam="2">  1       -2 0.35162914E-01 0.61743882E+03</pdfrwt>
<totfact> 0.68451813E+02</totfact>
</mgrwt>
</event>
<event>
 4    1  0.1896644E-005  0.6029098E+03  0.7818608E-02  0.9899387E-01
         -2   -1    0    0    0  501 -0.00000000000E+00  0.00000000000E+00  0.10893155694E+04  0.10893155694E+04  0.25500000000E-02 0. -1.
          2   -1    0    0  501    0  0.00000000000E+00 -0.00000000000E+00 -0.83423997227E+02  0.83423997266E+02  0.25500000000E-02 0.  1.
    5000001    1    1    2    0    0  0.22880067052E+03  0.66578945119E+01  0.58116297098E+03  0.65345885351E+03  0.19200000000E+03 0.  0.
   -5000001    1    1    2    0    0 -0.22880067052E+03 -0.66578945119E+01  0.42472860120E+03  0.51928071317E+03  0.19200000000E+03 0.  0.
<mgrwt>
<rscale>  0 0.60290981E+03</rscale>
<asrwt>0</asrwt>
<pdfrwt beam="1">  1        2 0.11917713E-01 0.60290981E+03</pdfrwt>
<pdfrwt beam="2">  1       -2 0.15561652E+00 0.60290981E+03</pdfrwt>
<totfact> 0.14712579E+02</totfact>
</mgrwt>
</event>
<event>
 4    1  0.1896644E-005  0.4460331E+03  0.7818608E-02  0.1028912E+00
          2   -1    0    0  501    0  0.00000000000E+00  0.00000000000E+00  0.20358094751E+04  0.20358094751E+04  0.25500000000E-02 0.  1.
         -2   -1    0    0    0  501 -0.00000000000E+00 -0.00000000000E+00 -0.24430758877E+02  0.24430759010E+02  0.25500000000E-02 0. -1.
    5000001    1    1    2    0    0 -0.94840610741E+02 -0.59439713801E+01  0.12920058491E+04  0.13096462066E+04  0.19200000000E+03 0.  0.
   -5000001    1    1    2    0    0  0.94840610741E+02  0.59439713801E+01  0.71937286704E+03  0.75059402747E+03  0.19200000000E+03 0.  0.
<mgrwt>
<rscale>  0 0.44603305E+03</rscale>
<asrwt>0</asrwt>
<pdfrwt beam="1">  1        2 0.29083000E+00 0.44603305E+03</pdfrwt>
<pdfrwt beam="2">  1       -2 0.34901075E-02 0.44603305E+03</pdfrwt>
<totfact> 0.28478913E+03</totfact>
</mgrwt>
</event>
<event>
 4    1  0.1896644E-005  0.5637106E+03  0.7818608E-02  0.9983693E-01
         -2   -1    0    0    0  501 -0.00000000000E+00  0.00000000000E+00  0.59100074471E+02  0.59100074526E+02  0.25500000000E-02 0. -1.
          2   -1    0    0  501    0  0.00000000000E+00 -0.00000000000E+00 -0.13442016426E+04  0.13442016426E+04  0.25500000000E-02 0.  1.
    5000001    1    1    2    0    0  0.13947219930E+03 -0.46874956987E+02 -0.28241559370E+03  0.37184986693E+03  0.19200000000E+03 0.  0.
   -5000001    1    1    2    0    0 -0.13947219930E+03  0.46874956987E+02 -0.10026859745E+04  0.10314518502E+04  0.19200000000E+03 0.  0.
<mgrwt>
<rscale>  0 0.56371063E+03</rscale>
<asrwt>0</asrwt>
<pdfrwt beam="1">  1        2 0.19202879E+00 0.56371063E+03</pdfrwt>
<pdfrwt beam="2">  1       -2 0.84428686E-02 0.56371063E+03</pdfrwt>
<totfact> 0.16192817E+03</totfact>
</mgrwt>
</event>
<event>
 4    1  0.1896644E-005  0.5044566E+03  0.7818608E-02  0.1012622E+00
          2   -1    0    0  501    0  0.00000000000E+00  0.00000000000E+00  0.38844038983E+03  0.38844038984E+03  0.25500000000E-02 0.  1.
         -2   -1    0    0    0  501 -0.00000000000E+00 -0.00000000000E+00 -0.16378088098E+03  0.16378088100E+03  0.25500000000E-02 0. -1.
    5000001    1    1    2    0    0 -0.92749281172E+02 -0.12624905863E+03  0.16383648208E+03  0.29706505487E+03  0.19200000000E+03 0.  0.
   -5000001    1    1    2    0    0  0.92749281172E+02  0.12624905863E+03  0.60823026778E+02  0.25515621597E+03  0.19200000000E+03 0.  0.
<mgrwt>
<rscale>  0 0.50445658E+03</rscale>
<asrwt>0</asrwt>
<pdfrwt beam="1">  1        2 0.55491483E-01 0.50445658E+03</pdfrwt>
<pdfrwt beam="2">  1       -2 0.23397269E-01 0.50445658E+03</pdfrwt>
<totfact> 0.14399460E+03</totfact>
</mgrwt>
</event>
<event>
 4    1  0.1896644E-005  0.4738082E+03  0.7818608E-02  0.1020851E+00
         -2   -1    0    0    0  501 -0.00000000000E+00  0.00000000000E+00  0.43113105131E+02  0.43113105206E+02  0.25500000000E-02 0.  1.
          2   -1    0    0  501    0  0.00000000000E+00 -0.00000000000E+00 -0.13017745951E+04  0.13017745951E+04  0.25500000000E-02 0. -1.
    5000001    1    1    2    0    0  0.65737371876E+02 -0.46867162043E+02 -0.30892841328E+03  0.37258381268E+03  0.19200000000E+03 0.  0.
   -5000001    1    1    2    0    0 -0.65737371876E+02  0.46867162043E+02 -0.94973307666E+03  0.97230388760E+03  0.19200000000E+03 0.  0.
<mgrwt>
<rscale>  0 0.47380817E+03</rscale>
<asrwt>0</asrwt>
<pdfrwt beam="1">  1        2 0.18596777E+00 0.47380817E+03</pdfrwt>
<pdfrwt beam="2">  1       -2 0.61590158E-02 0.47380817E+03</pdfrwt>
<totfact> 0.28116019E+03</totfact>
</mgrwt>
</event>
<event>
 4    1  0.1896644E-005  0.5385161E+03  0.7818608E-02  0.1004187E+00
          2   -1    0    0  501    0  0.00000000000E+00  0.00000000000E+00  0.73876884611E+03  0.73876884612E+03  0.25500000000E-02 0.  1.
         -2   -1    0    0    0  501 -0.00000000000E+00 -0.00000000000E+00 -0.98136114720E+02  0.98136114753E+02  0.25500000000E-02 0. -1.
    5000001    1    1    2    0    0 -0.10205549789E+02  0.15491057888E+03  0.48722397271E+03  0.54621666056E+03  0.19200000000E+03 0.  0.
   -5000001    1    1    2    0    0  0.10205549789E+02 -0.15491057888E+03  0.15340875869E+03  0.29068830031E+03  0.19200000000E+03 0.  0.
<mgrwt>
<rscale>  0 0.53851613E+03</rscale>
<asrwt>0</asrwt>
<pdfrwt beam="1">  1        2 0.10553840E+00 0.53851613E+03</pdfrwt>
<pdfrwt beam="2">  1       -2 0.14019445E-01 0.53851613E+03</pdfrwt>
<totfact> 0.16520192E+03</totfact>
</mgrwt>
</event>
<event>
 4    1  0.1896644E-005  0.4778179E+03  0.7818608E-02  0.1019737E+00
          2   -1    0    0  501    0  0.00000000000E+00  0.00000000000E+00  0.10612044917E+04  0.10612044917E+04  0.25500000000E-02 0.  1.
         -2   -1    0    0    0  501 -0.00000000000E+00 -0.00000000000E+00 -0.53785559622E+02  0.53785559683E+02  0.25500000000E-02 0. -1.
    5000001    1    1    2    0    0  0.76036658447E+02 -0.11957908694E+03  0.47682388751E+03  0.53320329253E+03  0.19200000000E+03 0.  0.
   -5000001    1    1    2    0    0 -0.76036658447E+02  0.11957908694E+03  0.53059504455E+03  0.58178675884E+03  0.19200000000E+03 0.  0.
<mgrwt>
<rscale>  0 0.47781786E+03</rscale>
<asrwt>0</asrwt>
<pdfrwt beam="1">  1        2 0.15160065E+00 0.47781786E+03</pdfrwt>
<pdfrwt beam="2">  1       -2 0.76836511E-02 0.47781786E+03</pdfrwt>
<totfact> 0.27095430E+03</totfact>
</mgrwt>
</event>
<event>
 4    1  0.1896644E-005  0.8440905E+03  0.7818608E-02  0.9498303E-01
          2   -1    0    0  501    0  0.00000000000E+00  0.00000000000E+00  0.71655980523E+03  0.71655980524E+03  0.25500000000E-02 0.  1.
         -2   -1    0    0    0  501 -0.00000000000E+00 -0.00000000000E+00 -0.24857967556E+03  0.24857967557E+03  0.25500000000E-02 0. -1.
    5000001    1    1    2    0    0  0.35961723822E+03 -0.56948943119E+02  0.12739857498E+03  0.43088529454E+03  0.19200000000E+03 0.  0.
   -5000001    1    1    2    0    0 -0.35961723822E+03  0.56948943119E+02  0.34058155470E+03  0.53425418627E+03  0.19200000000E+03 0.  0.
<mgrwt>
<rscale>  0 0.84409053E+03</rscale>
<asrwt>0</asrwt>
<pdfrwt beam="1">  1        2 0.10236569E+00 0.84409053E+03</pdfrwt>
<pdfrwt beam="2">  1       -2 0.35511382E-01 0.84409053E+03</pdfrwt>
<totfact> 0.32656393E+02</totfact>
</mgrwt>
</event>
<event>
 4    1  0.1896644E-005  0.5826521E+03  0.7818608E-02  0.9942066E-01
          2   -1    0    0  501    0  0.00000000000E+00  0.00000000000E+00  0.14692224623E+03  0.14692224625E+03  0.25500000000E-02 0.  1.
         -2   -1    0    0    0  501 -0.00000000000E+00 -0.00000000000E+00 -0.57765830046E+03  0.57765830047E+03  0.25500000000E-02 0. -1.
    5000001    1    1    2    0    0  0.15794018814E+03  0.49319198386E+01 -0.40412125312E+03  0.47449701168E+03  0.19200000000E+03 0.  0.
   -5000001    1    1    2    0    0 -0.15794018814E+03 -0.49319198386E+01 -0.26614801112E+02  0.25008353505E+03  0.19200000000E+03 0.  0.
<mgrwt>
<rscale>  0 0.58265206E+03</rscale>
<asrwt>0</asrwt>
<pdfrwt beam="1">  1        2 0.20988893E-01 0.58265206E+03</pdfrwt>
<pdfrwt beam="2">  1       -2 0.82522613E-01 0.58265206E+03</pdfrwt>
<totfact> 0.34957922E+02</totfact>
</mgrwt>
</event>
<event>
 4    1  0.1896644E-005  0.4522240E+03  0.7818608E-02  0.1027061E+00
          2   -1    0    0  501    0  0.00000000000E+00  0.00000000000E+00  0.29831758597E+03  0.29831758598E+03  0.25500000000E-02 0.  1.
         -2   -1    0    0    0  501 -0.00000000000E+00 -0.00000000000E+00 -0.17138326395E+03  0.17138326397E+03  0.25500000000E-02 0. -1.
    5000001    1    1    2    0    0  0.76497126892E+01  0.11880696884E+03  0.53667069407E+02  0.23220199889E+03  0.19200000000E+03 0.  0.
   -5000001    1    1    2    0    0 -0.76497126892E+01 -0.11880696884E+03  0.73267252612E+02  0.23749885106E+03  0.19200000000E+03 0.  0.
<mgrwt>
<rscale>  0 0.45222402E+03</rscale>
<asrwt>0</asrwt>
<pdfrwt beam="1">  1        2 0.42616797E-01 0.45222402E+03</pdfrwt>
<pdfrwt beam="2">  1       -2 0.24483324E-01 0.45222402E+03</pdfrwt>
<totfact> 0.17738332E+03</totfact>
</mgrwt>
</event>
<event>
 4    1  0.1896644E-005  0.7171136E+03  0.7818608E-02  0.9688405E-01
         -2   -1    0    0    0  501 -0.00000000000E+00  0.00000000000E+00  0.41880763621E+02  0.41880763699E+02  0.25500000000E-02 0. -1.
          2   -1    0    0  501    0  0.00000000000E+00 -0.00000000000E+00 -0.30697383715E+04  0.30697383715E+04  0.25500000000E-02 0.  1.
    5000001    1    1    2    0    0 -0.18748978096E+03  0.23567620155E+03 -0.13764887612E+04  0.14220692668E+04  0.19200000000E+03 0.  0.
   -5000001    1    1    2    0    0  0.18748978096E+03 -0.23567620155E+03 -0.16513688467E+04  0.16895498684E+04  0.19200000000E+03 0.  0.
<mgrwt>
<rscale>  0 0.71711362E+03</rscale>
<asrwt>0</asrwt>
<pdfrwt beam="1">  1        2 0.43853391E+00 0.71711362E+03</pdfrwt>
<pdfrwt beam="2">  1       -2 0.59829682E-02 0.71711362E+03</pdfrwt>
<totfact> 0.35397068E+02</totfact>
</mgrwt>
</event>
<event>
 4    1  0.1896644E-005  0.6092052E+03  0.7818608E-02  0.9886490E-01
         -2   -1    0    0    0  501 -0.00000000000E+00  0.00000000000E+00  0.25716313893E+02  0.25716314019E+02  0.25500000000E-02 0. -1.
          2   -1    0    0  501    0  0.00000000000E+00 -0.00000000000E+00 -0.36079333287E+04  0.36079333287E+04  0.25500000000E-02 0.  1.
    5000001    1    1    2    0    0 -0.13755845515E+03  0.17438265367E+03 -0.22751993044E+04  0.22940635373E+04  0.19200000000E+03 0.  0.
   -5000001    1    1    2    0    0  0.13755845515E+03 -0.17438265367E+03 -0.13070177104E+04  0.13395861054E+04  0.19200000000E+03 0.  0.
<mgrwt>
<rscale>  0 0.60920521E+03</rscale>
<asrwt>0</asrwt>
<pdfrwt beam="1">  1        2 0.51541873E+00 0.60920521E+03</pdfrwt>
<pdfrwt beam="2">  1       -2 0.36737614E-02 0.60920521E+03</pdfrwt>
<totfact> 0.37271551E+02</totfact>
</mgrwt>
</event>
<event>
 4    1  0.1896644E-005  0.5994740E+03  0.7818608E-02  0.9906498E-01
          2   -1    0    0  501    0  0.00000000000E+00  0.00000000000E+00  0.20112819885E+04  0.20112819885E+04  0.25500000000E-02 0.  1.
         -2   -1    0    0    0  501 -0.00000000000E+00 -0.00000000000E+00 -0.44669149718E+02  0.44669149790E+02  0.25500000000E-02 0. -1.
    5000001    1    1    2    0    0 -0.42251306513E+02 -0.22116884369E+03  0.81963810579E+03  0.87141921874E+03  0.19200000000E+03 0.  0.
   -5000001    1    1    2    0    0  0.42251306513E+02  0.22116884369E+03  0.11469747330E+04  0.11845319196E+04  0.19200000000E+03 0.  0.
<mgrwt>
<rscale>  0 0.59947396E+03</rscale>
<asrwt>0</asrwt>
<pdfrwt beam="1">  1        2 0.28732596E+00 0.59947396E+03</pdfrwt>
<pdfrwt beam="2">  1       -2 0.63813080E-02 0.59947396E+03</pdfrwt>
<totfact> 0.11466783E+03</totfact>
</mgrwt>
</event>
<event>
 4    1  0.1896644E-005  0.7941289E+03  0.7818608E-02  0.9568554E-01
         -2   -1    0    0    0  501 -0.00000000000E+00  0.00000000000E+00  0.21922046664E+03  0.21922046666E+03  0.25500000000E-02 0. -1.
          2   -1    0    0  501    0  0.00000000000E+00 -0.00000000000E+00 -0.71918550450E+03  0.71918550450E+03  0.25500000000E-02 0.  1.
    5000001    1    1    2    0    0  0.59952584655E+02 -0.30663560312E+03 -0.70085709938E+02  0.37335735194E+03  0.19200000000E+03 0.  0.
   -5000001    1    1    2    0    0 -0.59952584655E+02  0.30663560312E+03 -0.42987932792E+03  0.56504861922E+03  0.19200000000E+03 0.  0.
<mgrwt>
<rscale>  0 0.79412891E+03</rscale>
<asrwt>0</asrwt>
<pdfrwt beam="1">  1        2 0.10274079E+00 0.79412891E+03</pdfrwt>
<pdfrwt beam="2">  1       -2 0.31317210E-01 0.79412891E+03</pdfrwt>
<totfact> 0.41297340E+02</totfact>
</mgrwt>
</event>
<event>
 4    1  0.1896644E-005  0.4612011E+03  0.7818608E-02  0.1024433E+00
         -2   -1    0    0    0  501 -0.00000000000E+00  0.00000000000E+00  0.16941867820E+03  0.16941867822E+03  0.25500000000E-02 0. -1.
          2   -1    0    0  501    0  0.00000000000E+00 -0.00000000000E+00 -0.31387686487E+03  0.31387686488E+03  0.25500000000E-02 0.  1.
    5000001    1    1    2    0    0  0.74317988769E+01  0.86007469891E+02  0.26408278383E+02  0.21216482668E+03  0.19200000000E+03 0.  0.
   -5000001    1    1    2    0    0 -0.74317988769E+01 -0.86007469891E+02 -0.17086646505E+03  0.27113071642E+03  0.19200000000E+03 0.  0.
<mgrwt>
<rscale>  0 0.46120106E+03</rscale>
<asrwt>0</asrwt>
<pdfrwt beam="1">  1        2 0.44839552E-01 0.46120106E+03</pdfrwt>
<pdfrwt beam="2">  1       -2 0.24202668E-01 0.46120106E+03</pdfrwt>
<totfact> 0.17128636E+03</totfact>
</mgrwt>
</event>
<event>
 4    1  0.1896644E-005  0.9215507E+03  0.7818608E-02  0.9399036E-01
         -2   -1    0    0    0  501 -0.00000000000E+00  0.00000000000E+00  0.74059451965E+02  0.74059452008E+02  0.25500000000E-02 0. -1.
          2   -1    0    0  501    0  0.00000000000E+00 -0.00000000000E+00 -0.28668041737E+04  0.28668041737E+04  0.25500000000E-02 0.  1.
    5000001    1    1    2    0    0 -0.15630952666E+03 -0.37208560303E+03 -0.17541523496E+04  0.18101919317E+04  0.19200000000E+03 0.  0.
   -5000001    1    1    2    0    0  0.15630952666E+03  0.37208560303E+03 -0.10385923722E+04  0.11306716940E+04  0.19200000000E+03 0.  0.
<mgrwt>
<rscale>  0 0.92155075E+03</rscale>
<asrwt>0</asrwt>
<pdfrwt beam="1">  1        2 0.40954338E+00 0.92155075E+03</pdfrwt>
<pdfrwt beam="2">  1       -2 0.10579924E-01 0.92155075E+03</pdfrwt>
<totfact> 0.17967760E+02</totfact>
</mgrwt>
</event>
<event>
 4    1  0.1896644E-005  0.4461224E+03  0.7818608E-02  0.1028885E+00
          2   -1    0    0  501    0  0.00000000000E+00  0.00000000000E+00  0.53550172459E+02  0.53550172520E+02  0.25500000000E-02 0.  1.
         -2   -1    0    0    0  501 -0.00000000000E+00 -0.00000000000E+00 -0.92915300994E+03  0.92915300995E+03  0.25500000000E-02 0. -1.
    5000001    1    1    2    0    0 -0.33137801076E+02  0.10722315899E+03 -0.39981509124E+03  0.45750522059E+03  0.19200000000E+03 0.  0.
   -5000001    1    1    2    0    0  0.33137801076E+02 -0.10722315899E+03 -0.47578774624E+03  0.52519796188E+03  0.19200000000E+03 0.  0.
<mgrwt>
<rscale>  0 0.44612242E+03</rscale>
<asrwt>0</asrwt>
<pdfrwt beam="1">  1        2 0.76500252E-02 0.44612242E+03</pdfrwt>
<pdfrwt beam="2">  1       -2 0.13273613E+00 0.44612242E+03</pdfrwt>
<totfact> 0.39166988E+02</totfact>
</mgrwt>
</event>
<event>
 4    1  0.1896644E-005  0.6508103E+03  0.7818608E-02  0.9805260E-01
         -2   -1    0    0    0  501 -0.00000000000E+00  0.00000000000E+00  0.44204559309E+02  0.44204559383E+02  0.25500000000E-02 0.  1.
          2   -1    0    0  501    0  0.00000000000E+00 -0.00000000000E+00 -0.23954202650E+04  0.23954202650E+04  0.25500000000E-02 0. -1.
    5000001    1    1    2    0    0  0.80815139713E+01 -0.24590452692E+03 -0.83020466752E+03  0.88692622985E+03  0.19200000000E+03 0.  0.
   -5000001    1    1    2    0    0 -0.80815139713E+01  0.24590452692E+03 -0.15210110382E+04  0.15526985946E+04  0.19200000000E+03 0.  0.
<mgrwt>
<rscale>  0 0.65081026E+03</rscale>
<asrwt>0</asrwt>
<pdfrwt beam="1">  1        2 0.34220281E+00 0.65081026E+03</pdfrwt>
<pdfrwt beam="2">  1       -2 0.63149386E-02 0.65081026E+03</pdfrwt>
<totfact> 0.74325269E+02</totfact>
</mgrwt>
</event>
<event>
 4    1  0.1896644E-005  0.9947987E+03  0.7818608E-02  0.9314268E-01
         -2   -1    0    0    0  501 -0.00000000000E+00  0.00000000000E+00  0.56892494263E+02  0.56892494320E+02  0.25500000000E-02 0. -1.
          2   -1    0    0  501    0  0.00000000000E+00 -0.00000000000E+00 -0.43486600156E+04  0.43486600156E+04  0.25500000000E-02 0.  1.
    5000001    1    1    2    0    0  0.34697081339E+03 -0.23905437957E+03 -0.29504542062E+04  0.29865665512E+04  0.19200000000E+03 0.  0.
   -5000001    1    1    2    0    0 -0.34697081339E+03  0.23905437957E+03 -0.13413133151E+04  0.14189859587E+04  0.19200000000E+03 0.  0.
<mgrwt>
<rscale>  0 0.99479870E+03</rscale>
<asrwt>0</asrwt>
<pdfrwt beam="1">  1        2 0.62123693E+00 0.99479870E+03</pdfrwt>
<pdfrwt beam="2">  1       -2 0.81275020E-02 0.99479870E+03</pdfrwt>
<totfact> 0.32502947E+01</totfact>
</mgrwt>
</event>
<event>
 4    1  0.1896644E-005  0.5734936E+03  0.7818608E-02  0.9961978E-01
          2   -1    0    0  501    0  0.00000000000E+00  0.00000000000E+00  0.66771603643E+03  0.66771603643E+03  0.25500000000E-02 0.  1.
         -2   -1    0    0    0  501 -0.00000000000E+00 -0.00000000000E+00 -0.12314173897E+03  0.12314173900E+03  0.25500000000E-02 0. -1.
    5000001    1    1    2    0    0  0.16126460191E+03  0.13225148834E+03  0.33180875323E+03  0.43641468435E+03  0.19200000000E+03 0.  0.
   -5000001    1    1    2    0    0 -0.16126460191E+03 -0.13225148834E+03  0.21276554423E+03  0.35444309108E+03  0.19200000000E+03 0.  0.
<mgrwt>
<rscale>  0 0.57349355E+03</rscale>
<asrwt>0</asrwt>
<pdfrwt beam="1">  1        2 0.95388006E-01 0.57349355E+03</pdfrwt>
<pdfrwt beam="2">  1       -2 0.17591677E-01 0.57349355E+03</pdfrwt>
<totfact> 0.12736857E+03</totfact>
</mgrwt>
</event>
<event>
 4    1  0.1896644E-005  0.5887800E+03  0.7818608E-02  0.9928961E-01
          2   -1    0    0  501    0  0.00000000000E+00  0.00000000000E+00  0.42896094433E+03  0.42896094434E+03  0.25500000000E-02 0.  1.
         -2   -1    0    0    0  501 -0.00000000000E+00 -0.00000000000E+00 -0.20203583890E+03  0.20203583891E+03  0.25500000000E-02 0. -1.
    5000001    1    1    2    0    0 -0.18673474986E+03 -0.12083536964E+03  0.93981411959E+02  0.30849239724E+03  0.19200000000E+03 0.  0.
   -5000001    1    1    2    0    0  0.18673474986E+03  0.12083536964E+03  0.13294369347E+03  0.32250438601E+03  0.19200000000E+03 0.  0.
<mgrwt>
<rscale>  0 0.58878004E+03</rscale>
<asrwt>0</asrwt>
<pdfrwt beam="1">  1        2 0.61280134E-01 0.58878004E+03</pdfrwt>
<pdfrwt beam="2">  1       -2 0.28862263E-01 0.58878004E+03</pdfrwt>
<totfact> 0.88318234E+02</totfact>
</mgrwt>
</event>
<event>
 4    1  0.1896644E-005  0.5078708E+03  0.7818608E-02  0.1011745E+00
          2   -1    0    0  501    0  0.00000000000E+00  0.00000000000E+00  0.22429334834E+04  0.22429334834E+04  0.25500000000E-02 0.  1.
         -2   -1    0    0    0  501 -0.00000000000E+00 -0.00000000000E+00 -0.28749483751E+02  0.28749483864E+02  0.25500000000E-02 0. -1.
    5000001    1    1    2    0    0  0.11310181347E+03  0.51379702056E+02  0.61329550546E+03  0.65454355929E+03  0.19200000000E+03 0.  0.
   -5000001    1    1    2    0    0 -0.11310181347E+03 -0.51379702056E+02  0.16008884941E+04  0.16171394079E+04  0.19200000000E+03 0.  0.
<mgrwt>
<rscale>  0 0.50787077E+03</rscale>
<asrwt>0</asrwt>
<pdfrwt beam="1">  1        2 0.32041901E+00 0.50787077E+03</pdfrwt>
<pdfrwt beam="2">  1       -2 0.41070699E-02 0.50787077E+03</pdfrwt>
<totfact> 0.17467007E+03</totfact>
</mgrwt>
</event>
<event>
 4    1  0.1896644E-005  0.4499221E+03  0.7818608E-02  0.1027745E+00
          2   -1    0    0  501    0  0.00000000000E+00  0.00000000000E+00  0.19566808565E+03  0.19566808567E+03  0.25500000000E-02 0.  1.
         -2   -1    0    0    0  501 -0.00000000000E+00 -0.00000000000E+00 -0.25863937018E+03  0.25863937019E+03  0.25500000000E-02 0. -1.
    5000001    1    1    2    0    0 -0.47406923901E+02 -0.11326640538E+02 -0.13914456380E+03  0.24207626661E+03  0.19200000000E+03 0.  0.
   -5000001    1    1    2    0    0  0.47406923901E+02  0.11326640538E+02  0.76173279270E+02  0.21223118926E+03  0.19200000000E+03 0.  0.
<mgrwt>
<rscale>  0 0.44992208E+03</rscale>
<asrwt>0</asrwt>
<pdfrwt beam="1">  1        2 0.27952584E-01 0.44992208E+03</pdfrwt>
<pdfrwt beam="2">  1       -2 0.36948481E-01 0.44992208E+03</pdfrwt>
<totfact> 0.13268900E+03</totfact>
</mgrwt>
</event>
<event>
 4    1  0.1896644E-005  0.7914454E+03  0.7818608E-02  0.9572483E-01
         -2   -1    0    0    0  501 -0.00000000000E+00  0.00000000000E+00  0.21258862834E+03  0.21258862835E+03  0.25500000000E-02 0. -1.
          2   -1    0    0  501    0  0.00000000000E+00 -0.00000000000E+00 -0.73661724465E+03  0.73661724465E+03  0.25500000000E-02 0.  1.
    5000001    1    1    2    0    0  0.34537295699E+03  0.17296484278E+02 -0.24728634041E+03  0.46647205912E+03  0.19200000000E+03 0.  0.
   -5000001    1    1    2    0    0 -0.34537295699E+03 -0.17296484278E+02 -0.27674227591E+03  0.48273381388E+03  0.19200000000E+03 0.  0.
<mgrwt>
<rscale>  0 0.79144539E+03</rscale>
<asrwt>0</asrwt>
<pdfrwt beam="1">  1        2 0.10523103E+00 0.79144539E+03</pdfrwt>
<pdfrwt beam="2">  1       -2 0.30369805E-01 0.79144539E+03</pdfrwt>
<totfact> 0.42446673E+02</totfact>
</mgrwt>
</event>
<event>
 4    1  0.1896644E-005  0.5292522E+03  0.7818608E-02  0.1006414E+00
         -2   -1    0    0    0  501 -0.00000000000E+00  0.00000000000E+00  0.37083603004E+02  0.37083603092E+02  0.25500000000E-02 0. -1.
          2   -1    0    0  501    0  0.00000000000E+00 -0.00000000000E+00 -0.18883541519E+04  0.18883541519E+04  0.25500000000E-02 0.  1.
    5000001    1    1    2    0    0  0.16046878952E+03 -0.84824968697E+02 -0.87198591455E+03  0.91113607266E+03  0.19200000000E+03 0.  0.
   -5000001    1    1    2    0    0 -0.16046878952E+03  0.84824968697E+02 -0.97928463429E+03  0.10143016823E+04  0.19200000000E+03 0.  0.
<mgrwt>
<rscale>  0 0.52925221E+03</rscale>
<asrwt>0</asrwt>
<pdfrwt beam="1">  1        2 0.26976482E+00 0.52925221E+03</pdfrwt>
<pdfrwt beam="2">  1       -2 0.52976588E-02 0.52925221E+03</pdfrwt>
<totfact> 0.17731282E+03</totfact>
</mgrwt>
</event>
<event>
 4    1  0.1896644E-005  0.4554293E+03  0.7818608E-02  0.1026115E+00
         -2   -1    0    0    0  501 -0.00000000000E+00  0.00000000000E+00  0.22082188737E+02  0.22082188884E+02  0.25500000000E-02 0. -1.
          2   -1    0    0  501    0  0.00000000000E+00 -0.00000000000E+00 -0.23482251230E+04  0.23482251230E+04  0.25500000000E-02 0.  1.
    5000001    1    1    2    0    0  0.27469571729E+02  0.11788596006E+03 -0.10673481409E+04  0.10912138795E+04  0.19200000000E+03 0.  0.
   -5000001    1    1    2    0    0 -0.27469571729E+02 -0.11788596006E+03 -0.12587947933E+04  0.12790934324E+04  0.19200000000E+03 0.  0.
<mgrwt>
<rscale>  0 0.45542925E+03</rscale>
<asrwt>0</asrwt>
<pdfrwt beam="1">  1        2 0.33546058E+00 0.45542925E+03</pdfrwt>
<pdfrwt beam="2">  1       -2 0.31545999E-02 0.45542925E+03</pdfrwt>
<totfact> 0.23171990E+03</totfact>
</mgrwt>
</event>
<event>
 4    1  0.1896644E-005  0.4529726E+03  0.7818608E-02  0.1026839E+00
          2   -1    0    0  501    0  0.00000000000E+00  0.00000000000E+00  0.17250678042E+04  0.17250678042E+04  0.25500000000E-02 0.  1.
         -2   -1    0    0    0  501 -0.00000000000E+00 -0.00000000000E+00 -0.29735668715E+02  0.29735668824E+02  0.25500000000E-02 0. -1.
    5000001    1    1    2    0    0 -0.19588893310E+02 -0.10845565867E+03  0.10328764091E+04  0.10563351888E+04  0.19200000000E+03 0.  0.
   -5000001    1    1    2    0    0  0.19588893310E+02  0.10845565867E+03  0.66245572639E+03  0.69846828423E+03  0.19200000000E+03 0.  0.
<mgrwt>
<rscale>  0 0.45297260E+03</rscale>
<asrwt>0</asrwt>
<pdfrwt beam="1">  1        2 0.24643828E+00 0.45297260E+03</pdfrwt>
<pdfrwt beam="2">  1       -2 0.42479522E-02 0.45297260E+03</pdfrwt>
<totfact> 0.30154662E+03</totfact>
</mgrwt>
</event>
<event>
 4    1  0.1896644E-005  0.5075567E+03  0.7818608E-02  0.1011825E+00
         -2   -1    0    0    0  501 -0.00000000000E+00  0.00000000000E+00  0.38348643653E+03  0.38348643654E+03  0.25500000000E-02 0. -1.
          2   -1    0    0  501    0  0.00000000000E+00 -0.00000000000E+00 -0.16794194749E+03  0.16794194751E+03  0.25500000000E-02 0.  1.
    5000001    1    1    2    0    0  0.13211062612E+03  0.19046890861E+02  0.21490317648E+03  0.31758995080E+03  0.19200000000E+03 0.  0.
   -5000001    1    1    2    0    0 -0.13211062612E+03 -0.19046890861E+02  0.64131256502E+00  0.23383843325E+03  0.19200000000E+03 0.  0.
<mgrwt>
<rscale>  0 0.50755673E+03</rscale>
<asrwt>0</asrwt>
<pdfrwt beam="1">  1        2 0.23991707E-01 0.50755673E+03</pdfrwt>
<pdfrwt beam="2">  1       -2 0.54783776E-01 0.50755673E+03</pdfrwt>
<totfact> 0.72423594E+02</totfact>
</mgrwt>
</event>
<event>
 4    1  0.1896644E-005  0.5046526E+03  0.7818608E-02  0.1012572E+00
          2   -1    0    0  501    0  0.00000000000E+00  0.00000000000E+00  0.23548298723E+03  0.23548298725E+03  0.25500000000E-02 0.  1.
         -2   -1    0    0    0  501 -0.00000000000E+00 -0.00000000000E+00 -0.27037433585E+03  0.27037433586E+03  0.25500000000E-02 0. -1.
    5000001    1    1    2    0    0 -0.16259714713E+03 -0.17377144214E+02 -0.93791725684E+01  0.25237227715E+03  0.19200000000E+03 0.  0.
   -5000001    1    1    2    0    0  0.16259714713E+03  0.17377144214E+02 -0.25512176045E+02  0.25348504596E+03  0.19200000000E+03 0.  0.
<mgrwt>
<rscale>  0 0.50465258E+03</rscale>
<asrwt>0</asrwt>
<pdfrwt beam="1">  1        2 0.33640427E-01 0.50465258E+03</pdfrwt>
<pdfrwt beam="2">  1       -2 0.38624905E-01 0.50465258E+03</pdfrwt>
<totfact> 0.99192659E+02</totfact>
</mgrwt>
</event>
<event>
 4    1  0.1896644E-005  0.7656272E+03  0.7818608E-02  0.9611148E-01
         -2   -1    0    0    0  501 -0.00000000000E+00  0.00000000000E+00  0.10294167966E+03  0.10294167969E+03  0.25500000000E-02 0. -1.
          2   -1    0    0  501    0  0.00000000000E+00 -0.00000000000E+00 -0.14235851589E+04  0.14235851590E+04  0.25500000000E-02 0.  1.
    5000001    1    1    2    0    0 -0.30394119408E+03 -0.93231520823E+02 -0.84532768470E+03  0.92331752960E+03  0.19200000000E+03 0.  0.
   -5000001    1    1    2    0    0  0.30394119408E+03  0.93231520823E+02 -0.47531579459E+03  0.60320930905E+03  0.19200000000E+03 0.  0.
<mgrwt>
<rscale>  0 0.76562719E+03</rscale>
<asrwt>0</asrwt>
<pdfrwt beam="1">  1        2 0.20336930E+00 0.76562719E+03</pdfrwt>
<pdfrwt beam="2">  1       -2 0.14705955E-01 0.76562719E+03</pdfrwt>
<totfact> 0.58651366E+02</totfact>
</mgrwt>
</event>
<event>
 4    1  0.1896644E-005  0.5236561E+03  0.7818608E-02  0.1007782E+00
         -2   -1    0    0    0  501 -0.00000000000E+00  0.00000000000E+00  0.97899586403E+02  0.97899586436E+02  0.25500000000E-02 0. -1.
          2   -1    0    0  501    0  0.00000000000E+00 -0.00000000000E+00 -0.70024725526E+03  0.70024725526E+03  0.25500000000E-02 0.  1.
    5000001    1    1    2    0    0 -0.15827857080E+03 -0.20733412076E+02 -0.18108288046E+03  0.30844284713E+03  0.19200000000E+03 0.  0.
   -5000001    1    1    2    0    0  0.15827857080E+03  0.20733412076E+02 -0.42126478839E+03  0.48970399456E+03  0.19200000000E+03 0.  0.
<mgrwt>
<rscale>  0 0.52365606E+03</rscale>
<asrwt>0</asrwt>
<pdfrwt beam="1">  1        2 0.10003532E+00 0.52365606E+03</pdfrwt>
<pdfrwt beam="2">  1       -2 0.13985656E-01 0.52365606E+03</pdfrwt>
<totfact> 0.17715315E+03</totfact>
</mgrwt>
</event>
<event>
 4    1  0.1896644E-005  0.7699111E+03  0.7818608E-02  0.9604621E-01
          2   -1    0    0  501    0  0.00000000000E+00  0.00000000000E+00  0.10480061656E+04  0.10480061657E+04  0.25500000000E-02 0.  1.
         -2   -1    0    0    0  501 -0.00000000000E+00 -0.00000000000E+00 -0.14140256568E+03  0.14140256571E+03  0.25500000000E-02 0. -1.
    5000001    1    1    2    0    0  0.17970199728E+03 -0.18570896343E+03  0.77936033384E+03  0.84323612167E+03  0.19200000000E+03 0.  0.
   -5000001    1    1    2    0    0 -0.17970199728E+03  0.18570896343E+03  0.12724326613E+03  0.34617260969E+03  0.19200000000E+03 0.  0.
<mgrwt>
<rscale>  0 0.76991106E+03</rscale>
<asrwt>0</asrwt>
<pdfrwt beam="1">  1        2 0.14971517E+00 0.76991106E+03</pdfrwt>
<pdfrwt beam="2">  1       -2 0.20200366E-01 0.76991106E+03</pdfrwt>
<totfact> 0.55224905E+02</totfact>
</mgrwt>
</event>
<event>
 4    1  0.1896644E-005  0.4337785E+03  0.7818608E-02  0.1032673E+00
          2   -1    0    0  501    0  0.00000000000E+00  0.00000000000E+00  0.42874925104E+03  0.42874925105E+03  0.25500000000E-02 0.  1.
         -2   -1    0    0    0  501 -0.00000000000E+00 -0.00000000000E+00 -0.10971669486E+03  0.10971669489E+03  0.25500000000E-02 0. -1.
    5000001    1    1    2    0    0 -0.10079888802E+03 -0.36927316495E+01  0.16162971370E+03  0.27048515014E+03  0.19200000000E+03 0.  0.
   -5000001    1    1    2    0    0  0.10079888802E+03  0.36927316495E+01  0.15740284248E+03  0.26798079579E+03  0.19200000000E+03 0.  0.
<mgrwt>
<rscale>  0 0.43377852E+03</rscale>
<asrwt>0</asrwt>
<pdfrwt beam="1">  1        2 0.61249894E-01 0.43377852E+03</pdfrwt>
<pdfrwt beam="2">  1       -2 0.15673813E-01 0.43377852E+03</pdfrwt>
<totfact> 0.25723517E+03</totfact>
</mgrwt>
</event>
<event>
 4    1  0.1896644E-005  0.3877563E+03  0.7818608E-02  0.1048104E+00
          2   -1    0    0  501    0  0.00000000000E+00  0.00000000000E+00  0.53391647232E+03  0.53391647233E+03  0.25500000000E-02 0.  1.
         -2   -1    0    0    0  501 -0.00000000000E+00 -0.00000000000E+00 -0.70401916520E+02  0.70401916566E+02  0.25500000000E-02 0. -1.
    5000001    1    1    2    0    0  0.13220452690E+02 -0.16522161524E+02  0.25769499189E+03  0.32205352201E+03  0.19200000000E+03 0.  0.
   -5000001    1    1    2    0    0 -0.13220452690E+02  0.16522161524E+02  0.20581956391E+03  0.28226486689E+03  0.19200000000E+03 0.  0.
<mgrwt>
<rscale>  0 0.38775633E+03</rscale>
<asrwt>0</asrwt>
<pdfrwt beam="1">  1        2 0.76273782E-01 0.38775633E+03</pdfrwt>
<pdfrwt beam="2">  1       -2 0.10057417E-01 0.38775633E+03</pdfrwt>
<totfact> 0.41595619E+03</totfact>
</mgrwt>
</event>
<event>
 4    1  0.1896644E-005  0.2147672E+04  0.7818608E-02  0.8540529E-01
          2   -1    0    0  501    0  0.00000000000E+00  0.00000000000E+00  0.25212965206E+04  0.25212965206E+04  0.25500000000E-02 0.  1.
         -2   -1    0    0    0  501 -0.00000000000E+00 -0.00000000000E+00 -0.45735363074E+03  0.45735363074E+03  0.25500000000E-02 0. -1.
    5000001    1    1    2    0    0 -0.91872246786E+03  0.10543528172E+03  0.32329383666E+03  0.99827374823E+03  0.19200000000E+03 0.  0.
   -5000001    1    1    2    0    0  0.91872246786E+03 -0.10543528172E+03  0.17406490532E+04  0.19803764031E+04  0.19200000000E+03 0.  0.
<mgrwt>
<rscale>  0 0.21476723E+04</rscale>
<asrwt>0</asrwt>
<pdfrwt beam="1">  1        2 0.36018520E+00 0.21476723E+04</pdfrwt>
<pdfrwt beam="2">  1       -2 0.65336235E-01 0.21476723E+04</pdfrwt>
<totfact> 0.85482349E+00</totfact>
</mgrwt>
</event>
<event>
 4    1  0.1896644E-005  0.5867762E+03  0.7818608E-02  0.9933228E-01
         -2   -1    0    0    0  501 -0.00000000000E+00  0.00000000000E+00  0.36700442638E+02  0.36700442726E+02  0.25500000000E-02 0. -1.
          2   -1    0    0  501    0  0.00000000000E+00 -0.00000000000E+00 -0.23453823558E+04  0.23453823558E+04  0.25500000000E-02 0.  1.
    5000001    1    1    2    0    0  0.18022272494E+03  0.98387237674E+02 -0.81342328800E+03  0.86062867985E+03  0.19200000000E+03 0.  0.
   -5000001    1    1    2    0    0 -0.18022272494E+03 -0.98387237674E+02 -0.14952586252E+04  0.15214541187E+04  0.19200000000E+03 0.  0.
<mgrwt>
<rscale>  0 0.58677618E+03</rscale>
<asrwt>0</asrwt>
<pdfrwt beam="1">  1        2 0.33505453E+00 0.58677618E+03</pdfrwt>
<pdfrwt beam="2">  1       -2 0.52429219E-02 0.58677618E+03</pdfrwt>
<totfact> 0.10588700E+03</totfact>
</mgrwt>
</event>
<event>
 4    1  0.1896644E-005  0.7095776E+03  0.7818608E-02  0.9700992E-01
         -2   -1    0    0    0  501 -0.00000000000E+00  0.00000000000E+00  0.15719708063E+03  0.15719708065E+03  0.25500000000E-02 0. -1.
          2   -1    0    0  501    0  0.00000000000E+00 -0.00000000000E+00 -0.80074695858E+03  0.80074695858E+03  0.25500000000E-02 0.  1.
    5000001    1    1    2    0    0  0.24435148624E+03 -0.64834944551E+02 -0.10789209383E+03  0.33528483827E+03  0.19200000000E+03 0.  0.
   -5000001    1    1    2    0    0 -0.24435148624E+03  0.64834944551E+02 -0.53565778412E+03  0.62265920096E+03  0.19200000000E+03 0.  0.
<mgrwt>
<rscale>  0 0.70957758E+03</rscale>
<asrwt>0</asrwt>
<pdfrwt beam="1">  1        2 0.11439242E+00 0.70957758E+03</pdfrwt>
<pdfrwt beam="2">  1       -2 0.22456726E-01 0.70957758E+03</pdfrwt>
<totfact> 0.66217235E+02</totfact>
</mgrwt>
</event>
<event>
 4    1  0.1896644E-005  0.5607674E+03  0.7818608E-02  0.9990320E-01
          2   -1    0    0  501    0  0.00000000000E+00  0.00000000000E+00  0.33598252399E+03  0.33598252400E+03  0.25500000000E-02 0.  1.
         -2   -1    0    0    0  501 -0.00000000000E+00 -0.00000000000E+00 -0.23398544883E+03  0.23398544884E+03  0.25500000000E-02 0. -1.
    5000001    1    1    2    0    0  0.16086664250E+03 -0.12422005292E+03  0.72375090666E+02  0.28880936959E+03  0.19200000000E+03 0.  0.
   -5000001    1    1    2    0    0 -0.16086664250E+03  0.12422005292E+03  0.29621984492E+02  0.28115860325E+03  0.19200000000E+03 0.  0.
<mgrwt>
<rscale>  0 0.56076741E+03</rscale>
<asrwt>0</asrwt>
<pdfrwt beam="1">  1        2 0.47997503E-01 0.56076741E+03</pdfrwt>
<pdfrwt beam="2">  1       -2 0.33426493E-01 0.56076741E+03</pdfrwt>
<totfact> 0.88178049E+02</totfact>
</mgrwt>
</event>
<event>
 4    1  0.1896644E-005  0.7067980E+03  0.7818608E-02  0.9705677E-01
          2   -1    0    0  501    0  0.00000000000E+00  0.00000000000E+00  0.50047933286E+02  0.50047933351E+02  0.25500000000E-02 0.  1.
         -2   -1    0    0    0  501 -0.00000000000E+00 -0.00000000000E+00 -0.24954249515E+04  0.24954249515E+04  0.25500000000E-02 0. -1.
    5000001    1    1    2    0    0 -0.12226381895E+03 -0.22854096287E+03 -0.70269298803E+03  0.77318875351E+03  0.19200000000E+03 0.  0.
   -5000001    1    1    2    0    0  0.12226381895E+03  0.22854096287E+03 -0.17426840302E+04  0.17722841314E+04  0.19200000000E+03 0.  0.
<mgrwt>
<rscale>  0 0.70679802E+03</rscale>
<asrwt>0</asrwt>
<pdfrwt beam="1">  1        2 0.71497063E-02 0.70679802E+03</pdfrwt>
<pdfrwt beam="2">  1       -2 0.35648920E+00 0.70679802E+03</pdfrwt>
<totfact> 0.15430404E+01</totfact>
</mgrwt>
</event>
<event>
 4    1  0.1896644E-005  0.4109491E+03  0.7818608E-02  0.1040053E+00
         -2   -1    0    0    0  501 -0.00000000000E+00  0.00000000000E+00  0.17208239267E+03  0.17208239269E+03  0.25500000000E-02 0.  1.
          2   -1    0    0  501    0  0.00000000000E+00 -0.00000000000E+00 -0.24534641303E+03  0.24534641304E+03  0.25500000000E-02 0. -1.
    5000001    1    1    2    0    0 -0.33937655667E+02 -0.62213493413E+02 -0.18081675773E+02  0.20545858520E+03  0.19200000000E+03 0.  0.
   -5000001    1    1    2    0    0  0.33937655667E+02  0.62213493413E+02 -0.55182344587E+02  0.21197022052E+03  0.19200000000E+03 0.  0.
<mgrwt>
<rscale>  0 0.41094913E+03</rscale>
<asrwt>0</asrwt>
<pdfrwt beam="1">  1        2 0.35049488E-01 0.41094913E+03</pdfrwt>
<pdfrwt beam="2">  1       -2 0.24583199E-01 0.41094913E+03</pdfrwt>
<totfact> 0.21798965E+03</totfact>
</mgrwt>
</event>
<event>
 4    1  0.1896644E-005  0.4731405E+03  0.7818608E-02  0.1021038E+00
          2   -1    0    0  501    0  0.00000000000E+00  0.00000000000E+00  0.81919741443E+03  0.81919741444E+03  0.25500000000E-02 0.  1.
         -2   -1    0    0    0  501 -0.00000000000E+00 -0.00000000000E+00 -0.68317459705E+02  0.68317459753E+02  0.25500000000E-02 0. -1.
    5000001    1    1    2    0    0 -0.88506377320E+02 -0.95246577231E+02  0.28753344321E+03  0.36938431243E+03  0.19200000000E+03 0.  0.
   -5000001    1    1    2    0    0  0.88506377320E+02  0.95246577231E+02  0.46334651151E+03  0.51813056176E+03  0.19200000000E+03 0.  0.
<mgrwt>
<rscale>  0 0.47314051E+03</rscale>
<asrwt>0</asrwt>
<pdfrwt beam="1">  1        2 0.11702820E+00 0.47314051E+03</pdfrwt>
<pdfrwt beam="2">  1       -2 0.97596369E-02 0.47314051E+03</pdfrwt>
<totfact> 0.26240175E+03</totfact>
</mgrwt>
</event>
<event>
 4    1  0.1896644E-005  0.5620185E+03  0.7818608E-02  0.9987498E-01
         -2   -1    0    0    0  501 -0.00000000000E+00  0.00000000000E+00  0.61702697698E+03  0.61702697698E+03  0.25500000000E-02 0. -1.
          2   -1    0    0  501    0  0.00000000000E+00 -0.00000000000E+00 -0.12797851839E+03  0.12797851841E+03  0.25500000000E-02 0.  1.
    5000001    1    1    2    0    0  0.15181737257E+03 -0.11703188541E+03  0.34154811585E+03  0.43619272376E+03  0.19200000000E+03 0.  0.
   -5000001    1    1    2    0    0 -0.15181737257E+03  0.11703188541E+03  0.14750034274E+03  0.30881277164E+03  0.19200000000E+03 0.  0.
<mgrwt>
<rscale>  0 0.56201850E+03</rscale>
<asrwt>0</asrwt>
<pdfrwt beam="1">  1        2 0.18282646E-01 0.56201850E+03</pdfrwt>
<pdfrwt beam="2">  1       -2 0.88146710E-01 0.56201850E+03</pdfrwt>
<totfact> 0.35407852E+02</totfact>
</mgrwt>
</event>
<event>
 4    1  0.1896644E-005  0.1263019E+04  0.7818608E-02  0.9059417E-01
         -2   -1    0    0    0  501 -0.00000000000E+00  0.00000000000E+00  0.68210221034E+03  0.68210221034E+03  0.25500000000E-02 0. -1.
          2   -1    0    0  501    0  0.00000000000E+00 -0.00000000000E+00 -0.58466938746E+03  0.58466938746E+03  0.25500000000E-02 0.  1.
    5000001    1    1    2    0    0 -0.18534484363E+03  0.41905501583E+03  0.43972140066E+03  0.66345966535E+03  0.19200000000E+03 0.  0.
   -5000001    1    1    2    0    0  0.18534484363E+03 -0.41905501583E+03 -0.34228857778E+03  0.60331193245E+03  0.19200000000E+03 0.  0.
<mgrwt>
<rscale>  0 0.12630191E+04</rscale>
<asrwt>0</asrwt>
<pdfrwt beam="1">  1        2 0.83524199E-01 0.12630191E+04</pdfrwt>
<pdfrwt beam="2">  1       -2 0.97443172E-01 0.12630191E+04</pdfrwt>
<totfact> 0.48351037E+01</totfact>
</mgrwt>
</event>
<event>
 4    1  0.1896644E-005  0.5464684E+03  0.7818608E-02  0.1002315E+00
         -2   -1    0    0    0  501 -0.00000000000E+00  0.00000000000E+00  0.12572778181E+03  0.12572778183E+03  0.25500000000E-02 0. -1.
          2   -1    0    0  501    0  0.00000000000E+00 -0.00000000000E+00 -0.59379818308E+03  0.59379818309E+03  0.25500000000E-02 0.  1.
    5000001    1    1    2    0    0 -0.16059883143E+03  0.54375852016E+02 -0.10881720545E+03  0.27830541163E+03  0.19200000000E+03 0.  0.
   -5000001    1    1    2    0    0  0.16059883143E+03 -0.54375852016E+02 -0.35925319582E+03  0.44122055329E+03  0.19200000000E+03 0.  0.
<mgrwt>
<rscale>  0 0.54646840E+03</rscale>
<asrwt>0</asrwt>
<pdfrwt beam="1">  1        2 0.84828310E-01 0.54646840E+03</pdfrwt>
<pdfrwt beam="2">  1       -2 0.17961112E-01 0.54646840E+03</pdfrwt>
<totfact> 0.14130846E+03</totfact>
</mgrwt>
</event>
<event>
 4    1  0.1896644E-005  0.5733899E+03  0.7818608E-02  0.9962205E-01
         -2   -1    0    0    0  501 -0.00000000000E+00  0.00000000000E+00  0.21204970035E+03  0.21204970036E+03  0.25500000000E-02 0. -1.
          2   -1    0    0  501    0  0.00000000000E+00 -0.00000000000E+00 -0.38761664260E+03  0.38761664261E+03  0.25500000000E-02 0.  1.
    5000001    1    1    2    0    0 -0.18382687875E+03 -0.10703951551E+03 -0.97150112329E+02  0.30257548406E+03  0.19200000000E+03 0.  0.
   -5000001    1    1    2    0    0  0.18382687875E+03  0.10703951551E+03 -0.78416829924E+02  0.29709085891E+03  0.19200000000E+03 0.  0.
<mgrwt>
<rscale>  0 0.57338989E+03</rscale>
<asrwt>0</asrwt>
<pdfrwt beam="1">  1        2 0.55373806E-01 0.57338989E+03</pdfrwt>
<pdfrwt beam="2">  1       -2 0.30292814E-01 0.57338989E+03</pdfrwt>
<totfact> 0.90441163E+02</totfact>
</mgrwt>
</event>
<event>
 4    1  0.1896644E-005  0.6155293E+03  0.7818608E-02  0.9873701E-01
         -2   -1    0    0    0  501 -0.00000000000E+00  0.00000000000E+00  0.36133725020E+03  0.36133725021E+03  0.25500000000E-02 0. -1.
          2   -1    0    0  501    0  0.00000000000E+00 -0.00000000000E+00 -0.26213484615E+03  0.26213484617E+03  0.25500000000E-02 0.  1.
    5000001    1    1    2    0    0  0.21053951317E+03  0.11131304816E+03  0.15437597812E+02  0.30630018075E+03  0.19200000000E+03 0.  0.
   -5000001    1    1    2    0    0 -0.21053951317E+03 -0.11131304816E+03  0.83764806231E+02  0.31717191563E+03  0.19200000000E+03 0.  0.
<mgrwt>
<rscale>  0 0.61552932E+03</rscale>
<asrwt>0</asrwt>
<pdfrwt beam="1">  1        2 0.37447835E-01 0.61552932E+03</pdfrwt>
<pdfrwt beam="2">  1       -2 0.51619607E-01 0.61552932E+03</pdfrwt>
<totfact> 0.49545865E+02</totfact>
</mgrwt>
</event>
<event>
 4    1  0.1896644E-005  0.5828737E+03  0.7818608E-02  0.9941589E-01
         -2   -1    0    0    0  501 -0.00000000000E+00  0.00000000000E+00  0.24643869815E+03  0.24643869816E+03  0.25500000000E-02 0. -1.
          2   -1    0    0  501    0  0.00000000000E+00 -0.00000000000E+00 -0.34465137229E+03  0.34465137230E+03  0.25500000000E-02 0.  1.
    5000001    1    1    2    0    0 -0.15396707931E+03  0.10417313917E+03 -0.16699271699E+03  0.31513246732E+03  0.19200000000E+03 0.  0.
   -5000001    1    1    2    0    0  0.15396707931E+03 -0.10417313917E+03  0.68780042851E+02  0.27595760314E+03  0.19200000000E+03 0.  0.
<mgrwt>
<rscale>  0 0.58287369E+03</rscale>
<asrwt>0</asrwt>
<pdfrwt beam="1">  1        2 0.49235910E-01 0.58287369E+03</pdfrwt>
<pdfrwt beam="2">  1       -2 0.35205529E-01 0.58287369E+03</pdfrwt>
<totfact> 0.77728547E+02</totfact>
</mgrwt>
</event>
<event>
 4    1  0.1896644E-005  0.4234662E+03  0.7818608E-02  0.1035944E+00
          2   -1    0    0  501    0  0.00000000000E+00  0.00000000000E+00  0.75320049016E+03  0.75320049017E+03  0.25500000000E-02 0.  1.
         -2   -1    0    0    0  501 -0.00000000000E+00 -0.00000000000E+00 -0.59520547093E+02  0.59520547148E+02  0.25500000000E-02 0. -1.
    5000001    1    1    2    0    0  0.14564512312E+02  0.75450603267E+02  0.25969031431E+03  0.33197586945E+03  0.19200000000E+03 0.  0.
   -5000001    1    1    2    0    0 -0.14564512312E+02 -0.75450603267E+02  0.43398962876E+03  0.48074516786E+03  0.19200000000E+03 0.  0.
<mgrwt>
<rscale>  0 0.42346620E+03</rscale>
<asrwt>0</asrwt>
<pdfrwt beam="1">  1        2 0.10760007E+00 0.42346620E+03</pdfrwt>
<pdfrwt beam="2">  1       -2 0.85029355E-02 0.42346620E+03</pdfrwt>
<totfact> 0.36309498E+03</totfact>
</mgrwt>
</event>
<event>
 4    1  0.1896644E-005  0.6346583E+03  0.7818608E-02  0.9836000E-01
          2   -1    0    0  501    0  0.00000000000E+00  0.00000000000E+00  0.50363993255E+03  0.50363993256E+03  0.25500000000E-02 0.  1.
         -2   -1    0    0    0  501 -0.00000000000E+00 -0.00000000000E+00 -0.19994005481E+03  0.19994005483E+03  0.25500000000E-02 0. -1.
    5000001    1    1    2    0    0  0.26227327351E+02  0.14467065083E+03 -0.75929079365E+02  0.25346931768E+03  0.19200000000E+03 0.  0.
   -5000001    1    1    2    0    0 -0.26227327351E+02 -0.14467065083E+03  0.37962895711E+03  0.45011066971E+03  0.19200000000E+03 0.  0.
<mgrwt>
<rscale>  0 0.63465832E+03</rscale>
<asrwt>0</asrwt>
<pdfrwt beam="1">  1        2 0.71948562E-01 0.63465832E+03</pdfrwt>
<pdfrwt beam="2">  1       -2 0.28562865E-01 0.63465832E+03</pdfrwt>
<totfact> 0.75065575E+02</totfact>
</mgrwt>
</event>
<event>
 4    1  0.1896644E-005  0.1016079E+04  0.7818608E-02  0.9291084E-01
         -2   -1    0    0    0  501 -0.00000000000E+00  0.00000000000E+00  0.31484929256E+03  0.31484929257E+03  0.25500000000E-02 0. -1.
          2   -1    0    0  501    0  0.00000000000E+00 -0.00000000000E+00 -0.81976966296E+03  0.81976966296E+03  0.25500000000E-02 0.  1.
    5000001    1    1    2    0    0  0.32021413873E+03  0.26163510242E+03 -0.50277713522E+03  0.67870381549E+03  0.19200000000E+03 0.  0.
   -5000001    1    1    2    0    0 -0.32021413873E+03 -0.26163510242E+03 -0.21432351832E+01  0.45591514004E+03  0.19200000000E+03 0.  0.
<mgrwt>
<rscale>  0 0.10160785E+04</rscale>
<asrwt>0</asrwt>
<pdfrwt beam="1">  1        2 0.11710995E+00 0.10160785E+04</pdfrwt>
<pdfrwt beam="2">  1       -2 0.44978471E-01 0.10160785E+04</pdfrwt>
<totfact> 0.17204745E+02</totfact>
</mgrwt>
</event>
<event>
 4    1  0.1896644E-005  0.4523312E+03  0.7818608E-02  0.1027029E+00
          2   -1    0    0  501    0  0.00000000000E+00  0.00000000000E+00  0.73010298455E+03  0.73010298456E+03  0.25500000000E-02 0.  1.
         -2   -1    0    0    0  501 -0.00000000000E+00 -0.00000000000E+00 -0.70059828304E+02  0.70059828350E+02  0.25500000000E-02 0. -1.
    5000001    1    1    2    0    0 -0.12638301406E+02  0.11629062999E+03  0.37348413432E+03  0.43593306353E+03  0.19200000000E+03 0.  0.
   -5000001    1    1    2    0    0  0.12638301406E+02 -0.11629062999E+03  0.28655902192E+03  0.36422974938E+03  0.19200000000E+03 0.  0.
<mgrwt>
<rscale>  0 0.45233125E+03</rscale>
<asrwt>0</asrwt>
<pdfrwt beam="1">  1        2 0.10430043E+00 0.45233125E+03</pdfrwt>
<pdfrwt beam="2">  1       -2 0.10008547E-01 0.45233125E+03</pdfrwt>
<totfact> 0.29092378E+03</totfact>
</mgrwt>
</event>
<event>
 4    1  0.1896644E-005  0.5689813E+03  0.7818608E-02  0.9971935E-01
          2   -1    0    0  501    0  0.00000000000E+00  0.00000000000E+00  0.96827441268E+03  0.96827441268E+03  0.25500000000E-02 0.  1.
         -2   -1    0    0    0  501 -0.00000000000E+00 -0.00000000000E+00 -0.83586776103E+02  0.83586776142E+02  0.25500000000E-02 0. -1.
    5000001    1    1    2    0    0  0.16677742487E+03 -0.31341203646E+02  0.21387013214E+03  0.33376850348E+03  0.19200000000E+03 0.  0.
   -5000001    1    1    2    0    0 -0.16677742487E+03  0.31341203646E+02  0.67081750443E+03  0.71809268534E+03  0.19200000000E+03 0.  0.
<mgrwt>
<rscale>  0 0.56898132E+03</rscale>
<asrwt>0</asrwt>
<pdfrwt beam="1">  1        2 0.13832492E+00 0.56898132E+03</pdfrwt>
<pdfrwt beam="2">  1       -2 0.11940968E-01 0.56898132E+03</pdfrwt>
<totfact> 0.15139419E+03</totfact>
</mgrwt>
</event>
<event>
 4    1  0.1896644E-005  0.5242281E+03  0.7818608E-02  0.1007642E+00
          2   -1    0    0  501    0  0.00000000000E+00  0.00000000000E+00  0.68598994664E+03  0.68598994665E+03  0.25500000000E-02 0.  1.
         -2   -1    0    0    0  501 -0.00000000000E+00 -0.00000000000E+00 -0.10015273130E+03  0.10015273133E+03  0.25500000000E-02 0. -1.
    5000001    1    1    2    0    0 -0.62413277176E+02  0.13596873385E+03  0.14708607294E+03  0.28439624928E+03  0.19200000000E+03 0.  0.
   -5000001    1    1    2    0    0  0.62413277176E+02 -0.13596873385E+03  0.43875114241E+03  0.50174642870E+03  0.19200000000E+03 0.  0.
<mgrwt>
<rscale>  0 0.52422807E+03</rscale>
<asrwt>0</asrwt>
<pdfrwt beam="1">  1        2 0.97998562E-01 0.52422807E+03</pdfrwt>
<pdfrwt beam="2">  1       -2 0.14307533E-01 0.52422807E+03</pdfrwt>
<totfact> 0.17486904E+03</totfact>
</mgrwt>
</event>
<event>
 4    1  0.1896644E-005  0.1010196E+04  0.7818608E-02  0.9297433E-01
          2   -1    0    0  501    0  0.00000000000E+00  0.00000000000E+00  0.14663766495E+04  0.14663766495E+04  0.25500000000E-02 0.  1.
         -2   -1    0    0    0  501 -0.00000000000E+00 -0.00000000000E+00 -0.17398240835E+03  0.17398240837E+03  0.25500000000E-02 0. -1.
    5000001    1    1    2    0    0  0.39843198608E+02  0.46371133078E+03  0.58035669614E+03  0.76830565110E+03  0.19200000000E+03 0.  0.
   -5000001    1    1    2    0    0 -0.39843198608E+02 -0.46371133078E+03  0.71203754505E+03  0.87205340681E+03  0.19200000000E+03 0.  0.
<mgrwt>
<rscale>  0 0.10101955E+04</rscale>
<asrwt>0</asrwt>
<pdfrwt beam="1">  1        2 0.20948237E+00 0.10101955E+04</pdfrwt>
<pdfrwt beam="2">  1       -2 0.24854630E-01 0.10101955E+04</pdfrwt>
<totfact> 0.21988417E+02</totfact>
</mgrwt>
</event>
<event>
 4    1  0.1896644E-005  0.6485018E+03  0.7818608E-02  0.9809594E-01
          2   -1    0    0  501    0  0.00000000000E+00  0.00000000000E+00  0.80164636983E+02  0.80164637023E+02  0.25500000000E-02 0. -1.
         -2   -1    0    0    0  501 -0.00000000000E+00 -0.00000000000E+00 -0.13115340945E+04  0.13115340945E+04  0.25500000000E-02 0.  1.
    5000001    1    1    2    0    0 -0.14708216132E+03 -0.20402799416E+03 -0.46372474950E+03  0.56139578541E+03  0.19200000000E+03 0.  0.
   -5000001    1    1    2    0    0  0.14708216132E+03  0.20402799416E+03 -0.76764470803E+03  0.83030294613E+03  0.19200000000E+03 0.  0.
<mgrwt>
<rscale>  0 0.64850183E+03</rscale>
<asrwt>0</asrwt>
<pdfrwt beam="1">  1        2 0.11452092E-01 0.64850183E+03</pdfrwt>
<pdfrwt beam="2">  1       -2 0.18736200E+00 0.64850183E+03</pdfrwt>
<totfact> 0.92288701E+01</totfact>
</mgrwt>
</event>
<event>
 4    1  0.1896644E-005  0.5801511E+03  0.7818608E-02  0.9947464E-01
          2   -1    0    0  501    0  0.00000000000E+00  0.00000000000E+00  0.84021700674E+03  0.84021700674E+03  0.25500000000E-02 0.  1.
         -2   -1    0    0    0  501 -0.00000000000E+00 -0.00000000000E+00 -0.10014534449E+03  0.10014534452E+03  0.25500000000E-02 0. -1.
    5000001    1    1    2    0    0  0.17658846647E+03  0.97640166503E+02  0.50134543433E+03  0.57352273986E+03  0.19200000000E+03 0.  0.
   -5000001    1    1    2    0    0 -0.17658846647E+03 -0.97640166503E+02  0.23872622791E+03  0.36683961141E+03  0.19200000000E+03 0.  0.
<mgrwt>
<rscale>  0 0.58015109E+03</rscale>
<asrwt>0</asrwt>
<pdfrwt beam="1">  1        2 0.12003100E+00 0.58015109E+03</pdfrwt>
<pdfrwt beam="2">  1       -2 0.14306477E-01 0.58015109E+03</pdfrwt>
<totfact> 0.13560760E+03</totfact>
</mgrwt>
</event>
<event>
 4    1  0.1896644E-005  0.4984019E+03  0.7818608E-02  0.1014197E+00
         -2   -1    0    0    0  501 -0.00000000000E+00  0.00000000000E+00  0.32563218608E+03  0.32563218609E+03  0.25500000000E-02 0. -1.
          2   -1    0    0  501    0  0.00000000000E+00 -0.00000000000E+00 -0.19070937001E+03  0.19070937003E+03  0.25500000000E-02 0.  1.
    5000001    1    1    2    0    0  0.19129248065E+02 -0.16700029678E+02  0.22992531414E+03  0.30062346749E+03  0.19200000000E+03 0.  0.
   -5000001    1    1    2    0    0 -0.19129248065E+02  0.16700029678E+02 -0.95002498070E+02  0.21571808863E+03  0.19200000000E+03 0.  0.
<mgrwt>
<rscale>  0 0.49840188E+03</rscale>
<asrwt>0</asrwt>
<pdfrwt beam="1">  1        2 0.27244196E-01 0.49840188E+03</pdfrwt>
<pdfrwt beam="2">  1       -2 0.46518884E-01 0.49840188E+03</pdfrwt>
<totfact> 0.87280448E+02</totfact>
</mgrwt>
</event>
<event>
 4    1  0.1896644E-005  0.5517676E+03  0.7818608E-02  0.1001086E+00
          2   -1    0    0  501    0  0.00000000000E+00  0.00000000000E+00  0.15736837205E+04  0.15736837205E+04  0.25500000000E-02 0.  1.
         -2   -1    0    0    0  501 -0.00000000000E+00 -0.00000000000E+00 -0.48365410885E+02  0.48365410952E+02  0.25500000000E-02 0. -1.
    5000001    1    1    2    0    0 -0.19271104316E+03 -0.21139605028E+02  0.88255667597E+03  0.92377200399E+03  0.19200000000E+03 0.  0.
   -5000001    1    1    2    0    0  0.19271104316E+03  0.21139605028E+02  0.64276163366E+03  0.69827712748E+03  0.19200000000E+03 0.  0.
<mgrwt>
<rscale>  0 0.55176756E+03</rscale>
<asrwt>0</asrwt>
<pdfrwt beam="1">  1        2 0.22481202E+00 0.55176756E+03</pdfrwt>
<pdfrwt beam="2">  1       -2 0.69093426E-02 0.55176756E+03</pdfrwt>
<totfact> 0.16877583E+03</totfact>
</mgrwt>
</event>
<event>
 4    1  0.1896644E-005  0.7304657E+03  0.7818608E-02  0.9666505E-01
         -2   -1    0    0    0  501 -0.00000000000E+00  0.00000000000E+00  0.12770575224E+03  0.12770575226E+03  0.25500000000E-02 0. -1.
          2   -1    0    0  501    0  0.00000000000E+00 -0.00000000000E+00 -0.10445500436E+04  0.10445500436E+04  0.25500000000E-02 0.  1.
    5000001    1    1    2    0    0 -0.16860951706E+03  0.25676702733E+03 -0.38362073678E+03  0.52762424627E+03  0.19200000000E+03 0.  0.
   -5000001    1    1    2    0    0  0.16860951706E+03 -0.25676702733E+03 -0.53322355456E+03  0.64463154958E+03  0.19200000000E+03 0.  0.
<mgrwt>
<rscale>  0 0.73046574E+03</rscale>
<asrwt>0</asrwt>
<pdfrwt beam="1">  1        2 0.14922143E+00 0.73046574E+03</pdfrwt>
<pdfrwt beam="2">  1       -2 0.18243679E-01 0.73046574E+03</pdfrwt>
<totfact> 0.66348633E+02</totfact>
</mgrwt>
</event>
<event>
 4    1  0.1896644E-005  0.4366061E+03  0.7818608E-02  0.1031793E+00
         -2   -1    0    0    0  501 -0.00000000000E+00  0.00000000000E+00  0.71966799039E+02  0.71966799084E+02  0.25500000000E-02 0. -1.
          2   -1    0    0  501    0  0.00000000000E+00 -0.00000000000E+00 -0.66219743034E+03  0.66219743034E+03  0.25500000000E-02 0.  1.
    5000001    1    1    2    0    0  0.10386733078E+03  0.10150445365E+01 -0.29791731017E+03  0.36933477554E+03  0.19200000000E+03 0.  0.
   -5000001    1    1    2    0    0 -0.10386733078E+03 -0.10150445365E+01 -0.29231332113E+03  0.36482945389E+03  0.19200000000E+03 0.  0.
<mgrwt>
<rscale>  0 0.43660614E+03</rscale>
<asrwt>0</asrwt>
<pdfrwt beam="1">  1        2 0.94599629E-01 0.43660614E+03</pdfrwt>
<pdfrwt beam="2">  1       -2 0.10280972E-01 0.43660614E+03</pdfrwt>
<totfact> 0.31337320E+03</totfact>
</mgrwt>
</event>
<event>
 4    1  0.1896644E-005  0.5437456E+03  0.7818608E-02  0.1002952E+00
          2   -1    0    0  501    0  0.00000000000E+00  0.00000000000E+00  0.23937039328E+03  0.23937039330E+03  0.25500000000E-02 0.  1.
         -2   -1    0    0    0  501 -0.00000000000E+00 -0.00000000000E+00 -0.30878851072E+03  0.30878851073E+03  0.25500000000E-02 0. -1.
    5000001    1    1    2    0    0  0.23321410536E+02 -0.18657740512E+03  0.68054033008E+01  0.26882211554E+03  0.19200000000E+03 0.  0.
   -5000001    1    1    2    0    0 -0.23321410536E+02  0.18657740512E+03 -0.76223520737E+02  0.27933678849E+03  0.19200000000E+03 0.  0.
<mgrwt>
<rscale>  0 0.54374563E+03</rscale>
<asrwt>0</asrwt>
<pdfrwt beam="1">  1        2 0.34195770E-01 0.54374563E+03</pdfrwt>
<pdfrwt beam="2">  1       -2 0.44112644E-01 0.54374563E+03</pdfrwt>
<totfact> 0.75188772E+02</totfact>
</mgrwt>
</event>
<event>
 4    1  0.1896644E-005  0.5307599E+03  0.7818608E-02  0.1006048E+00
          2   -1    0    0  501    0  0.00000000000E+00  0.00000000000E+00  0.17993284387E+04  0.17993284387E+04  0.25500000000E-02 0.  1.
         -2   -1    0    0    0  501 -0.00000000000E+00 -0.00000000000E+00 -0.39140449881E+02  0.39140449964E+02  0.25500000000E-02 0. -1.
    5000001    1    1    2    0    0 -0.77802863226E+02 -0.16480252441E+03  0.81535005141E+03  0.85724725949E+03  0.19200000000E+03 0.  0.
   -5000001    1    1    2    0    0  0.77802863226E+02  0.16480252441E+03  0.94483793737E+03  0.98122162913E+03  0.19200000000E+03 0.  0.
<mgrwt>
<rscale>  0 0.53075993E+03</rscale>
<asrwt>0</asrwt>
<pdfrwt beam="1">  1        2 0.25704686E+00 0.53075993E+03</pdfrwt>
<pdfrwt beam="2">  1       -2 0.55914941E-02 0.53075993E+03</pdfrwt>
<totfact> 0.18070314E+03</totfact>
</mgrwt>
</event>
<event>
 4    1  0.1896644E-005  0.5159307E+03  0.7818608E-02  0.1009702E+00
          2   -1    0    0  501    0  0.00000000000E+00  0.00000000000E+00  0.70321682279E+03  0.70321682279E+03  0.25500000000E-02 0.  1.
         -2   -1    0    0    0  501 -0.00000000000E+00 -0.00000000000E+00 -0.94631031314E+02  0.94631031348E+02  0.25500000000E-02 0. -1.
    5000001    1    1    2    0    0  0.16895728579E+03 -0.16781703178E+02  0.25910280968E+03  0.36445364035E+03  0.19200000000E+03 0.  0.
   -5000001    1    1    2    0    0 -0.16895728579E+03  0.16781703178E+02  0.34948298180E+03  0.43339421379E+03  0.19200000000E+03 0.  0.
<mgrwt>
<rscale>  0 0.51593074E+03</rscale>
<asrwt>0</asrwt>
<pdfrwt beam="1">  1        2 0.10045955E+00 0.51593074E+03</pdfrwt>
<pdfrwt beam="2">  1       -2 0.13518719E-01 0.51593074E+03</pdfrwt>
<totfact> 0.18648174E+03</totfact>
</mgrwt>
</event>
<event>
 4    1  0.1896644E-005  0.4793176E+03  0.7818608E-02  0.1019323E+00
          2   -1    0    0  501    0  0.00000000000E+00  0.00000000000E+00  0.54271910102E+03  0.54271910102E+03  0.25500000000E-02 0.  1.
         -2   -1    0    0    0  501 -0.00000000000E+00 -0.00000000000E+00 -0.10583070692E+03  0.10583070695E+03  0.25500000000E-02 0. -1.
    5000001    1    1    2    0    0  0.11586166538E+03  0.83080025280E+02  0.23967186261E+03  0.33857468575E+03  0.19200000000E+03 0.  0.
   -5000001    1    1    2    0    0 -0.11586166538E+03 -0.83080025280E+02  0.19721653148E+03  0.30997512222E+03  0.19200000000E+03 0.  0.
<mgrwt>
<rscale>  0 0.47931762E+03</rscale>
<asrwt>0</asrwt>
<pdfrwt beam="1">  1        2 0.77531300E-01 0.47931762E+03</pdfrwt>
<pdfrwt beam="2">  1       -2 0.15118672E-01 0.47931762E+03</pdfrwt>
<totfact> 0.20992774E+03</totfact>
</mgrwt>
</event>
<event>
 4    1  0.1896644E-005  0.5821151E+03  0.7818608E-02  0.9943222E-01
         -2   -1    0    0    0  501 -0.00000000000E+00  0.00000000000E+00  0.19367824044E+03  0.19367824046E+03  0.25500000000E-02 0. -1.
          2   -1    0    0  501    0  0.00000000000E+00 -0.00000000000E+00 -0.43739804172E+03  0.43739804173E+03  0.25500000000E-02 0.  1.
    5000001    1    1    2    0    0 -0.17226190720E+03 -0.55226400051E+01 -0.26789636703E+03  0.37193699425E+03  0.19200000000E+03 0.  0.
   -5000001    1    1    2    0    0  0.17226190720E+03  0.55226400051E+01  0.24176565746E+02  0.25913928794E+03  0.19200000000E+03 0.  0.
<mgrwt>
<rscale>  0 0.58211505E+03</rscale>
<asrwt>0</asrwt>
<pdfrwt beam="1">  1        2 0.62485434E-01 0.58211505E+03</pdfrwt>
<pdfrwt beam="2">  1       -2 0.27668320E-01 0.58211505E+03</pdfrwt>
<totfact> 0.93364519E+02</totfact>
</mgrwt>
</event>
<event>
 4    1  0.1896644E-005  0.4679225E+03  0.7818608E-02  0.1022508E+00
          2   -1    0    0  501    0  0.00000000000E+00  0.00000000000E+00  0.59440136344E+03  0.59440136345E+03  0.25500000000E-02 0.  1.
         -2   -1    0    0    0  501 -0.00000000000E+00 -0.00000000000E+00 -0.92089054853E+02  0.92089054889E+02  0.25500000000E-02 0. -1.
    5000001    1    1    2    0    0 -0.26325708614E+02  0.98348356286E+02  0.37828227342E+03  0.43626473672E+03  0.19200000000E+03 0.  0.
   -5000001    1    1    2    0    0  0.26325708614E+02 -0.98348356286E+02  0.12403003517E+03  0.25022568162E+03  0.19200000000E+03 0.  0.
<mgrwt>
<rscale>  0 0.46792247E+03</rscale>
<asrwt>0</asrwt>
<pdfrwt beam="1">  1        2 0.84914480E-01 0.46792247E+03</pdfrwt>
<pdfrwt beam="2">  1       -2 0.13155579E-01 0.46792247E+03</pdfrwt>
<totfact> 0.23818035E+03</totfact>
</mgrwt>
</event>
<event>
 4    1  0.1896644E-005  0.7662620E+03  0.7818608E-02  0.9610178E-01
         -2   -1    0    0    0  501 -0.00000000000E+00  0.00000000000E+00  0.54053665969E+02  0.54053666029E+02  0.25500000000E-02 0.  1.
          2   -1    0    0  501    0  0.00000000000E+00 -0.00000000000E+00 -0.27156228495E+04  0.27156228495E+04  0.25500000000E-02 0. -1.
    5000001    1    1    2    0    0 -0.23184441630E+03 -0.51629118408E+02 -0.21668899207E+04  0.21883083256E+04  0.19200000000E+03 0.  0.
   -5000001    1    1    2    0    0  0.23184441630E+03  0.51629118408E+02 -0.49467926275E+03  0.58136818991E+03  0.19200000000E+03 0.  0.
<mgrwt>
<rscale>  0 0.76626202E+03</rscale>
<asrwt>0</asrwt>
<pdfrwt beam="1">  1        2 0.38794603E+00 0.76626202E+03</pdfrwt>
<pdfrwt beam="2">  1       -2 0.77219540E-02 0.76626202E+03</pdfrwt>
<totfact> 0.36522786E+02</totfact>
</mgrwt>
</event>
<event>
 4    1  0.1896644E-005  0.5166158E+03  0.7818608E-02  0.1009531E+00
          2   -1    0    0  501    0  0.00000000000E+00  0.00000000000E+00  0.31880048586E+04  0.31880048586E+04  0.25500000000E-02 0.  1.
         -2   -1    0    0    0  501 -0.00000000000E+00 -0.00000000000E+00 -0.20929382949E+02  0.20929383105E+02  0.25500000000E-02 0. -1.
    5000001    1    1    2    0    0 -0.14926253794E+03  0.52255865019E+02  0.11510050338E+04  0.11775765659E+04  0.19200000000E+03 0.  0.
   -5000001    1    1    2    0    0  0.14926253794E+03 -0.52255865019E+02  0.20160704418E+04  0.20313576758E+04  0.19200000000E+03 0.  0.
<mgrwt>
<rscale>  0 0.51661581E+03</rscale>
<asrwt>0</asrwt>
<pdfrwt beam="1">  1        2 0.45542921E+00 0.51661581E+03</pdfrwt>
<pdfrwt beam="2">  1       -2 0.29899122E-02 0.51661581E+03</pdfrwt>
<totfact> 0.90451057E+02</totfact>
</mgrwt>
</event>
<event>
 4    1  0.1896644E-005  0.7392430E+03  0.7818608E-02  0.9652379E-01
          2   -1    0    0  501    0  0.00000000000E+00  0.00000000000E+00  0.12897174120E+04  0.12897174120E+04  0.25500000000E-02 0.  1.
         -2   -1    0    0    0  501 -0.00000000000E+00 -0.00000000000E+00 -0.10593022370E+03  0.10593022373E+03  0.25500000000E-02 0. -1.
    5000001    1    1    2    0    0 -0.15312702378E+02  0.24709138053E+03  0.22160944714E+03  0.38374910586E+03  0.19200000000E+03 0.  0.
   -5000001    1    1    2    0    0  0.15312702378E+02 -0.24709138053E+03  0.96217774113E+03  0.10118985298E+04  0.19200000000E+03 0.  0.
<mgrwt>
<rscale>  0 0.73924300E+03</rscale>
<asrwt>0</asrwt>
<pdfrwt beam="1">  1        2 0.18424533E+00 0.73924300E+03</pdfrwt>
<pdfrwt beam="2">  1       -2 0.15132890E-01 0.73924300E+03</pdfrwt>
<totfact> 0.66095393E+02</totfact>
</mgrwt>
</event>
<event>
 4    1  0.1896644E-005  0.9105762E+03  0.7818608E-02  0.9412456E-01
         -2   -1    0    0    0  501 -0.00000000000E+00  0.00000000000E+00  0.15580964899E+03  0.15580964901E+03  0.25500000000E-02 0. -1.
          2   -1    0    0  501    0  0.00000000000E+00 -0.00000000000E+00 -0.13303878688E+04  0.13303878688E+04  0.25500000000E-02 0.  1.
    5000001    1    1    2    0    0  0.32707180045E+03 -0.12849799388E+03 -0.94088830725E+03  0.10225568462E+04  0.19200000000E+03 0.  0.
   -5000001    1    1    2    0    0 -0.32707180045E+03  0.12849799388E+03 -0.23368991253E+03  0.46364067153E+03  0.19200000000E+03 0.  0.
<mgrwt>
<rscale>  0 0.91057623E+03</rscale>
<asrwt>0</asrwt>
<pdfrwt beam="1">  1        2 0.19005540E+00 0.91057623E+03</pdfrwt>
<pdfrwt beam="2">  1       -2 0.22258522E-01 0.91057623E+03</pdfrwt>
<totfact> 0.31905940E+02</totfact>
</mgrwt>
</event>
<event>
 4    1  0.1896644E-005  0.5688245E+03  0.7818608E-02  0.9972283E-01
         -2   -1    0    0    0  501 -0.00000000000E+00  0.00000000000E+00  0.15302229869E+03  0.15302229871E+03  0.25500000000E-02 0. -1.
          2   -1    0    0  501    0  0.00000000000E+00 -0.00000000000E+00 -0.52861796318E+03  0.52861796318E+03  0.25500000000E-02 0.  1.
    5000001    1    1    2    0    0  0.96509947203E+02  0.16992240362E+03 -0.96232905971E+02  0.29036626070E+03  0.19200000000E+03 0.  0.
   -5000001    1    1    2    0    0 -0.96509947203E+02 -0.16992240362E+03 -0.27936275852E+03  0.39127400119E+03  0.19200000000E+03 0.  0.
<mgrwt>
<rscale>  0 0.56882453E+03</rscale>
<asrwt>0</asrwt>
<pdfrwt beam="1">  1        2 0.75516851E-01 0.56882453E+03</pdfrwt>
<pdfrwt beam="2">  1       -2 0.21860329E-01 0.56882453E+03</pdfrwt>
<totfact> 0.11491367E+03</totfact>
</mgrwt>
</event>
<event>
 4    1  0.1896644E-005  0.4375808E+03  0.7818608E-02  0.1031492E+00
         -2   -1    0    0    0  501 -0.00000000000E+00  0.00000000000E+00  0.15973123441E+03  0.15973123443E+03  0.25500000000E-02 0. -1.
          2   -1    0    0  501    0  0.00000000000E+00 -0.00000000000E+00 -0.29968609905E+03  0.29968609906E+03  0.25500000000E-02 0.  1.
    5000001    1    1    2    0    0 -0.90343227060E+02 -0.52542171705E+02 -0.60432430780E+02  0.22680091969E+03  0.19200000000E+03 0.  0.
   -5000001    1    1    2    0    0  0.90343227060E+02  0.52542171705E+02 -0.79522433860E+02  0.23261641380E+03  0.19200000000E+03 0.  0.
<mgrwt>
<rscale>  0 0.43758076E+03</rscale>
<asrwt>0</asrwt>
<pdfrwt beam="1">  1        2 0.42812300E-01 0.43758076E+03</pdfrwt>
<pdfrwt beam="2">  1       -2 0.22818748E-01 0.43758076E+03</pdfrwt>
<totfact> 0.19985549E+03</totfact>
</mgrwt>
</event>
<event>
 4    1  0.1896644E-005  0.4578646E+03  0.7818608E-02  0.1025402E+00
         -2   -1    0    0    0  501 -0.00000000000E+00  0.00000000000E+00  0.54019923360E+02  0.54019923420E+02  0.25500000000E-02 0. -1.
          2   -1    0    0  501    0  0.00000000000E+00 -0.00000000000E+00 -0.97019743648E+03  0.97019743648E+03  0.25500000000E-02 0.  1.
    5000001    1    1    2    0    0  0.11666867879E+03 -0.10225630269E+02 -0.55377786124E+03  0.59770399340E+03  0.19200000000E+03 0.  0.
   -5000001    1    1    2    0    0 -0.11666867879E+03  0.10225630269E+02 -0.36239965187E+03  0.42651336650E+03  0.19200000000E+03 0.  0.
<mgrwt>
<rscale>  0 0.45786457E+03</rscale>
<asrwt>0</asrwt>
<pdfrwt beam="1">  1        2 0.13859962E+00 0.45786457E+03</pdfrwt>
<pdfrwt beam="2">  1       -2 0.77171325E-02 0.45786457E+03</pdfrwt>
<totfact> 0.30505578E+03</totfact>
</mgrwt>
</event>
<event>
 4    1  0.1896644E-005  0.4509438E+03  0.7818608E-02  0.1027441E+00
         -2   -1    0    0    0  501 -0.00000000000E+00  0.00000000000E+00  0.18523556278E+02  0.18523556453E+02  0.25500000000E-02 0. -1.
          2   -1    0    0  501    0  0.00000000000E+00 -0.00000000000E+00 -0.27444826736E+04  0.27444826736E+04  0.25500000000E-02 0.  1.
    5000001    1    1    2    0    0  0.29257903726E+02 -0.82672906377E+02 -0.18486415956E+04  0.18606532679E+04  0.19200000000E+03 0.  0.
   -5000001    1    1    2    0    0 -0.29257903726E+02  0.82672906377E+02 -0.87731752170E+03  0.90235296213E+03  0.19200000000E+03 0.  0.
<mgrwt>
<rscale>  0 0.45094381E+03</rscale>
<asrwt>0</asrwt>
<pdfrwt beam="1">  1        2 0.39206870E+00 0.45094381E+03</pdfrwt>
<pdfrwt beam="2">  1       -2 0.26462241E-02 0.45094381E+03</pdfrwt>
<totfact> 0.18955498E+03</totfact>
</mgrwt>
</event>
<event>
 4    1  0.1896644E-005  0.5054614E+03  0.7818608E-02  0.1012363E+00
         -2   -1    0    0    0  501 -0.00000000000E+00  0.00000000000E+00  0.17309819498E+02  0.17309819686E+02  0.25500000000E-02 0. -1.
          2   -1    0    0  501    0  0.00000000000E+00 -0.00000000000E+00 -0.36899749601E+04  0.36899749601E+04  0.25500000000E-02 0.  1.
    5000001    1    1    2    0    0 -0.10910495339E+02  0.10526388137E+03 -0.27585301539E+04  0.27672282402E+04  0.19200000000E+03 0.  0.
   -5000001    1    1    2    0    0  0.10910495339E+02 -0.10526388137E+03 -0.91413498677E+03  0.94005653961E+03  0.19200000000E+03 0.  0.
<mgrwt>
<rscale>  0 0.50546138E+03</rscale>
<asrwt>0</asrwt>
<pdfrwt beam="1">  1        2 0.52713878E+00 0.50546138E+03</pdfrwt>
<pdfrwt beam="2">  1       -2 0.24728337E-02 0.50546138E+03</pdfrwt>
<totfact> 0.61366401E+02</totfact>
</mgrwt>
</event>
<event>
 4    1  0.1896644E-005  0.4952169E+03  0.7818608E-02  0.1015035E+00
         -2   -1    0    0    0  501 -0.00000000000E+00  0.00000000000E+00  0.25776515973E+02  0.25776516099E+02  0.25500000000E-02 0. -1.
          2   -1    0    0  501    0  0.00000000000E+00 -0.00000000000E+00 -0.23785191469E+04  0.23785191469E+04  0.25500000000E-02 0.  1.
    5000001    1    1    2    0    0  0.15280894377E+03 -0.17822313395E+02 -0.13117675320E+04  0.13346408753E+04  0.19200000000E+03 0.  0.
   -5000001    1    1    2    0    0 -0.15280894377E+03  0.17822313395E+02 -0.10409750989E+04  0.10696547877E+04  0.19200000000E+03 0.  0.
<mgrwt>
<rscale>  0 0.49521687E+03</rscale>
<asrwt>0</asrwt>
<pdfrwt beam="1">  1        2 0.33978831E+00 0.49521687E+03</pdfrwt>
<pdfrwt beam="2">  1       -2 0.36823610E-02 0.49521687E+03</pdfrwt>
<totfact> 0.17648665E+03</totfact>
</mgrwt>
</event>
<event>
 4    1  0.1896644E-005  0.6466552E+03  0.7818608E-02  0.9813076E-01
          2   -1    0    0  501    0  0.00000000000E+00  0.00000000000E+00  0.15839488947E+04  0.15839488947E+04  0.25500000000E-02 0.  1.
         -2   -1    0    0    0  501 -0.00000000000E+00 -0.00000000000E+00 -0.66000061868E+02  0.66000061917E+02  0.25500000000E-02 0. -1.
    5000001    1    1    2    0    0 -0.20958375916E+03 -0.73014662774E+02  0.11052686877E+04  0.11435643249E+04  0.19200000000E+03 0.  0.
   -5000001    1    1    2    0    0  0.20958375916E+03  0.73014662774E+02  0.41268014508E+03  0.50638463170E+03  0.19200000000E+03 0.  0.
<mgrwt>
<rscale>  0 0.64665516E+03</rscale>
<asrwt>0</asrwt>
<pdfrwt beam="1">  1        2 0.22627838E+00 0.64665516E+03</pdfrwt>
<pdfrwt beam="2">  1       -2 0.94285818E-02 0.64665516E+03</pdfrwt>
<totfact> 0.10117581E+03</totfact>
</mgrwt>
</event>
<event>
 4    1  0.1896644E-005  0.6290134E+03  0.7818608E-02  0.9846976E-01
          2   -1    0    0  501    0  0.00000000000E+00  0.00000000000E+00  0.32330364917E+03  0.32330364918E+03  0.25500000000E-02 0.  1.
         -2   -1    0    0    0  501 -0.00000000000E+00 -0.00000000000E+00 -0.30594914396E+03  0.30594914397E+03  0.25500000000E-02 0. -1.
    5000001    1    1    2    0    0 -0.54565255354E+02  0.23996736530E+03  0.47276533386E+02  0.31569094714E+03  0.19200000000E+03 0.  0.
   -5000001    1    1    2    0    0  0.54565255354E+02 -0.23996736530E+03 -0.29922028174E+02  0.31356184600E+03  0.19200000000E+03 0.  0.
<mgrwt>
<rscale>  0 0.62901343E+03</rscale>
<asrwt>0</asrwt>
<pdfrwt beam="1">  1        2 0.46186235E-01 0.62901343E+03</pdfrwt>
<pdfrwt beam="2">  1       -2 0.43707021E-01 0.62901343E+03</pdfrwt>
<totfact> 0.54851344E+02</totfact>
</mgrwt>
</event>
<event>
 4    1  0.1896644E-005  0.6149749E+03  0.7818608E-02  0.9874816E-01
          2   -1    0    0  501    0  0.00000000000E+00  0.00000000000E+00  0.30931672841E+04  0.30931672841E+04  0.25500000000E-02 0.  1.
         -2   -1    0    0    0  501 -0.00000000000E+00 -0.00000000000E+00 -0.30566896927E+02  0.30566897034E+02  0.25500000000E-02 0. -1.
    5000001    1    1    2    0    0 -0.12047933570E+03 -0.16247853099E+03  0.21890837255E+04  0.22067773110E+04  0.19200000000E+03 0.  0.
   -5000001    1    1    2    0    0  0.12047933570E+03  0.16247853099E+03  0.87351666175E+03  0.91695687016E+03  0.19200000000E+03 0.  0.
<mgrwt>
<rscale>  0 0.61497488E+03</rscale>
<asrwt>0</asrwt>
<pdfrwt beam="1">  1        2 0.44188059E+00 0.61497488E+03</pdfrwt>
<pdfrwt beam="2">  1       -2 0.43667040E-02 0.61497488E+03</pdfrwt>
<totfact> 0.56666711E+02</totfact>
</mgrwt>
</event>
<event>
 4    1  0.1896644E-005  0.5496228E+03  0.7818608E-02  0.1001581E+00
         -2   -1    0    0    0  501 -0.00000000000E+00  0.00000000000E+00  0.19693114580E+03  0.19693114581E+03  0.25500000000E-02 0. -1.
          2   -1    0    0  501    0  0.00000000000E+00 -0.00000000000E+00 -0.38349092463E+03  0.38349092463E+03  0.25500000000E-02 0.  1.
    5000001    1    1    2    0    0 -0.38136169329E+02 -0.17888565139E+03 -0.17107007013E+02  0.26572747952E+03  0.19200000000E+03 0.  0.
   -5000001    1    1    2    0    0  0.38136169329E+02  0.17888565139E+03 -0.16945277182E+03  0.31469459093E+03  0.19200000000E+03 0.  0.
<mgrwt>
<rscale>  0 0.54962281E+03</rscale>
<asrwt>0</asrwt>
<pdfrwt beam="1">  1        2 0.54784418E-01 0.54962281E+03</pdfrwt>
<pdfrwt beam="2">  1       -2 0.28133021E-01 0.54962281E+03</pdfrwt>
<totfact> 0.10485338E+03</totfact>
</mgrwt>
</event>
<event>
 4    1  0.1896644E-005  0.8572855E+03  0.7818608E-02  0.9480610E-01
          2   -1    0    0  501    0  0.00000000000E+00  0.00000000000E+00  0.21440025080E+04  0.21440025080E+04  0.25500000000E-02 0.  1.
         -2   -1    0    0    0  501 -0.00000000000E+00 -0.00000000000E+00 -0.85697009545E+02  0.85697009583E+02  0.25500000000E-02 0. -1.
    5000001    1    1    2    0    0  0.11374878632E+03 -0.14200500467E+03  0.19064118163E+04  0.19246750949E+04  0.19200000000E+03 0.  0.
   -5000001    1    1    2    0    0 -0.11374878632E+03  0.14200500467E+03  0.15189368217E+03  0.30502442267E+03  0.19200000000E+03 0.  0.
<mgrwt>
<rscale>  0 0.85728549E+03</rscale>
<asrwt>0</asrwt>
<pdfrwt beam="1">  1        2 0.30628603E+00 0.85728549E+03</pdfrwt>
<pdfrwt beam="2">  1       -2 0.12242432E-01 0.85728549E+03</pdfrwt>
<totfact> 0.33798041E+02</totfact>
</mgrwt>
</event>
<event>
 4    1  0.1896644E-005  0.8241836E+03  0.7818608E-02  0.9525657E-01
         -2   -1    0    0    0  501 -0.00000000000E+00  0.00000000000E+00  0.10410449494E+03  0.10410449497E+03  0.25500000000E-02 0. -1.
          2   -1    0    0  501    0  0.00000000000E+00 -0.00000000000E+00 -0.16312420939E+04  0.16312420939E+04  0.25500000000E-02 0.  1.
    5000001    1    1    2    0    0 -0.30656132681E+02 -0.30668016810E+03 -0.11738136835E+04  0.12286964993E+04  0.19200000000E+03 0.  0.
   -5000001    1    1    2    0    0  0.30656132681E+02  0.30668016810E+03 -0.35332391550E+03  0.50665008955E+03  0.19200000000E+03 0.  0.
<mgrwt>
<rscale>  0 0.82418356E+03</rscale>
<asrwt>0</asrwt>
<pdfrwt beam="1">  1        2 0.23303457E+00 0.82418356E+03</pdfrwt>
<pdfrwt beam="2">  1       -2 0.14872072E-01 0.82418356E+03</pdfrwt>
<totfact> 0.44649796E+02</totfact>
</mgrwt>
</event>
<event>
 4    1  0.1896644E-005  0.4565873E+03  0.7818608E-02  0.1025776E+00
          2   -1    0    0  501    0  0.00000000000E+00  0.00000000000E+00  0.67907674606E+03  0.67907674606E+03  0.25500000000E-02 0.  1.
         -2   -1    0    0    0  501 -0.00000000000E+00 -0.00000000000E+00 -0.76748321642E+02  0.76748321684E+02  0.25500000000E-02 0. -1.
    5000001    1    1    2    0    0  0.54680924252E+02 -0.10585475404E+03  0.35502811900E+03  0.42083749560E+03  0.19200000000E+03 0.  0.
   -5000001    1    1    2    0    0 -0.54680924252E+02  0.10585475404E+03  0.24730030542E+03  0.33498757214E+03  0.19200000000E+03 0.  0.
<mgrwt>
<rscale>  0 0.45658734E+03</rscale>
<asrwt>0</asrwt>
<pdfrwt beam="1">  1        2 0.97010968E-01 0.45658734E+03</pdfrwt>
<pdfrwt beam="2">  1       -2 0.10964045E-01 0.45658734E+03</pdfrwt>
<totfact> 0.27415173E+03</totfact>
</mgrwt>
</event>
<event>
 4    1  0.1896644E-005  0.7682521E+03  0.7818608E-02  0.9607143E-01
          2   -1    0    0  501    0  0.00000000000E+00  0.00000000000E+00  0.14260598078E+04  0.14260598078E+04  0.25500000000E-02 0.  1.
         -2   -1    0    0    0  501 -0.00000000000E+00 -0.00000000000E+00 -0.10346888298E+03  0.10346888301E+03  0.25500000000E-02 0. -1.
    5000001    1    1    2    0    0 -0.77359199624E+02 -0.32353523139E+03  0.65051436098E+03  0.75544187438E+03  0.19200000000E+03 0.  0.
   -5000001    1    1    2    0    0  0.77359199624E+02  0.32353523139E+03  0.67207656386E+03  0.77408681645E+03  0.19200000000E+03 0.  0.
<mgrwt>
<rscale>  0 0.76825208E+03</rscale>
<asrwt>0</asrwt>
<pdfrwt beam="1">  1        2 0.20372282E+00 0.76825208E+03</pdfrwt>
<pdfrwt beam="2">  1       -2 0.14781270E-01 0.76825208E+03</pdfrwt>
<totfact> 0.57964217E+02</totfact>
</mgrwt>
</event>
<event>
 4    1  0.1896644E-005  0.5858381E+03  0.7818608E-02  0.9935231E-01
         -2   -1    0    0    0  501 -0.00000000000E+00  0.00000000000E+00  0.24904398314E+02  0.24904398445E+02  0.25500000000E-02 0. -1.
          2   -1    0    0  501    0  0.00000000000E+00 -0.00000000000E+00 -0.34452377712E+04  0.34452377712E+04  0.25500000000E-02 0.  1.
    5000001    1    1    2    0    0 -0.34390693509E+02 -0.21540312742E+03 -0.19283165919E+04  0.19500897686E+04  0.19200000000E+03 0.  0.
   -5000001    1    1    2    0    0  0.34390693509E+02  0.21540312742E+03 -0.14920167810E+04  0.15200524010E+04  0.19200000000E+03 0.  0.
<mgrwt>
<rscale>  0 0.58583811E+03</rscale>
<asrwt>0</asrwt>
<pdfrwt beam="1">  1        2 0.49217652E+00 0.58583811E+03</pdfrwt>
<pdfrwt beam="2">  1       -2 0.35577734E-02 0.58583811E+03</pdfrwt>
<totfact> 0.49096781E+02</totfact>
</mgrwt>
</event>
<event>
 4    1  0.1896644E-005  0.5099243E+03  0.7818608E-02  0.1011221E+00
         -2   -1    0    0    0  501 -0.00000000000E+00  0.00000000000E+00  0.15135624677E+03  0.15135624680E+03  0.25500000000E-02 0. -1.
          2   -1    0    0  501    0  0.00000000000E+00 -0.00000000000E+00 -0.42948804610E+03  0.42948804611E+03  0.25500000000E-02 0.  1.
    5000001    1    1    2    0    0  0.88764234955E+02  0.11925769420E+03 -0.22759378586E+03  0.33281288796E+03  0.19200000000E+03 0.  0.
   -5000001    1    1    2    0    0 -0.88764234955E+02 -0.11925769420E+03 -0.50538013471E+02  0.24803140494E+03  0.19200000000E+03 0.  0.
<mgrwt>
<rscale>  0 0.50992430E+03</rscale>
<asrwt>0</asrwt>
<pdfrwt beam="1">  1        2 0.61355435E-01 0.50992430E+03</pdfrwt>
<pdfrwt beam="2">  1       -2 0.21622321E-01 0.50992430E+03</pdfrwt>
<totfact> 0.14806000E+03</totfact>
</mgrwt>
</event>
<event>
 4    1  0.1896644E-005  0.5257258E+03  0.7818608E-02  0.1007274E+00
          2   -1    0    0  501    0  0.00000000000E+00  0.00000000000E+00  0.22996799158E+04  0.22996799158E+04  0.25500000000E-02 0.  1.
         -2   -1    0    0    0  501 -0.00000000000E+00 -0.00000000000E+00 -0.30046316857E+02  0.30046316965E+02  0.25500000000E-02 0. -1.
    5000001    1    1    2    0    0 -0.12090075682E+03  0.86224128396E+02  0.15819609794E+04  0.16004737216E+04  0.19200000000E+03 0.  0.
   -5000001    1    1    2    0    0  0.12090075682E+03 -0.86224128396E+02  0.68767261958E+03  0.72925251117E+03  0.19200000000E+03 0.  0.
<mgrwt>
<rscale>  0 0.52572583E+03</rscale>
<asrwt>0</asrwt>
<pdfrwt beam="1">  1        2 0.32852583E+00 0.52572583E+03</pdfrwt>
<pdfrwt beam="2">  1       -2 0.42923293E-02 0.52572583E+03</pdfrwt>
<totfact> 0.15270809E+03</totfact>
</mgrwt>
</event>
<event>
 4    1  0.1896644E-005  0.4886007E+03  0.7818608E-02  0.1016798E+00
          2   -1    0    0  501    0  0.00000000000E+00  0.00000000000E+00  0.17511093804E+03  0.17511093806E+03  0.25500000000E-02 0.  1.
         -2   -1    0    0    0  501 -0.00000000000E+00 -0.00000000000E+00 -0.34082769012E+03  0.34082769013E+03  0.25500000000E-02 0. -1.
    5000001    1    1    2    0    0 -0.11101830010E+03  0.10149050518E+03 -0.68178335689E+02  0.25325416296E+03  0.19200000000E+03 0.  0.
   -5000001    1    1    2    0    0  0.11101830010E+03 -0.10149050518E+03 -0.97538416393E+02  0.26268446523E+03  0.19200000000E+03 0.  0.
<mgrwt>
<rscale>  0 0.48860068E+03</rscale>
<asrwt>0</asrwt>
<pdfrwt beam="1">  1        2 0.25015848E-01 0.48860068E+03</pdfrwt>
<pdfrwt beam="2">  1       -2 0.48689670E-01 0.48860068E+03</pdfrwt>
<totfact> 0.87759324E+02</totfact>
</mgrwt>
</event>
<event>
 4    1  0.1896644E-005  0.1206903E+04  0.7818608E-02  0.9106835E-01
          2   -1    0    0  501    0  0.00000000000E+00  0.00000000000E+00  0.17555786897E+04  0.17555786897E+04  0.25500000000E-02 0.  1.
         -2   -1    0    0    0  501 -0.00000000000E+00 -0.00000000000E+00 -0.20742670468E+03  0.20742670469E+03  0.25500000000E-02 0. -1.
    5000001    1    1    2    0    0  0.19030750225E+03  0.42674631534E+03  0.23718806890E+03  0.55807843812E+03  0.19200000000E+03 0.  0.
   -5000001    1    1    2    0    0 -0.19030750225E+03 -0.42674631534E+03  0.13109639161E+04  0.14049269562E+04  0.19200000000E+03 0.  0.
<mgrwt>
<rscale>  0 0.12069033E+04</rscale>
<asrwt>0</asrwt>
<pdfrwt beam="1">  1        2 0.25079696E+00 0.12069033E+04</pdfrwt>
<pdfrwt beam="2">  1       -2 0.29632386E-01 0.12069033E+04</pdfrwt>
<totfact> 0.11101230E+02</totfact>
</mgrwt>
</event>
<event>
 4    1  0.1896644E-005  0.5417203E+03  0.7818608E-02  0.1003429E+00
         -2   -1    0    0    0  501 -0.00000000000E+00  0.00000000000E+00  0.25274352086E+03  0.25274352087E+03  0.25500000000E-02 0. -1.
          2   -1    0    0  501    0  0.00000000000E+00 -0.00000000000E+00 -0.29027537533E+03  0.29027537534E+03  0.25500000000E-02 0.  1.
    5000001    1    1    2    0    0 -0.44898591637E+02 -0.99266571198E+02 -0.17608635873E+03  0.28238296942E+03  0.19200000000E+03 0.  0.
   -5000001    1    1    2    0    0  0.44898591637E+02  0.99266571198E+02  0.13855450426E+03  0.26063592680E+03  0.19200000000E+03 0.  0.
<mgrwt>
<rscale>  0 0.54172030E+03</rscale>
<asrwt>0</asrwt>
<pdfrwt beam="1">  1        2 0.41467911E-01 0.54172030E+03</pdfrwt>
<pdfrwt beam="2">  1       -2 0.36106217E-01 0.54172030E+03</pdfrwt>
<totfact> 0.89544061E+02</totfact>
</mgrwt>
</event>
<event>
 4    1  0.1896644E-005  0.5094541E+03  0.7818608E-02  0.1011340E+00
         -2   -1    0    0    0  501 -0.00000000000E+00  0.00000000000E+00  0.60725542621E+03  0.60725542621E+03  0.25500000000E-02 0. -1.
          2   -1    0    0  501    0  0.00000000000E+00 -0.00000000000E+00 -0.10685104476E+03  0.10685104479E+03  0.25500000000E-02 0.  1.
    5000001    1    1    2    0    0 -0.14128764989E+03  0.54443729785E+02  0.35026062829E+03  0.42716838302E+03  0.19200000000E+03 0.  0.
   -5000001    1    1    2    0    0  0.14128764989E+03 -0.54443729785E+02  0.15014375316E+03  0.28693808799E+03  0.19200000000E+03 0.  0.
<mgrwt>
<rscale>  0 0.50945413E+03</rscale>
<asrwt>0</asrwt>
<pdfrwt beam="1">  1        2 0.15264435E-01 0.50945413E+03</pdfrwt>
<pdfrwt beam="2">  1       -2 0.86750776E-01 0.50945413E+03</pdfrwt>
<totfact> 0.45575081E+02</totfact>
</mgrwt>
</event>
<event>
 4    1  0.1896644E-005  0.5821519E+03  0.7818608E-02  0.9943143E-01
         -2   -1    0    0    0  501 -0.00000000000E+00  0.00000000000E+00  0.21440050140E+02  0.21440050292E+02  0.25500000000E-02 0. -1.
          2   -1    0    0  501    0  0.00000000000E+00 -0.00000000000E+00 -0.39517262843E+04  0.39517262843E+04  0.25500000000E-02 0.  1.
    5000001    1    1    2    0    0 -0.13371102567E+03  0.17087470467E+03 -0.17739945151E+04  0.17974975223E+04  0.19200000000E+03 0.  0.
   -5000001    1    1    2    0    0  0.13371102567E+03 -0.17087470467E+03 -0.21562917190E+04  0.21756688122E+04  0.19200000000E+03 0.  0.
<mgrwt>
<rscale>  0 0.58215190E+03</rscale>
<asrwt>0</asrwt>
<pdfrwt beam="1">  1        2 0.56453186E+00 0.58215190E+03</pdfrwt>
<pdfrwt beam="2">  1       -2 0.30628668E-02 0.58215190E+03</pdfrwt>
<totfact> 0.29940756E+02</totfact>
</mgrwt>
</event>
<event>
 4    1  0.1896644E-005  0.6233800E+03  0.7818608E-02  0.9858053E-01
         -2   -1    0    0    0  501 -0.00000000000E+00  0.00000000000E+00  0.88173441989E+02  0.88173442026E+02  0.25500000000E-02 0. -1.
          2   -1    0    0  501    0  0.00000000000E+00 -0.00000000000E+00 -0.11018131712E+04  0.11018131712E+04  0.25500000000E-02 0.  1.
    5000001    1    1    2    0    0  0.50219168379E+02  0.23958152278E+03 -0.47033045518E+03  0.56391134764E+03  0.19200000000E+03 0.  0.
   -5000001    1    1    2    0    0 -0.50219168379E+02 -0.23958152278E+03 -0.54330927405E+03  0.62607526560E+03  0.19200000000E+03 0.  0.
<mgrwt>
<rscale>  0 0.62338001E+03</rscale>
<asrwt>0</asrwt>
<pdfrwt beam="1">  1        2 0.15740187E+00 0.62338001E+03</pdfrwt>
<pdfrwt beam="2">  1       -2 0.12596207E-01 0.62338001E+03</pdfrwt>
<totfact> 0.11516534E+03</totfact>
</mgrwt>
</event>
<event>
 4    1  0.1896644E-005  0.5492760E+03  0.7818608E-02  0.1001662E+00
          2   -1    0    0  501    0  0.00000000000E+00  0.00000000000E+00  0.15268521791E+03  0.15268521793E+03  0.25500000000E-02 0.  1.
         -2   -1    0    0    0  501 -0.00000000000E+00 -0.00000000000E+00 -0.49399687732E+03  0.49399687733E+03  0.25500000000E-02 0. -1.
    5000001    1    1    2    0    0 -0.13347416529E+03 -0.13211572114E+03 -0.23820764676E+03  0.35899414974E+03  0.19200000000E+03 0.  0.
   -5000001    1    1    2    0    0  0.13347416529E+03  0.13211572114E+03 -0.10310401265E+03  0.28768794552E+03  0.19200000000E+03 0.  0.
<mgrwt>
<rscale>  0 0.54927596E+03</rscale>
<asrwt>0</asrwt>
<pdfrwt beam="1">  1        2 0.21812174E-01 0.54927596E+03</pdfrwt>
<pdfrwt beam="2">  1       -2 0.70570982E-01 0.54927596E+03</pdfrwt>
<totfact> 0.47289750E+02</totfact>
</mgrwt>
</event>
<event>
 4    1  0.1896644E-005  0.7899849E+03  0.7818608E-02  0.9574628E-01
         -2   -1    0    0    0  501 -0.00000000000E+00  0.00000000000E+00  0.11315542939E+03  0.11315542942E+03  0.25500000000E-02 0. -1.
          2   -1    0    0  501    0  0.00000000000E+00 -0.00000000000E+00 -0.13788027944E+04  0.13788027944E+04  0.25500000000E-02 0.  1.
    5000001    1    1    2    0    0  0.21655644391E+03  0.29412566587E+02 -0.11374459443E+04  0.11740566718E+04  0.19200000000E+03 0.  0.
   -5000001    1    1    2    0    0 -0.21655644391E+03 -0.29412566587E+02 -0.12820142069E+03  0.31790155196E+03  0.19200000000E+03 0.  0.
<mgrwt>
<rscale>  0 0.78998487E+03</rscale>
<asrwt>0</asrwt>
<pdfrwt beam="1">  1        2 0.19697182E+00 0.78998487E+03</pdfrwt>
<pdfrwt beam="2">  1       -2 0.16165062E-01 0.78998487E+03</pdfrwt>
<totfact> 0.52730276E+02</totfact>
</mgrwt>
</event>
<event>
 4    1  0.1896644E-005  0.1901202E+04  0.7818608E-02  0.8654258E-01
          2   -1    0    0  501    0  0.00000000000E+00  0.00000000000E+00  0.45205937585E+04  0.45205937585E+04  0.25500000000E-02 0.  1.
         -2   -1    0    0    0  501 -0.00000000000E+00 -0.00000000000E+00 -0.19989452494E+03  0.19989452496E+03  0.25500000000E-02 0. -1.
    5000001    1    1    2    0    0  0.75309592316E+03  0.31776573193E+03  0.32669794658E+04  0.33731509542E+04  0.19200000000E+03 0.  0.
   -5000001    1    1    2    0    0 -0.75309592316E+03 -0.31776573193E+03  0.10537197678E+04  0.13473373293E+04  0.19200000000E+03 0.  0.
<mgrwt>
<rscale>  0 0.19012017E+04</rscale>
<asrwt>0</asrwt>
<pdfrwt beam="1">  1        2 0.64579911E+00 0.19012017E+04</pdfrwt>
<pdfrwt beam="2">  1       -2 0.28556360E-01 0.19012017E+04</pdfrwt>
<totfact> 0.25015379E+00</totfact>
</mgrwt>
</event>
<event>
 4    1  0.1896644E-005  0.8093455E+03  0.7818608E-02  0.9546588E-01
          2   -1    0    0  501    0  0.00000000000E+00  0.00000000000E+00  0.12768129057E+04  0.12768129058E+04  0.25500000000E-02 0.  1.
         -2   -1    0    0    0  501 -0.00000000000E+00 -0.00000000000E+00 -0.12825687735E+03  0.12825687738E+03  0.25500000000E-02 0. -1.
    5000001    1    1    2    0    0 -0.29292458379E+01  0.34131217806E+03  0.39728999787E+03  0.55785833845E+03  0.19200000000E+03 0.  0.
   -5000001    1    1    2    0    0  0.29292458379E+01 -0.34131217806E+03  0.75126603053E+03  0.84721144468E+03  0.19200000000E+03 0.  0.
<mgrwt>
<rscale>  0 0.80934550E+03</rscale>
<asrwt>0</asrwt>
<pdfrwt beam="1">  1        2 0.18240184E+00 0.80934550E+03</pdfrwt>
<pdfrwt beam="2">  1       -2 0.18322411E-01 0.80934550E+03</pdfrwt>
<totfact> 0.48284775E+02</totfact>
</mgrwt>
</event>
<event>
 4    1  0.1896644E-005  0.4959663E+03  0.7818608E-02  0.1014837E+00
         -2   -1    0    0    0  501 -0.00000000000E+00  0.00000000000E+00  0.14603696459E+03  0.14603696462E+03  0.25500000000E-02 0. -1.
          2   -1    0    0  501    0  0.00000000000E+00 -0.00000000000E+00 -0.42109638909E+03  0.42109638909E+03  0.25500000000E-02 0.  1.
    5000001    1    1    2    0    0 -0.25859093814E+02  0.15450436582E+03 -0.14845868709E+03  0.28886722480E+03  0.19200000000E+03 0.  0.
   -5000001    1    1    2    0    0  0.25859093814E+02 -0.15450436582E+03 -0.12660073741E+03  0.27826612891E+03  0.19200000000E+03 0.  0.
<mgrwt>
<rscale>  0 0.49596628E+03</rscale>
<asrwt>0</asrwt>
<pdfrwt beam="1">  1        2 0.60156627E-01 0.49596628E+03</pdfrwt>
<pdfrwt beam="2">  1       -2 0.20862424E-01 0.49596628E+03</pdfrwt>
<totfact> 0.16109816E+03</totfact>
</mgrwt>
</event>
<event>
 4    1  0.1896644E-005  0.5745376E+03  0.7818608E-02  0.9959688E-01
         -2   -1    0    0    0  501 -0.00000000000E+00  0.00000000000E+00  0.41551486789E+02  0.41551486867E+02  0.25500000000E-02 0. -1.
          2   -1    0    0  501    0  0.00000000000E+00 -0.00000000000E+00 -0.19860508870E+04  0.19860508870E+04  0.25500000000E-02 0.  1.
    5000001    1    1    2    0    0 -0.64485277513E+02 -0.20186348886E+03 -0.87546292652E+03  0.92098129995E+03  0.19200000000E+03 0.  0.
   -5000001    1    1    2    0    0  0.64485277513E+02  0.20186348886E+03 -0.10690364737E+04  0.11066210739E+04  0.19200000000E+03 0.  0.
<mgrwt>
<rscale>  0 0.57453761E+03</rscale>
<asrwt>0</asrwt>
<pdfrwt beam="1">  1        2 0.28372150E+00 0.57453761E+03</pdfrwt>
<pdfrwt beam="2">  1       -2 0.59359279E-02 0.57453761E+03</pdfrwt>
<totfact> 0.13241347E+03</totfact>
</mgrwt>
</event>
<event>
 4    1  0.1896644E-005  0.7380733E+03  0.7818608E-02  0.9654250E-01
          2   -1    0    0  501    0  0.00000000000E+00  0.00000000000E+00  0.24334536211E+04  0.24334536211E+04  0.25500000000E-02 0.  1.
         -2   -1    0    0    0  501 -0.00000000000E+00 -0.00000000000E+00 -0.55964920491E+02  0.55964920549E+02  0.25500000000E-02 0. -1.
    5000001    1    1    2    0    0  0.31483959916E+03 -0.11683700020E+02  0.11618551271E+04  0.12190290474E+04  0.19200000000E+03 0.  0.
   -5000001    1    1    2    0    0 -0.31483959916E+03  0.11683700020E+02  0.12156335735E+04  0.12703894943E+04  0.19200000000E+03 0.  0.
<mgrwt>
<rscale>  0 0.73807327E+03</rscale>
<asrwt>0</asrwt>
<pdfrwt beam="1">  1        2 0.34763627E+00 0.73807327E+03</pdfrwt>
<pdfrwt beam="2">  1       -2 0.79949877E-02 0.73807327E+03</pdfrwt>
<totfact> 0.48559982E+02</totfact>
</mgrwt>
</event>
<event>
 4    1  0.1896644E-005  0.6640358E+03  0.7818608E-02  0.9780793E-01
         -2   -1    0    0    0  501 -0.00000000000E+00  0.00000000000E+00  0.17305057850E+03  0.17305057852E+03  0.25500000000E-02 0. -1.
          2   -1    0    0  501    0  0.00000000000E+00 -0.00000000000E+00 -0.63701532579E+03  0.63701532580E+03  0.25500000000E-02 0.  1.
    5000001    1    1    2    0    0  0.24063243790E+03 -0.12119237400E+03 -0.19790530825E+03  0.38551533396E+03  0.19200000000E+03 0.  0.
   -5000001    1    1    2    0    0 -0.24063243790E+03  0.12119237400E+03 -0.26605943905E+03  0.42455057036E+03  0.19200000000E+03 0.  0.
<mgrwt>
<rscale>  0 0.66403575E+03</rscale>
<asrwt>0</asrwt>
<pdfrwt beam="1">  1        2 0.91002189E-01 0.66403575E+03</pdfrwt>
<pdfrwt beam="2">  1       -2 0.24721511E-01 0.66403575E+03</pdfrwt>
<totfact> 0.74128234E+02</totfact>
</mgrwt>
</event>
<event>
 4    1  0.1896644E-005  0.5525123E+03  0.7818608E-02  0.1000914E+00
          2   -1    0    0  501    0  0.00000000000E+00  0.00000000000E+00  0.21639443900E+04  0.21639443900E+04  0.25500000000E-02 0.  1.
         -2   -1    0    0    0  501 -0.00000000000E+00 -0.00000000000E+00 -0.35267756758E+02  0.35267756850E+02  0.25500000000E-02 0. -1.
    5000001    1    1    2    0    0 -0.17518161651E+03  0.85510952701E+02  0.91262646350E+03  0.95276008715E+03  0.19200000000E+03 0.  0.
   -5000001    1    1    2    0    0  0.17518161651E+03 -0.85510952701E+02  0.12160501697E+04  0.12464520597E+04  0.19200000000E+03 0.  0.
<mgrwt>
<rscale>  0 0.55251231E+03</rscale>
<asrwt>0</asrwt>
<pdfrwt beam="1">  1        2 0.30913497E+00 0.55251231E+03</pdfrwt>
<pdfrwt beam="2">  1       -2 0.50382500E-02 0.55251231E+03</pdfrwt>
<totfact> 0.13934025E+03</totfact>
</mgrwt>
</event>
<event>
 4    1  0.1896644E-005  0.8873080E+03  0.7818608E-02  0.9441588E-01
         -2   -1    0    0    0  501 -0.00000000000E+00  0.00000000000E+00  0.32529599941E+03  0.32529599942E+03  0.25500000000E-02 0. -1.
          2   -1    0    0  501    0  0.00000000000E+00 -0.00000000000E+00 -0.60507621271E+03  0.60507621271E+03  0.25500000000E-02 0.  1.
    5000001    1    1    2    0    0 -0.20113254164E+03 -0.25136963877E+03  0.10895471265E+03  0.39035384462E+03  0.19200000000E+03 0.  0.
   -5000001    1    1    2    0    0  0.20113254164E+03  0.25136963877E+03 -0.38873492595E+03  0.54001836752E+03  0.19200000000E+03 0.  0.
<mgrwt>
<rscale>  0 0.88730800E+03</rscale>
<asrwt>0</asrwt>
<pdfrwt beam="1">  1        2 0.86439459E-01 0.88730800E+03</pdfrwt>
<pdfrwt beam="2">  1       -2 0.46470857E-01 0.88730800E+03</pdfrwt>
<totfact> 0.23651411E+02</totfact>
</mgrwt>
</event>
<event>
 4    1  0.1896644E-005  0.8166413E+03  0.7818608E-02  0.9536237E-01
         -2   -1    0    0    0  501 -0.00000000000E+00  0.00000000000E+00  0.57555336836E+02  0.57555336892E+02  0.25500000000E-02 0. -1.
          2   -1    0    0  501    0  0.00000000000E+00 -0.00000000000E+00 -0.28967901616E+04  0.28967901616E+04  0.25500000000E-02 0.  1.
    5000001    1    1    2    0    0  0.34035701045E+03 -0.55964939129E+02 -0.10421500685E+04  0.11144127307E+04  0.19200000000E+03 0.  0.
   -5000001    1    1    2    0    0 -0.34035701045E+03  0.55964939129E+02 -0.17970847563E+04  0.18399327679E+04  0.19200000000E+03 0.  0.
<mgrwt>
<rscale>  0 0.81664125E+03</rscale>
<asrwt>0</asrwt>
<pdfrwt beam="1">  1        2 0.41382707E+00 0.81664125E+03</pdfrwt>
<pdfrwt beam="2">  1       -2 0.82221928E-02 0.81664125E+03</pdfrwt>
<totfact> 0.26310696E+02</totfact>
</mgrwt>
</event>
<event>
 4    1  0.1896644E-005  0.4733506E+03  0.7818608E-02  0.1020979E+00
         -2   -1    0    0    0  501 -0.00000000000E+00  0.00000000000E+00  0.12527284752E+03  0.12527284755E+03  0.25500000000E-02 0. -1.
          2   -1    0    0  501    0  0.00000000000E+00 -0.00000000000E+00 -0.44714550574E+03  0.44714550574E+03  0.25500000000E-02 0.  1.
    5000001    1    1    2    0    0  0.60748904147E+02  0.88844961900E+02 -0.55739632889E+02  0.22705674023E+03  0.19200000000E+03 0.  0.
   -5000001    1    1    2    0    0 -0.60748904147E+02 -0.88844961900E+02 -0.26613302532E+03  0.34536161306E+03  0.19200000000E+03 0.  0.
<mgrwt>
<rscale>  0 0.47335057E+03</rscale>
<asrwt>0</asrwt>
<pdfrwt beam="1">  1        2 0.63877929E-01 0.47335057E+03</pdfrwt>
<pdfrwt beam="2">  1       -2 0.17896121E-01 0.47335057E+03</pdfrwt>
<totfact> 0.19632064E+03</totfact>
</mgrwt>
</event>
<event>
 4    1  0.1896644E-005  0.5759426E+03  0.7818608E-02  0.9956614E-01
         -2   -1    0    0    0  501 -0.00000000000E+00  0.00000000000E+00  0.45054693926E+02  0.45054693998E+02  0.25500000000E-02 0. -1.
          2   -1    0    0  501    0  0.00000000000E+00 -0.00000000000E+00 -0.18405958280E+04  0.18405958280E+04  0.25500000000E-02 0.  1.
    5000001    1    1    2    0    0 -0.15944419329E+03  0.11669166304E+03 -0.11721660163E+04  0.12041082031E+04  0.19200000000E+03 0.  0.
   -5000001    1    1    2    0    0  0.15944419329E+03 -0.11669166304E+03 -0.62337511780E+03  0.68154231893E+03  0.19200000000E+03 0.  0.
<mgrwt>
<rscale>  0 0.57594264E+03</rscale>
<asrwt>0</asrwt>
<pdfrwt beam="1">  1        2 0.26294221E+00 0.57594264E+03</pdfrwt>
<pdfrwt beam="2">  1       -2 0.64363860E-02 0.57594264E+03</pdfrwt>
<totfact> 0.13799035E+03</totfact>
</mgrwt>
</event>
<event>
 4    1  0.1896644E-005  0.4633777E+03  0.7818608E-02  0.1023806E+00
         -2   -1    0    0    0  501 -0.00000000000E+00  0.00000000000E+00  0.83252008394E+03  0.83252008394E+03  0.25500000000E-02 0. -1.
          2   -1    0    0  501    0  0.00000000000E+00 -0.00000000000E+00 -0.64478579338E+02  0.64478579388E+02  0.25500000000E-02 0.  1.
    5000001    1    1    2    0    0 -0.12908114292E+03  0.10603880514E+02  0.39646537925E+03  0.45915485479E+03  0.19200000000E+03 0.  0.
   -5000001    1    1    2    0    0  0.12908114292E+03 -0.10603880514E+02  0.37157612535E+03  0.43784380853E+03  0.19200000000E+03 0.  0.
<mgrwt>
<rscale>  0 0.46337765E+03</rscale>
<asrwt>0</asrwt>
<pdfrwt beam="1">  1        2 0.92112259E-02 0.46337765E+03</pdfrwt>
<pdfrwt beam="2">  1       -2 0.11893144E+00 0.46337765E+03</pdfrwt>
<totfact> 0.40531151E+02</totfact>
</mgrwt>
</event>
<event>
 4    1  0.1896644E-005  0.5243187E+03  0.7818608E-02  0.1007619E+00
          2   -1    0    0  501    0  0.00000000000E+00  0.00000000000E+00  0.99857622482E+03  0.99857622482E+03  0.25500000000E-02 0.  1.
         -2   -1    0    0    0  501 -0.00000000000E+00 -0.00000000000E+00 -0.68825504091E+02  0.68825504138E+02  0.25500000000E-02 0. -1.
    5000001    1    1    2    0    0 -0.14534650884E+03  0.94078380541E+02  0.37643769414E+03  0.45666802700E+03  0.19200000000E+03 0.  0.
   -5000001    1    1    2    0    0  0.14534650884E+03 -0.94078380541E+02  0.55331302659E+03  0.61073370196E+03  0.19200000000E+03 0.  0.
<mgrwt>
<rscale>  0 0.52431865E+03</rscale>
<asrwt>0</asrwt>
<pdfrwt beam="1">  1        2 0.14265374E+00 0.52431865E+03</pdfrwt>
<pdfrwt beam="2">  1       -2 0.98322154E-02 0.52431865E+03</pdfrwt>
<totfact> 0.19914890E+03</totfact>
</mgrwt>
</event>
<event>
 4    1  0.1896644E-005  0.8000918E+03  0.7818608E-02  0.9559884E-01
         -2   -1    0    0    0  501 -0.00000000000E+00  0.00000000000E+00  0.28112129661E+03  0.28112129662E+03  0.25500000000E-02 0. -1.
          2   -1    0    0  501    0  0.00000000000E+00 -0.00000000000E+00 -0.56927996039E+03  0.56927996040E+03  0.25500000000E-02 0.  1.
    5000001    1    1    2    0    0  0.32603539192E+03 -0.45054281814E+01 -0.28206282366E+03  0.47195636680E+03  0.19200000000E+03 0.  0.
   -5000001    1    1    2    0    0 -0.32603539192E+03  0.45054281814E+01 -0.60958401241E+01  0.37844489022E+03  0.19200000000E+03 0.  0.
<mgrwt>
<rscale>  0 0.80009180E+03</rscale>
<asrwt>0</asrwt>
<pdfrwt beam="1">  1        2 0.81325708E-01 0.80009180E+03</pdfrwt>
<pdfrwt beam="2">  1       -2 0.40160185E-01 0.80009180E+03</pdfrwt>
<totfact> 0.34046185E+02</totfact>
</mgrwt>
</event>
<event>
 4    1  0.1896644E-005  0.4866816E+03  0.7818608E-02  0.1017315E+00
          2   -1    0    0  501    0  0.00000000000E+00  0.00000000000E+00  0.13277704803E+04  0.13277704803E+04  0.25500000000E-02 0.  1.
         -2   -1    0    0    0  501 -0.00000000000E+00 -0.00000000000E+00 -0.44597132693E+02  0.44597132766E+02  0.25500000000E-02 0. -1.
    5000001    1    1    2    0    0  0.10209816857E+03 -0.53407302341E+02  0.37296937257E+03  0.43502474510E+03  0.19200000000E+03 0.  0.
   -5000001    1    1    2    0    0 -0.10209816857E+03  0.53407302341E+02  0.91020397508E+03  0.93734286802E+03  0.19200000000E+03 0.  0.
<mgrwt>
<rscale>  0 0.48668165E+03</rscale>
<asrwt>0</asrwt>
<pdfrwt beam="1">  1        2 0.18968152E+00 0.48668165E+03</pdfrwt>
<pdfrwt beam="2">  1       -2 0.63710180E-02 0.48668165E+03</pdfrwt>
<totfact> 0.25822038E+03</totfact>
</mgrwt>
</event>
<event>
 4    1  0.1896644E-005  0.5142150E+03  0.7818608E-02  0.1010134E+00
         -2   -1    0    0    0  501 -0.00000000000E+00  0.00000000000E+00  0.14271734604E+03  0.14271734606E+03  0.25500000000E-02 0. -1.
          2   -1    0    0  501    0  0.00000000000E+00 -0.00000000000E+00 -0.46318309549E+03  0.46318309550E+03  0.25500000000E-02 0.  1.
    5000001    1    1    2    0    0 -0.15193981091E+03 -0.19969569291E+02 -0.70838880097E+02  0.25566899845E+03  0.19200000000E+03 0.  0.
   -5000001    1    1    2    0    0  0.15193981091E+03  0.19969569291E+02 -0.24962686936E+03  0.35023144311E+03  0.19200000000E+03 0.  0.
<mgrwt>
<rscale>  0 0.51421498E+03</rscale>
<asrwt>0</asrwt>
<pdfrwt beam="1">  1        2 0.66169013E-01 0.51421498E+03</pdfrwt>
<pdfrwt beam="2">  1       -2 0.20388193E-01 0.51421498E+03</pdfrwt>
<totfact> 0.15080777E+03</totfact>
</mgrwt>
</event>
<event>
 4    1  0.1896644E-005  0.6079847E+03  0.7818608E-02  0.9888978E-01
         -2   -1    0    0    0  501 -0.00000000000E+00  0.00000000000E+00  0.82215947845E+02  0.82215947885E+02  0.25500000000E-02 0. -1.
          2   -1    0    0  501    0  0.00000000000E+00 -0.00000000000E+00 -0.11240074310E+04  0.11240074310E+04  0.25500000000E-02 0.  1.
    5000001    1    1    2    0    0 -0.21611037260E+03 -0.68652253762E+02 -0.64840362187E+03  0.71323774574E+03  0.19200000000E+03 0.  0.
   -5000001    1    1    2    0    0  0.21611037260E+03  0.68652253762E+02 -0.39338786132E+03  0.49298563318E+03  0.19200000000E+03 0.  0.
<mgrwt>
<rscale>  0 0.60798466E+03</rscale>
<asrwt>0</asrwt>
<pdfrwt beam="1">  1        2 0.16057248E+00 0.60798466E+03</pdfrwt>
<pdfrwt beam="2">  1       -2 0.11745136E-01 0.60798466E+03</pdfrwt>
<totfact> 0.12552897E+03</totfact>
</mgrwt>
</event>
<event>
 4    1  0.1896644E-005  0.1440452E+04  0.7818608E-02  0.8925047E-01
         -2   -1    0    0    0  501 -0.00000000000E+00  0.00000000000E+00  0.50823408957E+03  0.50823408958E+03  0.25500000000E-02 0. -1.
          2   -1    0    0  501    0  0.00000000000E+00 -0.00000000000E+00 -0.10206429234E+04  0.10206429234E+04  0.25500000000E-02 0.  1.
    5000001    1    1    2    0    0 -0.59474192922E+03  0.16579834796E+03 -0.59294098660E+03  0.87729702390E+03  0.19200000000E+03 0.  0.
   -5000001    1    1    2    0    0  0.59474192922E+03 -0.16579834796E+03  0.80532152746E+02  0.65157998910E+03  0.19200000000E+03 0.  0.
<mgrwt>
<rscale>  0 0.14404520E+04</rscale>
<asrwt>0</asrwt>
<pdfrwt beam="1">  1        2 0.14580613E+00 0.14404520E+04</pdfrwt>
<pdfrwt beam="2">  1       -2 0.72604870E-01 0.14404520E+04</pdfrwt>
<totfact> 0.45490443E+01</totfact>
</mgrwt>
</event>
<event>
 4    1  0.1896644E-005  0.5989691E+03  0.7818608E-02  0.9907547E-01
          2   -1    0    0  501    0  0.00000000000E+00  0.00000000000E+00  0.17975918238E+04  0.17975918238E+04  0.25500000000E-02 0.  1.
         -2   -1    0    0    0  501 -0.00000000000E+00 -0.00000000000E+00 -0.49895078882E+02  0.49895078947E+02  0.25500000000E-02 0. -1.
    5000001    1    1    2    0    0  0.60599469228E+02  0.11434360310E+03  0.14597323568E+04  0.14779814981E+04  0.19200000000E+03 0.  0.
   -5000001    1    1    2    0    0 -0.60599469228E+02 -0.11434360310E+03  0.28796438813E+03  0.36950540466E+03  0.19200000000E+03 0.  0.
<mgrwt>
<rscale>  0 0.59896907E+03</rscale>
<asrwt>0</asrwt>
<pdfrwt beam="1">  1        2 0.25679892E+00 0.59896907E+03</pdfrwt>
<pdfrwt beam="2">  1       -2 0.71278660E-02 0.59896907E+03</pdfrwt>
<totfact> 0.12336791E+03</totfact>
</mgrwt>
</event>
<event>
 4    1  0.1896644E-005  0.6555270E+03  0.7818608E-02  0.9796463E-01
         -2   -1    0    0    0  501 -0.00000000000E+00  0.00000000000E+00  0.67637707079E+02  0.67637707127E+02  0.25500000000E-02 0. -1.
          2   -1    0    0  501    0  0.00000000000E+00 -0.00000000000E+00 -0.15882991327E+04  0.15882991327E+04  0.25500000000E-02 0.  1.
    5000001    1    1    2    0    0 -0.26472549254E+03  0.12809911011E+02 -0.80560609466E+03  0.86954520295E+03  0.19200000000E+03 0.  0.
   -5000001    1    1    2    0    0  0.26472549254E+03 -0.12809911011E+02 -0.71505533101E+03  0.78639163692E+03  0.19200000000E+03 0.  0.
<mgrwt>
<rscale>  0 0.65552700E+03</rscale>
<asrwt>0</asrwt>
<pdfrwt beam="1">  1        2 0.22689985E+00 0.65552700E+03</pdfrwt>
<pdfrwt beam="2">  1       -2 0.96625306E-02 0.65552700E+03</pdfrwt>
<totfact> 0.96703155E+02</totfact>
</mgrwt>
</event>
<event>
 4    1  0.1896644E-005  0.6004122E+03  0.7818608E-02  0.9904551E-01
         -2   -1    0    0    0  501 -0.00000000000E+00  0.00000000000E+00  0.77278293074E+02  0.77278293116E+02  0.25500000000E-02 0. -1.
          2   -1    0    0  501    0  0.00000000000E+00 -0.00000000000E+00 -0.11662225646E+04  0.11662225646E+04  0.25500000000E-02 0.  1.
    5000001    1    1    2    0    0  0.12512464807E+03 -0.18372074109E+03 -0.41596172585E+03  0.50921277049E+03  0.19200000000E+03 0.  0.
   -5000001    1    1    2    0    0 -0.12512464807E+03  0.18372074109E+03 -0.67298254567E+03  0.73428808722E+03  0.19200000000E+03 0.  0.
<mgrwt>
<rscale>  0 0.60041216E+03</rscale>
<asrwt>0</asrwt>
<pdfrwt beam="1">  1        2 0.16660321E+00 0.60041216E+03</pdfrwt>
<pdfrwt beam="2">  1       -2 0.11039757E-01 0.60041216E+03</pdfrwt>
<totfact> 0.13145479E+03</totfact>
</mgrwt>
</event>
<event>
 4    1  0.1896644E-005  0.8394153E+03  0.7818608E-02  0.9504655E-01
          2   -1    0    0  501    0  0.00000000000E+00  0.00000000000E+00  0.83390229741E+03  0.83390229741E+03  0.25500000000E-02 0.  1.
         -2   -1    0    0    0  501 -0.00000000000E+00 -0.00000000000E+00 -0.21124119201E+03  0.21124119202E+03  0.25500000000E-02 0. -1.
    5000001    1    1    2    0    0  0.36643945189E+03 -0.67978819035E+02  0.33596699566E+03  0.53724930331E+03  0.19200000000E+03 0.  0.
   -5000001    1    1    2    0    0 -0.36643945189E+03  0.67978819035E+02  0.28669410974E+03  0.50789418612E+03  0.19200000000E+03 0.  0.
<mgrwt>
<rscale>  0 0.83941531E+03</rscale>
<asrwt>0</asrwt>
<pdfrwt beam="1">  1        2 0.11912890E+00 0.83941531E+03</pdfrwt>
<pdfrwt beam="2">  1       -2 0.30177313E-01 0.83941531E+03</pdfrwt>
<totfact> 0.36574706E+02</totfact>
</mgrwt>
</event>
<event>
 4    1  0.1896644E-005  0.6953600E+03  0.7818608E-02  0.9725200E-01
          2   -1    0    0  501    0  0.00000000000E+00  0.00000000000E+00  0.15540326502E+04  0.15540326502E+04  0.25500000000E-02 0.  1.
         -2   -1    0    0    0  501 -0.00000000000E+00 -0.00000000000E+00 -0.77785603398E+02  0.77785603440E+02  0.25500000000E-02 0. -1.
    5000001    1    1    2    0    0 -0.14206913824E+03  0.24820094444E+03  0.84894306489E+03  0.91616356416E+03  0.19200000000E+03 0.  0.
   -5000001    1    1    2    0    0  0.14206913824E+03 -0.24820094444E+03  0.62730398190E+03  0.71565468947E+03  0.19200000000E+03 0.  0.
<mgrwt>
<rscale>  0 0.69535996E+03</rscale>
<asrwt>0</asrwt>
<pdfrwt beam="1">  1        2 0.22200467E+00 0.69535996E+03</pdfrwt>
<pdfrwt beam="2">  1       -2 0.11112229E-01 0.69535996E+03</pdfrwt>
<totfact> 0.80070166E+02</totfact>
</mgrwt>
</event>
<event>
 4    1  0.1896644E-005  0.7895371E+03  0.7818608E-02  0.9575286E-01
         -2   -1    0    0    0  501 -0.00000000000E+00  0.00000000000E+00  0.33118178554E+03  0.33118178555E+03  0.25500000000E-02 0. -1.
          2   -1    0    0  501    0  0.00000000000E+00 -0.00000000000E+00 -0.47056399337E+03  0.47056399338E+03  0.25500000000E-02 0.  1.
    5000001    1    1    2    0    0 -0.27251663084E+03 -0.14481327786E+03 -0.22615818772E+03  0.42807443909E+03  0.19200000000E+03 0.  0.
   -5000001    1    1    2    0    0  0.27251663084E+03  0.14481327786E+03  0.86775979886E+02  0.37367133983E+03  0.19200000000E+03 0.  0.
<mgrwt>
<rscale>  0 0.78953714E+03</rscale>
<asrwt>0</asrwt>
<pdfrwt beam="1">  1        2 0.67223427E-01 0.78953714E+03</pdfrwt>
<pdfrwt beam="2">  1       -2 0.47311684E-01 0.78953714E+03</pdfrwt>
<totfact> 0.30663666E+02</totfact>
</mgrwt>
</event>
<event>
 4    1  0.1896644E-005  0.6374185E+03  0.7818608E-02  0.9830678E-01
          2   -1    0    0  501    0  0.00000000000E+00  0.00000000000E+00  0.24631823579E+03  0.24631823580E+03  0.25500000000E-02 0.  1.
         -2   -1    0    0    0  501 -0.00000000000E+00 -0.00000000000E+00 -0.41237538407E+03  0.41237538408E+03  0.25500000000E-02 0. -1.
    5000001    1    1    2    0    0  0.57850636519E+02 -0.21107100661E+03 -0.21702499112E+03  0.36312740567E+03  0.19200000000E+03 0.  0.
   -5000001    1    1    2    0    0 -0.57850636519E+02  0.21107100661E+03  0.50967842837E+02  0.29556621421E+03  0.19200000000E+03 0.  0.
<mgrwt>
<rscale>  0 0.63741847E+03</rscale>
<asrwt>0</asrwt>
<pdfrwt beam="1">  1        2 0.35188319E-01 0.63741847E+03</pdfrwt>
<pdfrwt beam="2">  1       -2 0.58910769E-01 0.63741847E+03</pdfrwt>
<totfact> 0.40382358E+02</totfact>
</mgrwt>
</event>
<event>
 4    1  0.1896644E-005  0.4666403E+03  0.7818608E-02  0.1022873E+00
         -2   -1    0    0    0  501 -0.00000000000E+00  0.00000000000E+00  0.19390793913E+03  0.19390793915E+03  0.25500000000E-02 0. -1.
          2   -1    0    0  501    0  0.00000000000E+00 -0.00000000000E+00 -0.28074294778E+03  0.28074294780E+03  0.25500000000E-02 0.  1.
    5000001    1    1    2    0    0 -0.98391374527E+02  0.85607423949E+02 -0.67590844404E+02  0.24174783528E+03  0.19200000000E+03 0.  0.
   -5000001    1    1    2    0    0  0.98391374527E+02 -0.85607423949E+02 -0.19244164247E+02  0.23290305166E+03  0.19200000000E+03 0.  0.
<mgrwt>
<rscale>  0 0.46664027E+03</rscale>
<asrwt>0</asrwt>
<pdfrwt beam="1">  1        2 0.40106135E-01 0.46664027E+03</pdfrwt>
<pdfrwt beam="2">  1       -2 0.27701134E-01 0.46664027E+03</pdfrwt>
<totfact> 0.15190560E+03</totfact>
</mgrwt>
</event>
<event>
 4    1  0.1896644E-005  0.4145041E+03  0.7818608E-02  0.1038870E+00
         -2   -1    0    0    0  501 -0.00000000000E+00  0.00000000000E+00  0.21627793289E+02  0.21627793439E+02  0.25500000000E-02 0. -1.
          2   -1    0    0  501    0  0.00000000000E+00 -0.00000000000E+00 -0.19860287278E+04  0.19860287278E+04  0.25500000000E-02 0.  1.
    5000001    1    1    2    0    0 -0.18299945155E+02 -0.75828678527E+02 -0.97187746104E+03  0.99372766680E+03  0.19200000000E+03 0.  0.
   -5000001    1    1    2    0    0  0.18299945155E+02  0.75828678527E+02 -0.99252347342E+03  0.10139288544E+04  0.19200000000E+03 0.  0.
<mgrwt>
<rscale>  0 0.41450413E+03</rscale>
<asrwt>0</asrwt>
<pdfrwt beam="1">  1        2 0.28371827E+00 0.41450413E+03</pdfrwt>
<pdfrwt beam="2">  1       -2 0.30896860E-02 0.41450413E+03</pdfrwt>
<totfact> 0.36277292E+03</totfact>
</mgrwt>
</event>
<event>
 4    1  0.1896644E-005  0.4858479E+03  0.7818608E-02  0.1017540E+00
          2   -1    0    0  501    0  0.00000000000E+00  0.00000000000E+00  0.38446488426E+03  0.38446488427E+03  0.25500000000E-02 0.  1.
         -2   -1    0    0    0  501 -0.00000000000E+00 -0.00000000000E+00 -0.15349136261E+03  0.15349136263E+03  0.25500000000E-02 0. -1.
    5000001    1    1    2    0    0  0.13567609570E+03 -0.56444215579E+02  0.89423097716E+02  0.25778759245E+03  0.19200000000E+03 0.  0.
   -5000001    1    1    2    0    0 -0.13567609570E+03  0.56444215579E+02  0.14155042394E+03  0.28016865445E+03  0.19200000000E+03 0.  0.
<mgrwt>
<rscale>  0 0.48584787E+03</rscale>
<asrwt>0</asrwt>
<pdfrwt beam="1">  1        2 0.54923555E-01 0.48584787E+03</pdfrwt>
<pdfrwt beam="2">  1       -2 0.21927338E-01 0.48584787E+03</pdfrwt>
<totfact> 0.16326887E+03</totfact>
</mgrwt>
</event>
<event>
 4    1  0.1896644E-005  0.7725316E+03  0.7818608E-02  0.9600650E-01
         -2   -1    0    0    0  501 -0.00000000000E+00  0.00000000000E+00  0.32902680289E+03  0.32902680290E+03  0.25500000000E-02 0. -1.
          2   -1    0    0  501    0  0.00000000000E+00 -0.00000000000E+00 -0.45346232977E+03  0.45346232978E+03  0.25500000000E-02 0.  1.
    5000001    1    1    2    0    0 -0.17976056278E+03  0.20616196787E+03  0.13398142784E+03  0.36004394167E+03  0.19200000000E+03 0.  0.
   -5000001    1    1    2    0    0  0.17976056278E+03 -0.20616196787E+03 -0.25841695472E+03  0.42244519102E+03  0.19200000000E+03 0.  0.
<mgrwt>
<rscale>  0 0.77253158E+03</rscale>
<asrwt>0</asrwt>
<pdfrwt beam="1">  1        2 0.64780332E-01 0.77253158E+03</pdfrwt>
<pdfrwt beam="2">  1       -2 0.47003829E-01 0.77253158E+03</pdfrwt>
<totfact> 0.32419286E+02</totfact>
</mgrwt>
</event>
<event>
 4    1  0.1896644E-005  0.5864257E+03  0.7818608E-02  0.9933976E-01
          2   -1    0    0  501    0  0.00000000000E+00  0.00000000000E+00  0.14328051471E+04  0.14328051471E+04  0.25500000000E-02 0.  1.
         -2   -1    0    0    0  501 -0.00000000000E+00 -0.00000000000E+00 -0.60003807661E+02  0.60003807715E+02  0.25500000000E-02 0. -1.
    5000001    1    1    2    0    0 -0.15486110129E+03 -0.15839952033E+03  0.67083375581E+03  0.73208899505E+03  0.19200000000E+03 0.  0.
   -5000001    1    1    2    0    0  0.15486110129E+03  0.15839952033E+03  0.70196758367E+03  0.76071995981E+03  0.19200000000E+03 0.  0.
<mgrwt>
<rscale>  0 0.58642566E+03</rscale>
<asrwt>0</asrwt>
<pdfrwt beam="1">  1        2 0.20468644E+00 0.58642566E+03</pdfrwt>
<pdfrwt beam="2">  1       -2 0.85719728E-02 0.58642566E+03</pdfrwt>
<totfact> 0.14170790E+03</totfact>
</mgrwt>
</event>
<event>
 4    1  0.1896644E-005  0.6593758E+03  0.7818608E-02  0.9789344E-01
          2   -1    0    0  501    0  0.00000000000E+00  0.00000000000E+00  0.99355517945E+03  0.99355517945E+03  0.25500000000E-02 0.  1.
         -2   -1    0    0    0  501 -0.00000000000E+00 -0.00000000000E+00 -0.10939915414E+03  0.10939915417E+03  0.25500000000E-02 0. -1.
    5000001    1    1    2    0    0 -0.83227754069E+02  0.23513528167E+03  0.60609581662E+03  0.68295797722E+03  0.19200000000E+03 0.  0.
   -5000001    1    1    2    0    0  0.83227754069E+02 -0.23513528167E+03  0.27806020869E+03  0.41999635640E+03  0.19200000000E+03 0.  0.
<mgrwt>
<rscale>  0 0.65937575E+03</rscale>
<asrwt>0</asrwt>
<pdfrwt beam="1">  1        2 0.14193645E+00 0.65937575E+03</pdfrwt>
<pdfrwt beam="2">  1       -2 0.15628451E-01 0.65937575E+03</pdfrwt>
<totfact> 0.93045278E+02</totfact>
</mgrwt>
</event>
<event>
 4    1  0.1896644E-005  0.8938703E+03  0.7818608E-02  0.9433276E-01
         -2   -1    0    0    0  501 -0.00000000000E+00  0.00000000000E+00  0.84817620136E+03  0.84817620137E+03  0.25500000000E-02 0. -1.
          2   -1    0    0  501    0  0.00000000000E+00 -0.00000000000E+00 -0.23550653860E+03  0.23550653862E+03  0.25500000000E-02 0.  1.
    5000001    1    1    2    0    0  0.32076393982E+03 -0.22123839311E+03  0.43378211355E+03  0.61389482301E+03  0.19200000000E+03 0.  0.
   -5000001    1    1    2    0    0 -0.32076393982E+03  0.22123839311E+03  0.17888754921E+03  0.46978791698E+03  0.19200000000E+03 0.  0.
<mgrwt>
<rscale>  0 0.89387033E+03</rscale>
<asrwt>0</asrwt>
<pdfrwt beam="1">  1        2 0.33643791E-01 0.89387033E+03</pdfrwt>
<pdfrwt beam="2">  1       -2 0.12116803E+00 0.89387033E+03</pdfrwt>
<totfact> 0.81334980E+01</totfact>
</mgrwt>
</event>
<event>
 4    1  0.1896644E-005  0.5126199E+03  0.7818608E-02  0.1010536E+00
         -2   -1    0    0    0  501 -0.00000000000E+00  0.00000000000E+00  0.14961207299E+03  0.14961207301E+03  0.25500000000E-02 0. -1.
          2   -1    0    0  501    0  0.00000000000E+00 -0.00000000000E+00 -0.43910092045E+03  0.43910092046E+03  0.25500000000E-02 0.  1.
    5000001    1    1    2    0    0  0.24713590288E+02  0.12297335622E+03 -0.13311597953E+02  0.22972680846E+03  0.19200000000E+03 0.  0.
   -5000001    1    1    2    0    0 -0.24713590288E+02 -0.12297335622E+03 -0.27617724951E+03  0.35898618501E+03  0.19200000000E+03 0.  0.
<mgrwt>
<rscale>  0 0.51261993E+03</rscale>
<asrwt>0</asrwt>
<pdfrwt beam="1">  1        2 0.62728702E-01 0.51261993E+03</pdfrwt>
<pdfrwt beam="2">  1       -2 0.21373154E-01 0.51261993E+03</pdfrwt>
<totfact> 0.14742263E+03</totfact>
</mgrwt>
</event>
<event>
 4    1  0.1896644E-005  0.6743052E+03  0.7818608E-02  0.9762212E-01
         -2   -1    0    0    0  501 -0.00000000000E+00  0.00000000000E+00  0.21645426501E+03  0.21645426503E+03  0.25500000000E-02 0. -1.
          2   -1    0    0  501    0  0.00000000000E+00 -0.00000000000E+00 -0.52515424432E+03  0.52515424432E+03  0.25500000000E-02 0.  1.
    5000001    1    1    2    0    0 -0.19013301032E+03 -0.11631807783E+03 -0.33549335575E+03  0.44620650891E+03  0.19200000000E+03 0.  0.
   -5000001    1    1    2    0    0  0.19013301032E+03  0.11631807783E+03  0.26793376441E+02  0.29540200044E+03  0.19200000000E+03 0.  0.
<mgrwt>
<rscale>  0 0.67430520E+03</rscale>
<asrwt>0</asrwt>
<pdfrwt beam="1">  1        2 0.75022035E-01 0.67430520E+03</pdfrwt>
<pdfrwt beam="2">  1       -2 0.30922038E-01 0.67430520E+03</pdfrwt>
<totfact> 0.61744449E+02</totfact>
</mgrwt>
</event>
<event>
 4    1  0.1896644E-005  0.1462482E+04  0.7818608E-02  0.8909793E-01
          2   -1    0    0  501    0  0.00000000000E+00  0.00000000000E+00  0.91965760603E+03  0.91965760603E+03  0.25500000000E-02 0.  1.
         -2   -1    0    0    0  501 -0.00000000000E+00 -0.00000000000E+00 -0.58142624763E+03  0.58142624764E+03  0.25500000000E-02 0. -1.
    5000001    1    1    2    0    0  0.40774730496E+03  0.57580230244E+03  0.16239182902E+03  0.74902687691E+03  0.19200000000E+03 0.  0.
   -5000001    1    1    2    0    0 -0.40774730496E+03 -0.57580230244E+03  0.17583952937E+03  0.75205697676E+03  0.19200000000E+03 0.  0.
<mgrwt>
<rscale>  0 0.14624815E+04</rscale>
<asrwt>0</asrwt>
<pdfrwt beam="1">  1        2 0.13137966E+00 0.14624815E+04</pdfrwt>
<pdfrwt beam="2">  1       -2 0.83060893E-01 0.14624815E+04</pdfrwt>
<totfact> 0.38923277E+01</totfact>
</mgrwt>
</event>
<event>
 4    1  0.1896644E-005  0.6000956E+03  0.7818608E-02  0.9905208E-01
         -2   -1    0    0    0  501 -0.00000000000E+00  0.00000000000E+00  0.30019743732E+03  0.30019743733E+03  0.25500000000E-02 0.  1.
          2   -1    0    0  501    0  0.00000000000E+00 -0.00000000000E+00 -0.29989826016E+03  0.29989826017E+03  0.25500000000E-02 0. -1.
    5000001    1    1    2    0    0  0.20871326361E+03 -0.42261905934E+02 -0.88266450715E+02  0.30000376901E+03  0.19200000000E+03 0.  0.
   -5000001    1    1    2    0    0 -0.20871326361E+03  0.42261905934E+02  0.88565627879E+02  0.30009192848E+03  0.19200000000E+03 0.  0.
<mgrwt>
<rscale>  0 0.60009562E+03</rscale>
<asrwt>0</asrwt>
<pdfrwt beam="1">  1        2 0.42842608E-01 0.60009562E+03</pdfrwt>
<pdfrwt beam="2">  1       -2 0.42885349E-01 0.60009562E+03</pdfrwt>
<totfact> 0.61899748E+02</totfact>
</mgrwt>
</event>
<event>
 4    1  0.1896644E-005  0.5871389E+03  0.7818608E-02  0.9932454E-01
          2   -1    0    0  501    0  0.00000000000E+00  0.00000000000E+00  0.34426906869E+03  0.34426906870E+03  0.25500000000E-02 0.  1.
         -2   -1    0    0    0  501 -0.00000000000E+00 -0.00000000000E+00 -0.25033621508E+03  0.25033621509E+03  0.25500000000E-02 0. -1.
    5000001    1    1    2    0    0 -0.16302869927E+03 -0.51667518932E+02  0.19044062207E+03  0.31996799814E+03  0.19200000000E+03 0.  0.
   -5000001    1    1    2    0    0  0.16302869927E+03  0.51667518932E+02 -0.96507768457E+02  0.27463728565E+03  0.19200000000E+03 0.  0.
<mgrwt>
<rscale>  0 0.58713888E+03</rscale>
<asrwt>0</asrwt>
<pdfrwt beam="1">  1        2 0.49181295E-01 0.58713888E+03</pdfrwt>
<pdfrwt beam="2">  1       -2 0.35762317E-01 0.58713888E+03</pdfrwt>
<totfact> 0.75535846E+02</totfact>
</mgrwt>
</event>
<event>
 4    1  0.1896644E-005  0.4278718E+03  0.7818608E-02  0.1034534E+00
          2   -1    0    0  501    0  0.00000000000E+00  0.00000000000E+00  0.46604605401E+03  0.46604605402E+03  0.25500000000E-02 0.  1.
         -2   -1    0    0    0  501 -0.00000000000E+00 -0.00000000000E+00 -0.98206097526E+02  0.98206097559E+02  0.25500000000E-02 0. -1.
    5000001    1    1    2    0    0 -0.22723174525E+02 -0.85824122952E+02  0.14175238456E+03  0.25463672412E+03  0.19200000000E+03 0.  0.
   -5000001    1    1    2    0    0  0.22723174525E+02  0.85824122952E+02  0.22608757193E+03  0.30961542746E+03  0.19200000000E+03 0.  0.
<mgrwt>
<rscale>  0 0.42787178E+03</rscale>
<asrwt>0</asrwt>
<pdfrwt beam="1">  1        2 0.66578008E-01 0.42787178E+03</pdfrwt>
<pdfrwt beam="2">  1       -2 0.14029442E-01 0.42787178E+03</pdfrwt>
<totfact> 0.28208635E+03</totfact>
</mgrwt>
</event>
<event>
 4    1  0.1896644E-005  0.4683846E+03  0.7818608E-02  0.1022377E+00
         -2   -1    0    0    0  501 -0.00000000000E+00  0.00000000000E+00  0.30053235564E+02  0.30053235672E+02  0.25500000000E-02 0. -1.
          2   -1    0    0  501    0  0.00000000000E+00 -0.00000000000E+00 -0.18249629547E+04  0.18249629547E+04  0.25500000000E-02 0.  1.
    5000001    1    1    2    0    0  0.20266853483E+02 -0.11081754929E+03 -0.11855290738E+04  0.12062480920E+04  0.19200000000E+03 0.  0.
   -5000001    1    1    2    0    0 -0.20266853483E+02  0.11081754929E+03 -0.60938064528E+03  0.64876809834E+03  0.19200000000E+03 0.  0.
<mgrwt>
<rscale>  0 0.46838464E+03</rscale>
<asrwt>0</asrwt>
<pdfrwt beam="1">  1        2 0.26070892E+00 0.46838464E+03</pdfrwt>
<pdfrwt beam="2">  1       -2 0.42933205E-02 0.46838464E+03</pdfrwt>
<totfact> 0.26429859E+03</totfact>
</mgrwt>
</event>
<event>
 4    1  0.1896644E-005  0.7865589E+03  0.7818608E-02  0.9579679E-01
         -2   -1    0    0    0  501 -0.00000000000E+00  0.00000000000E+00  0.65476427505E+03  0.65476427506E+03  0.25500000000E-02 0. -1.
          2   -1    0    0  501    0  0.00000000000E+00 -0.00000000000E+00 -0.23622047346E+03  0.23622047347E+03  0.25500000000E-02 0.  1.
    5000001    1    1    2    0    0 -0.65400273366E+02  0.28121284902E+03  0.41951118504E+03  0.54425315487E+03  0.19200000000E+03 0.  0.
   -5000001    1    1    2    0    0  0.65400273366E+02 -0.28121284902E+03 -0.96738344178E+00  0.34673159366E+03  0.19200000000E+03 0.  0.
<mgrwt>
<rscale>  0 0.78655890E+03</rscale>
<asrwt>0</asrwt>
<pdfrwt beam="1">  1        2 0.33745781E-01 0.78655890E+03</pdfrwt>
<pdfrwt beam="2">  1       -2 0.93537755E-01 0.78655890E+03</pdfrwt>
<totfact> 0.15174837E+02</totfact>
</mgrwt>
</event>
<event>
 4    1  0.1896644E-005  0.5469048E+03  0.7818608E-02  0.1002213E+00
          2   -1    0    0  501    0  0.00000000000E+00  0.00000000000E+00  0.78827290736E+02  0.78827290778E+02  0.25500000000E-02 0.  1.
         -2   -1    0    0    0  501 -0.00000000000E+00 -0.00000000000E+00 -0.94860811674E+03  0.94860811674E+03  0.25500000000E-02 0. -1.
    5000001    1    1    2    0    0  0.13487952470E+03 -0.10000480467E+03 -0.24968731010E+03  0.35693304690E+03  0.19200000000E+03 0.  0.
   -5000001    1    1    2    0    0 -0.13487952470E+03  0.10000480467E+03 -0.62009351590E+03  0.67050236062E+03  0.19200000000E+03 0.  0.
<mgrwt>
<rscale>  0 0.54690477E+03</rscale>
<asrwt>0</asrwt>
<pdfrwt beam="1">  1        2 0.11261042E-01 0.54690477E+03</pdfrwt>
<pdfrwt beam="2">  1       -2 0.13551544E+00 0.54690477E+03</pdfrwt>
<totfact> 0.22676096E+02</totfact>
</mgrwt>
</event>
<event>
 4    1  0.1896644E-005  0.9578154E+03  0.7818608E-02  0.9356062E-01
         -2   -1    0    0    0  501 -0.00000000000E+00  0.00000000000E+00  0.12564678823E+03  0.12564678826E+03  0.25500000000E-02 0. -1.
          2   -1    0    0  501    0  0.00000000000E+00 -0.00000000000E+00 -0.18253757847E+04  0.18253757847E+04  0.25500000000E-02 0.  1.
    5000001    1    1    2    0    0 -0.24408423616E+03  0.23575308691E+03 -0.14163124408E+04  0.14690001914E+04  0.19200000000E+03 0.  0.
   -5000001    1    1    2    0    0  0.24408423616E+03 -0.23575308691E+03 -0.28341655572E+03  0.48202238162E+03  0.19200000000E+03 0.  0.
<mgrwt>
<rscale>  0 0.95781544E+03</rscale>
<asrwt>0</asrwt>
<pdfrwt beam="1">  1        2 0.26076795E+00 0.95781544E+03</pdfrwt>
<pdfrwt beam="2">  1       -2 0.17949542E-01 0.95781544E+03</pdfrwt>
<totfact> 0.25511675E+02</totfact>
</mgrwt>
</event>
<event>
 4    1  0.1896644E-005  0.7107541E+03  0.7818608E-02  0.9699016E-01
          2   -1    0    0  501    0  0.00000000000E+00  0.00000000000E+00  0.25388231805E+03  0.25388231807E+03  0.25500000000E-02 0.  1.
         -2   -1    0    0    0  501 -0.00000000000E+00 -0.00000000000E+00 -0.49744642398E+03  0.49744642399E+03  0.25500000000E-02 0. -1.
    5000001    1    1    2    0    0  0.23644190064E+03 -0.15655526834E+03 -0.21417098771E+02  0.34312828001E+03  0.19200000000E+03 0.  0.
   -5000001    1    1    2    0    0 -0.23644190064E+03  0.15655526834E+03 -0.22214700716E+03  0.40820046204E+03  0.19200000000E+03 0.  0.
<mgrwt>
<rscale>  0 0.71075411E+03</rscale>
<asrwt>0</asrwt>
<pdfrwt beam="1">  1        2 0.36268903E-01 0.71075411E+03</pdfrwt>
<pdfrwt beam="2">  1       -2 0.71063774E-01 0.71075411E+03</pdfrwt>
<totfact> 0.26083695E+02</totfact>
</mgrwt>
</event>
<event>
 4    1  0.1896644E-005  0.8470649E+03  0.7818608E-02  0.9494285E-01
         -2   -1    0    0    0  501 -0.00000000000E+00  0.00000000000E+00  0.57767908535E+02  0.57767908591E+02  0.25500000000E-02 0. -1.
          2   -1    0    0  501    0  0.00000000000E+00 -0.00000000000E+00 -0.31051796181E+04  0.31051796181E+04  0.25500000000E-02 0.  1.
    5000001    1    1    2    0    0  0.28708621206E+03 -0.23701455883E+03 -0.12898800463E+04  0.13561891196E+04  0.19200000000E+03 0.  0.
   -5000001    1    1    2    0    0 -0.28708621206E+03  0.23701455883E+03 -0.17575316633E+04  0.18067584072E+04  0.19200000000E+03 0.  0.
<mgrwt>
<rscale>  0 0.84706489E+03</rscale>
<asrwt>0</asrwt>
<pdfrwt beam="1">  1        2 0.44359698E+00 0.84706489E+03</pdfrwt>
<pdfrwt beam="2">  1       -2 0.82525603E-02 0.84706489E+03</pdfrwt>
<totfact> 0.20035558E+02</totfact>
</mgrwt>
</event>
<event>
 4    1  0.1896644E-005  0.6411736E+03  0.7818608E-02  0.9823484E-01
          2   -1    0    0  501    0  0.00000000000E+00  0.00000000000E+00  0.66092410183E+03  0.66092410184E+03  0.25500000000E-02 0.  1.
         -2   -1    0    0    0  501 -0.00000000000E+00 -0.00000000000E+00 -0.15550330467E+03  0.15550330469E+03  0.25500000000E-02 0. -1.
    5000001    1    1    2    0    0 -0.22253265803E+03  0.90141550902E+01  0.90093054126E+02  0.30754316329E+03  0.19200000000E+03 0.  0.
   -5000001    1    1    2    0    0  0.22253265803E+03 -0.90141550902E+01  0.41532774304E+03  0.50888424324E+03  0.19200000000E+03 0.  0.
<mgrwt>
<rscale>  0 0.64117356E+03</rscale>
<asrwt>0</asrwt>
<pdfrwt beam="1">  1        2 0.94417729E-01 0.64117356E+03</pdfrwt>
<pdfrwt beam="2">  1       -2 0.22214758E-01 0.64117356E+03</pdfrwt>
<totfact> 0.85841895E+02</totfact>
</mgrwt>
</event>
<event>
 4    1  0.1896644E-005  0.5983317E+03  0.7818608E-02  0.9908873E-01
         -2   -1    0    0    0  501 -0.00000000000E+00  0.00000000000E+00  0.17779705343E+03  0.17779705345E+03  0.25500000000E-02 0. -1.
          2   -1    0    0  501    0  0.00000000000E+00 -0.00000000000E+00 -0.50338414075E+03  0.50338414075E+03  0.25500000000E-02 0.  1.
    5000001    1    1    2    0    0 -0.93152833051E+02  0.20411371000E+03 -0.21734930270E+03  0.36666684647E+03  0.19200000000E+03 0.  0.
   -5000001    1    1    2    0    0  0.93152833051E+02 -0.20411371000E+03 -0.10823778462E+03  0.31451434774E+03  0.19200000000E+03 0.  0.
<mgrwt>
<rscale>  0 0.59833174E+03</rscale>
<asrwt>0</asrwt>
<pdfrwt beam="1">  1        2 0.71912020E-01 0.59833174E+03</pdfrwt>
<pdfrwt beam="2">  1       -2 0.25399579E-01 0.59833174E+03</pdfrwt>
<totfact> 0.93015581E+02</totfact>
</mgrwt>
</event>
<event>
 4    1  0.1896644E-005  0.9560981E+03  0.7818608E-02  0.9358051E-01
         -2   -1    0    0    0  501 -0.00000000000E+00  0.00000000000E+00  0.23202905898E+03  0.23202905899E+03  0.25500000000E-02 0. -1.
          2   -1    0    0  501    0  0.00000000000E+00 -0.00000000000E+00 -0.98492365041E+03  0.98492365041E+03  0.25500000000E-02 0.  1.
    5000001    1    1    2    0    0 -0.36140235152E+03  0.19690153644E+03 -0.18643667570E+03  0.49092210052E+03  0.19200000000E+03 0.  0.
   -5000001    1    1    2    0    0  0.36140235152E+03 -0.19690153644E+03 -0.56645791573E+03  0.72603060888E+03  0.19200000000E+03 0.  0.
<mgrwt>
<rscale>  0 0.95609813E+03</rscale>
<asrwt>0</asrwt>
<pdfrwt beam="1">  1        2 0.14070338E+00 0.95609813E+03</pdfrwt>
<pdfrwt beam="2">  1       -2 0.33147009E-01 0.95609813E+03</pdfrwt>
<totfact> 0.24334745E+02</totfact>
</mgrwt>
</event>
<event>
 4    1  0.1896644E-005  0.3941493E+03  0.7818608E-02  0.1045825E+00
          2   -1    0    0  501    0  0.00000000000E+00  0.00000000000E+00  0.36440103976E+04  0.36440103976E+04  0.25500000000E-02 0.  1.
         -2   -1    0    0    0  501 -0.00000000000E+00 -0.00000000000E+00 -0.10658154593E+02  0.10658154898E+02  0.25500000000E-02 0. -1.
    5000001    1    1    2    0    0  0.33688048982E+02  0.17688224454E+02  0.20294684544E+04  0.20388854713E+04  0.19200000000E+03 0.  0.
   -5000001    1    1    2    0    0 -0.33688048982E+02 -0.17688224454E+02  0.16038837886E+04  0.16157830811E+04  0.19200000000E+03 0.  0.
<mgrwt>
<rscale>  0 0.39414935E+03</rscale>
<asrwt>0</asrwt>
<pdfrwt beam="1">  1        2 0.52057319E+00 0.39414935E+03</pdfrwt>
<pdfrwt beam="2">  1       -2 0.15225927E-02 0.39414935E+03</pdfrwt>
<totfact> 0.13689319E+03</totfact>
</mgrwt>
</event>
<event>
 4    1  0.1896644E-005  0.4532225E+03  0.7818608E-02  0.1026765E+00
         -2   -1    0    0    0  501 -0.00000000000E+00  0.00000000000E+00  0.26535254978E+02  0.26535255100E+02  0.25500000000E-02 0. -1.
          2   -1    0    0  501    0  0.00000000000E+00 -0.00000000000E+00 -0.19352617204E+04  0.19352617204E+04  0.25500000000E-02 0.  1.
    5000001    1    1    2    0    0  0.11826757219E+03  0.20104382935E+02 -0.99705128236E+03  0.10224317408E+04  0.19200000000E+03 0.  0.
   -5000001    1    1    2    0    0 -0.11826757219E+03 -0.20104382935E+02 -0.91167518311E+03  0.93936523479E+03  0.19200000000E+03 0.  0.
<mgrwt>
<rscale>  0 0.45322252E+03</rscale>
<asrwt>0</asrwt>
<pdfrwt beam="1">  1        2 0.27646587E+00 0.45322252E+03</pdfrwt>
<pdfrwt beam="2">  1       -2 0.37907519E-02 0.45322252E+03</pdfrwt>
<totfact> 0.28174645E+03</totfact>
</mgrwt>
</event>
<event>
 4    1  0.1896644E-005  0.1045400E+04  0.7818608E-02  0.9260106E-01
          2   -1    0    0  501    0  0.00000000000E+00  0.00000000000E+00  0.11324820301E+04  0.11324820301E+04  0.25500000000E-02 0.  1.
         -2   -1    0    0    0  501 -0.00000000000E+00 -0.00000000000E+00 -0.24125341923E+03  0.24125341924E+03  0.25500000000E-02 0. -1.
    5000001    1    1    2    0    0 -0.22787545089E+03 -0.27205786801E+03  0.89759503360E+01  0.40359295379E+03  0.19200000000E+03 0.  0.
   -5000001    1    1    2    0    0  0.22787545089E+03  0.27205786801E+03  0.88225266057E+03  0.97014249559E+03  0.19200000000E+03 0.  0.
<mgrwt>
<rscale>  0 0.10453998E+04</rscale>
<asrwt>0</asrwt>
<pdfrwt beam="1">  1        2 0.16178315E+00 0.10453998E+04</pdfrwt>
<pdfrwt beam="2">  1       -2 0.34464774E-01 0.10453998E+04</pdfrwt>
<totfact> 0.18334032E+02</totfact>
</mgrwt>
</event>
<event>
 4    1  0.1896644E-005  0.5567055E+03  0.7818608E-02  0.9999537E-01
          2   -1    0    0  501    0  0.00000000000E+00  0.00000000000E+00  0.61213607346E+02  0.61213607400E+02  0.25500000000E-02 0.  1.
         -2   -1    0    0    0  501 -0.00000000000E+00 -0.00000000000E+00 -0.12657356220E+04  0.12657356220E+04  0.25500000000E-02 0. -1.
    5000001    1    1    2    0    0  0.17897246304E+03 -0.47581154189E+02 -0.41275353308E+03  0.49145151117E+03  0.19200000000E+03 0.  0.
   -5000001    1    1    2    0    0 -0.17897246304E+03  0.47581154189E+02 -0.79176848161E+03  0.83549771827E+03  0.19200000000E+03 0.  0.
<mgrwt>
<rscale>  0 0.55670546E+03</rscale>
<asrwt>0</asrwt>
<pdfrwt beam="1">  1        2 0.87448018E-02 0.55670546E+03</pdfrwt>
<pdfrwt beam="2">  1       -2 0.18081936E+00 0.55670546E+03</pdfrwt>
<totfact> 0.14448166E+02</totfact>
</mgrwt>
</event>
<event>
 4    1  0.1896644E-005  0.6717602E+03  0.7818608E-02  0.9766783E-01
          2   -1    0    0  501    0  0.00000000000E+00  0.00000000000E+00  0.23705331804E+04  0.23705331804E+04  0.25500000000E-02 0.  1.
         -2   -1    0    0    0  501 -0.00000000000E+00 -0.00000000000E+00 -0.47590740064E+02  0.47590740132E+02  0.25500000000E-02 0. -1.
    5000001    1    1    2    0    0 -0.22747481359E+03  0.79496453866E+02  0.68004196964E+03  0.74658258583E+03  0.19200000000E+03 0.  0.
   -5000001    1    1    2    0    0  0.22747481359E+03 -0.79496453866E+02  0.16429004707E+04  0.16715413347E+04  0.19200000000E+03 0.  0.
<mgrwt>
<rscale>  0 0.67176016E+03</rscale>
<asrwt>0</asrwt>
<pdfrwt beam="1">  1        2 0.33864752E+00 0.67176016E+03</pdfrwt>
<pdfrwt beam="2">  1       -2 0.67986787E-02 0.67176016E+03</pdfrwt>
<totfact> 0.68016269E+02</totfact>
</mgrwt>
</event>
<event>
 4    1  0.1896644E-005  0.1127106E+04  0.7818608E-02  0.9179168E-01
          2   -1    0    0  501    0  0.00000000000E+00  0.00000000000E+00  0.86123819558E+03  0.86123819558E+03  0.25500000000E-02 0.  1.
         -2   -1    0    0    0  501 -0.00000000000E+00 -0.00000000000E+00 -0.36876191285E+03  0.36876191286E+03  0.25500000000E-02 0. -1.
    5000001    1    1    2    0    0 -0.86406756907E+02  0.49705227224E+03  0.69594751613E+02  0.54427430440E+03  0.19200000000E+03 0.  0.
   -5000001    1    1    2    0    0  0.86406756907E+02 -0.49705227224E+03  0.42288153112E+03  0.68572580405E+03  0.19200000000E+03 0.  0.
<mgrwt>
<rscale>  0 0.11271058E+04</rscale>
<asrwt>0</asrwt>
<pdfrwt beam="1">  1        2 0.12303403E+00 0.11271058E+04</pdfrwt>
<pdfrwt beam="2">  1       -2 0.52680273E-01 0.11271058E+04</pdfrwt>
<totfact> 0.11627599E+02</totfact>
</mgrwt>
</event>
<event>
 4    1  0.1896644E-005  0.5939640E+03  0.7818608E-02  0.9918009E-01
          2   -1    0    0  501    0  0.00000000000E+00  0.00000000000E+00  0.88115546011E+03  0.88115546011E+03  0.25500000000E-02 0.  1.
         -2   -1    0    0    0  501 -0.00000000000E+00 -0.00000000000E+00 -0.10009391310E+03  0.10009391313E+03  0.25500000000E-02 0. -1.
    5000001    1    1    2    0    0 -0.17575635254E+03  0.13524775199E+03  0.31389257451E+03  0.42962169196E+03  0.19200000000E+03 0.  0.
   -5000001    1    1    2    0    0  0.17575635254E+03 -0.13524775199E+03  0.46716897251E+03  0.55162768128E+03  0.19200000000E+03 0.  0.
<mgrwt>
<rscale>  0 0.59396397E+03</rscale>
<asrwt>0</asrwt>
<pdfrwt beam="1">  1        2 0.12587935E+00 0.59396397E+03</pdfrwt>
<pdfrwt beam="2">  1       -2 0.14299131E-01 0.59396397E+03</pdfrwt>
<totfact> 0.12748286E+03</totfact>
</mgrwt>
</event>
<event>
 4    1  0.1896644E-005  0.4782236E+03  0.7818608E-02  0.1019625E+00
         -2   -1    0    0    0  501 -0.00000000000E+00  0.00000000000E+00  0.34074030021E+03  0.34074030022E+03  0.25500000000E-02 0. -1.
          2   -1    0    0  501    0  0.00000000000E+00 -0.00000000000E+00 -0.16779481961E+03  0.16779481963E+03  0.25500000000E-02 0.  1.
    5000001    1    1    2    0    0  0.13397120872E+03 -0.31913131250E+02  0.47492451855E+02  0.24101092443E+03  0.19200000000E+03 0.  0.
   -5000001    1    1    2    0    0 -0.13397120872E+03  0.31913131250E+02  0.12545302875E+03  0.26752419542E+03  0.19200000000E+03 0.  0.
<mgrwt>
<rscale>  0 0.47822362E+03</rscale>
<asrwt>0</asrwt>
<pdfrwt beam="1">  1        2 0.23970689E-01 0.47822362E+03</pdfrwt>
<pdfrwt beam="2">  1       -2 0.48677186E-01 0.47822362E+03</pdfrwt>
<totfact> 0.92175032E+02</totfact>
</mgrwt>
</event>
<event>
 4    1  0.1896644E-005  0.5002387E+03  0.7818608E-02  0.1013717E+00
          2   -1    0    0  501    0  0.00000000000E+00  0.00000000000E+00  0.27950737925E+04  0.27950737925E+04  0.25500000000E-02 0.  1.
         -2   -1    0    0    0  501 -0.00000000000E+00 -0.00000000000E+00 -0.22382128708E+02  0.22382128853E+02  0.25500000000E-02 0. -1.
    5000001    1    1    2    0    0 -0.39725151338E+02 -0.10334734468E+03  0.20392207643E+04  0.20512298961E+04  0.19200000000E+03 0.  0.
   -5000001    1    1    2    0    0  0.39725151338E+02  0.10334734468E+03  0.73347089949E+03  0.76622602520E+03  0.19200000000E+03 0.  0.
<mgrwt>
<rscale>  0 0.50023875E+03</rscale>
<asrwt>0</asrwt>
<pdfrwt beam="1">  1        2 0.39929582E+00 0.50023875E+03</pdfrwt>
<pdfrwt beam="2">  1       -2 0.31974505E-02 0.50023875E+03</pdfrwt>
<totfact> 0.13349494E+03</totfact>
</mgrwt>
</event>
<event>
 4    1  0.1896644E-005  0.5393809E+03  0.7818608E-02  0.1003982E+00
          2   -1    0    0  501    0  0.00000000000E+00  0.00000000000E+00  0.19133439854E+04  0.19133439854E+04  0.25500000000E-02 0.  1.
         -2   -1    0    0    0  501 -0.00000000000E+00 -0.00000000000E+00 -0.38013514455E+02  0.38013514541E+02  0.25500000000E-02 0. -1.
    5000001    1    1    2    0    0 -0.18846951812E+03  0.18409619341E+02  0.92665864836E+03  0.96510099157E+03  0.19200000000E+03 0.  0.
   -5000001    1    1    2    0    0  0.18846951812E+03 -0.18409619341E+02  0.94867182256E+03  0.98625650835E+03  0.19200000000E+03 0.  0.
<mgrwt>
<rscale>  0 0.53938086E+03</rscale>
<asrwt>0</asrwt>
<pdfrwt beam="1">  1        2 0.27333481E+00 0.53938086E+03</pdfrwt>
<pdfrwt beam="2">  1       -2 0.54305030E-02 0.53938086E+03</pdfrwt>
<totfact> 0.16570513E+03</totfact>
</mgrwt>
</event>
<event>
 4    1  0.1896644E-005  0.5244113E+03  0.7818608E-02  0.1007597E+00
         -2   -1    0    0    0  501 -0.00000000000E+00  0.00000000000E+00  0.58743358202E+03  0.58743358203E+03  0.25500000000E-02 0. -1.
          2   -1    0    0  501    0  0.00000000000E+00 -0.00000000000E+00 -0.11703759649E+03  0.11703759652E+03  0.25500000000E-02 0.  1.
    5000001    1    1    2    0    0  0.55317115524E+02  0.18798903656E+02  0.46188085644E+03  0.50359835940E+03  0.19200000000E+03 0.  0.
   -5000001    1    1    2    0    0 -0.55317115524E+02 -0.18798903656E+02  0.85151290917E+01  0.20087281915E+03  0.19200000000E+03 0.  0.
<mgrwt>
<rscale>  0 0.52441134E+03</rscale>
<asrwt>0</asrwt>
<pdfrwt beam="1">  1        2 0.16719657E-01 0.52441134E+03</pdfrwt>
<pdfrwt beam="2">  1       -2 0.83919082E-01 0.52441134E+03</pdfrwt>
<totfact> 0.44042273E+02</totfact>
</mgrwt>
</event>
<event>
 4    1  0.1896644E-005  0.1202233E+04  0.7818608E-02  0.9110905E-01
         -2   -1    0    0    0  501 -0.00000000000E+00  0.00000000000E+00  0.46726992793E+03  0.46726992793E+03  0.25500000000E-02 0.  1.
          2   -1    0    0  501    0  0.00000000000E+00 -0.00000000000E+00 -0.77330207189E+03  0.77330207190E+03  0.25500000000E-02 0. -1.
    5000001    1    1    2    0    0 -0.38127382592E+03  0.38986015694E+03 -0.32293718287E+03  0.66220321381E+03  0.19200000000E+03 0.  0.
   -5000001    1    1    2    0    0  0.38127382592E+03 -0.38986015694E+03  0.16905038910E+02  0.57836878602E+03  0.19200000000E+03 0.  0.
<mgrwt>
<rscale>  0 0.12022326E+04</rscale>
<asrwt>0</asrwt>
<pdfrwt beam="1">  1        2 0.11047172E+00 0.12022326E+04</pdfrwt>
<pdfrwt beam="2">  1       -2 0.66752847E-01 0.12022326E+04</pdfrwt>
<totfact> 0.80838709E+01</totfact>
</mgrwt>
</event>
<event>
 4    1  0.1896644E-005  0.8982907E+03  0.7818608E-02  0.9427721E-01
          2   -1    0    0  501    0  0.00000000000E+00  0.00000000000E+00  0.94615385768E+03  0.94615385769E+03  0.25500000000E-02 0.  1.
         -2   -1    0    0    0  501 -0.00000000000E+00 -0.00000000000E+00 -0.21321221307E+03  0.21321221308E+03  0.25500000000E-02 0. -1.
    5000001    1    1    2    0    0  0.27289994295E+03  0.14159778195E+03  0.24164535271E+02  0.36327983082E+03  0.19200000000E+03 0.  0.
   -5000001    1    1    2    0    0 -0.27289994295E+03 -0.14159778195E+03  0.70877710934E+03  0.79608623995E+03  0.19200000000E+03 0.  0.
<mgrwt>
<rscale>  0 0.89829073E+03</rscale>
<asrwt>0</asrwt>
<pdfrwt beam="1">  1        2 0.13516484E+00 0.89829073E+03</pdfrwt>
<pdfrwt beam="2">  1       -2 0.30458887E-01 0.89829073E+03</pdfrwt>
<totfact> 0.30250655E+02</totfact>
</mgrwt>
</event>
<event>
 4    1  0.1896644E-005  0.5366163E+03  0.7818608E-02  0.1004640E+00
          2   -1    0    0  501    0  0.00000000000E+00  0.00000000000E+00  0.98195535473E+03  0.98195535473E+03  0.25500000000E-02 0.  1.
         -2   -1    0    0    0  501 -0.00000000000E+00 -0.00000000000E+00 -0.73312145061E+02  0.73312145105E+02  0.25500000000E-02 0. -1.
    5000001    1    1    2    0    0  0.18346487869E+03 -0.29126788232E+02  0.40545356432E+03  0.48555568612E+03  0.19200000000E+03 0.  0.
   -5000001    1    1    2    0    0 -0.18346487869E+03  0.29126788232E+02  0.50318964535E+03  0.56971181372E+03  0.19200000000E+03 0.  0.
<mgrwt>
<rscale>  0 0.53661626E+03</rscale>
<asrwt>0</asrwt>
<pdfrwt beam="1">  1        2 0.14027933E+00 0.53661626E+03</pdfrwt>
<pdfrwt beam="2">  1       -2 0.10473164E-01 0.53661626E+03</pdfrwt>
<totfact> 0.18402646E+03</totfact>
</mgrwt>
</event>
<event>
 4    1  0.1896644E-005  0.5953895E+03  0.7818608E-02  0.9915018E-01
         -2   -1    0    0    0  501 -0.00000000000E+00  0.00000000000E+00  0.20844689408E+03  0.20844689410E+03  0.25500000000E-02 0. -1.
          2   -1    0    0  501    0  0.00000000000E+00 -0.00000000000E+00 -0.42515469481E+03  0.42515469482E+03  0.25500000000E-02 0.  1.
    5000001    1    1    2    0    0 -0.17551854596E+03  0.85866597641E+02 -0.23235868632E+03  0.35921357390E+03  0.19200000000E+03 0.  0.
   -5000001    1    1    2    0    0  0.17551854596E+03 -0.85866597641E+02  0.15650885594E+02  0.27438801502E+03  0.19200000000E+03 0.  0.
<mgrwt>
<rscale>  0 0.59538954E+03</rscale>
<asrwt>0</asrwt>
<pdfrwt beam="1">  1        2 0.60736385E-01 0.59538954E+03</pdfrwt>
<pdfrwt beam="2">  1       -2 0.29778128E-01 0.59538954E+03</pdfrwt>
<totfact> 0.84212925E+02</totfact>
</mgrwt>
</event>
<event>
 4    1  0.1896644E-005  0.5727993E+03  0.7818608E-02  0.9963503E-01
          2   -1    0    0  501    0  0.00000000000E+00  0.00000000000E+00  0.16490525584E+04  0.16490525584E+04  0.25500000000E-02 0.  1.
         -2   -1    0    0    0  501 -0.00000000000E+00 -0.00000000000E+00 -0.49740532569E+02  0.49740532634E+02  0.25500000000E-02 0. -1.
    5000001    1    1    2    0    0  0.18604903397E+03 -0.93771259207E+02  0.92384583741E+03  0.96631383276E+03  0.19200000000E+03 0.  0.
   -5000001    1    1    2    0    0 -0.18604903397E+03  0.93771259207E+02  0.67546618840E+03  0.73247925825E+03  0.19200000000E+03 0.  0.
<mgrwt>
<rscale>  0 0.57279928E+03</rscale>
<asrwt>0</asrwt>
<pdfrwt beam="1">  1        2 0.23557890E+00 0.57279928E+03</pdfrwt>
<pdfrwt beam="2">  1       -2 0.71057914E-02 0.57279928E+03</pdfrwt>
<totfact> 0.14763222E+03</totfact>
</mgrwt>
</event>
<event>
 4    1  0.1896644E-005  0.5096122E+03  0.7818608E-02  0.1011300E+00
         -2   -1    0    0    0  501 -0.00000000000E+00  0.00000000000E+00  0.30011118969E+03  0.30011118970E+03  0.25500000000E-02 0. -1.
          2   -1    0    0  501    0  0.00000000000E+00 -0.00000000000E+00 -0.21634028383E+03  0.21634028384E+03  0.25500000000E-02 0.  1.
    5000001    1    1    2    0    0  0.53546603736E+02 -0.10133432689E+03 -0.81927239373E+02  0.23814272429E+03  0.19200000000E+03 0.  0.
   -5000001    1    1    2    0    0 -0.53546603736E+02  0.10133432689E+03  0.16569814524E+03  0.27830874926E+03  0.19200000000E+03 0.  0.
<mgrwt>
<rscale>  0 0.50961217E+03</rscale>
<asrwt>0</asrwt>
<pdfrwt beam="1">  1        2 0.30905755E-01 0.50961217E+03</pdfrwt>
<pdfrwt beam="2">  1       -2 0.42873027E-01 0.50961217E+03</pdfrwt>
<totfact> 0.89021463E+02</totfact>
</mgrwt>
</event>
<event>
 4    1  0.1896644E-005  0.5737208E+03  0.7818608E-02  0.9961479E-01
          2   -1    0    0  501    0  0.00000000000E+00  0.00000000000E+00  0.40105791879E+04  0.40105791879E+04  0.25500000000E-02 0.  1.
         -2   -1    0    0    0  501 -0.00000000000E+00 -0.00000000000E+00 -0.20517959811E+02  0.20517959969E+02  0.25500000000E-02 0. -1.
    5000001    1    1    2    0    0 -0.86377970918E+02  0.17260136355E+03  0.13598450999E+04  0.13868291460E+04  0.19200000000E+03 0.  0.
   -5000001    1    1    2    0    0  0.86377970918E+02 -0.17260136355E+03  0.26302161282E+04  0.26442680019E+04  0.19200000000E+03 0.  0.
<mgrwt>
<rscale>  0 0.57372085E+03</rscale>
<asrwt>0</asrwt>
<pdfrwt beam="1">  1        2 0.57293981E+00 0.57372085E+03</pdfrwt>
<pdfrwt beam="2">  1       -2 0.29311375E-02 0.57372085E+03</pdfrwt>
<totfact> 0.29294595E+02</totfact>
</mgrwt>
</event>
<event>
 4    1  0.1896644E-005  0.6673723E+03  0.7818608E-02  0.9774716E-01
          2   -1    0    0  501    0  0.00000000000E+00  0.00000000000E+00  0.32638526566E+03  0.32638526567E+03  0.25500000000E-02 0.  1.
         -2   -1    0    0    0  501 -0.00000000000E+00 -0.00000000000E+00 -0.34115036436E+03  0.34115036437E+03  0.25500000000E-02 0. -1.
    5000001    1    1    2    0    0  0.15812996996E+03  0.33296275566E+02 -0.22736527263E+03  0.33863357271E+03  0.19200000000E+03 0.  0.
   -5000001    1    1    2    0    0 -0.15812996996E+03 -0.33296275566E+02  0.21260017393E+03  0.32890205734E+03  0.19200000000E+03 0.  0.
<mgrwt>
<rscale>  0 0.66737232E+03</rscale>
<asrwt>0</asrwt>
<pdfrwt beam="1">  1        2 0.46626466E-01 0.66737232E+03</pdfrwt>
<pdfrwt beam="2">  1       -2 0.48735767E-01 0.66737232E+03</pdfrwt>
<totfact> 0.43633950E+02</totfact>
</mgrwt>
</event>
<event>
 4    1  0.1896644E-005  0.1170941E+04  0.7818608E-02  0.9138679E-01
         -2   -1    0    0    0  501 -0.00000000000E+00  0.00000000000E+00  0.10646391675E+03  0.10646391678E+03  0.25500000000E-02 0. -1.
          2   -1    0    0  501    0  0.00000000000E+00 -0.00000000000E+00 -0.32196441197E+04  0.32196441197E+04  0.25500000000E-02 0.  1.
    5000001    1    1    2    0    0 -0.30924469453E+03  0.32542168425E+03 -0.24743109899E+04  0.25220250650E+04  0.19200000000E+03 0.  0.
   -5000001    1    1    2    0    0  0.30924469453E+03 -0.32542168425E+03 -0.63886921308E+03  0.80408297152E+03  0.19200000000E+03 0.  0.
<mgrwt>
<rscale>  0 0.11709414E+04</rscale>
<asrwt>0</asrwt>
<pdfrwt beam="1">  1        2 0.45994910E+00 0.11709414E+04</pdfrwt>
<pdfrwt beam="2">  1       -2 0.15209133E-01 0.11709414E+04</pdfrwt>
<totfact> 0.60932430E+01</totfact>
</mgrwt>
</event>
<event>
 4    1  0.1896644E-005  0.5106808E+03  0.7818608E-02  0.1011028E+00
          2   -1    0    0  501    0  0.00000000000E+00  0.00000000000E+00  0.19368192184E+03  0.19368192185E+03  0.25500000000E-02 0.  1.
         -2   -1    0    0    0  501 -0.00000000000E+00 -0.00000000000E+00 -0.33662786736E+03  0.33662786736E+03  0.25500000000E-02 0. -1.
    5000001    1    1    2    0    0 -0.86048986671E+02  0.55171653402E+02 -0.21035353155E+03  0.30259039588E+03  0.19200000000E+03 0.  0.
   -5000001    1    1    2    0    0  0.86048986671E+02 -0.55171653402E+02  0.67407586032E+02  0.22771939334E+03  0.19200000000E+03 0.  0.
<mgrwt>
<rscale>  0 0.51068085E+03</rscale>
<asrwt>0</asrwt>
<pdfrwt beam="1">  1        2 0.27668846E-01 0.51068085E+03</pdfrwt>
<pdfrwt beam="2">  1       -2 0.48089695E-01 0.51068085E+03</pdfrwt>
<totfact> 0.80264464E+02</totfact>
</mgrwt>
</event>
<event>
 4    1  0.1896644E-005  0.7191508E+03  0.7818608E-02  0.9685031E-01
          2   -1    0    0  501    0  0.00000000000E+00  0.00000000000E+00  0.91610395015E+02  0.91610395051E+02  0.25500000000E-02 0.  1.
         -2   -1    0    0    0  501 -0.00000000000E+00 -0.00000000000E+00 -0.14113514344E+04  0.14113514344E+04  0.25500000000E-02 0. -1.
    5000001    1    1    2    0    0 -0.13418085046E+03  0.22927985305E+03 -0.35089761493E+03  0.48017381000E+03  0.19200000000E+03 0.  0.
   -5000001    1    1    2    0    0  0.13418085046E+03 -0.22927985305E+03 -0.96884342448E+03  0.10227880195E+04  0.19200000000E+03 0.  0.
<mgrwt>
<rscale>  0 0.71915078E+03</rscale>
<asrwt>0</asrwt>
<pdfrwt beam="1">  1        2 0.13087200E-01 0.71915078E+03</pdfrwt>
<pdfrwt beam="2">  1       -2 0.20162162E+00 0.71915078E+03</pdfrwt>
<totfact> 0.62745681E+01</totfact>
</mgrwt>
</event>
<event>
 4    1  0.1896644E-005  0.4880461E+03  0.7818608E-02  0.1016947E+00
          2   -1    0    0  501    0  0.00000000000E+00  0.00000000000E+00  0.66797498444E+03  0.66797498444E+03  0.25500000000E-02 0.  1.
         -2   -1    0    0    0  501 -0.00000000000E+00 -0.00000000000E+00 -0.89145928178E+02  0.89145928214E+02  0.25500000000E-02 0. -1.
    5000001    1    1    2    0    0  0.68609535573E+02  0.12582055522E+03  0.36126592238E+03  0.43349180749E+03  0.19200000000E+03 0.  0.
   -5000001    1    1    2    0    0 -0.68609535573E+02 -0.12582055522E+03  0.21756313388E+03  0.32362910516E+03  0.19200000000E+03 0.  0.
<mgrwt>
<rscale>  0 0.48804610E+03</rscale>
<asrwt>0</asrwt>
<pdfrwt beam="1">  1        2 0.95424994E-01 0.48804610E+03</pdfrwt>
<pdfrwt beam="2">  1       -2 0.12735133E-01 0.48804610E+03</pdfrwt>
<totfact> 0.21900797E+03</totfact>
</mgrwt>
</event>
<event>
 4    1  0.1896644E-005  0.5938136E+03  0.7818608E-02  0.9918325E-01
         -2   -1    0    0    0  501 -0.00000000000E+00  0.00000000000E+00  0.44975498970E+02  0.44975499042E+02  0.25500000000E-02 0. -1.
          2   -1    0    0  501    0  0.00000000000E+00 -0.00000000000E+00 -0.19600370261E+04  0.19600370261E+04  0.25500000000E-02 0.  1.
    5000001    1    1    2    0    0  0.15084062050E+03 -0.16825371056E+03 -0.90660942355E+03  0.95386940971E+03  0.19200000000E+03 0.  0.
   -5000001    1    1    2    0    0 -0.15084062050E+03  0.16825371056E+03 -0.10084521036E+04  0.10511431155E+04  0.19200000000E+03 0.  0.
<mgrwt>
<rscale>  0 0.59381358E+03</rscale>
<asrwt>0</asrwt>
<pdfrwt beam="1">  1        2 0.28000523E+00 0.59381358E+03</pdfrwt>
<pdfrwt beam="2">  1       -2 0.64250725E-02 0.59381358E+03</pdfrwt>
<totfact> 0.12040309E+03</totfact>
</mgrwt>
</event>
<event>
 4    1  0.1896644E-005  0.7270439E+03  0.7818608E-02  0.9672070E-01
         -2   -1    0    0    0  501 -0.00000000000E+00  0.00000000000E+00  0.23914796146E+03  0.23914796147E+03  0.25500000000E-02 0. -1.
          2   -1    0    0  501    0  0.00000000000E+00 -0.00000000000E+00 -0.55257921120E+03  0.55257921121E+03  0.25500000000E-02 0.  1.
    5000001    1    1    2    0    0  0.27440743768E+03  0.11784135515E+02 -0.33068616338E+01  0.33513168015E+03  0.19200000000E+03 0.  0.
   -5000001    1    1    2    0    0 -0.27440743768E+03 -0.11784135515E+02 -0.31012438811E+03  0.45659549253E+03  0.19200000000E+03 0.  0.
<mgrwt>
<rscale>  0 0.72704386E+03</rscale>
<asrwt>0</asrwt>
<pdfrwt beam="1">  1        2 0.78939887E-01 0.72704386E+03</pdfrwt>
<pdfrwt beam="2">  1       -2 0.34163995E-01 0.72704386E+03</pdfrwt>
<totfact> 0.48213382E+02</totfact>
</mgrwt>
</event>
<event>
 4    1  0.1896644E-005  0.4787178E+03  0.7818608E-02  0.1019488E+00
         -2   -1    0    0    0  501 -0.00000000000E+00  0.00000000000E+00  0.13725164834E+03  0.13725164837E+03  0.25500000000E-02 0.  1.
          2   -1    0    0  501    0  0.00000000000E+00 -0.00000000000E+00 -0.41742803142E+03  0.41742803143E+03  0.25500000000E-02 0. -1.
    5000001    1    1    2    0    0  0.84025200726E+02 -0.10393398561E+03 -0.19878385709E+03  0.30698783292E+03  0.19200000000E+03 0.  0.
   -5000001    1    1    2    0    0 -0.84025200726E+02  0.10393398561E+03 -0.81392525988E+02  0.24769184687E+03  0.19200000000E+03 0.  0.
<mgrwt>
<rscale>  0 0.47871781E+03</rscale>
<asrwt>0</asrwt>
<pdfrwt beam="1">  1        2 0.59632575E-01 0.47871781E+03</pdfrwt>
<pdfrwt beam="2">  1       -2 0.19607379E-01 0.47871781E+03</pdfrwt>
<totfact> 0.18113240E+03</totfact>
</mgrwt>
</event>
<event>
 4    1  0.1896644E-005  0.7080940E+03  0.7818608E-02  0.9703490E-01
          2   -1    0    0  501    0  0.00000000000E+00  0.00000000000E+00  0.90109588929E+03  0.90109588929E+03  0.25500000000E-02 0.  1.
         -2   -1    0    0    0  501 -0.00000000000E+00 -0.00000000000E+00 -0.13910760649E+03  0.13910760651E+03  0.25500000000E-02 0. -1.
    5000001    1    1    2    0    0 -0.18124030419E+03  0.20008300243E+03  0.19749000806E+03  0.38567805098E+03  0.19200000000E+03 0.  0.
   -5000001    1    1    2    0    0  0.18124030419E+03 -0.20008300243E+03  0.56449827475E+03  0.65452544482E+03  0.19200000000E+03 0.  0.
<mgrwt>
<rscale>  0 0.70809404E+03</rscale>
<asrwt>0</asrwt>
<pdfrwt beam="1">  1        2 0.12872798E+00 0.70809404E+03</pdfrwt>
<pdfrwt beam="2">  1       -2 0.19872515E-01 0.70809404E+03</pdfrwt>
<totfact> 0.70309774E+02</totfact>
</mgrwt>
</event>
<event>
 4    1  0.1896644E-005  0.6567293E+03  0.7818608E-02  0.9794233E-01
         -2   -1    0    0    0  501 -0.00000000000E+00  0.00000000000E+00  0.39717959960E+02  0.39717960041E+02  0.25500000000E-02 0. -1.
          2   -1    0    0  501    0  0.00000000000E+00 -0.00000000000E+00 -0.27147248430E+04  0.27147248430E+04  0.25500000000E-02 0.  1.
    5000001    1    1    2    0    0 -0.65800326595E+02 -0.24197406304E+03 -0.96053520601E+03  0.10111246274E+04  0.19200000000E+03 0.  0.
   -5000001    1    1    2    0    0  0.65800326595E+02  0.24197406304E+03 -0.17144716770E+04  0.17433181756E+04  0.19200000000E+03 0.  0.
<mgrwt>
<rscale>  0 0.65672927E+03</rscale>
<asrwt>0</asrwt>
<pdfrwt beam="1">  1        2 0.38781772E+00 0.65672927E+03</pdfrwt>
<pdfrwt beam="2">  1       -2 0.56739960E-02 0.65672927E+03</pdfrwt>
<totfact> 0.60068331E+02</totfact>
</mgrwt>
</event>
<event>
 4    1  0.1896644E-005  0.4510204E+03  0.7818608E-02  0.1027418E+00
          2   -1    0    0  501    0  0.00000000000E+00  0.00000000000E+00  0.17149378640E+04  0.17149378640E+04  0.25500000000E-02 0.  1.
         -2   -1    0    0    0  501 -0.00000000000E+00 -0.00000000000E+00 -0.29654051665E+02  0.29654051774E+02  0.25500000000E-02 0. -1.
    5000001    1    1    2    0    0 -0.11679897878E+03  0.16521988877E+02  0.80894754901E+03  0.83974705395E+03  0.19200000000E+03 0.  0.
   -5000001    1    1    2    0    0  0.11679897878E+03 -0.16521988877E+02  0.87633626327E+03  0.90484486178E+03  0.19200000000E+03 0.  0.
<mgrwt>
<rscale>  0 0.45102043E+03</rscale>
<asrwt>0</asrwt>
<pdfrwt beam="1">  1        2 0.24499114E+00 0.45102043E+03</pdfrwt>
<pdfrwt beam="2">  1       -2 0.42362928E-02 0.45102043E+03</pdfrwt>
<totfact> 0.30639800E+03</totfact>
</mgrwt>
</event>
<event>
 4    1  0.1896644E-005  0.6584959E+03  0.7818608E-02  0.9790967E-01
          2   -1    0    0  501    0  0.00000000000E+00  0.00000000000E+00  0.23579898444E+03  0.23579898445E+03  0.25500000000E-02 0.  1.
         -2   -1    0    0    0  501 -0.00000000000E+00 -0.00000000000E+00 -0.45973146151E+03  0.45973146152E+03  0.25500000000E-02 0. -1.
    5000001    1    1    2    0    0 -0.20157580797E+03 -0.17371110516E+03 -0.83391893390E+02  0.33856544758E+03  0.19200000000E+03 0.  0.
   -5000001    1    1    2    0    0  0.20157580797E+03  0.17371110516E+03 -0.14054058368E+03  0.35696499839E+03  0.19200000000E+03 0.  0.
<mgrwt>
<rscale>  0 0.65849590E+03</rscale>
<asrwt>0</asrwt>
<pdfrwt beam="1">  1        2 0.33685569E-01 0.65849590E+03</pdfrwt>
<pdfrwt beam="2">  1       -2 0.65675923E-01 0.65849590E+03</pdfrwt>
<totfact> 0.33650074E+02</totfact>
</mgrwt>
</event>
<event>
 4    1  0.1896644E-005  0.3972089E+03  0.7818608E-02  0.1044750E+00
          2   -1    0    0  501    0  0.00000000000E+00  0.00000000000E+00  0.10461300782E+03  0.10461300785E+03  0.25500000000E-02 0.  1.
         -2   -1    0    0    0  501 -0.00000000000E+00 -0.00000000000E+00 -0.37704416671E+03  0.37704416672E+03  0.25500000000E-02 0. -1.
    5000001    1    1    2    0    0  0.37387190453E+02 -0.33554306281E+02 -0.12713877797E+03  0.23569463792E+03  0.19200000000E+03 0.  0.
   -5000001    1    1    2    0    0 -0.37387190453E+02  0.33554306281E+02 -0.14529238092E+03  0.24596253665E+03  0.19200000000E+03 0.  0.
<mgrwt>
<rscale>  0 0.39720888E+03</rscale>
<asrwt>0</asrwt>
<pdfrwt beam="1">  1        2 0.14944716E-01 0.39720888E+03</pdfrwt>
<pdfrwt beam="2">  1       -2 0.53863452E-01 0.39720888E+03</pdfrwt>
<totfact> 0.13033121E+03</totfact>
</mgrwt>
</event>
<event>
 4    1  0.1896644E-005  0.5434096E+03  0.7818608E-02  0.1003031E+00
         -2   -1    0    0    0  501 -0.00000000000E+00  0.00000000000E+00  0.20163700794E+03  0.20163700795E+03  0.25500000000E-02 0. -1.
          2   -1    0    0  501    0  0.00000000000E+00 -0.00000000000E+00 -0.36612076467E+03  0.36612076468E+03  0.25500000000E-02 0.  1.
    5000001    1    1    2    0    0  0.13376417041E+03 -0.97989612738E+02  0.19403751867E+02  0.25443137204E+03  0.19200000000E+03 0.  0.
   -5000001    1    1    2    0    0 -0.13376417041E+03  0.97989612738E+02 -0.18388750860E+03  0.31332640060E+03  0.19200000000E+03 0.  0.
<mgrwt>
<rscale>  0 0.54340959E+03</rscale>
<asrwt>0</asrwt>
<pdfrwt beam="1">  1        2 0.52302966E-01 0.54340959E+03</pdfrwt>
<pdfrwt beam="2">  1       -2 0.28805287E-01 0.54340959E+03</pdfrwt>
<totfact> 0.10570374E+03</totfact>
</mgrwt>
</event>
<event>
 4    1  0.1896644E-005  0.1032815E+04  0.7818608E-02  0.9273269E-01
          2   -1    0    0  501    0  0.00000000000E+00  0.00000000000E+00  0.69573883992E+03  0.69573883992E+03  0.25500000000E-02 0.  1.
         -2   -1    0    0    0  501 -0.00000000000E+00 -0.00000000000E+00 -0.38329973718E+03  0.38329973719E+03  0.25500000000E-02 0. -1.
    5000001    1    1    2    0    0  0.15537212180E+03  0.37752468797E+03  0.41875708029E+03  0.61553787743E+03  0.19200000000E+03 0.  0.
   -5000001    1    1    2    0    0 -0.15537212180E+03 -0.37752468797E+03 -0.10631797755E+03  0.46350069968E+03  0.19200000000E+03 0.  0.
<mgrwt>
<rscale>  0 0.10328146E+04</rscale>
<asrwt>0</asrwt>
<pdfrwt beam="1">  1        2 0.99391263E-01 0.10328146E+04</pdfrwt>
<pdfrwt beam="2">  1       -2 0.54757105E-01 0.10328146E+04</pdfrwt>
<totfact> 0.14185012E+02</totfact>
</mgrwt>
</event>
<event>
 4    1  0.1896644E-005  0.5846771E+03  0.7818608E-02  0.9937716E-01
          2   -1    0    0  501    0  0.00000000000E+00  0.00000000000E+00  0.10906411651E+04  0.10906411651E+04  0.25500000000E-02 0.  1.
         -2   -1    0    0    0  501 -0.00000000000E+00 -0.00000000000E+00 -0.78359259336E+02  0.78359259378E+02  0.25500000000E-02 0. -1.
    5000001    1    1    2    0    0  0.14036814314E+03 -0.16481915221E+03  0.58928466152E+03  0.65649751016E+03  0.19200000000E+03 0.  0.
   -5000001    1    1    2    0    0 -0.14036814314E+03  0.16481915221E+03  0.42299724420E+03  0.51250291428E+03  0.19200000000E+03 0.  0.
<mgrwt>
<rscale>  0 0.58467712E+03</rscale>
<asrwt>0</asrwt>
<pdfrwt beam="1">  1        2 0.15580589E+00 0.58467712E+03</pdfrwt>
<pdfrwt beam="2">  1       -2 0.11194179E-01 0.58467712E+03</pdfrwt>
<totfact> 0.14207994E+03</totfact>
</mgrwt>
</event>
<event>
 4    1  0.1896644E-005  0.5474035E+03  0.7818608E-02  0.1002097E+00
         -2   -1    0    0    0  501 -0.00000000000E+00  0.00000000000E+00  0.54967783124E+02  0.54967783183E+02  0.25500000000E-02 0. -1.
          2   -1    0    0  501    0  0.00000000000E+00 -0.00000000000E+00 -0.13628462535E+04  0.13628462535E+04  0.25500000000E-02 0.  1.
    5000001    1    1    2    0    0  0.19404833606E+03 -0.15893353415E+01 -0.60270066903E+03  0.66164142794E+03  0.19200000000E+03 0.  0.
   -5000001    1    1    2    0    0 -0.19404833606E+03  0.15893353415E+01 -0.70517780138E+03  0.75617260878E+03  0.19200000000E+03 0.  0.
<mgrwt>
<rscale>  0 0.54740346E+03</rscale>
<asrwt>0</asrwt>
<pdfrwt beam="1">  1        2 0.19469230E+00 0.54740346E+03</pdfrwt>
<pdfrwt beam="2">  1       -2 0.78525413E-02 0.54740346E+03</pdfrwt>
<totfact> 0.17769359E+03</totfact>
</mgrwt>
</event>
<event>
 4    1  0.1896644E-005  0.6254442E+03  0.7818608E-02  0.9853980E-01
         -2   -1    0    0    0  501 -0.00000000000E+00  0.00000000000E+00  0.31531631938E+03  0.31531631939E+03  0.25500000000E-02 0. -1.
          2   -1    0    0  501    0  0.00000000000E+00 -0.00000000000E+00 -0.31014925957E+03  0.31014925958E+03  0.25500000000E-02 0.  1.
    5000001    1    1    2    0    0 -0.19812446191E+02 -0.20847587768E+03 -0.12809762359E+03  0.31165321395E+03  0.19200000000E+03 0.  0.
   -5000001    1    1    2    0    0  0.19812446191E+02  0.20847587768E+03  0.13326468340E+03  0.31381236502E+03  0.19200000000E+03 0.  0.
<mgrwt>
<rscale>  0 0.62544424E+03</rscale>
<asrwt>0</asrwt>
<pdfrwt beam="1">  1        2 0.44307037E-01 0.62544424E+03</pdfrwt>
<pdfrwt beam="2">  1       -2 0.45045188E-01 0.62544424E+03</pdfrwt>
<totfact> 0.54100860E+02</totfact>
</mgrwt>
</event>
<event>
 4    1  0.1896644E-005  0.4110337E+03  0.7818608E-02  0.1040025E+00
         -2   -1    0    0    0  501 -0.00000000000E+00  0.00000000000E+00  0.73802431289E+02  0.73802431333E+02  0.25500000000E-02 0. -1.
          2   -1    0    0  501    0  0.00000000000E+00 -0.00000000000E+00 -0.57230059653E+03  0.57230059654E+03  0.25500000000E-02 0.  1.
    5000001    1    1    2    0    0 -0.25981469916E+02  0.65659850988E+02 -0.28016886493E+03  0.34690754631E+03  0.19200000000E+03 0.  0.
   -5000001    1    1    2    0    0  0.25981469916E+02 -0.65659850988E+02 -0.21832930031E+03  0.29919548156E+03  0.19200000000E+03 0.  0.
<mgrwt>
<rscale>  0 0.41103370E+03</rscale>
<asrwt>0</asrwt>
<pdfrwt beam="1">  1        2 0.81757226E-01 0.41103370E+03</pdfrwt>
<pdfrwt beam="2">  1       -2 0.10543205E-01 0.41103370E+03</pdfrwt>
<totfact> 0.35657978E+03</totfact>
</mgrwt>
</event>
<event>
 4    1  0.1896644E-005  0.5458686E+03  0.7818608E-02  0.1002455E+00
         -2   -1    0    0    0  501 -0.00000000000E+00  0.00000000000E+00  0.17124137671E+02  0.17124137861E+02  0.25500000000E-02 0. -1.
          2   -1    0    0  501    0  0.00000000000E+00 -0.00000000000E+00 -0.43501824015E+04  0.43501824015E+04  0.25500000000E-02 0.  1.
    5000001    1    1    2    0    0  0.89451582659E+02  0.16749621132E+03 -0.24837989010E+04  0.24984350196E+04  0.19200000000E+03 0.  0.
   -5000001    1    1    2    0    0 -0.89451582659E+02 -0.16749621132E+03 -0.18492593628E+04  0.18688715197E+04  0.19200000000E+03 0.  0.
<mgrwt>
<rscale>  0 0.54586857E+03</rscale>
<asrwt>0</asrwt>
<pdfrwt beam="1">  1        2 0.62145392E+00 0.54586857E+03</pdfrwt>
<pdfrwt beam="2">  1       -2 0.24463082E-02 0.54586857E+03</pdfrwt>
<totfact> 0.22368990E+02</totfact>
</mgrwt>
</event>
<event>
 4    1  0.1896644E-005  0.4686645E+03  0.7818608E-02  0.1022298E+00
          2   -1    0    0  501    0  0.00000000000E+00  0.00000000000E+00  0.14619610010E+04  0.14619610010E+04  0.25500000000E-02 0.  1.
         -2   -1    0    0    0  501 -0.00000000000E+00 -0.00000000000E+00 -0.37560235533E+02  0.37560235620E+02  0.25500000000E-02 0. -1.
    5000001    1    1    2    0    0 -0.67285861981E+02  0.11566516661E+03  0.75029823869E+03  0.78594991250E+03  0.19200000000E+03 0.  0.
   -5000001    1    1    2    0    0  0.67285861981E+02 -0.11566516661E+03  0.67410252676E+03  0.71357132410E+03  0.19200000000E+03 0.  0.
<mgrwt>
<rscale>  0 0.46866448E+03</rscale>
<asrwt>0</asrwt>
<pdfrwt beam="1">  1        2 0.20885151E+00 0.46866448E+03</pdfrwt>
<pdfrwt beam="2">  1       -2 0.53657494E-02 0.46866448E+03</pdfrwt>
<totfact> 0.28662640E+03</totfact>
</mgrwt>
</event>
<event>
 4    1  0.1896644E-005  0.8059029E+03  0.7818608E-02  0.9551512E-01
          2   -1    0    0  501    0  0.00000000000E+00  0.00000000000E+00  0.52938984617E+03  0.52938984618E+03  0.25500000000E-02 0.  1.
         -2   -1    0    0    0  501 -0.00000000000E+00 -0.00000000000E+00 -0.30671134159E+03  0.30671134160E+03  0.25500000000E-02 0. -1.
    5000001    1    1    2    0    0 -0.20506070294E+03  0.28683036808E+03  0.75635793552E+02  0.40854170559E+03  0.19200000000E+03 0.  0.
   -5000001    1    1    2    0    0  0.20506070294E+03 -0.28683036808E+03  0.14704271103E+03  0.42755948219E+03  0.19200000000E+03 0.  0.
<mgrwt>
<rscale>  0 0.80590290E+03</rscale>
<asrwt>0</asrwt>
<pdfrwt beam="1">  1        2 0.75627121E-01 0.80590290E+03</pdfrwt>
<pdfrwt beam="2">  1       -2 0.43815906E-01 0.80590290E+03</pdfrwt>
<totfact> 0.31211494E+02</totfact>
</mgrwt>
</event>
<event>
 4    1  0.1896644E-005  0.1115580E+04  0.7818608E-02  0.9190138E-01
          2   -1    0    0  501    0  0.00000000000E+00  0.00000000000E+00  0.11107102822E+04  0.11107102822E+04  0.25500000000E-02 0.  1.
         -2   -1    0    0    0  501 -0.00000000000E+00 -0.00000000000E+00 -0.28011767632E+03  0.28011767633E+03  0.25500000000E-02 0. -1.
    5000001    1    1    2    0    0  0.12544568444E+03  0.42167441151E+03  0.61085004877E+02  0.48388150087E+03  0.19200000000E+03 0.  0.
   -5000001    1    1    2    0    0 -0.12544568444E+03 -0.42167441151E+03  0.76950760099E+03  0.90694645765E+03  0.19200000000E+03 0.  0.
<mgrwt>
<rscale>  0 0.11155798E+04</rscale>
<asrwt>0</asrwt>
<pdfrwt beam="1">  1        2 0.15867290E+00 0.11155798E+04</pdfrwt>
<pdfrwt beam="2">  1       -2 0.40016811E-01 0.11155798E+04</pdfrwt>
<totfact> 0.14097995E+02</totfact>
</mgrwt>
</event>
<event>
 4    1  0.1896644E-005  0.4969863E+03  0.7818608E-02  0.1014569E+00
          2   -1    0    0  501    0  0.00000000000E+00  0.00000000000E+00  0.27632107807E+04  0.27632107807E+04  0.25500000000E-02 0.  1.
         -2   -1    0    0    0  501 -0.00000000000E+00 -0.00000000000E+00 -0.22346776302E+02  0.22346776447E+02  0.25500000000E-02 0. -1.
    5000001    1    1    2    0    0 -0.38455882932E+01  0.12891765414E+03  0.18795314774E+04  0.18937098839E+04  0.19200000000E+03 0.  0.
   -5000001    1    1    2    0    0  0.38455882932E+01 -0.12891765414E+03  0.86133252707E+03  0.89184767326E+03  0.19200000000E+03 0.  0.
<mgrwt>
<rscale>  0 0.49698633E+03</rscale>
<asrwt>0</asrwt>
<pdfrwt beam="1">  1        2 0.39474441E+00 0.49698633E+03</pdfrwt>
<pdfrwt beam="2">  1       -2 0.31923965E-02 0.49698633E+03</pdfrwt>
<totfact> 0.13910531E+03</totfact>
</mgrwt>
</event>
<event>
 4    1  0.1896644E-005  0.5184638E+03  0.7818608E-02  0.1009069E+00
         -2   -1    0    0    0  501 -0.00000000000E+00  0.00000000000E+00  0.36271420358E+02  0.36271420448E+02  0.25500000000E-02 0. -1.
          2   -1    0    0  501    0  0.00000000000E+00 -0.00000000000E+00 -0.18527308613E+04  0.18527308613E+04  0.25500000000E-02 0.  1.
    5000001    1    1    2    0    0 -0.16856800295E+03  0.69622638308E+01 -0.75052489956E+03  0.79285261531E+03  0.19200000000E+03 0.  0.
   -5000001    1    1    2    0    0  0.16856800295E+03 -0.69622638308E+01 -0.10659345414E+04  0.10961496665E+04  0.19200000000E+03 0.  0.
<mgrwt>
<rscale>  0 0.51846381E+03</rscale>
<asrwt>0</asrwt>
<pdfrwt beam="1">  1        2 0.26467578E+00 0.51846381E+03</pdfrwt>
<pdfrwt beam="2">  1       -2 0.51816327E-02 0.51846381E+03</pdfrwt>
<totfact> 0.19128492E+03</totfact>
</mgrwt>
</event>
<event>
 4    1  0.1896644E-005  0.6508059E+03  0.7818608E-02  0.9805268E-01
         -2   -1    0    0    0  501 -0.00000000000E+00  0.00000000000E+00  0.47050059754E+02  0.47050059823E+02  0.25500000000E-02 0. -1.
          2   -1    0    0  501    0  0.00000000000E+00 -0.00000000000E+00 -0.22505198425E+04  0.22505198425E+04  0.25500000000E-02 0.  1.
    5000001    1    1    2    0    0 -0.25372184587E+03  0.61282791225E+02 -0.99625270267E+03  0.10476229298E+04  0.19200000000E+03 0.  0.
   -5000001    1    1    2    0    0  0.25372184587E+03 -0.61282791225E+02 -0.12072170801E+04  0.12499469725E+04  0.19200000000E+03 0.  0.
<mgrwt>
<rscale>  0 0.65080594E+03</rscale>
<asrwt>0</asrwt>
<pdfrwt beam="1">  1        2 0.32150277E+00 0.65080594E+03</pdfrwt>
<pdfrwt beam="2">  1       -2 0.67214385E-02 0.65080594E+03</pdfrwt>
<totfact> 0.79810257E+02</totfact>
</mgrwt>
</event>
<event>
 4    1  0.1896644E-005  0.6883159E+03  0.7818608E-02  0.9737425E-01
         -2   -1    0    0    0  501 -0.00000000000E+00  0.00000000000E+00  0.65773411134E+02  0.65773411184E+02  0.25500000000E-02 0. -1.
          2   -1    0    0  501    0  0.00000000000E+00 -0.00000000000E+00 -0.18007991143E+04  0.18007991143E+04  0.25500000000E-02 0.  1.
    5000001    1    1    2    0    0  0.27646868642E+03  0.51016927646E+01 -0.67347745826E+03  0.75292552661E+03  0.19200000000E+03 0.  0.
   -5000001    1    1    2    0    0 -0.27646868642E+03 -0.51016927646E+01 -0.10615482449E+04  0.11136469989E+04  0.19200000000E+03 0.  0.
<mgrwt>
<rscale>  0 0.68831592E+03</rscale>
<asrwt>0</asrwt>
<pdfrwt beam="1">  1        2 0.25725698E+00 0.68831592E+03</pdfrwt>
<pdfrwt beam="2">  1       -2 0.93962027E-02 0.68831592E+03</pdfrwt>
<totfact> 0.78659669E+02</totfact>
</mgrwt>
</event>
<event>
 4    1  0.1896644E-005  0.5839591E+03  0.7818608E-02  0.9939256E-01
         -2   -1    0    0    0  501 -0.00000000000E+00  0.00000000000E+00  0.48180961532E+02  0.48180961600E+02  0.25500000000E-02 0. -1.
          2   -1    0    0  501    0  0.00000000000E+00 -0.00000000000E+00 -0.17694138187E+04  0.17694138187E+04  0.25500000000E-02 0.  1.
    5000001    1    1    2    0    0  0.51459139570E+02 -0.18165747415E+03 -0.12119415474E+04  0.12414965950E+04  0.19200000000E+03 0.  0.
   -5000001    1    1    2    0    0 -0.51459139570E+02  0.18165747415E+03 -0.50929130977E+03  0.57609818535E+03  0.19200000000E+03 0.  0.
<mgrwt>
<rscale>  0 0.58395911E+03</rscale>
<asrwt>0</asrwt>
<pdfrwt beam="1">  1        2 0.25277336E+00 0.58395911E+03</pdfrwt>
<pdfrwt beam="2">  1       -2 0.68829956E-02 0.58395911E+03</pdfrwt>
<totfact> 0.13481014E+03</totfact>
</mgrwt>
</event>
<event>
 4    1  0.1896644E-005  0.8465687E+03  0.7818608E-02  0.9494954E-01
         -2   -1    0    0    0  501 -0.00000000000E+00  0.00000000000E+00  0.75927771014E+02  0.75927771057E+02  0.25500000000E-02 0.  1.
          2   -1    0    0  501    0  0.00000000000E+00 -0.00000000000E+00 -0.23597380405E+04  0.23597380405E+04  0.25500000000E-02 0. -1.
    5000001    1    1    2    0    0 -0.80507339318E+02 -0.36298961927E+03 -0.95851931127E+03  0.10458805694E+04  0.19200000000E+03 0.  0.
   -5000001    1    1    2    0    0  0.80507339318E+02  0.36298961927E+03 -0.13252909583E+04  0.13897852422E+04  0.19200000000E+03 0.  0.
<mgrwt>
<rscale>  0 0.84656872E+03</rscale>
<asrwt>0</asrwt>
<pdfrwt beam="1">  1        2 0.33710539E+00 0.84656872E+03</pdfrwt>
<pdfrwt beam="2">  1       -2 0.10846826E-01 0.84656872E+03</pdfrwt>
<totfact> 0.32051049E+02</totfact>
</mgrwt>
</event>
<event>
 4    1  0.1896644E-005  0.6380761E+03  0.7818608E-02  0.9829414E-01
         -2   -1    0    0    0  501 -0.00000000000E+00  0.00000000000E+00  0.23247840724E+03  0.23247840725E+03  0.25500000000E-02 0. -1.
          2   -1    0    0  501    0  0.00000000000E+00 -0.00000000000E+00 -0.43782683080E+03  0.43782683080E+03  0.25500000000E-02 0.  1.
    5000001    1    1    2    0    0  0.42985887349E+02  0.18065184150E+03 -0.28595253434E+03  0.39130004631E+03  0.19200000000E+03 0.  0.
   -5000001    1    1    2    0    0 -0.42985887349E+02 -0.18065184150E+03  0.80604110783E+02  0.27900519175E+03  0.19200000000E+03 0.  0.
<mgrwt>
<rscale>  0 0.63807612E+03</rscale>
<asrwt>0</asrwt>
<pdfrwt beam="1">  1        2 0.62546690E-01 0.63807612E+03</pdfrwt>
<pdfrwt beam="2">  1       -2 0.33211201E-01 0.63807612E+03</pdfrwt>
<totfact> 0.66459514E+02</totfact>
</mgrwt>
</event>
<event>
 4    1  0.1896644E-005  0.1554939E+04  0.7818608E-02  0.8848719E-01
         -2   -1    0    0    0  501 -0.00000000000E+00  0.00000000000E+00  0.72218629510E+03  0.72218629511E+03  0.25500000000E-02 0. -1.
          2   -1    0    0  501    0  0.00000000000E+00 -0.00000000000E+00 -0.83698434678E+03  0.83698434679E+03  0.25500000000E-02 0.  1.
    5000001    1    1    2    0    0  0.46161960151E+03  0.26618379025E+03 -0.59143479604E+03  0.81890511334E+03  0.19200000000E+03 0.  0.
   -5000001    1    1    2    0    0 -0.46161960151E+03 -0.26618379025E+03  0.47663674436E+03  0.74026552855E+03  0.19200000000E+03 0.  0.
<mgrwt>
<rscale>  0 0.15549387E+04</rscale>
<asrwt>0</asrwt>
<pdfrwt beam="1">  1        2 0.11956919E+00 0.15549387E+04</pdfrwt>
<pdfrwt beam="2">  1       -2 0.10316947E+00 0.15549387E+04</pdfrwt>
<totfact> 0.26498964E+01</totfact>
</mgrwt>
</event>
<event>
 4    1  0.1896644E-005  0.6852046E+03  0.7818608E-02  0.9742874E-01
          2   -1    0    0  501    0  0.00000000000E+00  0.00000000000E+00  0.95496034301E+03  0.95496034301E+03  0.25500000000E-02 0.  1.
         -2   -1    0    0    0  501 -0.00000000000E+00 -0.00000000000E+00 -0.12291226626E+03  0.12291226629E+03  0.25500000000E-02 0. -1.
    5000001    1    1    2    0    0 -0.23942532751E+03 -0.14192937511E+03  0.32923543393E+03  0.47194110430E+03  0.19200000000E+03 0.  0.
   -5000001    1    1    2    0    0  0.23942532751E+03  0.14192937511E+03  0.50281264282E+03  0.60593150500E+03  0.19200000000E+03 0.  0.
<mgrwt>
<rscale>  0 0.68520461E+03</rscale>
<asrwt>0</asrwt>
<pdfrwt beam="1">  1        2 0.13642292E+00 0.68520461E+03</pdfrwt>
<pdfrwt beam="2">  1       -2 0.17558894E-01 0.68520461E+03</pdfrwt>
<totfact> 0.80544723E+02</totfact>
</mgrwt>
</event>
<event>
 4    1  0.1896644E-005  0.4499811E+03  0.7818608E-02  0.1027728E+00
         -2   -1    0    0    0  501 -0.00000000000E+00  0.00000000000E+00  0.10609877497E+03  0.10609877500E+03  0.25500000000E-02 0. -1.
          2   -1    0    0  501    0  0.00000000000E+00 -0.00000000000E+00 -0.47710972318E+03  0.47710972318E+03  0.25500000000E-02 0.  1.
    5000001    1    1    2    0    0 -0.64182883085E+02  0.26392202436E+02 -0.30805648611E+03  0.36956567680E+03  0.19200000000E+03 0.  0.
   -5000001    1    1    2    0    0  0.64182883085E+02 -0.26392202436E+02 -0.62954462098E+02  0.21364282138E+03  0.19200000000E+03 0.  0.
<mgrwt>
<rscale>  0 0.44998114E+03</rscale>
<asrwt>0</asrwt>
<pdfrwt beam="1">  1        2 0.68158531E-01 0.44998114E+03</pdfrwt>
<pdfrwt beam="2">  1       -2 0.15156968E-01 0.44998114E+03</pdfrwt>
<totfact> 0.24171787E+03</totfact>
</mgrwt>
</event>
<event>
 4    1  0.1896644E-005  0.5389312E+03  0.7818608E-02  0.1004089E+00
          2   -1    0    0  501    0  0.00000000000E+00  0.00000000000E+00  0.19462350221E+04  0.19462350221E+04  0.25500000000E-02 0. -1.
         -2   -1    0    0    0  501 -0.00000000000E+00 -0.00000000000E+00 -0.37308813080E+02  0.37308813167E+02  0.25500000000E-02 0.  1.
    5000001    1    1    2    0    0  0.57726744929E+02 -0.17415158477E+03  0.11225851380E+04  0.11535694793E+04  0.19200000000E+03 0.  0.
   -5000001    1    1    2    0    0 -0.57726744929E+02  0.17415158477E+03  0.78634107100E+03  0.82997435593E+03  0.19200000000E+03 0.  0.
<mgrwt>
<rscale>  0 0.53893123E+03</rscale>
<asrwt>0</asrwt>
<pdfrwt beam="1">  1        2 0.27803362E+00 0.53893123E+03</pdfrwt>
<pdfrwt beam="2">  1       -2 0.53298296E-02 0.53893123E+03</pdfrwt>
<totfact> 0.16424742E+03</totfact>
</mgrwt>
</event>
<event>
 4    1  0.1896644E-005  0.4318434E+03  0.7818608E-02  0.1033279E+00
          2   -1    0    0  501    0  0.00000000000E+00  0.00000000000E+00  0.13402628942E+04  0.13402628942E+04  0.25500000000E-02 0. -1.
         -2   -1    0    0    0  501 -0.00000000000E+00 -0.00000000000E+00 -0.34785855114E+02  0.34785855208E+02  0.25500000000E-02 0.  1.
    5000001    1    1    2    0    0 -0.94034647168E+02 -0.30238581383E+02  0.65637492157E+03  0.69097679002E+03  0.19200000000E+03 0.  0.
   -5000001    1    1    2    0    0  0.94034647168E+02  0.30238581383E+02  0.64910211756E+03  0.68407195944E+03  0.19200000000E+03 0.  0.
<mgrwt>
<rscale>  0 0.43184345E+03</rscale>
<asrwt>0</asrwt>
<pdfrwt beam="1">  1        2 0.19146614E+00 0.43184345E+03</pdfrwt>
<pdfrwt beam="2">  1       -2 0.49694076E-02 0.43184345E+03</pdfrwt>
<totfact> 0.37386886E+03</totfact>
</mgrwt>
</event>
<event>
 4    1  0.1896644E-005  0.8930484E+03  0.7818608E-02  0.9434313E-01
         -2   -1    0    0    0  501 -0.00000000000E+00  0.00000000000E+00  0.52373372250E+02  0.52373372312E+02  0.25500000000E-02 0. -1.
          2   -1    0    0  501    0  0.00000000000E+00 -0.00000000000E+00 -0.38069705031E+04  0.38069705031E+04  0.25500000000E-02 0.  1.
    5000001    1    1    2    0    0 -0.36145246350E+02 -0.37193931725E+03 -0.25309026006E+04  0.25655364563E+04  0.19200000000E+03 0.  0.
   -5000001    1    1    2    0    0  0.36145246350E+02  0.37193931725E+03 -0.12236945302E+04  0.12938074191E+04  0.19200000000E+03 0.  0.
<mgrwt>
<rscale>  0 0.89304845E+03</rscale>
<asrwt>0</asrwt>
<pdfrwt beam="1">  1        2 0.54385276E+00 0.89304845E+03</pdfrwt>
<pdfrwt beam="2">  1       -2 0.74819127E-02 0.89304845E+03</pdfrwt>
<totfact> 0.88978700E+01</totfact>
</mgrwt>
</event>
<event>
 4    1  0.1896644E-005  0.7096000E+03  0.7818608E-02  0.9700954E-01
         -2   -1    0    0    0  501 -0.00000000000E+00  0.00000000000E+00  0.93103357204E+02  0.93103357239E+02  0.25500000000E-02 0. -1.
          2   -1    0    0  501    0  0.00000000000E+00 -0.00000000000E+00 -0.13520783119E+04  0.13520783119E+04  0.25500000000E-02 0.  1.
    5000001    1    1    2    0    0 -0.27933235653E+03  0.94689991377E+02 -0.53781108115E+03  0.64272662842E+03  0.19200000000E+03 0.  0.
   -5000001    1    1    2    0    0  0.27933235653E+03 -0.94689991377E+02 -0.72116387356E+03  0.80245504073E+03  0.19200000000E+03 0.  0.
<mgrwt>
<rscale>  0 0.70959997E+03</rscale>
<asrwt>0</asrwt>
<pdfrwt beam="1">  1        2 0.19315403E+00 0.70959997E+03</pdfrwt>
<pdfrwt beam="2">  1       -2 0.13300480E-01 0.70959997E+03</pdfrwt>
<totfact> 0.76019299E+02</totfact>
</mgrwt>
</event>
<event>
 4    1  0.1896644E-005  0.4558321E+03  0.7818608E-02  0.1025997E+00
         -2   -1    0    0    0  501 -0.00000000000E+00  0.00000000000E+00  0.27622914210E+03  0.27622914211E+03  0.25500000000E-02 0. -1.
          2   -1    0    0  501    0  0.00000000000E+00 -0.00000000000E+00 -0.18805301243E+03  0.18805301244E+03  0.25500000000E-02 0.  1.
    5000001    1    1    2    0    0 -0.90760723971E+02  0.32502444027E+02  0.12157598855E+03  0.24685752748E+03  0.19200000000E+03 0.  0.
   -5000001    1    1    2    0    0  0.90760723971E+02 -0.32502444027E+02 -0.33399858881E+02  0.21742462707E+03  0.19200000000E+03 0.  0.
<mgrwt>
<rscale>  0 0.45583208E+03</rscale>
<asrwt>0</asrwt>
<pdfrwt beam="1">  1        2 0.26864716E-01 0.45583208E+03</pdfrwt>
<pdfrwt beam="2">  1       -2 0.39461306E-01 0.45583208E+03</pdfrwt>
<totfact> 0.12233676E+03</totfact>
</mgrwt>
</event>
<event>
 4    1  0.1896644E-005  0.5335628E+03  0.7818608E-02  0.1005372E+00
          2   -1    0    0  501    0  0.00000000000E+00  0.00000000000E+00  0.16349985275E+04  0.16349985275E+04  0.25500000000E-02 0.  1.
         -2   -1    0    0    0  501 -0.00000000000E+00 -0.00000000000E+00 -0.43530507168E+02  0.43530507243E+02  0.25500000000E-02 0. -1.
    5000001    1    1    2    0    0  0.91130335409E+02  0.11393278428E+03  0.11547362284E+04  0.11796462074E+04  0.19200000000E+03 0.  0.
   -5000001    1    1    2    0    0 -0.91130335409E+02 -0.11393278428E+03  0.43673179187E+03  0.49888282732E+03  0.19200000000E+03 0.  0.
<mgrwt>
<rscale>  0 0.53356280E+03</rscale>
<asrwt>0</asrwt>
<pdfrwt beam="1">  1        2 0.23357123E+00 0.53356280E+03</pdfrwt>
<pdfrwt beam="2">  1       -2 0.62186435E-02 0.53356280E+03</pdfrwt>
<totfact> 0.18536325E+03</totfact>
</mgrwt>
</event>
<event>
 4    1  0.1896644E-005  0.7480712E+03  0.7818608E-02  0.9638381E-01
          2   -1    0    0  501    0  0.00000000000E+00  0.00000000000E+00  0.37492686915E+03  0.37492686916E+03  0.25500000000E-02 0.  1.
         -2   -1    0    0    0  501 -0.00000000000E+00 -0.00000000000E+00 -0.37314642034E+03  0.37314642035E+03  0.25500000000E-02 0. -1.
    5000001    1    1    2    0    0 -0.31553182069E+03  0.33937142483E+02 -0.47344335735E+02  0.37392184428E+03  0.19200000000E+03 0.  0.
   -5000001    1    1    2    0    0  0.31553182069E+03 -0.33937142483E+02  0.49124784544E+02  0.37415144522E+03  0.19200000000E+03 0.  0.
<mgrwt>
<rscale>  0 0.74807117E+03</rscale>
<asrwt>0</asrwt>
<pdfrwt beam="1">  1        2 0.53560981E-01 0.74807117E+03</pdfrwt>
<pdfrwt beam="2">  1       -2 0.53306631E-01 0.74807117E+03</pdfrwt>
<totfact> 0.31089635E+02</totfact>
</mgrwt>
</event>
<event>
 4    1  0.1896644E-005  0.4650883E+03  0.7818608E-02  0.1023316E+00
         -2   -1    0    0    0  501 -0.00000000000E+00  0.00000000000E+00  0.29007557947E+02  0.29007558059E+02  0.25500000000E-02 0. -1.
          2   -1    0    0  501    0  0.00000000000E+00 -0.00000000000E+00 -0.18642308495E+04  0.18642308495E+04  0.25500000000E-02 0.  1.
    5000001    1    1    2    0    0  0.90084445684E+02 -0.95196879260E+02 -0.94173941360E+03  0.97000761662E+03  0.19200000000E+03 0.  0.
   -5000001    1    1    2    0    0 -0.90084445684E+02  0.95196879260E+02 -0.89348387794E+03  0.92323079093E+03  0.19200000000E+03 0.  0.
<mgrwt>
<rscale>  0 0.46508831E+03</rscale>
<asrwt>0</asrwt>
<pdfrwt beam="1">  1        2 0.26631862E+00 0.46508831E+03</pdfrwt>
<pdfrwt beam="2">  1       -2 0.41439380E-02 0.46508831E+03</pdfrwt>
<totfact> 0.26672466E+03</totfact>
</mgrwt>
</event>
<event>
 4    1  0.1896644E-005  0.4690404E+03  0.7818608E-02  0.1022191E+00
         -2   -1    0    0    0  501 -0.00000000000E+00  0.00000000000E+00  0.97933167380E+02  0.97933167414E+02  0.25500000000E-02 0. -1.
          2   -1    0    0  501    0  0.00000000000E+00 -0.00000000000E+00 -0.56160460913E+03  0.56160460913E+03  0.25500000000E-02 0.  1.
    5000001    1    1    2    0    0 -0.28949191302E+02  0.94625573943E+02 -0.36027794952E+03  0.42006696589E+03  0.19200000000E+03 0.  0.
   -5000001    1    1    2    0    0  0.28949191302E+02 -0.94625573943E+02 -0.10339349222E+03  0.23947081065E+03  0.19200000000E+03 0.  0.
<mgrwt>
<rscale>  0 0.46904037E+03</rscale>
<asrwt>0</asrwt>
<pdfrwt beam="1">  1        2 0.80229228E-01 0.46904037E+03</pdfrwt>
<pdfrwt beam="2">  1       -2 0.13990453E-01 0.46904037E+03</pdfrwt>
<totfact> 0.22970313E+03</totfact>
</mgrwt>
</event>
<event>
 4    1  0.1896644E-005  0.4219362E+03  0.7818608E-02  0.1036438E+00
          2   -1    0    0  501    0  0.00000000000E+00  0.00000000000E+00  0.32763232838E+03  0.32763232839E+03  0.25500000000E-02 0.  1.
         -2   -1    0    0    0  501 -0.00000000000E+00 -0.00000000000E+00 -0.13584601144E+03  0.13584601146E+03  0.25500000000E-02 0. -1.
    5000001    1    1    2    0    0  0.11472957178E+02 -0.85713819484E+02  0.81780781182E+02  0.22589949926E+03  0.19200000000E+03 0.  0.
   -5000001    1    1    2    0    0 -0.11472957178E+02  0.85713819484E+02  0.11000553576E+03  0.23757884059E+03  0.19200000000E+03 0.  0.
<mgrwt>
<rscale>  0 0.42193623E+03</rscale>
<asrwt>0</asrwt>
<pdfrwt beam="1">  1        2 0.46804617E-01 0.42193623E+03</pdfrwt>
<pdfrwt beam="2">  1       -2 0.19406573E-01 0.42193623E+03</pdfrwt>
<totfact> 0.24025743E+03</totfact>
</mgrwt>
</event>
<event>
 4    1  0.1896644E-005  0.6802043E+03  0.7818608E-02  0.9751698E-01
         -2   -1    0    0    0  501 -0.00000000000E+00  0.00000000000E+00  0.17345943120E+03  0.17345943122E+03  0.25500000000E-02 0. -1.
          2   -1    0    0  501    0  0.00000000000E+00 -0.00000000000E+00 -0.66683866648E+03  0.66683866648E+03  0.25500000000E-02 0.  1.
    5000001    1    1    2    0    0  0.64367733016E+02 -0.21336258211E+03 -0.35812808573E+02  0.29633318032E+03  0.19200000000E+03 0.  0.
   -5000001    1    1    2    0    0 -0.64367733016E+02  0.21336258211E+03 -0.45756642670E+03  0.54396491738E+03  0.19200000000E+03 0.  0.
<mgrwt>
<rscale>  0 0.68020425E+03</rscale>
<asrwt>0</asrwt>
<pdfrwt beam="1">  1        2 0.95262665E-01 0.68020425E+03</pdfrwt>
<pdfrwt beam="2">  1       -2 0.24779919E-01 0.68020425E+03</pdfrwt>
<totfact> 0.69830477E+02</totfact>
</mgrwt>
</event>
<event>
 4    1  0.1896644E-005  0.4606558E+03  0.7818608E-02  0.1024591E+00
          2   -1    0    0  501    0  0.00000000000E+00  0.00000000000E+00  0.10962975062E+04  0.10962975062E+04  0.25500000000E-02 0.  1.
         -2   -1    0    0    0  501 -0.00000000000E+00 -0.00000000000E+00 -0.48391003045E+02  0.48391003112E+02  0.25500000000E-02 0. -1.
    5000001    1    1    2    0    0  0.20943098787E+02  0.64211293799E+02  0.25602924853E+03  0.32707289668E+03  0.19200000000E+03 0.  0.
   -5000001    1    1    2    0    0 -0.20943098787E+02 -0.64211293799E+02  0.79187725463E+03  0.81761561265E+03  0.19200000000E+03 0.  0.
<mgrwt>
<rscale>  0 0.46065578E+03</rscale>
<asrwt>0</asrwt>
<pdfrwt beam="1">  1        2 0.15661392E+00 0.46065578E+03</pdfrwt>
<pdfrwt beam="2">  1       -2 0.69130010E-02 0.46065578E+03</pdfrwt>
<totfact> 0.30531920E+03</totfact>
</mgrwt>
</event>
<event>
 4    1  0.1896644E-005  0.5572590E+03  0.7818608E-02  0.9998276E-01
          2   -1    0    0  501    0  0.00000000000E+00  0.00000000000E+00  0.78565790333E+03  0.78565790334E+03  0.25500000000E-02 0.  1.
         -2   -1    0    0    0  501 -0.00000000000E+00 -0.00000000000E+00 -0.98814515389E+02  0.98814515422E+02  0.25500000000E-02 0. -1.
    5000001    1    1    2    0    0 -0.16084383589E+03 -0.12043791548E+03  0.37494133797E+03  0.46671301455E+03  0.19200000000E+03 0.  0.
   -5000001    1    1    2    0    0  0.16084383589E+03  0.12043791548E+03  0.31190204997E+03  0.41775940421E+03  0.19200000000E+03 0.  0.
<mgrwt>
<rscale>  0 0.55725902E+03</rscale>
<asrwt>0</asrwt>
<pdfrwt beam="1">  1        2 0.11223685E+00 0.55725902E+03</pdfrwt>
<pdfrwt beam="2">  1       -2 0.14116359E-01 0.55725902E+03</pdfrwt>
<totfact> 0.15118213E+03</totfact>
</mgrwt>
</event>
<event>
 4    1  0.1896644E-005  0.6262844E+03  0.7818608E-02  0.9852326E-01
         -2   -1    0    0    0  501 -0.00000000000E+00  0.00000000000E+00  0.21987935293E+03  0.21987935295E+03  0.25500000000E-02 0. -1.
          2   -1    0    0  501    0  0.00000000000E+00 -0.00000000000E+00 -0.44596291994E+03  0.44596291995E+03  0.25500000000E-02 0.  1.
    5000001    1    1    2    0    0 -0.11024405867E+03 -0.18305456394E+03 -0.24553811263E+03  0.37790963286E+03  0.19200000000E+03 0.  0.
   -5000001    1    1    2    0    0  0.11024405867E+03  0.18305456394E+03  0.19454545626E+02  0.28793264004E+03  0.19200000000E+03 0.  0.
<mgrwt>
<rscale>  0 0.62628440E+03</rscale>
<asrwt>0</asrwt>
<pdfrwt beam="1">  1        2 0.63708988E-01 0.62628440E+03</pdfrwt>
<pdfrwt beam="2">  1       -2 0.31411336E-01 0.62628440E+03</pdfrwt>
<totfact> 0.72270475E+02</totfact>
</mgrwt>
</event>
<event>
 4    1  0.1896644E-005  0.6223466E+03  0.7818608E-02  0.9860099E-01
         -2   -1    0    0    0  501 -0.00000000000E+00  0.00000000000E+00  0.69981961843E+02  0.69981961890E+02  0.25500000000E-02 0. -1.
          2   -1    0    0  501    0  0.00000000000E+00 -0.00000000000E+00 -0.13836256252E+04  0.13836256252E+04  0.25500000000E-02 0.  1.
    5000001    1    1    2    0    0 -0.17002569850E+02 -0.21769032870E+03 -0.91572174948E+03  0.96077494194E+03  0.19200000000E+03 0.  0.
   -5000001    1    1    2    0    0  0.17002569850E+02  0.21769032870E+03 -0.39792191391E+03  0.49283264518E+03  0.19200000000E+03 0.  0.
<mgrwt>
<rscale>  0 0.62234664E+03</rscale>
<asrwt>0</asrwt>
<pdfrwt beam="1">  1        2 0.19766079E+00 0.62234664E+03</pdfrwt>
<pdfrwt beam="2">  1       -2 0.99974239E-02 0.62234664E+03</pdfrwt>
<totfact> 0.11730027E+03</totfact>
</mgrwt>
</event>
<event>
 4    1  0.1896644E-005  0.1057462E+04  0.7818608E-02  0.9247674E-01
         -2   -1    0    0    0  501 -0.00000000000E+00  0.00000000000E+00  0.75204004162E+02  0.75204004205E+02  0.25500000000E-02 0. -1.
          2   -1    0    0  501    0  0.00000000000E+00 -0.00000000000E+00 -0.37173079571E+04  0.37173079571E+04  0.25500000000E-02 0.  1.
    5000001    1    1    2    0    0 -0.88624701569E+02 -0.48426693331E+03 -0.18855720933E+04  0.19582172810E+04  0.19200000000E+03 0.  0.
   -5000001    1    1    2    0    0  0.88624701569E+02  0.48426693331E+03 -0.17565318597E+04  0.18342946804E+04  0.19200000000E+03 0.  0.
<mgrwt>
<rscale>  0 0.10574619E+04</rscale>
<asrwt>0</asrwt>
<pdfrwt beam="1">  1        2 0.53104388E+00 0.10574619E+04</pdfrwt>
<pdfrwt beam="2">  1       -2 0.10743432E-01 0.10574619E+04</pdfrwt>
<totfact> 0.55395189E+01</totfact>
</mgrwt>
</event>
<event>
 4    1  0.1896644E-005  0.5696720E+03  0.7818608E-02  0.9970405E-01
         -2   -1    0    0    0  501 -0.00000000000E+00  0.00000000000E+00  0.12893228138E+03  0.12893228141E+03  0.25500000000E-02 0. -1.
          2   -1    0    0  501    0  0.00000000000E+00 -0.00000000000E+00 -0.62925710649E+03  0.62925710649E+03  0.25500000000E-02 0.  1.
    5000001    1    1    2    0    0 -0.20405485957E+02 -0.13222349677E+03 -0.46628112387E+03  0.52171019104E+03  0.19200000000E+03 0.  0.
   -5000001    1    1    2    0    0  0.20405485957E+02  0.13222349677E+03 -0.34043701229E+02  0.23647919686E+03  0.19200000000E+03 0.  0.
<mgrwt>
<rscale>  0 0.56967203E+03</rscale>
<asrwt>0</asrwt>
<pdfrwt beam="1">  1        2 0.89893871E-01 0.56967203E+03</pdfrwt>
<pdfrwt beam="2">  1       -2 0.18418898E-01 0.56967203E+03</pdfrwt>
<totfact> 0.12637103E+03</totfact>
</mgrwt>
</event>
<event>
 4    1  0.1896644E-005  0.1456924E+04  0.7818608E-02  0.8913614E-01
         -2   -1    0    0    0  501 -0.00000000000E+00  0.00000000000E+00  0.51101476025E+03  0.51101476026E+03  0.25500000000E-02 0. -1.
          2   -1    0    0  501    0  0.00000000000E+00 -0.00000000000E+00 -0.10384381621E+04  0.10384381621E+04  0.25500000000E-02 0.  1.
    5000001    1    1    2    0    0 -0.39862999764E+03 -0.55948691088E+03 -0.10646417930E+03  0.72120045753E+03  0.19200000000E+03 0.  0.
   -5000001    1    1    2    0    0  0.39862999764E+03  0.55948691088E+03 -0.42095922257E+03  0.82825246485E+03  0.19200000000E+03 0.  0.
<mgrwt>
<rscale>  0 0.14569245E+04</rscale>
<asrwt>0</asrwt>
<pdfrwt beam="1">  1        2 0.14834831E+00 0.14569245E+04</pdfrwt>
<pdfrwt beam="2">  1       -2 0.73002109E-01 0.14569245E+04</pdfrwt>
<totfact> 0.43785237E+01</totfact>
</mgrwt>
</event>
<event>
 4    1  0.1896644E-005  0.6513561E+03  0.7818608E-02  0.9804238E-01
          2   -1    0    0  501    0  0.00000000000E+00  0.00000000000E+00  0.87188385639E+03  0.87188385639E+03  0.25500000000E-02 0.  1.
         -2   -1    0    0    0  501 -0.00000000000E+00 -0.00000000000E+00 -0.12165173524E+03  0.12165173527E+03  0.25500000000E-02 0. -1.
    5000001    1    1    2    0    0  0.61670446320E+02  0.70295724296E+02  0.75016667290E+03  0.77997357002E+03  0.19200000000E+03 0.  0.
   -5000001    1    1    2    0    0 -0.61670446320E+02 -0.70295724296E+02  0.65448242768E-01  0.21356202164E+03  0.19200000000E+03 0.  0.
<mgrwt>
<rscale>  0 0.65135607E+03</rscale>
<asrwt>0</asrwt>
<pdfrwt beam="1">  1        2 0.12455484E+00 0.65135607E+03</pdfrwt>
<pdfrwt beam="2">  1       -2 0.17378819E-01 0.65135607E+03</pdfrwt>
<totfact> 0.92793726E+02</totfact>
</mgrwt>
</event>
<event>
 4    1  0.1896644E-005  0.4549656E+03  0.7818608E-02  0.1026252E+00
          2   -1    0    0  501    0  0.00000000000E+00  0.00000000000E+00  0.14673952013E+04  0.14673952013E+04  0.25500000000E-02 0.  1.
         -2   -1    0    0    0  501 -0.00000000000E+00 -0.00000000000E+00 -0.35265502880E+02  0.35265502972E+02  0.25500000000E-02 0. -1.
    5000001    1    1    2    0    0  0.88211395822E+02  0.40014861632E+02  0.96105140636E+03  0.98481787411E+03  0.19200000000E+03 0.  0.
   -5000001    1    1    2    0    0 -0.88211395822E+02 -0.40014861632E+02  0.47107829210E+03  0.51784283021E+03  0.19200000000E+03 0.  0.
<mgrwt>
<rscale>  0 0.45496562E+03</rscale>
<asrwt>0</asrwt>
<pdfrwt beam="1">  1        2 0.20962786E+00 0.45496562E+03</pdfrwt>
<pdfrwt beam="2">  1       -2 0.50379297E-02 0.45496562E+03</pdfrwt>
<totfact> 0.31393463E+03</totfact>
</mgrwt>
</event>
<event>
 4    1  0.1896644E-005  0.5205543E+03  0.7818608E-02  0.1008549E+00
          2   -1    0    0  501    0  0.00000000000E+00  0.00000000000E+00  0.34310917334E+04  0.34310917334E+04  0.25500000000E-02 0.  1.
         -2   -1    0    0    0  501 -0.00000000000E+00 -0.00000000000E+00 -0.19744208792E+02  0.19744208956E+02  0.25500000000E-02 0. -1.
    5000001    1    1    2    0    0  0.15955179008E+03  0.63998617901E+02  0.14641326315E+04  0.14866408307E+04  0.19200000000E+03 0.  0.
   -5000001    1    1    2    0    0 -0.15955179008E+03 -0.63998617901E+02  0.19472148931E+04  0.19641951117E+04  0.19200000000E+03 0.  0.
<mgrwt>
<rscale>  0 0.52055429E+03</rscale>
<asrwt>0</asrwt>
<pdfrwt beam="1">  1        2 0.49015633E+00 0.52055429E+03</pdfrwt>
<pdfrwt beam="2">  1       -2 0.28205992E-02 0.52055429E+03</pdfrwt>
<totfact> 0.71770214E+02</totfact>
</mgrwt>
</event>
<event>
 4    1  0.1896644E-005  0.5156952E+03  0.7818608E-02  0.1009762E+00
          2   -1    0    0  501    0  0.00000000000E+00  0.00000000000E+00  0.50234917400E+03  0.50234917401E+03  0.25500000000E-02 0.  1.
         -2   -1    0    0    0  501 -0.00000000000E+00 -0.00000000000E+00 -0.13234895702E+03  0.13234895705E+03  0.25500000000E-02 0. -1.
    5000001    1    1    2    0    0 -0.80788214890E+02  0.87566139117E+02  0.32133584432E+02  0.22823481687E+03  0.19200000000E+03 0.  0.
   -5000001    1    1    2    0    0  0.80788214890E+02 -0.87566139117E+02  0.33786663255E+03  0.40646331418E+03  0.19200000000E+03 0.  0.
<mgrwt>
<rscale>  0 0.51569522E+03</rscale>
<asrwt>0</asrwt>
<pdfrwt beam="1">  1        2 0.71764167E-01 0.51569522E+03</pdfrwt>
<pdfrwt beam="2">  1       -2 0.18906994E-01 0.51569522E+03</pdfrwt>
<totfact> 0.15683287E+03</totfact>
</mgrwt>
</event>
<event>
 4    1  0.1896644E-005  0.5213890E+03  0.7818608E-02  0.1008342E+00
          2   -1    0    0  501    0  0.00000000000E+00  0.00000000000E+00  0.30034960831E+04  0.30034960831E+04  0.25500000000E-02 0.  1.
         -2   -1    0    0    0  501 -0.00000000000E+00 -0.00000000000E+00 -0.22627508694E+02  0.22627508837E+02  0.25500000000E-02 0. -1.
    5000001    1    1    2    0    0  0.16793839397E+03 -0.45023938877E+01  0.18015862473E+04  0.18195605465E+04  0.19200000000E+03 0.  0.
   -5000001    1    1    2    0    0 -0.16793839397E+03  0.45023938877E+01  0.11792823271E+04  0.12065630454E+04  0.19200000000E+03 0.  0.
<mgrwt>
<rscale>  0 0.52138904E+03</rscale>
<asrwt>0</asrwt>
<pdfrwt beam="1">  1        2 0.42907095E+00 0.52138904E+03</pdfrwt>
<pdfrwt beam="2">  1       -2 0.32325007E-02 0.52138904E+03</pdfrwt>
<totfact> 0.10144715E+03</totfact>
</mgrwt>
</event>
<event>
 4    1  0.1896644E-005  0.1101523E+04  0.7818608E-02  0.9203709E-01
         -2   -1    0    0    0  501 -0.00000000000E+00  0.00000000000E+00  0.17019784074E+03  0.17019784076E+03  0.25500000000E-02 0. -1.
          2   -1    0    0  501    0  0.00000000000E+00 -0.00000000000E+00 -0.17822671947E+04  0.17822671947E+04  0.25500000000E-02 0.  1.
    5000001    1    1    2    0    0 -0.23016136623E+03  0.22142247178E+03 -0.87189032895E+02  0.38271150096E+03  0.19200000000E+03 0.  0.
   -5000001    1    1    2    0    0  0.23016136623E+03 -0.22142247178E+03 -0.15248803211E+04  0.15697535345E+04  0.19200000000E+03 0.  0.
<mgrwt>
<rscale>  0 0.11015226E+04</rscale>
<asrwt>0</asrwt>
<pdfrwt beam="1">  1        2 0.25460959E+00 0.11015226E+04</pdfrwt>
<pdfrwt beam="2">  1       -2 0.24313978E-01 0.11015226E+04</pdfrwt>
<totfact> 0.15558746E+02</totfact>
</mgrwt>
</event>
<event>
 4    1  0.1896644E-005  0.6092128E+03  0.7818608E-02  0.9886475E-01
         -2   -1    0    0    0  501 -0.00000000000E+00  0.00000000000E+00  0.20103981909E+03  0.20103981911E+03  0.25500000000E-02 0. -1.
          2   -1    0    0  501    0  0.00000000000E+00 -0.00000000000E+00 -0.46152575858E+03  0.46152575859E+03  0.25500000000E-02 0.  1.
    5000001    1    1    2    0    0 -0.10576653121E+03 -0.14292531026E+03  0.39317344714E+02  0.26462059072E+03  0.19200000000E+03 0.  0.
   -5000001    1    1    2    0    0  0.10576653121E+03  0.14292531026E+03 -0.29980328421E+03  0.39794498697E+03  0.19200000000E+03 0.  0.
<mgrwt>
<rscale>  0 0.60921279E+03</rscale>
<asrwt>0</asrwt>
<pdfrwt beam="1">  1        2 0.65932251E-01 0.60921279E+03</pdfrwt>
<pdfrwt beam="2">  1       -2 0.28719974E-01 0.60921279E+03</pdfrwt>
<totfact> 0.82080840E+02</totfact>
</mgrwt>
</event>
<event>
 4    1  0.1896644E-005  0.5218501E+03  0.7818608E-02  0.1008228E+00
         -2   -1    0    0    0  501 -0.00000000000E+00  0.00000000000E+00  0.23123752124E+02  0.23123752265E+02  0.25500000000E-02 0. -1.
          2   -1    0    0  501    0  0.00000000000E+00 -0.00000000000E+00 -0.29442399066E+04  0.29442399066E+04  0.25500000000E-02 0.  1.
    5000001    1    1    2    0    0 -0.16730771557E+03  0.43080452192E+02 -0.16710316182E+04  0.16908750593E+04  0.19200000000E+03 0.  0.
   -5000001    1    1    2    0    0  0.16730771557E+03 -0.43080452192E+02 -0.12500845363E+04  0.12764885996E+04  0.19200000000E+03 0.  0.
<mgrwt>
<rscale>  0 0.52185007E+03</rscale>
<asrwt>0</asrwt>
<pdfrwt beam="1">  1        2 0.42060546E+00 0.52185007E+03</pdfrwt>
<pdfrwt beam="2">  1       -2 0.33033951E-02 0.52185007E+03</pdfrwt>
<totfact> 0.10565273E+03</totfact>
</mgrwt>
</event>
<event>
 4    1  0.1896644E-005  0.5485477E+03  0.7818608E-02  0.1001831E+00
         -2   -1    0    0    0  501 -0.00000000000E+00  0.00000000000E+00  0.66725079286E+02  0.66725079335E+02  0.25500000000E-02 0. -1.
          2   -1    0    0  501    0  0.00000000000E+00 -0.00000000000E+00 -0.11274043101E+04  0.11274043101E+04  0.25500000000E-02 0.  1.
    5000001    1    1    2    0    0  0.17762834855E+03 -0.29893748844E+02 -0.69778603866E+03  0.74579811087E+03  0.19200000000E+03 0.  0.
   -5000001    1    1    2    0    0 -0.17762834855E+03  0.29893748844E+02 -0.36289319214E+03  0.44833127855E+03  0.19200000000E+03 0.  0.
<mgrwt>
<rscale>  0 0.54854769E+03</rscale>
<asrwt>0</asrwt>
<pdfrwt beam="1">  1        2 0.16105775E+00 0.54854769E+03</pdfrwt>
<pdfrwt beam="2">  1       -2 0.95321549E-02 0.54854769E+03</pdfrwt>
<totfact> 0.17573392E+03</totfact>
</mgrwt>
</event>
<event>
 4    1  0.1896644E-005  0.6869405E+03  0.7818608E-02  0.9739830E-01
         -2   -1    0    0    0  501 -0.00000000000E+00  0.00000000000E+00  0.29692182143E+03  0.29692182145E+03  0.25500000000E-02 0. -1.
          2   -1    0    0  501    0  0.00000000000E+00 -0.00000000000E+00 -0.39731602715E+03  0.39731602716E+03  0.25500000000E-02 0.  1.
    5000001    1    1    2    0    0 -0.26078839951E+03 -0.10257409390E+03 -0.10148823210E+03  0.35453616926E+03  0.19200000000E+03 0.  0.
   -5000001    1    1    2    0    0  0.26078839951E+03  0.10257409390E+03  0.10940263868E+01  0.33970167935E+03  0.19200000000E+03 0.  0.
<mgrwt>
<rscale>  0 0.68694046E+03</rscale>
<asrwt>0</asrwt>
<pdfrwt beam="1">  1        2 0.56759433E-01 0.68694046E+03</pdfrwt>
<pdfrwt beam="2">  1       -2 0.42417403E-01 0.68694046E+03</pdfrwt>
<totfact> 0.46232691E+02</totfact>
</mgrwt>
</event>
<event>
 4    1  0.1896644E-005  0.6171468E+03  0.7818608E-02  0.9870457E-01
          2   -1    0    0  501    0  0.00000000000E+00  0.00000000000E+00  0.43432020346E+03  0.43432020346E+03  0.25500000000E-02 0.  1.
         -2   -1    0    0    0  501 -0.00000000000E+00 -0.00000000000E+00 -0.21923351573E+03  0.21923351574E+03  0.25500000000E-02 0. -1.
    5000001    1    1    2    0    0 -0.23778664616E+03  0.37832865436E+02  0.12817957899E+03  0.33356831274E+03  0.19200000000E+03 0.  0.
   -5000001    1    1    2    0    0  0.23778664616E+03 -0.37832865436E+02  0.86907108741E+02  0.31998540646E+03  0.19200000000E+03 0.  0.
<mgrwt>
<rscale>  0 0.61714681E+03</rscale>
<asrwt>0</asrwt>
<pdfrwt beam="1">  1        2 0.62045743E-01 0.61714681E+03</pdfrwt>
<pdfrwt beam="2">  1       -2 0.31319074E-01 0.61714681E+03</pdfrwt>
<totfact> 0.74866359E+02</totfact>
</mgrwt>
</event>
<event>
 4    1  0.1896644E-005  0.6990339E+03  0.7818608E-02  0.9718886E-01
          2   -1    0    0  501    0  0.00000000000E+00  0.00000000000E+00  0.74579941208E+03  0.74579941208E+03  0.25500000000E-02 0.  1.
         -2   -1    0    0    0  501 -0.00000000000E+00 -0.00000000000E+00 -0.16380018412E+03  0.16380018414E+03  0.25500000000E-02 0. -1.
    5000001    1    1    2    0    0 -0.81346553515E+02 -0.20180869444E+03  0.54450152044E+03  0.61700074286E+03  0.19200000000E+03 0.  0.
   -5000001    1    1    2    0    0  0.81346553515E+02  0.20180869444E+03  0.37497707520E+02  0.29259885336E+03  0.19200000000E+03 0.  0.
<mgrwt>
<rscale>  0 0.69903385E+03</rscale>
<asrwt>0</asrwt>
<pdfrwt beam="1">  1        2 0.10654277E+00 0.69903385E+03</pdfrwt>
<pdfrwt beam="2">  1       -2 0.23400026E-01 0.69903385E+03</pdfrwt>
<totfact> 0.67374208E+02</totfact>
</mgrwt>
</event>
<event>
 4    1  0.1896644E-005  0.8778705E+03  0.7818608E-02  0.9453675E-01
         -2   -1    0    0    0  501 -0.00000000000E+00  0.00000000000E+00  0.18100414399E+03  0.18100414401E+03  0.25500000000E-02 0. -1.
          2   -1    0    0  501    0  0.00000000000E+00 -0.00000000000E+00 -0.10644185095E+04  0.10644185095E+04  0.25500000000E-02 0.  1.
    5000001    1    1    2    0    0 -0.25312339296E+03 -0.28248359906E+03 -0.59667371741E+03  0.73263357885E+03  0.19200000000E+03 0.  0.
   -5000001    1    1    2    0    0  0.25312339296E+03  0.28248359906E+03 -0.28674064805E+03  0.51278907462E+03  0.19200000000E+03 0.  0.
<mgrwt>
<rscale>  0 0.87787052E+03</rscale>
<asrwt>0</asrwt>
<pdfrwt beam="1">  1        2 0.15205978E+00 0.87787052E+03</pdfrwt>
<pdfrwt beam="2">  1       -2 0.25857736E-01 0.87787052E+03</pdfrwt>
<totfact> 0.34603768E+02</totfact>
</mgrwt>
</event>
<event>
 4    1  0.1896644E-005  0.5499829E+03  0.7818608E-02  0.1001498E+00
          2   -1    0    0  501    0  0.00000000000E+00  0.00000000000E+00  0.16692693762E+03  0.16692693764E+03  0.25500000000E-02 0. -1.
         -2   -1    0    0    0  501 -0.00000000000E+00 -0.00000000000E+00 -0.45301438176E+03  0.45301438176E+03  0.25500000000E-02 0.  1.
    5000001    1    1    2    0    0 -0.18614840064E+02 -0.19001264071E+03 -0.88926477980E+02  0.28499690241E+03  0.19200000000E+03 0.  0.
   -5000001    1    1    2    0    0  0.18614840064E+02  0.19001264071E+03 -0.19716096616E+03  0.33494441699E+03  0.19200000000E+03 0.  0.
<mgrwt>
<rscale>  0 0.54998292E+03</rscale>
<asrwt>0</asrwt>
<pdfrwt beam="1">  1        2 0.23846706E-01 0.54998292E+03</pdfrwt>
<pdfrwt beam="2">  1       -2 0.64716340E-01 0.54998292E+03</pdfrwt>
<totfact> 0.51422264E+02</totfact>
</mgrwt>
</event>
<event>
 4    1  0.1896644E-005  0.4455246E+03  0.7818608E-02  0.1029065E+00
         -2   -1    0    0    0  501 -0.00000000000E+00  0.00000000000E+00  0.17269580155E+02  0.17269580343E+02  0.25500000000E-02 0. -1.
          2   -1    0    0  501    0  0.00000000000E+00 -0.00000000000E+00 -0.28734364500E+04  0.28734364500E+04  0.25500000000E-02 0.  1.
    5000001    1    1    2    0    0 -0.10419138974E+03  0.28675702606E+02 -0.12147666881E+04  0.12345850510E+04  0.19200000000E+03 0.  0.
   -5000001    1    1    2    0    0  0.10419138974E+03 -0.28675702606E+02 -0.16414001817E+04  0.16561209793E+04  0.19200000000E+03 0.  0.
<mgrwt>
<rscale>  0 0.44552460E+03</rscale>
<asrwt>0</asrwt>
<pdfrwt beam="1">  1        2 0.41049062E+00 0.44552460E+03</pdfrwt>
<pdfrwt beam="2">  1       -2 0.24670847E-02 0.44552460E+03</pdfrwt>
<totfact> 0.18026833E+03</totfact>
</mgrwt>
</event>
<event>
 4    1  0.1896644E-005  0.5032710E+03  0.7818608E-02  0.1012929E+00
          2   -1    0    0  501    0  0.00000000000E+00  0.00000000000E+00  0.17569610923E+04  0.17569610924E+04  0.25500000000E-02 0.  1.
         -2   -1    0    0    0  501 -0.00000000000E+00 -0.00000000000E+00 -0.36039748078E+02  0.36039748168E+02  0.25500000000E-02 0. -1.
    5000001    1    1    2    0    0  0.34939614345E+02  0.11216016534E+03  0.45966539379E+03  0.51181730489E+03  0.19200000000E+03 0.  0.
   -5000001    1    1    2    0    0 -0.34939614345E+02 -0.11216016534E+03  0.12612559505E+04  0.12811835356E+04  0.19200000000E+03 0.  0.
<mgrwt>
<rscale>  0 0.50327104E+03</rscale>
<asrwt>0</asrwt>
<pdfrwt beam="1">  1        2 0.25099445E+00 0.50327104E+03</pdfrwt>
<pdfrwt beam="2">  1       -2 0.51485353E-02 0.50327104E+03</pdfrwt>
<totfact> 0.21592326E+03</totfact>
</mgrwt>
</event>
<event>
 4    1  0.1896644E-005  0.5965757E+03  0.7818608E-02  0.9912536E-01
         -2   -1    0    0    0  501 -0.00000000000E+00  0.00000000000E+00  0.16878268186E+03  0.16878268188E+03  0.25500000000E-02 0. -1.
          2   -1    0    0  501    0  0.00000000000E+00 -0.00000000000E+00 -0.52716089462E+03  0.52716089462E+03  0.25500000000E-02 0.  1.
    5000001    1    1    2    0    0  0.16740704154E+03  0.13527478595E+03 -0.26793421153E+03  0.39367134386E+03  0.19200000000E+03 0.  0.
   -5000001    1    1    2    0    0 -0.16740704154E+03 -0.13527478595E+03 -0.90444001223E+02  0.30227223264E+03  0.19200000000E+03 0.  0.
<mgrwt>
<rscale>  0 0.59657566E+03</rscale>
<asrwt>0</asrwt>
<pdfrwt beam="1">  1        2 0.75308698E-01 0.59657566E+03</pdfrwt>
<pdfrwt beam="2">  1       -2 0.24111812E-01 0.59657566E+03</pdfrwt>
<totfact> 0.96863465E+02</totfact>
</mgrwt>
</event>
<event>
 4    1  0.1896644E-005  0.4779767E+03  0.7818608E-02  0.1019693E+00
         -2   -1    0    0    0  501 -0.00000000000E+00  0.00000000000E+00  0.15967838175E+03  0.15967838177E+03  0.25500000000E-02 0. -1.
          2   -1    0    0  501    0  0.00000000000E+00 -0.00000000000E+00 -0.35769043837E+03  0.35769043838E+03  0.25500000000E-02 0.  1.
    5000001    1    1    2    0    0  0.98320070319E+02 -0.10277532102E+03 -0.93948994386E+02  0.25674893648E+03  0.19200000000E+03 0.  0.
   -5000001    1    1    2    0    0 -0.98320070319E+02  0.10277532102E+03 -0.10406306223E+03  0.26061988366E+03  0.19200000000E+03 0.  0.
<mgrwt>
<rscale>  0 0.47797670E+03</rscale>
<asrwt>0</asrwt>
<pdfrwt beam="1">  1        2 0.51098634E-01 0.47797670E+03</pdfrwt>
<pdfrwt beam="2">  1       -2 0.22811197E-01 0.47797670E+03</pdfrwt>
<totfact> 0.16487727E+03</totfact>
</mgrwt>
</event>
<event>
 4    1  0.1896644E-005  0.1202522E+04  0.7818608E-02  0.9110652E-01
          2   -1    0    0  501    0  0.00000000000E+00  0.00000000000E+00  0.14004981119E+04  0.14004981119E+04  0.25500000000E-02 0. -1.
         -2   -1    0    0    0  501 -0.00000000000E+00 -0.00000000000E+00 -0.25813284758E+03  0.25813284759E+03  0.25500000000E-02 0.  1.
    5000001    1    1    2    0    0  0.30390241343E+03  0.37483715018E+03  0.15329749827E+03  0.54150132874E+03  0.19200000000E+03 0.  0.
   -5000001    1    1    2    0    0 -0.30390241343E+03 -0.37483715018E+03  0.98906776601E+03  0.11171296307E+04  0.19200000000E+03 0.  0.
<mgrwt>
<rscale>  0 0.12025216E+04</rscale>
<asrwt>0</asrwt>
<pdfrwt beam="1">  1        2 0.20007116E+00 0.12025216E+04</pdfrwt>
<pdfrwt beam="2">  1       -2 0.36876121E-01 0.12025216E+04</pdfrwt>
<totfact> 0.11292889E+02</totfact>
</mgrwt>
</event>
<event>
 4    1  0.1896644E-005  0.5571743E+03  0.7818608E-02  0.9998469E-01
          2   -1    0    0  501    0  0.00000000000E+00  0.00000000000E+00  0.15660179768E+04  0.15660179768E+04  0.25500000000E-02 0.  1.
         -2   -1    0    0    0  501 -0.00000000000E+00 -0.00000000000E+00 -0.49559336093E+02  0.49559336159E+02  0.25500000000E-02 0. -1.
    5000001    1    1    2    0    0 -0.10332661485E+03  0.17299946420E+03  0.72372451920E+03  0.77540078904E+03  0.19200000000E+03 0.  0.
   -5000001    1    1    2    0    0  0.10332661485E+03 -0.17299946420E+03  0.79273412147E+03  0.84017652389E+03  0.19200000000E+03 0.  0.
<mgrwt>
<rscale>  0 0.55717434E+03</rscale>
<asrwt>0</asrwt>
<pdfrwt beam="1">  1        2 0.22371685E+00 0.55717434E+03</pdfrwt>
<pdfrwt beam="2">  1       -2 0.70799054E-02 0.55717434E+03</pdfrwt>
<totfact> 0.16385940E+03</totfact>
</mgrwt>
</event>
<event>
 4    1  0.1896644E-005  0.5899026E+03  0.7818608E-02  0.9926579E-01
          2   -1    0    0  501    0  0.00000000000E+00  0.00000000000E+00  0.53133429648E+03  0.53133429649E+03  0.25500000000E-02 0.  1.
         -2   -1    0    0    0  501 -0.00000000000E+00 -0.00000000000E+00 -0.16373170629E+03  0.16373170631E+03  0.25500000000E-02 0. -1.
    5000001    1    1    2    0    0  0.22247483414E+03 -0.25223881825E+02  0.18263787876E+03  0.34691770032E+03  0.19200000000E+03 0.  0.
   -5000001    1    1    2    0    0 -0.22247483414E+03  0.25223881825E+02  0.18496471143E+03  0.34814830247E+03  0.19200000000E+03 0.  0.
<mgrwt>
<rscale>  0 0.58990261E+03</rscale>
<asrwt>0</asrwt>
<pdfrwt beam="1">  1        2 0.75904899E-01 0.58990261E+03</pdfrwt>
<pdfrwt beam="2">  1       -2 0.23390244E-01 0.58990261E+03</pdfrwt>
<totfact> 0.10133778E+03</totfact>
</mgrwt>
</event>
<event>
 4    1  0.1896644E-005  0.1827764E+04  0.7818608E-02  0.8691673E-01
          2   -1    0    0  501    0  0.00000000000E+00  0.00000000000E+00  0.29309223891E+04  0.29309223891E+04  0.25500000000E-02 0.  1.
         -2   -1    0    0    0  501 -0.00000000000E+00 -0.00000000000E+00 -0.28495464907E+03  0.28495464908E+03  0.25500000000E-02 0. -1.
    5000001    1    1    2    0    0 -0.82698269416E+03 -0.19991254511E+03  0.18030636195E+04  0.20029397939E+04  0.19200000000E+03 0.  0.
   -5000001    1    1    2    0    0  0.82698269416E+03  0.19991254511E+03  0.84290412059E+03  0.12129372443E+04  0.19200000000E+03 0.  0.
<mgrwt>
<rscale>  0 0.18277636E+04</rscale>
<asrwt>0</asrwt>
<pdfrwt beam="1">  1        2 0.41870321E+00 0.18277636E+04</pdfrwt>
<pdfrwt beam="2">  1       -2 0.40707806E-01 0.18277636E+04</pdfrwt>
<totfact> 0.13937089E+01</totfact>
</mgrwt>
</event>
<event>
 4    1  0.1896644E-005  0.5659010E+03  0.7818608E-02  0.9978790E-01
          2   -1    0    0  501    0  0.00000000000E+00  0.00000000000E+00  0.14018278478E+04  0.14018278478E+04  0.25500000000E-02 0.  1.
         -2   -1    0    0    0  501 -0.00000000000E+00 -0.00000000000E+00 -0.57111861912E+02  0.57111861969E+02  0.25500000000E-02 0. -1.
    5000001    1    1    2    0    0 -0.18545680312E+03 -0.44859116261E+02  0.45991345841E+03  0.53365808845E+03  0.19200000000E+03 0.  0.
   -5000001    1    1    2    0    0  0.18545680312E+03  0.44859116261E+02  0.88480252751E+03  0.92528162136E+03  0.19200000000E+03 0.  0.
<mgrwt>
<rscale>  0 0.56590105E+03</rscale>
<asrwt>0</asrwt>
<pdfrwt beam="1">  1        2 0.20026110E+00 0.56590105E+03</pdfrwt>
<pdfrwt beam="2">  1       -2 0.81588381E-02 0.56590105E+03</pdfrwt>
<totfact> 0.15932948E+03</totfact>
</mgrwt>
</event>
<event>
 4    1  0.1896644E-005  0.6111660E+03  0.7818608E-02  0.9882507E-01
          2   -1    0    0  501    0  0.00000000000E+00  0.00000000000E+00  0.15565846713E+03  0.15565846715E+03  0.25500000000E-02 0.  1.
         -2   -1    0    0    0  501 -0.00000000000E+00 -0.00000000000E+00 -0.59990933178E+03  0.59990933178E+03  0.25500000000E-02 0. -1.
    5000001    1    1    2    0    0  0.17948850722E+03 -0.33451968420E+02 -0.41035503236E+03  0.48845717417E+03  0.19200000000E+03 0.  0.
   -5000001    1    1    2    0    0 -0.17948850722E+03  0.33451968420E+02 -0.33895832280E+02  0.26711062476E+03  0.19200000000E+03 0.  0.
<mgrwt>
<rscale>  0 0.61116599E+03</rscale>
<asrwt>0</asrwt>
<pdfrwt beam="1">  1        2 0.22236924E-01 0.61116599E+03</pdfrwt>
<pdfrwt beam="2">  1       -2 0.85701332E-01 0.61116599E+03</pdfrwt>
<totfact> 0.29993651E+02</totfact>
</mgrwt>
</event>
<event>
 4    1  0.1896644E-005  0.5140807E+03  0.7818608E-02  0.1010168E+00
         -2   -1    0    0    0  501 -0.00000000000E+00  0.00000000000E+00  0.48093796324E+02  0.48093796392E+02  0.25500000000E-02 0. -1.
          2   -1    0    0  501    0  0.00000000000E+00 -0.00000000000E+00 -0.13737683197E+04  0.13737683197E+04  0.25500000000E-02 0.  1.
    5000001    1    1    2    0    0 -0.12105153089E+02  0.16887429569E+03 -0.59852513333E+03  0.65096958278E+03  0.19200000000E+03 0.  0.
   -5000001    1    1    2    0    0  0.12105153089E+02 -0.16887429569E+03 -0.72714939006E+03  0.77089253333E+03  0.19200000000E+03 0.  0.
<mgrwt>
<rscale>  0 0.51408067E+03</rscale>
<asrwt>0</asrwt>
<pdfrwt beam="1">  1        2 0.19625259E+00 0.51408067E+03</pdfrwt>
<pdfrwt beam="2">  1       -2 0.68705432E-02 0.51408067E+03</pdfrwt>
<totfact> 0.21670733E+03</totfact>
</mgrwt>
</event>
<event>
 4    1  0.1896644E-005  0.5777441E+03  0.7818608E-02  0.9952687E-01
         -2   -1    0    0    0  501 -0.00000000000E+00  0.00000000000E+00  0.25221261798E+02  0.25221261926E+02  0.25500000000E-02 0. -1.
          2   -1    0    0  501    0  0.00000000000E+00 -0.00000000000E+00 -0.33085995147E+04  0.33085995147E+04  0.25500000000E-02 0.  1.
    5000001    1    1    2    0    0 -0.10139562908E+03  0.18561821933E+03 -0.18897401496E+04  0.19112082644E+04  0.19200000000E+03 0.  0.
   -5000001    1    1    2    0    0  0.10139562908E+03 -0.18561821933E+03 -0.13936381034E+04  0.14226125123E+04  0.19200000000E+03 0.  0.
<mgrwt>
<rscale>  0 0.57774408E+03</rscale>
<asrwt>0</asrwt>
<pdfrwt beam="1">  1        2 0.47265679E+00 0.57774408E+03</pdfrwt>
<pdfrwt beam="2">  1       -2 0.36030395E-02 0.57774408E+03</pdfrwt>
<totfact> 0.57837128E+02</totfact>
</mgrwt>
</event>
<event>
 4    1  0.1896644E-005  0.6822531E+03  0.7818608E-02  0.9748072E-01
          2   -1    0    0  501    0  0.00000000000E+00  0.00000000000E+00  0.31703243164E+03  0.31703243165E+03  0.25500000000E-02 0.  1.
         -2   -1    0    0    0  501 -0.00000000000E+00 -0.00000000000E+00 -0.36705183809E+03  0.36705183810E+03  0.25500000000E-02 0. -1.
    5000001    1    1    2    0    0 -0.90413356177E+02  0.18838337607E+03 -0.21483359859E+03  0.35592182631E+03  0.19200000000E+03 0.  0.
   -5000001    1    1    2    0    0  0.90413356177E+02 -0.18838337607E+03  0.16481419214E+03  0.32816244344E+03  0.19200000000E+03 0.  0.
<mgrwt>
<rscale>  0 0.68225314E+03</rscale>
<asrwt>0</asrwt>
<pdfrwt beam="1">  1        2 0.45290347E-01 0.68225314E+03</pdfrwt>
<pdfrwt beam="2">  1       -2 0.52435977E-01 0.68225314E+03</pdfrwt>
<totfact> 0.38813762E+02</totfact>
</mgrwt>
</event>
<event>
 4    1  0.1896644E-005  0.4848556E+03  0.7818608E-02  0.1017809E+00
          2   -1    0    0  501    0  0.00000000000E+00  0.00000000000E+00  0.53529379196E+03  0.53529379197E+03  0.25500000000E-02 0.  1.
         -2   -1    0    0    0  501 -0.00000000000E+00 -0.00000000000E+00 -0.10979247118E+03  0.10979247121E+03  0.25500000000E-02 0. -1.
    5000001    1    1    2    0    0  0.12286230315E+03  0.45816508185E+02  0.30408853937E+03  0.38278993943E+03  0.19200000000E+03 0.  0.
   -5000001    1    1    2    0    0 -0.12286230315E+03 -0.45816508185E+02  0.12141278142E+03  0.26229632374E+03  0.19200000000E+03 0.  0.
<mgrwt>
<rscale>  0 0.48485556E+03</rscale>
<asrwt>0</asrwt>
<pdfrwt beam="1">  1        2 0.76470539E-01 0.48485556E+03</pdfrwt>
<pdfrwt beam="2">  1       -2 0.15684639E-01 0.48485556E+03</pdfrwt>
<totfact> 0.20050822E+03</totfact>
</mgrwt>
</event>
<event>
 4    1  0.1896644E-005  0.5250909E+03  0.7818608E-02  0.1007430E+00
         -2   -1    0    0    0  501 -0.00000000000E+00  0.00000000000E+00  0.25987543310E+03  0.25987543311E+03  0.25500000000E-02 0. -1.
          2   -1    0    0  501    0  0.00000000000E+00 -0.00000000000E+00 -0.26524294493E+03  0.26524294494E+03  0.25500000000E-02 0.  1.
    5000001    1    1    2    0    0 -0.10673775764E+03 -0.89634073450E+02  0.10974502071E+03  0.26140999522E+03  0.19200000000E+03 0.  0.
   -5000001    1    1    2    0    0  0.10673775764E+03  0.89634073450E+02 -0.11511253254E+03  0.26370838283E+03  0.19200000000E+03 0.  0.
<mgrwt>
<rscale>  0 0.52509095E+03</rscale>
<asrwt>0</asrwt>
<pdfrwt beam="1">  1        2 0.37891849E-01 0.52509095E+03</pdfrwt>
<pdfrwt beam="2">  1       -2 0.37125062E-01 0.52509095E+03</pdfrwt>
<totfact> 0.93801940E+02</totfact>
</mgrwt>
</event>
<event>
 4    1  0.1896644E-005  0.1304661E+04  0.7818608E-02  0.9025877E-01
         -2   -1    0    0    0  501 -0.00000000000E+00  0.00000000000E+00  0.30746041885E+03  0.30746041886E+03  0.25500000000E-02 0. -1.
          2   -1    0    0  501    0  0.00000000000E+00 -0.00000000000E+00 -0.13840323819E+04  0.13840323819E+04  0.25500000000E-02 0.  1.
    5000001    1    1    2    0    0  0.45657590964E+03 -0.20602719968E+03 -0.10194994644E+04  0.11520208011E+04  0.19200000000E+03 0.  0.
   -5000001    1    1    2    0    0 -0.45657590964E+03  0.20602719968E+03 -0.57072498600E+02  0.53947199961E+03  0.19200000000E+03 0.  0.
<mgrwt>
<rscale>  0 0.13046611E+04</rscale>
<asrwt>0</asrwt>
<pdfrwt beam="1">  1        2 0.19771891E+00 0.13046611E+04</pdfrwt>
<pdfrwt beam="2">  1       -2 0.43922918E-01 0.13046611E+04</pdfrwt>
<totfact> 0.81305077E+01</totfact>
</mgrwt>
</event>
<event>
 4    1  0.1896644E-005  0.1070596E+04  0.7818608E-02  0.9234335E-01
          2   -1    0    0  501    0  0.00000000000E+00  0.00000000000E+00  0.29097111603E+04  0.29097111603E+04  0.25500000000E-02 0. -1.
         -2   -1    0    0    0  501 -0.00000000000E+00 -0.00000000000E+00 -0.98478479867E+02  0.98478479900E+02  0.25500000000E-02 0.  1.
    5000001    1    1    2    0    0  0.31601572071E+03  0.26080487544E+03  0.60201159970E+03  0.75310496278E+03  0.19200000000E+03 0.  0.
   -5000001    1    1    2    0    0 -0.31601572071E+03 -0.26080487544E+03  0.22092210807E+04  0.22550846774E+04  0.19200000000E+03 0.  0.
<mgrwt>
<rscale>  0 0.10705960E+04</rscale>
<asrwt>0</asrwt>
<pdfrwt beam="1">  1        2 0.41567296E+00 0.10705960E+04</pdfrwt>
<pdfrwt beam="2">  1       -2 0.14068356E-01 0.10705960E+04</pdfrwt>
<totfact> 0.10459858E+02</totfact>
</mgrwt>
</event>
<event>
 4    1  0.1896644E-005  0.1158194E+04  0.7818608E-02  0.9150257E-01
          2   -1    0    0  501    0  0.00000000000E+00  0.00000000000E+00  0.28447913759E+03  0.28447913760E+03  0.25500000000E-02 0. -1.
         -2   -1    0    0    0  501 -0.00000000000E+00 -0.00000000000E+00 -0.11788335009E+04  0.11788335009E+04  0.25500000000E-02 0.  1.
    5000001    1    1    2    0    0  0.35518898683E+03  0.40461653343E+03 -0.32990283061E+03  0.65998002480E+03  0.19200000000E+03 0.  0.
   -5000001    1    1    2    0    0 -0.35518898683E+03 -0.40461653343E+03 -0.56445153270E+03  0.80333261371E+03  0.19200000000E+03 0.  0.
<mgrwt>
<rscale>  0 0.11581943E+04</rscale>
<asrwt>0</asrwt>
<pdfrwt beam="1">  1        2 0.40639877E-01 0.11581943E+04</pdfrwt>
<pdfrwt beam="2">  1       -2 0.16840478E+00 0.11581943E+04</pdfrwt>
<totfact> 0.27391471E+01</totfact>
</mgrwt>
</event>
<event>
 4    1  0.1896644E-005  0.4347998E+03  0.7818608E-02  0.1032354E+00
          2   -1    0    0  501    0  0.00000000000E+00  0.00000000000E+00  0.65793831536E+03  0.65793831536E+03  0.25500000000E-02 0.  1.
         -2   -1    0    0    0  501 -0.00000000000E+00 -0.00000000000E+00 -0.71834570996E+02  0.71834571042E+02  0.25500000000E-02 0. -1.
    5000001    1    1    2    0    0 -0.90767552911E+02 -0.26739303813E+02  0.22925065751E+03  0.31364566472E+03  0.19200000000E+03 0.  0.
   -5000001    1    1    2    0    0  0.90767552911E+02  0.26739303813E+02  0.35685308685E+03  0.41612722168E+03  0.19200000000E+03 0.  0.
<mgrwt>
<rscale>  0 0.43479980E+03</rscale>
<asrwt>0</asrwt>
<pdfrwt beam="1">  1        2 0.93991196E-01 0.43479980E+03</pdfrwt>
<pdfrwt beam="2">  1       -2 0.10262081E-01 0.43479980E+03</pdfrwt>
<totfact> 0.31671157E+03</totfact>
</mgrwt>
</event>
<event>
 4    1  0.1896644E-005  0.6753325E+03  0.7818608E-02  0.9760372E-01
         -2   -1    0    0    0  501 -0.00000000000E+00  0.00000000000E+00  0.10161608325E+04  0.10161608325E+04  0.25500000000E-02 0. -1.
          2   -1    0    0  501    0  0.00000000000E+00 -0.00000000000E+00 -0.11220517873E+03  0.11220517876E+03  0.25500000000E-02 0.  1.
    5000001    1    1    2    0    0  0.11469324116E+03 -0.25168872034E+03  0.40928962395E+03  0.52998466750E+03  0.19200000000E+03 0.  0.
   -5000001    1    1    2    0    0 -0.11469324116E+03  0.25168872034E+03  0.49466602986E+03  0.59838134380E+03  0.19200000000E+03 0.  0.
<mgrwt>
<rscale>  0 0.67533253E+03</rscale>
<asrwt>0</asrwt>
<pdfrwt beam="1">  1        2 0.16029312E-01 0.67533253E+03</pdfrwt>
<pdfrwt beam="2">  1       -2 0.14516583E+00 0.67533253E+03</pdfrwt>
<totfact> 0.12252718E+02</totfact>
</mgrwt>
</event>
<event>
 4    1  0.1896644E-005  0.5898395E+03  0.7818608E-02  0.9926713E-01
         -2   -1    0    0    0  501 -0.00000000000E+00  0.00000000000E+00  0.47035833775E+03  0.47035833776E+03  0.25500000000E-02 0. -1.
          2   -1    0    0  501    0  0.00000000000E+00 -0.00000000000E+00 -0.18491788941E+03  0.18491788942E+03  0.25500000000E-02 0.  1.
    5000001    1    1    2    0    0 -0.16228263949E+03 -0.11958526629E+03  0.25087225496E+03  0.37474948873E+03  0.19200000000E+03 0.  0.
   -5000001    1    1    2    0    0  0.16228263949E+03  0.11958526629E+03  0.34568193386E+02  0.28052673845E+03  0.19200000000E+03 0.  0.
<mgrwt>
<rscale>  0 0.58983954E+03</rscale>
<asrwt>0</asrwt>
<pdfrwt beam="1">  1        2 0.26416841E-01 0.58983954E+03</pdfrwt>
<pdfrwt beam="2">  1       -2 0.67194048E-01 0.58983954E+03</pdfrwt>
<totfact> 0.42186777E+02</totfact>
</mgrwt>
</event>
<event>
 4    1  0.1896644E-005  0.4745594E+03  0.7818608E-02  0.1020641E+00
          2   -1    0    0  501    0  0.00000000000E+00  0.00000000000E+00  0.31888310858E+04  0.31888310858E+04  0.25500000000E-02 0.  1.
         -2   -1    0    0    0  501 -0.00000000000E+00 -0.00000000000E+00 -0.17655889800E+02  0.17655889984E+02  0.25500000000E-02 0. -1.
    5000001    1    1    2    0    0 -0.25277103604E+02 -0.85538375433E+02  0.86157538214E+03  0.88720453377E+03  0.19200000000E+03 0.  0.
   -5000001    1    1    2    0    0  0.25277103604E+02  0.85538375433E+02  0.23095998138E+04  0.23192824420E+04  0.19200000000E+03 0.  0.
<mgrwt>
<rscale>  0 0.47455938E+03</rscale>
<asrwt>0</asrwt>
<pdfrwt beam="1">  1        2 0.45554768E+00 0.47455938E+03</pdfrwt>
<pdfrwt beam="2">  1       -2 0.25222679E-02 0.47455938E+03</pdfrwt>
<totfact> 0.11729696E+03</totfact>
</mgrwt>
</event>
<event>
 4    1  0.1896644E-005  0.5936729E+03  0.7818608E-02  0.9918620E-01
          2   -1    0    0  501    0  0.00000000000E+00  0.00000000000E+00  0.20906127836E+04  0.20906127836E+04  0.25500000000E-02 0.  1.
         -2   -1    0    0    0  501 -0.00000000000E+00 -0.00000000000E+00 -0.42146438292E+02  0.42146438369E+02  0.25500000000E-02 0. -1.
    5000001    1    1    2    0    0  0.16911463070E+02  0.22446392200E+03  0.93787653505E+03  0.98343604004E+03  0.19200000000E+03 0.  0.
   -5000001    1    1    2    0    0 -0.16911463070E+02 -0.22446392200E+03  0.11105898103E+04  0.11493231819E+04  0.19200000000E+03 0.  0.
<mgrwt>
<rscale>  0 0.59367292E+03</rscale>
<asrwt>0</asrwt>
<pdfrwt beam="1">  1        2 0.29865904E+00 0.59367292E+03</pdfrwt>
<pdfrwt beam="2">  1       -2 0.60209184E-02 0.59367292E+03</pdfrwt>
<totfact> 0.11464520E+03</totfact>
</mgrwt>
</event>
<event>
 4    1  0.1896644E-005  0.6357839E+03  0.7818608E-02  0.9833827E-01
         -2   -1    0    0    0  501 -0.00000000000E+00  0.00000000000E+00  0.25290177538E+03  0.25290177539E+03  0.25500000000E-02 0. -1.
          2   -1    0    0  501    0  0.00000000000E+00 -0.00000000000E+00 -0.39958311646E+03  0.39958311647E+03  0.25500000000E-02 0.  1.
    5000001    1    1    2    0    0  0.79255833336E+02 -0.24062853247E+03 -0.76188785405E+02  0.32688271410E+03  0.19200000000E+03 0.  0.
   -5000001    1    1    2    0    0 -0.79255833336E+02  0.24062853247E+03 -0.70492555674E+02  0.32560217776E+03  0.19200000000E+03 0.  0.
<mgrwt>
<rscale>  0 0.63578386E+03</rscale>
<asrwt>0</asrwt>
<pdfrwt beam="1">  1        2 0.57083302E-01 0.63578386E+03</pdfrwt>
<pdfrwt beam="2">  1       -2 0.36128825E-01 0.63578386E+03</pdfrwt>
<totfact> 0.62754962E+02</totfact>
</mgrwt>
</event>
<event>
 4    1  0.1896644E-005  0.4921690E+03  0.7818608E-02  0.1015843E+00
         -2   -1    0    0    0  501 -0.00000000000E+00  0.00000000000E+00  0.24143723033E+02  0.24143723168E+02  0.25500000000E-02 0. -1.
          2   -1    0    0  501    0  0.00000000000E+00 -0.00000000000E+00 -0.25082118999E+04  0.25082118999E+04  0.25500000000E-02 0.  1.
    5000001    1    1    2    0    0  0.11871886621E+03 -0.94289426396E+02 -0.13790293504E+04  0.14005608214E+04  0.19200000000E+03 0.  0.
   -5000001    1    1    2    0    0 -0.11871886621E+03  0.94289426396E+02 -0.11050388264E+04  0.11317948017E+04  0.19200000000E+03 0.  0.
<mgrwt>
<rscale>  0 0.49216897E+03</rscale>
<asrwt>0</asrwt>
<pdfrwt beam="1">  1        2 0.35831582E+00 0.49216897E+03</pdfrwt>
<pdfrwt beam="2">  1       -2 0.34491049E-02 0.49216897E+03</pdfrwt>
<totfact> 0.16758472E+03</totfact>
</mgrwt>
</event>
<event>
 4    1  0.1896644E-005  0.5319515E+03  0.7818608E-02  0.1005760E+00
          2   -1    0    0  501    0  0.00000000000E+00  0.00000000000E+00  0.13425715342E+03  0.13425715344E+03  0.25500000000E-02 0.  1.
         -2   -1    0    0    0  501 -0.00000000000E+00 -0.00000000000E+00 -0.52692244164E+03  0.52692244164E+03  0.25500000000E-02 0. -1.
    5000001    1    1    2    0    0 -0.11222331551E+03 -0.13022675212E+03 -0.27808344641E+03  0.37914045244E+03  0.19200000000E+03 0.  0.
   -5000001    1    1    2    0    0  0.11222331551E+03  0.13022675212E+03 -0.11458184181E+03  0.28203914265E+03  0.19200000000E+03 0.  0.
<mgrwt>
<rscale>  0 0.53195153E+03</rscale>
<asrwt>0</asrwt>
<pdfrwt beam="1">  1        2 0.19179594E-01 0.53195153E+03</pdfrwt>
<pdfrwt beam="2">  1       -2 0.75274633E-01 0.53195153E+03</pdfrwt>
<totfact> 0.47709783E+02</totfact>
</mgrwt>
</event>
<event>
 4    1  0.1896644E-005  0.6440933E+03  0.7818608E-02  0.9817926E-01
          2   -1    0    0  501    0  0.00000000000E+00  0.00000000000E+00  0.26796385690E+03  0.26796385691E+03  0.25500000000E-02 0.  1.
         -2   -1    0    0    0  501 -0.00000000000E+00 -0.00000000000E+00 -0.38704488220E+03  0.38704488221E+03  0.25500000000E-02 0. -1.
    5000001    1    1    2    0    0  0.75648049455E+01 -0.22196236591E+03 -0.19416801734E+03  0.35197973963E+03  0.19200000000E+03 0.  0.
   -5000001    1    1    2    0    0 -0.75648049455E+01  0.22196236591E+03  0.75086992035E+02  0.30302899949E+03  0.19200000000E+03 0.  0.
<mgrwt>
<rscale>  0 0.64409328E+03</rscale>
<asrwt>0</asrwt>
<pdfrwt beam="1">  1        2 0.38280551E-01 0.64409328E+03</pdfrwt>
<pdfrwt beam="2">  1       -2 0.55292126E-01 0.64409328E+03</pdfrwt>
<totfact> 0.41957083E+02</totfact>
</mgrwt>
</event>
<event>
 4    1  0.1896644E-005  0.5615622E+03  0.7818608E-02  0.9988526E-01
          2   -1    0    0  501    0  0.00000000000E+00  0.00000000000E+00  0.97465483281E+03  0.97465483281E+03  0.25500000000E-02 0.  1.
         -2   -1    0    0    0  501 -0.00000000000E+00 -0.00000000000E+00 -0.80888144533E+02  0.80888144573E+02  0.25500000000E-02 0. -1.
    5000001    1    1    2    0    0 -0.15435809274E+03  0.60383811595E+02  0.67323463043E+03  0.71943136790E+03  0.19200000000E+03 0.  0.
   -5000001    1    1    2    0    0  0.15435809274E+03 -0.60383811595E+02  0.22053205784E+03  0.33611160949E+03  0.19200000000E+03 0.  0.
<mgrwt>
<rscale>  0 0.56156218E+03</rscale>
<asrwt>0</asrwt>
<pdfrwt beam="1">  1        2 0.13923640E+00 0.56156218E+03</pdfrwt>
<pdfrwt beam="2">  1       -2 0.11555449E-01 0.56156218E+03</pdfrwt>
<totfact> 0.15834434E+03</totfact>
</mgrwt>
</event>
<event>
 4    1  0.1896644E-005  0.4617901E+03  0.7818608E-02  0.1024263E+00
          2   -1    0    0  501    0  0.00000000000E+00  0.00000000000E+00  0.50441015247E+03  0.50441015248E+03  0.25500000000E-02 0.  1.
         -2   -1    0    0    0  501 -0.00000000000E+00 -0.00000000000E+00 -0.10569278996E+03  0.10569278999E+03  0.25500000000E-02 0. -1.
    5000001    1    1    2    0    0 -0.99684674810E+02 -0.16628858739E+02  0.30368057752E+03  0.37322841063E+03  0.19200000000E+03 0.  0.
   -5000001    1    1    2    0    0  0.99684674810E+02  0.16628858739E+02  0.95036784987E+02  0.23687453184E+03  0.19200000000E+03 0.  0.
<mgrwt>
<rscale>  0 0.46179007E+03</rscale>
<asrwt>0</asrwt>
<pdfrwt beam="1">  1        2 0.72058594E-01 0.46179007E+03</pdfrwt>
<pdfrwt beam="2">  1       -2 0.15098970E-01 0.46179007E+03</pdfrwt>
<totfact> 0.22857674E+03</totfact>
</mgrwt>
</event>
<event>
 4    1  0.1896644E-005  0.5185606E+03  0.7818608E-02  0.1009045E+00
          2   -1    0    0  501    0  0.00000000000E+00  0.00000000000E+00  0.63264612864E+03  0.63264612864E+03  0.25500000000E-02 0.  1.
         -2   -1    0    0    0  501 -0.00000000000E+00 -0.00000000000E+00 -0.10626205137E+03  0.10626205140E+03  0.25500000000E-02 0. -1.
    5000001    1    1    2    0    0  0.51093688617E+01  0.14156406835E+03  0.40777618388E+03  0.47245307412E+03  0.19200000000E+03 0.  0.
   -5000001    1    1    2    0    0 -0.51093688617E+01 -0.14156406835E+03  0.11860789338E+03  0.26645510592E+03  0.19200000000E+03 0.  0.
<mgrwt>
<rscale>  0 0.51856061E+03</rscale>
<asrwt>0</asrwt>
<pdfrwt beam="1">  1        2 0.90378016E-01 0.51856061E+03</pdfrwt>
<pdfrwt beam="2">  1       -2 0.15180293E-01 0.51856061E+03</pdfrwt>
<totfact> 0.17447833E+03</totfact>
</mgrwt>
</event>
<event>
 4    1  0.1896644E-005  0.8801924E+03  0.7818608E-02  0.9450686E-01
          2   -1    0    0  501    0  0.00000000000E+00  0.00000000000E+00  0.33887211044E+03  0.33887211045E+03  0.25500000000E-02 0.  1.
         -2   -1    0    0    0  501 -0.00000000000E+00 -0.00000000000E+00 -0.57155685582E+03  0.57155685583E+03  0.25500000000E-02 0. -1.
    5000001    1    1    2    0    0 -0.19426956551E+03 -0.33268353316E+03 -0.21115180004E+03  0.47944559647E+03  0.19200000000E+03 0.  0.
   -5000001    1    1    2    0    0  0.19426956551E+03  0.33268353316E+03 -0.21532945340E+02  0.43098336981E+03  0.19200000000E+03 0.  0.
<mgrwt>
<rscale>  0 0.88019243E+03</rscale>
<asrwt>0</asrwt>
<pdfrwt beam="1">  1        2 0.48410302E-01 0.88019243E+03</pdfrwt>
<pdfrwt beam="2">  1       -2 0.81650979E-01 0.88019243E+03</pdfrwt>
<totfact> 0.13807212E+02</totfact>
</mgrwt>
</event>
<event>
 4    1  0.1896644E-005  0.8660756E+03  0.7818608E-02  0.9469011E-01
          2   -1    0    0  501    0  0.00000000000E+00  0.00000000000E+00  0.26054723243E+03  0.26054723244E+03  0.25500000000E-02 0.  1.
         -2   -1    0    0    0  501 -0.00000000000E+00 -0.00000000000E+00 -0.71972267877E+03  0.71972267877E+03  0.25500000000E-02 0. -1.
    5000001    1    1    2    0    0  0.23964667472E+03 -0.30532143962E+03 -0.22680560265E+03  0.48883176205E+03  0.19200000000E+03 0.  0.
   -5000001    1    1    2    0    0 -0.23964667472E+03  0.30532143962E+03 -0.23236984369E+03  0.49143814916E+03  0.19200000000E+03 0.  0.
<mgrwt>
<rscale>  0 0.86607564E+03</rscale>
<asrwt>0</asrwt>
<pdfrwt beam="1">  1        2 0.37221034E-01 0.86607564E+03</pdfrwt>
<pdfrwt beam="2">  1       -2 0.10281752E+00 0.86607564E+03</pdfrwt>
<totfact> 0.10844287E+02</totfact>
</mgrwt>
</event>
<event>
 4    1  0.1896644E-005  0.8413135E+03  0.7818608E-02  0.9502070E-01
          2   -1    0    0  501    0  0.00000000000E+00  0.00000000000E+00  0.18468044681E+03  0.18468044683E+03  0.25500000000E-02 0.  1.
         -2   -1    0    0    0  501 -0.00000000000E+00 -0.00000000000E+00 -0.95815287838E+03  0.95815287838E+03  0.25500000000E-02 0. -1.
    5000001    1    1    2    0    0 -0.83456212020E+02  0.25222285237E+03 -0.74486453938E+03  0.81379880106E+03  0.19200000000E+03 0.  0.
   -5000001    1    1    2    0    0  0.83456212020E+02 -0.25222285237E+03 -0.28607892185E+02  0.32903452414E+03  0.19200000000E+03 0.  0.
<mgrwt>
<rscale>  0 0.84131350E+03</rscale>
<asrwt>0</asrwt>
<pdfrwt beam="1">  1        2 0.26382922E-01 0.84131350E+03</pdfrwt>
<pdfrwt beam="2">  1       -2 0.13687898E+00 0.84131350E+03</pdfrwt>
<totfact> 0.78925574E+01</totfact>
</mgrwt>
</event>
<event>
 4    1  0.1896644E-005  0.5665805E+03  0.7818608E-02  0.9977274E-01
         -2   -1    0    0    0  501 -0.00000000000E+00  0.00000000000E+00  0.21863243603E+02  0.21863243752E+02  0.25500000000E-02 0. -1.
          2   -1    0    0  501    0  0.00000000000E+00 -0.00000000000E+00 -0.36706985494E+04  0.36706985494E+04  0.25500000000E-02 0.  1.
    5000001    1    1    2    0    0 -0.19865380526E+03  0.17864871649E+02 -0.14330071281E+04  0.14595053673E+04  0.19200000000E+03 0.  0.
   -5000001    1    1    2    0    0  0.19865380526E+03 -0.17864871649E+02 -0.22158281776E+04  0.22330564258E+04  0.19200000000E+03 0.  0.
<mgrwt>
<rscale>  0 0.56658054E+03</rscale>
<asrwt>0</asrwt>
<pdfrwt beam="1">  1        2 0.52438511E+00 0.56658054E+03</pdfrwt>
<pdfrwt beam="2">  1       -2 0.31233229E-02 0.56658054E+03</pdfrwt>
<totfact> 0.43948138E+02</totfact>
</mgrwt>
</event>
<event>
 4    1  0.1896644E-005  0.6375769E+03  0.7818608E-02  0.9830373E-01
         -2   -1    0    0    0  501 -0.00000000000E+00  0.00000000000E+00  0.74897572153E+03  0.74897572154E+03  0.25500000000E-02 0. -1.
          2   -1    0    0  501    0  0.00000000000E+00 -0.00000000000E+00 -0.13568676314E+03  0.13568676316E+03  0.25500000000E-02 0.  1.
    5000001    1    1    2    0    0 -0.18875733748E+03 -0.14254958000E+03  0.17639034498E+03  0.35203305102E+03  0.19200000000E+03 0.  0.
   -5000001    1    1    2    0    0  0.18875733748E+03  0.14254958000E+03  0.43689861342E+03  0.53262943368E+03  0.19200000000E+03 0.  0.
<mgrwt>
<rscale>  0 0.63757695E+03</rscale>
<asrwt>0</asrwt>
<pdfrwt beam="1">  1        2 0.19383823E-01 0.63757695E+03</pdfrwt>
<pdfrwt beam="2">  1       -2 0.10699654E+00 0.63757695E+03</pdfrwt>
<totfact> 0.20953869E+02</totfact>
</mgrwt>
</event>
<event>
 4    1  0.1896644E-005  0.7328201E+03  0.7818608E-02  0.9662695E-01
          2   -1    0    0  501    0  0.00000000000E+00  0.00000000000E+00  0.50622925881E+03  0.50622925881E+03  0.25500000000E-02 0.  1.
         -2   -1    0    0    0  501 -0.00000000000E+00 -0.00000000000E+00 -0.26520854438E+03  0.26520854439E+03  0.25500000000E-02 0. -1.
    5000001    1    1    2    0    0 -0.24836478265E+03 -0.11731861143E+03  0.27645035112E+03  0.43443931507E+03  0.19200000000E+03 0.  0.
   -5000001    1    1    2    0    0  0.24836478265E+03  0.11731861143E+03 -0.35429636693E+02  0.33699848813E+03  0.19200000000E+03 0.  0.
<mgrwt>
<rscale>  0 0.73282010E+03</rscale>
<asrwt>0</asrwt>
<pdfrwt beam="1">  1        2 0.72318465E-01 0.73282010E+03</pdfrwt>
<pdfrwt beam="2">  1       -2 0.37886935E-01 0.73282010E+03</pdfrwt>
<totfact> 0.43772914E+02</totfact>
</mgrwt>
</event>
<event>
 4    1  0.1896644E-005  0.6797418E+03  0.7818608E-02  0.9752518E-01
         -2   -1    0    0    0  501 -0.00000000000E+00  0.00000000000E+00  0.33790083022E+02  0.33790083118E+02  0.25500000000E-02 0. -1.
          2   -1    0    0  501    0  0.00000000000E+00 -0.00000000000E+00 -0.34185247431E+04  0.34185247431E+04  0.25500000000E-02 0.  1.
    5000001    1    1    2    0    0  0.12669605244E+03  0.24924046120E+03 -0.18031212093E+04  0.18347432498E+04  0.19200000000E+03 0.  0.
   -5000001    1    1    2    0    0 -0.12669605244E+03 -0.24924046120E+03 -0.15816134508E+04  0.16175715765E+04  0.19200000000E+03 0.  0.
<mgrwt>
<rscale>  0 0.67974182E+03</rscale>
<asrwt>0</asrwt>
<pdfrwt beam="1">  1        2 0.48836046E+00 0.67974182E+03</pdfrwt>
<pdfrwt beam="2">  1       -2 0.48271569E-02 0.67974182E+03</pdfrwt>
<totfact> 0.31474367E+02</totfact>
</mgrwt>
</event>
<event>
 4    1  0.1896644E-005  0.8078700E+03  0.7818608E-02  0.9548695E-01
         -2   -1    0    0    0  501 -0.00000000000E+00  0.00000000000E+00  0.90145880988E+02  0.90145881024E+02  0.25500000000E-02 0. -1.
          2   -1    0    0  501    0  0.00000000000E+00 -0.00000000000E+00 -0.18099938271E+04  0.18099938271E+04  0.25500000000E-02 0.  1.
    5000001    1    1    2    0    0  0.85695253992E+02  0.27706987933E+03 -0.37682179252E+03  0.51280606267E+03  0.19200000000E+03 0.  0.
   -5000001    1    1    2    0    0 -0.85695253992E+02 -0.27706987933E+03 -0.13430261536E+04  0.13873336455E+04  0.19200000000E+03 0.  0.
<mgrwt>
<rscale>  0 0.80787001E+03</rscale>
<asrwt>0</asrwt>
<pdfrwt beam="1">  1        2 0.25857052E+00 0.80787001E+03</pdfrwt>
<pdfrwt beam="2">  1       -2 0.12877984E-01 0.80787001E+03</pdfrwt>
<totfact> 0.46075466E+02</totfact>
</mgrwt>
</event>
<event>
 4    1  0.1896644E-005  0.5593875E+03  0.7818608E-02  0.9993442E-01
         -2   -1    0    0    0  501 -0.00000000000E+00  0.00000000000E+00  0.66533183779E+02  0.66533183828E+02  0.25500000000E-02 0. -1.
          2   -1    0    0  501    0  0.00000000000E+00 -0.00000000000E+00 -0.11757830509E+04  0.11757830509E+04  0.25500000000E-02 0.  1.
    5000001    1    1    2    0    0 -0.14821091139E+03  0.13283843957E+03 -0.46166528644E+03  0.53815551840E+03  0.19200000000E+03 0.  0.
   -5000001    1    1    2    0    0  0.14821091139E+03 -0.13283843957E+03 -0.64758458065E+03  0.70416071630E+03  0.19200000000E+03 0.  0.
<mgrwt>
<rscale>  0 0.55938749E+03</rscale>
<asrwt>0</asrwt>
<pdfrwt beam="1">  1        2 0.16796899E+00 0.55938749E+03</pdfrwt>
<pdfrwt beam="2">  1       -2 0.95047413E-02 0.55938749E+03</pdfrwt>
<totfact> 0.16568654E+03</totfact>
</mgrwt>
</event>
<event>
 4    1  0.1896644E-005  0.5733019E+03  0.7818608E-02  0.9962399E-01
          2   -1    0    0  501    0  0.00000000000E+00  0.00000000000E+00  0.16284564729E+04  0.16284564729E+04  0.25500000000E-02 0.  1.
         -2   -1    0    0    0  501 -0.00000000000E+00 -0.00000000000E+00 -0.50458064356E+02  0.50458064421E+02  0.25500000000E-02 0. -1.
    5000001    1    1    2    0    0  0.17117124842E+03  0.53364914147E+02  0.45308415806E+03  0.52373339079E+03  0.19200000000E+03 0.  0.
   -5000001    1    1    2    0    0 -0.17117124842E+03 -0.53364914147E+02  0.11249142504E+04  0.11551811465E+04  0.19200000000E+03 0.  0.
<mgrwt>
<rscale>  0 0.57330188E+03</rscale>
<asrwt>0</asrwt>
<pdfrwt beam="1">  1        2 0.23263666E+00 0.57330188E+03</pdfrwt>
<pdfrwt beam="2">  1       -2 0.72082942E-02 0.57330188E+03</pdfrwt>
<totfact> 0.14786320E+03</totfact>
</mgrwt>
</event>
<event>
 4    1  0.1896644E-005  0.7528792E+03  0.7818608E-02  0.9630844E-01
          2   -1    0    0  501    0  0.00000000000E+00  0.00000000000E+00  0.37264677035E+04  0.37264677035E+04  0.25500000000E-02 0.  1.
         -2   -1    0    0    0  501 -0.00000000000E+00 -0.00000000000E+00 -0.38027099742E+02  0.38027099827E+02  0.25500000000E-02 0. -1.
    5000001    1    1    2    0    0  0.29375869422E+03  0.96235174365E+02  0.23260882402E+04  0.23543801478E+04  0.19200000000E+03 0.  0.
   -5000001    1    1    2    0    0 -0.29375869422E+03 -0.96235174365E+02  0.13623523636E+04  0.14101146556E+04  0.19200000000E+03 0.  0.
<mgrwt>
<rscale>  0 0.75287916E+03</rscale>
<asrwt>0</asrwt>
<pdfrwt beam="1">  1        2 0.53235238E+00 0.75287916E+03</pdfrwt>
<pdfrwt beam="2">  1       -2 0.54324444E-02 0.75287916E+03</pdfrwt>
<totfact> 0.16887865E+02</totfact>
</mgrwt>
</event>
<event>
 4    1  0.1896644E-005  0.4397798E+03  0.7818608E-02  0.1030814E+00
          2   -1    0    0  501    0  0.00000000000E+00  0.00000000000E+00  0.75052676397E+03  0.75052676397E+03  0.25500000000E-02 0.  1.
         -2   -1    0    0    0  501 -0.00000000000E+00 -0.00000000000E+00 -0.64423508376E+02  0.64423508427E+02  0.25500000000E-02 0. -1.
    5000001    1    1    2    0    0 -0.33455991142E+02 -0.93322201501E+02  0.26756861666E+03  0.34392630208E+03  0.19200000000E+03 0.  0.
   -5000001    1    1    2    0    0  0.33455991142E+02  0.93322201501E+02  0.41853463893E+03  0.47102397032E+03  0.19200000000E+03 0.  0.
<mgrwt>
<rscale>  0 0.43977980E+03</rscale>
<asrwt>0</asrwt>
<pdfrwt beam="1">  1        2 0.10721811E+00 0.43977980E+03</pdfrwt>
<pdfrwt beam="2">  1       -2 0.92033583E-02 0.43977980E+03</pdfrwt>
<totfact> 0.32162686E+03</totfact>
</mgrwt>
</event>
<event>
 4    1  0.1896644E-005  0.5313176E+03  0.7818608E-02  0.1005913E+00
          2   -1    0    0  501    0  0.00000000000E+00  0.00000000000E+00  0.63221044380E+03  0.63221044380E+03  0.25500000000E-02 0.  1.
         -2   -1    0    0    0  501 -0.00000000000E+00 -0.00000000000E+00 -0.11163150196E+03  0.11163150199E+03  0.25500000000E-02 0. -1.
    5000001    1    1    2    0    0  0.16423147525E+03 -0.24658993176E+02  0.15067283866E+03  0.29520560245E+03  0.19200000000E+03 0.  0.
   -5000001    1    1    2    0    0 -0.16423147525E+03  0.24658993176E+02  0.36990610317E+03  0.44863634335E+03  0.19200000000E+03 0.  0.
<mgrwt>
<rscale>  0 0.53131761E+03</rscale>
<asrwt>0</asrwt>
<pdfrwt beam="1">  1        2 0.90315775E-01 0.53131761E+03</pdfrwt>
<pdfrwt beam="2">  1       -2 0.15947358E-01 0.53131761E+03</pdfrwt>
<totfact> 0.16070185E+03</totfact>
</mgrwt>
</event>
<event>
 4    1  0.1896644E-005  0.6383443E+03  0.7818608E-02  0.9828899E-01
          2   -1    0    0  501    0  0.00000000000E+00  0.00000000000E+00  0.24922719740E+04  0.24922719740E+04  0.25500000000E-02 0.  1.
         -2   -1    0    0    0  501 -0.00000000000E+00 -0.00000000000E+00 -0.40874698787E+02  0.40874698866E+02  0.25500000000E-02 0. -1.
    5000001    1    1    2    0    0  0.10564792248E+03 -0.22704556305E+03  0.10355634726E+04  0.10825741900E+04  0.19200000000E+03 0.  0.
   -5000001    1    1    2    0    0 -0.10564792248E+03  0.22704556305E+03  0.14158338026E+04  0.14505724828E+04  0.19200000000E+03 0.  0.
<mgrwt>
<rscale>  0 0.63834432E+03</rscale>
<asrwt>0</asrwt>
<pdfrwt beam="1">  1        2 0.35603900E+00 0.63834432E+03</pdfrwt>
<pdfrwt beam="2">  1       -2 0.58392403E-02 0.63834432E+03</pdfrwt>
<totfact> 0.75045072E+02</totfact>
</mgrwt>
</event>
<event>
 4    1  0.1896644E-005  0.4503757E+03  0.7818608E-02  0.1027610E+00
          2   -1    0    0  501    0  0.00000000000E+00  0.00000000000E+00  0.12748023789E+04  0.12748023789E+04  0.25500000000E-02 0.  1.
         -2   -1    0    0    0  501 -0.00000000000E+00 -0.00000000000E+00 -0.39778383908E+02  0.39778383990E+02  0.25500000000E-02 0. -1.
    5000001    1    1    2    0    0  0.79828039334E+02 -0.51571391071E+02  0.41500468932E+03  0.46703855986E+03  0.19200000000E+03 0.  0.
   -5000001    1    1    2    0    0 -0.79828039334E+02  0.51571391071E+02  0.82001930567E+03  0.84754220303E+03  0.19200000000E+03 0.  0.
<mgrwt>
<rscale>  0 0.45037575E+03</rscale>
<asrwt>0</asrwt>
<pdfrwt beam="1">  1        2 0.18211460E+00 0.45037575E+03</pdfrwt>
<pdfrwt beam="2">  1       -2 0.56826272E-02 0.45037575E+03</pdfrwt>
<totfact> 0.32953865E+03</totfact>
</mgrwt>
</event>
<event>
 4    1  0.1896644E-005  0.6961157E+03  0.7818608E-02  0.9723898E-01
         -2   -1    0    0    0  501 -0.00000000000E+00  0.00000000000E+00  0.10619753917E+03  0.10619753920E+03  0.25500000000E-02 0. -1.
          2   -1    0    0  501    0  0.00000000000E+00 -0.00000000000E+00 -0.11407446881E+04  0.11407446881E+04  0.25500000000E-02 0.  1.
    5000001    1    1    2    0    0  0.94794882470E+02  0.26431297990E+03 -0.38524162224E+03  0.51392852479E+03  0.19200000000E+03 0.  0.
   -5000001    1    1    2    0    0 -0.94794882470E+02 -0.26431297990E+03 -0.64930552669E+03  0.73301370251E+03  0.19200000000E+03 0.  0.
<mgrwt>
<rscale>  0 0.69611573E+03</rscale>
<asrwt>0</asrwt>
<pdfrwt beam="1">  1        2 0.16296352E+00 0.69611573E+03</pdfrwt>
<pdfrwt beam="2">  1       -2 0.15171078E-01 0.69611573E+03</pdfrwt>
<totfact> 0.79928978E+02</totfact>
</mgrwt>
</event>
<event>
 4    1  0.1896644E-005  0.6078801E+03  0.7818608E-02  0.9889191E-01
         -2   -1    0    0    0  501 -0.00000000000E+00  0.00000000000E+00  0.12821990256E+03  0.12821990259E+03  0.25500000000E-02 0. -1.
          2   -1    0    0  501    0  0.00000000000E+00 -0.00000000000E+00 -0.72047741775E+03  0.72047741775E+03  0.25500000000E-02 0.  1.
    5000001    1    1    2    0    0 -0.11270520132E+03 -0.16794578514E+03 -0.46486945119E+03  0.54210317819E+03  0.19200000000E+03 0.  0.
   -5000001    1    1    2    0    0  0.11270520132E+03  0.16794578514E+03 -0.12738806399E+03  0.30659414215E+03  0.19200000000E+03 0.  0.
<mgrwt>
<rscale>  0 0.60788007E+03</rscale>
<asrwt>0</asrwt>
<pdfrwt beam="1">  1        2 0.10292534E+00 0.60788007E+03</pdfrwt>
<pdfrwt beam="2">  1       -2 0.18317129E-01 0.60788007E+03</pdfrwt>
<totfact> 0.10825365E+03</totfact>
</mgrwt>
</event>
<event>
 4    1  0.1896644E-005  0.8767371E+03  0.7818608E-02  0.9455138E-01
         -2   -1    0    0    0  501 -0.00000000000E+00  0.00000000000E+00  0.56612415340E+03  0.56612415340E+03  0.25500000000E-02 0. -1.
          2   -1    0    0  501    0  0.00000000000E+00 -0.00000000000E+00 -0.33944322152E+03  0.33944322153E+03  0.25500000000E-02 0.  1.
    5000001    1    1    2    0    0  0.36934845528E+03 -0.61774737013E+02 -0.13450383339E+02  0.42104549916E+03  0.19200000000E+03 0.  0.
   -5000001    1    1    2    0    0 -0.36934845528E+03  0.61774737013E+02  0.24013131521E+03  0.48452187577E+03  0.19200000000E+03 0.  0.
<mgrwt>
<rscale>  0 0.87673715E+03</rscale>
<asrwt>0</asrwt>
<pdfrwt beam="1">  1        2 0.48491889E-01 0.87673715E+03</pdfrwt>
<pdfrwt beam="2">  1       -2 0.80874879E-01 0.87673715E+03</pdfrwt>
<totfact> 0.14083813E+02</totfact>
</mgrwt>
</event>
<event>
 4    1  0.1896644E-005  0.5317033E+03  0.7818608E-02  0.1005820E+00
         -2   -1    0    0    0  501 -0.00000000000E+00  0.00000000000E+00  0.67483715926E+02  0.67483715975E+02  0.25500000000E-02 0. -1.
          2   -1    0    0  501    0  0.00000000000E+00 -0.00000000000E+00 -0.10473208386E+04  0.10473208386E+04  0.25500000000E-02 0.  1.
    5000001    1    1    2    0    0  0.17717415423E+03 -0.39354331361E+02 -0.55189120408E+03  0.61187200089E+03  0.19200000000E+03 0.  0.
   -5000001    1    1    2    0    0 -0.17717415423E+03  0.39354331361E+02 -0.42794591860E+03  0.50293255370E+03  0.19200000000E+03 0.  0.
<mgrwt>
<rscale>  0 0.53170331E+03</rscale>
<asrwt>0</asrwt>
<pdfrwt beam="1">  1        2 0.14961725E+00 0.53170331E+03</pdfrwt>
<pdfrwt beam="2">  1       -2 0.96405314E-02 0.53170331E+03</pdfrwt>
<totfact> 0.19218076E+03</totfact>
</mgrwt>
</event>
<event>
 4    1  0.1896644E-005  0.1034781E+04  0.7818608E-02  0.9271199E-01
          2   -1    0    0  501    0  0.00000000000E+00  0.00000000000E+00  0.72831070788E+03  0.72831070788E+03  0.25500000000E-02 0.  1.
         -2   -1    0    0    0  501 -0.00000000000E+00 -0.00000000000E+00 -0.36755326635E+03  0.36755326636E+03  0.25500000000E-02 0. -1.
    5000001    1    1    2    0    0 -0.21437720249E+02 -0.47868921039E+03  0.21746054769E+03  0.56013929142E+03  0.19200000000E+03 0.  0.
   -5000001    1    1    2    0    0  0.21437720249E+02  0.47868921039E+03  0.14329689384E+03  0.53572468282E+03  0.19200000000E+03 0.  0.
<mgrwt>
<rscale>  0 0.10347811E+04</rscale>
<asrwt>0</asrwt>
<pdfrwt beam="1">  1        2 0.10404438E+00 0.10347811E+04</pdfrwt>
<pdfrwt beam="2">  1       -2 0.52507611E-01 0.10347811E+04</pdfrwt>
<totfact> 0.14611465E+02</totfact>
</mgrwt>
</event>
<event>
 4    1  0.1896644E-005  0.6949645E+03  0.7818608E-02  0.9725883E-01
         -2   -1    0    0    0  501 -0.00000000000E+00  0.00000000000E+00  0.48021203351E+03  0.48021203352E+03  0.25500000000E-02 0. -1.
          2   -1    0    0  501    0  0.00000000000E+00 -0.00000000000E+00 -0.25143874738E+03  0.25143874739E+03  0.25500000000E-02 0.  1.
    5000001    1    1    2    0    0 -0.21719566350E+03 -0.80498962438E+02  0.29742017061E+03  0.42305649396E+03  0.19200000000E+03 0.  0.
   -5000001    1    1    2    0    0  0.21719566350E+03  0.80498962438E+02 -0.68646884476E+02  0.30859428696E+03  0.19200000000E+03 0.  0.
<mgrwt>
<rscale>  0 0.69496449E+03</rscale>
<asrwt>0</asrwt>
<pdfrwt beam="1">  1        2 0.35919822E-01 0.69496449E+03</pdfrwt>
<pdfrwt beam="2">  1       -2 0.68601718E-01 0.69496449E+03</pdfrwt>
<totfact> 0.28483441E+02</totfact>
</mgrwt>
</event>
<event>
 4    1  0.1896644E-005  0.4220319E+03  0.7818608E-02  0.1036407E+00
          2   -1    0    0  501    0  0.00000000000E+00  0.00000000000E+00  0.14610529228E+04  0.14610529228E+04  0.25500000000E-02 0.  1.
         -2   -1    0    0    0  501 -0.00000000000E+00 -0.00000000000E+00 -0.30476462690E+02  0.30476462796E+02  0.25500000000E-02 0. -1.
    5000001    1    1    2    0    0  0.69205346194E+02 -0.42262814002E+02  0.83187273758E+03  0.85758485115E+03  0.19200000000E+03 0.  0.
   -5000001    1    1    2    0    0 -0.69205346194E+02  0.42262814002E+02  0.59870372254E+03  0.63394453446E+03  0.19200000000E+03 0.  0.
<mgrwt>
<rscale>  0 0.42203187E+03</rscale>
<asrwt>0</asrwt>
<pdfrwt beam="1">  1        2 0.20872189E+00 0.42203187E+03</pdfrwt>
<pdfrwt beam="2">  1       -2 0.43537794E-02 0.42203187E+03</pdfrwt>
<totfact> 0.39578515E+03</totfact>
</mgrwt>
</event>
<event>
 4    1  0.1896644E-005  0.6435278E+03  0.7818608E-02  0.9819000E-01
         -2   -1    0    0    0  501 -0.00000000000E+00  0.00000000000E+00  0.35748059210E+03  0.35748059211E+03  0.25500000000E-02 0. -1.
          2   -1    0    0  501    0  0.00000000000E+00 -0.00000000000E+00 -0.28961573805E+03  0.28961573806E+03  0.25500000000E-02 0.  1.
    5000001    1    1    2    0    0 -0.12984105497E+03  0.84246889921E+02 -0.17388185911E+03  0.30175344065E+03  0.19200000000E+03 0.  0.
   -5000001    1    1    2    0    0  0.12984105497E+03 -0.84246889921E+02  0.24174671316E+03  0.34534288952E+03  0.19200000000E+03 0.  0.
<mgrwt>
<rscale>  0 0.64352779E+03</rscale>
<asrwt>0</asrwt>
<pdfrwt beam="1">  1        2 0.41373677E-01 0.64352779E+03</pdfrwt>
<pdfrwt beam="2">  1       -2 0.51068656E-01 0.64352779E+03</pdfrwt>
<totfact> 0.45320051E+02</totfact>
</mgrwt>
</event>
<event>
 4    1  0.1896644E-005  0.5405848E+03  0.7818608E-02  0.1003697E+00
          2   -1    0    0  501    0  0.00000000000E+00  0.00000000000E+00  0.32220992729E+04  0.32220992729E+04  0.25500000000E-02 0.  1.
         -2   -1    0    0    0  501 -0.00000000000E+00 -0.00000000000E+00 -0.22674030004E+02  0.22674030148E+02  0.25500000000E-02 0. -1.
    5000001    1    1    2    0    0 -0.41444240169E+02 -0.18553327279E+03  0.15557045962E+04  0.15789936703E+04  0.19200000000E+03 0.  0.
   -5000001    1    1    2    0    0  0.41444240169E+02  0.18553327279E+03  0.16437206468E+04  0.16657796328E+04  0.19200000000E+03 0.  0.
<mgrwt>
<rscale>  0 0.54058478E+03</rscale>
<asrwt>0</asrwt>
<pdfrwt beam="1">  1        2 0.46029967E+00 0.54058478E+03</pdfrwt>
<pdfrwt beam="2">  1       -2 0.32391487E-02 0.54058478E+03</pdfrwt>
<totfact> 0.76467708E+02</totfact>
</mgrwt>
</event>
<event>
 4    1  0.1896644E-005  0.8879344E+03  0.7818608E-02  0.9440791E-01
          2   -1    0    0  501    0  0.00000000000E+00  0.00000000000E+00  0.18412731236E+04  0.18412731236E+04  0.25500000000E-02 0.  1.
         -2   -1    0    0    0  501 -0.00000000000E+00 -0.00000000000E+00 -0.10704924098E+03  0.10704924101E+03  0.25500000000E-02 0. -1.
    5000001    1    1    2    0    0  0.37994145920E+03 -0.67729195649E+02  0.63386190848E+03  0.76654267682E+03  0.19200000000E+03 0.  0.
   -5000001    1    1    2    0    0 -0.37994145920E+03  0.67729195649E+02  0.11003619742E+04  0.11817796878E+04  0.19200000000E+03 0.  0.
<mgrwt>
<rscale>  0 0.88793444E+03</rscale>
<asrwt>0</asrwt>
<pdfrwt beam="1">  1        2 0.26303901E+00 0.88793444E+03</pdfrwt>
<pdfrwt beam="2">  1       -2 0.15292749E-01 0.88793444E+03</pdfrwt>
<totfact> 0.33097898E+02</totfact>
</mgrwt>
</event>
<event>
 4    1  0.1896644E-005  0.5237402E+03  0.7818608E-02  0.1007762E+00
          2   -1    0    0  501    0  0.00000000000E+00  0.00000000000E+00  0.94752890295E+02  0.94752890329E+02  0.25500000000E-02 0.  1.
         -2   -1    0    0    0  501 -0.00000000000E+00 -0.00000000000E+00 -0.72373459072E+03  0.72373459072E+03  0.25500000000E-02 0. -1.
    5000001    1    1    2    0    0 -0.17080456820E+03  0.28390258881E+01 -0.39309206513E+03  0.46964628419E+03  0.19200000000E+03 0.  0.
   -5000001    1    1    2    0    0  0.17080456820E+03 -0.28390258881E+01 -0.23588963529E+03  0.34884119686E+03  0.19200000000E+03 0.  0.
<mgrwt>
<rscale>  0 0.52374018E+03</rscale>
<asrwt>0</asrwt>
<pdfrwt beam="1">  1        2 0.13536128E-01 0.52374018E+03</pdfrwt>
<pdfrwt beam="2">  1       -2 0.10339065E+00 0.52374018E+03</pdfrwt>
<totfact> 0.35084793E+02</totfact>
</mgrwt>
</event>
<event>
 4    1  0.1896644E-005  0.5543116E+03  0.7818608E-02  0.1000501E+00
         -2   -1    0    0    0  501 -0.00000000000E+00  0.00000000000E+00  0.47220350540E+03  0.47220350541E+03  0.25500000000E-02 0. -1.
          2   -1    0    0  501    0  0.00000000000E+00 -0.00000000000E+00 -0.16267419425E+03  0.16267419427E+03  0.25500000000E-02 0.  1.
    5000001    1    1    2    0    0  0.10060735603E+03  0.12568287026E+03  0.29044472547E+03  0.38358853283E+03  0.19200000000E+03 0.  0.
   -5000001    1    1    2    0    0 -0.10060735603E+03 -0.12568287026E+03  0.19084585691E+02  0.25128916685E+03  0.19200000000E+03 0.  0.
<mgrwt>
<rscale>  0 0.55431155E+03</rscale>
<asrwt>0</asrwt>
<pdfrwt beam="1">  1        2 0.23239170E-01 0.55431155E+03</pdfrwt>
<pdfrwt beam="2">  1       -2 0.67457645E-01 0.55431155E+03</pdfrwt>
<totfact> 0.48459969E+02</totfact>
</mgrwt>
</event>
<event>
 4    1  0.1896644E-005  0.7021308E+03  0.7818608E-02  0.9713595E-01
          2   -1    0    0  501    0  0.00000000000E+00  0.00000000000E+00  0.10480477815E+04  0.10480477815E+04  0.25500000000E-02 0.  1.
         -2   -1    0    0    0  501 -0.00000000000E+00 -0.00000000000E+00 -0.11759666713E+03  0.11759666716E+03  0.25500000000E-02 0. -1.
    5000001    1    1    2    0    0  0.26207784834E+03 -0.24706369232E+02  0.24821035811E+03  0.40959441542E+03  0.19200000000E+03 0.  0.
   -5000001    1    1    2    0    0 -0.26207784834E+03  0.24706369232E+02  0.68224075625E+03  0.75605003324E+03  0.19200000000E+03 0.  0.
<mgrwt>
<rscale>  0 0.70213083E+03</rscale>
<asrwt>0</asrwt>
<pdfrwt beam="1">  1        2 0.14972111E+00 0.70213083E+03</pdfrwt>
<pdfrwt beam="2">  1       -2 0.16799524E-01 0.70213083E+03</pdfrwt>
<totfact> 0.76156807E+02</totfact>
</mgrwt>
</event>
<event>
 4    1  0.1896644E-005  0.6511733E+03  0.7818608E-02  0.9804580E-01
         -2   -1    0    0    0  501 -0.00000000000E+00  0.00000000000E+00  0.67440312586E+02  0.67440312634E+02  0.25500000000E-02 0. -1.
          2   -1    0    0  501    0  0.00000000000E+00 -0.00000000000E+00 -0.15718590038E+04  0.15718590038E+04  0.25500000000E-02 0.  1.
    5000001    1    1    2    0    0 -0.14141490213E+03 -0.21793630733E+03 -0.85441472421E+03  0.91344563579E+03  0.19200000000E+03 0.  0.
   -5000001    1    1    2    0    0  0.14141490213E+03  0.21793630733E+03 -0.65000396705E+03  0.72585368069E+03  0.19200000000E+03 0.  0.
<mgrwt>
<rscale>  0 0.65117329E+03</rscale>
<asrwt>0</asrwt>
<pdfrwt beam="1">  1        2 0.22455126E+00 0.65117329E+03</pdfrwt>
<pdfrwt beam="2">  1       -2 0.96343314E-02 0.65117329E+03</pdfrwt>
<totfact> 0.99100389E+02</totfact>
</mgrwt>
</event>
<event>
 4    1  0.1896644E-005  0.6737166E+03  0.7818608E-02  0.9763267E-01
         -2   -1    0    0    0  501 -0.00000000000E+00  0.00000000000E+00  0.66415195967E+02  0.66415196016E+02  0.25500000000E-02 0. -1.
          2   -1    0    0  501    0  0.00000000000E+00 -0.00000000000E+00 -0.17085473367E+04  0.17085473367E+04  0.25500000000E-02 0.  1.
    5000001    1    1    2    0    0 -0.27179688069E+03  0.13183426290E+01 -0.68330421256E+03  0.76002890030E+03  0.19200000000E+03 0.  0.
   -5000001    1    1    2    0    0  0.27179688069E+03 -0.13183426290E+01 -0.95882792814E+03  0.10149336324E+04  0.19200000000E+03 0.  0.
<mgrwt>
<rscale>  0 0.67371658E+03</rscale>
<asrwt>0</asrwt>
<pdfrwt beam="1">  1        2 0.24407816E+00 0.67371658E+03</pdfrwt>
<pdfrwt beam="2">  1       -2 0.94878862E-02 0.67371658E+03</pdfrwt>
<totfact> 0.86336304E+02</totfact>
</mgrwt>
</event>
<event>
 4    1  0.1896644E-005  0.4755791E+03  0.7818608E-02  0.1020357E+00
         -2   -1    0    0    0  501 -0.00000000000E+00  0.00000000000E+00  0.77870856194E+03  0.77870856194E+03  0.25500000000E-02 0. -1.
          2   -1    0    0  501    0  0.00000000000E+00 -0.00000000000E+00 -0.72612367898E+02  0.72612367943E+02  0.25500000000E-02 0.  1.
    5000001    1    1    2    0    0 -0.76332269357E+02  0.10136773540E+03  0.46012134245E+03  0.51446834975E+03  0.19200000000E+03 0.  0.
   -5000001    1    1    2    0    0  0.76332269357E+02 -0.10136773540E+03  0.24597485159E+03  0.33685258013E+03  0.19200000000E+03 0.  0.
<mgrwt>
<rscale>  0 0.47557911E+03</rscale>
<asrwt>0</asrwt>
<pdfrwt beam="1">  1        2 0.10373197E-01 0.47557911E+03</pdfrwt>
<pdfrwt beam="2">  1       -2 0.11124407E+00 0.47557911E+03</pdfrwt>
<totfact> 0.40995059E+02</totfact>
</mgrwt>
</event>
<event>
 4    1  0.1896644E-005  0.1000521E+04  0.7818608E-02  0.9307974E-01
         -2   -1    0    0    0  501 -0.00000000000E+00  0.00000000000E+00  0.23127333670E+03  0.23127333672E+03  0.25500000000E-02 0. -1.
          2   -1    0    0  501    0  0.00000000000E+00 -0.00000000000E+00 -0.10820977807E+04  0.10820977807E+04  0.25500000000E-02 0.  1.
    5000001    1    1    2    0    0  0.13458990132E+02  0.33740702339E+03 -0.11609984982E+02  0.38861733826E+03  0.19200000000E+03 0.  0.
   -5000001    1    1    2    0    0 -0.13458990132E+02 -0.33740702339E+03 -0.83921445902E+03  0.92475377916E+03  0.19200000000E+03 0.  0.
<mgrwt>
<rscale>  0 0.10005206E+04</rscale>
<asrwt>0</asrwt>
<pdfrwt beam="1">  1        2 0.15458539E+00 0.10005206E+04</pdfrwt>
<pdfrwt beam="2">  1       -2 0.33039049E-01 0.10005206E+04</pdfrwt>
<totfact> 0.21320820E+02</totfact>
</mgrwt>
</event>
<event>
 4    1  0.1896644E-005  0.8914964E+03  0.7818608E-02  0.9436274E-01
          2   -1    0    0  501    0  0.00000000000E+00  0.00000000000E+00  0.52119362358E+03  0.52119362358E+03  0.25500000000E-02 0.  1.
         -2   -1    0    0    0  501 -0.00000000000E+00 -0.00000000000E+00 -0.38122388077E+03  0.38122388078E+03  0.25500000000E-02 0. -1.
    5000001    1    1    2    0    0 -0.19212071621E+03  0.17843883255E+03 -0.23883720315E+03  0.40330880993E+03  0.19200000000E+03 0.  0.
   -5000001    1    1    2    0    0  0.19212071621E+03 -0.17843883255E+03  0.37880694595E+03  0.49910869443E+03  0.19200000000E+03 0.  0.
<mgrwt>
<rscale>  0 0.89149640E+03</rscale>
<asrwt>0</asrwt>
<pdfrwt beam="1">  1        2 0.74456232E-01 0.89149640E+03</pdfrwt>
<pdfrwt beam="2">  1       -2 0.54460555E-01 0.89149640E+03</pdfrwt>
<totfact> 0.20382602E+02</totfact>
</mgrwt>
</event>
<event>
 4    1  0.1896644E-005  0.1438095E+04  0.7818608E-02  0.8926696E-01
         -2   -1    0    0    0  501 -0.00000000000E+00  0.00000000000E+00  0.89875136294E+03  0.89875136294E+03  0.25500000000E-02 0. -1.
          2   -1    0    0  501    0  0.00000000000E+00 -0.00000000000E+00 -0.57527542509E+03  0.57527542510E+03  0.25500000000E-02 0.  1.
    5000001    1    1    2    0    0  0.40685339648E+02  0.67473477789E+03  0.31800456858E+03  0.77130617980E+03  0.19200000000E+03 0.  0.
   -5000001    1    1    2    0    0 -0.40685339648E+02 -0.67473477789E+03  0.54713692608E+01  0.70272060824E+03  0.19200000000E+03 0.  0.
<mgrwt>
<rscale>  0 0.14380954E+04</rscale>
<asrwt>0</asrwt>
<pdfrwt beam="1">  1        2 0.82182205E-01 0.14380954E+04</pdfrwt>
<pdfrwt beam="2">  1       -2 0.12839305E+00 0.14380954E+04</pdfrwt>
<totfact> 0.24847746E+01</totfact>
</mgrwt>
</event>
<event>
 4    1  0.1896644E-005  0.6833361E+03  0.7818608E-02  0.9746162E-01
         -2   -1    0    0    0  501 -0.00000000000E+00  0.00000000000E+00  0.12064569775E+04  0.12064569775E+04  0.25500000000E-02 0. -1.
          2   -1    0    0  501    0  0.00000000000E+00 -0.00000000000E+00 -0.96760218154E+02  0.96760218188E+02  0.25500000000E-02 0.  1.
    5000001    1    1    2    0    0  0.19161041421E+03  0.19258093946E+03  0.40624963759E+03  0.52507593462E+03  0.19200000000E+03 0.  0.
   -5000001    1    1    2    0    0 -0.19161041421E+03 -0.19258093946E+03  0.70344712175E+03  0.77814126107E+03  0.19200000000E+03 0.  0.
<mgrwt>
<rscale>  0 0.68333605E+03</rscale>
<asrwt>0</asrwt>
<pdfrwt beam="1">  1        2 0.13822888E-01 0.68333605E+03</pdfrwt>
<pdfrwt beam="2">  1       -2 0.17235101E+00 0.68333605E+03</pdfrwt>
<totfact> 0.92416943E+01</totfact>
</mgrwt>
</event>
<event>
 4    1  0.1896644E-005  0.5699698E+03  0.7818608E-02  0.9969745E-01
         -2   -1    0    0    0  501 -0.00000000000E+00  0.00000000000E+00  0.21356915955E+02  0.21356916107E+02  0.25500000000E-02 0. -1.
          2   -1    0    0  501    0  0.00000000000E+00 -0.00000000000E+00 -0.38028146426E+04  0.38028146426E+04  0.25500000000E-02 0.  1.
    5000001    1    1    2    0    0  0.14581161101E+03 -0.35698309042E+02 -0.89970749921E+03  0.93213356302E+03  0.19200000000E+03 0.  0.
   -5000001    1    1    2    0    0 -0.14581161101E+03  0.35698309042E+02 -0.28817502274E+04  0.28920379957E+04  0.19200000000E+03 0.  0.
<mgrwt>
<rscale>  0 0.56996980E+03</rscale>
<asrwt>0</asrwt>
<pdfrwt beam="1">  1        2 0.54325880E+00 0.56996980E+03</pdfrwt>
<pdfrwt beam="2">  1       -2 0.30509904E-02 0.56996980E+03</pdfrwt>
<totfact> 0.37648350E+02</totfact>
</mgrwt>
</event>
<event>
 4    1  0.1896644E-005  0.6216985E+03  0.7818608E-02  0.9861384E-01
          2   -1    0    0  501    0  0.00000000000E+00  0.00000000000E+00  0.45033591226E+03  0.45033591227E+03  0.25500000000E-02 0. -1.
         -2   -1    0    0    0  501 -0.00000000000E+00 -0.00000000000E+00 -0.21456708440E+03  0.21456708441E+03  0.25500000000E-02 0.  1.
    5000001    1    1    2    0    0 -0.23764169076E+03  0.95368271369E+01  0.57396600350E+02  0.31100304499E+03  0.19200000000E+03 0.  0.
   -5000001    1    1    2    0    0  0.23764169076E+03 -0.95368271369E+01  0.17837222751E+03  0.35389995169E+03  0.19200000000E+03 0.  0.
<mgrwt>
<rscale>  0 0.62169852E+03</rscale>
<asrwt>0</asrwt>
<pdfrwt beam="1">  1        2 0.64333702E-01 0.62169852E+03</pdfrwt>
<pdfrwt beam="2">  1       -2 0.30652441E-01 0.62169852E+03</pdfrwt>
<totfact> 0.74812688E+02</totfact>
</mgrwt>
</event>
<event>
 4    1  0.1896644E-005  0.7103447E+03  0.7818608E-02  0.9699703E-01
          2   -1    0    0  501    0  0.00000000000E+00  0.00000000000E+00  0.30254407209E+04  0.30254407209E+04  0.25500000000E-02 0.  1.
         -2   -1    0    0    0  501 -0.00000000000E+00 -0.00000000000E+00 -0.41695544736E+02  0.41695544814E+02  0.25500000000E-02 0. -1.
    5000001    1    1    2    0    0  0.13828574874E+03 -0.23413458451E+03  0.95706558155E+03  0.10133017711E+04  0.19200000000E+03 0.  0.
   -5000001    1    1    2    0    0 -0.13828574874E+03  0.23413458451E+03  0.20266795946E+04  0.20538344946E+04  0.19200000000E+03 0.  0.
<mgrwt>
<rscale>  0 0.71034470E+03</rscale>
<asrwt>0</asrwt>
<pdfrwt beam="1">  1        2 0.43220575E+00 0.71034470E+03</pdfrwt>
<pdfrwt beam="2">  1       -2 0.59565073E-02 0.71034470E+03</pdfrwt>
<totfact> 0.37729483E+02</totfact>
</mgrwt>
</event>
<event>
 4    1  0.1896644E-005  0.6257479E+03  0.7818608E-02  0.9853382E-01
          2   -1    0    0  501    0  0.00000000000E+00  0.00000000000E+00  0.11590337870E+04  0.11590337870E+04  0.25500000000E-02 0.  1.
         -2   -1    0    0    0  501 -0.00000000000E+00 -0.00000000000E+00 -0.84458383755E+02  0.84458383793E+02  0.25500000000E-02 0. -1.
    5000001    1    1    2    0    0 -0.14782419773E+03 -0.16021316563E+03  0.76823074618E+03  0.82131767986E+03  0.19200000000E+03 0.  0.
   -5000001    1    1    2    0    0  0.14782419773E+03  0.16021316563E+03  0.30634465703E+03  0.42217449090E+03  0.19200000000E+03 0.  0.
<mgrwt>
<rscale>  0 0.62574794E+03</rscale>
<asrwt>0</asrwt>
<pdfrwt beam="1">  1        2 0.16557625E+00 0.62574794E+03</pdfrwt>
<pdfrwt beam="2">  1       -2 0.12065484E-01 0.62574794E+03</pdfrwt>
<totfact> 0.11461294E+03</totfact>
</mgrwt>
</event>
<event>
 4    1  0.1896644E-005  0.7607181E+03  0.7818608E-02  0.9618684E-01
         -2   -1    0    0    0  501 -0.00000000000E+00  0.00000000000E+00  0.40270679110E+03  0.40270679111E+03  0.25500000000E-02 0. -1.
          2   -1    0    0  501    0  0.00000000000E+00 -0.00000000000E+00 -0.35925150279E+03  0.35925150280E+03  0.25500000000E-02 0.  1.
    5000001    1    1    2    0    0  0.61614781246E+02 -0.32250185610E+03  0.24009830771E+02  0.38110930247E+03  0.19200000000E+03 0.  0.
   -5000001    1    1    2    0    0 -0.61614781246E+02  0.32250185610E+03  0.19445457534E+02  0.38084899143E+03  0.19200000000E+03 0.  0.
<mgrwt>
<rscale>  0 0.76071813E+03</rscale>
<asrwt>0</asrwt>
<pdfrwt beam="1">  1        2 0.51321644E-01 0.76071813E+03</pdfrwt>
<pdfrwt beam="2">  1       -2 0.57529541E-01 0.76071813E+03</pdfrwt>
<totfact> 0.27820645E+02</totfact>
</mgrwt>
</event>
<event>
 4    1  0.1896644E-005  0.6192412E+03  0.7818608E-02  0.9866272E-01
         -2   -1    0    0    0  501 -0.00000000000E+00  0.00000000000E+00  0.14215482158E+03  0.14215482160E+03  0.25500000000E-02 0. -1.
          2   -1    0    0  501    0  0.00000000000E+00 -0.00000000000E+00 -0.67436975774E+03  0.67436975775E+03  0.25500000000E-02 0.  1.
    5000001    1    1    2    0    0  0.23459221906E+03  0.10670805896E+02 -0.34796133625E+03  0.46161506352E+03  0.19200000000E+03 0.  0.
   -5000001    1    1    2    0    0 -0.23459221906E+03 -0.10670805896E+02 -0.18425359992E+03  0.35490951583E+03  0.19200000000E+03 0.  0.
<mgrwt>
<rscale>  0 0.61924119E+03</rscale>
<asrwt>0</asrwt>
<pdfrwt beam="1">  1        2 0.96338535E-01 0.61924119E+03</pdfrwt>
<pdfrwt beam="2">  1       -2 0.20307832E-01 0.61924119E+03</pdfrwt>
<totfact> 0.98126478E+02</totfact>
</mgrwt>
</event>
<event>
 4    1  0.1896644E-005  0.4200612E+03  0.7818608E-02  0.1037046E+00
          2   -1    0    0  501    0  0.00000000000E+00  0.00000000000E+00  0.19169144228E+04  0.19169144228E+04  0.25500000000E-02 0.  1.
         -2   -1    0    0    0  501 -0.00000000000E+00 -0.00000000000E+00 -0.23012428418E+02  0.23012428559E+02  0.25500000000E-02 0. -1.
    5000001    1    1    2    0    0 -0.60394262745E+02  0.49324284998E+02  0.78908526270E+03  0.81584306326E+03  0.19200000000E+03 0.  0.
   -5000001    1    1    2    0    0  0.60394262745E+02 -0.49324284998E+02  0.11048167317E+04  0.11240837881E+04  0.19200000000E+03 0.  0.
<mgrwt>
<rscale>  0 0.42006121E+03</rscale>
<asrwt>0</asrwt>
<pdfrwt beam="1">  1        2 0.27384504E+00 0.42006121E+03</pdfrwt>
<pdfrwt beam="2">  1       -2 0.32874884E-02 0.42006121E+03</pdfrwt>
<totfact> 0.35740783E+03</totfact>
</mgrwt>
</event>
<event>
 4    1  0.1896644E-005  0.5807991E+03  0.7818608E-02  0.9946062E-01
          2   -1    0    0  501    0  0.00000000000E+00  0.00000000000E+00  0.36382653164E+04  0.36382653164E+04  0.25500000000E-02 0.  1.
         -2   -1    0    0    0  501 -0.00000000000E+00 -0.00000000000E+00 -0.23179152253E+02  0.23179152393E+02  0.25500000000E-02 0. -1.
    5000001    1    1    2    0    0 -0.17971947636E+03 -0.11768988439E+03  0.20364025388E+04  0.20566840543E+04  0.19200000000E+03 0.  0.
   -5000001    1    1    2    0    0  0.17971947636E+03  0.11768988439E+03  0.15786836253E+04  0.16047604145E+04  0.19200000000E+03 0.  0.
<mgrwt>
<rscale>  0 0.58079913E+03</rscale>
<asrwt>0</asrwt>
<pdfrwt beam="1">  1        2 0.51975214E+00 0.58079913E+03</pdfrwt>
<pdfrwt beam="2">  1       -2 0.33113078E-02 0.58079913E+03</pdfrwt>
<totfact> 0.42011674E+02</totfact>
</mgrwt>
</event>
<event>
 4    1  0.1896644E-005  0.5666152E+03  0.7818608E-02  0.9977197E-01
          2   -1    0    0  501    0  0.00000000000E+00  0.00000000000E+00  0.21008184997E+03  0.21008184999E+03  0.25500000000E-02 0.  1.
         -2   -1    0    0    0  501 -0.00000000000E+00 -0.00000000000E+00 -0.38205681389E+03  0.38205681390E+03  0.25500000000E-02 0. -1.
    5000001    1    1    2    0    0 -0.13997322935E+03  0.47094983560E+02 -0.23953720238E+03  0.34066481141E+03  0.19200000000E+03 0.  0.
   -5000001    1    1    2    0    0  0.13997322935E+03 -0.47094983560E+02  0.67562238465E+02  0.25147385247E+03  0.19200000000E+03 0.  0.
<mgrwt>
<rscale>  0 0.56661522E+03</rscale>
<asrwt>0</asrwt>
<pdfrwt beam="1">  1        2 0.30011693E-01 0.56661522E+03</pdfrwt>
<pdfrwt beam="2">  1       -2 0.54579545E-01 0.56661522E+03</pdfrwt>
<totfact> 0.56612448E+02</totfact>
</mgrwt>
</event>
<event>
 4    1  0.1896644E-005  0.4378265E+03  0.7818608E-02  0.1031416E+00
          2   -1    0    0  501    0  0.00000000000E+00  0.00000000000E+00  0.83127004618E+03  0.83127004618E+03  0.25500000000E-02 0.  1.
         -2   -1    0    0    0  501 -0.00000000000E+00 -0.00000000000E+00 -0.57650341767E+02  0.57650341823E+02  0.25500000000E-02 0. -1.
    5000001    1    1    2    0    0 -0.27628780154E+02  0.99878195071E+02  0.42312895707E+03  0.47606839599E+03  0.19200000000E+03 0.  0.
   -5000001    1    1    2    0    0  0.27628780154E+02 -0.99878195071E+02  0.35049074734E+03  0.41285199202E+03  0.19200000000E+03 0.  0.
<mgrwt>
<rscale>  0 0.43782646E+03</rscale>
<asrwt>0</asrwt>
<pdfrwt beam="1">  1        2 0.11875286E+00 0.43782646E+03</pdfrwt>
<pdfrwt beam="2">  1       -2 0.82357634E-02 0.43782646E+03</pdfrwt>
<totfact> 0.33753639E+03</totfact>
</mgrwt>
</event>
<event>
 4    1  0.1896644E-005  0.4950557E+03  0.7818608E-02  0.1015078E+00
          2   -1    0    0  501    0  0.00000000000E+00  0.00000000000E+00  0.29163481918E+03  0.29163481920E+03  0.25500000000E-02 0.  1.
         -2   -1    0    0    0  501 -0.00000000000E+00 -0.00000000000E+00 -0.21009166906E+03  0.21009166907E+03  0.25500000000E-02 0. -1.
    5000001    1    1    2    0    0 -0.11469551693E+03 -0.10275804486E+03  0.14115676067E+02  0.24653099135E+03  0.19200000000E+03 0.  0.
   -5000001    1    1    2    0    0  0.11469551693E+03  0.10275804486E+03  0.67427474060E+02  0.25519549691E+03  0.19200000000E+03 0.  0.
<mgrwt>
<rscale>  0 0.49505574E+03</rscale>
<asrwt>0</asrwt>
<pdfrwt beam="1">  1        2 0.41662117E-01 0.49505574E+03</pdfrwt>
<pdfrwt beam="2">  1       -2 0.30013096E-01 0.49505574E+03</pdfrwt>
<totfact> 0.12588034E+03</totfact>
</mgrwt>
</event>
<event>
 4    1  0.1896644E-005  0.5858761E+03  0.7818608E-02  0.9935150E-01
          2   -1    0    0  501    0  0.00000000000E+00  0.00000000000E+00  0.77757412119E+03  0.77757412120E+03  0.25500000000E-02 0.  1.
         -2   -1    0    0    0  501 -0.00000000000E+00 -0.00000000000E+00 -0.11035952041E+03  0.11035952044E+03  0.25500000000E-02 0. -1.
    5000001    1    1    2    0    0  0.17071468568E+03  0.13950808190E+03  0.30555098180E+03  0.42288463120E+03  0.19200000000E+03 0.  0.
   -5000001    1    1    2    0    0 -0.17071468568E+03 -0.13950808190E+03  0.36166361898E+03  0.46504901044E+03  0.19200000000E+03 0.  0.
<mgrwt>
<rscale>  0 0.58587612E+03</rscale>
<asrwt>0</asrwt>
<pdfrwt beam="1">  1        2 0.11108202E+00 0.58587612E+03</pdfrwt>
<pdfrwt beam="2">  1       -2 0.15765646E-01 0.58587612E+03</pdfrwt>
<totfact> 0.12717233E+03</totfact>
</mgrwt>
</event>
<event>
 4    1  0.1896644E-005  0.1087218E+04  0.7818608E-02  0.9217740E-01
          2   -1    0    0  501    0  0.00000000000E+00  0.00000000000E+00  0.13371138725E+04  0.13371138725E+04  0.25500000000E-02 0.  1.
         -2   -1    0    0    0  501 -0.00000000000E+00 -0.00000000000E+00 -0.22100641794E+03  0.22100641796E+03  0.25500000000E-02 0. -1.
    5000001    1    1    2    0    0  0.43098410142E+03 -0.25794876279E+03  0.44374553981E+03  0.69717929115E+03  0.19200000000E+03 0.  0.
   -5000001    1    1    2    0    0 -0.43098410142E+03  0.25794876279E+03  0.67236191475E+03  0.86094099932E+03  0.19200000000E+03 0.  0.
<mgrwt>
<rscale>  0 0.10872180E+04</rscale>
<asrwt>0</asrwt>
<pdfrwt beam="1">  1        2 0.19101627E+00 0.10872180E+04</pdfrwt>
<pdfrwt beam="2">  1       -2 0.31572345E-01 0.10872180E+04</pdfrwt>
<totfact> 0.16545922E+02</totfact>
</mgrwt>
</event>
<event>
 4    1  0.1896644E-005  0.5088602E+03  0.7818608E-02  0.1011492E+00
          2   -1    0    0  501    0  0.00000000000E+00  0.00000000000E+00  0.56779398368E+03  0.56779398368E+03  0.25500000000E-02 0.  1.
         -2   -1    0    0    0  501 -0.00000000000E+00 -0.00000000000E+00 -0.11401084162E+03  0.11401084165E+03  0.25500000000E-02 0. -1.
    5000001    1    1    2    0    0  0.13500259393E+03 -0.80761226582E+02  0.30176355776E+03  0.39073433542E+03  0.19200000000E+03 0.  0.
   -5000001    1    1    2    0    0 -0.13500259393E+03  0.80761226582E+02  0.15201958430E+03  0.29107048991E+03  0.19200000000E+03 0.  0.
<mgrwt>
<rscale>  0 0.50886018E+03</rscale>
<asrwt>0</asrwt>
<pdfrwt beam="1">  1        2 0.81113427E-01 0.50886018E+03</pdfrwt>
<pdfrwt beam="2">  1       -2 0.16287263E-01 0.50886018E+03</pdfrwt>
<totfact> 0.17585470E+03</totfact>
</mgrwt>
</event>
<event>
 4    1  0.1896644E-005  0.5002654E+03  0.7818608E-02  0.1013710E+00
          2   -1    0    0  501    0  0.00000000000E+00  0.00000000000E+00  0.33806210243E+04  0.33806210243E+04  0.25500000000E-02 0.  1.
         -2   -1    0    0    0  501 -0.00000000000E+00 -0.00000000000E+00 -0.18507362800E+02  0.18507362976E+02  0.25500000000E-02 0. -1.
    5000001    1    1    2    0    0 -0.13290226042E+03  0.86397245773E+02  0.18439705343E+04  0.18607038524E+04  0.19200000000E+03 0.  0.
   -5000001    1    1    2    0    0  0.13290226042E+03 -0.86397245773E+02  0.15181431272E+04  0.15384245349E+04  0.19200000000E+03 0.  0.
<mgrwt>
<rscale>  0 0.50026545E+03</rscale>
<asrwt>0</asrwt>
<pdfrwt beam="1">  1        2 0.48294607E+00 0.50026545E+03</pdfrwt>
<pdfrwt beam="2">  1       -2 0.26439079E-02 0.50026545E+03</pdfrwt>
<totfact> 0.84845705E+02</totfact>
</mgrwt>
</event>
<event>
 4    1  0.1896644E-005  0.6242556E+03  0.7818608E-02  0.9856323E-01
          2   -1    0    0  501    0  0.00000000000E+00  0.00000000000E+00  0.58413676789E+03  0.58413676789E+03  0.25500000000E-02 0.  1.
         -2   -1    0    0    0  501 -0.00000000000E+00 -0.00000000000E+00 -0.16678243610E+03  0.16678243612E+03  0.25500000000E-02 0. -1.
    5000001    1    1    2    0    0 -0.47172428825E+02 -0.19186493041E+03  0.32205181450E+02  0.27737801512E+03  0.19200000000E+03 0.  0.
   -5000001    1    1    2    0    0  0.47172428825E+02  0.19186493041E+03  0.38514915034E+03  0.47354118888E+03  0.19200000000E+03 0.  0.
<mgrwt>
<rscale>  0 0.62425557E+03</rscale>
<asrwt>0</asrwt>
<pdfrwt beam="1">  1        2 0.83448110E-01 0.62425557E+03</pdfrwt>
<pdfrwt beam="2">  1       -2 0.23826062E-01 0.62425557E+03</pdfrwt>
<totfact> 0.87813036E+02</totfact>
</mgrwt>
</event>
<event>
 4    1  0.1896644E-005  0.4348376E+03  0.7818608E-02  0.1032343E+00
          2   -1    0    0  501    0  0.00000000000E+00  0.00000000000E+00  0.12785033984E+03  0.12785033987E+03  0.25500000000E-02 0.  1.
         -2   -1    0    0    0  501 -0.00000000000E+00 -0.00000000000E+00 -0.36973656016E+03  0.36973656017E+03  0.25500000000E-02 0. -1.
    5000001    1    1    2    0    0 -0.48284194166E+02 -0.69246263704E+02 -0.55401933565E+02  0.21693266855E+03  0.19200000000E+03 0.  0.
   -5000001    1    1    2    0    0  0.48284194166E+02  0.69246263704E+02 -0.18648428676E+03  0.28065423149E+03  0.19200000000E+03 0.  0.
<mgrwt>
<rscale>  0 0.43483765E+03</rscale>
<asrwt>0</asrwt>
<pdfrwt beam="1">  1        2 0.18264334E-01 0.43483765E+03</pdfrwt>
<pdfrwt beam="2">  1       -2 0.52819508E-01 0.43483765E+03</pdfrwt>
<totfact> 0.10698996E+03</totfact>
</mgrwt>
</event>
<event>
 4    1  0.1896644E-005  0.6725543E+03  0.7818608E-02  0.9765354E-01
          2   -1    0    0  501    0  0.00000000000E+00  0.00000000000E+00  0.20827654374E+03  0.20827654375E+03  0.25500000000E-02 0.  1.
         -2   -1    0    0    0  501 -0.00000000000E+00 -0.00000000000E+00 -0.54294314189E+03  0.54294314190E+03  0.25500000000E-02 0. -1.
    5000001    1    1    2    0    0  0.22903112949E+03  0.15065001553E+03 -0.20382979163E+03  0.39186894418E+03  0.19200000000E+03 0.  0.
   -5000001    1    1    2    0    0 -0.22903112949E+03 -0.15065001553E+03 -0.13083680652E+03  0.35935074147E+03  0.19200000000E+03 0.  0.
<mgrwt>
<rscale>  0 0.67255430E+03</rscale>
<asrwt>0</asrwt>
<pdfrwt beam="1">  1        2 0.29753792E-01 0.67255430E+03</pdfrwt>
<pdfrwt beam="2">  1       -2 0.77563305E-01 0.67255430E+03</pdfrwt>
<totfact> 0.26875965E+02</totfact>
</mgrwt>
</event>
<event>
 4    1  0.1896644E-005  0.4385689E+03  0.7818608E-02  0.1031187E+00
          2   -1    0    0  501    0  0.00000000000E+00  0.00000000000E+00  0.13927883243E+04  0.13927883243E+04  0.25500000000E-02 0.  1.
         -2   -1    0    0    0  501 -0.00000000000E+00 -0.00000000000E+00 -0.34524757299E+02  0.34524757393E+02  0.25500000000E-02 0. -1.
    5000001    1    1    2    0    0 -0.75348868447E+02 -0.43444542817E+02  0.87593486707E+03  0.90093882791E+03  0.19200000000E+03 0.  0.
   -5000001    1    1    2    0    0  0.75348868447E+02  0.43444542817E+02  0.48232869993E+03  0.52637425379E+03  0.19200000000E+03 0.  0.
<mgrwt>
<rscale>  0 0.43856894E+03</rscale>
<asrwt>0</asrwt>
<pdfrwt beam="1">  1        2 0.19896973E+00 0.43856894E+03</pdfrwt>
<pdfrwt beam="2">  1       -2 0.49321089E-02 0.43856894E+03</pdfrwt>
<totfact> 0.35481867E+03</totfact>
</mgrwt>
</event>
<event>
 4    1  0.1896644E-005  0.7161526E+03  0.7818608E-02  0.9690001E-01
          2   -1    0    0  501    0  0.00000000000E+00  0.00000000000E+00  0.14090157710E+04  0.14090157710E+04  0.25500000000E-02 0.  1.
         -2   -1    0    0    0  501 -0.00000000000E+00 -0.00000000000E+00 -0.90998718487E+02  0.90998718523E+02  0.25500000000E-02 0. -1.
    5000001    1    1    2    0    0 -0.20340588799E+03  0.21390034227E+03  0.52282569983E+03  0.63034754231E+03  0.19200000000E+03 0.  0.
   -5000001    1    1    2    0    0  0.20340588799E+03 -0.21390034227E+03  0.79519135264E+03  0.86966694717E+03  0.19200000000E+03 0.  0.
<mgrwt>
<rscale>  0 0.71615258E+03</rscale>
<asrwt>0</asrwt>
<pdfrwt beam="1">  1        2 0.20128796E+00 0.71615258E+03</pdfrwt>
<pdfrwt beam="2">  1       -2 0.12999817E-01 0.71615258E+03</pdfrwt>
<totfact> 0.73587143E+02</totfact>
</mgrwt>
</event>
<event>
 4    1  0.1896644E-005  0.4438758E+03  0.7818608E-02  0.1029564E+00
          2   -1    0    0  501    0  0.00000000000E+00  0.00000000000E+00  0.15076989056E+04  0.15076989056E+04  0.25500000000E-02 0.  1.
         -2   -1    0    0    0  501 -0.00000000000E+00 -0.00000000000E+00 -0.32669943535E+02  0.32669943635E+02  0.25500000000E-02 0. -1.
    5000001    1    1    2    0    0  0.50957898071E+02 -0.79922473754E+02  0.94010599149E+03  0.96418233982E+03  0.19200000000E+03 0.  0.
   -5000001    1    1    2    0    0 -0.50957898071E+02  0.79922473754E+02  0.53492297060E+03  0.57618650944E+03  0.19200000000E+03 0.  0.
<mgrwt>
<rscale>  0 0.44387583E+03</rscale>
<asrwt>0</asrwt>
<pdfrwt beam="1">  1        2 0.21538560E+00 0.44387583E+03</pdfrwt>
<pdfrwt beam="2">  1       -2 0.46671339E-02 0.44387583E+03</pdfrwt>
<totfact> 0.33661240E+03</totfact>
</mgrwt>
</event>
<event>
 4    1  0.1896644E-005  0.7642058E+03  0.7818608E-02  0.9613324E-01
         -2   -1    0    0    0  501 -0.00000000000E+00  0.00000000000E+00  0.63172010878E+02  0.63172010930E+02  0.25500000000E-02 0. -1.
          2   -1    0    0  501    0  0.00000000000E+00 -0.00000000000E+00 -0.23111918419E+04  0.23111918419E+04  0.25500000000E-02 0.  1.
    5000001    1    1    2    0    0 -0.26166198868E+03 -0.19229523048E+03 -0.93516895347E+03  0.10083895197E+04  0.19200000000E+03 0.  0.
   -5000001    1    1    2    0    0  0.26166198868E+03  0.19229523048E+03 -0.13128508776E+04  0.13659743331E+04  0.19200000000E+03 0.  0.
<mgrwt>
<rscale>  0 0.76420583E+03</rscale>
<asrwt>0</asrwt>
<pdfrwt beam="1">  1        2 0.33017021E+00 0.76420583E+03</pdfrwt>
<pdfrwt beam="2">  1       -2 0.90245744E-02 0.76420583E+03</pdfrwt>
<totfact> 0.46073450E+02</totfact>
</mgrwt>
</event>
<event>
 4    1  0.1896644E-005  0.5304344E+03  0.7818608E-02  0.1006127E+00
          2   -1    0    0  501    0  0.00000000000E+00  0.00000000000E+00  0.24242091763E+03  0.24242091765E+03  0.25500000000E-02 0.  1.
         -2   -1    0    0    0  501 -0.00000000000E+00 -0.00000000000E+00 -0.29015715378E+03  0.29015715379E+03  0.25500000000E-02 0. -1.
    5000001    1    1    2    0    0  0.18054000021E+03 -0.29183040378E+02 -0.18385099793E+02  0.26579757978E+03  0.19200000000E+03 0.  0.
   -5000001    1    1    2    0    0 -0.18054000021E+03  0.29183040378E+02 -0.29351136354E+02  0.26678049166E+03  0.19200000000E+03 0.  0.
<mgrwt>
<rscale>  0 0.53043440E+03</rscale>
<asrwt>0</asrwt>
<pdfrwt beam="1">  1        2 0.34631560E-01 0.53043440E+03</pdfrwt>
<pdfrwt beam="2">  1       -2 0.41451022E-01 0.53043440E+03</pdfrwt>
<totfact> 0.83770895E+02</totfact>
</mgrwt>
</event>
<event>
 4    1  0.1896644E-005  0.6298496E+03  0.7818608E-02  0.9845342E-01
          2   -1    0    0  501    0  0.00000000000E+00  0.00000000000E+00  0.49103894294E+03  0.49103894295E+03  0.25500000000E-02 0. -1.
         -2   -1    0    0    0  501 -0.00000000000E+00 -0.00000000000E+00 -0.20197506591E+03  0.20197506593E+03  0.25500000000E-02 0.  1.
    5000001    1    1    2    0    0  0.33750613592E+02 -0.99631450103E+02  0.39361490298E+03  0.45040228864E+03  0.19200000000E+03 0.  0.
   -5000001    1    1    2    0    0 -0.33750613592E+02  0.99631450103E+02 -0.10455102595E+03  0.24261172023E+03  0.19200000000E+03 0.  0.
<mgrwt>
<rscale>  0 0.62984958E+03</rscale>
<asrwt>0</asrwt>
<pdfrwt beam="1">  1        2 0.70148420E-01 0.62984958E+03</pdfrwt>
<pdfrwt beam="2">  1       -2 0.28853581E-01 0.62984958E+03</pdfrwt>
<totfact> 0.75846626E+02</totfact>
</mgrwt>
</event>
<event>
 4    1  0.1896644E-005  0.7456801E+03  0.7818608E-02  0.9642152E-01
          2   -1    0    0  501    0  0.00000000000E+00  0.00000000000E+00  0.67073617634E+03  0.67073617635E+03  0.25500000000E-02 0.  1.
         -2   -1    0    0    0  501 -0.00000000000E+00 -0.00000000000E+00 -0.20724946006E+03  0.20724946007E+03  0.25500000000E-02 0. -1.
    5000001    1    1    2    0    0 -0.29935592749E+03 -0.11445912510E+02  0.36286019839E+03  0.50820911426E+03  0.19200000000E+03 0.  0.
   -5000001    1    1    2    0    0  0.29935592749E+03  0.11445912510E+02  0.10062651789E+03  0.36977652216E+03  0.19200000000E+03 0.  0.
<mgrwt>
<rscale>  0 0.74568012E+03</rscale>
<asrwt>0</asrwt>
<pdfrwt beam="1">  1        2 0.95819453E-01 0.74568012E+03</pdfrwt>
<pdfrwt beam="2">  1       -2 0.29607066E-01 0.74568012E+03</pdfrwt>
<totfact> 0.50032136E+02</totfact>
</mgrwt>
</event>
<event>
 4    1  0.1896644E-005  0.4227241E+03  0.7818608E-02  0.1036183E+00
         -2   -1    0    0    0  501 -0.00000000000E+00  0.00000000000E+00  0.17928790522E+02  0.17928790703E+02  0.25500000000E-02 0. -1.
          2   -1    0    0  501    0  0.00000000000E+00 -0.00000000000E+00 -0.24917422689E+04  0.24917422689E+04  0.25500000000E-02 0.  1.
    5000001    1    1    2    0    0  0.21714685734E+02  0.80123947767E+02 -0.14168399559E+04  0.14321979037E+04  0.19200000000E+03 0.  0.
   -5000001    1    1    2    0    0 -0.21714685734E+02 -0.80123947767E+02 -0.10569735224E+04  0.10774731559E+04  0.19200000000E+03 0.  0.
<mgrwt>
<rscale>  0 0.42272414E+03</rscale>
<asrwt>0</asrwt>
<pdfrwt beam="1">  1        2 0.35596296E+00 0.42272414E+03</pdfrwt>
<pdfrwt beam="2">  1       -2 0.25612574E-02 0.42272414E+03</pdfrwt>
<totfact> 0.26888560E+03</totfact>
</mgrwt>
</event>
<event>
 4    1  0.1896644E-005  0.7725263E+03  0.7818608E-02  0.9600658E-01
         -2   -1    0    0    0  501 -0.00000000000E+00  0.00000000000E+00  0.41868786147E+03  0.41868786148E+03  0.25500000000E-02 0. -1.
          2   -1    0    0  501    0  0.00000000000E+00 -0.00000000000E+00 -0.35634950803E+03  0.35634950804E+03  0.25500000000E-02 0.  1.
    5000001    1    1    2    0    0  0.16373900479E+03  0.28566717257E+03  0.93974727094E+02  0.39257030517E+03  0.19200000000E+03 0.  0.
   -5000001    1    1    2    0    0 -0.16373900479E+03 -0.28566717257E+03 -0.31636373649E+02  0.38246706435E+03  0.19200000000E+03 0.  0.
<mgrwt>
<rscale>  0 0.77252628E+03</rscale>
<asrwt>0</asrwt>
<pdfrwt beam="1">  1        2 0.50907072E-01 0.77252628E+03</pdfrwt>
<pdfrwt beam="2">  1       -2 0.59812552E-01 0.77252628E+03</pdfrwt>
<totfact> 0.25859753E+02</totfact>
</mgrwt>
</event>
<event>
 4    1  0.1896644E-005  0.4529918E+03  0.7818608E-02  0.1026834E+00
         -2   -1    0    0    0  501 -0.00000000000E+00  0.00000000000E+00  0.17350546591E+02  0.17350546778E+02  0.25500000000E-02 0. -1.
          2   -1    0    0  501    0  0.00000000000E+00 -0.00000000000E+00 -0.29567017440E+04  0.29567017440E+04  0.25500000000E-02 0.  1.
    5000001    1    1    2    0    0  0.87799018945E+02  0.61287879892E+02 -0.18275639565E+04  0.18407386797E+04  0.19200000000E+03 0.  0.
   -5000001    1    1    2    0    0 -0.87799018945E+02 -0.61287879892E+02 -0.11117872410E+04  0.11333136111E+04  0.19200000000E+03 0.  0.
<mgrwt>
<rscale>  0 0.45299180E+03</rscale>
<asrwt>0</asrwt>
<pdfrwt beam="1">  1        2 0.42238564E+00 0.45299180E+03</pdfrwt>
<pdfrwt beam="2">  1       -2 0.24786514E-02 0.45299180E+03</pdfrwt>
<totfact> 0.16153211E+03</totfact>
</mgrwt>
</event>
<event>
 4    1  0.1896644E-005  0.5909613E+03  0.7818608E-02  0.9924338E-01
          2   -1    0    0  501    0  0.00000000000E+00  0.00000000000E+00  0.46528788207E+03  0.46528788208E+03  0.25500000000E-02 0.  1.
         -2   -1    0    0    0  501 -0.00000000000E+00 -0.00000000000E+00 -0.18764473369E+03  0.18764473370E+03  0.25500000000E-02 0. -1.
    5000001    1    1    2    0    0  0.12544597686E+03 -0.17278599383E+03  0.21579134215E+03  0.35919576295E+03  0.19200000000E+03 0.  0.
   -5000001    1    1    2    0    0 -0.12544597686E+03  0.17278599383E+03  0.61851806236E+02  0.29373685283E+03  0.19200000000E+03 0.  0.
<mgrwt>
<rscale>  0 0.59096132E+03</rscale>
<asrwt>0</asrwt>
<pdfrwt beam="1">  1        2 0.66469698E-01 0.59096132E+03</pdfrwt>
<pdfrwt beam="2">  1       -2 0.26806390E-01 0.59096132E+03</pdfrwt>
<totfact> 0.92258900E+02</totfact>
</mgrwt>
</event>
<event>
 4    1  0.1896644E-005  0.1237180E+04  0.7818608E-02  0.9080922E-01
         -2   -1    0    0    0  501 -0.00000000000E+00  0.00000000000E+00  0.11736740052E+03  0.11736740055E+03  0.25500000000E-02 0. -1.
          2   -1    0    0  501    0  0.00000000000E+00 -0.00000000000E+00 -0.32603034944E+04  0.32603034944E+04  0.25500000000E-02 0.  1.
    5000001    1    1    2    0    0 -0.43987115148E+03  0.24928007370E+03 -0.23912469443E+04  0.24516429458E+04  0.19200000000E+03 0.  0.
   -5000001    1    1    2    0    0  0.43987115148E+03 -0.24928007370E+03 -0.75168914963E+03  0.92602794921E+03  0.19200000000E+03 0.  0.
<mgrwt>
<rscale>  0 0.12371796E+04</rscale>
<asrwt>0</asrwt>
<pdfrwt beam="1">  1        2 0.46575758E+00 0.12371796E+04</pdfrwt>
<pdfrwt beam="2">  1       -2 0.16766774E-01 0.12371796E+04</pdfrwt>
<totfact> 0.48550315E+01</totfact>
</mgrwt>
</event>
<event>
 4    1  0.1896644E-005  0.4562292E+03  0.7818608E-02  0.1025881E+00
          2   -1    0    0  501    0  0.00000000000E+00  0.00000000000E+00  0.75228341735E+03  0.75228341736E+03  0.25500000000E-02 0.  1.
         -2   -1    0    0    0  501 -0.00000000000E+00 -0.00000000000E+00 -0.69171095520E+02  0.69171095567E+02  0.25500000000E-02 0. -1.
    5000001    1    1    2    0    0  0.75901877974E+02 -0.26214425920E+02  0.50972971682E+03  0.55057849160E+03  0.19200000000E+03 0.  0.
   -5000001    1    1    2    0    0 -0.75901877974E+02  0.26214425920E+02  0.17338260502E+03  0.27087602132E+03  0.19200000000E+03 0.  0.
<mgrwt>
<rscale>  0 0.45622919E+03</rscale>
<asrwt>0</asrwt>
<pdfrwt beam="1">  1        2 0.10746906E+00 0.45622919E+03</pdfrwt>
<pdfrwt beam="2">  1       -2 0.98815850E-02 0.45622919E+03</pdfrwt>
<totfact> 0.28623050E+03</totfact>
</mgrwt>
</event>
<event>
 4    1  0.1896644E-005  0.6863608E+03  0.7818608E-02  0.9740845E-01
          2   -1    0    0  501    0  0.00000000000E+00  0.00000000000E+00  0.76226024868E+03  0.76226024868E+03  0.25500000000E-02 0.  1.
         -2   -1    0    0    0  501 -0.00000000000E+00 -0.00000000000E+00 -0.15450471104E+03  0.15450471106E+03  0.25500000000E-02 0. -1.
    5000001    1    1    2    0    0  0.10329578543E+03 -0.26316883626E+03  0.34571159367E+03  0.48611558468E+03  0.19200000000E+03 0.  0.
   -5000001    1    1    2    0    0 -0.10329578543E+03  0.26316883626E+03  0.26204394397E+03  0.43064937506E+03  0.19200000000E+03 0.  0.
<mgrwt>
<rscale>  0 0.68636084E+03</rscale>
<asrwt>0</asrwt>
<pdfrwt beam="1">  1        2 0.10889432E+00 0.68636084E+03</pdfrwt>
<pdfrwt beam="2">  1       -2 0.22072102E-01 0.68636084E+03</pdfrwt>
<totfact> 0.72741197E+02</totfact>
</mgrwt>
</event>
<event>
 4    1  0.1896644E-005  0.5533972E+03  0.7818608E-02  0.1000711E+00
         -2   -1    0    0    0  501 -0.00000000000E+00  0.00000000000E+00  0.37351091293E+03  0.37351091294E+03  0.25500000000E-02 0. -1.
          2   -1    0    0  501    0  0.00000000000E+00 -0.00000000000E+00 -0.20497957027E+03  0.20497957029E+03  0.25500000000E-02 0.  1.
    5000001    1    1    2    0    0  0.11618704308E+03  0.96763805749E+02  0.21990060682E+03  0.32875969942E+03  0.19200000000E+03 0.  0.
   -5000001    1    1    2    0    0 -0.11618704308E+03 -0.96763805749E+02 -0.51369264165E+02  0.24973078381E+03  0.19200000000E+03 0.  0.
<mgrwt>
<rscale>  0 0.55339717E+03</rscale>
<asrwt>0</asrwt>
<pdfrwt beam="1">  1        2 0.29282796E-01 0.55339717E+03</pdfrwt>
<pdfrwt beam="2">  1       -2 0.53358702E-01 0.55339717E+03</pdfrwt>
<totfact> 0.60976051E+02</totfact>
</mgrwt>
</event>
<event>
 4    1  0.1896644E-005  0.4794940E+03  0.7818608E-02  0.1019274E+00
         -2   -1    0    0    0  501 -0.00000000000E+00  0.00000000000E+00  0.12701448274E+02  0.12701448530E+02  0.25500000000E-02 0. -1.
          2   -1    0    0  501    0  0.00000000000E+00 -0.00000000000E+00 -0.45253595499E+04  0.45253595499E+04  0.25500000000E-02 0.  1.
    5000001    1    1    2    0    0  0.12752992667E+03 -0.62991481574E+02 -0.24415029913E+04  0.24531678836E+04  0.19200000000E+03 0.  0.
   -5000001    1    1    2    0    0 -0.12752992667E+03  0.62991481574E+02 -0.20711551104E+04  0.20848931148E+04  0.19200000000E+03 0.  0.
<mgrwt>
<rscale>  0 0.47949399E+03</rscale>
<asrwt>0</asrwt>
<pdfrwt beam="1">  1        2 0.64647891E+00 0.47949399E+03</pdfrwt>
<pdfrwt beam="2">  1       -2 0.18144955E-02 0.47949399E+03</pdfrwt>
<totfact> 0.26123237E+02</totfact>
</mgrwt>
</event>
<event>
 4    1  0.1896644E-005  0.8541185E+03  0.7818608E-02  0.9484826E-01
         -2   -1    0    0    0  501 -0.00000000000E+00  0.00000000000E+00  0.68251428777E+02  0.68251428825E+02  0.25500000000E-02 0. -1.
          2   -1    0    0  501    0  0.00000000000E+00 -0.00000000000E+00 -0.26721727029E+04  0.26721727029E+04  0.25500000000E-02 0.  1.
    5000001    1    1    2    0    0 -0.22192383314E+03  0.23761184798E+03 -0.19420993150E+04  0.19784648916E+04  0.19200000000E+03 0.  0.
   -5000001    1    1    2    0    0  0.22192383314E+03 -0.23761184798E+03 -0.66182195911E+03  0.76195924010E+03  0.19200000000E+03 0.  0.
<mgrwt>
<rscale>  0 0.85411850E+03</rscale>
<asrwt>0</asrwt>
<pdfrwt beam="1">  1        2 0.38173889E+00 0.85411850E+03</pdfrwt>
<pdfrwt beam="2">  1       -2 0.97502058E-02 0.85411850E+03</pdfrwt>
<totfact> 0.26235909E+02</totfact>
</mgrwt>
</event>
<event>
 4    1  0.1896644E-005  0.6423735E+03  0.7818608E-02  0.9821196E-01
         -2   -1    0    0    0  501 -0.00000000000E+00  0.00000000000E+00  0.15682695097E+04  0.15682695097E+04  0.25500000000E-02 0. -1.
          2   -1    0    0  501    0  0.00000000000E+00 -0.00000000000E+00 -0.65780103619E+02  0.65780103669E+02  0.25500000000E-02 0.  1.
    5000001    1    1    2    0    0 -0.25045156468E+03 -0.37318177310E+01  0.59953244970E+03  0.67752717360E+03  0.19200000000E+03 0.  0.
   -5000001    1    1    2    0    0  0.25045156468E+03  0.37318177310E+01  0.90295695636E+03  0.95652243976E+03  0.19200000000E+03 0.  0.
<mgrwt>
<rscale>  0 0.64237351E+03</rscale>
<asrwt>0</asrwt>
<pdfrwt beam="1">  1        2 0.93971577E-02 0.64237351E+03</pdfrwt>
<pdfrwt beam="2">  1       -2 0.22403850E+00 0.64237351E+03</pdfrwt>
<totfact> 0.69031614E+01</totfact>
</mgrwt>
</event>
<event>
 4    1  0.1896644E-005  0.6489899E+03  0.7818608E-02  0.9808677E-01
         -2   -1    0    0    0  501 -0.00000000000E+00  0.00000000000E+00  0.33172454774E+02  0.33172454872E+02  0.25500000000E-02 0. -1.
          2   -1    0    0  501    0  0.00000000000E+00 -0.00000000000E+00 -0.31742286576E+04  0.31742286576E+04  0.25500000000E-02 0.  1.
    5000001    1    1    2    0    0 -0.20503292685E+03  0.14668028557E+03 -0.19157484069E+04  0.19417799993E+04  0.19200000000E+03 0.  0.
   -5000001    1    1    2    0    0  0.20503292685E+03 -0.14668028557E+03 -0.12253077959E+04  0.12656211131E+04  0.19200000000E+03 0.  0.
<mgrwt>
<rscale>  0 0.64898985E+03</rscale>
<asrwt>0</asrwt>
<pdfrwt beam="1">  1        2 0.45346104E+00 0.64898985E+03</pdfrwt>
<pdfrwt beam="2">  1       -2 0.47389241E-02 0.64898985E+03</pdfrwt>
<totfact> 0.44854889E+02</totfact>
</mgrwt>
</event>
<event>
 4    1  0.1896644E-005  0.7974509E+03  0.7818608E-02  0.9563714E-01
         -2   -1    0    0    0  501 -0.00000000000E+00  0.00000000000E+00  0.15256667573E+03  0.15256667575E+03  0.25500000000E-02 0. -1.
          2   -1    0    0  501    0  0.00000000000E+00 -0.00000000000E+00 -0.10420493084E+04  0.10420493084E+04  0.25500000000E-02 0.  1.
    5000001    1    1    2    0    0 -0.16929309394E+03 -0.95706876996E+02 -0.87968506193E+03  0.92115675438E+03  0.19200000000E+03 0.  0.
   -5000001    1    1    2    0    0  0.16929309394E+03  0.95706876996E+02 -0.97975707550E+01  0.27345922978E+03  0.19200000000E+03 0.  0.
<mgrwt>
<rscale>  0 0.79745094E+03</rscale>
<asrwt>0</asrwt>
<pdfrwt beam="1">  1        2 0.14886418E+00 0.79745094E+03</pdfrwt>
<pdfrwt beam="2">  1       -2 0.21795240E-01 0.79745094E+03</pdfrwt>
<totfact> 0.48654434E+02</totfact>
</mgrwt>
</event>
<event>
 4    1  0.1896644E-005  0.1280131E+04  0.7818608E-02  0.9045472E-01
         -2   -1    0    0    0  501 -0.00000000000E+00  0.00000000000E+00  0.64349466237E+03  0.64349466238E+03  0.25500000000E-02 0. -1.
          2   -1    0    0  501    0  0.00000000000E+00 -0.00000000000E+00 -0.63665456942E+03  0.63665456943E+03  0.25500000000E-02 0.  1.
    5000001    1    1    2    0    0  0.28910443704E+03  0.50897735851E+03 -0.17030776328E+03  0.63914635353E+03  0.19200000000E+03 0.  0.
   -5000001    1    1    2    0    0 -0.28910443704E+03 -0.50897735851E+03  0.17714785623E+03  0.64100287828E+03  0.19200000000E+03 0.  0.
<mgrwt>
<rscale>  0 0.12801310E+04</rscale>
<asrwt>0</asrwt>
<pdfrwt beam="1">  1        2 0.90950653E-01 0.12801310E+04</pdfrwt>
<pdfrwt beam="2">  1       -2 0.91927809E-01 0.12801310E+04</pdfrwt>
<totfact> 0.49992211E+01</totfact>
</mgrwt>
</event>
