<event>
 4    1  0.1330040E-003  0.3895069E+03  0.7818608E-02  0.1047475E+00
         -2   -1    0    0    0  501 -0.00000000000E+00  0.00000000000E+00  0.26025388066E+02  0.26025388191E+02  0.25500000000E-02 0. -1.
          2   -1    0    0  501    0  0.00000000000E+00 -0.00000000000E+00 -0.14573813429E+04  0.14573813429E+04  0.25500000000E-02 0.  1.
    5000001    1    1    2    0    0  0.11814782565E+03  0.92130905236E+02 -0.34344682532E+03  0.38253331127E+03  0.77000000000E+02 0.  0.
   -5000001    1    1    2    0    0 -0.11814782565E+03 -0.92130905236E+02 -0.10879091295E+04  0.11008734198E+04  0.77000000000E+02 0.  0.
<mgrwt>
<rscale>  0 0.38950695E+03</rscale>
<asrwt>0</asrwt>
<pdfrwt beam="1">  1        2 0.20819728E+00 0.38950695E+03</pdfrwt>
<pdfrwt beam="2">  1       -2 0.37179135E-02 0.38950695E+03</pdfrwt>
<totfact> 0.50530049E+03</totfact>
</mgrwt>
</event>
<event>
 4    1  0.1330040E-003  0.1821171E+03  0.7818608E-02  0.1165770E+00
         -2   -1    0    0    0  501 -0.00000000000E+00  0.00000000000E+00  0.31133667755E+01  0.31133678198E+01  0.25500000000E-02 0. -1.
          2   -1    0    0  501    0  0.00000000000E+00 -0.00000000000E+00 -0.26632441333E+04  0.26632441333E+04  0.25500000000E-02 0.  1.
    5000001    1    1    2    0    0  0.24334079608E+02  0.42075331615E+02 -0.13362116460E+04  0.13393106600E+04  0.77000000000E+02 0.  0.
   -5000001    1    1    2    0    0 -0.24334079608E+02 -0.42075331615E+02 -0.13239191206E+04  0.13270468412E+04  0.77000000000E+02 0.  0.
<mgrwt>
<rscale>  0 0.18211707E+03</rscale>
<asrwt>0</asrwt>
<pdfrwt beam="1">  1        2 0.38046199E+00 0.18211707E+03</pdfrwt>
<pdfrwt beam="2">  1       -2 0.44476846E-03 0.18211707E+03</pdfrwt>
<totfact> 0.28114747E+04</totfact>
</mgrwt>
</event>
<event>
 4    1  0.1330040E-003  0.4731875E+03  0.7818608E-02  0.1021024E+00
          2   -1    0    0  501    0  0.00000000000E+00  0.00000000000E+00  0.65409616311E+02  0.65409616361E+02  0.25500000000E-02 0.  1.
         -2   -1    0    0    0  501 -0.00000000000E+00 -0.00000000000E+00 -0.85578545366E+03  0.85578545366E+03  0.25500000000E-02 0. -1.
    5000001    1    1    2    0    0 -0.17522995728E+03  0.13731571499E+03 -0.35225014205E+03  0.42375736700E+03  0.77000000000E+02 0.  0.
   -5000001    1    1    2    0    0  0.17522995728E+03 -0.13731571499E+03 -0.43812569529E+03  0.49743770302E+03  0.77000000000E+02 0.  0.
<mgrwt>
<rscale>  0 0.47318748E+03</rscale>
<asrwt>0</asrwt>
<pdfrwt beam="1">  1        2 0.93442314E-02 0.47318748E+03</pdfrwt>
<pdfrwt beam="2">  1       -2 0.12225506E+00 0.47318748E+03</pdfrwt>
<totfact> 0.37183618E+02</totfact>
</mgrwt>
</event>
<event>
 4    1  0.1330040E-003  0.3298596E+03  0.7818608E-02  0.1071199E+00
          2   -1    0    0  501    0  0.00000000000E+00  0.00000000000E+00  0.11320605606E+04  0.11320605606E+04  0.25500000000E-02 0.  1.
         -2   -1    0    0    0  501 -0.00000000000E+00 -0.00000000000E+00 -0.24028600462E+02  0.24028600597E+02  0.25500000000E-02 0. -1.
    5000001    1    1    2    0    0 -0.14285712587E+03  0.27470251340E+02  0.51724774218E+03  0.54280475303E+03  0.77000000000E+02 0.  0.
   -5000001    1    1    2    0    0  0.14285712587E+03 -0.27470251340E+02  0.59078421798E+03  0.61328440819E+03  0.77000000000E+02 0.  0.
<mgrwt>
<rscale>  0 0.32985955E+03</rscale>
<asrwt>0</asrwt>
<pdfrwt beam="1">  1        2 0.16172294E+00 0.32985955E+03</pdfrwt>
<pdfrwt beam="2">  1       -2 0.34326571E-02 0.32985955E+03</pdfrwt>
<totfact> 0.84904139E+03</totfact>
</mgrwt>
</event>
<event>
 4    1  0.1330040E-003  0.1772925E+03  0.7818608E-02  0.1170449E+00
          2   -1    0    0  501    0  0.00000000000E+00  0.00000000000E+00  0.31453131057E+03  0.31453131058E+03  0.25500000000E-02 0.  1.
         -2   -1    0    0    0  501 -0.00000000000E+00 -0.00000000000E+00 -0.24983698520E+02  0.24983698650E+02  0.25500000000E-02 0. -1.
    5000001    1    1    2    0    0  0.19179253153E+02 -0.37292087599E+02  0.11976037016E+03  0.14842536781E+03  0.77000000000E+02 0.  0.
   -5000001    1    1    2    0    0 -0.19179253153E+02  0.37292087599E+02  0.16978724189E+03  0.19108964142E+03  0.77000000000E+02 0.  0.
<mgrwt>
<rscale>  0 0.17729248E+03</rscale>
<asrwt>0</asrwt>
<pdfrwt beam="1">  1        2 0.44933044E-01 0.17729248E+03</pdfrwt>
<pdfrwt beam="2">  1       -2 0.35690999E-02 0.17729248E+03</pdfrwt>
<totfact> 0.34948738E+04</totfact>
</mgrwt>
</event>
<event>
 4    1  0.1330040E-003  0.1916175E+03  0.7818608E-02  0.1157011E+00
         -2   -1    0    0    0  501 -0.00000000000E+00  0.00000000000E+00  0.22544273531E+01  0.22544287953E+01  0.25500000000E-02 0. -1.
          2   -1    0    0  501    0  0.00000000000E+00 -0.00000000000E+00 -0.40716824099E+04  0.40716824099E+04  0.25500000000E-02 0.  1.
    5000001    1    1    2    0    0  0.39812365487E+02  0.35603844626E+02 -0.24586823430E+04  0.24604675413E+04  0.77000000000E+02 0.  0.
   -5000001    1    1    2    0    0 -0.39812365487E+02 -0.35603844626E+02 -0.16107456395E+04  0.16134692973E+04  0.77000000000E+02 0.  0.
<mgrwt>
<rscale>  0 0.19161748E+03</rscale>
<asrwt>0</asrwt>
<pdfrwt beam="1">  1        2 0.58166420E+00 0.19161748E+03</pdfrwt>
<pdfrwt beam="2">  1       -2 0.32206376E-03 0.19161748E+03</pdfrwt>
<totfact> 0.71404217E+03</totfact>
</mgrwt>
</event>
<event>
 4    1  0.1330040E-003  0.2788542E+03  0.7818608E-02  0.1096316E+00
          2   -1    0    0  501    0  0.00000000000E+00  0.00000000000E+00  0.31462260434E+04  0.31462260434E+04  0.25500000000E-02 0.  1.
         -2   -1    0    0    0  501 -0.00000000000E+00 -0.00000000000E+00 -0.61788062157E+01  0.61788067419E+01  0.25500000000E-02 0. -1.
    5000001    1    1    2    0    0 -0.92379062095E+02 -0.49440264454E+02  0.21389496919E+04  0.21428982746E+04  0.77000000000E+02 0.  0.
   -5000001    1    1    2    0    0  0.92379062095E+02  0.49440264454E+02  0.10010975453E+04  0.10095065755E+04  0.77000000000E+02 0.  0.
<mgrwt>
<rscale>  0 0.27885424E+03</rscale>
<asrwt>0</asrwt>
<pdfrwt beam="1">  1        2 0.44946198E+00 0.27885424E+03</pdfrwt>
<pdfrwt beam="2">  1       -2 0.88268445E-03 0.27885424E+03</pdfrwt>
<totfact> 0.59223111E+03</totfact>
</mgrwt>
</event>
<event>
 4    1  0.1330040E-003  0.2174520E+03  0.7818608E-02  0.1135797E+00
         -2   -1    0    0    0  501 -0.00000000000E+00  0.00000000000E+00  0.11655790052E+02  0.11655790331E+02  0.25500000000E-02 0. -1.
          2   -1    0    0  501    0  0.00000000000E+00 -0.00000000000E+00 -0.10142039402E+04  0.10142039402E+04  0.25500000000E-02 0.  1.
    5000001    1    1    2    0    0  0.45617323956E+02  0.46564141123E+02 -0.69250944475E+03  0.69981961286E+03  0.77000000000E+02 0.  0.
   -5000001    1    1    2    0    0 -0.45617323956E+02 -0.46564141123E+02 -0.31003870536E+03  0.32604011763E+03  0.77000000000E+02 0.  0.
<mgrwt>
<rscale>  0 0.21745205E+03</rscale>
<asrwt>0</asrwt>
<pdfrwt beam="1">  1        2 0.14488622E+00 0.21745205E+03</pdfrwt>
<pdfrwt beam="2">  1       -2 0.16651135E-02 0.21745205E+03</pdfrwt>
<totfact> 0.28394915E+04</totfact>
</mgrwt>
</event>
<event>
 4    1  0.1330040E-003  0.2017420E+03  0.7818608E-02  0.1148278E+00
         -2   -1    0    0    0  501 -0.00000000000E+00  0.00000000000E+00  0.37159414230E+02  0.37159414318E+02  0.25500000000E-02 0. -1.
          2   -1    0    0  501    0  0.00000000000E+00 -0.00000000000E+00 -0.27381899939E+03  0.27381899940E+03  0.25500000000E-02 0.  1.
    5000001    1    1    2    0    0 -0.54483456000E+00  0.62970508406E+02 -0.14414057937E+03  0.17513163162E+03  0.77000000000E+02 0.  0.
   -5000001    1    1    2    0    0  0.54483456000E+00 -0.62970508406E+02 -0.92519005788E+02  0.13584678210E+03  0.77000000000E+02 0.  0.
<mgrwt>
<rscale>  0 0.20174195E+03</rscale>
<asrwt>0</asrwt>
<pdfrwt beam="1">  1        2 0.39116999E-01 0.20174195E+03</pdfrwt>
<pdfrwt beam="2">  1       -2 0.53084879E-02 0.20174195E+03</pdfrwt>
<totfact> 0.22583471E+04</totfact>
</mgrwt>
</event>
<event>
 4    1  0.1330040E-003  0.3714650E+03  0.7818608E-02  0.1054134E+00
          2   -1    0    0  501    0  0.00000000000E+00  0.00000000000E+00  0.52788872069E+03  0.52788872069E+03  0.25500000000E-02 0.  1.
         -2   -1    0    0    0  501 -0.00000000000E+00 -0.00000000000E+00 -0.65348168797E+02  0.65348168847E+02  0.25500000000E-02 0. -1.
    5000001    1    1    2    0    0  0.12312607278E+03 -0.10846856603E+03  0.29598606738E+03  0.34707666545E+03  0.77000000000E+02 0.  0.
   -5000001    1    1    2    0    0 -0.12312607278E+03  0.10846856603E+03  0.16655448451E+03  0.24616022409E+03  0.77000000000E+02 0.  0.
<mgrwt>
<rscale>  0 0.37146500E+03</rscale>
<asrwt>0</asrwt>
<pdfrwt beam="1">  1        2 0.75412675E-01 0.37146500E+03</pdfrwt>
<pdfrwt beam="2">  1       -2 0.93354526E-02 0.37146500E+03</pdfrwt>
<totfact> 0.47418914E+03</totfact>
</mgrwt>
</event>
<event>
 4    1  0.1330040E-003  0.2012248E+03  0.7818608E-02  0.1148710E+00
         -2   -1    0    0    0  501 -0.00000000000E+00  0.00000000000E+00  0.27458235232E+02  0.27458235351E+02  0.25500000000E-02 0. -1.
          2   -1    0    0  501    0  0.00000000000E+00 -0.00000000000E+00 -0.36866375903E+03  0.36866375904E+03  0.25500000000E-02 0.  1.
    5000001    1    1    2    0    0 -0.14136288940E+02 -0.55949420210E+02 -0.22845562443E+03  0.24789341383E+03  0.77000000000E+02 0.  0.
   -5000001    1    1    2    0    0  0.14136288940E+02  0.55949420210E+02 -0.11274989936E+03  0.14822858056E+03  0.77000000000E+02 0.  0.
<mgrwt>
<rscale>  0 0.20122481E+03</rscale>
<asrwt>0</asrwt>
<pdfrwt beam="1">  1        2 0.52666248E-01 0.20122481E+03</pdfrwt>
<pdfrwt beam="2">  1       -2 0.39226053E-02 0.20122481E+03</pdfrwt>
<totfact> 0.25901775E+04</totfact>
</mgrwt>
</event>
<event>
 4    1  0.1330040E-003  0.2443848E+03  0.7818608E-02  0.1116906E+00
         -2   -1    0    0    0  501 -0.00000000000E+00  0.00000000000E+00  0.45259215824E+02  0.45259215896E+02  0.25500000000E-02 0. -1.
          2   -1    0    0  501    0  0.00000000000E+00 -0.00000000000E+00 -0.32989935994E+03  0.32989935995E+03  0.25500000000E-02 0.  1.
    5000001    1    1    2    0    0 -0.12301536564E+02 -0.51137802912E+02 -0.26354144230E+03  0.27955231085E+03  0.77000000000E+02 0.  0.
   -5000001    1    1    2    0    0  0.12301536564E+02  0.51137802912E+02 -0.21098701809E+02  0.95606264996E+02  0.77000000000E+02 0.  0.
<mgrwt>
<rscale>  0 0.24438483E+03</rscale>
<asrwt>0</asrwt>
<pdfrwt beam="1">  1        2 0.47128479E-01 0.24438483E+03</pdfrwt>
<pdfrwt beam="2">  1       -2 0.64656024E-02 0.24438483E+03</pdfrwt>
<totfact> 0.13860402E+04</totfact>
</mgrwt>
</event>
<event>
 4    1  0.1330040E-003  0.4632308E+03  0.7818608E-02  0.1023848E+00
         -2   -1    0    0    0  501 -0.00000000000E+00  0.00000000000E+00  0.98564933962E+03  0.98564933962E+03  0.25500000000E-02 0. -1.
          2   -1    0    0  501    0  0.00000000000E+00 -0.00000000000E+00 -0.54426747708E+02  0.54426747767E+02  0.25500000000E-02 0.  1.
    5000001    1    1    2    0    0 -0.26699312126E+02 -0.20907047084E+03  0.33676018672E+03  0.40467238404E+03  0.77000000000E+02 0.  0.
   -5000001    1    1    2    0    0  0.26699312126E+02  0.20907047084E+03  0.59446240519E+03  0.63540370335E+03  0.77000000000E+02 0.  0.
<mgrwt>
<rscale>  0 0.46323078E+03</rscale>
<asrwt>0</asrwt>
<pdfrwt beam="1">  1        2 0.77752495E-02 0.46323078E+03</pdfrwt>
<pdfrwt beam="2">  1       -2 0.14080705E+00 0.46323078E+03</pdfrwt>
<totfact> 0.33004774E+02</totfact>
</mgrwt>
</event>
<event>
 4    1  0.1330040E-003  0.2183298E+03  0.7818608E-02  0.1135134E+00
          2   -1    0    0  501    0  0.00000000000E+00  0.00000000000E+00  0.11858802557E+04  0.11858802557E+04  0.25500000000E-02 0.  1.
         -2   -1    0    0    0  501 -0.00000000000E+00 -0.00000000000E+00 -0.10049051492E+02  0.10049051816E+02  0.25500000000E-02 0. -1.
    5000001    1    1    2    0    0  0.27613071120E+02 -0.52226957309E+02  0.86167840824E+03  0.86712675890E+03  0.77000000000E+02 0.  0.
   -5000001    1    1    2    0    0 -0.27613071120E+02  0.52226957309E+02  0.31415279598E+03  0.32880254864E+03  0.77000000000E+02 0.  0.
<mgrwt>
<rscale>  0 0.21832977E+03</rscale>
<asrwt>0</asrwt>
<pdfrwt beam="1">  1        2 0.16941146E+00 0.21832977E+03</pdfrwt>
<pdfrwt beam="2">  1       -2 0.14355788E-02 0.21832977E+03</pdfrwt>
<totfact> 0.28251753E+04</totfact>
</mgrwt>
</event>
<event>
 4    1  0.1330040E-003  0.3215389E+03  0.7818608E-02  0.1074943E+00
         -2   -1    0    0    0  501 -0.00000000000E+00  0.00000000000E+00  0.55091545108E+02  0.55091545167E+02  0.25500000000E-02 0. -1.
          2   -1    0    0  501    0  0.00000000000E+00 -0.00000000000E+00 -0.46916117521E+03  0.46916117521E+03  0.25500000000E-02 0.  1.
    5000001    1    1    2    0    0 -0.49572682335E+02  0.12843238911E+03 -0.15637310136E+03  0.22211230546E+03  0.77000000000E+02 0.  0.
   -5000001    1    1    2    0    0  0.49572682335E+02 -0.12843238911E+03 -0.25769652874E+03  0.30214041492E+03  0.77000000000E+02 0.  0.
<mgrwt>
<rscale>  0 0.32153889E+03</rscale>
<asrwt>0</asrwt>
<pdfrwt beam="1">  1        2 0.67023022E-01 0.32153889E+03</pdfrwt>
<pdfrwt beam="2">  1       -2 0.78702210E-02 0.32153889E+03</pdfrwt>
<totfact> 0.70555265E+03</totfact>
</mgrwt>
</event>
<event>
 4    1  0.1330040E-003  0.5429346E+03  0.7818608E-02  0.1003143E+00
         -2   -1    0    0    0  501 -0.00000000000E+00  0.00000000000E+00  0.18504290440E+03  0.18504290442E+03  0.25500000000E-02 0. -1.
          2   -1    0    0  501    0  0.00000000000E+00 -0.00000000000E+00 -0.39825630533E+03  0.39825630534E+03  0.25500000000E-02 0.  1.
    5000001    1    1    2    0    0 -0.95564261552E+02 -0.16609064447E+03 -0.29590764361E+03  0.36084479186E+03  0.77000000000E+02 0.  0.
   -5000001    1    1    2    0    0  0.95564261552E+02  0.16609064447E+03  0.82694242686E+02  0.22245441789E+03  0.77000000000E+02 0.  0.
<mgrwt>
<rscale>  0 0.54293463E+03</rscale>
<asrwt>0</asrwt>
<pdfrwt beam="1">  1        2 0.56893758E-01 0.54293463E+03</pdfrwt>
<pdfrwt beam="2">  1       -2 0.26434701E-01 0.54293463E+03</pdfrwt>
<totfact> 0.11259584E+03</totfact>
</mgrwt>
</event>
<event>
 4    1  0.1330040E-003  0.1766716E+03  0.7818608E-02  0.1171064E+00
         -2   -1    0    0    0  501 -0.00000000000E+00  0.00000000000E+00  0.37435884873E+02  0.37435884960E+02  0.25500000000E-02 0. -1.
          2   -1    0    0  501    0  0.00000000000E+00 -0.00000000000E+00 -0.20844195831E+03  0.20844195832E+03  0.25500000000E-02 0.  1.
    5000001    1    1    2    0    0  0.28615663030E+02 -0.23800557282E+02 -0.54730961604E+02  0.10153718952E+03  0.77000000000E+02 0.  0.
   -5000001    1    1    2    0    0 -0.28615663030E+02  0.23800557282E+02 -0.11627511183E+03  0.14434065376E+03  0.77000000000E+02 0.  0.
<mgrwt>
<rscale>  0 0.17667155E+03</rscale>
<asrwt>0</asrwt>
<pdfrwt beam="1">  1        2 0.29777422E-01 0.17667155E+03</pdfrwt>
<pdfrwt beam="2">  1       -2 0.53479837E-02 0.17667155E+03</pdfrwt>
<totfact> 0.29654657E+04</totfact>
</mgrwt>
</event>
<event>
 4    1  0.1330040E-003  0.3035381E+03  0.7818608E-02  0.1083485E+00
          2   -1    0    0  501    0  0.00000000000E+00  0.00000000000E+00  0.77605849044E+03  0.77605849044E+03  0.25500000000E-02 0.  1.
         -2   -1    0    0    0  501 -0.00000000000E+00 -0.00000000000E+00 -0.29680545643E+02  0.29680545753E+02  0.25500000000E-02 0. -1.
    5000001    1    1    2    0    0 -0.54474667849E+02 -0.75068076441E+02  0.61795165958E+03  0.62959984047E+03  0.77000000000E+02 0.  0.
   -5000001    1    1    2    0    0  0.54474667849E+02  0.75068076441E+02  0.12842628522E+03  0.17613919573E+03  0.77000000000E+02 0.  0.
<mgrwt>
<rscale>  0 0.30353807E+03</rscale>
<asrwt>0</asrwt>
<pdfrwt beam="1">  1        2 0.11086550E+00 0.30353807E+03</pdfrwt>
<pdfrwt beam="2">  1       -2 0.42400780E-02 0.30353807E+03</pdfrwt>
<totfact> 0.10190523E+04</totfact>
</mgrwt>
</event>
<event>
 4    1  0.1330040E-003  0.2253354E+03  0.7818608E-02  0.1129967E+00
         -2   -1    0    0    0  501 -0.00000000000E+00  0.00000000000E+00  0.50589311226E+02  0.50589311290E+02  0.25500000000E-02 0. -1.
          2   -1    0    0  501    0  0.00000000000E+00 -0.00000000000E+00 -0.25092277375E+03  0.25092277376E+03  0.25500000000E-02 0.  1.
    5000001    1    1    2    0    0  0.67030057292E+02  0.47324991557E+02 -0.92558961948E+02  0.14570121771E+03  0.77000000000E+02 0.  0.
   -5000001    1    1    2    0    0 -0.67030057292E+02 -0.47324991557E+02 -0.10777450057E+03  0.15581086734E+03  0.77000000000E+02 0.  0.
<mgrwt>
<rscale>  0 0.22533540E+03</rscale>
<asrwt>0</asrwt>
<pdfrwt beam="1">  1        2 0.35846110E-01 0.22533540E+03</pdfrwt>
<pdfrwt beam="2">  1       -2 0.72270446E-02 0.22533540E+03</pdfrwt>
<totfact> 0.15590327E+04</totfact>
</mgrwt>
</event>
<event>
 4    1  0.1330040E-003  0.4304534E+03  0.7818608E-02  0.1033717E+00
         -2   -1    0    0    0  501 -0.00000000000E+00  0.00000000000E+00  0.27046331017E+02  0.27046331137E+02  0.25500000000E-02 0. -1.
          2   -1    0    0  501    0  0.00000000000E+00 -0.00000000000E+00 -0.17127104092E+04  0.17127104092E+04  0.25500000000E-02 0.  1.
    5000001    1    1    2    0    0  0.35482248150E+02  0.83524760972E+02 -0.11804910296E+03  0.16763044574E+03  0.77000000000E+02 0.  0.
   -5000001    1    1    2    0    0 -0.35482248150E+02 -0.83524760972E+02 -0.15676149752E+04  0.15721262946E+04  0.77000000000E+02 0.  0.
<mgrwt>
<rscale>  0 0.43045340E+03</rscale>
<asrwt>0</asrwt>
<pdfrwt beam="1">  1        2 0.24467285E+00 0.43045340E+03</pdfrwt>
<pdfrwt beam="2">  1       -2 0.38637627E-02 0.43045340E+03</pdfrwt>
<totfact> 0.35359970E+03</totfact>
</mgrwt>
</event>
<event>
 4    1  0.1330040E-003  0.6274590E+03  0.7818608E-02  0.9850020E-01
          2   -1    0    0  501    0  0.00000000000E+00  0.00000000000E+00  0.81566275663E+03  0.81566275663E+03  0.25500000000E-02 0.  1.
         -2   -1    0    0    0  501 -0.00000000000E+00 -0.00000000000E+00 -0.12067019838E+03  0.12067019841E+03  0.25500000000E-02 0. -1.
    5000001    1    1    2    0    0 -0.12495102676E+03 -0.17269073193E+03  0.23767181969E+02  0.22787875487E+03  0.77000000000E+02 0.  0.
   -5000001    1    1    2    0    0  0.12495102676E+03  0.17269073193E+03  0.67122537627E+03  0.70845420017E+03  0.77000000000E+02 0.  0.
<mgrwt>
<rscale>  0 0.62745896E+03</rscale>
<asrwt>0</asrwt>
<pdfrwt beam="1">  1        2 0.11652325E+00 0.62745896E+03</pdfrwt>
<pdfrwt beam="2">  1       -2 0.17238600E-01 0.62745896E+03</pdfrwt>
<totfact> 0.10270391E+03</totfact>
</mgrwt>
</event>
<event>
 4    1  0.1330040E-003  0.2322804E+03  0.7818608E-02  0.1125045E+00
         -2   -1    0    0    0  501 -0.00000000000E+00  0.00000000000E+00  0.23703022593E+04  0.23703022593E+04  0.25500000000E-02 0. -1.
          2   -1    0    0  501    0  0.00000000000E+00 -0.00000000000E+00 -0.56906414477E+01  0.56906420190E+01  0.25500000000E-02 0.  1.
    5000001    1    1    2    0    0 -0.85298561941E+02  0.12118435696E+02  0.10626485960E+04  0.10689124098E+04  0.77000000000E+02 0.  0.
   -5000001    1    1    2    0    0  0.85298561941E+02 -0.12118435696E+02  0.13019630218E+04  0.13070804915E+04  0.77000000000E+02 0.  0.
<mgrwt>
<rscale>  0 0.23228036E+03</rscale>
<asrwt>0</asrwt>
<pdfrwt beam="1">  1        2 0.81294934E-03 0.23228036E+03</pdfrwt>
<pdfrwt beam="2">  1       -2 0.33861439E+00 0.23228036E+03</pdfrwt>
<totfact> 0.41763644E+02</totfact>
</mgrwt>
</event>
<event>
 4    1  0.1330040E-003  0.2427355E+03  0.7818608E-02  0.1117984E+00
         -2   -1    0    0    0  501 -0.00000000000E+00  0.00000000000E+00  0.16859022113E+02  0.16859022306E+02  0.25500000000E-02 0. -1.
          2   -1    0    0  501    0  0.00000000000E+00 -0.00000000000E+00 -0.87372359328E+03  0.87372359329E+03  0.25500000000E-02 0.  1.
    5000001    1    1    2    0    0  0.19116211495E+02 -0.30460947308E+02 -0.74633783703E+03  0.75116074567E+03  0.77000000000E+02 0.  0.
   -5000001    1    1    2    0    0 -0.19116211495E+02  0.30460947308E+02 -0.11052673414E+03  0.13942186992E+03  0.77000000000E+02 0.  0.
<mgrwt>
<rscale>  0 0.24273546E+03</rscale>
<asrwt>0</asrwt>
<pdfrwt beam="1">  1        2 0.12481763E+00 0.24273546E+03</pdfrwt>
<pdfrwt beam="2">  1       -2 0.24084323E-02 0.24273546E+03</pdfrwt>
<totfact> 0.20236651E+04</totfact>
</mgrwt>
</event>
<event>
 4    1  0.1330040E-003  0.2286559E+03  0.7818608E-02  0.1127589E+00
         -2   -1    0    0    0  501 -0.00000000000E+00  0.00000000000E+00  0.42407716444E+02  0.42407716521E+02  0.25500000000E-02 0. -1.
          2   -1    0    0  501    0  0.00000000000E+00 -0.00000000000E+00 -0.30821950953E+03  0.30821950954E+03  0.25500000000E-02 0.  1.
    5000001    1    1    2    0    0  0.38651903141E+02  0.74771867323E+02 -0.14449152622E+03  0.18409672161E+03  0.77000000000E+02 0.  0.
   -5000001    1    1    2    0    0 -0.38651903141E+02 -0.74771867323E+02 -0.12132026686E+03  0.16653050445E+03  0.77000000000E+02 0.  0.
<mgrwt>
<rscale>  0 0.22865595E+03</rscale>
<asrwt>0</asrwt>
<pdfrwt beam="1">  1        2 0.44031357E-01 0.22865595E+03</pdfrwt>
<pdfrwt beam="2">  1       -2 0.60582454E-02 0.22865595E+03</pdfrwt>
<totfact> 0.16409857E+04</totfact>
</mgrwt>
</event>
<event>
 4    1  0.1330040E-003  0.1750351E+03  0.7818608E-02  0.1172696E+00
          2   -1    0    0  501    0  0.00000000000E+00  0.00000000000E+00  0.94908605016E+03  0.94908605016E+03  0.25500000000E-02 0.  1.
         -2   -1    0    0    0  501 -0.00000000000E+00 -0.00000000000E+00 -0.80702094899E+01  0.80702098928E+01  0.25500000000E-02 0. -1.
    5000001    1    1    2    0    0  0.37494600066E+02  0.14669867636E+02  0.41334494090E+03  0.42237908354E+03  0.77000000000E+02 0.  0.
   -5000001    1    1    2    0    0 -0.37494600066E+02 -0.14669867636E+02  0.52767089977E+03  0.53477717651E+03  0.77000000000E+02 0.  0.
<mgrwt>
<rscale>  0 0.17503512E+03</rscale>
<asrwt>0</asrwt>
<pdfrwt beam="1">  1        2 0.13558364E+00 0.17503512E+03</pdfrwt>
<pdfrwt beam="2">  1       -2 0.11528878E-02 0.17503512E+03</pdfrwt>
<totfact> 0.51990920E+04</totfact>
</mgrwt>
</event>
<event>
 4    1  0.1330040E-003  0.1957430E+03  0.7818608E-02  0.1153381E+00
         -2   -1    0    0    0  501 -0.00000000000E+00  0.00000000000E+00  0.49479718897E+02  0.49479718963E+02  0.25500000000E-02 0. -1.
          2   -1    0    0  501    0  0.00000000000E+00 -0.00000000000E+00 -0.19359096909E+03  0.19359096910E+03  0.25500000000E-02 0.  1.
    5000001    1    1    2    0    0  0.21087853092E+02 -0.47792114433E+02 -0.10974217552E+03  0.14387886863E+03  0.77000000000E+02 0.  0.
   -5000001    1    1    2    0    0 -0.21087853092E+02  0.47792114433E+02 -0.34369074673E+02  0.99191819440E+02  0.77000000000E+02 0.  0.
<mgrwt>
<rscale>  0 0.19574296E+03</rscale>
<asrwt>0</asrwt>
<pdfrwt beam="1">  1        2 0.27655852E-01 0.19574296E+03</pdfrwt>
<pdfrwt beam="2">  1       -2 0.70685314E-02 0.19574296E+03</pdfrwt>
<totfact> 0.21185843E+04</totfact>
</mgrwt>
</event>
<event>
 4    1  0.1330040E-003  0.1716575E+03  0.7818608E-02  0.1176130E+00
         -2   -1    0    0    0  501 -0.00000000000E+00  0.00000000000E+00  0.85640299179E+03  0.85640299179E+03  0.25500000000E-02 0. -1.
          2   -1    0    0  501    0  0.00000000000E+00 -0.00000000000E+00 -0.86017629378E+01  0.86017633157E+01  0.25500000000E-02 0.  1.
    5000001    1    1    2    0    0  0.81186114324E+01  0.22447870034E+02  0.27545932288E+03  0.28701333990E+03  0.77000000000E+02 0.  0.
   -5000001    1    1    2    0    0 -0.81186114324E+01 -0.22447870034E+02  0.57234190598E+03  0.57799141521E+03  0.77000000000E+02 0.  0.
<mgrwt>
<rscale>  0 0.17165752E+03</rscale>
<asrwt>0</asrwt>
<pdfrwt beam="1">  1        2 0.12288230E-02 0.17165752E+03</pdfrwt>
<pdfrwt beam="2">  1       -2 0.12234331E+00 0.17165752E+03</pdfrwt>
<totfact> 0.55172049E+03</totfact>
</mgrwt>
</event>
<event>
 4    1  0.1330040E-003  0.3786964E+03  0.7818608E-02  0.1051417E+00
          2   -1    0    0  501    0  0.00000000000E+00  0.00000000000E+00  0.17006570061E+03  0.17006570063E+03  0.25500000000E-02 0.  1.
         -2   -1    0    0    0  501 -0.00000000000E+00 -0.00000000000E+00 -0.21081697292E+03  0.21081697293E+03  0.25500000000E-02 0. -1.
    5000001    1    1    2    0    0 -0.85209851215E+02  0.54480197302E+02 -0.16152445241E+03  0.20554308397E+03  0.77000000000E+02 0.  0.
   -5000001    1    1    2    0    0  0.85209851215E+02 -0.54480197302E+02  0.12077318010E+03  0.17533958958E+03  0.77000000000E+02 0.  0.
<mgrwt>
<rscale>  0 0.37869638E+03</rscale>
<asrwt>0</asrwt>
<pdfrwt beam="1">  1        2 0.24295100E-01 0.37869638E+03</pdfrwt>
<pdfrwt beam="2">  1       -2 0.30116710E-01 0.37869638E+03</pdfrwt>
<totfact> 0.22711603E+03</totfact>
</mgrwt>
</event>
<event>
 4    1  0.1330040E-003  0.3774101E+03  0.7818608E-02  0.1051895E+00
         -2   -1    0    0    0  501 -0.00000000000E+00  0.00000000000E+00  0.13020444308E+02  0.13020444558E+02  0.25500000000E-02 0. -1.
          2   -1    0    0  501    0  0.00000000000E+00 -0.00000000000E+00 -0.27348984760E+04  0.27348984760E+04  0.25500000000E-02 0.  1.
    5000001    1    1    2    0    0 -0.78184957904E+02 -0.79801159791E+02 -0.40606059351E+03  0.42813002505E+03  0.77000000000E+02 0.  0.
   -5000001    1    1    2    0    0  0.78184957904E+02  0.79801159791E+02 -0.23158174381E+04  0.23197888955E+04  0.77000000000E+02 0.  0.
<mgrwt>
<rscale>  0 0.37741009E+03</rscale>
<asrwt>0</asrwt>
<pdfrwt beam="1">  1        2 0.39069942E+00 0.37741009E+03</pdfrwt>
<pdfrwt beam="2">  1       -2 0.18600652E-02 0.37741009E+03</pdfrwt>
<totfact> 0.32612984E+03</totfact>
</mgrwt>
</event>
<event>
 4    1  0.1330040E-003  0.2366209E+03  0.7818608E-02  0.1122065E+00
         -2   -1    0    0    0  501 -0.00000000000E+00  0.00000000000E+00  0.27724420657E+02  0.27724420774E+02  0.25500000000E-02 0. -1.
          2   -1    0    0  501    0  0.00000000000E+00 -0.00000000000E+00 -0.50487501193E+03  0.50487501194E+03  0.25500000000E-02 0.  1.
    5000001    1    1    2    0    0 -0.60582219138E+02 -0.31402679091E+02 -0.37005362652E+03  0.38408985932E+03  0.77000000000E+02 0.  0.
   -5000001    1    1    2    0    0  0.60582219138E+02  0.31402679091E+02 -0.10709696475E+03  0.14850957339E+03  0.77000000000E+02 0.  0.
<mgrwt>
<rscale>  0 0.23662094E+03</rscale>
<asrwt>0</asrwt>
<pdfrwt beam="1">  1        2 0.72124996E-01 0.23662094E+03</pdfrwt>
<pdfrwt beam="2">  1       -2 0.39606318E-02 0.23662094E+03</pdfrwt>
<totfact> 0.18361267E+04</totfact>
</mgrwt>
</event>
<event>
 4    1  0.1330040E-003  0.2124054E+03  0.7818608E-02  0.1139675E+00
         -2   -1    0    0    0  501 -0.00000000000E+00  0.00000000000E+00  0.76889576959E+01  0.76889581187E+01  0.25500000000E-02 0. -1.
          2   -1    0    0  501    0  0.00000000000E+00 -0.00000000000E+00 -0.14669100900E+04  0.14669100900E+04  0.25500000000E-02 0.  1.
    5000001    1    1    2    0    0 -0.29280081668E+02  0.42790883415E+02 -0.37144645622E+03  0.38287054304E+03  0.77000000000E+02 0.  0.
   -5000001    1    1    2    0    0  0.29280081668E+02 -0.42790883415E+02 -0.10877746761E+04  0.10917285051E+04  0.77000000000E+02 0.  0.
<mgrwt>
<rscale>  0 0.21240537E+03</rscale>
<asrwt>0</asrwt>
<pdfrwt beam="1">  1        2 0.20955841E+00 0.21240537E+03</pdfrwt>
<pdfrwt beam="2">  1       -2 0.10984235E-02 0.21240537E+03</pdfrwt>
<totfact> 0.29704486E+04</totfact>
</mgrwt>
</event>
<event>
 4    1  0.1330040E-003  0.1859732E+03  0.7818608E-02  0.1162144E+00
         -2   -1    0    0    0  501 -0.00000000000E+00  0.00000000000E+00  0.86429451095E+01  0.86429454856E+01  0.25500000000E-02 0. -1.
          2   -1    0    0  501    0  0.00000000000E+00 -0.00000000000E+00 -0.10004117343E+04  0.10004117343E+04  0.25500000000E-02 0.  1.
    5000001    1    1    2    0    0  0.18353675873E+02  0.47577052302E+02 -0.43717760820E+03  0.44682624636E+03  0.77000000000E+02 0.  0.
   -5000001    1    1    2    0    0 -0.18353675873E+02 -0.47577052302E+02 -0.55459118094E+03  0.56222843338E+03  0.77000000000E+02 0.  0.
<mgrwt>
<rscale>  0 0.18597316E+03</rscale>
<asrwt>0</asrwt>
<pdfrwt beam="1">  1        2 0.14291589E+00 0.18597316E+03</pdfrwt>
<pdfrwt beam="2">  1       -2 0.12347071E-02 0.18597316E+03</pdfrwt>
<totfact> 0.44147605E+04</totfact>
</mgrwt>
</event>
<event>
 4    1  0.1330040E-003  0.3827299E+03  0.7818608E-02  0.1049929E+00
          2   -1    0    0  501    0  0.00000000000E+00  0.00000000000E+00  0.62610778688E+03  0.62610778688E+03  0.25500000000E-02 0.  1.
         -2   -1    0    0    0  501 -0.00000000000E+00 -0.00000000000E+00 -0.58489208909E+02  0.58489208965E+02  0.25500000000E-02 0. -1.
    5000001    1    1    2    0    0  0.95841787077E+01  0.16390059860E+03  0.17447342272E+03  0.25164506341E+03  0.77000000000E+02 0.  0.
   -5000001    1    1    2    0    0 -0.95841787077E+01 -0.16390059860E+03  0.39314515525E+03  0.43295193244E+03  0.77000000000E+02 0.  0.
<mgrwt>
<rscale>  0 0.38272993E+03</rscale>
<asrwt>0</asrwt>
<pdfrwt beam="1">  1        2 0.89443964E-01 0.38272993E+03</pdfrwt>
<pdfrwt beam="2">  1       -2 0.83556018E-02 0.38272993E+03</pdfrwt>
<totfact> 0.46520190E+03</totfact>
</mgrwt>
</event>
<event>
 4    1  0.1330040E-003  0.2498768E+03  0.7818608E-02  0.1113383E+00
          2   -1    0    0  501    0  0.00000000000E+00  0.00000000000E+00  0.93265723745E+03  0.93265723746E+03  0.25500000000E-02 0.  1.
         -2   -1    0    0    0  501 -0.00000000000E+00 -0.00000000000E+00 -0.16736701418E+02  0.16736701612E+02  0.25500000000E-02 0. -1.
    5000001    1    1    2    0    0 -0.84091964810E+02  0.17527821392E+02  0.64025153454E+03  0.65056107365E+03  0.77000000000E+02 0.  0.
   -5000001    1    1    2    0    0  0.84091964810E+02 -0.17527821392E+02  0.27566900149E+03  0.29883286541E+03  0.77000000000E+02 0.  0.
<mgrwt>
<rscale>  0 0.24987682E+03</rscale>
<asrwt>0</asrwt>
<pdfrwt beam="1">  1        2 0.13323671E+00 0.24987682E+03</pdfrwt>
<pdfrwt beam="2">  1       -2 0.23909580E-02 0.24987682E+03</pdfrwt>
<totfact> 0.18826795E+04</totfact>
</mgrwt>
</event>
<event>
 4    1  0.1330040E-003  0.2706908E+03  0.7818608E-02  0.1100885E+00
          2   -1    0    0  501    0  0.00000000000E+00  0.00000000000E+00  0.30552370995E+03  0.30552370996E+03  0.25500000000E-02 0.  1.
         -2   -1    0    0    0  501 -0.00000000000E+00 -0.00000000000E+00 -0.59957306361E+02  0.59957306416E+02  0.25500000000E-02 0. -1.
    5000001    1    1    2    0    0 -0.24570101804E+01  0.10413887137E+03  0.17574115686E+03  0.21832291599E+03  0.77000000000E+02 0.  0.
   -5000001    1    1    2    0    0  0.24570101804E+01 -0.10413887137E+03  0.69825246727E+02  0.14715810039E+03  0.77000000000E+02 0.  0.
<mgrwt>
<rscale>  0 0.27069081E+03</rscale>
<asrwt>0</asrwt>
<pdfrwt beam="1">  1        2 0.43646244E-01 0.27069081E+03</pdfrwt>
<pdfrwt beam="2">  1       -2 0.85653295E-02 0.27069081E+03</pdfrwt>
<totfact> 0.97737997E+03</totfact>
</mgrwt>
</event>
<event>
 4    1  0.1330040E-003  0.4641547E+03  0.7818608E-02  0.1023583E+00
          2   -1    0    0  501    0  0.00000000000E+00  0.00000000000E+00  0.32312604349E+03  0.32312604350E+03  0.25500000000E-02 0.  1.
         -2   -1    0    0    0  501 -0.00000000000E+00 -0.00000000000E+00 -0.16668385071E+03  0.16668385073E+03  0.25500000000E-02 0. -1.
    5000001    1    1    2    0    0 -0.76141599430E+01  0.17477394463E+03  0.21712879846E+03  0.28927119157E+03  0.77000000000E+02 0.  0.
   -5000001    1    1    2    0    0  0.76141599430E+01 -0.17477394463E+03 -0.60686605691E+02  0.20053870266E+03  0.77000000000E+02 0.  0.
<mgrwt>
<rscale>  0 0.46415469E+03</rscale>
<asrwt>0</asrwt>
<pdfrwt beam="1">  1        2 0.46160862E-01 0.46415469E+03</pdfrwt>
<pdfrwt beam="2">  1       -2 0.23811979E-01 0.46415469E+03</pdfrwt>
<totfact> 0.17079804E+03</totfact>
</mgrwt>
</event>
<event>
 4    1  0.1330040E-003  0.1870843E+03  0.7818608E-02  0.1161118E+00
         -2   -1    0    0    0  501 -0.00000000000E+00  0.00000000000E+00  0.25320720084E+02  0.25320720213E+02  0.25500000000E-02 0. -1.
          2   -1    0    0  501    0  0.00000000000E+00 -0.00000000000E+00 -0.34557209665E+03  0.34557209666E+03  0.25500000000E-02 0.  1.
    5000001    1    1    2    0    0  0.10293766724E+02  0.40529514077E+02 -0.95200078807E+02  0.12938569531E+03  0.77000000000E+02 0.  0.
   -5000001    1    1    2    0    0 -0.10293766724E+02 -0.40529514077E+02 -0.22505129776E+03  0.24150712157E+03  0.77000000000E+02 0.  0.
<mgrwt>
<rscale>  0 0.18708431E+03</rscale>
<asrwt>0</asrwt>
<pdfrwt beam="1">  1        2 0.49367440E-01 0.18708431E+03</pdfrwt>
<pdfrwt beam="2">  1       -2 0.36172459E-02 0.18708431E+03</pdfrwt>
<totfact> 0.31137394E+04</totfact>
</mgrwt>
</event>
<event>
 4    1  0.1330040E-003  0.5828459E+03  0.7818608E-02  0.9941649E-01
          2   -1    0    0  501    0  0.00000000000E+00  0.00000000000E+00  0.84495957482E+03  0.84495957483E+03  0.25500000000E-02 0.  1.
         -2   -1    0    0    0  501 -0.00000000000E+00 -0.00000000000E+00 -0.10051054531E+03  0.10051054534E+03  0.25500000000E-02 0. -1.
    5000001    1    1    2    0    0  0.24342366697E+03  0.26029825822E+01  0.60011647129E+03  0.65217377766E+03  0.77000000000E+02 0.  0.
   -5000001    1    1    2    0    0 -0.24342366697E+03 -0.26029825822E+01  0.14433255823E+03  0.29329634250E+03  0.77000000000E+02 0.  0.
<mgrwt>
<rscale>  0 0.58284594E+03</rscale>
<asrwt>0</asrwt>
<pdfrwt beam="1">  1        2 0.12070851E+00 0.58284594E+03</pdfrwt>
<pdfrwt beam="2">  1       -2 0.14358649E-01 0.58284594E+03</pdfrwt>
<totfact> 0.13379519E+03</totfact>
</mgrwt>
</event>
<event>
 4    1  0.1330040E-003  0.6034230E+03  0.7818608E-02  0.9898330E-01
          2   -1    0    0  501    0  0.00000000000E+00  0.00000000000E+00  0.69343605213E+02  0.69343605260E+02  0.25500000000E-02 0.  1.
         -2   -1    0    0    0  501 -0.00000000000E+00 -0.00000000000E+00 -0.13127358420E+04  0.13127358420E+04  0.25500000000E-02 0. -1.
    5000001    1    1    2    0    0 -0.61893953054E+02  0.26598103522E+03 -0.85666094915E+03  0.90242659221E+03  0.77000000000E+02 0.  0.
   -5000001    1    1    2    0    0  0.61893953054E+02 -0.26598103522E+03 -0.38673128762E+03  0.47965285504E+03  0.77000000000E+02 0.  0.
<mgrwt>
<rscale>  0 0.60342302E+03</rscale>
<asrwt>0</asrwt>
<pdfrwt beam="1">  1        2 0.99062301E-02 0.60342302E+03</pdfrwt>
<pdfrwt beam="2">  1       -2 0.18753368E+00 0.60342302E+03</pdfrwt>
<totfact> 0.11078527E+02</totfact>
</mgrwt>
</event>
<event>
 4    1  0.1330040E-003  0.2994189E+03  0.7818608E-02  0.1085531E+00
         -2   -1    0    0    0  501 -0.00000000000E+00  0.00000000000E+00  0.19316534588E+02  0.19316534756E+02  0.25500000000E-02 0. -1.
          2   -1    0    0  501    0  0.00000000000E+00 -0.00000000000E+00 -0.11602971360E+04  0.11602971360E+04  0.25500000000E-02 0.  1.
    5000001    1    1    2    0    0 -0.34008476308E+02  0.11883228000E+03 -0.43366194169E+03  0.45745968883E+03  0.77000000000E+02 0.  0.
   -5000001    1    1    2    0    0  0.34008476308E+02 -0.11883228000E+03 -0.70731865974E+03  0.72215398196E+03  0.77000000000E+02 0.  0.
<mgrwt>
<rscale>  0 0.29941890E+03</rscale>
<asrwt>0</asrwt>
<pdfrwt beam="1">  1        2 0.16575669E+00 0.29941890E+03</pdfrwt>
<pdfrwt beam="2">  1       -2 0.27595057E-02 0.29941890E+03</pdfrwt>
<totfact> 0.11321146E+04</totfact>
</mgrwt>
</event>
<event>
 4    1  0.1330040E-003  0.1850539E+03  0.7818608E-02  0.1163000E+00
          2   -1    0    0  501    0  0.00000000000E+00  0.00000000000E+00  0.55976508919E+01  0.55976514728E+01  0.25500000000E-02 0.  1.
         -2   -1    0    0    0  501 -0.00000000000E+00 -0.00000000000E+00 -0.15294335880E+04  0.15294335880E+04  0.25500000000E-02 0. -1.
    5000001    1    1    2    0    0 -0.93575066960E+01 -0.32119148085E+02 -0.43925939195E+03  0.44721025930E+03  0.77000000000E+02 0.  0.
   -5000001    1    1    2    0    0  0.93575066960E+01  0.32119148085E+02 -0.10845765451E+04  0.10878209801E+04  0.77000000000E+02 0.  0.
<mgrwt>
<rscale>  0 0.18505389E+03</rscale>
<asrwt>0</asrwt>
<pdfrwt beam="1">  1        2 0.79966543E-03 0.18505389E+03</pdfrwt>
<pdfrwt beam="2">  1       -2 0.21849025E+00 0.18505389E+03</pdfrwt>
<totfact> 0.21425540E+03</totfact>
</mgrwt>
</event>
<event>
 4    1  0.1330040E-003  0.3114810E+03  0.7818608E-02  0.1079638E+00
          2   -1    0    0  501    0  0.00000000000E+00  0.00000000000E+00  0.49953089290E+03  0.49953089291E+03  0.25500000000E-02 0.  1.
         -2   -1    0    0    0  501 -0.00000000000E+00 -0.00000000000E+00 -0.48555774131E+02  0.48555774198E+02  0.25500000000E-02 0. -1.
    5000001    1    1    2    0    0  0.38678369893E+02  0.12656895261E+03  0.27557922918E+03  0.31525961939E+03  0.77000000000E+02 0.  0.
   -5000001    1    1    2    0    0 -0.38678369893E+02 -0.12656895261E+03  0.17539588959E+03  0.23282704772E+03  0.77000000000E+02 0.  0.
<mgrwt>
<rscale>  0 0.31148104E+03</rscale>
<asrwt>0</asrwt>
<pdfrwt beam="1">  1        2 0.71361562E-01 0.31148104E+03</pdfrwt>
<pdfrwt beam="2">  1       -2 0.69365386E-02 0.31148104E+03</pdfrwt>
<totfact> 0.80068833E+03</totfact>
</mgrwt>
</event>
<event>
 4    1  0.1330040E-003  0.2370538E+03  0.7818608E-02  0.1121771E+00
          2   -1    0    0  501    0  0.00000000000E+00  0.00000000000E+00  0.15155072579E+04  0.15155072579E+04  0.25500000000E-02 0.  1.
         -2   -1    0    0    0  501 -0.00000000000E+00 -0.00000000000E+00 -0.92699139117E+01  0.92699142624E+01  0.25500000000E-02 0. -1.
    5000001    1    1    2    0    0 -0.10884444998E+02  0.57563999552E+02  0.31273432874E+03  0.32735889412E+03  0.77000000000E+02 0.  0.
   -5000001    1    1    2    0    0  0.10884444998E+02 -0.57563999552E+02  0.11935030153E+04  0.11974182781E+04  0.77000000000E+02 0.  0.
<mgrwt>
<rscale>  0 0.23705377E+03</rscale>
<asrwt>0</asrwt>
<pdfrwt beam="1">  1        2 0.21650091E+00 0.23705377E+03</pdfrwt>
<pdfrwt beam="2">  1       -2 0.13242742E-02 0.23705377E+03</pdfrwt>
<totfact> 0.21531426E+04</totfact>
</mgrwt>
</event>
<event>
 4    1  0.1330040E-003  0.2429120E+03  0.7818608E-02  0.1117868E+00
         -2   -1    0    0    0  501 -0.00000000000E+00  0.00000000000E+00  0.25066244239E+02  0.25066244369E+02  0.25500000000E-02 0. -1.
          2   -1    0    0  501    0  0.00000000000E+00 -0.00000000000E+00 -0.58850323752E+03  0.58850323752E+03  0.25500000000E-02 0.  1.
    5000001    1    1    2    0    0  0.15771333879E+02 -0.92513843198E+02 -0.27192931524E+03  0.29779539729E+03  0.77000000000E+02 0.  0.
   -5000001    1    1    2    0    0 -0.15771333879E+02  0.92513843198E+02 -0.29150767804E+03  0.31577408461E+03  0.77000000000E+02 0.  0.
<mgrwt>
<rscale>  0 0.24291205E+03</rscale>
<asrwt>0</asrwt>
<pdfrwt beam="1">  1        2 0.84071883E-01 0.24291205E+03</pdfrwt>
<pdfrwt beam="2">  1       -2 0.35808924E-02 0.24291205E+03</pdfrwt>
<totfact> 0.18016372E+04</totfact>
</mgrwt>
</event>
<event>
 4    1  0.1330040E-003  0.4349507E+03  0.7818608E-02  0.1032307E+00
         -2   -1    0    0    0  501 -0.00000000000E+00  0.00000000000E+00  0.23286056857E+03  0.23286056858E+03  0.25500000000E-02 0. -1.
          2   -1    0    0  501    0  0.00000000000E+00 -0.00000000000E+00 -0.20310666224E+03  0.20310666225E+03  0.25500000000E-02 0.  1.
    5000001    1    1    2    0    0  0.16868474728E+03  0.84548997154E+02  0.90971805709E+02  0.22317693949E+03  0.77000000000E+02 0.  0.
   -5000001    1    1    2    0    0 -0.16868474728E+03 -0.84548997154E+02 -0.61217899379E+02  0.21279029134E+03  0.77000000000E+02 0.  0.
<mgrwt>
<rscale>  0 0.43495072E+03</rscale>
<asrwt>0</asrwt>
<pdfrwt beam="1">  1        2 0.29015238E-01 0.43495072E+03</pdfrwt>
<pdfrwt beam="2">  1       -2 0.33265795E-01 0.43495072E+03</pdfrwt>
<totfact> 0.15506420E+03</totfact>
</mgrwt>
</event>
<event>
 4    1  0.1330040E-003  0.2884716E+03  0.7818608E-02  0.1091150E+00
          2   -1    0    0  501    0  0.00000000000E+00  0.00000000000E+00  0.15934455141E+04  0.15934455141E+04  0.25500000000E-02 0.  1.
         -2   -1    0    0    0  501 -0.00000000000E+00 -0.00000000000E+00 -0.13055966236E+02  0.13055966485E+02  0.25500000000E-02 0. -1.
    5000001    1    1    2    0    0  0.11801762606E+03  0.19652881291E+02  0.92204927698E+03  0.93296209193E+03  0.77000000000E+02 0.  0.
   -5000001    1    1    2    0    0 -0.11801762606E+03 -0.19652881291E+02  0.65834027089E+03  0.67353938867E+03  0.77000000000E+02 0.  0.
<mgrwt>
<rscale>  0 0.28847163E+03</rscale>
<asrwt>0</asrwt>
<pdfrwt beam="1">  1        2 0.22763486E+00 0.28847163E+03</pdfrwt>
<pdfrwt beam="2">  1       -2 0.18651398E-02 0.28847163E+03</pdfrwt>
<totfact> 0.12007700E+04</totfact>
</mgrwt>
</event>
<event>
 4    1  0.1330040E-003  0.2021671E+03  0.7818608E-02  0.1147923E+00
         -2   -1    0    0    0  501 -0.00000000000E+00  0.00000000000E+00  0.77720401640E+02  0.77720401682E+02  0.25500000000E-02 0. -1.
          2   -1    0    0  501    0  0.00000000000E+00 -0.00000000000E+00 -0.13146971788E+03  0.13146971790E+03  0.25500000000E-02 0.  1.
    5000001    1    1    2    0    0 -0.55534916746E+02  0.28231440571E+02 -0.59806663244E+01  0.99226556851E+02  0.77000000000E+02 0.  0.
   -5000001    1    1    2    0    0  0.55534916746E+02 -0.28231440571E+02 -0.47768649916E+02  0.10996356274E+03  0.77000000000E+02 0.  0.
<mgrwt>
<rscale>  0 0.20216705E+03</rscale>
<asrwt>0</asrwt>
<pdfrwt beam="1">  1        2 0.18781388E-01 0.20216705E+03</pdfrwt>
<pdfrwt beam="2">  1       -2 0.11102915E-01 0.20216705E+03</pdfrwt>
<totfact> 0.16160729E+04</totfact>
</mgrwt>
</event>
<event>
 4    1  0.1330040E-003  0.2473901E+03  0.7818608E-02  0.1114965E+00
          2   -1    0    0  501    0  0.00000000000E+00  0.00000000000E+00  0.21781737772E+03  0.21781737773E+03  0.25500000000E-02 0.  1.
         -2   -1    0    0    0  501 -0.00000000000E+00 -0.00000000000E+00 -0.70244441987E+02  0.70244442033E+02  0.25500000000E-02 0. -1.
    5000001    1    1    2    0    0  0.93204344034E+02 -0.19944388726E+02  0.54072882263E+02  0.13393171762E+03  0.77000000000E+02 0.  0.
   -5000001    1    1    2    0    0 -0.93204344034E+02  0.19944388726E+02  0.93500053465E+02  0.15413010214E+03  0.77000000000E+02 0.  0.
<mgrwt>
<rscale>  0 0.24739006E+03</rscale>
<asrwt>0</asrwt>
<pdfrwt beam="1">  1        2 0.31116768E-01 0.24739006E+03</pdfrwt>
<pdfrwt beam="2">  1       -2 0.10034920E-01 0.24739006E+03</pdfrwt>
<totfact> 0.10931300E+04</totfact>
</mgrwt>
</event>
<event>
 4    1  0.1330040E-003  0.3413565E+03  0.7818608E-02  0.1066220E+00
         -2   -1    0    0    0  501 -0.00000000000E+00  0.00000000000E+00  0.17012547548E+03  0.17012547549E+03  0.25500000000E-02 0. -1.
          2   -1    0    0  501    0  0.00000000000E+00 -0.00000000000E+00 -0.17123279509E+03  0.17123279511E+03  0.25500000000E-02 0.  1.
    5000001    1    1    2    0    0 -0.11289762365E+03  0.10219256445E+03  0.30334240085E+01  0.17066749929E+03  0.77000000000E+02 0.  0.
   -5000001    1    1    2    0    0  0.11289762365E+03 -0.10219256445E+03 -0.41407436261E+01  0.17069077131E+03  0.77000000000E+02 0.  0.
<mgrwt>
<rscale>  0 0.34135647E+03</rscale>
<asrwt>0</asrwt>
<pdfrwt beam="1">  1        2 0.24461828E-01 0.34135647E+03</pdfrwt>
<pdfrwt beam="2">  1       -2 0.24303639E-01 0.34135647E+03</pdfrwt>
<totfact> 0.33067784E+03</totfact>
</mgrwt>
</event>
<event>
 4    1  0.1330040E-003  0.1915514E+03  0.7818608E-02  0.1157069E+00
         -2   -1    0    0    0  501 -0.00000000000E+00  0.00000000000E+00  0.37485013771E+01  0.37485022445E+01  0.25500000000E-02 0. -1.
          2   -1    0    0  501    0  0.00000000000E+00 -0.00000000000E+00 -0.24471070787E+04  0.24471070787E+04  0.25500000000E-02 0.  1.
    5000001    1    1    2    0    0  0.20351990087E+02 -0.52932066946E+02 -0.12893563576E+04  0.12928978397E+04  0.77000000000E+02 0.  0.
   -5000001    1    1    2    0    0 -0.20351990087E+02  0.52932066946E+02 -0.11540022197E+04  0.11579577412E+04  0.77000000000E+02 0.  0.
<mgrwt>
<rscale>  0 0.19155141E+03</rscale>
<asrwt>0</asrwt>
<pdfrwt beam="1">  1        2 0.34958570E+00 0.19155141E+03</pdfrwt>
<pdfrwt beam="2">  1       -2 0.53550182E-03 0.19155141E+03</pdfrwt>
<totfact> 0.27656100E+04</totfact>
</mgrwt>
</event>
<event>
 4    1  0.1330040E-003  0.2417030E+03  0.7818608E-02  0.1118663E+00
          2   -1    0    0  501    0  0.00000000000E+00  0.00000000000E+00  0.78372032522E+03  0.78372032523E+03  0.25500000000E-02 0.  1.
         -2   -1    0    0    0  501 -0.00000000000E+00 -0.00000000000E+00 -0.18635585348E+02  0.18635585523E+02  0.25500000000E-02 0. -1.
    5000001    1    1    2    0    0 -0.91302628337E+02 -0.18120942931E+02  0.37126133240E+03  0.39042094648E+03  0.77000000000E+02 0.  0.
   -5000001    1    1    2    0    0  0.91302628337E+02  0.18120942931E+02  0.39382340748E+03  0.41193496427E+03  0.77000000000E+02 0.  0.
<mgrwt>
<rscale>  0 0.24170302E+03</rscale>
<asrwt>0</asrwt>
<pdfrwt beam="1">  1        2 0.11196004E+00 0.24170302E+03</pdfrwt>
<pdfrwt beam="2">  1       -2 0.26622266E-02 0.24170302E+03</pdfrwt>
<totfact> 0.19987623E+04</totfact>
</mgrwt>
</event>
<event>
 4    1  0.1330040E-003  0.1933800E+03  0.7818608E-02  0.1155448E+00
         -2   -1    0    0    0  501 -0.00000000000E+00  0.00000000000E+00  0.86315853684E+01  0.86315857451E+01  0.25500000000E-02 0. -1.
          2   -1    0    0  501    0  0.00000000000E+00 -0.00000000000E+00 -0.10831104503E+04  0.10831104503E+04  0.25500000000E-02 0.  1.
    5000001    1    1    2    0    0  0.58021383731E+02 -0.31154464425E+01 -0.49988739991E+03  0.50910961449E+03  0.77000000000E+02 0.  0.
   -5000001    1    1    2    0    0 -0.58021383731E+02  0.31154464425E+01 -0.57459146506E+03  0.58263242160E+03  0.77000000000E+02 0.  0.
<mgrwt>
<rscale>  0 0.19338005E+03</rscale>
<asrwt>0</asrwt>
<pdfrwt beam="1">  1        2 0.15472998E+00 0.19338005E+03</pdfrwt>
<pdfrwt beam="2">  1       -2 0.12330843E-02 0.19338005E+03</pdfrwt>
<totfact> 0.39794711E+04</totfact>
</mgrwt>
</event>
<event>
 4    1  0.1330040E-003  0.5873790E+03  0.7818608E-02  0.9931942E-01
          2   -1    0    0  501    0  0.00000000000E+00  0.00000000000E+00  0.29225024723E+03  0.29225024724E+03  0.25500000000E-02 0.  1.
         -2   -1    0    0    0  501 -0.00000000000E+00 -0.00000000000E+00 -0.29513582916E+03  0.29513582918E+03  0.25500000000E-02 0. -1.
    5000001    1    1    2    0    0  0.23677113583E+03 -0.10640475218E+03 -0.11520697399E+03  0.29425191402E+03  0.77000000000E+02 0.  0.
   -5000001    1    1    2    0    0 -0.23677113583E+03  0.10640475218E+03  0.11232139205E+03  0.29313416239E+03  0.77000000000E+02 0.  0.
<mgrwt>
<rscale>  0 0.58737899E+03</rscale>
<asrwt>0</asrwt>
<pdfrwt beam="1">  1        2 0.41750036E-01 0.58737899E+03</pdfrwt>
<pdfrwt beam="2">  1       -2 0.42162261E-01 0.58737899E+03</pdfrwt>
<totfact> 0.65862828E+02</totfact>
</mgrwt>
</event>
<event>
 4    1  0.1330040E-003  0.1957338E+03  0.7818608E-02  0.1153389E+00
          2   -1    0    0  501    0  0.00000000000E+00  0.00000000000E+00  0.26827143826E+04  0.26827143826E+04  0.25500000000E-02 0.  1.
         -2   -1    0    0    0  501 -0.00000000000E+00 -0.00000000000E+00 -0.35702372025E+01  0.35702381132E+01  0.25500000000E-02 0. -1.
    5000001    1    1    2    0    0 -0.34994892914E+02  0.40926472595E+02  0.17152509596E+04  0.17178225965E+04  0.77000000000E+02 0.  0.
   -5000001    1    1    2    0    0  0.34994892914E+02 -0.40926472595E+02  0.96389318576E+03  0.96846202417E+03  0.77000000000E+02 0.  0.
<mgrwt>
<rscale>  0 0.19573378E+03</rscale>
<asrwt>0</asrwt>
<pdfrwt beam="1">  1        2 0.38324669E+00 0.19573378E+03</pdfrwt>
<pdfrwt beam="2">  1       -2 0.51003158E-03 0.19573378E+03</pdfrwt>
<totfact> 0.22672083E+04</totfact>
</mgrwt>
</event>
<event>
 4    1  0.1330040E-003  0.3031362E+03  0.7818608E-02  0.1083683E+00
          2   -1    0    0  501    0  0.00000000000E+00  0.00000000000E+00  0.80439114337E+03  0.80439114338E+03  0.25500000000E-02 0.  1.
         -2   -1    0    0    0  501 -0.00000000000E+00 -0.00000000000E+00 -0.28559349504E+02  0.28559349618E+02  0.25500000000E-02 0. -1.
    5000001    1    1    2    0    0 -0.38362964600E+02 -0.98760853336E+02  0.59751315531E+03  0.61169959455E+03  0.77000000000E+02 0.  0.
   -5000001    1    1    2    0    0  0.38362964600E+02  0.98760853336E+02  0.17831863855E+03  0.22125089844E+03  0.77000000000E+02 0.  0.
<mgrwt>
<rscale>  0 0.30313619E+03</rscale>
<asrwt>0</asrwt>
<pdfrwt beam="1">  1        2 0.11491300E+00 0.30313619E+03</pdfrwt>
<pdfrwt beam="2">  1       -2 0.40799077E-02 0.30313619E+03</pdfrwt>
<totfact> 0.10331527E+04</totfact>
</mgrwt>
</event>
<event>
 4    1  0.1330040E-003  0.1984381E+03  0.7818608E-02  0.1151063E+00
          2   -1    0    0  501    0  0.00000000000E+00  0.00000000000E+00  0.33184936386E+03  0.33184936387E+03  0.25500000000E-02 0.  1.
         -2   -1    0    0    0  501 -0.00000000000E+00 -0.00000000000E+00 -0.29665332927E+02  0.29665333036E+02  0.25500000000E-02 0. -1.
    5000001    1    1    2    0    0  0.32607839212E+02  0.50357049721E+02  0.18349335583E+03  0.20784108177E+03  0.77000000000E+02 0.  0.
   -5000001    1    1    2    0    0 -0.32607839212E+02 -0.50357049721E+02  0.11869067510E+03  0.15367361514E+03  0.77000000000E+02 0.  0.
<mgrwt>
<rscale>  0 0.19843812E+03</rscale>
<asrwt>0</asrwt>
<pdfrwt beam="1">  1        2 0.47407051E-01 0.19843812E+03</pdfrwt>
<pdfrwt beam="2">  1       -2 0.42379048E-02 0.19843812E+03</pdfrwt>
<totfact> 0.25790519E+04</totfact>
</mgrwt>
</event>
<event>
 4    1  0.1330040E-003  0.1931185E+03  0.7818608E-02  0.1155678E+00
         -2   -1    0    0    0  501 -0.00000000000E+00  0.00000000000E+00  0.40804571962E+01  0.40804579930E+01  0.25500000000E-02 0. -1.
          2   -1    0    0  501    0  0.00000000000E+00 -0.00000000000E+00 -0.22849621766E+04  0.22849621766E+04  0.25500000000E-02 0.  1.
    5000001    1    1    2    0    0 -0.54221257132E+02  0.21994936401E+01 -0.88902528690E+03  0.89400209353E+03  0.77000000000E+02 0.  0.
   -5000001    1    1    2    0    0  0.54221257132E+02 -0.21994936401E+01 -0.13918564325E+04  0.13950405410E+04  0.77000000000E+02 0.  0.
<mgrwt>
<rscale>  0 0.19311853E+03</rscale>
<asrwt>0</asrwt>
<pdfrwt beam="1">  1        2 0.32642235E+00 0.19311853E+03</pdfrwt>
<pdfrwt beam="2">  1       -2 0.58292398E-03 0.19311853E+03</pdfrwt>
<totfact> 0.29398819E+04</totfact>
</mgrwt>
</event>
<event>
 4    1  0.1330040E-003  0.1821715E+03  0.7818608E-02  0.1165718E+00
         -2   -1    0    0    0  501 -0.00000000000E+00  0.00000000000E+00  0.68205133833E+01  0.68205138600E+01  0.25500000000E-02 0. -1.
          2   -1    0    0  501    0  0.00000000000E+00 -0.00000000000E+00 -0.12164209278E+04  0.12164209278E+04  0.25500000000E-02 0.  1.
    5000001    1    1    2    0    0  0.10827699009E+02  0.45550062672E+02 -0.51582793524E+03  0.52364062681E+03  0.77000000000E+02 0.  0.
   -5000001    1    1    2    0    0 -0.10827699009E+02 -0.45550062672E+02 -0.69377247919E+03  0.69960081487E+03  0.77000000000E+02 0.  0.
<mgrwt>
<rscale>  0 0.18217152E+03</rscale>
<asrwt>0</asrwt>
<pdfrwt beam="1">  1        2 0.17377428E+00 0.18217152E+03</pdfrwt>
<pdfrwt beam="2">  1       -2 0.97435987E-03 0.18217152E+03</pdfrwt>
<totfact> 0.47054346E+04</totfact>
</mgrwt>
</event>
<event>
 4    1  0.1330040E-003  0.3215124E+03  0.7818608E-02  0.1074955E+00
          2   -1    0    0  501    0  0.00000000000E+00  0.00000000000E+00  0.89074243465E+03  0.89074243466E+03  0.25500000000E-02 0.  1.
         -2   -1    0    0    0  501 -0.00000000000E+00 -0.00000000000E+00 -0.29012370139E+02  0.29012370252E+02  0.25500000000E-02 0. -1.
    5000001    1    1    2    0    0  0.12798465079E+03  0.44829683526E+02  0.31919536326E+03  0.35525265839E+03  0.77000000000E+02 0.  0.
   -5000001    1    1    2    0    0 -0.12798465079E+03 -0.44829683526E+02  0.54253470125E+03  0.56450214652E+03  0.77000000000E+02 0.  0.
<mgrwt>
<rscale>  0 0.32151236E+03</rscale>
<asrwt>0</asrwt>
<pdfrwt beam="1">  1        2 0.12724891E+00 0.32151236E+03</pdfrwt>
<pdfrwt beam="2">  1       -2 0.41446247E-02 0.32151236E+03</pdfrwt>
<totfact> 0.88779528E+03</totfact>
</mgrwt>
</event>
<event>
 4    1  0.1330040E-003  0.1946726E+03  0.7818608E-02  0.1154313E+00
         -2   -1    0    0    0  501 -0.00000000000E+00  0.00000000000E+00  0.61420467520E+02  0.61420467573E+02  0.25500000000E-02 0. -1.
          2   -1    0    0  501    0  0.00000000000E+00 -0.00000000000E+00 -0.15425407378E+03  0.15425407380E+03  0.25500000000E-02 0.  1.
    5000001    1    1    2    0    0 -0.57371364712E+02 -0.71148401849E+01 -0.30621678306E+02  0.10103851554E+03  0.77000000000E+02 0.  0.
   -5000001    1    1    2    0    0  0.57371364712E+02  0.71148401849E+01 -0.62211927952E+02  0.11463602584E+03  0.77000000000E+02 0.  0.
<mgrwt>
<rscale>  0 0.19467262E+03</rscale>
<asrwt>0</asrwt>
<pdfrwt beam="1">  1        2 0.22036296E-01 0.19467262E+03</pdfrwt>
<pdfrwt beam="2">  1       -2 0.87743526E-02 0.19467262E+03</pdfrwt>
<totfact> 0.19492032E+04</totfact>
</mgrwt>
</event>
<event>
 4    1  0.1330040E-003  0.2710185E+03  0.7818608E-02  0.1100698E+00
          2   -1    0    0  501    0  0.00000000000E+00  0.00000000000E+00  0.79480292068E+03  0.79480292069E+03  0.25500000000E-02 0.  1.
         -2   -1    0    0    0  501 -0.00000000000E+00 -0.00000000000E+00 -0.23103528024E+02  0.23103528165E+02  0.25500000000E-02 0. -1.
    5000001    1    1    2    0    0  0.11149382786E+03 -0.67629843020E+00  0.38115438448E+03  0.40452317096E+03  0.77000000000E+02 0.  0.
   -5000001    1    1    2    0    0 -0.11149382786E+03  0.67629843020E+00  0.39054500817E+03  0.41338327789E+03  0.77000000000E+02 0.  0.
<mgrwt>
<rscale>  0 0.27101846E+03</rscale>
<asrwt>0</asrwt>
<pdfrwt beam="1">  1        2 0.11354329E+00 0.27101846E+03</pdfrwt>
<pdfrwt beam="2">  1       -2 0.33005034E-02 0.27101846E+03</pdfrwt>
<totfact> 0.14354579E+04</totfact>
</mgrwt>
</event>
<event>
 4    1  0.1330040E-003  0.5941826E+03  0.7818608E-02  0.9917549E-01
         -2   -1    0    0    0  501 -0.00000000000E+00  0.00000000000E+00  0.63838105072E+02  0.63838105123E+02  0.25500000000E-02 0. -1.
          2   -1    0    0  501    0  0.00000000000E+00 -0.00000000000E+00 -0.13826104643E+04  0.13826104643E+04  0.25500000000E-02 0.  1.
    5000001    1    1    2    0    0 -0.33491830222E+02 -0.10731336990E+03 -0.13020563863E+04  0.13091667942E+04  0.77000000000E+02 0.  0.
   -5000001    1    1    2    0    0  0.33491830222E+02  0.10731336990E+03 -0.16715972951E+02  0.13728177520E+03  0.77000000000E+02 0.  0.
<mgrwt>
<rscale>  0 0.59418257E+03</rscale>
<asrwt>0</asrwt>
<pdfrwt beam="1">  1        2 0.19751576E+00 0.59418257E+03</pdfrwt>
<pdfrwt beam="2">  1       -2 0.91197302E-02 0.59418257E+03</pdfrwt>
<totfact> 0.13636939E+03</totfact>
</mgrwt>
</event>
<event>
 4    1  0.1330040E-003  0.2010576E+03  0.7818608E-02  0.1148850E+00
         -2   -1    0    0    0  501 -0.00000000000E+00  0.00000000000E+00  0.19095702081E+03  0.19095702083E+03  0.25500000000E-02 0. -1.
          2   -1    0    0  501    0  0.00000000000E+00 -0.00000000000E+00 -0.52923130423E+02  0.52923130484E+02  0.25500000000E-02 0.  1.
    5000001    1    1    2    0    0  0.32972878931E+02 -0.53534065772E+02  0.50865207252E+02  0.11166636133E+03  0.77000000000E+02 0.  0.
   -5000001    1    1    2    0    0 -0.32972878931E+02  0.53534065772E+02  0.87168683139E+02  0.13221378999E+03  0.77000000000E+02 0.  0.
<mgrwt>
<rscale>  0 0.20105764E+03</rscale>
<asrwt>0</asrwt>
<pdfrwt beam="1">  1        2 0.75604470E-02 0.20105764E+03</pdfrwt>
<pdfrwt beam="2">  1       -2 0.27279575E-01 0.20105764E+03</pdfrwt>
<totfact> 0.10762010E+04</totfact>
</mgrwt>
</event>
<event>
 4    1  0.1330040E-003  0.2454918E+03  0.7818608E-02  0.1116187E+00
          2   -1    0    0  501    0  0.00000000000E+00  0.00000000000E+00  0.23251955614E+04  0.23251955614E+04  0.25500000000E-02 0.  1.
         -2   -1    0    0    0  501 -0.00000000000E+00 -0.00000000000E+00 -0.64796962213E+01  0.64796967230E+01  0.25500000000E-02 0. -1.
    5000001    1    1    2    0    0 -0.82996479927E+02  0.31790116831E+02  0.82509747082E+03  0.83343497861E+03  0.77000000000E+02 0.  0.
   -5000001    1    1    2    0    0  0.82996479927E+02 -0.31790116831E+02  0.14936183944E+04  0.14982402795E+04  0.77000000000E+02 0.  0.
<mgrwt>
<rscale>  0 0.24549184E+03</rscale>
<asrwt>0</asrwt>
<pdfrwt beam="1">  1        2 0.33217103E+00 0.24549184E+03</pdfrwt>
<pdfrwt beam="2">  1       -2 0.92567028E-03 0.24549184E+03</pdfrwt>
<totfact> 0.14564633E+04</totfact>
</mgrwt>
</event>
<event>
 4    1  0.1330040E-003  0.4538312E+03  0.7818608E-02  0.1026586E+00
          2   -1    0    0  501    0  0.00000000000E+00  0.00000000000E+00  0.16982311522E+04  0.16982311522E+04  0.25500000000E-02 0.  1.
         -2   -1    0    0    0  501 -0.00000000000E+00 -0.00000000000E+00 -0.30320193500E+02  0.30320193608E+02  0.25500000000E-02 0. -1.
    5000001    1    1    2    0    0 -0.16199827126E+03 -0.12519849091E+03  0.10638628870E+04  0.10861175554E+04  0.77000000000E+02 0.  0.
   -5000001    1    1    2    0    0  0.16199827126E+03  0.12519849091E+03  0.60404807174E+03  0.64243379035E+03  0.77000000000E+02 0.  0.
<mgrwt>
<rscale>  0 0.45383123E+03</rscale>
<asrwt>0</asrwt>
<pdfrwt beam="1">  1        2 0.24260449E+00 0.45383123E+03</pdfrwt>
<pdfrwt beam="2">  1       -2 0.43314555E-02 0.45383123E+03</pdfrwt>
<totfact> 0.30192836E+03</totfact>
</mgrwt>
</event>
<event>
 4    1  0.1330040E-003  0.2680687E+03  0.7818608E-02  0.1102390E+00
          2   -1    0    0  501    0  0.00000000000E+00  0.00000000000E+00  0.62604033153E+03  0.62604033153E+03  0.25500000000E-02 0.  1.
         -2   -1    0    0    0  501 -0.00000000000E+00 -0.00000000000E+00 -0.28696562703E+02  0.28696562816E+02  0.25500000000E-02 0. -1.
    5000001    1    1    2    0    0 -0.84247030522E+02  0.70272128836E+02  0.30034885949E+03  0.32889842146E+03  0.77000000000E+02 0.  0.
   -5000001    1    1    2    0    0  0.84247030522E+02 -0.70272128836E+02  0.29699490934E+03  0.32583847289E+03  0.77000000000E+02 0.  0.
<mgrwt>
<rscale>  0 0.26806869E+03</rscale>
<asrwt>0</asrwt>
<pdfrwt beam="1">  1        2 0.89434337E-01 0.26806869E+03</pdfrwt>
<pdfrwt beam="2">  1       -2 0.40995088E-02 0.26806869E+03</pdfrwt>
<totfact> 0.13773842E+04</totfact>
</mgrwt>
</event>
<event>
 4    1  0.1330040E-003  0.3214168E+03  0.7818608E-02  0.1074999E+00
         -2   -1    0    0    0  501 -0.00000000000E+00  0.00000000000E+00  0.13190329214E+03  0.13190329217E+03  0.25500000000E-02 0. -1.
          2   -1    0    0  501    0  0.00000000000E+00 -0.00000000000E+00 -0.19580400205E+03  0.19580400207E+03  0.25500000000E-02 0.  1.
    5000001    1    1    2    0    0 -0.43878717714E+02 -0.13331360802E+03 -0.46381249861E+02  0.16666757420E+03  0.77000000000E+02 0.  0.
   -5000001    1    1    2    0    0  0.43878717714E+02  0.13331360802E+03 -0.17519460049E+02  0.16103972004E+03  0.77000000000E+02 0.  0.
<mgrwt>
<rscale>  0 0.32141682E+03</rscale>
<asrwt>0</asrwt>
<pdfrwt beam="1">  1        2 0.27972000E-01 0.32141682E+03</pdfrwt>
<pdfrwt beam="2">  1       -2 0.18843327E-01 0.32141682E+03</pdfrwt>
<totfact> 0.44175303E+03</totfact>
</mgrwt>
</event>
<event>
 4    1  0.1330040E-003  0.3043828E+03  0.7818608E-02  0.1083070E+00
         -2   -1    0    0    0  501 -0.00000000000E+00  0.00000000000E+00  0.11603996659E+04  0.11603996659E+04  0.25500000000E-02 0. -1.
          2   -1    0    0  501    0  0.00000000000E+00 -0.00000000000E+00 -0.19960560483E+02  0.19960560646E+02  0.25500000000E-02 0.  1.
    5000001    1    1    2    0    0 -0.10539200685E+03 -0.25564359714E+02  0.85708354054E+03  0.86734203579E+03  0.77000000000E+02 0.  0.
   -5000001    1    1    2    0    0  0.10539200685E+03  0.25564359714E+02  0.28335556490E+03  0.31301819078E+03  0.77000000000E+02 0.  0.
<mgrwt>
<rscale>  0 0.30438284E+03</rscale>
<asrwt>0</asrwt>
<pdfrwt beam="1">  1        2 0.28515093E-02 0.30438284E+03</pdfrwt>
<pdfrwt beam="2">  1       -2 0.16577134E+00 0.30438284E+03</pdfrwt>
<totfact> 0.82087902E+02</totfact>
</mgrwt>
</event>
<event>
 4    1  0.1330040E-003  0.3385534E+03  0.7818608E-02  0.1067414E+00
          2   -1    0    0  501    0  0.00000000000E+00  0.00000000000E+00  0.10039264185E+04  0.10039264185E+04  0.25500000000E-02 0.  1.
         -2   -1    0    0    0  501 -0.00000000000E+00 -0.00000000000E+00 -0.28542526018E+02  0.28542526132E+02  0.25500000000E-02 0. -1.
    5000001    1    1    2    0    0  0.88125462857E+02  0.10619994167E+03  0.67271973725E+03  0.69103210469E+03  0.77000000000E+02 0.  0.
   -5000001    1    1    2    0    0 -0.88125462857E+02 -0.10619994167E+03  0.30266415521E+03  0.34143683994E+03  0.77000000000E+02 0.  0.
<mgrwt>
<rscale>  0 0.33855337E+03</rscale>
<asrwt>0</asrwt>
<pdfrwt beam="1">  1        2 0.14341808E+00 0.33855337E+03</pdfrwt>
<pdfrwt beam="2">  1       -2 0.40775033E-02 0.33855337E+03</pdfrwt>
<totfact> 0.77673998E+03</totfact>
</mgrwt>
</event>
<event>
 4    1  0.1330040E-003  0.2099115E+03  0.7818608E-02  0.1141636E+00
         -2   -1    0    0    0  501 -0.00000000000E+00  0.00000000000E+00  0.62487510032E+02  0.62487510084E+02  0.25500000000E-02 0. -1.
          2   -1    0    0  501    0  0.00000000000E+00 -0.00000000000E+00 -0.17628651230E+03  0.17628651232E+03  0.25500000000E-02 0.  1.
    5000001    1    1    2    0    0  0.64381079522E+02  0.29892555815E+02 -0.49000891282E+02  0.11562255680E+03  0.77000000000E+02 0.  0.
   -5000001    1    1    2    0    0 -0.64381079522E+02 -0.29892555815E+02 -0.64798110987E+02  0.12315146561E+03  0.77000000000E+02 0.  0.
<mgrwt>
<rscale>  0 0.20991146E+03</rscale>
<asrwt>0</asrwt>
<pdfrwt beam="1">  1        2 0.25183787E-01 0.20991146E+03</pdfrwt>
<pdfrwt beam="2">  1       -2 0.89267872E-02 0.20991146E+03</pdfrwt>
<totfact> 0.16431397E+04</totfact>
</mgrwt>
</event>
<event>
 4    1  0.1330040E-003  0.2767974E+03  0.7818608E-02  0.1097451E+00
         -2   -1    0    0    0  501 -0.00000000000E+00  0.00000000000E+00  0.20132929265E+03  0.20132929267E+03  0.25500000000E-02 0. -1.
          2   -1    0    0  501    0  0.00000000000E+00 -0.00000000000E+00 -0.95138663012E+02  0.95138663046E+02  0.25500000000E-02 0.  1.
    5000001    1    1    2    0    0  0.91085326554E+02  0.46373708488E+02  0.10954909028E+03  0.16845492196E+03  0.77000000000E+02 0.  0.
   -5000001    1    1    2    0    0 -0.91085326554E+02 -0.46373708488E+02 -0.33584606403E+01  0.12801303375E+03  0.77000000000E+02 0.  0.
<mgrwt>
<rscale>  0 0.27679740E+03</rscale>
<asrwt>0</asrwt>
<pdfrwt beam="1">  1        2 0.13591238E-01 0.27679740E+03</pdfrwt>
<pdfrwt beam="2">  1       -2 0.28761327E-01 0.27679740E+03</pdfrwt>
<totfact> 0.48183307E+03</totfact>
</mgrwt>
</event>
<event>
 4    1  0.1330040E-003  0.2931786E+03  0.7818608E-02  0.1088701E+00
         -2   -1    0    0    0  501 -0.00000000000E+00  0.00000000000E+00  0.20947386192E+02  0.20947386347E+02  0.25500000000E-02 0. -1.
          2   -1    0    0  501    0  0.00000000000E+00 -0.00000000000E+00 -0.10258283044E+04  0.10258283044E+04  0.25500000000E-02 0.  1.
    5000001    1    1    2    0    0 -0.11454818718E+03  0.35071424549E+02 -0.62654228178E+03  0.64252278003E+03  0.77000000000E+02 0.  0.
   -5000001    1    1    2    0    0  0.11454818718E+03 -0.35071424549E+02 -0.37833863643E+03  0.40425291071E+03  0.77000000000E+02 0.  0.
<mgrwt>
<rscale>  0 0.29317859E+03</rscale>
<asrwt>0</asrwt>
<pdfrwt beam="1">  1        2 0.14654687E+00 0.29317859E+03</pdfrwt>
<pdfrwt beam="2">  1       -2 0.29924844E-02 0.29317859E+03</pdfrwt>
<totfact> 0.11952815E+04</totfact>
</mgrwt>
</event>
<event>
 4    1  0.1330040E-003  0.4220585E+03  0.7818608E-02  0.1036398E+00
         -2   -1    0    0    0  501 -0.00000000000E+00  0.00000000000E+00  0.18245989633E+03  0.18245989635E+03  0.25500000000E-02 0. -1.
          2   -1    0    0  501    0  0.00000000000E+00 -0.00000000000E+00 -0.24407196907E+03  0.24407196909E+03  0.25500000000E-02 0.  1.
    5000001    1    1    2    0    0 -0.15400367867E+03  0.11182934130E+03  0.18510895592E+02  0.20614215453E+03  0.77000000000E+02 0.  0.
   -5000001    1    1    2    0    0  0.15400367867E+03 -0.11182934130E+03 -0.80122968336E+02  0.22038971090E+03  0.77000000000E+02 0.  0.
<mgrwt>
<rscale>  0 0.42205851E+03</rscale>
<asrwt>0</asrwt>
<pdfrwt beam="1">  1        2 0.34867424E-01 0.42205851E+03</pdfrwt>
<pdfrwt beam="2">  1       -2 0.26065700E-01 0.42205851E+03</pdfrwt>
<totfact> 0.19755092E+03</totfact>
</mgrwt>
</event>
<event>
 4    1  0.1330040E-003  0.3238454E+03  0.7818608E-02  0.1073893E+00
          2   -1    0    0  501    0  0.00000000000E+00  0.00000000000E+00  0.15985090998E+03  0.15985091000E+03  0.25500000000E-02 0.  1.
         -2   -1    0    0    0  501 -0.00000000000E+00 -0.00000000000E+00 -0.16402131233E+03  0.16402131235E+03  0.25500000000E-02 0. -1.
    5000001    1    1    2    0    0 -0.65065348537E+02 -0.12636767683E+03  0.72786254187E+01  0.16181553607E+03  0.77000000000E+02 0.  0.
   -5000001    1    1    2    0    0  0.65065348537E+02  0.12636767683E+03 -0.11449027768E+02  0.16205668627E+03  0.77000000000E+02 0.  0.
<mgrwt>
<rscale>  0 0.32384537E+03</rscale>
<asrwt>0</asrwt>
<pdfrwt beam="1">  1        2 0.22835844E-01 0.32384537E+03</pdfrwt>
<pdfrwt beam="2">  1       -2 0.23431616E-01 0.32384537E+03</pdfrwt>
<totfact> 0.38064032E+03</totfact>
</mgrwt>
</event>
<event>
 4    1  0.1330040E-003  0.7084628E+03  0.7818608E-02  0.9702868E-01
         -2   -1    0    0    0  501 -0.00000000000E+00  0.00000000000E+00  0.31313515522E+03  0.31313515523E+03  0.25500000000E-02 0. -1.
          2   -1    0    0  501    0  0.00000000000E+00 -0.00000000000E+00 -0.40072115857E+03  0.40072115858E+03  0.25500000000E-02 0.  1.
    5000001    1    1    2    0    0  0.64735182902E+02  0.28299115236E+03  0.14545658486E+03  0.33370833717E+03  0.77000000000E+02 0.  0.
   -5000001    1    1    2    0    0 -0.64735182902E+02 -0.28299115236E+03 -0.23304258821E+03  0.38014797663E+03  0.77000000000E+02 0.  0.
<mgrwt>
<rscale>  0 0.70846279E+03</rscale>
<asrwt>0</asrwt>
<pdfrwt beam="1">  1        2 0.57245879E-01 0.70846279E+03</pdfrwt>
<pdfrwt beam="2">  1       -2 0.44733594E-01 0.70846279E+03</pdfrwt>
<totfact> 0.41202094E+02</totfact>
</mgrwt>
</event>
<event>
 4    1  0.1330040E-003  0.2210644E+03  0.7818608E-02  0.1133092E+00
         -2   -1    0    0    0  501 -0.00000000000E+00  0.00000000000E+00  0.43933772788E+02  0.43933772862E+02  0.25500000000E-02 0. -1.
          2   -1    0    0  501    0  0.00000000000E+00 -0.00000000000E+00 -0.27808603029E+03  0.27808603031E+03  0.25500000000E-02 0.  1.
    5000001    1    1    2    0    0 -0.74428412588E+02 -0.20972156013E+02 -0.14268007065E+03  0.17962745472E+03  0.77000000000E+02 0.  0.
   -5000001    1    1    2    0    0  0.74428412588E+02  0.20972156013E+02 -0.91472186853E+02  0.14239234845E+03  0.77000000000E+02 0.  0.
<mgrwt>
<rscale>  0 0.22106441E+03</rscale>
<asrwt>0</asrwt>
<pdfrwt beam="1">  1        2 0.39726575E-01 0.22106441E+03</pdfrwt>
<pdfrwt beam="2">  1       -2 0.62762534E-02 0.22106441E+03</pdfrwt>
<totfact> 0.17319620E+04</totfact>
</mgrwt>
</event>
<event>
 4    1  0.1330040E-003  0.2225102E+03  0.7818608E-02  0.1132025E+00
          2   -1    0    0  501    0  0.00000000000E+00  0.00000000000E+00  0.53527856511E+03  0.53527856511E+03  0.25500000000E-02 0.  1.
         -2   -1    0    0    0  501 -0.00000000000E+00 -0.00000000000E+00 -0.23123846182E+02  0.23123846323E+02  0.25500000000E-02 0. -1.
    5000001    1    1    2    0    0  0.20798313818E+02 -0.77551582805E+02  0.25951956633E+03  0.28235832406E+03  0.77000000000E+02 0.  0.
   -5000001    1    1    2    0    0 -0.20798313818E+02  0.77551582805E+02  0.25263515259E+03  0.27604408738E+03  0.77000000000E+02 0.  0.
<mgrwt>
<rscale>  0 0.22251022E+03</rscale>
<asrwt>0</asrwt>
<pdfrwt beam="1">  1        2 0.76468367E-01 0.22251022E+03</pdfrwt>
<pdfrwt beam="2">  1       -2 0.33034066E-02 0.22251022E+03</pdfrwt>
<totfact> 0.22479307E+04</totfact>
</mgrwt>
</event>
<event>
 4    1  0.1330040E-003  0.2439396E+03  0.7818608E-02  0.1117196E+00
          2   -1    0    0  501    0  0.00000000000E+00  0.00000000000E+00  0.19135837104E+03  0.19135837106E+03  0.25500000000E-02 0.  1.
         -2   -1    0    0    0  501 -0.00000000000E+00 -0.00000000000E+00 -0.77742266538E+02  0.77742266580E+02  0.25500000000E-02 0. -1.
    5000001    1    1    2    0    0 -0.69468133535E+02  0.57103572777E+02  0.24438817308E+02  0.12088380947E+03  0.77000000000E+02 0.  0.
   -5000001    1    1    2    0    0  0.69468133535E+02 -0.57103572777E+02  0.89177287195E+02  0.14821682817E+03  0.77000000000E+02 0.  0.
<mgrwt>
<rscale>  0 0.24393961E+03</rscale>
<asrwt>0</asrwt>
<pdfrwt beam="1">  1        2 0.27336910E-01 0.24393961E+03</pdfrwt>
<pdfrwt beam="2">  1       -2 0.11106038E-01 0.24393961E+03</pdfrwt>
<totfact> 0.10713088E+04</totfact>
</mgrwt>
</event>
<event>
 4    1  0.1330040E-003  0.3048246E+03  0.7818608E-02  0.1082853E+00
         -2   -1    0    0    0  501 -0.00000000000E+00  0.00000000000E+00  0.35039039829E+03  0.35039039830E+03  0.25500000000E-02 0. -1.
          2   -1    0    0  501    0  0.00000000000E+00 -0.00000000000E+00 -0.66296059563E+02  0.66296059612E+02  0.25500000000E-02 0.  1.
    5000001    1    1    2    0    0 -0.60925359500E+01  0.13102021603E+03  0.15551629366E+03  0.21752639747E+03  0.77000000000E+02 0.  0.
   -5000001    1    1    2    0    0  0.60925359500E+01 -0.13102021603E+03  0.12857804507E+03  0.19916006045E+03  0.77000000000E+02 0.  0.
<mgrwt>
<rscale>  0 0.30482456E+03</rscale>
<asrwt>0</asrwt>
<pdfrwt beam="1">  1        2 0.94708656E-02 0.30482456E+03</pdfrwt>
<pdfrwt beam="2">  1       -2 0.50055772E-01 0.30482456E+03</pdfrwt>
<totfact> 0.26319397E+03</totfact>
</mgrwt>
</event>
<event>
 4    1  0.1330040E-003  0.2189298E+03  0.7818608E-02  0.1134683E+00
          2   -1    0    0  501    0  0.00000000000E+00  0.00000000000E+00  0.22614041870E+03  0.22614041872E+03  0.25500000000E-02 0.  1.
         -2   -1    0    0    0  501 -0.00000000000E+00 -0.00000000000E+00 -0.52987267666E+02  0.52987267728E+02  0.25500000000E-02 0. -1.
    5000001    1    1    2    0    0 -0.55093061637E+02 -0.44157464019E+02  0.44901894462E+02  0.11371150863E+03  0.77000000000E+02 0.  0.
   -5000001    1    1    2    0    0  0.55093061637E+02  0.44157464019E+02  0.12825125658E+03  0.16541617781E+03  0.77000000000E+02 0.  0.
<mgrwt>
<rscale>  0 0.21892979E+03</rscale>
<asrwt>0</asrwt>
<pdfrwt beam="1">  1        2 0.32305775E-01 0.21892979E+03</pdfrwt>
<pdfrwt beam="2">  1       -2 0.75696095E-02 0.21892979E+03</pdfrwt>
<totfact> 0.16211330E+04</totfact>
</mgrwt>
</event>
<event>
 4    1  0.1330040E-003  0.2361059E+03  0.7818608E-02  0.1122414E+00
         -2   -1    0    0    0  501 -0.00000000000E+00  0.00000000000E+00  0.48904700998E+02  0.48904701065E+02  0.25500000000E-02 0. -1.
          2   -1    0    0  501    0  0.00000000000E+00 -0.00000000000E+00 -0.28497249622E+03  0.28497249623E+03  0.25500000000E-02 0.  1.
    5000001    1    1    2    0    0  0.56871338980E+02 -0.65538550826E+02 -0.14894560582E+03  0.18879471480E+03  0.77000000000E+02 0.  0.
   -5000001    1    1    2    0    0 -0.56871338980E+02  0.65538550826E+02 -0.87122189396E+02  0.14508248249E+03  0.77000000000E+02 0.  0.
<mgrwt>
<rscale>  0 0.23610586E+03</rscale>
<asrwt>0</asrwt>
<pdfrwt beam="1">  1        2 0.40710356E-01 0.23610586E+03</pdfrwt>
<pdfrwt beam="2">  1       -2 0.69863860E-02 0.23610586E+03</pdfrwt>
<totfact> 0.14364753E+04</totfact>
</mgrwt>
</event>
<event>
 4    1  0.1330040E-003  0.2991044E+03  0.7818608E-02  0.1085689E+00
         -2   -1    0    0    0  501 -0.00000000000E+00  0.00000000000E+00  0.11690525667E+03  0.11690525670E+03  0.25500000000E-02 0. -1.
          2   -1    0    0  501    0  0.00000000000E+00 -0.00000000000E+00 -0.19131613452E+03  0.19131613454E+03  0.25500000000E-02 0.  1.
    5000001    1    1    2    0    0 -0.92841107378E+02  0.88297305965E+02 -0.41925037044E+02  0.15525010206E+03  0.77000000000E+02 0.  0.
   -5000001    1    1    2    0    0  0.92841107378E+02 -0.88297305965E+02 -0.32485840804E+02  0.15297128918E+03  0.77000000000E+02 0.  0.
<mgrwt>
<rscale>  0 0.29910441E+03</rscale>
<asrwt>0</asrwt>
<pdfrwt beam="1">  1        2 0.27330876E-01 0.29910441E+03</pdfrwt>
<pdfrwt beam="2">  1       -2 0.16700751E-01 0.29910441E+03</pdfrwt>
<totfact> 0.55452511E+03</totfact>
</mgrwt>
</event>
<event>
 4    1  0.1330040E-003  0.2609319E+03  0.7818608E-02  0.1106585E+00
          2   -1    0    0  501    0  0.00000000000E+00  0.00000000000E+00  0.31123912050E+04  0.31123912050E+04  0.25500000000E-02 0.  1.
         -2   -1    0    0    0  501 -0.00000000000E+00 -0.00000000000E+00 -0.54689002440E+01  0.54689008385E+01  0.25500000000E-02 0. -1.
    5000001    1    1    2    0    0 -0.20758420762E+02  0.93922868288E+02  0.20660054943E+04  0.20696763321E+04  0.77000000000E+02 0.  0.
   -5000001    1    1    2    0    0  0.20758420762E+02 -0.93922868288E+02  0.10409168105E+04  0.10481837738E+04  0.77000000000E+02 0.  0.
<mgrwt>
<rscale>  0 0.26093185E+03</rscale>
<asrwt>0</asrwt>
<pdfrwt beam="1">  1        2 0.44462665E+00 0.26093185E+03</pdfrwt>
<pdfrwt beam="2">  1       -2 0.78127267E-03 0.26093185E+03</pdfrwt>
<totfact> 0.73765292E+03</totfact>
</mgrwt>
</event>
<event>
 4    1  0.1330040E-003  0.1934976E+03  0.7818608E-02  0.1155344E+00
         -2   -1    0    0    0  501 -0.00000000000E+00  0.00000000000E+00  0.11414929390E+03  0.11414929393E+03  0.25500000000E-02 0. -1.
          2   -1    0    0  501    0  0.00000000000E+00 -0.00000000000E+00 -0.82000758090E+02  0.82000758129E+02  0.25500000000E-02 0.  1.
    5000001    1    1    2    0    0  0.37199369263E+02  0.32493560029E+02  0.47997285942E+02  0.10330713419E+03  0.77000000000E+02 0.  0.
   -5000001    1    1    2    0    0 -0.37199369263E+02 -0.32493560029E+02 -0.15848750133E+02  0.92842917865E+02  0.77000000000E+02 0.  0.
<mgrwt>
<rscale>  0 0.19349758E+03</rscale>
<asrwt>0</asrwt>
<pdfrwt beam="1">  1        2 0.11714394E-01 0.19349758E+03</pdfrwt>
<pdfrwt beam="2">  1       -2 0.16307042E-01 0.19349758E+03</pdfrwt>
<totfact> 0.15056087E+04</totfact>
</mgrwt>
</event>
<event>
 4    1  0.1330040E-003  0.2815739E+03  0.7818608E-02  0.1094832E+00
          2   -1    0    0  501    0  0.00000000000E+00  0.00000000000E+00  0.29990259476E+04  0.29990259476E+04  0.25500000000E-02 0.  1.
         -2   -1    0    0    0  501 -0.00000000000E+00 -0.00000000000E+00 -0.66091332304E+01  0.66091337223E+01  0.25500000000E-02 0. -1.
    5000001    1    1    2    0    0 -0.91587538142E+01 -0.49034947239E+02  0.26361061604E+04  0.26377022193E+04  0.77000000000E+02 0.  0.
   -5000001    1    1    2    0    0  0.91587538142E+01  0.49034947239E+02  0.35631065400E+03  0.36793286204E+03  0.77000000000E+02 0.  0.
<mgrwt>
<rscale>  0 0.28157388E+03</rscale>
<asrwt>0</asrwt>
<pdfrwt beam="1">  1        2 0.42843148E+00 0.28157388E+03</pdfrwt>
<pdfrwt beam="2">  1       -2 0.94416369E-03 0.28157388E+03</pdfrwt>
<totfact> 0.64416210E+03</totfact>
</mgrwt>
</event>
<event>
 4    1  0.1330040E-003  0.3144627E+03  0.7818608E-02  0.1078226E+00
         -2   -1    0    0    0  501 -0.00000000000E+00  0.00000000000E+00  0.14198258585E+02  0.14198258814E+02  0.25500000000E-02 0. -1.
          2   -1    0    0  501    0  0.00000000000E+00 -0.00000000000E+00 -0.17411781576E+04  0.17411781576E+04  0.25500000000E-02 0.  1.
    5000001    1    1    2    0    0  0.37670771028E+02 -0.11922739858E+03 -0.54977347995E+03  0.56904669301E+03  0.77000000000E+02 0.  0.
   -5000001    1    1    2    0    0 -0.37670771028E+02  0.11922739858E+03 -0.11772064190E+04  0.11863297234E+04  0.77000000000E+02 0.  0.
<mgrwt>
<rscale>  0 0.31446270E+03</rscale>
<asrwt>0</asrwt>
<pdfrwt beam="1">  1        2 0.24873960E+00 0.31446270E+03</pdfrwt>
<pdfrwt beam="2">  1       -2 0.20283238E-02 0.31446270E+03</pdfrwt>
<totfact> 0.89765077E+03</totfact>
</mgrwt>
</event>
<event>
 4    1  0.1330040E-003  0.2440269E+03  0.7818608E-02  0.1117139E+00
          2   -1    0    0  501    0  0.00000000000E+00  0.00000000000E+00  0.38334219965E+03  0.38334219966E+03  0.25500000000E-02 0.  1.
         -2   -1    0    0    0  501 -0.00000000000E+00 -0.00000000000E+00 -0.38835503684E+02  0.38835503768E+02  0.25500000000E-02 0. -1.
    5000001    1    1    2    0    0  0.46963977044E+02 -0.76954118882E+02  0.22211756377E+03  0.25177919630E+03  0.77000000000E+02 0.  0.
   -5000001    1    1    2    0    0 -0.46963977044E+02  0.76954118882E+02  0.12238913220E+03  0.17039850713E+03  0.77000000000E+02 0.  0.
<mgrwt>
<rscale>  0 0.24402694E+03</rscale>
<asrwt>0</asrwt>
<pdfrwt beam="1">  1        2 0.54763175E-01 0.24402694E+03</pdfrwt>
<pdfrwt beam="2">  1       -2 0.55479288E-02 0.24402694E+03</pdfrwt>
<totfact> 0.14909122E+04</totfact>
</mgrwt>
</event>
<event>
 4    1  0.1330040E-003  0.2744979E+03  0.7818608E-02  0.1098733E+00
         -2   -1    0    0    0  501 -0.00000000000E+00  0.00000000000E+00  0.93459476375E+02  0.93459476409E+02  0.25500000000E-02 0. -1.
          2   -1    0    0  501    0  0.00000000000E+00 -0.00000000000E+00 -0.20155551834E+03  0.20155551836E+03  0.25500000000E-02 0.  1.
    5000001    1    1    2    0    0  0.87844260800E+02  0.70447495061E+02 -0.37790957606E+02  0.14155076896E+03  0.77000000000E+02 0.  0.
   -5000001    1    1    2    0    0 -0.87844260800E+02 -0.70447495061E+02 -0.70305084360E+02  0.15346422581E+03  0.77000000000E+02 0.  0.
<mgrwt>
<rscale>  0 0.27449789E+03</rscale>
<asrwt>0</asrwt>
<pdfrwt beam="1">  1        2 0.28793645E-01 0.27449789E+03</pdfrwt>
<pdfrwt beam="2">  1       -2 0.13351354E-01 0.27449789E+03</pdfrwt>
<totfact> 0.75551484E+03</totfact>
</mgrwt>
</event>
<event>
 4    1  0.1330040E-003  0.2346555E+03  0.7818608E-02  0.1123405E+00
          2   -1    0    0  501    0  0.00000000000E+00  0.00000000000E+00  0.72597008610E+03  0.72597008611E+03  0.25500000000E-02 0.  1.
         -2   -1    0    0    0  501 -0.00000000000E+00 -0.00000000000E+00 -0.18961940323E+02  0.18961940494E+02  0.25500000000E-02 0. -1.
    5000001    1    1    2    0    0  0.54561375797E+02  0.39075584856E+00  0.13219926122E+03  0.16242764877E+03  0.77000000000E+02 0.  0.
   -5000001    1    1    2    0    0 -0.54561375797E+02 -0.39075584856E+00  0.57480888456E+03  0.58250437783E+03  0.77000000000E+02 0.  0.
<mgrwt>
<rscale>  0 0.23465551E+03</rscale>
<asrwt>0</asrwt>
<pdfrwt beam="1">  1        2 0.10370998E+00 0.23465551E+03</pdfrwt>
<pdfrwt beam="2">  1       -2 0.27088495E-02 0.23465551E+03</pdfrwt>
<totfact> 0.21334709E+04</totfact>
</mgrwt>
</event>
<event>
 4    1  0.1330040E-003  0.4365421E+03  0.7818608E-02  0.1031813E+00
          2   -1    0    0  501    0  0.00000000000E+00  0.00000000000E+00  0.13138118664E+04  0.13138118664E+04  0.25500000000E-02 0.  1.
         -2   -1    0    0    0  501 -0.00000000000E+00 -0.00000000000E+00 -0.36262613315E+02  0.36262613405E+02  0.25500000000E-02 0. -1.
    5000001    1    1    2    0    0 -0.16330678187E+03 -0.12201491789E+03  0.67746454847E+03  0.71164876142E+03  0.77000000000E+02 0.  0.
   -5000001    1    1    2    0    0  0.16330678187E+03  0.12201491789E+03  0.60008470464E+03  0.63842571841E+03  0.77000000000E+02 0.  0.
<mgrwt>
<rscale>  0 0.43654210E+03</rscale>
<asrwt>0</asrwt>
<pdfrwt beam="1">  1        2 0.18768738E+00 0.43654210E+03</pdfrwt>
<pdfrwt beam="2">  1       -2 0.51803741E-02 0.43654210E+03</pdfrwt>
<totfact> 0.36226401E+03</totfact>
</mgrwt>
</event>
<event>
 4    1  0.1330040E-003  0.1708898E+03  0.7818608E-02  0.1176923E+00
         -2   -1    0    0    0  501 -0.00000000000E+00  0.00000000000E+00  0.49892740884E+01  0.49892747401E+01  0.25500000000E-02 0. -1.
          2   -1    0    0  501    0  0.00000000000E+00 -0.00000000000E+00 -0.14633047770E+04  0.14633047770E+04  0.25500000000E-02 0.  1.
    5000001    1    1    2    0    0 -0.26539261488E+02 -0.15112798229E+02 -0.90920176248E+03  0.91296745504E+03  0.77000000000E+02 0.  0.
   -5000001    1    1    2    0    0  0.26539261488E+02  0.15112798229E+02 -0.54911374040E+03  0.55532659666E+03  0.77000000000E+02 0.  0.
<mgrwt>
<rscale>  0 0.17088978E+03</rscale>
<asrwt>0</asrwt>
<pdfrwt beam="1">  1        2 0.20904327E+00 0.17088978E+03</pdfrwt>
<pdfrwt beam="2">  1       -2 0.71275442E-03 0.17088978E+03</pdfrwt>
<totfact> 0.54732476E+04</totfact>
</mgrwt>
</event>
<event>
 4    1  0.1330040E-003  0.2239328E+03  0.7818608E-02  0.1130985E+00
         -2   -1    0    0    0  501 -0.00000000000E+00  0.00000000000E+00  0.22323680603E+04  0.22323680603E+04  0.25500000000E-02 0. -1.
          2   -1    0    0  501    0  0.00000000000E+00 -0.00000000000E+00 -0.56157739824E+01  0.56157745613E+01  0.25500000000E-02 0.  1.
    5000001    1    1    2    0    0  0.62853043152E+01  0.41127146040E+02  0.18112783731E+04  0.18133916544E+04  0.77000000000E+02 0.  0.
   -5000001    1    1    2    0    0 -0.62853043152E+01 -0.41127146040E+02  0.41547391322E+03  0.42459218052E+03  0.77000000000E+02 0.  0.
<mgrwt>
<rscale>  0 0.22393280E+03</rscale>
<asrwt>0</asrwt>
<pdfrwt beam="1">  1        2 0.80225320E-03 0.22393280E+03</pdfrwt>
<pdfrwt beam="2">  1       -2 0.31890983E+00 0.22393280E+03</pdfrwt>
<totfact> 0.55648841E+02</totfact>
</mgrwt>
</event>
<event>
 4    1  0.1330040E-003  0.2417892E+03  0.7818608E-02  0.1118607E+00
          2   -1    0    0  501    0  0.00000000000E+00  0.00000000000E+00  0.24506410747E+03  0.24506410748E+03  0.25500000000E-02 0.  1.
         -2   -1    0    0    0  501 -0.00000000000E+00 -0.00000000000E+00 -0.59639503652E+02  0.59639503707E+02  0.25500000000E-02 0. -1.
    5000001    1    1    2    0    0 -0.30688187211E+02 -0.73544797527E+02  0.31805214309E+02  0.11528735288E+03  0.77000000000E+02 0.  0.
   -5000001    1    1    2    0    0  0.30688187211E+02  0.73544797527E+02  0.15361938951E+03  0.18941625830E+03  0.77000000000E+02 0.  0.
<mgrwt>
<rscale>  0 0.24178918E+03</rscale>
<asrwt>0</asrwt>
<pdfrwt beam="1">  1        2 0.35009158E-01 0.24178918E+03</pdfrwt>
<pdfrwt beam="2">  1       -2 0.85199291E-02 0.24178918E+03</pdfrwt>
<totfact> 0.12431776E+04</totfact>
</mgrwt>
</event>
<event>
 4    1  0.1330040E-003  0.2382871E+03  0.7818608E-02  0.1120939E+00
         -2   -1    0    0    0  501 -0.00000000000E+00  0.00000000000E+00  0.85692465251E+02  0.85692465289E+02  0.25500000000E-02 0. -1.
          2   -1    0    0  501    0  0.00000000000E+00 -0.00000000000E+00 -0.16565273424E+03  0.16565273426E+03  0.25500000000E-02 0.  1.
    5000001    1    1    2    0    0  0.67096365270E+02  0.78325501942E+01 -0.10416640577E+03  0.14609213246E+03  0.77000000000E+02 0.  0.
   -5000001    1    1    2    0    0 -0.67096365270E+02 -0.78325501942E+01  0.24206136778E+02  0.10525306709E+03  0.77000000000E+02 0.  0.
<mgrwt>
<rscale>  0 0.23828715E+03</rscale>
<asrwt>0</asrwt>
<pdfrwt beam="1">  1        2 0.23664676E-01 0.23828715E+03</pdfrwt>
<pdfrwt beam="2">  1       -2 0.12241781E-01 0.23828715E+03</pdfrwt>
<totfact> 0.10743381E+04</totfact>
</mgrwt>
</event>
<event>
 4    1  0.1330040E-003  0.2378066E+03  0.7818608E-02  0.1121263E+00
         -2   -1    0    0    0  501 -0.00000000000E+00  0.00000000000E+00  0.22554164498E+02  0.22554164642E+02  0.25500000000E-02 0. -1.
          2   -1    0    0  501    0  0.00000000000E+00 -0.00000000000E+00 -0.62684640362E+03  0.62684640363E+03  0.25500000000E-02 0.  1.
    5000001    1    1    2    0    0  0.62434795709E+02 -0.99328130594E+01 -0.12491299578E+03  0.15977803668E+03  0.77000000000E+02 0.  0.
   -5000001    1    1    2    0    0 -0.62434795709E+02  0.99328130594E+01 -0.47937924335E+03  0.48962253159E+03  0.77000000000E+02 0.  0.
<mgrwt>
<rscale>  0 0.23780662E+03</rscale>
<asrwt>0</asrwt>
<pdfrwt beam="1">  1        2 0.89549475E-01 0.23780662E+03</pdfrwt>
<pdfrwt beam="2">  1       -2 0.32220239E-02 0.23780662E+03</pdfrwt>
<totfact> 0.19600460E+04</totfact>
</mgrwt>
</event>
<event>
 4    1  0.1330040E-003  0.2282616E+03  0.7818608E-02  0.1127869E+00
          2   -1    0    0  501    0  0.00000000000E+00  0.00000000000E+00  0.80025293601E+03  0.80025293601E+03  0.25500000000E-02 0.  1.
         -2   -1    0    0    0  501 -0.00000000000E+00 -0.00000000000E+00 -0.16277146802E+02  0.16277147001E+02  0.25500000000E-02 0. -1.
    5000001    1    1    2    0    0 -0.39400118283E+02  0.63838402798E+02  0.52909772179E+03  0.53990842760E+03  0.77000000000E+02 0.  0.
   -5000001    1    1    2    0    0  0.39400118283E+02 -0.63838402798E+02  0.25487806741E+03  0.27662165541E+03  0.77000000000E+02 0.  0.
<mgrwt>
<rscale>  0 0.22826156E+03</rscale>
<asrwt>0</asrwt>
<pdfrwt beam="1">  1        2 0.11432188E+00 0.22826156E+03</pdfrwt>
<pdfrwt beam="2">  1       -2 0.23253060E-02 0.22826156E+03</pdfrwt>
<totfact> 0.23707904E+04</totfact>
</mgrwt>
</event>
<event>
 4    1  0.1330040E-003  0.1977918E+03  0.7818608E-02  0.1151616E+00
         -2   -1    0    0    0  501 -0.00000000000E+00  0.00000000000E+00  0.78923975060E+02  0.78923975101E+02  0.25500000000E-02 0. -1.
          2   -1    0    0  501    0  0.00000000000E+00 -0.00000000000E+00 -0.12392174553E+03  0.12392174556E+03  0.25500000000E-02 0.  1.
    5000001    1    1    2    0    0  0.35184640986E+00 -0.61127482632E+02 -0.33482532582E+02  0.10385939012E+03  0.77000000000E+02 0.  0.
   -5000001    1    1    2    0    0 -0.35184640986E+00  0.61127482632E+02 -0.11515237888E+02  0.98986330533E+02  0.77000000000E+02 0.  0.
<mgrwt>
<rscale>  0 0.19779178E+03</rscale>
<asrwt>0</asrwt>
<pdfrwt beam="1">  1        2 0.17703106E-01 0.19779178E+03</pdfrwt>
<pdfrwt beam="2">  1       -2 0.11274854E-01 0.19779178E+03</pdfrwt>
<totfact> 0.16853704E+04</totfact>
</mgrwt>
</event>
<event>
 4    1  0.1330040E-003  0.2346560E+03  0.7818608E-02  0.1123405E+00
         -2   -1    0    0    0  501 -0.00000000000E+00  0.00000000000E+00  0.14481772902E+03  0.14481772904E+03  0.25500000000E-02 0. -1.
          2   -1    0    0  501    0  0.00000000000E+00 -0.00000000000E+00 -0.95056447682E+02  0.95056447717E+02  0.25500000000E-02 0.  1.
    5000001    1    1    2    0    0  0.41369338579E+02 -0.65409683226E+02  0.68813197018E+02  0.12905078426E+03  0.77000000000E+02 0.  0.
   -5000001    1    1    2    0    0 -0.41369338579E+02  0.65409683226E+02 -0.19051915679E+02  0.11082339250E+03  0.77000000000E+02 0.  0.
<mgrwt>
<rscale>  0 0.23465599E+03</rscale>
<asrwt>0</asrwt>
<pdfrwt beam="1">  1        2 0.13579493E-01 0.23465599E+03</pdfrwt>
<pdfrwt beam="2">  1       -2 0.20688247E-01 0.23465599E+03</pdfrwt>
<totfact> 0.85424771E+03</totfact>
</mgrwt>
</event>
<event>
 4    1  0.1330040E-003  0.3239244E+03  0.7818608E-02  0.1073857E+00
          2   -1    0    0  501    0  0.00000000000E+00  0.00000000000E+00  0.63236659387E+03  0.63236659387E+03  0.25500000000E-02 0.  1.
         -2   -1    0    0    0  501 -0.00000000000E+00 -0.00000000000E+00 -0.41481884507E+02  0.41481884586E+02  0.25500000000E-02 0. -1.
    5000001    1    1    2    0    0 -0.89837670591E+02  0.10463043805E+03  0.22088808920E+03  0.27154904451E+03  0.77000000000E+02 0.  0.
   -5000001    1    1    2    0    0  0.89837670591E+02 -0.10463043805E+03  0.36999662016E+03  0.40229943395E+03  0.77000000000E+02 0.  0.
<mgrwt>
<rscale>  0 0.32392442E+03</rscale>
<asrwt>0</asrwt>
<pdfrwt beam="1">  1        2 0.90338078E-01 0.32392442E+03</pdfrwt>
<pdfrwt beam="2">  1       -2 0.59259839E-02 0.32392442E+03</pdfrwt>
<totfact> 0.78260423E+03</totfact>
</mgrwt>
</event>
<event>
 4    1  0.1330040E-003  0.2553301E+03  0.7818608E-02  0.1109982E+00
         -2   -1    0    0    0  501 -0.00000000000E+00  0.00000000000E+00  0.13767184436E+03  0.13767184439E+03  0.25500000000E-02 0. -1.
          2   -1    0    0  501    0  0.00000000000E+00 -0.00000000000E+00 -0.11838559085E+03  0.11838559088E+03  0.25500000000E-02 0.  1.
    5000001    1    1    2    0    0 -0.56575807215E+02 -0.65359747147E+02  0.63616924705E+02  0.13209402567E+03  0.77000000000E+02 0.  0.
   -5000001    1    1    2    0    0  0.56575807215E+02  0.65359747147E+02 -0.44330671191E+02  0.12396340959E+03  0.77000000000E+02 0.  0.
<mgrwt>
<rscale>  0 0.25533008E+03</rscale>
<asrwt>0</asrwt>
<pdfrwt beam="1">  1        2 0.16912227E-01 0.25533008E+03</pdfrwt>
<pdfrwt beam="2">  1       -2 0.19667406E-01 0.25533008E+03</pdfrwt>
<totfact> 0.72159082E+03</totfact>
</mgrwt>
</event>
<event>
 4    1  0.1330040E-003  0.2772471E+03  0.7818608E-02  0.1097202E+00
         -2   -1    0    0    0  501 -0.00000000000E+00  0.00000000000E+00  0.48764343894E+02  0.48764343960E+02  0.25500000000E-02 0. -1.
          2   -1    0    0  501    0  0.00000000000E+00 -0.00000000000E+00 -0.39406836022E+03  0.39406836023E+03  0.25500000000E-02 0.  1.
    5000001    1    1    2    0    0 -0.73515484976E+02  0.67257308794E+02 -0.26522928677E+03  0.29360457537E+03  0.77000000000E+02 0.  0.
   -5000001    1    1    2    0    0  0.73515484976E+02 -0.67257308794E+02 -0.80074729557E+02  0.14922812882E+03  0.77000000000E+02 0.  0.
<mgrwt>
<rscale>  0 0.27724707E+03</rscale>
<asrwt>0</asrwt>
<pdfrwt beam="1">  1        2 0.56295478E-01 0.27724707E+03</pdfrwt>
<pdfrwt beam="2">  1       -2 0.69663351E-02 0.27724707E+03</pdfrwt>
<totfact> 0.10264543E+04</totfact>
</mgrwt>
</event>
<event>
 4    1  0.1330040E-003  0.6035750E+03  0.7818608E-02  0.9898017E-01
         -2   -1    0    0    0  501 -0.00000000000E+00  0.00000000000E+00  0.51635146848E+02  0.51635146910E+02  0.25500000000E-02 0. -1.
          2   -1    0    0  501    0  0.00000000000E+00 -0.00000000000E+00 -0.17638315899E+04  0.17638315899E+04  0.25500000000E-02 0.  1.
    5000001    1    1    2    0    0 -0.23655973741E+03 -0.15812568097E+03 -0.66157427091E+03  0.72427464147E+03  0.77000000000E+02 0.  0.
   -5000001    1    1    2    0    0  0.23655973741E+03  0.15812568097E+03 -0.10506221721E+04  0.10911920953E+04  0.77000000000E+02 0.  0.
<mgrwt>
<rscale>  0 0.60357503E+03</rscale>
<asrwt>0</asrwt>
<pdfrwt beam="1">  1        2 0.25197590E+00 0.60357503E+03</pdfrwt>
<pdfrwt beam="2">  1       -2 0.73764507E-02 0.60357503E+03</pdfrwt>
<totfact> 0.12150741E+03</totfact>
</mgrwt>
</event>
<event>
 4    1  0.1330040E-003  0.5496709E+03  0.7818608E-02  0.1001570E+00
          2   -1    0    0  501    0  0.00000000000E+00  0.00000000000E+00  0.22957971009E+04  0.22957971009E+04  0.25500000000E-02 0.  1.
         -2   -1    0    0    0  501 -0.00000000000E+00 -0.00000000000E+00 -0.32901216159E+02  0.32901216258E+02  0.25500000000E-02 0. -1.
    5000001    1    1    2    0    0 -0.38237936962E+02  0.15963559026E+03  0.25642347889E+03  0.31405041319E+03  0.77000000000E+02 0.  0.
   -5000001    1    1    2    0    0  0.38237936962E+02 -0.15963559026E+03  0.20064724059E+04  0.20146479040E+04  0.77000000000E+02 0.  0.
<mgrwt>
<rscale>  0 0.54967087E+03</rscale>
<asrwt>0</asrwt>
<pdfrwt beam="1">  1        2 0.32797084E+00 0.54967087E+03</pdfrwt>
<pdfrwt beam="2">  1       -2 0.47001763E-02 0.54967087E+03</pdfrwt>
<totfact> 0.13319330E+03</totfact>
</mgrwt>
</event>
<event>
 4    1  0.1330040E-003  0.3296658E+03  0.7818608E-02  0.1071285E+00
         -2   -1    0    0    0  501 -0.00000000000E+00  0.00000000000E+00  0.13786488494E+03  0.13786488497E+03  0.25500000000E-02 0. -1.
          2   -1    0    0  501    0  0.00000000000E+00 -0.00000000000E+00 -0.19707623502E+03  0.19707623504E+03  0.25500000000E-02 0.  1.
    5000001    1    1    2    0    0 -0.60260129924E+02  0.92669592958E+02 -0.12610957380E+03  0.18453065144E+03  0.77000000000E+02 0.  0.
   -5000001    1    1    2    0    0  0.60260129924E+02 -0.92669592958E+02  0.66898223718E+02  0.15041046857E+03  0.77000000000E+02 0.  0.
<mgrwt>
<rscale>  0 0.32966585E+03</rscale>
<asrwt>0</asrwt>
<pdfrwt beam="1">  1        2 0.28153748E-01 0.32966585E+03</pdfrwt>
<pdfrwt beam="2">  1       -2 0.19694984E-01 0.32966585E+03</pdfrwt>
<totfact> 0.40696792E+03</totfact>
</mgrwt>
</event>
<event>
 4    1  0.1330040E-003  0.1927125E+03  0.7818608E-02  0.1156037E+00
         -2   -1    0    0    0  501 -0.00000000000E+00  0.00000000000E+00  0.11852869454E+02  0.11852869729E+02  0.25500000000E-02 0.  1.
          2   -1    0    0  501    0  0.00000000000E+00 -0.00000000000E+00 -0.78331468481E+03  0.78331468482E+03  0.25500000000E-02 0. -1.
    5000001    1    1    2    0    0  0.39199514170E+02  0.40543214124E+02 -0.44034213869E+03  0.45056692426E+03  0.77000000000E+02 0.  0.
   -5000001    1    1    2    0    0 -0.39199514170E+02 -0.40543214124E+02 -0.33111967666E+03  0.34460063029E+03  0.77000000000E+02 0.  0.
<mgrwt>
<rscale>  0 0.19271250E+03</rscale>
<asrwt>0</asrwt>
<pdfrwt beam="1">  1        2 0.11190207E+00 0.19271250E+03</pdfrwt>
<pdfrwt beam="2">  1       -2 0.16932676E-02 0.19271250E+03</pdfrwt>
<totfact> 0.38253245E+04</totfact>
</mgrwt>
</event>
<event>
 4    1  0.1330040E-003  0.2795816E+03  0.7818608E-02  0.1095918E+00
          2   -1    0    0  501    0  0.00000000000E+00  0.00000000000E+00  0.90828004776E+02  0.90828004811E+02  0.25500000000E-02 0.  1.
         -2   -1    0    0    0  501 -0.00000000000E+00 -0.00000000000E+00 -0.21514802222E+03  0.21514802224E+03  0.25500000000E-02 0. -1.
    5000001    1    1    2    0    0  0.39313808377E+02 -0.95545687494E+02 -0.12147960772E+03  0.17708994613E+03  0.77000000000E+02 0.  0.
   -5000001    1    1    2    0    0 -0.39313808377E+02  0.95545687494E+02 -0.28404097273E+01  0.12888608092E+03  0.77000000000E+02 0.  0.
<mgrwt>
<rscale>  0 0.27958158E+03</rscale>
<asrwt>0</asrwt>
<pdfrwt beam="1">  1        2 0.12975429E-01 0.27958158E+03</pdfrwt>
<pdfrwt beam="2">  1       -2 0.30735432E-01 0.27958158E+03</pdfrwt>
<totfact> 0.45183990E+03</totfact>
</mgrwt>
</event>
<event>
 4    1  0.1330040E-003  0.2718549E+03  0.7818608E-02  0.1100223E+00
          2   -1    0    0  501    0  0.00000000000E+00  0.00000000000E+00  0.23805525137E+03  0.23805525138E+03  0.25500000000E-02 0.  1.
         -2   -1    0    0    0  501 -0.00000000000E+00 -0.00000000000E+00 -0.77613395713E+02  0.77613395755E+02  0.25500000000E-02 0. -1.
    5000001    1    1    2    0    0  0.16623938193E+02 -0.10481566377E+03  0.12183860190E+03  0.17898693697E+03  0.77000000000E+02 0.  0.
   -5000001    1    1    2    0    0 -0.16623938193E+02  0.10481566377E+03  0.38603253754E+02  0.13668171017E+03  0.77000000000E+02 0.  0.
<mgrwt>
<rscale>  0 0.27185494E+03</rscale>
<asrwt>0</asrwt>
<pdfrwt beam="1">  1        2 0.34007893E-01 0.27185494E+03</pdfrwt>
<pdfrwt beam="2">  1       -2 0.11087628E-01 0.27185494E+03</pdfrwt>
<totfact> 0.85007334E+03</totfact>
</mgrwt>
</event>
<event>
 4    1  0.1330040E-003  0.2147504E+03  0.7818608E-02  0.1137858E+00
         -2   -1    0    0    0  501 -0.00000000000E+00  0.00000000000E+00  0.36117618073E+02  0.36117618163E+02  0.25500000000E-02 0. -1.
          2   -1    0    0  501    0  0.00000000000E+00 -0.00000000000E+00 -0.31921899666E+03  0.31921899667E+03  0.25500000000E-02 0.  1.
    5000001    1    1    2    0    0 -0.50173031125E+02 -0.22160141048E+02 -0.57309277609E+02  0.11055206106E+03  0.77000000000E+02 0.  0.
   -5000001    1    1    2    0    0  0.50173031125E+02  0.22160141048E+02 -0.22579210097E+03  0.24478455377E+03  0.77000000000E+02 0.  0.
<mgrwt>
<rscale>  0 0.21475037E+03</rscale>
<asrwt>0</asrwt>
<pdfrwt beam="1">  1        2 0.45602712E-01 0.21475037E+03</pdfrwt>
<pdfrwt beam="2">  1       -2 0.51596599E-02 0.21475037E+03</pdfrwt>
<totfact> 0.20098336E+04</totfact>
</mgrwt>
</event>
<event>
 4    1  0.1330040E-003  0.2315451E+03  0.7818608E-02  0.1125557E+00
          2   -1    0    0  501    0  0.00000000000E+00  0.00000000000E+00  0.57852513732E+03  0.57852513733E+03  0.25500000000E-02 0.  1.
         -2   -1    0    0    0  501 -0.00000000000E+00 -0.00000000000E+00 -0.23168029130E+02  0.23168029271E+02  0.25500000000E-02 0. -1.
    5000001    1    1    2    0    0  0.14012561268E+01  0.83847172356E+02  0.22304763684E+03  0.25042276280E+03  0.77000000000E+02 0.  0.
   -5000001    1    1    2    0    0 -0.14012561268E+01 -0.83847172356E+02  0.33230947136E+03  0.35127040380E+03  0.77000000000E+02 0.  0.
<mgrwt>
<rscale>  0 0.23154513E+03</rscale>
<asrwt>0</asrwt>
<pdfrwt beam="1">  1        2 0.82646452E-01 0.23154513E+03</pdfrwt>
<pdfrwt beam="2">  1       -2 0.33097183E-02 0.23154513E+03</pdfrwt>
<totfact> 0.20600257E+04</totfact>
</mgrwt>
</event>
<event>
 4    1  0.1330040E-003  0.2939539E+03  0.7818608E-02  0.1088303E+00
          2   -1    0    0  501    0  0.00000000000E+00  0.00000000000E+00  0.13160472897E+04  0.13160472897E+04  0.25500000000E-02 0.  1.
         -2   -1    0    0    0  501 -0.00000000000E+00 -0.00000000000E+00 -0.16414476023E+02  0.16414476221E+02  0.25500000000E-02 0. -1.
    5000001    1    1    2    0    0  0.16681145688E+02 -0.12407265006E+03  0.65421985200E+03  0.67052583684E+03  0.77000000000E+02 0.  0.
   -5000001    1    1    2    0    0 -0.16681145688E+02  0.12407265006E+03  0.64541296165E+03  0.66193592906E+03  0.77000000000E+02 0.  0.
<mgrwt>
<rscale>  0 0.29395392E+03</rscale>
<asrwt>0</asrwt>
<pdfrwt beam="1">  1        2 0.18800680E+00 0.29395392E+03</pdfrwt>
<pdfrwt beam="2">  1       -2 0.23449246E-02 0.29395392E+03</pdfrwt>
<totfact> 0.11877984E+04</totfact>
</mgrwt>
</event>
<event>
 4    1  0.1330040E-003  0.2352158E+03  0.7818608E-02  0.1123022E+00
         -2   -1    0    0    0  501 -0.00000000000E+00  0.00000000000E+00  0.11006810293E+02  0.11006810588E+02  0.25500000000E-02 0. -1.
          2   -1    0    0  501    0  0.00000000000E+00 -0.00000000000E+00 -0.12566413153E+04  0.12566413153E+04  0.25500000000E-02 0.  1.
    5000001    1    1    2    0    0 -0.69375192034E+02  0.27797497538E+02 -0.88223209716E+03  0.88873398236E+03  0.77000000000E+02 0.  0.
   -5000001    1    1    2    0    0  0.69375192034E+02 -0.27797497538E+02 -0.36340240781E+03  0.37891414350E+03  0.77000000000E+02 0.  0.
<mgrwt>
<rscale>  0 0.23521575E+03</rscale>
<asrwt>0</asrwt>
<pdfrwt beam="1">  1        2 0.17952010E+00 0.23521575E+03</pdfrwt>
<pdfrwt beam="2">  1       -2 0.15724023E-02 0.23521575E+03</pdfrwt>
<totfact> 0.22769655E+04</totfact>
</mgrwt>
</event>
<event>
 4    1  0.1330040E-003  0.2451193E+03  0.7818608E-02  0.1116429E+00
         -2   -1    0    0    0  501 -0.00000000000E+00  0.00000000000E+00  0.13014520293E+02  0.13014520543E+02  0.25500000000E-02 0. -1.
          2   -1    0    0  501    0  0.00000000000E+00 -0.00000000000E+00 -0.11541623848E+04  0.11541623848E+04  0.25500000000E-02 0.  1.
    5000001    1    1    2    0    0  0.74319327162E+02 -0.36164468359E+01 -0.85449991866E+03  0.86118264733E+03  0.77000000000E+02 0.  0.
   -5000001    1    1    2    0    0 -0.74319327162E+02  0.36164468359E+01 -0.28664794582E+03  0.30599425798E+03  0.77000000000E+02 0.  0.
<mgrwt>
<rscale>  0 0.24511932E+03</rscale>
<asrwt>0</asrwt>
<pdfrwt beam="1">  1        2 0.16488028E+00 0.24511932E+03</pdfrwt>
<pdfrwt beam="2">  1       -2 0.18592179E-02 0.24511932E+03</pdfrwt>
<totfact> 0.20282773E+04</totfact>
</mgrwt>
</event>
<event>
 4    1  0.1330040E-003  0.1712785E+03  0.7818608E-02  0.1176521E+00
         -2   -1    0    0    0  501 -0.00000000000E+00  0.00000000000E+00  0.46095981635E+02  0.46095981705E+02  0.25500000000E-02 0. -1.
          2   -1    0    0  501    0  0.00000000000E+00 -0.00000000000E+00 -0.15910449830E+03  0.15910449832E+03  0.25500000000E-02 0.  1.
    5000001    1    1    2    0    0 -0.23055960860E+02 -0.29526634935E+02 -0.58056435763E+02  0.10345505901E+03  0.77000000000E+02 0.  0.
   -5000001    1    1    2    0    0  0.23055960860E+02  0.29526634935E+02 -0.54952080903E+02  0.10174542101E+03  0.77000000000E+02 0.  0.
<mgrwt>
<rscale>  0 0.17127846E+03</rscale>
<asrwt>0</asrwt>
<pdfrwt beam="1">  1        2 0.22729214E-01 0.17127846E+03</pdfrwt>
<pdfrwt beam="2">  1       -2 0.65851403E-02 0.17127846E+03</pdfrwt>
<totfact> 0.29026711E+04</totfact>
</mgrwt>
</event>
<event>
 4    1  0.1330040E-003  0.3433978E+03  0.7818608E-02  0.1065358E+00
         -2   -1    0    0    0  501 -0.00000000000E+00  0.00000000000E+00  0.17706627903E+02  0.17706628086E+02  0.25500000000E-02 0. -1.
          2   -1    0    0  501    0  0.00000000000E+00 -0.00000000000E+00 -0.16649421569E+04  0.16649421569E+04  0.25500000000E-02 0.  1.
    5000001    1    1    2    0    0  0.12102675038E+03  0.92274218100E+02 -0.92032365413E+03  0.93599499677E+03  0.77000000000E+02 0.  0.
   -5000001    1    1    2    0    0 -0.12102675038E+03 -0.92274218100E+02 -0.72691187489E+03  0.74665378823E+03  0.77000000000E+02 0.  0.
<mgrwt>
<rscale>  0 0.34339780E+03</rscale>
<asrwt>0</asrwt>
<pdfrwt beam="1">  1        2 0.23784878E+00 0.34339780E+03</pdfrwt>
<pdfrwt beam="2">  1       -2 0.25295193E-02 0.34339780E+03</pdfrwt>
<totfact> 0.70653088E+03</totfact>
</mgrwt>
</event>
<event>
 4    1  0.1330040E-003  0.2767833E+03  0.7818608E-02  0.1097459E+00
          2   -1    0    0  501    0  0.00000000000E+00  0.00000000000E+00  0.48487373886E+02  0.48487373953E+02  0.25500000000E-02 0.  1.
         -2   -1    0    0    0  501 -0.00000000000E+00 -0.00000000000E+00 -0.39499456184E+03  0.39499456184E+03  0.25500000000E-02 0. -1.
    5000001    1    1    2    0    0  0.95700516245E+02 -0.63316174011E+02 -0.16129305810E+03  0.21239580338E+03  0.77000000000E+02 0.  0.
   -5000001    1    1    2    0    0 -0.95700516245E+02  0.63316174011E+02 -0.18521412985E+03  0.23108613242E+03  0.77000000000E+02 0.  0.
<mgrwt>
<rscale>  0 0.27678330E+03</rscale>
<asrwt>0</asrwt>
<pdfrwt beam="1">  1        2 0.69267679E-02 0.27678330E+03</pdfrwt>
<pdfrwt beam="2">  1       -2 0.56427793E-01 0.27678330E+03</pdfrwt>
<totfact> 0.30659798E+03</totfact>
</mgrwt>
</event>
<event>
 4    1  0.1330040E-003  0.1844766E+03  0.7818608E-02  0.1163540E+00
         -2   -1    0    0    0  501 -0.00000000000E+00  0.00000000000E+00  0.12018322864E+03  0.12018322867E+03  0.25500000000E-02 0. -1.
          2   -1    0    0  501    0  0.00000000000E+00 -0.00000000000E+00 -0.70791116914E+02  0.70791116960E+02  0.25500000000E-02 0.  1.
    5000001    1    1    2    0    0 -0.34359575369E+02  0.24637087736E+02  0.53817631081E+02  0.10301894936E+03  0.77000000000E+02 0.  0.
   -5000001    1    1    2    0    0  0.34359575369E+02 -0.24637087736E+02 -0.44255193529E+01  0.87955396271E+02  0.77000000000E+02 0.  0.
<mgrwt>
<rscale>  0 0.18447661E+03</rscale>
<asrwt>0</asrwt>
<pdfrwt beam="1">  1        2 0.10113017E-01 0.18447661E+03</pdfrwt>
<pdfrwt beam="2">  1       -2 0.17169033E-01 0.18447661E+03</pdfrwt>
<totfact> 0.16479317E+04</totfact>
</mgrwt>
</event>
<event>
 4    1  0.1330040E-003  0.2420827E+03  0.7818608E-02  0.1118413E+00
          2   -1    0    0  501    0  0.00000000000E+00  0.00000000000E+00  0.15429122219E+03  0.15429122221E+03  0.25500000000E-02 0.  1.
         -2   -1    0    0    0  501 -0.00000000000E+00 -0.00000000000E+00 -0.94956870987E+02  0.94956871021E+02  0.25500000000E-02 0. -1.
    5000001    1    1    2    0    0  0.39349213974E+02  0.19832003072E+02  0.11444726381E+03  0.14480623322E+03  0.77000000000E+02 0.  0.
   -5000001    1    1    2    0    0 -0.39349213974E+02 -0.19832003072E+02 -0.55112912608E+02  0.10444186001E+03  0.77000000000E+02 0.  0.
<mgrwt>
<rscale>  0 0.24208273E+03</rscale>
<asrwt>0</asrwt>
<pdfrwt beam="1">  1        2 0.22041603E-01 0.24208273E+03</pdfrwt>
<pdfrwt beam="2">  1       -2 0.13565267E-01 0.24208273E+03</pdfrwt>
<totfact> 0.98600758E+03</totfact>
</mgrwt>
</event>
<event>
 4    1  0.1330040E-003  0.4021924E+03  0.7818608E-02  0.1043023E+00
          2   -1    0    0  501    0  0.00000000000E+00  0.00000000000E+00  0.24066570690E+04  0.24066570690E+04  0.25500000000E-02 0.  1.
         -2   -1    0    0    0  501 -0.00000000000E+00 -0.00000000000E+00 -0.16803262534E+02  0.16803262727E+02  0.25500000000E-02 0. -1.
    5000001    1    1    2    0    0 -0.97198123612E+02 -0.73190842616E+02  0.34905474742E+03  0.37758785915E+03  0.77000000000E+02 0.  0.
   -5000001    1    1    2    0    0  0.97198123612E+02  0.73190842616E+02  0.20407990590E+04  0.20458724725E+04  0.77000000000E+02 0.  0.
<mgrwt>
<rscale>  0 0.40219245E+03</rscale>
<asrwt>0</asrwt>
<pdfrwt beam="1">  1        2 0.34380810E+00 0.40219245E+03</pdfrwt>
<pdfrwt beam="2">  1       -2 0.24004664E-02 0.40219245E+03</pdfrwt>
<totfact> 0.32739971E+03</totfact>
</mgrwt>
</event>
<event>
 4    1  0.1330040E-003  0.2975552E+03  0.7818608E-02  0.1086469E+00
          2   -1    0    0  501    0  0.00000000000E+00  0.00000000000E+00  0.67112841551E+03  0.67112841551E+03  0.25500000000E-02 0.  1.
         -2   -1    0    0    0  501 -0.00000000000E+00 -0.00000000000E+00 -0.32981420657E+02  0.32981420756E+02  0.25500000000E-02 0. -1.
    5000001    1    1    2    0    0 -0.12695508085E+03 -0.77686060226E+01  0.33155564102E+03  0.36336770204E+03  0.77000000000E+02 0.  0.
   -5000001    1    1    2    0    0  0.12695508085E+03  0.77686060226E+01  0.30659135383E+03  0.34074213423E+03  0.77000000000E+02 0.  0.
<mgrwt>
<rscale>  0 0.29755516E+03</rscale>
<asrwt>0</asrwt>
<pdfrwt beam="1">  1        2 0.95875500E-01 0.29755516E+03</pdfrwt>
<pdfrwt beam="2">  1       -2 0.47116310E-02 0.29755516E+03</pdfrwt>
<totfact> 0.10336053E+04</totfact>
</mgrwt>
</event>
<event>
 4    1  0.1330040E-003  0.2453447E+03  0.7818608E-02  0.1116283E+00
          2   -1    0    0  501    0  0.00000000000E+00  0.00000000000E+00  0.78149975924E+02  0.78149975966E+02  0.25500000000E-02 0.  1.
         -2   -1    0    0    0  501 -0.00000000000E+00 -0.00000000000E+00 -0.19255938290E+03  0.19255938292E+03  0.25500000000E-02 0. -1.
    5000001    1    1    2    0    0  0.42154703425E+02 -0.85014052969E+02 -0.69042467630E+02  0.14035765230E+03  0.77000000000E+02 0.  0.
   -5000001    1    1    2    0    0 -0.42154703425E+02  0.85014052969E+02 -0.45366939345E+02  0.13035170658E+03  0.77000000000E+02 0.  0.
<mgrwt>
<rscale>  0 0.24534475E+03</rscale>
<asrwt>0</asrwt>
<pdfrwt beam="1">  1        2 0.11164282E-01 0.24534475E+03</pdfrwt>
<pdfrwt beam="2">  1       -2 0.27508483E-01 0.24534475E+03</pdfrwt>
<totfact> 0.65923355E+03</totfact>
</mgrwt>
</event>
<event>
 4    1  0.1330040E-003  0.2192692E+03  0.7818608E-02  0.1134429E+00
         -2   -1    0    0    0  501 -0.00000000000E+00  0.00000000000E+00  0.10535881475E+02  0.10535881783E+02  0.25500000000E-02 0. -1.
          2   -1    0    0  501    0  0.00000000000E+00 -0.00000000000E+00 -0.11408387735E+04  0.11408387735E+04  0.25500000000E-02 0.  1.
    5000001    1    1    2    0    0  0.52687145403E+02  0.56983465332E+02 -0.60835372889E+03  0.61809894845E+03  0.77000000000E+02 0.  0.
   -5000001    1    1    2    0    0 -0.52687145403E+02 -0.56983465332E+02 -0.52194916315E+03  0.53327570686E+03  0.77000000000E+02 0.  0.
<mgrwt>
<rscale>  0 0.21926917E+03</rscale>
<asrwt>0</asrwt>
<pdfrwt beam="1">  1        2 0.16297689E+00 0.21926917E+03</pdfrwt>
<pdfrwt beam="2">  1       -2 0.15051267E-02 0.21926917E+03</pdfrwt>
<totfact> 0.27915059E+04</totfact>
</mgrwt>
</event>
<event>
 4    1  0.1330040E-003  0.5996553E+03  0.7818608E-02  0.9906121E-01
          2   -1    0    0  501    0  0.00000000000E+00  0.00000000000E+00  0.20771038702E+04  0.20771038702E+04  0.25500000000E-02 0.  1.
         -2   -1    0    0    0  501 -0.00000000000E+00 -0.00000000000E+00 -0.43279794060E+02  0.43279794135E+02  0.25500000000E-02 0. -1.
    5000001    1    1    2    0    0 -0.23228311511E+03  0.47324106943E+02  0.42763284002E+03  0.49496854701E+03  0.77000000000E+02 0.  0.
   -5000001    1    1    2    0    0  0.23228311511E+03 -0.47324106943E+02  0.16061912362E+04  0.16254151174E+04  0.77000000000E+02 0.  0.
<mgrwt>
<rscale>  0 0.59965533E+03</rscale>
<asrwt>0</asrwt>
<pdfrwt beam="1">  1        2 0.29672909E+00 0.59965533E+03</pdfrwt>
<pdfrwt beam="2">  1       -2 0.61828284E-02 0.59965533E+03</pdfrwt>
<totfact> 0.11166880E+03</totfact>
</mgrwt>
</event>
<event>
 4    1  0.1330040E-003  0.1725690E+03  0.7818608E-02  0.1175195E+00
         -2   -1    0    0    0  501 -0.00000000000E+00  0.00000000000E+00  0.29393287050E+02  0.29393287160E+02  0.25500000000E-02 0. -1.
          2   -1    0    0  501    0  0.00000000000E+00 -0.00000000000E+00 -0.25328955685E+03  0.25328955687E+03  0.25500000000E-02 0.  1.
    5000001    1    1    2    0    0 -0.24383244682E+02  0.28688828314E+02 -0.12819916948E+03  0.15421290006E+03  0.77000000000E+02 0.  0.
   -5000001    1    1    2    0    0  0.24383244682E+02 -0.28688828314E+02 -0.95697100329E+02  0.12846994397E+03  0.77000000000E+02 0.  0.
<mgrwt>
<rscale>  0 0.17256897E+03</rscale>
<asrwt>0</asrwt>
<pdfrwt beam="1">  1        2 0.36184221E-01 0.17256897E+03</pdfrwt>
<pdfrwt beam="2">  1       -2 0.41990412E-02 0.17256897E+03</pdfrwt>
<totfact> 0.34485947E+04</totfact>
</mgrwt>
</event>
<event>
 4    1  0.1330040E-003  0.2689083E+03  0.7818608E-02  0.1101906E+00
         -2   -1    0    0    0  501 -0.00000000000E+00  0.00000000000E+00  0.48883354401E+02  0.48883354467E+02  0.25500000000E-02 0. -1.
          2   -1    0    0  501    0  0.00000000000E+00 -0.00000000000E+00 -0.36981756035E+03  0.36981756036E+03  0.25500000000E-02 0.  1.
    5000001    1    1    2    0    0  0.36344927776E+00  0.10955507322E+03 -0.17931157405E+03  0.22379474246E+03  0.77000000000E+02 0.  0.
   -5000001    1    1    2    0    0 -0.36344927776E+00 -0.10955507322E+03 -0.14162263190E+03  0.19490617237E+03  0.77000000000E+02 0.  0.
<mgrwt>
<rscale>  0 0.26890833E+03</rscale>
<asrwt>0</asrwt>
<pdfrwt beam="1">  1        2 0.52831078E-01 0.26890833E+03</pdfrwt>
<pdfrwt beam="2">  1       -2 0.69833366E-02 0.26890833E+03</pdfrwt>
<totfact> 0.10937105E+04</totfact>
</mgrwt>
</event>
<event>
 4    1  0.1330040E-003  0.3911030E+03  0.7818608E-02  0.1046905E+00
         -2   -1    0    0    0  501 -0.00000000000E+00  0.00000000000E+00  0.14620052346E+02  0.14620052569E+02  0.25500000000E-02 0. -1.
          2   -1    0    0  501    0  0.00000000000E+00 -0.00000000000E+00 -0.26156118907E+04  0.26156118907E+04  0.25500000000E-02 0.  1.
    5000001    1    1    2    0    0 -0.53780715310E+02  0.16574514703E+03 -0.15972856014E+04  0.16086062637E+04  0.77000000000E+02 0.  0.
   -5000001    1    1    2    0    0  0.53780715310E+02 -0.16574514703E+03 -0.10037062370E+04  0.10216256796E+04  0.77000000000E+02 0.  0.
<mgrwt>
<rscale>  0 0.39110297E+03</rscale>
<asrwt>0</asrwt>
<pdfrwt beam="1">  1        2 0.37365854E+00 0.39110297E+03</pdfrwt>
<pdfrwt beam="2">  1       -2 0.20885806E-02 0.39110297E+03</pdfrwt>
<totfact> 0.31596358E+03</totfact>
</mgrwt>
</event>
<event>
 4    1  0.1330040E-003  0.2652439E+03  0.7818608E-02  0.1104033E+00
         -2   -1    0    0    0  501 -0.00000000000E+00  0.00000000000E+00  0.33520484923E+03  0.33520484924E+03  0.25500000000E-02 0. -1.
          2   -1    0    0  501    0  0.00000000000E+00 -0.00000000000E+00 -0.52471131853E+02  0.52471131915E+02  0.25500000000E-02 0.  1.
    5000001    1    1    2    0    0  0.20924777732E+02 -0.31895130341E+02 -0.62778741750E+01  0.86160068284E+02  0.77000000000E+02 0.  0.
   -5000001    1    1    2    0    0 -0.20924777732E+02  0.31895130341E+02  0.28901159155E+03  0.30151591287E+03  0.77000000000E+02 0.  0.
<mgrwt>
<rscale>  0 0.26524387E+03</rscale>
<asrwt>0</asrwt>
<pdfrwt beam="1">  1        2 0.74958757E-02 0.26524387E+03</pdfrwt>
<pdfrwt beam="2">  1       -2 0.47886409E-01 0.26524387E+03</pdfrwt>
<totfact> 0.38479179E+03</totfact>
</mgrwt>
</event>
<event>
 4    1  0.1330040E-003  0.1706101E+03  0.7818608E-02  0.1177213E+00
          2   -1    0    0  501    0  0.00000000000E+00  0.00000000000E+00  0.12075224937E+04  0.12075224937E+04  0.25500000000E-02 0.  1.
         -2   -1    0    0    0  501 -0.00000000000E+00 -0.00000000000E+00 -0.60263459635E+01  0.60263465030E+01  0.25500000000E-02 0. -1.
    5000001    1    1    2    0    0 -0.65107246874E+01  0.29668045897E+02  0.45404673646E+03  0.46153008718E+03  0.77000000000E+02 0.  0.
   -5000001    1    1    2    0    0  0.65107246874E+01 -0.29668045897E+02  0.74744941127E+03  0.75201875302E+03  0.77000000000E+02 0.  0.
<mgrwt>
<rscale>  0 0.17061007E+03</rscale>
<asrwt>0</asrwt>
<pdfrwt beam="1">  1        2 0.17250329E+00 0.17061007E+03</pdfrwt>
<pdfrwt beam="2">  1       -2 0.86090623E-03 0.17061007E+03</pdfrwt>
<totfact> 0.56518834E+04</totfact>
</mgrwt>
</event>
<event>
 4    1  0.1330040E-003  0.1967085E+03  0.7818608E-02  0.1152546E+00
         -2   -1    0    0    0  501 -0.00000000000E+00  0.00000000000E+00  0.10292420624E+03  0.10292420628E+03  0.25500000000E-02 0. -1.
          2   -1    0    0  501    0  0.00000000000E+00 -0.00000000000E+00 -0.93987250232E+02  0.93987250267E+02  0.25500000000E-02 0.  1.
    5000001    1    1    2    0    0 -0.97923820325E+01  0.58963676061E+02 -0.86582973758E+01  0.97859960934E+02  0.77000000000E+02 0.  0.
   -5000001    1    1    2    0    0  0.97923820325E+01 -0.58963676061E+02  0.17595253387E+02  0.99051495608E+02  0.77000000000E+02 0.  0.
<mgrwt>
<rscale>  0 0.19670855E+03</rscale>
<asrwt>0</asrwt>
<pdfrwt beam="1">  1        2 0.13426750E-01 0.19670855E+03</pdfrwt>
<pdfrwt beam="2">  1       -2 0.14703458E-01 0.19670855E+03</pdfrwt>
<totfact> 0.15171799E+04</totfact>
</mgrwt>
</event>
<event>
 4    1  0.1330040E-003  0.4707929E+03  0.7818608E-02  0.1021697E+00
          2   -1    0    0  501    0  0.00000000000E+00  0.00000000000E+00  0.98100956235E+03  0.98100956235E+03  0.25500000000E-02 0.  1.
         -2   -1    0    0    0  501 -0.00000000000E+00 -0.00000000000E+00 -0.56484152148E+02  0.56484152206E+02  0.25500000000E-02 0. -1.
    5000001    1    1    2    0    0  0.70366245226E+02  0.21089061444E+03  0.47878817476E+03  0.53347293841E+03  0.77000000000E+02 0.  0.
   -5000001    1    1    2    0    0 -0.70366245226E+02 -0.21089061444E+03  0.44573723544E+03  0.50402077615E+03  0.77000000000E+02 0.  0.
<mgrwt>
<rscale>  0 0.47079292E+03</rscale>
<asrwt>0</asrwt>
<pdfrwt beam="1">  1        2 0.14014421E+00 0.47079292E+03</pdfrwt>
<pdfrwt beam="2">  1       -2 0.80691651E-02 0.47079292E+03</pdfrwt>
<totfact> 0.27999917E+03</totfact>
</mgrwt>
</event>
<event>
 4    1  0.1330040E-003  0.2705292E+03  0.7818608E-02  0.1100977E+00
         -2   -1    0    0    0  501 -0.00000000000E+00  0.00000000000E+00  0.65575935796E+02  0.65575935845E+02  0.25500000000E-02 0. -1.
          2   -1    0    0  501    0  0.00000000000E+00 -0.00000000000E+00 -0.27901267531E+03  0.27901267532E+03  0.25500000000E-02 0.  1.
    5000001    1    1    2    0    0  0.33885971908E+02  0.92119039937E+02 -0.40124601353E+02  0.13104640493E+03  0.77000000000E+02 0.  0.
   -5000001    1    1    2    0    0 -0.33885971908E+02 -0.92119039937E+02 -0.17331213816E+03  0.21354220624E+03  0.77000000000E+02 0.  0.
<mgrwt>
<rscale>  0 0.27052924E+03</rscale>
<asrwt>0</asrwt>
<pdfrwt beam="1">  1        2 0.39858953E-01 0.27052924E+03</pdfrwt>
<pdfrwt beam="2">  1       -2 0.93679910E-02 0.27052924E+03</pdfrwt>
<totfact> 0.93583734E+03</totfact>
</mgrwt>
</event>
<event>
 4    1  0.1330040E-003  0.2142368E+03  0.7818608E-02  0.1138254E+00
         -2   -1    0    0    0  501 -0.00000000000E+00  0.00000000000E+00  0.67870325565E+02  0.67870325613E+02  0.25500000000E-02 0. -1.
          2   -1    0    0  501    0  0.00000000000E+00 -0.00000000000E+00 -0.16906285191E+03  0.16906285193E+03  0.25500000000E-02 0.  1.
    5000001    1    1    2    0    0  0.51297007787E+02  0.41212517175E+02 -0.12038784312E+02  0.10199895542E+03  0.77000000000E+02 0.  0.
   -5000001    1    1    2    0    0 -0.51297007787E+02 -0.41212517175E+02 -0.89153742030E+02  0.13493422211E+03  0.77000000000E+02 0.  0.
<mgrwt>
<rscale>  0 0.21423679E+03</rscale>
<asrwt>0</asrwt>
<pdfrwt beam="1">  1        2 0.24151836E-01 0.21423679E+03</pdfrwt>
<pdfrwt beam="2">  1       -2 0.96957608E-02 0.21423679E+03</pdfrwt>
<totfact> 0.15137092E+04</totfact>
</mgrwt>
</event>
<event>
 4    1  0.1330040E-003  0.2647368E+03  0.7818608E-02  0.1104330E+00
          2   -1    0    0  501    0  0.00000000000E+00  0.00000000000E+00  0.16670553437E+03  0.16670553439E+03  0.25500000000E-02 0.  1.
         -2   -1    0    0    0  501 -0.00000000000E+00 -0.00000000000E+00 -0.10510387966E+03  0.10510387969E+03  0.25500000000E-02 0. -1.
    5000001    1    1    2    0    0  0.46387444707E+02 -0.67167428183E+02 -0.41282643917E+02  0.11956803554E+03  0.77000000000E+02 0.  0.
   -5000001    1    1    2    0    0 -0.46387444707E+02  0.67167428183E+02  0.10288429862E+03  0.15224137853E+03  0.77000000000E+02 0.  0.
<mgrwt>
<rscale>  0 0.26473684E+03</rscale>
<asrwt>0</asrwt>
<pdfrwt beam="1">  1        2 0.23815076E-01 0.26473684E+03</pdfrwt>
<pdfrwt beam="2">  1       -2 0.15014840E-01 0.26473684E+03</pdfrwt>
<totfact> 0.76826796E+03</totfact>
</mgrwt>
</event>
<event>
 4    1  0.1330040E-003  0.2624726E+03  0.7818608E-02  0.1105667E+00
         -2   -1    0    0    0  501 -0.00000000000E+00  0.00000000000E+00  0.58608403637E+01  0.58608409184E+01  0.25500000000E-02 0. -1.
          2   -1    0    0  501    0  0.00000000000E+00 -0.00000000000E+00 -0.29386518137E+04  0.29386518137E+04  0.25500000000E-02 0.  1.
    5000001    1    1    2    0    0  0.72816711556E+02 -0.72137029895E+02 -0.17812989771E+04  0.17859062323E+04  0.77000000000E+02 0.  0.
   -5000001    1    1    2    0    0 -0.72816711556E+02  0.72137029895E+02 -0.11514919962E+04  0.11586064223E+04  0.77000000000E+02 0.  0.
<mgrwt>
<rscale>  0 0.26247263E+03</rscale>
<asrwt>0</asrwt>
<pdfrwt beam="1">  1        2 0.41980646E+00 0.26247263E+03</pdfrwt>
<pdfrwt beam="2">  1       -2 0.83726482E-03 0.26247263E+03</pdfrwt>
<totfact> 0.82545503E+03</totfact>
</mgrwt>
</event>
<event>
 4    1  0.1330040E-003  0.1796426E+03  0.7818608E-02  0.1168149E+00
         -2   -1    0    0    0  501 -0.00000000000E+00  0.00000000000E+00  0.99050343594E+01  0.99050346877E+01  0.25500000000E-02 0. -1.
          2   -1    0    0  501    0  0.00000000000E+00 -0.00000000000E+00 -0.81452200778E+03  0.81452200778E+03  0.25500000000E-02 0.  1.
    5000001    1    1    2    0    0 -0.33976450662E+02 -0.14289955475E+01 -0.54615291821E+03  0.55260153031E+03  0.77000000000E+02 0.  0.
   -5000001    1    1    2    0    0  0.33976450662E+02  0.14289955475E+01 -0.25846405521E+03  0.27182551216E+03  0.77000000000E+02 0.  0.
<mgrwt>
<rscale>  0 0.17964263E+03</rscale>
<asrwt>0</asrwt>
<pdfrwt beam="1">  1        2 0.11636024E+00 0.17964263E+03</pdfrwt>
<pdfrwt beam="2">  1       -2 0.14150055E-02 0.17964263E+03</pdfrwt>
<totfact> 0.47044708E+04</totfact>
</mgrwt>
</event>
<event>
 4    1  0.1330040E-003  0.3282724E+03  0.7818608E-02  0.1071904E+00
         -2   -1    0    0    0  501 -0.00000000000E+00  0.00000000000E+00  0.20865395788E+03  0.20865395790E+03  0.25500000000E-02 0. -1.
          2   -1    0    0  501    0  0.00000000000E+00 -0.00000000000E+00 -0.12911660801E+03  0.12911660804E+03  0.25500000000E-02 0.  1.
    5000001    1    1    2    0    0 -0.13743909497E+03 -0.56419376307E+01 -0.72745908072E+01  0.15780765494E+03  0.77000000000E+02 0.  0.
   -5000001    1    1    2    0    0  0.13743909497E+03  0.56419376307E+01  0.86811940678E+02  0.17996291099E+03  0.77000000000E+02 0.  0.
<mgrwt>
<rscale>  0 0.32827239E+03</rscale>
<asrwt>0</asrwt>
<pdfrwt beam="1">  1        2 0.18445230E-01 0.32827239E+03</pdfrwt>
<pdfrwt beam="2">  1       -2 0.29807708E-01 0.32827239E+03</pdfrwt>
<totfact> 0.31646179E+03</totfact>
</mgrwt>
</event>
<event>
 4    1  0.1330040E-003  0.3216096E+03  0.7818608E-02  0.1074911E+00
          2   -1    0    0  501    0  0.00000000000E+00  0.00000000000E+00  0.65030037041E+03  0.65030037042E+03  0.25500000000E-02 0.  1.
         -2   -1    0    0    0  501 -0.00000000000E+00 -0.00000000000E+00 -0.39763438566E+02  0.39763438647E+02  0.25500000000E-02 0. -1.
    5000001    1    1    2    0    0 -0.70537806985E+02  0.53688543593E+02  0.69527870513E+02  0.13645939581E+03  0.77000000000E+02 0.  0.
   -5000001    1    1    2    0    0  0.70537806985E+02 -0.53688543593E+02  0.54100906133E+03  0.55360441325E+03  0.77000000000E+02 0.  0.
<mgrwt>
<rscale>  0 0.32160957E+03</rscale>
<asrwt>0</asrwt>
<pdfrwt beam="1">  1        2 0.92900051E-01 0.32160957E+03</pdfrwt>
<pdfrwt beam="2">  1       -2 0.56804913E-02 0.32160957E+03</pdfrwt>
<totfact> 0.80822088E+03</totfact>
</mgrwt>
</event>
<event>
 4    1  0.1330040E-003  0.2462922E+03  0.7818608E-02  0.1115671E+00
         -2   -1    0    0    0  501 -0.00000000000E+00  0.00000000000E+00  0.13274034397E+02  0.13274034642E+02  0.25500000000E-02 0. -1.
          2   -1    0    0  501    0  0.00000000000E+00 -0.00000000000E+00 -0.11424532993E+04  0.11424532993E+04  0.25500000000E-02 0.  1.
    5000001    1    1    2    0    0 -0.36694871746E+02  0.61979253802E+02 -0.26603337604E+03  0.28616550924E+03  0.77000000000E+02 0.  0.
   -5000001    1    1    2    0    0  0.36694871746E+02 -0.61979253802E+02 -0.86314588890E+03  0.86956182474E+03  0.77000000000E+02 0.  0.
<mgrwt>
<rscale>  0 0.24629222E+03</rscale>
<asrwt>0</asrwt>
<pdfrwt beam="1">  1        2 0.16320755E+00 0.24629222E+03</pdfrwt>
<pdfrwt beam="2">  1       -2 0.18962914E-02 0.24629222E+03</pdfrwt>
<totfact> 0.20003475E+04</totfact>
</mgrwt>
</event>
<event>
 4    1  0.1330040E-003  0.3389426E+03  0.7818608E-02  0.1067247E+00
         -2   -1    0    0    0  501 -0.00000000000E+00  0.00000000000E+00  0.33517629286E+02  0.33517629383E+02  0.25500000000E-02 0. -1.
          2   -1    0    0  501    0  0.00000000000E+00 -0.00000000000E+00 -0.85687812629E+03  0.85687812629E+03  0.25500000000E-02 0.  1.
    5000001    1    1    2    0    0  0.92798264969E+02 -0.11844837034E+03 -0.44385288324E+03  0.47494833022E+03  0.77000000000E+02 0.  0.
   -5000001    1    1    2    0    0 -0.92798264969E+02  0.11844837034E+03 -0.37950761376E+03  0.41544742546E+03  0.77000000000E+02 0.  0.
<mgrwt>
<rscale>  0 0.33894261E+03</rscale>
<asrwt>0</asrwt>
<pdfrwt beam="1">  1        2 0.12241115E+00 0.33894261E+03</pdfrwt>
<pdfrwt beam="2">  1       -2 0.47882333E-02 0.33894261E+03</pdfrwt>
<totfact> 0.75062028E+03</totfact>
</mgrwt>
</event>
<event>
 4    1  0.1330040E-003  0.3384100E+03  0.7818608E-02  0.1067475E+00
          2   -1    0    0  501    0  0.00000000000E+00  0.00000000000E+00  0.14123196614E+03  0.14123196616E+03  0.25500000000E-02 0.  1.
         -2   -1    0    0    0  501 -0.00000000000E+00 -0.00000000000E+00 -0.20271852048E+03  0.20271852049E+03  0.25500000000E-02 0. -1.
    5000001    1    1    2    0    0 -0.98733943404E+02  0.11207621601E+03 -0.50862963396E+02  0.17557195340E+03  0.77000000000E+02 0.  0.
   -5000001    1    1    2    0    0  0.98733943404E+02 -0.11207621601E+03 -0.10623590945E+02  0.16837853325E+03  0.77000000000E+02 0.  0.
<mgrwt>
<rscale>  0 0.33841002E+03</rscale>
<asrwt>0</asrwt>
<pdfrwt beam="1">  1        2 0.20175995E-01 0.33841002E+03</pdfrwt>
<pdfrwt beam="2">  1       -2 0.28959788E-01 0.33841002E+03</pdfrwt>
<totfact> 0.30087262E+03</totfact>
</mgrwt>
</event>
<event>
 4    1  0.1330040E-003  0.2310148E+03  0.7818608E-02  0.1125928E+00
         -2   -1    0    0    0  501 -0.00000000000E+00  0.00000000000E+00  0.39735821750E+01  0.39735829932E+01  0.25500000000E-02 0. -1.
          2   -1    0    0  501    0  0.00000000000E+00 -0.00000000000E+00 -0.33576663935E+04  0.33576663935E+04  0.25500000000E-02 0.  1.
    5000001    1    1    2    0    0 -0.18649416435E+02 -0.76086967925E+02 -0.11570587340E+04  0.11622611330E+04  0.77000000000E+02 0.  0.
   -5000001    1    1    2    0    0  0.18649416435E+02  0.76086967925E+02 -0.21966340773E+04  0.21993788434E+04  0.77000000000E+02 0.  0.
<mgrwt>
<rscale>  0 0.23101485E+03</rscale>
<asrwt>0</asrwt>
<pdfrwt beam="1">  1        2 0.47966481E+00 0.23101485E+03</pdfrwt>
<pdfrwt beam="2">  1       -2 0.56765681E-03 0.23101485E+03</pdfrwt>
<totfact> 0.85747578E+03</totfact>
</mgrwt>
</event>
<event>
 4    1  0.1330040E-003  0.1876738E+03  0.7818608E-02  0.1160576E+00
         -2   -1    0    0    0  501 -0.00000000000E+00  0.00000000000E+00  0.24805649084E+03  0.24805649085E+03  0.25500000000E-02 0. -1.
          2   -1    0    0  501    0  0.00000000000E+00 -0.00000000000E+00 -0.35497411571E+02  0.35497411662E+02  0.25500000000E-02 0.  1.
    5000001    1    1    2    0    0 -0.46955530194E+02 -0.25627036509E+02  0.11209135994E+03  0.14613363675E+03  0.77000000000E+02 0.  0.
   -5000001    1    1    2    0    0  0.46955530194E+02  0.25627036509E+02  0.10046771933E+03  0.13742026577E+03  0.77000000000E+02 0.  0.
<mgrwt>
<rscale>  0 0.18767380E+03</rscale>
<asrwt>0</asrwt>
<pdfrwt beam="1">  1        2 0.50710586E-02 0.18767380E+03</pdfrwt>
<pdfrwt beam="2">  1       -2 0.35436643E-01 0.18767380E+03</pdfrwt>
<totfact> 0.11150377E+04</totfact>
</mgrwt>
</event>
<event>
 4    1  0.1330040E-003  0.1887916E+03  0.7818608E-02  0.1159556E+00
          2   -1    0    0  501    0  0.00000000000E+00  0.00000000000E+00  0.93075953752E+02  0.93075953787E+02  0.25500000000E-02 0.  1.
         -2   -1    0    0    0  501 -0.00000000000E+00 -0.00000000000E+00 -0.95734391634E+02  0.95734391668E+02  0.25500000000E-02 0. -1.
    5000001    1    1    2    0    0  0.39147178270E+02  0.21630048711E+02 -0.32656583961E+02  0.94846260072E+02  0.77000000000E+02 0.  0.
   -5000001    1    1    2    0    0 -0.39147178270E+02 -0.21630048711E+02  0.29998146079E+02  0.93964085383E+02  0.77000000000E+02 0.  0.
<mgrwt>
<rscale>  0 0.18879163E+03</rscale>
<asrwt>0</asrwt>
<pdfrwt beam="1">  1        2 0.13296565E-01 0.18879163E+03</pdfrwt>
<pdfrwt beam="2">  1       -2 0.13676342E-01 0.18879163E+03</pdfrwt>
<totfact> 0.17222330E+04</totfact>
</mgrwt>
</event>
<event>
 4    1  0.1330040E-003  0.3001529E+03  0.7818608E-02  0.1085164E+00
          2   -1    0    0  501    0  0.00000000000E+00  0.00000000000E+00  0.17216175789E+03  0.17216175791E+03  0.25500000000E-02 0.  1.
         -2   -1    0    0    0  501 -0.00000000000E+00 -0.00000000000E+00 -0.13082430745E+03  0.13082430747E+03  0.25500000000E-02 0. -1.
    5000001    1    1    2    0    0  0.19056799180E+02  0.12292356364E+03 -0.13122292063E+02  0.14688280581E+03  0.77000000000E+02 0.  0.
   -5000001    1    1    2    0    0 -0.19056799180E+02 -0.12292356364E+03  0.54459742502E+02  0.15610325957E+03  0.77000000000E+02 0.  0.
<mgrwt>
<rscale>  0 0.30015291E+03</rscale>
<asrwt>0</asrwt>
<pdfrwt beam="1">  1        2 0.24594537E-01 0.30015291E+03</pdfrwt>
<pdfrwt beam="2">  1       -2 0.18689187E-01 0.30015291E+03</pdfrwt>
<totfact> 0.51607445E+03</totfact>
</mgrwt>
</event>
<event>
 4    1  0.1330040E-003  0.2624876E+03  0.7818608E-02  0.1105658E+00
          2   -1    0    0  501    0  0.00000000000E+00  0.00000000000E+00  0.30718171437E+04  0.30718171437E+04  0.25500000000E-02 0.  1.
         -2   -1    0    0    0  501 -0.00000000000E+00 -0.00000000000E+00 -0.56074089108E+01  0.56074094906E+01  0.25500000000E-02 0. -1.
    5000001    1    1    2    0    0 -0.77664791288E+02  0.46273139859E+02  0.21882816782E+04  0.21915014776E+04  0.77000000000E+02 0.  0.
   -5000001    1    1    2    0    0  0.77664791288E+02 -0.46273139859E+02  0.87792805658E+03  0.88592307556E+03  0.77000000000E+02 0.  0.
<mgrwt>
<rscale>  0 0.26248761E+03</rscale>
<asrwt>0</asrwt>
<pdfrwt beam="1">  1        2 0.43883106E+00 0.26248761E+03</pdfrwt>
<pdfrwt beam="2">  1       -2 0.80105838E-03 0.26248761E+03</pdfrwt>
<totfact> 0.74802053E+03</totfact>
</mgrwt>
</event>
<event>
 4    1  0.1330040E-003  0.2344009E+03  0.7818608E-02  0.1123580E+00
         -2   -1    0    0    0  501 -0.00000000000E+00  0.00000000000E+00  0.22083048162E+02  0.22083048309E+02  0.25500000000E-02 0. -1.
          2   -1    0    0  501    0  0.00000000000E+00 -0.00000000000E+00 -0.62201314802E+03  0.62201314802E+03  0.25500000000E-02 0.  1.
    5000001    1    1    2    0    0  0.72457452633E+02  0.20321584024E+02 -0.17273391015E+03  0.20354128067E+03  0.77000000000E+02 0.  0.
   -5000001    1    1    2    0    0 -0.72457452633E+02 -0.20321584024E+02 -0.42719618970E+03  0.44055491566E+03  0.77000000000E+02 0.  0.
<mgrwt>
<rscale>  0 0.23440091E+03</rscale>
<asrwt>0</asrwt>
<pdfrwt beam="1">  1        2 0.88859010E-01 0.23440091E+03</pdfrwt>
<pdfrwt beam="2">  1       -2 0.31547216E-02 0.23440091E+03</pdfrwt>
<totfact> 0.20389055E+04</totfact>
</mgrwt>
</event>
<event>
 4    1  0.1330040E-003  0.3154932E+03  0.7818608E-02  0.1077742E+00
          2   -1    0    0  501    0  0.00000000000E+00  0.00000000000E+00  0.16500612619E+04  0.16500612619E+04  0.25500000000E-02 0.  1.
         -2   -1    0    0    0  501 -0.00000000000E+00 -0.00000000000E+00 -0.15080641234E+02  0.15080641450E+02  0.25500000000E-02 0. -1.
    5000001    1    1    2    0    0 -0.11422686011E+03 -0.27116211628E+02  0.43792447732E+03  0.45988032393E+03  0.77000000000E+02 0.  0.
   -5000001    1    1    2    0    0  0.11422686011E+03  0.27116211628E+02  0.11970561433E+04  0.12052615794E+04  0.77000000000E+02 0.  0.
<mgrwt>
<rscale>  0 0.31549315E+03</rscale>
<asrwt>0</asrwt>
<pdfrwt beam="1">  1        2 0.23572306E+00 0.31549315E+03</pdfrwt>
<pdfrwt beam="2">  1       -2 0.21543771E-02 0.31549315E+03</pdfrwt>
<totfact> 0.91119036E+03</totfact>
</mgrwt>
</event>
<event>
 4    1  0.1330040E-003  0.2658452E+03  0.7818608E-02  0.1103681E+00
          2   -1    0    0  501    0  0.00000000000E+00  0.00000000000E+00  0.22107860191E+03  0.22107860192E+03  0.25500000000E-02 0.  1.
         -2   -1    0    0    0  501 -0.00000000000E+00 -0.00000000000E+00 -0.79919148749E+02  0.79919148789E+02  0.25500000000E-02 0. -1.
    5000001    1    1    2    0    0 -0.26073340867E+02 -0.74520019405E+02 -0.13437206947E+02  0.11109730387E+03  0.77000000000E+02 0.  0.
   -5000001    1    1    2    0    0  0.26073340867E+02  0.74520019405E+02  0.15459666011E+03  0.18990044685E+03  0.77000000000E+02 0.  0.
<mgrwt>
<rscale>  0 0.26584517E+03</rscale>
<asrwt>0</asrwt>
<pdfrwt beam="1">  1        2 0.31582658E-01 0.26584517E+03</pdfrwt>
<pdfrwt beam="2">  1       -2 0.11417021E-01 0.26584517E+03</pdfrwt>
<totfact> 0.87830567E+03</totfact>
</mgrwt>
</event>
<event>
 4    1  0.1330040E-003  0.2976829E+03  0.7818608E-02  0.1086405E+00
         -2   -1    0    0    0  501 -0.00000000000E+00  0.00000000000E+00  0.30483255507E+02  0.30483255613E+02  0.25500000000E-02 0. -1.
          2   -1    0    0  501    0  0.00000000000E+00 -0.00000000000E+00 -0.72675215448E+03  0.72675215448E+03  0.25500000000E-02 0.  1.
    5000001    1    1    2    0    0  0.33344163314E+02 -0.12138593745E+03 -0.29865231686E+03  0.33311947617E+03  0.77000000000E+02 0.  0.
   -5000001    1    1    2    0    0 -0.33344163314E+02  0.12138593745E+03 -0.39761658211E+03  0.42411593393E+03  0.77000000000E+02 0.  0.
<mgrwt>
<rscale>  0 0.29768286E+03</rscale>
<asrwt>0</asrwt>
<pdfrwt beam="1">  1        2 0.10382173E+00 0.29768286E+03</pdfrwt>
<pdfrwt beam="2">  1       -2 0.43547513E-02 0.29768286E+03</pdfrwt>
<totfact> 0.10594115E+04</totfact>
</mgrwt>
</event>
<event>
 4    1  0.1330040E-003  0.2253041E+03  0.7818608E-02  0.1129989E+00
          2   -1    0    0  501    0  0.00000000000E+00  0.00000000000E+00  0.52383064838E+03  0.52383064838E+03  0.25500000000E-02 0.  1.
         -2   -1    0    0    0  501 -0.00000000000E+00 -0.00000000000E+00 -0.24226317846E+02  0.24226317980E+02  0.25500000000E-02 0. -1.
    5000001    1    1    2    0    0 -0.24290926618E+02 -0.58843395432E+02  0.37640764864E+03  0.38944102539E+03  0.77000000000E+02 0.  0.
   -5000001    1    1    2    0    0  0.24290926618E+02  0.58843395432E+02  0.12319668189E+03  0.15861594097E+03  0.77000000000E+02 0.  0.
<mgrwt>
<rscale>  0 0.22530413E+03</rscale>
<asrwt>0</asrwt>
<pdfrwt beam="1">  1        2 0.74832950E-01 0.22530413E+03</pdfrwt>
<pdfrwt beam="2">  1       -2 0.34609026E-02 0.22530413E+03</pdfrwt>
<totfact> 0.21500275E+04</totfact>
</mgrwt>
</event>
<event>
 4    1  0.1330040E-003  0.2330716E+03  0.7818608E-02  0.1124496E+00
          2   -1    0    0  501    0  0.00000000000E+00  0.00000000000E+00  0.11088894139E+03  0.11088894142E+03  0.25500000000E-02 0.  1.
         -2   -1    0    0    0  501 -0.00000000000E+00 -0.00000000000E+00 -0.12247026338E+03  0.12247026341E+03  0.25500000000E-02 0. -1.
    5000001    1    1    2    0    0 -0.52876498775E+02  0.51074951329E+02  0.41670598970E+02  0.11432416015E+03  0.77000000000E+02 0.  0.
   -5000001    1    1    2    0    0  0.52876498775E+02 -0.51074951329E+02 -0.53251920954E+02  0.11903504468E+03  0.77000000000E+02 0.  0.
<mgrwt>
<rscale>  0 0.23307164E+03</rscale>
<asrwt>0</asrwt>
<pdfrwt beam="1">  1        2 0.15841277E-01 0.23307164E+03</pdfrwt>
<pdfrwt beam="2">  1       -2 0.17495752E-01 0.23307164E+03</pdfrwt>
<totfact> 0.94518702E+03</totfact>
</mgrwt>
</event>
<event>
 4    1  0.1330040E-003  0.2924968E+03  0.7818608E-02  0.1089053E+00
         -2   -1    0    0    0  501 -0.00000000000E+00  0.00000000000E+00  0.91816240446E+02  0.91816240481E+02  0.25500000000E-02 0. -1.
          2   -1    0    0  501    0  0.00000000000E+00 -0.00000000000E+00 -0.23294994394E+03  0.23294994395E+03  0.25500000000E-02 0.  1.
    5000001    1    1    2    0    0  0.10220277884E+03  0.65392215552E+02 -0.10073086854E+03  0.17549147482E+03  0.77000000000E+02 0.  0.
   -5000001    1    1    2    0    0 -0.10220277884E+03 -0.65392215552E+02 -0.40402834951E+02  0.14927470961E+03  0.77000000000E+02 0.  0.
<mgrwt>
<rscale>  0 0.29249676E+03</rscale>
<asrwt>0</asrwt>
<pdfrwt beam="1">  1        2 0.33278563E-01 0.29249676E+03</pdfrwt>
<pdfrwt beam="2">  1       -2 0.13116606E-01 0.29249676E+03</pdfrwt>
<totfact> 0.66520977E+03</totfact>
</mgrwt>
</event>
<event>
 4    1  0.1330040E-003  0.2234346E+03  0.7818608E-02  0.1131348E+00
          2   -1    0    0  501    0  0.00000000000E+00  0.00000000000E+00  0.65595491099E+02  0.65595491149E+02  0.25500000000E-02 0.  1.
         -2   -1    0    0    0  501 -0.00000000000E+00 -0.00000000000E+00 -0.19026851135E+03  0.19026851137E+03  0.25500000000E-02 0. -1.
    5000001    1    1    2    0    0  0.39626459276E+02 -0.61917537827E+02 -0.10113157350E+03  0.14683539398E+03  0.77000000000E+02 0.  0.
   -5000001    1    1    2    0    0 -0.39626459276E+02  0.61917537827E+02 -0.23541446751E+02  0.10902860854E+03  0.77000000000E+02 0.  0.
<mgrwt>
<rscale>  0 0.22343461E+03</rscale>
<asrwt>0</asrwt>
<pdfrwt beam="1">  1        2 0.93707845E-02 0.22343461E+03</pdfrwt>
<pdfrwt beam="2">  1       -2 0.27181216E-01 0.22343461E+03</pdfrwt>
<totfact> 0.83213314E+03</totfact>
</mgrwt>
</event>
<event>
 4    1  0.1330040E-003  0.2340554E+03  0.7818608E-02  0.1123818E+00
         -2   -1    0    0    0  501 -0.00000000000E+00  0.00000000000E+00  0.14540542919E+03  0.14540542921E+03  0.25500000000E-02 0. -1.
          2   -1    0    0  501    0  0.00000000000E+00 -0.00000000000E+00 -0.94188211138E+02  0.94188211173E+02  0.25500000000E-02 0.  1.
    5000001    1    1    2    0    0 -0.87055772946E+02 -0.21313718613E+01  0.11752179131E+02  0.11683477249E+03  0.77000000000E+02 0.  0.
   -5000001    1    1    2    0    0  0.87055772946E+02  0.21313718613E+01  0.39465038920E+02  0.12275886789E+03  0.77000000000E+02 0.  0.
<mgrwt>
<rscale>  0 0.23405535E+03</rscale>
<asrwt>0</asrwt>
<pdfrwt beam="1">  1        2 0.13455459E-01 0.23405535E+03</pdfrwt>
<pdfrwt beam="2">  1       -2 0.20772204E-01 0.23405535E+03</pdfrwt>
<totfact> 0.85759140E+03</totfact>
</mgrwt>
</event>
<event>
 4    1  0.1330040E-003  0.3056070E+03  0.7818608E-02  0.1082471E+00
         -2   -1    0    0    0  501 -0.00000000000E+00  0.00000000000E+00  0.16174791463E+02  0.16174791664E+02  0.25500000000E-02 0. -1.
          2   -1    0    0  501    0  0.00000000000E+00 -0.00000000000E+00 -0.14435371209E+04  0.14435371209E+04  0.25500000000E-02 0.  1.
    5000001    1    1    2    0    0  0.60268386739E+02  0.11578706405E+03 -0.62045017749E+03  0.63869111892E+03  0.77000000000E+02 0.  0.
   -5000001    1    1    2    0    0 -0.60268386739E+02 -0.11578706405E+03 -0.80691215198E+03  0.82102079368E+03  0.77000000000E+02 0.  0.
<mgrwt>
<rscale>  0 0.30560702E+03</rscale>
<asrwt>0</asrwt>
<pdfrwt beam="1">  1        2 0.20621951E+00 0.30560702E+03</pdfrwt>
<pdfrwt beam="2">  1       -2 0.23106854E-02 0.30560702E+03</pdfrwt>
<totfact> 0.10434865E+04</totfact>
</mgrwt>
</event>
<event>
 4    1  0.1330040E-003  0.2303520E+03  0.7818608E-02  0.1126392E+00
          2   -1    0    0  501    0  0.00000000000E+00  0.00000000000E+00  0.42435030913E+03  0.42435030914E+03  0.25500000000E-02 0.  1.
         -2   -1    0    0    0  501 -0.00000000000E+00 -0.00000000000E+00 -0.31260753575E+02  0.31260753679E+02  0.25500000000E-02 0. -1.
    5000001    1    1    2    0    0  0.83291714961E+02 -0.19103317379E+02  0.20808860455E+03  0.23776524948E+03  0.77000000000E+02 0.  0.
   -5000001    1    1    2    0    0 -0.83291714961E+02  0.19103317379E+02  0.18500095100E+03  0.21784581334E+03  0.77000000000E+02 0.  0.
<mgrwt>
<rscale>  0 0.23035200E+03</rscale>
<asrwt>0</asrwt>
<pdfrwt beam="1">  1        2 0.60621473E-01 0.23035200E+03</pdfrwt>
<pdfrwt beam="2">  1       -2 0.44658220E-02 0.23035200E+03</pdfrwt>
<totfact> 0.18500182E+04</totfact>
</mgrwt>
</event>
<event>
 4    1  0.1330040E-003  0.2162238E+03  0.7818608E-02  0.1136730E+00
          2   -1    0    0  501    0  0.00000000000E+00  0.00000000000E+00  0.14635678811E+03  0.14635678813E+03  0.25500000000E-02 0.  1.
         -2   -1    0    0    0  501 -0.00000000000E+00 -0.00000000000E+00 -0.79860879180E+02  0.79860879220E+02  0.25500000000E-02 0. -1.
    5000001    1    1    2    0    0  0.53236012755E+01 -0.69112641698E+02  0.92866363888E+00  0.10360868877E+03  0.77000000000E+02 0.  0.
   -5000001    1    1    2    0    0 -0.53236012755E+01  0.69112641698E+02  0.65567245289E+02  0.12260897858E+03  0.77000000000E+02 0.  0.
<mgrwt>
<rscale>  0 0.21622379E+03</rscale>
<asrwt>0</asrwt>
<pdfrwt beam="1">  1        2 0.20908113E-01 0.21622379E+03</pdfrwt>
<pdfrwt beam="2">  1       -2 0.11408697E-01 0.21622379E+03</pdfrwt>
<totfact> 0.13754732E+04</totfact>
</mgrwt>
</event>
<event>
 4    1  0.1330040E-003  0.3076410E+03  0.7818608E-02  0.1081482E+00
          2   -1    0    0  501    0  0.00000000000E+00  0.00000000000E+00  0.16796612696E+04  0.16796612696E+04  0.25500000000E-02 0.  1.
         -2   -1    0    0    0  501 -0.00000000000E+00 -0.00000000000E+00 -0.14086616941E+02  0.14086617172E+02  0.25500000000E-02 0. -1.
    5000001    1    1    2    0    0  0.10078437245E+02  0.10950685520E+03  0.41937518236E+03  0.44033835833E+03  0.77000000000E+02 0.  0.
   -5000001    1    1    2    0    0 -0.10078437245E+02 -0.10950685520E+03  0.12461994703E+04  0.12534095284E+04  0.77000000000E+02 0.  0.
<mgrwt>
<rscale>  0 0.30764099E+03</rscale>
<asrwt>0</asrwt>
<pdfrwt beam="1">  1        2 0.23995151E+00 0.30764099E+03</pdfrwt>
<pdfrwt beam="2">  1       -2 0.20123747E-02 0.30764099E+03</pdfrwt>
<totfact> 0.97384048E+03</totfact>
</mgrwt>
</event>
<event>
 4    1  0.1330040E-003  0.1900060E+03  0.7818608E-02  0.1158456E+00
         -2   -1    0    0    0  501 -0.00000000000E+00  0.00000000000E+00  0.94599124322E+01  0.94599127759E+01  0.25500000000E-02 0. -1.
          2   -1    0    0  501    0  0.00000000000E+00 -0.00000000000E+00 -0.95408632364E+03  0.95408632365E+03  0.25500000000E-02 0.  1.
    5000001    1    1    2    0    0 -0.66122789944E+01 -0.46835202861E+02 -0.62096881700E+03  0.62750978490E+03  0.77000000000E+02 0.  0.
   -5000001    1    1    2    0    0  0.66122789944E+01  0.46835202861E+02 -0.32365759421E+03  0.33603645152E+03  0.77000000000E+02 0.  0.
<mgrwt>
<rscale>  0 0.19000603E+03</rscale>
<asrwt>0</asrwt>
<pdfrwt beam="1">  1        2 0.13629799E+00 0.19000603E+03</pdfrwt>
<pdfrwt beam="2">  1       -2 0.13514167E-02 0.19000603E+03</pdfrwt>
<totfact> 0.41328930E+04</totfact>
</mgrwt>
</event>
<event>
 4    1  0.1330040E-003  0.8471551E+03  0.7818608E-02  0.9494163E-01
         -2   -1    0    0    0  501 -0.00000000000E+00  0.00000000000E+00  0.46652191805E+02  0.46652191875E+02  0.25500000000E-02 0. -1.
          2   -1    0    0  501    0  0.00000000000E+00 -0.00000000000E+00 -0.38458630792E+04  0.38458630792E+04  0.25500000000E-02 0.  1.
    5000001    1    1    2    0    0  0.36932884899E+03 -0.15669727630E+03 -0.24139594348E+04  0.24482824567E+04  0.77000000000E+02 0.  0.
   -5000001    1    1    2    0    0 -0.36932884899E+03  0.15669727630E+03 -0.13852514526E+04  0.14442328143E+04  0.77000000000E+02 0.  0.
<mgrwt>
<rscale>  0 0.84715510E+03</rscale>
<asrwt>0</asrwt>
<pdfrwt beam="1">  1        2 0.54940881E+00 0.84715510E+03</pdfrwt>
<pdfrwt beam="2">  1       -2 0.66646013E-02 0.84715510E+03</pdfrwt>
<totfact> 0.10153374E+02</totfact>
</mgrwt>
</event>
<event>
 4    1  0.1330040E-003  0.4702371E+03  0.7818608E-02  0.1021853E+00
         -2   -1    0    0    0  501 -0.00000000000E+00  0.00000000000E+00  0.20238688230E+02  0.20238688391E+02  0.25500000000E-02 0. -1.
          2   -1    0    0  501    0  0.00000000000E+00 -0.00000000000E+00 -0.27314390018E+04  0.27314390018E+04  0.25500000000E-02 0.  1.
    5000001    1    1    2    0    0 -0.16757885784E+03 -0.12574512327E+03 -0.92331842730E+03  0.94991601093E+03  0.77000000000E+02 0.  0.
   -5000001    1    1    2    0    0  0.16757885784E+03  0.12574512327E+03 -0.17878818863E+04  0.18017616793E+04  0.77000000000E+02 0.  0.
<mgrwt>
<rscale>  0 0.47023714E+03</rscale>
<asrwt>0</asrwt>
<pdfrwt beam="1">  1        2 0.39020534E+00 0.47023714E+03</pdfrwt>
<pdfrwt beam="2">  1       -2 0.28912429E-02 0.47023714E+03</pdfrwt>
<totfact> 0.16825608E+03</totfact>
</mgrwt>
</event>
<event>
 4    1  0.1330040E-003  0.4824794E+03  0.7818608E-02  0.1018456E+00
         -2   -1    0    0    0  501 -0.00000000000E+00  0.00000000000E+00  0.34947579058E+02  0.34947579151E+02  0.25500000000E-02 0. -1.
          2   -1    0    0  501    0  0.00000000000E+00 -0.00000000000E+00 -0.16652540758E+04  0.16652540758E+04  0.25500000000E-02 0.  1.
    5000001    1    1    2    0    0  0.12812571859E+03  0.17846230928E+03 -0.59221073475E+03  0.63632346331E+03  0.77000000000E+02 0.  0.
   -5000001    1    1    2    0    0 -0.12812571859E+03 -0.17846230928E+03 -0.10380957620E+04  0.10638781916E+04  0.77000000000E+02 0.  0.
<mgrwt>
<rscale>  0 0.48247942E+03</rscale>
<asrwt>0</asrwt>
<pdfrwt beam="1">  1        2 0.23789339E+00 0.48247942E+03</pdfrwt>
<pdfrwt beam="2">  1       -2 0.49925124E-02 0.48247942E+03</pdfrwt>
<totfact> 0.25204142E+03</totfact>
</mgrwt>
</event>
<event>
 4    1  0.1330040E-003  0.4159283E+03  0.7818608E-02  0.1038400E+00
          2   -1    0    0  501    0  0.00000000000E+00  0.00000000000E+00  0.17725820102E+03  0.17725820104E+03  0.25500000000E-02 0.  1.
         -2   -1    0    0    0  501 -0.00000000000E+00 -0.00000000000E+00 -0.24398921386E+03  0.24398921387E+03  0.25500000000E-02 0. -1.
    5000001    1    1    2    0    0  0.13344767843E+03  0.13962522724E+03 -0.29238823408E+02  0.20996998774E+03  0.77000000000E+02 0.  0.
   -5000001    1    1    2    0    0 -0.13344767843E+03 -0.13962522724E+03 -0.37492189432E+02  0.21127742716E+03  0.77000000000E+02 0.  0.
<mgrwt>
<rscale>  0 0.41592831E+03</rscale>
<asrwt>0</asrwt>
<pdfrwt beam="1">  1        2 0.25322600E-01 0.41592831E+03</pdfrwt>
<pdfrwt beam="2">  1       -2 0.34855602E-01 0.41592831E+03</pdfrwt>
<totfact> 0.16548710E+03</totfact>
</mgrwt>
</event>
<event>
 4    1  0.1330040E-003  0.1803146E+03  0.7818608E-02  0.1167499E+00
          2   -1    0    0  501    0  0.00000000000E+00  0.00000000000E+00  0.83060588946E+01  0.83060592860E+01  0.25500000000E-02 0.  1.
         -2   -1    0    0    0  501 -0.00000000000E+00 -0.00000000000E+00 -0.97860395946E+03  0.97860395947E+03  0.25500000000E-02 0. -1.
    5000001    1    1    2    0    0  0.45108047830E+02 -0.16071508032E+01 -0.41548061304E+03  0.42495936126E+03  0.77000000000E+02 0.  0.
   -5000001    1    1    2    0    0 -0.45108047830E+02  0.16071508032E+01 -0.55481728753E+03  0.56195065749E+03  0.77000000000E+02 0.  0.
<mgrwt>
<rscale>  0 0.18031464E+03</rscale>
<asrwt>0</asrwt>
<pdfrwt beam="1">  1        2 0.11865805E-02 0.18031464E+03</pdfrwt>
<pdfrwt beam="2">  1       -2 0.13980049E+00 0.18031464E+03</pdfrwt>
<totfact> 0.41847579E+03</totfact>
</mgrwt>
</event>
<event>
 4    1  0.1330040E-003  0.2141934E+03  0.7818608E-02  0.1138288E+00
          2   -1    0    0  501    0  0.00000000000E+00  0.00000000000E+00  0.32219204944E+04  0.32219204944E+04  0.25500000000E-02 0.  1.
         -2   -1    0    0    0  501 -0.00000000000E+00 -0.00000000000E+00 -0.35598957719E+01  0.35598966852E+01  0.25500000000E-02 0. -1.
    5000001    1    1    2    0    0 -0.65268411452E+02  0.19095495309E+02  0.20649648186E+04  0.20675186349E+04  0.77000000000E+02 0.  0.
   -5000001    1    1    2    0    0  0.65268411452E+02 -0.19095495309E+02  0.11533957800E+04  0.11579617562E+04  0.77000000000E+02 0.  0.
<mgrwt>
<rscale>  0 0.21419340E+03</rscale>
<asrwt>0</asrwt>
<pdfrwt beam="1">  1        2 0.46027156E+00 0.21419340E+03</pdfrwt>
<pdfrwt beam="2">  1       -2 0.50855969E-03 0.21419340E+03</pdfrwt>
<totfact> 0.11930381E+04</totfact>
</mgrwt>
</event>
<event>
 4    1  0.1330040E-003  0.3011439E+03  0.7818608E-02  0.1084670E+00
          2   -1    0    0  501    0  0.00000000000E+00  0.00000000000E+00  0.59103336472E+03  0.59103336472E+03  0.25500000000E-02 0.  1.
         -2   -1    0    0    0  501 -0.00000000000E+00 -0.00000000000E+00 -0.38359778392E+02  0.38359778477E+02  0.25500000000E-02 0. -1.
    5000001    1    1    2    0    0  0.71670938547E+02 -0.10023262386E+03  0.35887508943E+03  0.38717390425E+03  0.77000000000E+02 0.  0.
   -5000001    1    1    2    0    0 -0.71670938547E+02  0.10023262386E+03  0.19379849690E+03  0.24221923895E+03  0.77000000000E+02 0.  0.
<mgrwt>
<rscale>  0 0.30114388E+03</rscale>
<asrwt>0</asrwt>
<pdfrwt beam="1">  1        2 0.84433334E-01 0.30114388E+03</pdfrwt>
<pdfrwt beam="2">  1       -2 0.54799686E-02 0.30114388E+03</pdfrwt>
<totfact> 0.95167225E+03</totfact>
</mgrwt>
</event>
<event>
 4    1  0.1330040E-003  0.1897478E+03  0.7818608E-02  0.1158689E+00
          2   -1    0    0  501    0  0.00000000000E+00  0.00000000000E+00  0.42049659786E+03  0.42049659787E+03  0.25500000000E-02 0.  1.
         -2   -1    0    0    0  501 -0.00000000000E+00 -0.00000000000E+00 -0.21405777437E+02  0.21405777589E+02  0.25500000000E-02 0. -1.
    5000001    1    1    2    0    0  0.16164370239E+02  0.52622582201E+02  0.21457238556E+03  0.23452234790E+03  0.77000000000E+02 0.  0.
   -5000001    1    1    2    0    0 -0.16164370239E+02 -0.52622582201E+02  0.18451843487E+03  0.20738002756E+03  0.77000000000E+02 0.  0.
<mgrwt>
<rscale>  0 0.18974780E+03</rscale>
<asrwt>0</asrwt>
<pdfrwt beam="1">  1        2 0.60070942E-01 0.18974780E+03</pdfrwt>
<pdfrwt beam="2">  1       -2 0.30579683E-02 0.18974780E+03</pdfrwt>
<totfact> 0.32415770E+04</totfact>
</mgrwt>
</event>
<event>
 4    1  0.1330040E-003  0.1964126E+03  0.7818608E-02  0.1152802E+00
         -2   -1    0    0    0  501 -0.00000000000E+00  0.00000000000E+00  0.75491473248E+01  0.75491477554E+01  0.25500000000E-02 0. -1.
          2   -1    0    0  501    0  0.00000000000E+00 -0.00000000000E+00 -0.12775579931E+04  0.12775579931E+04  0.25500000000E-02 0.  1.
    5000001    1    1    2    0    0  0.56391685325E+02  0.32576869522E-01 -0.78640577615E+03  0.79217615970E+03  0.77000000000E+02 0.  0.
   -5000001    1    1    2    0    0 -0.56391685325E+02 -0.32576869522E-01 -0.48360306966E+03  0.49293098119E+03  0.77000000000E+02 0.  0.
<mgrwt>
<rscale>  0 0.19641256E+03</rscale>
<asrwt>0</asrwt>
<pdfrwt beam="1">  1        2 0.18250815E+00 0.19641256E+03</pdfrwt>
<pdfrwt beam="2">  1       -2 0.10784505E-02 0.19641256E+03</pdfrwt>
<totfact> 0.37952854E+04</totfact>
</mgrwt>
</event>
<event>
 4    1  0.1330040E-003  0.2367987E+03  0.7818608E-02  0.1121944E+00
          2   -1    0    0  501    0  0.00000000000E+00  0.00000000000E+00  0.15711518256E+03  0.15711518258E+03  0.25500000000E-02 0.  1.
         -2   -1    0    0    0  501 -0.00000000000E+00 -0.00000000000E+00 -0.89223737378E+02  0.89223737414E+02  0.25500000000E-02 0. -1.
    5000001    1    1    2    0    0 -0.28697550359E+02 -0.60862998894E+02  0.96028803802E+02  0.14027966777E+03  0.77000000000E+02 0.  0.
   -5000001    1    1    2    0    0  0.28697550359E+02  0.60862998894E+02 -0.28137358623E+02  0.10605925222E+03  0.77000000000E+02 0.  0.
<mgrwt>
<rscale>  0 0.23679868E+03</rscale>
<asrwt>0</asrwt>
<pdfrwt beam="1">  1        2 0.22445026E-01 0.23679868E+03</pdfrwt>
<pdfrwt beam="2">  1       -2 0.12746248E-01 0.23679868E+03</pdfrwt>
<totfact> 0.10677406E+04</totfact>
</mgrwt>
</event>
<event>
 4    1  0.1330040E-003  0.2123656E+03  0.7818608E-02  0.1139706E+00
          2   -1    0    0  501    0  0.00000000000E+00  0.00000000000E+00  0.64291458309E+02  0.64291458360E+02  0.25500000000E-02 0.  1.
         -2   -1    0    0    0  501 -0.00000000000E+00 -0.00000000000E+00 -0.17536991324E+03  0.17536991326E+03  0.25500000000E-02 0. -1.
    5000001    1    1    2    0    0  0.60477403822E+02  0.38883933629E+02 -0.70524109517E+02  0.12677589160E+03  0.77000000000E+02 0.  0.
   -5000001    1    1    2    0    0 -0.60477403822E+02 -0.38883933629E+02 -0.40554345416E+02  0.11288548002E+03  0.77000000000E+02 0.  0.
<mgrwt>
<rscale>  0 0.21236560E+03</rscale>
<asrwt>0</asrwt>
<pdfrwt beam="1">  1        2 0.91844942E-02 0.21236560E+03</pdfrwt>
<pdfrwt beam="2">  1       -2 0.25052844E-01 0.21236560E+03</pdfrwt>
<totfact> 0.98264881E+03</totfact>
</mgrwt>
</event>
<event>
 4    1  0.1330040E-003  0.2844980E+03  0.7818608E-02  0.1093257E+00
          2   -1    0    0  501    0  0.00000000000E+00  0.00000000000E+00  0.56400087923E+03  0.56400087923E+03  0.25500000000E-02 0. -1.
         -2   -1    0    0    0  501 -0.00000000000E+00 -0.00000000000E+00 -0.35877197894E+02  0.35877197985E+02  0.25500000000E-02 0.  1.
    5000001    1    1    2    0    0  0.36282133885E+02 -0.11345735105E+03  0.24127316456E+03  0.27987622922E+03  0.77000000000E+02 0.  0.
   -5000001    1    1    2    0    0 -0.36282133885E+02  0.11345735105E+03  0.28685051677E+03  0.32000184799E+03  0.77000000000E+02 0.  0.
<mgrwt>
<rscale>  0 0.28449795E+03</rscale>
<asrwt>0</asrwt>
<pdfrwt beam="1">  1        2 0.80571547E-01 0.28449795E+03</pdfrwt>
<pdfrwt beam="2">  1       -2 0.51253144E-02 0.28449795E+03</pdfrwt>
<totfact> 0.11092324E+04</totfact>
</mgrwt>
</event>
<event>
 4    1  0.1330040E-003  0.3160673E+03  0.7818608E-02  0.1077474E+00
         -2   -1    0    0    0  501 -0.00000000000E+00  0.00000000000E+00  0.85658594716E+02  0.85658594754E+02  0.25500000000E-02 0. -1.
          2   -1    0    0  501    0  0.00000000000E+00 -0.00000000000E+00 -0.29156008436E+03  0.29156008437E+03  0.25500000000E-02 0.  1.
    5000001    1    1    2    0    0  0.83222406036E+02  0.96693924244E+02 -0.16576368527E+03  0.22289522921E+03  0.77000000000E+02 0.  0.
   -5000001    1    1    2    0    0 -0.83222406036E+02 -0.96693924244E+02 -0.40137804372E+02  0.15432344991E+03  0.77000000000E+02 0.  0.
<mgrwt>
<rscale>  0 0.31606725E+03</rscale>
<asrwt>0</asrwt>
<pdfrwt beam="1">  1        2 0.41651440E-01 0.31606725E+03</pdfrwt>
<pdfrwt beam="2">  1       -2 0.12236942E-01 0.31606725E+03</pdfrwt>
<totfact> 0.58519752E+03</totfact>
</mgrwt>
</event>
<event>
 4    1  0.1330040E-003  0.2098528E+03  0.7818608E-02  0.1141683E+00
          2   -1    0    0  501    0  0.00000000000E+00  0.00000000000E+00  0.41495908775E+03  0.41495908775E+03  0.25500000000E-02 0.  1.
         -2   -1    0    0    0  501 -0.00000000000E+00 -0.00000000000E+00 -0.26531651317E+02  0.26531651439E+02  0.25500000000E-02 0. -1.
    5000001    1    1    2    0    0 -0.25469089673E+02 -0.50939084088E+02  0.10404177031E+03  0.14141129653E+03  0.77000000000E+02 0.  0.
   -5000001    1    1    2    0    0  0.25469089673E+02  0.50939084088E+02  0.28438566611E+03  0.30007944266E+03  0.77000000000E+02 0.  0.
<mgrwt>
<rscale>  0 0.20985280E+03</rscale>
<asrwt>0</asrwt>
<pdfrwt beam="1">  1        2 0.59279867E-01 0.20985280E+03</pdfrwt>
<pdfrwt beam="2">  1       -2 0.37902361E-02 0.20985280E+03</pdfrwt>
<totfact> 0.24086922E+04</totfact>
</mgrwt>
</event>
<event>
 4    1  0.1330040E-003  0.5372597E+03  0.7818608E-02  0.1004487E+00
         -2   -1    0    0    0  501 -0.00000000000E+00  0.00000000000E+00  0.10335941615E+03  0.10335941618E+03  0.25500000000E-02 0. -1.
          2   -1    0    0  501    0  0.00000000000E+00 -0.00000000000E+00 -0.69816559495E+03  0.69816559496E+03  0.25500000000E-02 0.  1.
    5000001    1    1    2    0    0 -0.26995675612E+02  0.25196489871E+03 -0.23038625556E+03  0.35102977571E+03  0.77000000000E+02 0.  0.
   -5000001    1    1    2    0    0  0.26995675612E+02 -0.25196489871E+03 -0.36441992324E+03  0.45049523543E+03  0.77000000000E+02 0.  0.
<mgrwt>
<rscale>  0 0.53725967E+03</rscale>
<asrwt>0</asrwt>
<pdfrwt beam="1">  1        2 0.99737939E-01 0.53725967E+03</pdfrwt>
<pdfrwt beam="2">  1       -2 0.14765631E-01 0.53725967E+03</pdfrwt>
<totfact> 0.16237465E+03</totfact>
</mgrwt>
</event>
<event>
 4    1  0.1330040E-003  0.2652694E+03  0.7818608E-02  0.1104018E+00
          2   -1    0    0  501    0  0.00000000000E+00  0.00000000000E+00  0.13214517738E+03  0.13214517740E+03  0.25500000000E-02 0.  1.
         -2   -1    0    0    0  501 -0.00000000000E+00 -0.00000000000E+00 -0.13312600813E+03  0.13312600815E+03  0.25500000000E-02 0. -1.
    5000001    1    1    2    0    0  0.84723589030E+02 -0.38053516998E+02 -0.55597990065E+02  0.13283935107E+03  0.77000000000E+02 0.  0.
   -5000001    1    1    2    0    0 -0.84723589030E+02  0.38053516998E+02  0.54617159314E+02  0.13243183449E+03  0.77000000000E+02 0.  0.
<mgrwt>
<rscale>  0 0.26526937E+03</rscale>
<asrwt>0</asrwt>
<pdfrwt beam="1">  1        2 0.18877882E-01 0.26526937E+03</pdfrwt>
<pdfrwt beam="2">  1       -2 0.19018001E-01 0.26526937E+03</pdfrwt>
<totfact> 0.67366545E+03</totfact>
</mgrwt>
</event>
<event>
 4    1  0.1330040E-003  0.3228292E+03  0.7818608E-02  0.1074355E+00
          2   -1    0    0  501    0  0.00000000000E+00  0.00000000000E+00  0.15375211759E+03  0.15375211761E+03  0.25500000000E-02 0.  1.
         -2   -1    0    0    0  501 -0.00000000000E+00 -0.00000000000E+00 -0.16945899934E+03  0.16945899936E+03  0.25500000000E-02 0. -1.
    5000001    1    1    2    0    0  0.15628226036E+02  0.13563781196E+03  0.30712541725E+02  0.15973139235E+03  0.77000000000E+02 0.  0.
   -5000001    1    1    2    0    0 -0.15628226036E+02 -0.13563781196E+03 -0.46419423474E+02  0.16347972461E+03  0.77000000000E+02 0.  0.
<mgrwt>
<rscale>  0 0.32282924E+03</rscale>
<asrwt>0</asrwt>
<pdfrwt beam="1">  1        2 0.21964588E-01 0.32282924E+03</pdfrwt>
<pdfrwt beam="2">  1       -2 0.24208428E-01 0.32282924E+03</pdfrwt>
<totfact> 0.37563213E+03</totfact>
</mgrwt>
</event>
<event>
 4    1  0.1330040E-003  0.1821865E+03  0.7818608E-02  0.1165704E+00
          2   -1    0    0  501    0  0.00000000000E+00  0.00000000000E+00  0.12777381103E+03  0.12777381106E+03  0.25500000000E-02 0.  1.
         -2   -1    0    0    0  501 -0.00000000000E+00 -0.00000000000E+00 -0.64942707886E+02  0.64942707936E+02  0.25500000000E-02 0. -1.
    5000001    1    1    2    0    0  0.38332787573E+02  0.18601379572E+02  0.65277522036E+01  0.88244124303E+02  0.77000000000E+02 0.  0.
   -5000001    1    1    2    0    0 -0.38332787573E+02 -0.18601379572E+02  0.56303350944E+02  0.10447239469E+03  0.77000000000E+02 0.  0.
<mgrwt>
<rscale>  0 0.18218647E+03</rscale>
<asrwt>0</asrwt>
<pdfrwt beam="1">  1        2 0.18253401E-01 0.18218647E+03</pdfrwt>
<pdfrwt beam="2">  1       -2 0.92775298E-02 0.18218647E+03</pdfrwt>
<totfact> 0.22007330E+04</totfact>
</mgrwt>
</event>
<event>
 4    1  0.1330040E-003  0.8204648E+03  0.7818608E-02  0.9530859E-01
         -2   -1    0    0    0  501 -0.00000000000E+00  0.00000000000E+00  0.59263245170E+02  0.59263245225E+02  0.25500000000E-02 0. -1.
          2   -1    0    0  501    0  0.00000000000E+00 -0.00000000000E+00 -0.28397130653E+04  0.28397130653E+04  0.25500000000E-02 0.  1.
    5000001    1    1    2    0    0 -0.57875957809E+02 -0.34228651422E+03 -0.66738444303E+03  0.75620148050E+03  0.77000000000E+02 0.  0.
   -5000001    1    1    2    0    0  0.57875957809E+02  0.34228651422E+03 -0.21130653771E+04  0.21427748300E+04  0.77000000000E+02 0.  0.
<mgrwt>
<rscale>  0 0.82046477E+03</rscale>
<asrwt>0</asrwt>
<pdfrwt beam="1">  1        2 0.40567321E+00 0.82046477E+03</pdfrwt>
<pdfrwt beam="2">  1       -2 0.84661797E-02 0.82046477E+03</pdfrwt>
<totfact> 0.26935697E+02</totfact>
</mgrwt>
</event>
<event>
 4    1  0.1330040E-003  0.2699348E+03  0.7818608E-02  0.1101317E+00
          2   -1    0    0  501    0  0.00000000000E+00  0.00000000000E+00  0.83261190166E+03  0.83261190166E+03  0.25500000000E-02 0.  1.
         -2   -1    0    0    0  501 -0.00000000000E+00 -0.00000000000E+00 -0.21878385026E+02  0.21878385174E+02  0.25500000000E-02 0. -1.
    5000001    1    1    2    0    0  0.69142926329E+02  0.82942830079E+02  0.48462846848E+03  0.50244801700E+03  0.77000000000E+02 0.  0.
   -5000001    1    1    2    0    0 -0.69142926329E+02 -0.82942830079E+02  0.32610504815E+03  0.35204226984E+03  0.77000000000E+02 0.  0.
<mgrwt>
<rscale>  0 0.26993484E+03</rscale>
<asrwt>0</asrwt>
<pdfrwt beam="1">  1        2 0.11894454E+00 0.26993484E+03</pdfrwt>
<pdfrwt beam="2">  1       -2 0.31254840E-02 0.26993484E+03</pdfrwt>
<totfact> 0.14691823E+04</totfact>
</mgrwt>
</event>
<event>
 4    1  0.1330040E-003  0.2620899E+03  0.7818608E-02  0.1105894E+00
         -2   -1    0    0    0  501 -0.00000000000E+00  0.00000000000E+00  0.59599894985E+02  0.59599895040E+02  0.25500000000E-02 0. -1.
          2   -1    0    0  501    0  0.00000000000E+00 -0.00000000000E+00 -0.28813446215E+03  0.28813446216E+03  0.25500000000E-02 0.  1.
    5000001    1    1    2    0    0 -0.10603461837E+03  0.64072176619E+00 -0.11402669970E+03  0.17370906442E+03  0.77000000000E+02 0.  0.
   -5000001    1    1    2    0    0  0.10603461837E+03 -0.64072176619E+00 -0.11450786746E+03  0.17402529278E+03  0.77000000000E+02 0.  0.
<mgrwt>
<rscale>  0 0.26208994E+03</rscale>
<asrwt>0</asrwt>
<pdfrwt beam="1">  1        2 0.41162065E-01 0.26208994E+03</pdfrwt>
<pdfrwt beam="2">  1       -2 0.85142709E-02 0.26208994E+03</pdfrwt>
<totfact> 0.10492035E+04</totfact>
</mgrwt>
</event>
<event>
 4    1  0.1330040E-003  0.2334277E+03  0.7818608E-02  0.1124250E+00
         -2   -1    0    0    0  501 -0.00000000000E+00  0.00000000000E+00  0.75519695349E+01  0.75519699654E+01  0.25500000000E-02 0. -1.
          2   -1    0    0  501    0  0.00000000000E+00 -0.00000000000E+00 -0.18037842656E+04  0.18037842656E+04  0.25500000000E-02 0.  1.
    5000001    1    1    2    0    0  0.81524124241E+01  0.37176726014E+02 -0.15113093823E+04  0.15137482023E+04  0.77000000000E+02 0.  0.
   -5000001    1    1    2    0    0 -0.81524124241E+01 -0.37176726014E+02 -0.28492291376E+03  0.29758803331E+03  0.77000000000E+02 0.  0.
<mgrwt>
<rscale>  0 0.23342771E+03</rscale>
<asrwt>0</asrwt>
<pdfrwt beam="1">  1        2 0.25768319E+00 0.23342771E+03</pdfrwt>
<pdfrwt beam="2">  1       -2 0.10788540E-02 0.23342771E+03</pdfrwt>
<totfact> 0.20889582E+04</totfact>
</mgrwt>
</event>
<event>
 4    1  0.1330040E-003  0.6683977E+03  0.7818608E-02  0.9772857E-01
         -2   -1    0    0    0  501 -0.00000000000E+00  0.00000000000E+00  0.67709602205E+02  0.67709602253E+02  0.25500000000E-02 0. -1.
          2   -1    0    0  501    0  0.00000000000E+00 -0.00000000000E+00 -0.16495275639E+04  0.16495275639E+04  0.25500000000E-02 0.  1.
    5000001    1    1    2    0    0 -0.18633738817E+03 -0.26566071492E+03 -0.84616841187E+03  0.90952032354E+03  0.77000000000E+02 0.  0.
   -5000001    1    1    2    0    0  0.18633738817E+03  0.26566071492E+03 -0.73564954979E+03  0.80771684259E+03  0.77000000000E+02 0.  0.
<mgrwt>
<rscale>  0 0.66839765E+03</rscale>
<asrwt>0</asrwt>
<pdfrwt beam="1">  1        2 0.23564677E+00 0.66839765E+03</pdfrwt>
<pdfrwt beam="2">  1       -2 0.96728013E-02 0.66839765E+03</pdfrwt>
<totfact> 0.89728164E+02</totfact>
</mgrwt>
</event>
<event>
 4    1  0.1330040E-003  0.4352672E+03  0.7818608E-02  0.1032209E+00
          2   -1    0    0  501    0  0.00000000000E+00  0.00000000000E+00  0.20623653416E+04  0.20623653416E+04  0.25500000000E-02 0.  1.
         -2   -1    0    0    0  501 -0.00000000000E+00 -0.00000000000E+00 -0.22966052797E+02  0.22966052939E+02  0.25500000000E-02 0. -1.
    5000001    1    1    2    0    0  0.16077918793E+03  0.12148120755E+03  0.11575384277E+04  0.11774684041E+04  0.77000000000E+02 0.  0.
   -5000001    1    1    2    0    0 -0.16077918793E+03 -0.12148120755E+03  0.88186086102E+03  0.90786299036E+03  0.77000000000E+02 0.  0.
<mgrwt>
<rscale>  0 0.43526724E+03</rscale>
<asrwt>0</asrwt>
<pdfrwt beam="1">  1        2 0.29462369E+00 0.43526724E+03</pdfrwt>
<pdfrwt beam="2">  1       -2 0.32808640E-02 0.43526724E+03</pdfrwt>
<totfact> 0.30350441E+03</totfact>
</mgrwt>
</event>
<event>
 4    1  0.1330040E-003  0.1991946E+03  0.7818608E-02  0.1150420E+00
          2   -1    0    0  501    0  0.00000000000E+00  0.00000000000E+00  0.15559287902E+04  0.15559287902E+04  0.25500000000E-02 0.  1.
         -2   -1    0    0    0  501 -0.00000000000E+00 -0.00000000000E+00 -0.63753673876E+01  0.63753678976E+01  0.25500000000E-02 0. -1.
    5000001    1    1    2    0    0  0.36389625105E+02  0.38982521286E+02  0.50917707921E+03  0.51772013654E+03  0.77000000000E+02 0.  0.
   -5000001    1    1    2    0    0 -0.36389625105E+02 -0.38982521286E+02  0.10403763436E+04  0.10445840216E+04  0.77000000000E+02 0.  0.
<mgrwt>
<rscale>  0 0.19919456E+03</rscale>
<asrwt>0</asrwt>
<pdfrwt beam="1">  1        2 0.22227589E+00 0.19919456E+03</pdfrwt>
<pdfrwt beam="2">  1       -2 0.91076539E-03 0.19919456E+03</pdfrwt>
<totfact> 0.35007404E+04</totfact>
</mgrwt>
</event>
<event>
 4    1  0.1330040E-003  0.1917367E+03  0.7818608E-02  0.1156904E+00
          2   -1    0    0  501    0  0.00000000000E+00  0.00000000000E+00  0.26446240340E+03  0.26446240341E+03  0.25500000000E-02 0.  1.
         -2   -1    0    0    0  501 -0.00000000000E+00 -0.00000000000E+00 -0.34752555961E+02  0.34752556055E+02  0.25500000000E-02 0. -1.
    5000001    1    1    2    0    0 -0.31020657092E+02 -0.26976521635E+02  0.17672305742E+03  0.19710416767E+03  0.77000000000E+02 0.  0.
   -5000001    1    1    2    0    0  0.31020657092E+02  0.26976521635E+02  0.52986790013E+02  0.10211079180E+03  0.77000000000E+02 0.  0.
<mgrwt>
<rscale>  0 0.19173674E+03</rscale>
<asrwt>0</asrwt>
<pdfrwt beam="1">  1        2 0.37780344E-01 0.19173674E+03</pdfrwt>
<pdfrwt beam="2">  1       -2 0.49646508E-02 0.19173674E+03</pdfrwt>
<totfact> 0.25839328E+04</totfact>
</mgrwt>
</event>
<event>
 4    1  0.1330040E-003  0.1950971E+03  0.7818608E-02  0.1153943E+00
          2   -1    0    0  501    0  0.00000000000E+00  0.00000000000E+00  0.15540582864E+02  0.15540583074E+02  0.25500000000E-02 0.  1.
         -2   -1    0    0    0  501 -0.00000000000E+00 -0.00000000000E+00 -0.61231442950E+03  0.61231442951E+03  0.25500000000E-02 0. -1.
    5000001    1    1    2    0    0 -0.47584667298E+02  0.20105344192E+02 -0.39590308239E+03  0.40661625161E+03  0.77000000000E+02 0.  0.
   -5000001    1    1    2    0    0  0.47584667298E+02 -0.20105344192E+02 -0.20087076425E+03  0.22123876097E+03  0.77000000000E+02 0.  0.
<mgrwt>
<rscale>  0 0.19509714E+03</rscale>
<asrwt>0</asrwt>
<pdfrwt beam="1">  1        2 0.22200837E-02 0.19509714E+03</pdfrwt>
<pdfrwt beam="2">  1       -2 0.87473475E-01 0.19509714E+03</pdfrwt>
<totfact> 0.53867362E+03</totfact>
</mgrwt>
</event>
<event>
 4    1  0.1330040E-003  0.3080471E+03  0.7818608E-02  0.1081286E+00
         -2   -1    0    0    0  501 -0.00000000000E+00  0.00000000000E+00  0.70770763373E+02  0.70770763419E+02  0.25500000000E-02 0. -1.
          2   -1    0    0  501    0  0.00000000000E+00 -0.00000000000E+00 -0.33521253079E+03  0.33521253080E+03  0.25500000000E-02 0.  1.
    5000001    1    1    2    0    0  0.12754989770E+03  0.24614969241E+02 -0.92259812830E+02  0.17696255586E+03  0.77000000000E+02 0.  0.
   -5000001    1    1    2    0    0 -0.12754989770E+03 -0.24614969241E+02 -0.17218195459E+03  0.22902073836E+03  0.77000000000E+02 0.  0.
<mgrwt>
<rscale>  0 0.30804705E+03</rscale>
<asrwt>0</asrwt>
<pdfrwt beam="1">  1        2 0.47887504E-01 0.30804705E+03</pdfrwt>
<pdfrwt beam="2">  1       -2 0.10110109E-01 0.30804705E+03</pdfrwt>
<totfact> 0.68374241E+03</totfact>
</mgrwt>
</event>
<event>
 4    1  0.1330040E-003  0.1931393E+03  0.7818608E-02  0.1155660E+00
         -2   -1    0    0    0  501 -0.00000000000E+00  0.00000000000E+00  0.12399324111E+02  0.12399324373E+02  0.25500000000E-02 0. -1.
          2   -1    0    0  501    0  0.00000000000E+00 -0.00000000000E+00 -0.75211359997E+03  0.75211359997E+03  0.25500000000E-02 0.  1.
    5000001    1    1    2    0    0 -0.33872443880E+02 -0.40184895595E+02 -0.27014663477E+03  0.28578028722E+03  0.77000000000E+02 0.  0.
   -5000001    1    1    2    0    0  0.33872443880E+02  0.40184895595E+02 -0.46956764109E+03  0.47873263712E+03  0.77000000000E+02 0.  0.
<mgrwt>
<rscale>  0 0.19313933E+03</rscale>
<asrwt>0</asrwt>
<pdfrwt beam="1">  1        2 0.10744477E+00 0.19313933E+03</pdfrwt>
<pdfrwt beam="2">  1       -2 0.17713325E-02 0.19313933E+03</pdfrwt>
<totfact> 0.37633122E+04</totfact>
</mgrwt>
</event>
<event>
 4    1  0.1330040E-003  0.2859479E+03  0.7818608E-02  0.1092484E+00
          2   -1    0    0  501    0  0.00000000000E+00  0.00000000000E+00  0.84738344416E+02  0.84738344454E+02  0.25500000000E-02 0.  1.
         -2   -1    0    0    0  501 -0.00000000000E+00 -0.00000000000E+00 -0.24123138327E+03  0.24123138329E+03  0.25500000000E-02 0. -1.
    5000001    1    1    2    0    0 -0.94624200728E+01 -0.11425629604E+03 -0.36075481855E+02  0.14273919914E+03  0.77000000000E+02 0.  0.
   -5000001    1    1    2    0    0  0.94624200728E+01  0.11425629604E+03 -0.12041755700E+03  0.18323052861E+03  0.77000000000E+02 0.  0.
<mgrwt>
<rscale>  0 0.28594788E+03</rscale>
<asrwt>0</asrwt>
<pdfrwt beam="1">  1        2 0.12105478E-01 0.28594788E+03</pdfrwt>
<pdfrwt beam="2">  1       -2 0.34461626E-01 0.28594788E+03</pdfrwt>
<totfact> 0.39837368E+03</totfact>
</mgrwt>
</event>
<event>
 4    1  0.1330040E-003  0.2534136E+03  0.7818608E-02  0.1111166E+00
         -2   -1    0    0    0  501 -0.00000000000E+00  0.00000000000E+00  0.13651524520E+02  0.13651524759E+02  0.25500000000E-02 0. -1.
          2   -1    0    0  501    0  0.00000000000E+00 -0.00000000000E+00 -0.11760304867E+04  0.11760304867E+04  0.25500000000E-02 0.  1.
    5000001    1    1    2    0    0 -0.12955484690E+01 -0.10047283174E+03 -0.55584684430E+03  0.57007997920E+03  0.77000000000E+02 0.  0.
   -5000001    1    1    2    0    0  0.12955484690E+01  0.10047283174E+03 -0.60653211787E+03  0.61960203225E+03  0.77000000000E+02 0.  0.
<mgrwt>
<rscale>  0 0.25341357E+03</rscale>
<asrwt>0</asrwt>
<pdfrwt beam="1">  1        2 0.16800429E+00 0.25341357E+03</pdfrwt>
<pdfrwt beam="2">  1       -2 0.19502185E-02 0.25341357E+03</pdfrwt>
<totfact> 0.18423648E+04</totfact>
</mgrwt>
</event>
<event>
 4    1  0.1330040E-003  0.2749002E+03  0.7818608E-02  0.1098507E+00
          2   -1    0    0  501    0  0.00000000000E+00  0.00000000000E+00  0.30747942776E+02  0.30747942882E+02  0.25500000000E-02 0.  1.
         -2   -1    0    0    0  501 -0.00000000000E+00 -0.00000000000E+00 -0.61443229641E+03  0.61443229642E+03  0.25500000000E-02 0. -1.
    5000001    1    1    2    0    0  0.36069214257E+02 -0.95476621024E+02 -0.17340183317E+03  0.21543901487E+03  0.77000000000E+02 0.  0.
   -5000001    1    1    2    0    0 -0.36069214257E+02  0.95476621024E+02 -0.41028252046E+03  0.42974122443E+03  0.77000000000E+02 0.  0.
<mgrwt>
<rscale>  0 0.27490019E+03</rscale>
<asrwt>0</asrwt>
<pdfrwt beam="1">  1        2 0.43925636E-02 0.27490019E+03</pdfrwt>
<pdfrwt beam="2">  1       -2 0.87776035E-01 0.27490019E+03</pdfrwt>
<totfact> 0.21597171E+03</totfact>
</mgrwt>
</event>
<event>
 4    1  0.1330040E-003  0.3774406E+03  0.7818608E-02  0.1051884E+00
         -2   -1    0    0    0  501 -0.00000000000E+00  0.00000000000E+00  0.11359170675E+03  0.11359170678E+03  0.25500000000E-02 0. -1.
          2   -1    0    0  501    0  0.00000000000E+00 -0.00000000000E+00 -0.31353829053E+03  0.31353829054E+03  0.25500000000E-02 0.  1.
    5000001    1    1    2    0    0 -0.13167010816E+03 -0.35683008895E+02  0.19124586369E+02  0.15781332108E+03  0.77000000000E+02 0.  0.
   -5000001    1    1    2    0    0  0.13167010816E+03  0.35683008895E+02 -0.21907117015E+03  0.26931667623E+03  0.77000000000E+02 0.  0.
<mgrwt>
<rscale>  0 0.37744059E+03</rscale>
<asrwt>0</asrwt>
<pdfrwt beam="1">  1        2 0.44791184E-01 0.37744059E+03</pdfrwt>
<pdfrwt beam="2">  1       -2 0.16227387E-01 0.37744059E+03</pdfrwt>
<totfact> 0.34097882E+03</totfact>
</mgrwt>
</event>
<event>
 4    1  0.1330040E-003  0.8292569E+03  0.7818608E-02  0.9518608E-01
         -2   -1    0    0    0  501 -0.00000000000E+00  0.00000000000E+00  0.43584073764E+03  0.43584073765E+03  0.25500000000E-02 0. -1.
          2   -1    0    0  501    0  0.00000000000E+00 -0.00000000000E+00 -0.39444859168E+03  0.39444859169E+03  0.25500000000E-02 0.  1.
    5000001    1    1    2    0    0  0.37780792235E+03  0.70406112541E+02  0.15611207008E+03  0.42189551467E+03  0.77000000000E+02 0.  0.
   -5000001    1    1    2    0    0 -0.37780792235E+03 -0.70406112541E+02 -0.11471992412E+03  0.40839381467E+03  0.77000000000E+02 0.  0.
<mgrwt>
<rscale>  0 0.82925693E+03</rscale>
<asrwt>0</asrwt>
<pdfrwt beam="1">  1        2 0.56349799E-01 0.82925693E+03</pdfrwt>
<pdfrwt beam="2">  1       -2 0.62262963E-01 0.82925693E+03</pdfrwt>
<totfact> 0.21162192E+02</totfact>
</mgrwt>
</event>
<event>
 4    1  0.1330040E-003  0.4380570E+03  0.7818608E-02  0.1031345E+00
          2   -1    0    0  501    0  0.00000000000E+00  0.00000000000E+00  0.27760018601E+04  0.27760018601E+04  0.25500000000E-02 0.  1.
         -2   -1    0    0    0  501 -0.00000000000E+00 -0.00000000000E+00 -0.17281499448E+02  0.17281499637E+02  0.25500000000E-02 0. -1.
    5000001    1    1    2    0    0  0.76563924006E+02  0.14563825606E+03  0.21595915933E+04  0.21672188136E+04  0.77000000000E+02 0.  0.
   -5000001    1    1    2    0    0 -0.76563924006E+02 -0.14563825606E+03  0.59912876735E+03  0.62606454616E+03  0.77000000000E+02 0.  0.
<mgrwt>
<rscale>  0 0.43805696E+03</rscale>
<asrwt>0</asrwt>
<pdfrwt beam="1">  1        2 0.39657121E+00 0.43805696E+03</pdfrwt>
<pdfrwt beam="2">  1       -2 0.24687887E-02 0.43805696E+03</pdfrwt>
<totfact> 0.20274870E+03</totfact>
</mgrwt>
</event>
<event>
 4    1  0.1330040E-003  0.1778720E+03  0.7818608E-02  0.1169879E+00
         -2   -1    0    0    0  501 -0.00000000000E+00  0.00000000000E+00  0.38752526025E+01  0.38752534415E+01  0.25500000000E-02 0. -1.
          2   -1    0    0  501    0  0.00000000000E+00 -0.00000000000E+00 -0.20410560585E+04  0.20410560585E+04  0.25500000000E-02 0.  1.
    5000001    1    1    2    0    0 -0.32200695474E+02  0.28870462354E+02 -0.89789187349E+03  0.90222458671E+03  0.77000000000E+02 0.  0.
   -5000001    1    1    2    0    0  0.32200695474E+02 -0.28870462354E+02 -0.11392889324E+04  0.11427067252E+04  0.77000000000E+02 0.  0.
<mgrwt>
<rscale>  0 0.17787196E+03</rscale>
<asrwt>0</asrwt>
<pdfrwt beam="1">  1        2 0.29157875E+00 0.17787196E+03</pdfrwt>
<pdfrwt beam="2">  1       -2 0.55360888E-03 0.17787196E+03</pdfrwt>
<totfact> 0.41303845E+04</totfact>
</mgrwt>
</event>
<event>
 4    1  0.1330040E-003  0.2771989E+03  0.7818608E-02  0.1097229E+00
         -2   -1    0    0    0  501 -0.00000000000E+00  0.00000000000E+00  0.12561116517E+03  0.12561116520E+03  0.25500000000E-02 0. -1.
          2   -1    0    0  501    0  0.00000000000E+00 -0.00000000000E+00 -0.15293073705E+03  0.15293073707E+03  0.25500000000E-02 0.  1.
    5000001    1    1    2    0    0  0.26576170012E+02 -0.11160389290E+03 -0.24625326073E+02  0.14034645848E+03  0.77000000000E+02 0.  0.
   -5000001    1    1    2    0    0 -0.26576170012E+02  0.11160389290E+03 -0.26942457980E+01  0.13819544379E+03  0.77000000000E+02 0.  0.
<mgrwt>
<rscale>  0 0.27719890E+03</rscale>
<asrwt>0</asrwt>
<pdfrwt beam="1">  1        2 0.21847248E-01 0.27719890E+03</pdfrwt>
<pdfrwt beam="2">  1       -2 0.17944452E-01 0.27719890E+03</pdfrwt>
<totfact> 0.63012569E+03</totfact>
</mgrwt>
</event>
<event>
 4    1  0.1330040E-003  0.3585919E+03  0.7818608E-02  0.1059143E+00
         -2   -1    0    0    0  501 -0.00000000000E+00  0.00000000000E+00  0.10006135996E+02  0.10006136321E+02  0.25500000000E-02 0. -1.
          2   -1    0    0  501    0  0.00000000000E+00 -0.00000000000E+00 -0.32127318803E+04  0.32127318803E+04  0.25500000000E-02 0.  1.
    5000001    1    1    2    0    0  0.13349657038E+03  0.84954067789E+02 -0.12927071028E+04  0.13046299022E+04  0.77000000000E+02 0.  0.
   -5000001    1    1    2    0    0 -0.13349657038E+03 -0.84954067789E+02 -0.19100186415E+04  0.19181081144E+04  0.77000000000E+02 0.  0.
<mgrwt>
<rscale>  0 0.35859187E+03</rscale>
<asrwt>0</asrwt>
<pdfrwt beam="1">  1        2 0.45896104E+00 0.35859187E+03</pdfrwt>
<pdfrwt beam="2">  1       -2 0.14294501E-02 0.35859187E+03</pdfrwt>
<totfact> 0.26774243E+03</totfact>
</mgrwt>
</event>
<event>
 4    1  0.1330040E-003  0.1868307E+03  0.7818608E-02  0.1161351E+00
          2   -1    0    0  501    0  0.00000000000E+00  0.00000000000E+00  0.49239552326E+02  0.49239552392E+02  0.25500000000E-02 0.  1.
         -2   -1    0    0    0  501 -0.00000000000E+00 -0.00000000000E+00 -0.17722392134E+03  0.17722392136E+03  0.25500000000E-02 0. -1.
    5000001    1    1    2    0    0  0.22482432896E+02  0.39256347347E+02 -0.97207832264E+02  0.13200334560E+03  0.77000000000E+02 0.  0.
   -5000001    1    1    2    0    0 -0.22482432896E+02 -0.39256347347E+02 -0.30776536749E+02  0.94460128151E+02  0.77000000000E+02 0.  0.
<mgrwt>
<rscale>  0 0.18683069E+03</rscale>
<asrwt>0</asrwt>
<pdfrwt beam="1">  1        2 0.70342219E-02 0.18683069E+03</pdfrwt>
<pdfrwt beam="2">  1       -2 0.25317703E-01 0.18683069E+03</pdfrwt>
<totfact> 0.13391281E+04</totfact>
</mgrwt>
</event>
<event>
 4    1  0.1330040E-003  0.5335572E+03  0.7818608E-02  0.1005373E+00
          2   -1    0    0  501    0  0.00000000000E+00  0.00000000000E+00  0.11173904536E+04  0.11173904536E+04  0.25500000000E-02 0.  1.
         -2   -1    0    0    0  501 -0.00000000000E+00 -0.00000000000E+00 -0.63693772331E+02  0.63693772382E+02  0.25500000000E-02 0. -1.
    5000001    1    1    2    0    0 -0.18077197058E+03  0.10398557169E+03  0.85331032974E+03  0.88179307284E+03  0.77000000000E+02 0.  0.
   -5000001    1    1    2    0    0  0.18077197058E+03 -0.10398557169E+03  0.20038635151E+03  0.29929115313E+03  0.77000000000E+02 0.  0.
<mgrwt>
<rscale>  0 0.53355717E+03</rscale>
<asrwt>0</asrwt>
<pdfrwt beam="1">  1        2 0.15962721E+00 0.53355717E+03</pdfrwt>
<pdfrwt beam="2">  1       -2 0.90991104E-02 0.53355717E+03</pdfrwt>
<totfact> 0.19194424E+03</totfact>
</mgrwt>
</event>
<event>
 4    1  0.1330040E-003  0.2294191E+03  0.7818608E-02  0.1127049E+00
          2   -1    0    0  501    0  0.00000000000E+00  0.00000000000E+00  0.89172987484E+02  0.89172987520E+02  0.25500000000E-02 0.  1.
         -2   -1    0    0    0  501 -0.00000000000E+00 -0.00000000000E+00 -0.14755909672E+03  0.14755909674E+03  0.25500000000E-02 0. -1.
    5000001    1    1    2    0    0  0.79614590194E+02  0.37953158602E+01  0.13546221596E+01  0.11083195566E+03  0.77000000000E+02 0.  0.
   -5000001    1    1    2    0    0 -0.79614590194E+02 -0.37953158602E+01 -0.59740731395E+02  0.12590012860E+03  0.77000000000E+02 0.  0.
<mgrwt>
<rscale>  0 0.22941914E+03</rscale>
<asrwt>0</asrwt>
<pdfrwt beam="1">  1        2 0.12738998E-01 0.22941914E+03</pdfrwt>
<pdfrwt beam="2">  1       -2 0.21079871E-01 0.22941914E+03</pdfrwt>
<totfact> 0.89204251E+03</totfact>
</mgrwt>
</event>
<event>
 4    1  0.1330040E-003  0.1957569E+03  0.7818608E-02  0.1153369E+00
          2   -1    0    0  501    0  0.00000000000E+00  0.00000000000E+00  0.18910082413E+02  0.18910082585E+02  0.25500000000E-02 0.  1.
         -2   -1    0    0    0  501 -0.00000000000E+00 -0.00000000000E+00 -0.50661822149E+03  0.50661822149E+03  0.25500000000E-02 0. -1.
    5000001    1    1    2    0    0  0.31254638863E+02  0.36458283849E+02 -0.34231449046E+03  0.35413877123E+03  0.77000000000E+02 0.  0.
   -5000001    1    1    2    0    0 -0.31254638863E+02 -0.36458283849E+02 -0.14539364861E+03  0.17138953284E+03  0.77000000000E+02 0.  0.
<mgrwt>
<rscale>  0 0.19575691E+03</rscale>
<asrwt>0</asrwt>
<pdfrwt beam="1">  1        2 0.27014407E-02 0.19575691E+03</pdfrwt>
<pdfrwt beam="2">  1       -2 0.72374023E-01 0.19575691E+03</pdfrwt>
<totfact> 0.62477610E+03</totfact>
</mgrwt>
</event>
<event>
 4    1  0.1330040E-003  0.2397128E+03  0.7818608E-02  0.1119984E+00
         -2   -1    0    0    0  501 -0.00000000000E+00  0.00000000000E+00  0.28278418839E+03  0.28278418840E+03  0.25500000000E-02 0.  1.
          2   -1    0    0  501    0  0.00000000000E+00 -0.00000000000E+00 -0.50800403878E+02  0.50800403942E+02  0.25500000000E-02 0. -1.
    5000001    1    1    2    0    0 -0.75187544741E+02 -0.58337760688E+01  0.18895947356E+03  0.21753593375E+03  0.77000000000E+02 0.  0.
   -5000001    1    1    2    0    0  0.75187544741E+02  0.58337760688E+01  0.43024310957E+02  0.11604865859E+03  0.77000000000E+02 0.  0.
<mgrwt>
<rscale>  0 0.23971275E+03</rscale>
<asrwt>0</asrwt>
<pdfrwt beam="1">  1        2 0.72572007E-02 0.23971275E+03</pdfrwt>
<pdfrwt beam="2">  1       -2 0.40397740E-01 0.23971275E+03</pdfrwt>
<totfact> 0.55569121E+03</totfact>
</mgrwt>
</event>
<event>
 4    1  0.1330040E-003  0.1583972E+03  0.7818608E-02  0.1190518E+00
          2   -1    0    0  501    0  0.00000000000E+00  0.00000000000E+00  0.51593480822E+03  0.51593480822E+03  0.25500000000E-02 0.  1.
         -2   -1    0    0    0  501 -0.00000000000E+00 -0.00000000000E+00 -0.12157381710E+02  0.12157381978E+02  0.25500000000E-02 0. -1.
    5000001    1    1    2    0    0 -0.12876900360E+02 -0.61804379165E+01  0.29125279053E+03  0.30159774596E+03  0.77000000000E+02 0.  0.
   -5000001    1    1    2    0    0  0.12876900360E+02  0.61804379165E+01  0.21252463598E+03  0.22649444425E+03  0.77000000000E+02 0.  0.
<mgrwt>
<rscale>  0 0.15839718E+03</rscale>
<asrwt>0</asrwt>
<pdfrwt beam="1">  1        2 0.73704977E-01 0.15839718E+03</pdfrwt>
<pdfrwt beam="2">  1       -2 0.17367687E-02 0.15839718E+03</pdfrwt>
<totfact> 0.58440641E+04</totfact>
</mgrwt>
</event>
<event>
 4    1  0.1330040E-003  0.3818355E+03  0.7818608E-02  0.1050257E+00
          2   -1    0    0  501    0  0.00000000000E+00  0.00000000000E+00  0.16049334673E+04  0.16049334673E+04  0.25500000000E-02 0.  1.
         -2   -1    0    0    0  501 -0.00000000000E+00 -0.00000000000E+00 -0.22710960864E+02  0.22710961007E+02  0.25500000000E-02 0. -1.
    5000001    1    1    2    0    0  0.11464504471E+03 -0.10838764572E+03  0.11109323582E+04  0.11247182191E+04  0.77000000000E+02 0.  0.
   -5000001    1    1    2    0    0 -0.11464504471E+03  0.10838764572E+03  0.47129014825E+03  0.50292620915E+03  0.77000000000E+02 0.  0.
<mgrwt>
<rscale>  0 0.38183547E+03</rscale>
<asrwt>0</asrwt>
<pdfrwt beam="1">  1        2 0.22927624E+00 0.38183547E+03</pdfrwt>
<pdfrwt beam="2">  1       -2 0.32444226E-02 0.38183547E+03</pdfrwt>
<totfact> 0.52194154E+03</totfact>
</mgrwt>
</event>
<event>
 4    1  0.1330040E-003  0.2437924E+03  0.7818608E-02  0.1117292E+00
         -2   -1    0    0    0  501 -0.00000000000E+00  0.00000000000E+00  0.88789228393E+02  0.88789228430E+02  0.25500000000E-02 0. -1.
          2   -1    0    0  501    0  0.00000000000E+00 -0.00000000000E+00 -0.16734782045E+03  0.16734782047E+03  0.25500000000E-02 0.  1.
    5000001    1    1    2    0    0  0.74704811533E+02  0.16148588457E+02 -0.97663824547E+02  0.14597536916E+03  0.77000000000E+02 0.  0.
   -5000001    1    1    2    0    0 -0.74704811533E+02 -0.16148588457E+02  0.19105232490E+02  0.11016167974E+03  0.77000000000E+02 0.  0.
<mgrwt>
<rscale>  0 0.24379240E+03</rscale>
<asrwt>0</asrwt>
<pdfrwt beam="1">  1        2 0.23906831E-01 0.24379240E+03</pdfrwt>
<pdfrwt beam="2">  1       -2 0.12684176E-01 0.24379240E+03</pdfrwt>
<totfact> 0.10040884E+04</totfact>
</mgrwt>
</event>
<event>
 4    1  0.1330040E-003  0.3378641E+03  0.7818608E-02  0.1067709E+00
          2   -1    0    0  501    0  0.00000000000E+00  0.00000000000E+00  0.18776558451E+04  0.18776558451E+04  0.25500000000E-02 0.  1.
         -2   -1    0    0    0  501 -0.00000000000E+00 -0.00000000000E+00 -0.15198758530E+02  0.15198758744E+02  0.25500000000E-02 0. -1.
    5000001    1    1    2    0    0  0.43465448443E+02  0.14119607403E+03  0.77441483501E+03  0.79213187867E+03  0.77000000000E+02 0.  0.
   -5000001    1    1    2    0    0 -0.43465448443E+02 -0.14119607403E+03  0.10880422515E+04  0.11007227252E+04  0.77000000000E+02 0.  0.
<mgrwt>
<rscale>  0 0.33786410E+03</rscale>
<asrwt>0</asrwt>
<pdfrwt beam="1">  1        2 0.26823654E+00 0.33786410E+03</pdfrwt>
<pdfrwt beam="2">  1       -2 0.21712513E-02 0.33786410E+03</pdfrwt>
<totfact> 0.69556824E+03</totfact>
</mgrwt>
</event>
<event>
 4    1  0.1330040E-003  0.3419328E+03  0.7818608E-02  0.1065976E+00
         -2   -1    0    0    0  501 -0.00000000000E+00  0.00000000000E+00  0.60165395211E+02  0.60165395265E+02  0.25500000000E-02 0. -1.
          2   -1    0    0  501    0  0.00000000000E+00 -0.00000000000E+00 -0.48581922403E+03  0.48581922404E+03  0.25500000000E-02 0.  1.
    5000001    1    1    2    0    0 -0.11420145846E+03  0.97480498796E+02 -0.25673302348E+03  0.30722185161E+03  0.77000000000E+02 0.  0.
   -5000001    1    1    2    0    0  0.11420145846E+03 -0.97480498796E+02 -0.16892080533E+03  0.23876276769E+03  0.77000000000E+02 0.  0.
<mgrwt>
<rscale>  0 0.34193277E+03</rscale>
<asrwt>0</asrwt>
<pdfrwt beam="1">  1        2 0.69402744E-01 0.34193277E+03</pdfrwt>
<pdfrwt beam="2">  1       -2 0.85950567E-02 0.34193277E+03</pdfrwt>
<totfact> 0.59207057E+03</totfact>
</mgrwt>
</event>
<event>
 4    1  0.1330040E-003  0.2087970E+03  0.7818608E-02  0.1142522E+00
         -2   -1    0    0    0  501 -0.00000000000E+00  0.00000000000E+00  0.26891183734E+02  0.26891183855E+02  0.25500000000E-02 0. -1.
          2   -1    0    0  501    0  0.00000000000E+00 -0.00000000000E+00 -0.40530195638E+03  0.40530195639E+03  0.25500000000E-02 0.  1.
    5000001    1    1    2    0    0  0.65067204120E+02  0.24509405730E+02 -0.21330883683E+03  0.23720057312E+03  0.77000000000E+02 0.  0.
   -5000001    1    1    2    0    0 -0.65067204120E+02 -0.24509405730E+02 -0.16510193581E+03  0.19499256712E+03  0.77000000000E+02 0.  0.
<mgrwt>
<rscale>  0 0.20879702E+03</rscale>
<asrwt>0</asrwt>
<pdfrwt beam="1">  1        2 0.57900276E-01 0.20879702E+03</pdfrwt>
<pdfrwt beam="2">  1       -2 0.38415979E-02 0.20879702E+03</pdfrwt>
<totfact> 0.24204313E+04</totfact>
</mgrwt>
</event>
<event>
 4    1  0.1330040E-003  0.2056035E+03  0.7818608E-02  0.1145096E+00
         -2   -1    0    0    0  501 -0.00000000000E+00  0.00000000000E+00  0.63201893976E+01  0.63201899120E+01  0.25500000000E-02 0. -1.
          2   -1    0    0  501    0  0.00000000000E+00 -0.00000000000E+00 -0.16721328935E+04  0.16721328935E+04  0.25500000000E-02 0.  1.
    5000001    1    1    2    0    0  0.49347760226E+02  0.32822894126E+02 -0.11069210680E+04  0.11111776612E+04  0.77000000000E+02 0.  0.
   -5000001    1    1    2    0    0 -0.49347760226E+02 -0.32822894126E+02 -0.55889163603E+03  0.56727542221E+03  0.77000000000E+02 0.  0.
<mgrwt>
<rscale>  0 0.20560347E+03</rscale>
<asrwt>0</asrwt>
<pdfrwt beam="1">  1        2 0.23887584E+00 0.20560347E+03</pdfrwt>
<pdfrwt beam="2">  1       -2 0.90288531E-03 0.20560347E+03</pdfrwt>
<totfact> 0.31135079E+04</totfact>
</mgrwt>
</event>
<event>
 4    1  0.1330040E-003  0.2013646E+03  0.7818608E-02  0.1148593E+00
         -2   -1    0    0    0  501 -0.00000000000E+00  0.00000000000E+00  0.16370387161E+03  0.16370387163E+03  0.25500000000E-02 0. -1.
          2   -1    0    0  501    0  0.00000000000E+00 -0.00000000000E+00 -0.61922319640E+02  0.61922319693E+02  0.25500000000E-02 0.  1.
    5000001    1    1    2    0    0  0.60371911364E+02 -0.23001852790E+02  0.44350500202E+02  0.10986273154E+03  0.77000000000E+02 0.  0.
   -5000001    1    1    2    0    0 -0.60371911364E+02  0.23001852790E+02  0.57431051768E+02  0.11576345978E+03  0.77000000000E+02 0.  0.
<mgrwt>
<rscale>  0 0.20136458E+03</rscale>
<asrwt>0</asrwt>
<pdfrwt beam="1">  1        2 0.88460457E-02 0.20136458E+03</pdfrwt>
<pdfrwt beam="2">  1       -2 0.23386267E-01 0.20136458E+03</pdfrwt>
<totfact> 0.11575497E+04</totfact>
</mgrwt>
</event>
<event>
 4    1  0.1330040E-003  0.1738322E+03  0.7818608E-02  0.1173909E+00
          2   -1    0    0  501    0  0.00000000000E+00  0.00000000000E+00  0.25606347807E+04  0.25606347807E+04  0.25500000000E-02 0.  1.
         -2   -1    0    0    0  501 -0.00000000000E+00 -0.00000000000E+00 -0.29502084552E+01  0.29502095572E+01  0.25500000000E-02 0. -1.
    5000001    1    1    2    0    0  0.21828223209E+02  0.32723813378E+02  0.14091622842E+04  0.14118125451E+04  0.77000000000E+02 0.  0.
   -5000001    1    1    2    0    0 -0.21828223209E+02 -0.32723813378E+02  0.11485222880E+04  0.11517724451E+04  0.77000000000E+02 0.  0.
<mgrwt>
<rscale>  0 0.17383219E+03</rscale>
<asrwt>0</asrwt>
<pdfrwt beam="1">  1        2 0.36580597E+00 0.17383219E+03</pdfrwt>
<pdfrwt beam="2">  1       -2 0.42145727E-03 0.17383219E+03</pdfrwt>
<totfact> 0.34061331E+04</totfact>
</mgrwt>
</event>
<event>
 4    1  0.1330040E-003  0.2094284E+03  0.7818608E-02  0.1142019E+00
          2   -1    0    0  501    0  0.00000000000E+00  0.00000000000E+00  0.35919746101E+02  0.35919746191E+02  0.25500000000E-02 0.  1.
         -2   -1    0    0    0  501 -0.00000000000E+00 -0.00000000000E+00 -0.30526550384E+03  0.30526550385E+03  0.25500000000E-02 0. -1.
    5000001    1    1    2    0    0 -0.51660636885E+02 -0.39095437573E+02 -0.87490479247E+02  0.13334488592E+03  0.77000000000E+02 0.  0.
   -5000001    1    1    2    0    0  0.51660636885E+02  0.39095437573E+02 -0.18185527849E+03  0.20784036412E+03  0.77000000000E+02 0.  0.
<mgrwt>
<rscale>  0 0.20942836E+03</rscale>
<asrwt>0</asrwt>
<pdfrwt beam="1">  1        2 0.51313924E-02 0.20942836E+03</pdfrwt>
<pdfrwt beam="2">  1       -2 0.43609357E-01 0.20942836E+03</pdfrwt>
<totfact> 0.74642170E+03</totfact>
</mgrwt>
</event>
<event>
 4    1  0.1330040E-003  0.2375359E+03  0.7818608E-02  0.1121445E+00
         -2   -1    0    0    0  501 -0.00000000000E+00  0.00000000000E+00  0.80581999687E+02  0.80581999727E+02  0.25500000000E-02 0. -1.
          2   -1    0    0  501    0  0.00000000000E+00 -0.00000000000E+00 -0.17504937147E+03  0.17504937149E+03  0.25500000000E-02 0.  1.
    5000001    1    1    2    0    0 -0.78022802166E+02 -0.10704173273E+02 -0.95056428104E+02  0.14548835523E+03  0.77000000000E+02 0.  0.
   -5000001    1    1    2    0    0  0.78022802166E+02  0.10704173273E+02  0.58905632057E+00  0.11014301599E+03  0.77000000000E+02 0.  0.
<mgrwt>
<rscale>  0 0.23753592E+03</rscale>
<asrwt>0</asrwt>
<pdfrwt beam="1">  1        2 0.25007053E-01 0.23753592E+03</pdfrwt>
<pdfrwt beam="2">  1       -2 0.11511714E-01 0.23753592E+03</pdfrwt>
<totfact> 0.11149773E+04</totfact>
</mgrwt>
</event>
<event>
 4    1  0.1330040E-003  0.1941545E+03  0.7818608E-02  0.1154767E+00
          2   -1    0    0  501    0  0.00000000000E+00  0.00000000000E+00  0.72531344230E+03  0.72531344230E+03  0.25500000000E-02 0.  1.
         -2   -1    0    0    0  501 -0.00000000000E+00 -0.00000000000E+00 -0.12992997652E+02  0.12992997902E+02  0.25500000000E-02 0. -1.
    5000001    1    1    2    0    0  0.32702541574E+02  0.44650846986E+02  0.43518282807E+03  0.44539448606E+03  0.77000000000E+02 0.  0.
   -5000001    1    1    2    0    0 -0.32702541574E+02 -0.44650846986E+02  0.27713761657E+03  0.29291195415E+03  0.77000000000E+02 0.  0.
<mgrwt>
<rscale>  0 0.19415454E+03</rscale>
<asrwt>0</asrwt>
<pdfrwt beam="1">  1        2 0.10361623E+00 0.19415454E+03</pdfrwt>
<pdfrwt beam="2">  1       -2 0.18561422E-02 0.19415454E+03</pdfrwt>
<totfact> 0.36724085E+04</totfact>
</mgrwt>
</event>
<event>
 4    1  0.1330040E-003  0.2132078E+03  0.7818608E-02  0.1139051E+00
          2   -1    0    0  501    0  0.00000000000E+00  0.00000000000E+00  0.18019869004E+04  0.18019869004E+04  0.25500000000E-02 0.  1.
         -2   -1    0    0    0  501 -0.00000000000E+00 -0.00000000000E+00 -0.63065915022E+01  0.63065920178E+01  0.25500000000E-02 0. -1.
    5000001    1    1    2    0    0  0.69609924201E+02 -0.22211402344E+02  0.98115971217E+03  0.98688513451E+03  0.77000000000E+02 0.  0.
   -5000001    1    1    2    0    0 -0.69609924201E+02  0.22211402344E+02  0.81452059671E+03  0.82140835789E+03  0.77000000000E+02 0.  0.
<mgrwt>
<rscale>  0 0.21320784E+03</rscale>
<asrwt>0</asrwt>
<pdfrwt beam="1">  1        2 0.25742695E+00 0.21320784E+03</pdfrwt>
<pdfrwt beam="2">  1       -2 0.90094079E-03 0.21320784E+03</pdfrwt>
<totfact> 0.27051314E+04</totfact>
</mgrwt>
</event>
<event>
 4    1  0.1330040E-003  0.3596359E+03  0.7818608E-02  0.1058728E+00
         -2   -1    0    0    0  501 -0.00000000000E+00  0.00000000000E+00  0.16216865357E+03  0.16216865359E+03  0.25500000000E-02 0. -1.
          2   -1    0    0  501    0  0.00000000000E+00 -0.00000000000E+00 -0.19938806106E+03  0.19938806108E+03  0.25500000000E-02 0.  1.
    5000001    1    1    2    0    0  0.46947824969E+02 -0.15554855065E+03 -0.21081192951E+02  0.18103277763E+03  0.77000000000E+02 0.  0.
   -5000001    1    1    2    0    0 -0.46947824969E+02  0.15554855065E+03 -0.16138214540E+02  0.18052393705E+03  0.77000000000E+02 0.  0.
<mgrwt>
<rscale>  0 0.35963589E+03</rscale>
<asrwt>0</asrwt>
<pdfrwt beam="1">  1        2 0.28484009E-01 0.35963589E+03</pdfrwt>
<pdfrwt beam="2">  1       -2 0.23166950E-01 0.35963589E+03</pdfrwt>
<totfact> 0.30373774E+03</totfact>
</mgrwt>
</event>
<event>
 4    1  0.1330040E-003  0.2484133E+03  0.7818608E-02  0.1114312E+00
         -2   -1    0    0    0  501 -0.00000000000E+00  0.00000000000E+00  0.96499990363E+02  0.96499990396E+02  0.25500000000E-02 0. -1.
          2   -1    0    0  501    0  0.00000000000E+00 -0.00000000000E+00 -0.15986830228E+03  0.15986830230E+03  0.25500000000E-02 0.  1.
    5000001    1    1    2    0    0 -0.32359787575E+02 -0.68343467033E+02  0.31768949092E+02  0.11250000651E+03  0.77000000000E+02 0.  0.
   -5000001    1    1    2    0    0  0.32359787575E+02  0.68343467033E+02 -0.95137261007E+02  0.14386828619E+03  0.77000000000E+02 0.  0.
<mgrwt>
<rscale>  0 0.24841328E+03</rscale>
<asrwt>0</asrwt>
<pdfrwt beam="1">  1        2 0.22838329E-01 0.24841328E+03</pdfrwt>
<pdfrwt beam="2">  1       -2 0.13785713E-01 0.24841328E+03</pdfrwt>
<totfact> 0.92388096E+03</totfact>
</mgrwt>
</event>
<event>
 4    1  0.1330040E-003  0.2002121E+03  0.7818608E-02  0.1149560E+00
         -2   -1    0    0    0  501 -0.00000000000E+00  0.00000000000E+00  0.10995777747E+02  0.10995778043E+02  0.25500000000E-02 0. -1.
          2   -1    0    0  501    0  0.00000000000E+00 -0.00000000000E+00 -0.91136948862E+03  0.91136948862E+03  0.25500000000E-02 0.  1.
    5000001    1    1    2    0    0  0.29857787308E+02 -0.56331412252E+02 -0.42602740471E+03  0.43759920593E+03  0.77000000000E+02 0.  0.
   -5000001    1    1    2    0    0 -0.29857787308E+02  0.56331412252E+02 -0.47434630617E+03  0.48476606074E+03  0.77000000000E+02 0.  0.
<mgrwt>
<rscale>  0 0.20021205E+03</rscale>
<asrwt>0</asrwt>
<pdfrwt beam="1">  1        2 0.13019559E+00 0.20021205E+03</pdfrwt>
<pdfrwt beam="2">  1       -2 0.15708260E-02 0.20021205E+03</pdfrwt>
<totfact> 0.35405438E+04</totfact>
</mgrwt>
</event>
<event>
 4    1  0.1330040E-003  0.2284900E+03  0.7818608E-02  0.1127707E+00
         -2   -1    0    0    0  501 -0.00000000000E+00  0.00000000000E+00  0.15498292907E+02  0.15498293116E+02  0.25500000000E-02 0. -1.
          2   -1    0    0  501    0  0.00000000000E+00 -0.00000000000E+00 -0.84215206474E+03  0.84215206475E+03  0.25500000000E-02 0.  1.
    5000001    1    1    2    0    0 -0.45153545082E+02  0.58810000420E+02 -0.56465907663E+03  0.57468802981E+03  0.77000000000E+02 0.  0.
   -5000001    1    1    2    0    0  0.45153545082E+02 -0.58810000420E+02 -0.26199469521E+03  0.28296232806E+03  0.77000000000E+02 0.  0.
<mgrwt>
<rscale>  0 0.22849000E+03</rscale>
<asrwt>0</asrwt>
<pdfrwt beam="1">  1        2 0.12030741E+00 0.22849000E+03</pdfrwt>
<pdfrwt beam="2">  1       -2 0.22140424E-02 0.22849000E+03</pdfrwt>
<totfact> 0.23916042E+04</totfact>
</mgrwt>
</event>
<event>
 4    1  0.1330040E-003  0.2929935E+03  0.7818608E-02  0.1088796E+00
          2   -1    0    0  501    0  0.00000000000E+00  0.00000000000E+00  0.37425012201E+03  0.37425012202E+03  0.25500000000E-02 0.  1.
         -2   -1    0    0    0  501 -0.00000000000E+00 -0.00000000000E+00 -0.57344813928E+02  0.57344813985E+02  0.25500000000E-02 0. -1.
    5000001    1    1    2    0    0  0.27684605709E+00 -0.11979014774E+03  0.10779703938E+03  0.17860279348E+03  0.77000000000E+02 0.  0.
   -5000001    1    1    2    0    0 -0.27684605709E+00  0.11979014774E+03  0.20910826870E+03  0.25299214252E+03  0.77000000000E+02 0.  0.
<mgrwt>
<rscale>  0 0.29299354E+03</rscale>
<asrwt>0</asrwt>
<pdfrwt beam="1">  1        2 0.53464305E-01 0.29299354E+03</pdfrwt>
<pdfrwt beam="2">  1       -2 0.81921160E-02 0.29299354E+03</pdfrwt>
<totfact> 0.84504022E+03</totfact>
</mgrwt>
</event>
<event>
 4    1  0.1330040E-003  0.2666816E+03  0.7818608E-02  0.1103194E+00
          2   -1    0    0  501    0  0.00000000000E+00  0.00000000000E+00  0.10460885418E+04  0.10460885418E+04  0.25500000000E-02 0.  1.
         -2   -1    0    0    0  501 -0.00000000000E+00 -0.00000000000E+00 -0.16996430179E+02  0.16996430370E+02  0.25500000000E-02 0. -1.
    5000001    1    1    2    0    0 -0.13413297321E+02  0.95820743730E+02  0.71343390140E+03  0.72407075838E+03  0.77000000000E+02 0.  0.
   -5000001    1    1    2    0    0  0.13413297321E+02 -0.95820743730E+02  0.31565821023E+03  0.33901421380E+03  0.77000000000E+02 0.  0.
<mgrwt>
<rscale>  0 0.26668162E+03</rscale>
<asrwt>0</asrwt>
<pdfrwt beam="1">  1        2 0.14944120E+00 0.26668162E+03</pdfrwt>
<pdfrwt beam="2">  1       -2 0.24280618E-02 0.26668162E+03</pdfrwt>
<totfact> 0.15809886E+04</totfact>
</mgrwt>
</event>
<event>
 4    1  0.1330040E-003  0.1625573E+03  0.7818608E-02  0.1185839E+00
         -2   -1    0    0    0  501 -0.00000000000E+00  0.00000000000E+00  0.49607754496E+01  0.49607761050E+01  0.25500000000E-02 0. -1.
          2   -1    0    0  501    0  0.00000000000E+00 -0.00000000000E+00 -0.13316913365E+04  0.13316913365E+04  0.25500000000E-02 0.  1.
    5000001    1    1    2    0    0  0.15838160303E+02 -0.19386994727E+02 -0.60492124173E+03  0.61031582937E+03  0.77000000000E+02 0.  0.
   -5000001    1    1    2    0    0 -0.15838160303E+02  0.19386994727E+02 -0.72180931936E+03  0.72633628327E+03  0.77000000000E+02 0.  0.
<mgrwt>
<rscale>  0 0.16255734E+03</rscale>
<asrwt>0</asrwt>
<pdfrwt beam="1">  1        2 0.19024139E+00 0.16255734E+03</pdfrwt>
<pdfrwt beam="2">  1       -2 0.70868310E-03 0.16255734E+03</pdfrwt>
<totfact> 0.64045873E+04</totfact>
</mgrwt>
</event>
<event>
 4    1  0.1330040E-003  0.2832543E+03  0.7818608E-02  0.1093925E+00
          2   -1    0    0  501    0  0.00000000000E+00  0.00000000000E+00  0.38716166694E+04  0.38716166694E+04  0.25500000000E-02 0.  1.
         -2   -1    0    0    0  501 -0.00000000000E+00 -0.00000000000E+00 -0.51808465550E+01  0.51808471825E+01  0.25500000000E-02 0. -1.
    5000001    1    1    2    0    0  0.27412212478E+02  0.31089546345E+02  0.34579887343E+04  0.34590942566E+04  0.77000000000E+02 0.  0.
   -5000001    1    1    2    0    0 -0.27412212478E+02 -0.31089546345E+02  0.40844708851E+03  0.41770325998E+03  0.77000000000E+02 0.  0.
<mgrwt>
<rscale>  0 0.28325432E+03</rscale>
<asrwt>0</asrwt>
<pdfrwt beam="1">  1        2 0.55308952E+00 0.28325432E+03</pdfrwt>
<pdfrwt beam="2">  1       -2 0.74011908E-03 0.28325432E+03</pdfrwt>
<totfact> 0.28853375E+03</totfact>
</mgrwt>
</event>
<event>
 4    1  0.1330040E-003  0.2338203E+03  0.7818608E-02  0.1123979E+00
         -2   -1    0    0    0  501 -0.00000000000E+00  0.00000000000E+00  0.37233326416E+02  0.37233326504E+02  0.25500000000E-02 0. -1.
          2   -1    0    0  501    0  0.00000000000E+00 -0.00000000000E+00 -0.36708989536E+03  0.36708989536E+03  0.25500000000E-02 0.  1.
    5000001    1    1    2    0    0 -0.34217077420E+02 -0.73068427635E+02 -0.10430306678E+03  0.15270210622E+03  0.77000000000E+02 0.  0.
   -5000001    1    1    2    0    0  0.34217077420E+02  0.73068427635E+02 -0.22555350216E+03  0.25162111565E+03  0.77000000000E+02 0.  0.
<mgrwt>
<rscale>  0 0.23382026E+03</rscale>
<asrwt>0</asrwt>
<pdfrwt beam="1">  1        2 0.52441412E-01 0.23382026E+03</pdfrwt>
<pdfrwt beam="2">  1       -2 0.53190468E-02 0.23382026E+03</pdfrwt>
<totfact> 0.16614831E+04</totfact>
</mgrwt>
</event>
<event>
 4    1  0.1330040E-003  0.2645497E+03  0.7818608E-02  0.1104440E+00
          2   -1    0    0  501    0  0.00000000000E+00  0.00000000000E+00  0.13953125424E+03  0.13953125426E+03  0.25500000000E-02 0.  1.
         -2   -1    0    0    0  501 -0.00000000000E+00 -0.00000000000E+00 -0.12539579420E+03  0.12539579423E+03  0.25500000000E-02 0. -1.
    5000001    1    1    2    0    0  0.22295912958E+02 -0.99453308265E+02 -0.27326046147E+02  0.13062840831E+03  0.77000000000E+02 0.  0.
   -5000001    1    1    2    0    0 -0.22295912958E+02  0.99453308265E+02  0.41461506187E+02  0.13429864018E+03  0.77000000000E+02 0.  0.
<mgrwt>
<rscale>  0 0.26454967E+03</rscale>
<asrwt>0</asrwt>
<pdfrwt beam="1">  1        2 0.19933036E-01 0.26454967E+03</pdfrwt>
<pdfrwt beam="2">  1       -2 0.17913685E-01 0.26454967E+03</pdfrwt>
<totfact> 0.70019039E+03</totfact>
</mgrwt>
</event>
<event>
 4    1  0.1330040E-003  0.2934127E+03  0.7818608E-02  0.1088581E+00
          2   -1    0    0  501    0  0.00000000000E+00  0.00000000000E+00  0.70369721431E+02  0.70369721477E+02  0.25500000000E-02 0.  1.
         -2   -1    0    0    0  501 -0.00000000000E+00 -0.00000000000E+00 -0.30585255585E+03  0.30585255586E+03  0.25500000000E-02 0. -1.
    5000001    1    1    2    0    0  0.93525235565E+02  0.75512090698E+02 -0.16112385647E+03  0.21526481982E+03  0.77000000000E+02 0.  0.
   -5000001    1    1    2    0    0 -0.93525235565E+02 -0.75512090698E+02 -0.74358977954E+02  0.16095745752E+03  0.77000000000E+02 0.  0.
<mgrwt>
<rscale>  0 0.29341274E+03</rscale>
<asrwt>0</asrwt>
<pdfrwt beam="1">  1        2 0.10052817E-01 0.29341274E+03</pdfrwt>
<pdfrwt beam="2">  1       -2 0.43693222E-01 0.29341274E+03</pdfrwt>
<totfact> 0.31908814E+03</totfact>
</mgrwt>
</event>
<event>
 4    1  0.1330040E-003  0.2309967E+03  0.7818608E-02  0.1125940E+00
         -2   -1    0    0    0  501 -0.00000000000E+00  0.00000000000E+00  0.36692674773E+02  0.36692674862E+02  0.25500000000E-02 0. -1.
          2   -1    0    0  501    0  0.00000000000E+00 -0.00000000000E+00 -0.36355660108E+03  0.36355660108E+03  0.25500000000E-02 0.  1.
    5000001    1    1    2    0    0  0.17938364507E+02  0.83886698102E+02 -0.17593882411E+03  0.21033837707E+03  0.77000000000E+02 0.  0.
   -5000001    1    1    2    0    0 -0.17938364507E+02 -0.83886698102E+02 -0.15092510220E+03  0.18991089888E+03  0.77000000000E+02 0.  0.
<mgrwt>
<rscale>  0 0.23099666E+03</rscale>
<asrwt>0</asrwt>
<pdfrwt beam="1">  1        2 0.51936655E-01 0.23099666E+03</pdfrwt>
<pdfrwt beam="2">  1       -2 0.52418109E-02 0.23099666E+03</pdfrwt>
<totfact> 0.17152800E+04</totfact>
</mgrwt>
</event>
<event>
 4    1  0.1330040E-003  0.2120225E+03  0.7818608E-02  0.1139974E+00
          2   -1    0    0  501    0  0.00000000000E+00  0.00000000000E+00  0.12556132217E+04  0.12556132217E+04  0.25500000000E-02 0.  1.
         -2   -1    0    0    0  501 -0.00000000000E+00 -0.00000000000E+00 -0.89505118107E+01  0.89505121740E+01  0.25500000000E-02 0. -1.
    5000001    1    1    2    0    0 -0.49530339960E+02  0.91406260540E+01  0.93738261796E+03  0.94188745510E+03  0.77000000000E+02 0.  0.
   -5000001    1    1    2    0    0  0.49530339960E+02 -0.91406260540E+01  0.30928009193E+03  0.32267627877E+03  0.77000000000E+02 0.  0.
<mgrwt>
<rscale>  0 0.21202246E+03</rscale>
<asrwt>0</asrwt>
<pdfrwt beam="1">  1        2 0.17937316E+00 0.21202246E+03</pdfrwt>
<pdfrwt beam="2">  1       -2 0.12786457E-02 0.21202246E+03</pdfrwt>
<totfact> 0.30618735E+04</totfact>
</mgrwt>
</event>
<event>
 4    1  0.1330040E-003  0.1681351E+03  0.7818608E-02  0.1179807E+00
         -2   -1    0    0    0  501 -0.00000000000E+00  0.00000000000E+00  0.11475742300E+02  0.11475742583E+02  0.25500000000E-02 0. -1.
          2   -1    0    0  501    0  0.00000000000E+00 -0.00000000000E+00 -0.61585168542E+03  0.61585168543E+03  0.25500000000E-02 0.  1.
    5000001    1    1    2    0    0  0.17722484886E+02 -0.27084129853E+02 -0.33772526809E+03  0.34790083827E+03  0.77000000000E+02 0.  0.
   -5000001    1    1    2    0    0 -0.17722484886E+02  0.27084129853E+02 -0.26665067503E+03  0.27942658974E+03  0.77000000000E+02 0.  0.
<mgrwt>
<rscale>  0 0.16813513E+03</rscale>
<asrwt>0</asrwt>
<pdfrwt beam="1">  1        2 0.87978792E-01 0.16813513E+03</pdfrwt>
<pdfrwt beam="2">  1       -2 0.16393922E-02 0.16813513E+03</pdfrwt>
<totfact> 0.52495939E+04</totfact>
</mgrwt>
</event>
<event>
 4    1  0.1330040E-003  0.2260899E+03  0.7818608E-02  0.1129423E+00
          2   -1    0    0  501    0  0.00000000000E+00  0.00000000000E+00  0.66186084742E+03  0.66186084742E+03  0.25500000000E-02 0.  1.
         -2   -1    0    0    0  501 -0.00000000000E+00 -0.00000000000E+00 -0.19307930967E+02  0.19307931136E+02  0.25500000000E-02 0. -1.
    5000001    1    1    2    0    0 -0.77474944072E+02 -0.25832452258E+02  0.36175168980E+03  0.37876505597E+03  0.77000000000E+02 0.  0.
   -5000001    1    1    2    0    0  0.77474944072E+02  0.25832452258E+02  0.28080122665E+03  0.30240372259E+03  0.77000000000E+02 0.  0.
<mgrwt>
<rscale>  0 0.22608993E+03</rscale>
<asrwt>0</asrwt>
<pdfrwt beam="1">  1        2 0.94551540E-01 0.22608993E+03</pdfrwt>
<pdfrwt beam="2">  1       -2 0.27582761E-02 0.22608993E+03</pdfrwt>
<totfact> 0.23108547E+04</totfact>
</mgrwt>
</event>
<event>
 4    1  0.1330040E-003  0.2603822E+03  0.7818608E-02  0.1106914E+00
          2   -1    0    0  501    0  0.00000000000E+00  0.00000000000E+00  0.12999708912E+04  0.12999708912E+04  0.25500000000E-02 0.  1.
         -2   -1    0    0    0  501 -0.00000000000E+00 -0.00000000000E+00 -0.13038536159E+02  0.13038536408E+02  0.25500000000E-02 0. -1.
    5000001    1    1    2    0    0 -0.20169140376E+02  0.74343602217E+02  0.28381172256E+03  0.30399318952E+03  0.77000000000E+02 0.  0.
   -5000001    1    1    2    0    0  0.20169140376E+02 -0.74343602217E+02  0.10031206325E+04  0.10090162381E+04  0.77000000000E+02 0.  0.
<mgrwt>
<rscale>  0 0.26038216E+03</rscale>
<asrwt>0</asrwt>
<pdfrwt beam="1">  1        2 0.18571024E+00 0.26038216E+03</pdfrwt>
<pdfrwt beam="2">  1       -2 0.18626469E-02 0.26038216E+03</pdfrwt>
<totfact> 0.16935898E+04</totfact>
</mgrwt>
</event>
<event>
 4    1  0.1330040E-003  0.4154953E+03  0.7818608E-02  0.1038542E+00
         -2   -1    0    0    0  501 -0.00000000000E+00  0.00000000000E+00  0.42215735861E+02  0.42215735938E+02  0.25500000000E-02 0. -1.
          2   -1    0    0  501    0  0.00000000000E+00 -0.00000000000E+00 -0.10223460493E+04  0.10223460493E+04  0.25500000000E-02 0.  1.
    5000001    1    1    2    0    0  0.17613465155E+03  0.57810340344E+02 -0.62719745377E+03  0.65853708851E+03  0.77000000000E+02 0.  0.
   -5000001    1    1    2    0    0 -0.17613465155E+03 -0.57810340344E+02 -0.35293285971E+03  0.40602469678E+03  0.77000000000E+02 0.  0.
<mgrwt>
<rscale>  0 0.41549532E+03</rscale>
<asrwt>0</asrwt>
<pdfrwt beam="1">  1        2 0.14604942E+00 0.41549532E+03</pdfrwt>
<pdfrwt beam="2">  1       -2 0.60308200E-02 0.41549532E+03</pdfrwt>
<totfact> 0.41714230E+03</totfact>
</mgrwt>
</event>
<event>
 4    1  0.1330040E-003  0.2047069E+03  0.7818608E-02  0.1145828E+00
          2   -1    0    0  501    0  0.00000000000E+00  0.00000000000E+00  0.24273731834E+03  0.24273731836E+03  0.25500000000E-02 0. -1.
         -2   -1    0    0    0  501 -0.00000000000E+00 -0.00000000000E+00 -0.43158685782E+02  0.43158685858E+02  0.25500000000E-02 0.  1.
    5000001    1    1    2    0    0  0.50810831949E+02 -0.11748883166E+01  0.16168463456E+03  0.18615596165E+03  0.77000000000E+02 0.  0.
   -5000001    1    1    2    0    0 -0.50810831949E+02  0.11748883166E+01  0.37893998003E+02  0.99740042564E+02  0.77000000000E+02 0.  0.
<mgrwt>
<rscale>  0 0.20470685E+03</rscale>
<asrwt>0</asrwt>
<pdfrwt beam="1">  1        2 0.34676759E-01 0.20470685E+03</pdfrwt>
<pdfrwt beam="2">  1       -2 0.61655267E-02 0.20470685E+03</pdfrwt>
<totfact> 0.20495137E+04</totfact>
</mgrwt>
</event>
<event>
 4    1  0.1330040E-003  0.2941737E+03  0.7818608E-02  0.1088190E+00
         -2   -1    0    0    0  501 -0.00000000000E+00  0.00000000000E+00  0.49673314884E+01  0.49673321430E+01  0.25500000000E-02 0. -1.
          2   -1    0    0  501    0  0.00000000000E+00 -0.00000000000E+00 -0.43553652932E+04  0.43553652932E+04  0.25500000000E-02 0.  1.
    5000001    1    1    2    0    0 -0.10096971379E+03 -0.73569746321E+02 -0.23220474975E+04  0.23266802469E+04  0.77000000000E+02 0.  0.
   -5000001    1    1    2    0    0  0.10096971379E+03  0.73569746321E+02 -0.20283504642E+04  0.20336523784E+04  0.77000000000E+02 0.  0.
<mgrwt>
<rscale>  0 0.29417372E+03</rscale>
<asrwt>0</asrwt>
<pdfrwt beam="1">  1        2 0.62219259E+00 0.29417372E+03</pdfrwt>
<pdfrwt beam="2">  1       -2 0.70962162E-03 0.29417372E+03</pdfrwt>
<totfact> 0.14436940E+03</totfact>
</mgrwt>
</event>
<event>
 4    1  0.1330040E-003  0.8542868E+03  0.7818608E-02  0.9484601E-01
         -2   -1    0    0    0  501 -0.00000000000E+00  0.00000000000E+00  0.15768764988E+03  0.15768764990E+03  0.25500000000E-02 0. -1.
          2   -1    0    0  501    0  0.00000000000E+00 -0.00000000000E+00 -0.11570437127E+04  0.11570437127E+04  0.25500000000E-02 0.  1.
    5000001    1    1    2    0    0 -0.23854063983E+03  0.30144114278E+03 -0.23871245329E+03  0.45900003787E+03  0.77000000000E+02 0.  0.
   -5000001    1    1    2    0    0  0.23854063983E+03 -0.30144114278E+03 -0.76064360957E+03  0.85573132477E+03  0.77000000000E+02 0.  0.
<mgrwt>
<rscale>  0 0.85428685E+03</rscale>
<asrwt>0</asrwt>
<pdfrwt beam="1">  1        2 0.16529195E+00 0.85428685E+03</pdfrwt>
<pdfrwt beam="2">  1       -2 0.22526808E-01 0.85428685E+03</pdfrwt>
<totfact> 0.39168180E+02</totfact>
</mgrwt>
</event>
<event>
 4    1  0.1330040E-003  0.2681865E+03  0.7818608E-02  0.1102322E+00
          2   -1    0    0  501    0  0.00000000000E+00  0.00000000000E+00  0.46341520585E+03  0.46341520585E+03  0.25500000000E-02 0.  1.
         -2   -1    0    0    0  501 -0.00000000000E+00 -0.00000000000E+00 -0.38801044760E+02  0.38801044843E+02  0.25500000000E-02 0. -1.
    5000001    1    1    2    0    0 -0.10061494731E+03 -0.35778406596E+02  0.25999624092E+03  0.29142839136E+03  0.77000000000E+02 0.  0.
   -5000001    1    1    2    0    0  0.10061494731E+03  0.35778406596E+02  0.16461792017E+03  0.21078785933E+03  0.77000000000E+02 0.  0.
<mgrwt>
<rscale>  0 0.26818646E+03</rscale>
<asrwt>0</asrwt>
<pdfrwt beam="1">  1        2 0.66202167E-01 0.26818646E+03</pdfrwt>
<pdfrwt beam="2">  1       -2 0.55430068E-02 0.26818646E+03</pdfrwt>
<totfact> 0.12211850E+04</totfact>
</mgrwt>
</event>
<event>
 4    1  0.1330040E-003  0.2950653E+03  0.7818608E-02  0.1087734E+00
         -2   -1    0    0    0  501 -0.00000000000E+00  0.00000000000E+00  0.17151050953E+02  0.17151051143E+02  0.25500000000E-02 0. -1.
          2   -1    0    0  501    0  0.00000000000E+00 -0.00000000000E+00 -0.12690699237E+04  0.12690699237E+04  0.25500000000E-02 0.  1.
    5000001    1    1    2    0    0  0.11176850167E+03 -0.21978023321E+02 -0.39277163731E+03  0.41614155110E+03  0.77000000000E+02 0.  0.
   -5000001    1    1    2    0    0 -0.11176850167E+03  0.21978023321E+02 -0.85914723545E+03  0.87007942377E+03  0.77000000000E+02 0.  0.
<mgrwt>
<rscale>  0 0.29506530E+03</rscale>
<asrwt>0</asrwt>
<pdfrwt beam="1">  1        2 0.18129564E+00 0.29506530E+03</pdfrwt>
<pdfrwt beam="2">  1       -2 0.24501510E-02 0.29506530E+03</pdfrwt>
<totfact> 0.11787470E+04</totfact>
</mgrwt>
</event>
<event>
 4    1  0.1330040E-003  0.5958868E+03  0.7818608E-02  0.9913977E-01
          2   -1    0    0  501    0  0.00000000000E+00  0.00000000000E+00  0.15058862091E+04  0.15058862091E+04  0.25500000000E-02 0.  1.
         -2   -1    0    0    0  501 -0.00000000000E+00 -0.00000000000E+00 -0.58948848832E+02  0.58948848887E+02  0.25500000000E-02 0. -1.
    5000001    1    1    2    0    0  0.25302929316E+03  0.79843858643E+02  0.10163939217E+04  0.10532732167E+04  0.77000000000E+02 0.  0.
   -5000001    1    1    2    0    0 -0.25302929316E+03 -0.79843858643E+02  0.43054343853E+03  0.51156184124E+03  0.77000000000E+02 0.  0.
<mgrwt>
<rscale>  0 0.59588676E+03</rscale>
<asrwt>0</asrwt>
<pdfrwt beam="1">  1        2 0.21512661E+00 0.59588676E+03</pdfrwt>
<pdfrwt beam="2">  1       -2 0.84212639E-02 0.59588676E+03</pdfrwt>
<totfact> 0.13344528E+03</totfact>
</mgrwt>
</event>
<event>
 4    1  0.1330040E-003  0.3193609E+03  0.7818608E-02  0.1075944E+00
          2   -1    0    0  501    0  0.00000000000E+00  0.00000000000E+00  0.17662016734E+04  0.17662016734E+04  0.25500000000E-02 0.  1.
         -2   -1    0    0    0  501 -0.00000000000E+00 -0.00000000000E+00 -0.14436543312E+02  0.14436543537E+02  0.25500000000E-02 0. -1.
    5000001    1    1    2    0    0 -0.61330790337E+02  0.72661699461E+02  0.30379851819E+03  0.32751141670E+03  0.77000000000E+02 0.  0.
   -5000001    1    1    2    0    0  0.61330790337E+02 -0.72661699461E+02  0.14479666119E+04  0.14531268002E+04  0.77000000000E+02 0.  0.
<mgrwt>
<rscale>  0 0.31936091E+03</rscale>
<asrwt>0</asrwt>
<pdfrwt beam="1">  1        2 0.25231439E+00 0.31936091E+03</pdfrwt>
<pdfrwt beam="2">  1       -2 0.20623645E-02 0.31936091E+03</pdfrwt>
<totfact> 0.85143073E+03</totfact>
</mgrwt>
</event>
<event>
 4    1  0.1330040E-003  0.1891793E+03  0.7818608E-02  0.1159204E+00
         -2   -1    0    0    0  501 -0.00000000000E+00  0.00000000000E+00  0.62074644572E+01  0.62074649810E+01  0.25500000000E-02 0. -1.
          2   -1    0    0  501    0  0.00000000000E+00 -0.00000000000E+00 -0.14413614000E+04  0.14413614000E+04  0.25500000000E-02 0.  1.
    5000001    1    1    2    0    0  0.10880197773E+01  0.49933058497E+02 -0.54246758905E+03  0.55017686182E+03  0.77000000000E+02 0.  0.
   -5000001    1    1    2    0    0 -0.10880197773E+01 -0.49933058497E+02 -0.89268634651E+03  0.89739200318E+03  0.77000000000E+02 0.  0.
<mgrwt>
<rscale>  0 0.18917928E+03</rscale>
<asrwt>0</asrwt>
<pdfrwt beam="1">  1        2 0.20590856E+00 0.18917928E+03</pdfrwt>
<pdfrwt beam="2">  1       -2 0.88678159E-03 0.18917928E+03</pdfrwt>
<totfact> 0.41354620E+04</totfact>
</mgrwt>
</event>
<event>
 4    1  0.1330040E-003  0.3155159E+03  0.7818608E-02  0.1077732E+00
          2   -1    0    0  501    0  0.00000000000E+00  0.00000000000E+00  0.27990796839E+03  0.27990796840E+03  0.25500000000E-02 0.  1.
         -2   -1    0    0    0  501 -0.00000000000E+00 -0.00000000000E+00 -0.88913381135E+02  0.88913381171E+02  0.25500000000E-02 0. -1.
    5000001    1    1    2    0    0 -0.95155258124E+02  0.11441046932E+02 -0.20063893290E+02  0.12456717271E+03  0.77000000000E+02 0.  0.
   -5000001    1    1    2    0    0  0.95155258124E+02 -0.11441046932E+02  0.21105848054E+03  0.24425417686E+03  0.77000000000E+02 0.  0.
<mgrwt>
<rscale>  0 0.31551586E+03</rscale>
<asrwt>0</asrwt>
<pdfrwt beam="1">  1        2 0.39986853E-01 0.31551586E+03</pdfrwt>
<pdfrwt beam="2">  1       -2 0.12701912E-01 0.31551586E+03</pdfrwt>
<totfact> 0.57558079E+03</totfact>
</mgrwt>
</event>
<event>
 4    1  0.1330040E-003  0.7580566E+03  0.7818608E-02  0.9622795E-01
         -2   -1    0    0    0  501 -0.00000000000E+00  0.00000000000E+00  0.16500612045E+03  0.16500612047E+03  0.25500000000E-02 0. -1.
          2   -1    0    0  501    0  0.00000000000E+00 -0.00000000000E+00 -0.87064915228E+03  0.87064915228E+03  0.25500000000E-02 0.  1.
    5000001    1    1    2    0    0 -0.32171394173E+03  0.17443769859E+03 -0.26854728197E+03  0.46040744308E+03  0.77000000000E+02 0.  0.
   -5000001    1    1    2    0    0  0.32171394173E+03 -0.17443769859E+03 -0.43709574986E+03  0.57524782967E+03  0.77000000000E+02 0.  0.
<mgrwt>
<rscale>  0 0.75805656E+03</rscale>
<asrwt>0</asrwt>
<pdfrwt beam="1">  1        2 0.12437845E+00 0.75805656E+03</pdfrwt>
<pdfrwt beam="2">  1       -2 0.23572303E-01 0.75805656E+03</pdfrwt>
<totfact> 0.54360926E+02</totfact>
</mgrwt>
</event>
<event>
 4    1  0.1330040E-003  0.3103735E+03  0.7818608E-02  0.1080167E+00
          2   -1    0    0  501    0  0.00000000000E+00  0.00000000000E+00  0.20352208114E+04  0.20352208114E+04  0.25500000000E-02 0.  1.
         -2   -1    0    0    0  501 -0.00000000000E+00 -0.00000000000E+00 -0.11833078251E+02  0.11833078525E+02  0.25500000000E-02 0. -1.
    5000001    1    1    2    0    0 -0.13114430869E+03 -0.25756474750E+01  0.80857278148E+03  0.82275415928E+03  0.77000000000E+02 0.  0.
   -5000001    1    1    2    0    0  0.13114430869E+03  0.25756474750E+01  0.12148149517E+04  0.12242997307E+04  0.77000000000E+02 0.  0.
<mgrwt>
<rscale>  0 0.31037350E+03</rscale>
<asrwt>0</asrwt>
<pdfrwt beam="1">  1        2 0.29074581E+00 0.31037350E+03</pdfrwt>
<pdfrwt beam="2">  1       -2 0.16904399E-02 0.31037350E+03</pdfrwt>
<totfact> 0.84198521E+03</totfact>
</mgrwt>
</event>
<event>
 4    1  0.1330040E-003  0.3705209E+03  0.7818608E-02  0.1054494E+00
         -2   -1    0    0    0  501 -0.00000000000E+00  0.00000000000E+00  0.29963765913E+02  0.29963766021E+02  0.25500000000E-02 0. -1.
          2   -1    0    0  501    0  0.00000000000E+00 -0.00000000000E+00 -0.11454311383E+04  0.11454311383E+04  0.25500000000E-02 0.  1.
    5000001    1    1    2    0    0 -0.17950832196E+02  0.16664609418E+03 -0.61261293242E+03  0.63977867896E+03  0.77000000000E+02 0.  0.
   -5000001    1    1    2    0    0  0.17950832196E+02 -0.16664609418E+03 -0.50285443999E+03  0.53561622539E+03  0.77000000000E+02 0.  0.
<mgrwt>
<rscale>  0 0.37052088E+03</rscale>
<asrwt>0</asrwt>
<pdfrwt beam="1">  1        2 0.16363299E+00 0.37052088E+03</pdfrwt>
<pdfrwt beam="2">  1       -2 0.42805387E-02 0.37052088E+03</pdfrwt>
<totfact> 0.59899873E+03</totfact>
</mgrwt>
</event>
<event>
 4    1  0.1330040E-003  0.2206327E+03  0.7818608E-02  0.1133412E+00
         -2   -1    0    0    0  501 -0.00000000000E+00  0.00000000000E+00  0.25415151874E+02  0.25415152001E+02  0.25500000000E-02 0. -1.
          2   -1    0    0  501    0  0.00000000000E+00 -0.00000000000E+00 -0.47883645750E+03  0.47883645751E+03  0.25500000000E-02 0.  1.
    5000001    1    1    2    0    0  0.59873505338E+02  0.26369390359E+02 -0.32790656486E+03  0.34312081934E+03  0.77000000000E+02 0.  0.
   -5000001    1    1    2    0    0 -0.59873505338E+02 -0.26369390359E+02 -0.12551474077E+03  0.16113079017E+03  0.77000000000E+02 0.  0.
<mgrwt>
<rscale>  0 0.22063274E+03</rscale>
<asrwt>0</asrwt>
<pdfrwt beam="1">  1        2 0.68405203E-01 0.22063274E+03</pdfrwt>
<pdfrwt beam="2">  1       -2 0.36307363E-02 0.22063274E+03</pdfrwt>
<totfact> 0.22066758E+04</totfact>
</mgrwt>
</event>
<event>
 4    1  0.1330040E-003  0.1930960E+03  0.7818608E-02  0.1155698E+00
          2   -1    0    0  501    0  0.00000000000E+00  0.00000000000E+00  0.81018282051E+03  0.81018282051E+03  0.25500000000E-02 0.  1.
         -2   -1    0    0    0  501 -0.00000000000E+00 -0.00000000000E+00 -0.11505447092E+02  0.11505447375E+02  0.25500000000E-02 0. -1.
    5000001    1    1    2    0    0  0.86476131105E+01 -0.50672473160E+02  0.51587856819E+03  0.52412038490E+03  0.77000000000E+02 0.  0.
   -5000001    1    1    2    0    0 -0.86476131105E+01  0.50672473160E+02  0.28279880523E+03  0.29756788299E+03  0.77000000000E+02 0.  0.
<mgrwt>
<rscale>  0 0.19309599E+03</rscale>
<asrwt>0</asrwt>
<pdfrwt beam="1">  1        2 0.11574041E+00 0.19309599E+03</pdfrwt>
<pdfrwt beam="2">  1       -2 0.16436352E-02 0.19309599E+03</pdfrwt>
<totfact> 0.38337022E+04</totfact>
</mgrwt>
</event>
<event>
 4    1  0.1330040E-003  0.8662911E+03  0.7818608E-02  0.9468729E-01
          2   -1    0    0  501    0  0.00000000000E+00  0.00000000000E+00  0.19503066921E+04  0.19503066921E+04  0.25500000000E-02 0.  1.
         -2   -1    0    0    0  501 -0.00000000000E+00 -0.00000000000E+00 -0.96197722690E+02  0.96197722724E+02  0.25500000000E-02 0. -1.
    5000001    1    1    2    0    0  0.17014069740E+03  0.38577269024E+03  0.77919100213E+03  0.88928962844E+03  0.77000000000E+02 0.  0.
   -5000001    1    1    2    0    0 -0.17014069740E+03 -0.38577269024E+03  0.10749179673E+04  0.11572147864E+04  0.77000000000E+02 0.  0.
<mgrwt>
<rscale>  0 0.86629109E+03</rscale>
<asrwt>0</asrwt>
<pdfrwt beam="1">  1        2 0.27861524E+00 0.86629109E+03</pdfrwt>
<pdfrwt beam="2">  1       -2 0.13742532E-01 0.86629109E+03</pdfrwt>
<totfact> 0.34934717E+02</totfact>
</mgrwt>
</event>
<event>
 4    1  0.1330040E-003  0.2973021E+03  0.7818608E-02  0.1086597E+00
          2   -1    0    0  501    0  0.00000000000E+00  0.00000000000E+00  0.67442262860E+03  0.67442262860E+03  0.25500000000E-02 0.  1.
         -2   -1    0    0    0  501 -0.00000000000E+00 -0.00000000000E+00 -0.32764530314E+02  0.32764530413E+02  0.25500000000E-02 0. -1.
    5000001    1    1    2    0    0 -0.10891474871E+03  0.61685384946E+02  0.26760653164E+03  0.30530274315E+03  0.77000000000E+02 0.  0.
   -5000001    1    1    2    0    0  0.10891474871E+03 -0.61685384946E+02  0.37405156665E+03  0.40188441587E+03  0.77000000000E+02 0.  0.
<mgrwt>
<rscale>  0 0.29730214E+03</rscale>
<asrwt>0</asrwt>
<pdfrwt beam="1">  1        2 0.96346093E-01 0.29730214E+03</pdfrwt>
<pdfrwt beam="2">  1       -2 0.46806471E-02 0.29730214E+03</pdfrwt>
<totfact> 0.10379779E+04</totfact>
</mgrwt>
</event>
<event>
 4    1  0.1330040E-003  0.2314533E+03  0.7818608E-02  0.1125621E+00
         -2   -1    0    0    0  501 -0.00000000000E+00  0.00000000000E+00  0.43489303940E+02  0.43489304014E+02  0.25500000000E-02 0. -1.
          2   -1    0    0  501    0  0.00000000000E+00 -0.00000000000E+00 -0.30795284681E+03  0.30795284682E+03  0.25500000000E-02 0.  1.
    5000001    1    1    2    0    0  0.69814768880E+02  0.47397106071E+02 -0.16035597332E+03  0.19688480337E+03  0.77000000000E+02 0.  0.
   -5000001    1    1    2    0    0 -0.69814768880E+02 -0.47397106071E+02 -0.10410756954E+03  0.15455734746E+03  0.77000000000E+02 0.  0.
<mgrwt>
<rscale>  0 0.23145328E+03</rscale>
<asrwt>0</asrwt>
<pdfrwt beam="1">  1        2 0.43993263E-01 0.23145328E+03</pdfrwt>
<pdfrwt beam="2">  1       -2 0.62127579E-02 0.23145328E+03</pdfrwt>
<totfact> 0.15815669E+04</totfact>
</mgrwt>
</event>
<event>
 4    1  0.1330040E-003  0.1856039E+03  0.7818608E-02  0.1162487E+00
          2   -1    0    0  501    0  0.00000000000E+00  0.00000000000E+00  0.66383175738E+03  0.66383175738E+03  0.25500000000E-02 0.  1.
         -2   -1    0    0    0  501 -0.00000000000E+00 -0.00000000000E+00 -0.12973465245E+02  0.12973465496E+02  0.25500000000E-02 0. -1.
    5000001    1    1    2    0    0  0.52903395993E+01 -0.51524986404E+02  0.32316243269E+03  0.33622279789E+03  0.77000000000E+02 0.  0.
   -5000001    1    1    2    0    0 -0.52903395993E+01  0.51524986404E+02  0.32769585944E+03  0.34058242499E+03  0.77000000000E+02 0.  0.
<mgrwt>
<rscale>  0 0.18560386E+03</rscale>
<asrwt>0</asrwt>
<pdfrwt beam="1">  1        2 0.94833134E-01 0.18560386E+03</pdfrwt>
<pdfrwt beam="2">  1       -2 0.18533517E-02 0.18560386E+03</pdfrwt>
<totfact> 0.40675545E+04</totfact>
</mgrwt>
</event>
<event>
 4    1  0.1330040E-003  0.2504442E+03  0.7818608E-02  0.1113024E+00
          2   -1    0    0  501    0  0.00000000000E+00  0.00000000000E+00  0.63129767036E+03  0.63129767036E+03  0.25500000000E-02 0.  1.
         -2   -1    0    0    0  501 -0.00000000000E+00 -0.00000000000E+00 -0.24838628057E+02  0.24838628188E+02  0.25500000000E-02 0. -1.
    5000001    1    1    2    0    0 -0.65408359423E+02  0.76646233695E+01  0.11044814139E+03  0.14988259362E+03  0.77000000000E+02 0.  0.
   -5000001    1    1    2    0    0  0.65408359423E+02 -0.76646233695E+01  0.49601090091E+03  0.50625370493E+03  0.77000000000E+02 0.  0.
<mgrwt>
<rscale>  0 0.25044415E+03</rscale>
<asrwt>0</asrwt>
<pdfrwt beam="1">  1        2 0.90185376E-01 0.25044415E+03</pdfrwt>
<pdfrwt beam="2">  1       -2 0.35483757E-02 0.25044415E+03</pdfrwt>
<totfact> 0.16883724E+04</totfact>
</mgrwt>
</event>
<event>
 4    1  0.1330040E-003  0.6797457E+03  0.7818608E-02  0.9752511E-01
          2   -1    0    0  501    0  0.00000000000E+00  0.00000000000E+00  0.35328366630E+04  0.35328366630E+04  0.25500000000E-02 0. -1.
         -2   -1    0    0    0  501 -0.00000000000E+00 -0.00000000000E+00 -0.32697109227E+02  0.32697109327E+02  0.25500000000E-02 0.  1.
    5000001    1    1    2    0    0 -0.14720844843E+03 -0.28349668710E+03  0.22056601636E+04  0.22300014475E+04  0.77000000000E+02 0.  0.
   -5000001    1    1    2    0    0  0.14720844843E+03  0.28349668710E+03  0.12944793902E+04  0.13355323248E+04  0.77000000000E+02 0.  0.
<mgrwt>
<rscale>  0 0.67974568E+03</rscale>
<asrwt>0</asrwt>
<pdfrwt beam="1">  1        2 0.50469077E+00 0.67974568E+03</pdfrwt>
<pdfrwt beam="2">  1       -2 0.46710173E-02 0.67974568E+03</pdfrwt>
<totfact> 0.28335251E+02</totfact>
</mgrwt>
</event>
<event>
 4    1  0.1330040E-003  0.1940859E+03  0.7818608E-02  0.1154827E+00
          2   -1    0    0  501    0  0.00000000000E+00  0.00000000000E+00  0.79745022033E+03  0.79745022033E+03  0.25500000000E-02 0.  1.
         -2   -1    0    0    0  501 -0.00000000000E+00 -0.00000000000E+00 -0.11809304773E+02  0.11809305048E+02  0.25500000000E-02 0. -1.
    5000001    1    1    2    0    0 -0.28762291630E+01  0.21136762652E+02  0.62246247850E+03  0.62756957588E+03  0.77000000000E+02 0.  0.
   -5000001    1    1    2    0    0  0.28762291630E+01 -0.21136762652E+02  0.16317843706E+03  0.18168994950E+03  0.77000000000E+02 0.  0.
<mgrwt>
<rscale>  0 0.19408589E+03</rscale>
<asrwt>0</asrwt>
<pdfrwt beam="1">  1        2 0.11392151E+00 0.19408589E+03</pdfrwt>
<pdfrwt beam="2">  1       -2 0.16870429E-02 0.19408589E+03</pdfrwt>
<totfact> 0.37649899E+04</totfact>
</mgrwt>
</event>
<event>
 4    1  0.1330040E-003  0.2208534E+03  0.7818608E-02  0.1133248E+00
          2   -1    0    0  501    0  0.00000000000E+00  0.00000000000E+00  0.12789546224E+03  0.12789546226E+03  0.25500000000E-02 0.  1.
         -2   -1    0    0    0  501 -0.00000000000E+00 -0.00000000000E+00 -0.95343963395E+02  0.95343963429E+02  0.25500000000E-02 0. -1.
    5000001    1    1    2    0    0  0.42491816238E+02 -0.66655845851E+02  0.12169343190E+02  0.11102094013E+03  0.77000000000E+02 0.  0.
   -5000001    1    1    2    0    0 -0.42491816238E+02  0.66655845851E+02  0.20382155654E+02  0.11221848556E+03  0.77000000000E+02 0.  0.
<mgrwt>
<rscale>  0 0.22085344E+03</rscale>
<asrwt>0</asrwt>
<pdfrwt beam="1">  1        2 0.18270780E-01 0.22085344E+03</pdfrwt>
<pdfrwt beam="2">  1       -2 0.13620566E-01 0.22085344E+03</pdfrwt>
<totfact> 0.12070088E+04</totfact>
</mgrwt>
</event>
<event>
 4    1  0.1330040E-003  0.2042899E+03  0.7818608E-02  0.1146169E+00
          2   -1    0    0  501    0  0.00000000000E+00  0.00000000000E+00  0.11191113014E+04  0.11191113014E+04  0.25500000000E-02 0.  1.
         -2   -1    0    0    0  501 -0.00000000000E+00 -0.00000000000E+00 -0.93231004414E+01  0.93231007901E+01  0.25500000000E-02 0. -1.
    5000001    1    1    2    0    0 -0.57630043007E+02 -0.24647652272E+02  0.68744645370E+03  0.69457926497E+03  0.77000000000E+02 0.  0.
   -5000001    1    1    2    0    0  0.57630043007E+02  0.24647652272E+02  0.42234174729E+03  0.43385513726E+03  0.77000000000E+02 0.  0.
<mgrwt>
<rscale>  0 0.20428987E+03</rscale>
<asrwt>0</asrwt>
<pdfrwt beam="1">  1        2 0.15987305E+00 0.20428987E+03</pdfrwt>
<pdfrwt beam="2">  1       -2 0.13318714E-02 0.20428987E+03</pdfrwt>
<totfact> 0.34119786E+04</totfact>
</mgrwt>
</event>
<event>
 4    1  0.1330040E-003  0.2069317E+03  0.7818608E-02  0.1144019E+00
          2   -1    0    0  501    0  0.00000000000E+00  0.00000000000E+00  0.72549038268E+03  0.72549038269E+03  0.25500000000E-02 0.  1.
         -2   -1    0    0    0  501 -0.00000000000E+00 -0.00000000000E+00 -0.14755780776E+02  0.14755780996E+02  0.25500000000E-02 0. -1.
    5000001    1    1    2    0    0 -0.39617615705E+02  0.16898037409E+02  0.54870690134E+03  0.55575476851E+03  0.77000000000E+02 0.  0.
   -5000001    1    1    2    0    0  0.39617615705E+02 -0.16898037409E+02  0.16202770057E+03  0.18449139518E+03  0.77000000000E+02 0.  0.
<mgrwt>
<rscale>  0 0.20693165E+03</rscale>
<asrwt>0</asrwt>
<pdfrwt beam="1">  1        2 0.10364149E+00 0.20693165E+03</pdfrwt>
<pdfrwt beam="2">  1       -2 0.21079685E-02 0.20693165E+03</pdfrwt>
<totfact> 0.30630216E+04</totfact>
</mgrwt>
</event>
<event>
 4    1  0.1330040E-003  0.2388439E+03  0.7818608E-02  0.1120565E+00
          2   -1    0    0  501    0  0.00000000000E+00  0.00000000000E+00  0.92708369536E+03  0.92708369536E+03  0.25500000000E-02 0.  1.
         -2   -1    0    0    0  501 -0.00000000000E+00 -0.00000000000E+00 -0.15383292449E+02  0.15383292660E+02  0.25500000000E-02 0. -1.
    5000001    1    1    2    0    0 -0.76957517056E+02 -0.45478382133E+02  0.38289197079E+03  0.40065696545E+03  0.77000000000E+02 0.  0.
   -5000001    1    1    2    0    0  0.76957517056E+02  0.45478382133E+02  0.52880843212E+03  0.54181002257E+03  0.77000000000E+02 0.  0.
<mgrwt>
<rscale>  0 0.23884388E+03</rscale>
<asrwt>0</asrwt>
<pdfrwt beam="1">  1        2 0.13244056E+00 0.23884388E+03</pdfrwt>
<pdfrwt beam="2">  1       -2 0.21976127E-02 0.23884388E+03</pdfrwt>
<totfact> 0.21435084E+04</totfact>
</mgrwt>
</event>
<event>
 4    1  0.1330040E-003  0.2191844E+03  0.7818608E-02  0.1134493E+00
         -2   -1    0    0    0  501 -0.00000000000E+00  0.00000000000E+00  0.10397690631E+02  0.10397690944E+02  0.25500000000E-02 0. -1.
          2   -1    0    0  501    0  0.00000000000E+00 -0.00000000000E+00 -0.11551074191E+04  0.11551074191E+04  0.25500000000E-02 0.  1.
    5000001    1    1    2    0    0 -0.12079272782E+02 -0.75737699762E+02 -0.49727841683E+03  0.50901564990E+03  0.77000000000E+02 0.  0.
   -5000001    1    1    2    0    0  0.12079272782E+02  0.75737699762E+02 -0.64743131164E+03  0.65648946015E+03  0.77000000000E+02 0.  0.
<mgrwt>
<rscale>  0 0.21918440E+03</rscale>
<asrwt>0</asrwt>
<pdfrwt beam="1">  1        2 0.16501526E+00 0.21918440E+03</pdfrwt>
<pdfrwt beam="2">  1       -2 0.14853851E-02 0.21918440E+03</pdfrwt>
<totfact> 0.27947641E+04</totfact>
</mgrwt>
</event>
<event>
 4    1  0.1330040E-003  0.1784119E+03  0.7818608E-02  0.1169349E+00
          2   -1    0    0  501    0  0.00000000000E+00  0.00000000000E+00  0.29224686213E+03  0.29224686214E+03  0.25500000000E-02 0.  1.
         -2   -1    0    0    0  501 -0.00000000000E+00 -0.00000000000E+00 -0.27229374918E+02  0.27229375037E+02  0.25500000000E-02 0. -1.
    5000001    1    1    2    0    0 -0.39511199183E+02 -0.18125936604E+02  0.15362153074E+03  0.17725196514E+03  0.77000000000E+02 0.  0.
   -5000001    1    1    2    0    0  0.39511199183E+02  0.18125936604E+02  0.11139595647E+03  0.14222427204E+03  0.77000000000E+02 0.  0.
<mgrwt>
<rscale>  0 0.17841188E+03</rscale>
<asrwt>0</asrwt>
<pdfrwt beam="1">  1        2 0.41749554E-01 0.17841188E+03</pdfrwt>
<pdfrwt beam="2">  1       -2 0.38899105E-02 0.17841188E+03</pdfrwt>
<totfact> 0.33270861E+04</totfact>
</mgrwt>
</event>
<event>
 4    1  0.1330040E-003  0.3385505E+03  0.7818608E-02  0.1067415E+00
         -2   -1    0    0    0  501 -0.00000000000E+00  0.00000000000E+00  0.11310475876E+02  0.11310476164E+02  0.25500000000E-02 0. -1.
          2   -1    0    0  501    0  0.00000000000E+00 -0.00000000000E+00 -0.25334135689E+04  0.25334135689E+04  0.25500000000E-02 0.  1.
    5000001    1    1    2    0    0 -0.93020386784E+02 -0.77271865646E+02 -0.19375965758E+04  0.19428930038E+04  0.77000000000E+02 0.  0.
   -5000001    1    1    2    0    0  0.93020386784E+02  0.77271865646E+02 -0.58450651717E+03  0.60183104123E+03  0.77000000000E+02 0.  0.
<mgrwt>
<rscale>  0 0.33855052E+03</rscale>
<asrwt>0</asrwt>
<pdfrwt beam="1">  1        2 0.36191586E+00 0.33855052E+03</pdfrwt>
<pdfrwt beam="2">  1       -2 0.16157839E-02 0.33855052E+03</pdfrwt>
<totfact> 0.50976113E+03</totfact>
</mgrwt>
</event>
<event>
 4    1  0.1330040E-003  0.1699707E+03  0.7818608E-02  0.1177878E+00
          2   -1    0    0  501    0  0.00000000000E+00  0.00000000000E+00  0.25296747843E+02  0.25296747971E+02  0.25500000000E-02 0.  1.
         -2   -1    0    0    0  501 -0.00000000000E+00 -0.00000000000E+00 -0.28551125106E+03  0.28551125107E+03  0.25500000000E-02 0. -1.
    5000001    1    1    2    0    0  0.19602320711E+02  0.38036204026E+01 -0.18480610467E+03  0.20119894341E+03  0.77000000000E+02 0.  0.
   -5000001    1    1    2    0    0 -0.19602320711E+02 -0.38036204026E+01 -0.75408398547E+02  0.10960905563E+03  0.77000000000E+02 0.  0.
<mgrwt>
<rscale>  0 0.16997066E+03</rscale>
<asrwt>0</asrwt>
<pdfrwt beam="1">  1        2 0.36138213E-02 0.16997066E+03</pdfrwt>
<pdfrwt beam="2">  1       -2 0.40787320E-01 0.16997066E+03</pdfrwt>
<totfact> 0.13299122E+04</totfact>
</mgrwt>
</event>
<event>
 4    1  0.1330040E-003  0.3676818E+03  0.7818608E-02  0.1055583E+00
          2   -1    0    0  501    0  0.00000000000E+00  0.00000000000E+00  0.85298761658E+02  0.85298761697E+02  0.25500000000E-02 0.  1.
         -2   -1    0    0    0  501 -0.00000000000E+00 -0.00000000000E+00 -0.39622466509E+03  0.39622466510E+03  0.25500000000E-02 0. -1.
    5000001    1    1    2    0    0  0.12271470552E+03 -0.58598967945E+02 -0.28654565065E+02  0.15887989833E+03  0.77000000000E+02 0.  0.
   -5000001    1    1    2    0    0 -0.12271470552E+03  0.58598967945E+02 -0.28227133837E+03  0.32264352846E+03  0.77000000000E+02 0.  0.
<mgrwt>
<rscale>  0 0.36768178E+03</rscale>
<asrwt>0</asrwt>
<pdfrwt beam="1">  1        2 0.12185538E-01 0.36768178E+03</pdfrwt>
<pdfrwt beam="2">  1       -2 0.56603523E-01 0.36768178E+03</pdfrwt>
<totfact> 0.15062826E+03</totfact>
</mgrwt>
</event>
<event>
 4    1  0.1330040E-003  0.2396147E+03  0.7818608E-02  0.1120050E+00
          2   -1    0    0  501    0  0.00000000000E+00  0.00000000000E+00  0.66566281318E+03  0.66566281318E+03  0.25500000000E-02 0.  1.
         -2   -1    0    0    0  501 -0.00000000000E+00 -0.00000000000E+00 -0.21563172230E+02  0.21563172381E+02  0.25500000000E-02 0. -1.
    5000001    1    1    2    0    0 -0.54691274903E+02  0.73026647956E+02  0.29325842757E+03  0.31662838187E+03  0.77000000000E+02 0.  0.
   -5000001    1    1    2    0    0  0.54691274903E+02 -0.73026647956E+02  0.35084121337E+03  0.37059760369E+03  0.77000000000E+02 0.  0.
<mgrwt>
<rscale>  0 0.23961471E+03</rscale>
<asrwt>0</asrwt>
<pdfrwt beam="1">  1        2 0.95094694E-01 0.23961471E+03</pdfrwt>
<pdfrwt beam="2">  1       -2 0.30804530E-02 0.23961471E+03</pdfrwt>
<totfact> 0.19555783E+04</totfact>
</mgrwt>
</event>
<event>
 4    1  0.1330040E-003  0.2387983E+03  0.7818608E-02  0.1120596E+00
          2   -1    0    0  501    0  0.00000000000E+00  0.00000000000E+00  0.69174450010E+02  0.69174450057E+02  0.25500000000E-02 0.  1.
         -2   -1    0    0    0  501 -0.00000000000E+00 -0.00000000000E+00 -0.20608992226E+03  0.20608992227E+03  0.25500000000E-02 0. -1.
    5000001    1    1    2    0    0  0.83165456054E+02  0.37412649774E+02 -0.72273454240E+02  0.13953011013E+03  0.77000000000E+02 0.  0.
   -5000001    1    1    2    0    0 -0.83165456054E+02 -0.37412649774E+02 -0.64642018005E+02  0.13573426220E+03  0.77000000000E+02 0.  0.
<mgrwt>
<rscale>  0 0.23879830E+03</rscale>
<asrwt>0</asrwt>
<pdfrwt beam="1">  1        2 0.98820644E-02 0.23879830E+03</pdfrwt>
<pdfrwt beam="2">  1       -2 0.29441417E-01 0.23879830E+03</pdfrwt>
<totfact> 0.67732986E+03</totfact>
</mgrwt>
</event>
<event>
 4    1  0.1330040E-003  0.1774864E+03  0.7818608E-02  0.1170258E+00
          2   -1    0    0  501    0  0.00000000000E+00  0.00000000000E+00  0.31713073023E+04  0.31713073023E+04  0.25500000000E-02 0.  1.
         -2   -1    0    0    0  501 -0.00000000000E+00 -0.00000000000E+00 -0.24833148459E+01  0.24833161551E+01  0.25500000000E-02 0. -1.
    5000001    1    1    2    0    0  0.15088469341E+02  0.34017172997E+02  0.20081508957E+04  0.20099711067E+04  0.77000000000E+02 0.  0.
   -5000001    1    1    2    0    0 -0.15088469341E+02 -0.34017172997E+02  0.11606730918E+04  0.11638195117E+04  0.77000000000E+02 0.  0.
<mgrwt>
<rscale>  0 0.17748641E+03</rscale>
<asrwt>0</asrwt>
<pdfrwt beam="1">  1        2 0.45304306E+00 0.17748641E+03</pdfrwt>
<pdfrwt beam="2">  1       -2 0.35476002E-03 0.17748641E+03</pdfrwt>
<totfact> 0.21161622E+04</totfact>
</mgrwt>
</event>
<event>
 4    1  0.1330040E-003  0.2077796E+03  0.7818608E-02  0.1143336E+00
          2   -1    0    0  501    0  0.00000000000E+00  0.00000000000E+00  0.43502309657E+02  0.43502309732E+02  0.25500000000E-02 0.  1.
         -2   -1    0    0    0  501 -0.00000000000E+00 -0.00000000000E+00 -0.24810390986E+03  0.24810390988E+03  0.25500000000E-02 0. -1.
    5000001    1    1    2    0    0  0.19210075708E+02  0.63581224419E+02 -0.13215464325E+03  0.16674965919E+03  0.77000000000E+02 0.  0.
   -5000001    1    1    2    0    0 -0.19210075708E+02 -0.63581224419E+02 -0.72446956956E+02  0.12485656042E+03  0.77000000000E+02 0.  0.
<mgrwt>
<rscale>  0 0.20777962E+03</rscale>
<asrwt>0</asrwt>
<pdfrwt beam="1">  1        2 0.62146158E-02 0.20777962E+03</pdfrwt>
<pdfrwt beam="2">  1       -2 0.35443415E-01 0.20777962E+03</pdfrwt>
<totfact> 0.86126360E+03</totfact>
</mgrwt>
</event>
<event>
 4    1  0.1330040E-003  0.1864911E+03  0.7818608E-02  0.1161665E+00
          2   -1    0    0  501    0  0.00000000000E+00  0.00000000000E+00  0.21669666614E+03  0.21669666615E+03  0.25500000000E-02 0.  1.
         -2   -1    0    0    0  501 -0.00000000000E+00 -0.00000000000E+00 -0.40123987248E+02  0.40123987329E+02  0.25500000000E-02 0. -1.
    5000001    1    1    2    0    0  0.20942832350E+02 -0.22315721631E+02  0.29389045504E+02  0.87916492505E+02  0.77000000000E+02 0.  0.
   -5000001    1    1    2    0    0 -0.20942832350E+02  0.22315721631E+02  0.14718363339E+03  0.16890416098E+03  0.77000000000E+02 0.  0.
<mgrwt>
<rscale>  0 0.18649112E+03</rscale>
<asrwt>0</asrwt>
<pdfrwt beam="1">  1        2 0.30956666E-01 0.18649112E+03</pdfrwt>
<pdfrwt beam="2">  1       -2 0.57319982E-02 0.18649112E+03</pdfrwt>
<totfact> 0.25711794E+04</totfact>
</mgrwt>
</event>
<event>
 4    1  0.1330040E-003  0.2322742E+03  0.7818608E-02  0.1125049E+00
         -2   -1    0    0    0  501 -0.00000000000E+00  0.00000000000E+00  0.17451438390E+02  0.17451438576E+02  0.25500000000E-02 0. -1.
          2   -1    0    0  501    0  0.00000000000E+00 -0.00000000000E+00 -0.77287751584E+03  0.77287751584E+03  0.25500000000E-02 0.  1.
    5000001    1    1    2    0    0 -0.28238991053E+02  0.82217856438E+02 -0.38202758886E+03  0.39928848616E+03  0.77000000000E+02 0.  0.
   -5000001    1    1    2    0    0  0.28238991053E+02 -0.82217856438E+02 -0.37339848859E+03  0.39104046826E+03  0.77000000000E+02 0.  0.
<mgrwt>
<rscale>  0 0.23227419E+03</rscale>
<asrwt>0</asrwt>
<pdfrwt beam="1">  1        2 0.11041105E+00 0.23227419E+03</pdfrwt>
<pdfrwt beam="2">  1       -2 0.24930631E-02 0.23227419E+03</pdfrwt>
<totfact> 0.22350696E+04</totfact>
</mgrwt>
</event>
<event>
 4    1  0.1330040E-003  0.1751379E+03  0.7818608E-02  0.1172593E+00
          2   -1    0    0  501    0  0.00000000000E+00  0.00000000000E+00  0.30778764319E+03  0.30778764320E+03  0.25500000000E-02 0.  1.
         -2   -1    0    0    0  501 -0.00000000000E+00 -0.00000000000E+00 -0.24914337881E+02  0.24914338011E+02  0.25500000000E-02 0. -1.
    5000001    1    1    2    0    0  0.39581577091E+02 -0.86693999589E+01  0.12268235295E+03  0.15040551674E+03  0.77000000000E+02 0.  0.
   -5000001    1    1    2    0    0 -0.39581577091E+02  0.86693999589E+01  0.16019095236E+03  0.18229646447E+03  0.77000000000E+02 0.  0.
<mgrwt>
<rscale>  0 0.17513795E+03</rscale>
<asrwt>0</asrwt>
<pdfrwt beam="1">  1        2 0.43969660E-01 0.17513795E+03</pdfrwt>
<pdfrwt beam="2">  1       -2 0.35591914E-02 0.17513795E+03</pdfrwt>
<totfact> 0.35872569E+04</totfact>
</mgrwt>
</event>
<event>
 4    1  0.1330040E-003  0.3460082E+03  0.7818608E-02  0.1064265E+00
          2   -1    0    0  501    0  0.00000000000E+00  0.00000000000E+00  0.22661526683E+03  0.22661526684E+03  0.25500000000E-02 0.  1.
         -2   -1    0    0    0  501 -0.00000000000E+00 -0.00000000000E+00 -0.13207595238E+03  0.13207595240E+03  0.25500000000E-02 0. -1.
    5000001    1    1    2    0    0 -0.13299957896E+03  0.30091387182E+02 -0.28958318789E+02  0.15925439967E+03  0.77000000000E+02 0.  0.
   -5000001    1    1    2    0    0  0.13299957896E+03 -0.30091387182E+02  0.12349763324E+03  0.19943681958E+03  0.77000000000E+02 0.  0.
<mgrwt>
<rscale>  0 0.34600825E+03</rscale>
<asrwt>0</asrwt>
<pdfrwt beam="1">  1        2 0.32373609E-01 0.34600825E+03</pdfrwt>
<pdfrwt beam="2">  1       -2 0.18867994E-01 0.34600825E+03</pdfrwt>
<totfact> 0.37582724E+03</totfact>
</mgrwt>
</event>
<event>
 4    1  0.1330040E-003  0.2628899E+03  0.7818608E-02  0.1105419E+00
          2   -1    0    0  501    0  0.00000000000E+00  0.00000000000E+00  0.76126582728E+03  0.76126582728E+03  0.25500000000E-02 0.  1.
         -2   -1    0    0    0  501 -0.00000000000E+00 -0.00000000000E+00 -0.22696107478E+02  0.22696107622E+02  0.25500000000E-02 0. -1.
    5000001    1    1    2    0    0  0.10463414781E+03  0.36682327169E+01  0.42795030491E+03  0.44724962190E+03  0.77000000000E+02 0.  0.
   -5000001    1    1    2    0    0 -0.10463414781E+03 -0.36682327169E+01  0.31061941489E+03  0.33671231300E+03  0.77000000000E+02 0.  0.
<mgrwt>
<rscale>  0 0.26288987E+03</rscale>
<asrwt>0</asrwt>
<pdfrwt beam="1">  1        2 0.10875229E+00 0.26288987E+03</pdfrwt>
<pdfrwt beam="2">  1       -2 0.32423003E-02 0.26288987E+03</pdfrwt>
<totfact> 0.15519294E+04</totfact>
</mgrwt>
</event>
<event>
 4    1  0.1330040E-003  0.3047038E+03  0.7818608E-02  0.1082913E+00
          2   -1    0    0  501    0  0.00000000000E+00  0.00000000000E+00  0.24064860791E+03  0.24064860792E+03  0.25500000000E-02 0.  1.
         -2   -1    0    0    0  501 -0.00000000000E+00 -0.00000000000E+00 -0.96452235512E+02  0.96452235546E+02  0.25500000000E-02 0. -1.
    5000001    1    1    2    0    0 -0.24439713441E+02 -0.12155011657E+03  0.23743309203E+02  0.14786640986E+03  0.77000000000E+02 0.  0.
   -5000001    1    1    2    0    0  0.24439713441E+02  0.12155011657E+03  0.12045306319E+03  0.18923443361E+03  0.77000000000E+02 0.  0.
<mgrwt>
<rscale>  0 0.30470377E+03</rscale>
<asrwt>0</asrwt>
<pdfrwt beam="1">  1        2 0.34378372E-01 0.30470377E+03</pdfrwt>
<pdfrwt beam="2">  1       -2 0.13778891E-01 0.30470377E+03</pdfrwt>
<totfact> 0.59312864E+03</totfact>
</mgrwt>
</event>
<event>
 4    1  0.1330040E-003  0.1873418E+03  0.7818608E-02  0.1160881E+00
         -2   -1    0    0    0  501 -0.00000000000E+00  0.00000000000E+00  0.11370738912E+02  0.11370739198E+02  0.25500000000E-02 0. -1.
          2   -1    0    0  501    0  0.00000000000E+00 -0.00000000000E+00 -0.77165051407E+03  0.77165051408E+03  0.25500000000E-02 0.  1.
    5000001    1    1    2    0    0 -0.35544740987E+01 -0.46821721017E+02 -0.48590450408E+03  0.49420349546E+03  0.77000000000E+02 0.  0.
   -5000001    1    1    2    0    0  0.35544740987E+01  0.46821721017E+02 -0.27437527108E+03  0.28881775781E+03  0.77000000000E+02 0.  0.
<mgrwt>
<rscale>  0 0.18734179E+03</rscale>
<asrwt>0</asrwt>
<pdfrwt beam="1">  1        2 0.11023575E+00 0.18734179E+03</pdfrwt>
<pdfrwt beam="2">  1       -2 0.16243918E-02 0.18734179E+03</pdfrwt>
<totfact> 0.41283830E+04</totfact>
</mgrwt>
</event>
<event>
 4    1  0.1330040E-003  0.2293454E+03  0.7818608E-02  0.1127101E+00
         -2   -1    0    0    0  501 -0.00000000000E+00  0.00000000000E+00  0.42723223198E+03  0.42723223199E+03  0.25500000000E-02 0. -1.
          2   -1    0    0  501    0  0.00000000000E+00 -0.00000000000E+00 -0.30779105280E+02  0.30779105386E+02  0.25500000000E-02 0.  1.
    5000001    1    1    2    0    0  0.77479160038E+02  0.87139130735E+01  0.26570969069E+03  0.28741884463E+03  0.77000000000E+02 0.  0.
   -5000001    1    1    2    0    0 -0.77479160038E+02 -0.87139130735E+01  0.13074343601E+03  0.17059249275E+03  0.77000000000E+02 0.  0.
<mgrwt>
<rscale>  0 0.22934538E+03</rscale>
<asrwt>0</asrwt>
<pdfrwt beam="1">  1        2 0.43970153E-02 0.22934538E+03</pdfrwt>
<pdfrwt beam="2">  1       -2 0.61033173E-01 0.22934538E+03</pdfrwt>
<totfact> 0.46940748E+03</totfact>
</mgrwt>
</event>
<event>
 4    1  0.1330040E-003  0.3547809E+03  0.7818608E-02  0.1060670E+00
         -2   -1    0    0    0  501 -0.00000000000E+00  0.00000000000E+00  0.17404958870E+04  0.17404958870E+04  0.25500000000E-02 0. -1.
          2   -1    0    0  501    0  0.00000000000E+00 -0.00000000000E+00 -0.18079546232E+02  0.18079546412E+02  0.25500000000E-02 0.  1.
    5000001    1    1    2    0    0 -0.14464264095E+03  0.39027229730E+02  0.58550364458E+03  0.60925211206E+03  0.77000000000E+02 0.  0.
   -5000001    1    1    2    0    0  0.14464264095E+03 -0.39027229730E+02  0.11369126961E+04  0.11493233213E+04  0.77000000000E+02 0.  0.
<mgrwt>
<rscale>  0 0.35478092E+03</rscale>
<asrwt>0</asrwt>
<pdfrwt beam="1">  1        2 0.25827951E-02 0.35478092E+03</pdfrwt>
<pdfrwt beam="2">  1       -2 0.24864201E+00 0.35478092E+03</pdfrwt>
<totfact> 0.28093366E+02</totfact>
</mgrwt>
</event>
<event>
 4    1  0.1330040E-003  0.2172673E+03  0.7818608E-02  0.1135937E+00
          2   -1    0    0  501    0  0.00000000000E+00  0.00000000000E+00  0.37971479115E+04  0.37971479115E+04  0.25500000000E-02 0.  1.
         -2   -1    0    0    0  501 -0.00000000000E+00 -0.00000000000E+00 -0.31079309043E+01  0.31079319504E+01  0.25500000000E-02 0. -1.
    5000001    1    1    2    0    0 -0.26862194991E+02  0.70944086553E+02  0.20867279400E+04  0.20895255769E+04  0.77000000000E+02 0.  0.
   -5000001    1    1    2    0    0  0.26862194991E+02 -0.70944086553E+02  0.17073120406E+04  0.17107302666E+04  0.77000000000E+02 0.  0.
<mgrwt>
<rscale>  0 0.21726735E+03</rscale>
<asrwt>0</asrwt>
<pdfrwt beam="1">  1        2 0.54245082E+00 0.21726735E+03</pdfrwt>
<pdfrwt beam="2">  1       -2 0.44398929E-03 0.21726735E+03</pdfrwt>
<totfact> 0.67421774E+03</totfact>
</mgrwt>
</event>
<event>
 4    1  0.1330040E-003  0.1752733E+03  0.7818608E-02  0.1172458E+00
          2   -1    0    0  501    0  0.00000000000E+00  0.00000000000E+00  0.25462316092E+04  0.25462316092E+04  0.25500000000E-02 0.  1.
         -2   -1    0    0    0  501 -0.00000000000E+00 -0.00000000000E+00 -0.30162947066E+01  0.30162957845E+01  0.25500000000E-02 0. -1.
    5000001    1    1    2    0    0  0.35134986009E+02 -0.17990951637E+02  0.10695268078E+04  0.10730213111E+04  0.77000000000E+02 0.  0.
   -5000001    1    1    2    0    0 -0.35134986009E+02  0.17990951637E+02  0.14736885067E+04  0.14762265938E+04  0.77000000000E+02 0.  0.
<mgrwt>
<rscale>  0 0.17527334E+03</rscale>
<asrwt>0</asrwt>
<pdfrwt beam="1">  1        2 0.36374573E+00 0.17527334E+03</pdfrwt>
<pdfrwt beam="2">  1       -2 0.43090127E-03 0.17527334E+03</pdfrwt>
<totfact> 0.33563506E+04</totfact>
</mgrwt>
</event>
<event>
 4    1  0.1330040E-003  0.4711168E+03  0.7818608E-02  0.1021605E+00
          2   -1    0    0  501    0  0.00000000000E+00  0.00000000000E+00  0.40817116811E+03  0.40817116812E+03  0.25500000000E-02 0.  1.
         -2   -1    0    0    0  501 -0.00000000000E+00 -0.00000000000E+00 -0.13594236466E+03  0.13594236469E+03  0.25500000000E-02 0. -1.
    5000001    1    1    2    0    0 -0.19875726006E+03 -0.81284993501E+02  0.20392304863E+03  0.30598252950E+03  0.77000000000E+02 0.  0.
   -5000001    1    1    2    0    0  0.19875726006E+03  0.81284993501E+02  0.68305754812E+02  0.23813100330E+03  0.77000000000E+02 0.  0.
<mgrwt>
<rscale>  0 0.47111677E+03</rscale>
<asrwt>0</asrwt>
<pdfrwt beam="1">  1        2 0.58310168E-01 0.47111677E+03</pdfrwt>
<pdfrwt beam="2">  1       -2 0.19420338E-01 0.47111677E+03</pdfrwt>
<totfact> 0.18875532E+03</totfact>
</mgrwt>
</event>
<event>
 4    1  0.1330040E-003  0.1746660E+03  0.7818608E-02  0.1173067E+00
         -2   -1    0    0    0  501 -0.00000000000E+00  0.00000000000E+00  0.23218316244E+03  0.23218316245E+03  0.25500000000E-02 0. -1.
          2   -1    0    0  501    0  0.00000000000E+00 -0.00000000000E+00 -0.32849311494E+02  0.32849311593E+02  0.25500000000E-02 0.  1.
    5000001    1    1    2    0    0  0.31679060389E+02  0.20364867451E+02  0.74287117327E+02  0.11342780300E+03  0.77000000000E+02 0.  0.
   -5000001    1    1    2    0    0 -0.31679060389E+02 -0.20364867451E+02  0.12504673362E+03  0.15160467104E+03  0.77000000000E+02 0.  0.
<mgrwt>
<rscale>  0 0.17466605E+03</rscale>
<asrwt>0</asrwt>
<pdfrwt beam="1">  1        2 0.46927585E-02 0.17466605E+03</pdfrwt>
<pdfrwt beam="2">  1       -2 0.33169025E-01 0.17466605E+03</pdfrwt>
<totfact> 0.13869299E+04</totfact>
</mgrwt>
</event>
<event>
 4    1  0.1330040E-003  0.2363507E+03  0.7818608E-02  0.1122248E+00
          2   -1    0    0  501    0  0.00000000000E+00  0.00000000000E+00  0.56498760725E+03  0.56498760726E+03  0.25500000000E-02 0.  1.
         -2   -1    0    0    0  501 -0.00000000000E+00 -0.00000000000E+00 -0.24718097723E+02  0.24718097854E+02  0.25500000000E-02 0. -1.
    5000001    1    1    2    0    0 -0.64698577535E+02  0.60982217328E+02  0.29876610476E+03  0.32108397985E+03  0.77000000000E+02 0.  0.
   -5000001    1    1    2    0    0  0.64698577535E+02 -0.60982217328E+02  0.24150340477E+03  0.26862172526E+03  0.77000000000E+02 0.  0.
<mgrwt>
<rscale>  0 0.23635075E+03</rscale>
<asrwt>0</asrwt>
<pdfrwt beam="1">  1        2 0.80712504E-01 0.23635075E+03</pdfrwt>
<pdfrwt beam="2">  1       -2 0.35311573E-02 0.23635075E+03</pdfrwt>
<totfact> 0.19233542E+04</totfact>
</mgrwt>
</event>
<event>
 4    1  0.1330040E-003  0.2523725E+03  0.7818608E-02  0.1111815E+00
         -2   -1    0    0    0  501 -0.00000000000E+00  0.00000000000E+00  0.15217470769E+02  0.15217470982E+02  0.25500000000E-02 0.  1.
          2   -1    0    0  501    0  0.00000000000E+00 -0.00000000000E+00 -0.10463608223E+04  0.10463608223E+04  0.25500000000E-02 0. -1.
    5000001    1    1    2    0    0  0.59249478790E+02 -0.45835744986E+02 -0.23710485685E+03  0.26030583820E+03  0.77000000000E+02 0.  0.
   -5000001    1    1    2    0    0 -0.59249478790E+02  0.45835744986E+02 -0.79403849469E+03  0.80127245510E+03  0.77000000000E+02 0.  0.
<mgrwt>
<rscale>  0 0.25237247E+03</rscale>
<asrwt>0</asrwt>
<pdfrwt beam="1">  1        2 0.14948007E+00 0.25237247E+03</pdfrwt>
<pdfrwt beam="2">  1       -2 0.21739251E-02 0.25237247E+03</pdfrwt>
<totfact> 0.18558587E+04</totfact>
</mgrwt>
</event>
<event>
 4    1  0.1330040E-003  0.1606692E+03  0.7818608E-02  0.1187943E+00
         -2   -1    0    0    0  501 -0.00000000000E+00  0.00000000000E+00  0.19117120883E+02  0.19117121053E+02  0.25500000000E-02 0. -1.
          2   -1    0    0  501    0  0.00000000000E+00 -0.00000000000E+00 -0.33758485345E+03  0.33758485346E+03  0.25500000000E-02 0.  1.
    5000001    1    1    2    0    0  0.22868359252E+01 -0.11215105307E+02 -0.20328160980E+03  0.21767733251E+03  0.77000000000E+02 0.  0.
   -5000001    1    1    2    0    0 -0.22868359252E+01  0.11215105307E+02 -0.11518612276E+03  0.13902464200E+03  0.77000000000E+02 0.  0.
<mgrwt>
<rscale>  0 0.16066923E+03</rscale>
<asrwt>0</asrwt>
<pdfrwt beam="1">  1        2 0.48226404E-01 0.16066923E+03</pdfrwt>
<pdfrwt beam="2">  1       -2 0.27310175E-02 0.16066923E+03</pdfrwt>
<totfact> 0.47676099E+04</totfact>
</mgrwt>
</event>
<event>
 4    1  0.1330040E-003  0.2581384E+03  0.7818608E-02  0.1108267E+00
          2   -1    0    0  501    0  0.00000000000E+00  0.00000000000E+00  0.11572326734E+04  0.11572326734E+04  0.25500000000E-02 0.  1.
         -2   -1    0    0    0  501 -0.00000000000E+00 -0.00000000000E+00 -0.14395430559E+02  0.14395430784E+02  0.25500000000E-02 0. -1.
    5000001    1    1    2    0    0  0.48344935626E+02  0.26498088580E+02  0.17339039776E+03  0.19756672679E+03  0.77000000000E+02 0.  0.
   -5000001    1    1    2    0    0 -0.48344935626E+02 -0.26498088580E+02  0.96944684504E+03  0.97406137736E+03  0.77000000000E+02 0.  0.
<mgrwt>
<rscale>  0 0.25813843E+03</rscale>
<asrwt>0</asrwt>
<pdfrwt beam="1">  1        2 0.16531901E+00 0.25813843E+03</pdfrwt>
<pdfrwt beam="2">  1       -2 0.20564894E-02 0.25813843E+03</pdfrwt>
<totfact> 0.17464704E+04</totfact>
</mgrwt>
</event>
<event>
 4    1  0.1330040E-003  0.2668602E+03  0.7818608E-02  0.1103090E+00
         -2   -1    0    0    0  501 -0.00000000000E+00  0.00000000000E+00  0.48439642923E+02  0.48439642990E+02  0.25500000000E-02 0. -1.
          2   -1    0    0  501    0  0.00000000000E+00 -0.00000000000E+00 -0.36754188553E+03  0.36754188554E+03  0.25500000000E-02 0.  1.
    5000001    1    1    2    0    0  0.18166600156E+02 -0.84418519128E+02 -0.26316245072E+03  0.28747171548E+03  0.77000000000E+02 0.  0.
   -5000001    1    1    2    0    0 -0.18166600156E+02  0.84418519128E+02 -0.55939791888E+02  0.12850981305E+03  0.77000000000E+02 0.  0.
<mgrwt>
<rscale>  0 0.26686025E+03</rscale>
<asrwt>0</asrwt>
<pdfrwt beam="1">  1        2 0.52505982E-01 0.26686025E+03</pdfrwt>
<pdfrwt beam="2">  1       -2 0.69199492E-02 0.26686025E+03</pdfrwt>
<totfact> 0.11162614E+04</totfact>
</mgrwt>
</event>
<event>
 4    1  0.1330040E-003  0.2218151E+03  0.7818608E-02  0.1132537E+00
          2   -1    0    0  501    0  0.00000000000E+00  0.00000000000E+00  0.15586068644E+04  0.15586068644E+04  0.25500000000E-02 0.  1.
         -2   -1    0    0    0  501 -0.00000000000E+00 -0.00000000000E+00 -0.78919762045E+01  0.78919766164E+01  0.25500000000E-02 0. -1.
    5000001    1    1    2    0    0 -0.35483721893E+02  0.37642365906E+02  0.34604611106E+03  0.35826380393E+03  0.77000000000E+02 0.  0.
   -5000001    1    1    2    0    0  0.35483721893E+02 -0.37642365906E+02  0.12046687772E+04  0.12082350371E+04  0.77000000000E+02 0.  0.
<mgrwt>
<rscale>  0 0.22181514E+03</rscale>
<asrwt>0</asrwt>
<pdfrwt beam="1">  1        2 0.22265833E+00 0.22181514E+03</pdfrwt>
<pdfrwt beam="2">  1       -2 0.11274241E-02 0.22181514E+03</pdfrwt>
<totfact> 0.25799879E+04</totfact>
</mgrwt>
</event>
<event>
 4    1  0.1330040E-003  0.1930218E+03  0.7818608E-02  0.1155764E+00
          2   -1    0    0  501    0  0.00000000000E+00  0.00000000000E+00  0.22005046907E+04  0.22005046907E+04  0.25500000000E-02 0.  1.
         -2   -1    0    0    0  501 -0.00000000000E+00 -0.00000000000E+00 -0.42328278512E+01  0.42328286193E+01  0.25500000000E-02 0. -1.
    5000001    1    1    2    0    0  0.45704645919E+02 -0.24186792621E+02  0.14027994248E+04  0.14058624192E+04  0.77000000000E+02 0.  0.
   -5000001    1    1    2    0    0 -0.45704645919E+02  0.24186792621E+02  0.79347243813E+03  0.79887510017E+03  0.77000000000E+02 0.  0.
<mgrwt>
<rscale>  0 0.19302185E+03</rscale>
<asrwt>0</asrwt>
<pdfrwt beam="1">  1        2 0.31435659E+00 0.19302185E+03</pdfrwt>
<pdfrwt beam="2">  1       -2 0.60469210E-03 0.19302185E+03</pdfrwt>
<totfact> 0.30649683E+04</totfact>
</mgrwt>
</event>
<event>
 4    1  0.1330040E-003  0.2299728E+03  0.7818608E-02  0.1126659E+00
          2   -1    0    0  501    0  0.00000000000E+00  0.00000000000E+00  0.13534341542E+02  0.13534341782E+02  0.25500000000E-02 0.  1.
         -2   -1    0    0    0  501 -0.00000000000E+00 -0.00000000000E+00 -0.97691249634E+03  0.97691249635E+03  0.25500000000E-02 0. -1.
    5000001    1    1    2    0    0  0.84842460454E+02  0.39277839630E+00 -0.43982880656E+03  0.45450717976E+03  0.77000000000E+02 0.  0.
   -5000001    1    1    2    0    0 -0.84842460454E+02 -0.39277839630E+00 -0.52354934824E+03  0.53593965837E+03  0.77000000000E+02 0.  0.
<mgrwt>
<rscale>  0 0.22997276E+03</rscale>
<asrwt>0</asrwt>
<pdfrwt beam="1">  1        2 0.19334780E-02 0.22997276E+03</pdfrwt>
<pdfrwt beam="2">  1       -2 0.13955888E+00 0.22997276E+03</pdfrwt>
<totfact> 0.21710432E+03</totfact>
</mgrwt>
</event>
<event>
 4    1  0.1330040E-003  0.3908272E+03  0.7818608E-02  0.1047003E+00
          2   -1    0    0  501    0  0.00000000000E+00  0.00000000000E+00  0.35267447619E+02  0.35267447711E+02  0.25500000000E-02 0.  1.
         -2   -1    0    0    0  501 -0.00000000000E+00 -0.00000000000E+00 -0.10827685791E+04  0.10827685791E+04  0.25500000000E-02 0. -1.
    5000001    1    1    2    0    0  0.24135351537E+02 -0.14098913912E+03 -0.83446207275E+03  0.85012728659E+03  0.77000000000E+02 0.  0.
   -5000001    1    1    2    0    0 -0.24135351537E+02  0.14098913912E+03 -0.21303905872E+03  0.26790874022E+03  0.77000000000E+02 0.  0.
<mgrwt>
<rscale>  0 0.39082725E+03</rscale>
<asrwt>0</asrwt>
<pdfrwt beam="1">  1        2 0.50382075E-02 0.39082725E+03</pdfrwt>
<pdfrwt beam="2">  1       -2 0.15468120E+00 0.39082725E+03</pdfrwt>
<totfact> 0.45780551E+02</totfact>
</mgrwt>
</event>
<event>
 4    1  0.1330040E-003  0.3372441E+03  0.7818608E-02  0.1067976E+00
          2   -1    0    0  501    0  0.00000000000E+00  0.00000000000E+00  0.20261203678E+02  0.20261203838E+02  0.25500000000E-02 0.  1.
         -2   -1    0    0    0  501 -0.00000000000E+00 -0.00000000000E+00 -0.14033421207E+04  0.14033421207E+04  0.25500000000E-02 0. -1.
    5000001    1    1    2    0    0  0.41570055259E+02 -0.10281069147E+03 -0.11180007592E+04  0.11261229086E+04  0.77000000000E+02 0.  0.
   -5000001    1    1    2    0    0 -0.41570055259E+02  0.10281069147E+03 -0.26508015777E+03  0.29748041586E+03  0.77000000000E+02 0.  0.
<mgrwt>
<rscale>  0 0.33724413E+03</rscale>
<asrwt>0</asrwt>
<pdfrwt beam="1">  1        2 0.28944586E-02 0.33724413E+03</pdfrwt>
<pdfrwt beam="2">  1       -2 0.20047738E+00 0.33724413E+03</pdfrwt>
<totfact> 0.47264615E+02</totfact>
</mgrwt>
</event>
<event>
 4    1  0.1330040E-003  0.2989232E+03  0.7818608E-02  0.1085780E+00
          2   -1    0    0  501    0  0.00000000000E+00  0.00000000000E+00  0.24106513810E+03  0.24106513811E+03  0.25500000000E-02 0.  1.
         -2   -1    0    0    0  501 -0.00000000000E+00 -0.00000000000E+00 -0.92666947759E+02  0.92666947794E+02  0.25500000000E-02 0. -1.
    5000001    1    1    2    0    0 -0.59014859274E+02 -0.11061730720E+03  0.10354337080E+03  0.17991434602E+03  0.77000000000E+02 0.  0.
   -5000001    1    1    2    0    0  0.59014859274E+02  0.11061730720E+03  0.44854819547E+02  0.15381773989E+03  0.77000000000E+02 0.  0.
<mgrwt>
<rscale>  0 0.29892320E+03</rscale>
<asrwt>0</asrwt>
<pdfrwt beam="1">  1        2 0.34437876E-01 0.29892320E+03</pdfrwt>
<pdfrwt beam="2">  1       -2 0.13238136E-01 0.29892320E+03</pdfrwt>
<totfact> 0.63172369E+03</totfact>
</mgrwt>
</event>
<event>
 4    1  0.1330040E-003  0.3376954E+03  0.7818608E-02  0.1067782E+00
         -2   -1    0    0    0  501 -0.00000000000E+00  0.00000000000E+00  0.30236726433E+02  0.30236726540E+02  0.25500000000E-02 0. -1.
          2   -1    0    0  501    0  0.00000000000E+00 -0.00000000000E+00 -0.94287825364E+03  0.94287825364E+03  0.25500000000E-02 0.  1.
    5000001    1    1    2    0    0  0.23613367113E+02  0.14492711517E+03 -0.54831183433E+03  0.57283184922E+03  0.77000000000E+02 0.  0.
   -5000001    1    1    2    0    0 -0.23613367113E+02 -0.14492711517E+03 -0.36432969288E+03  0.40028313096E+03  0.77000000000E+02 0.  0.
<mgrwt>
<rscale>  0 0.33769544E+03</rscale>
<asrwt>0</asrwt>
<pdfrwt beam="1">  1        2 0.13469688E+00 0.33769544E+03</pdfrwt>
<pdfrwt beam="2">  1       -2 0.43195329E-02 0.33769544E+03</pdfrwt>
<totfact> 0.77474963E+03</totfact>
</mgrwt>
</event>
<event>
 4    1  0.1330040E-003  0.1906169E+03  0.7818608E-02  0.1157906E+00
          2   -1    0    0  501    0  0.00000000000E+00  0.00000000000E+00  0.43187403138E+02  0.43187403213E+02  0.25500000000E-02 0.  1.
         -2   -1    0    0    0  501 -0.00000000000E+00 -0.00000000000E+00 -0.21033228282E+03  0.21033228283E+03  0.25500000000E-02 0. -1.
    5000001    1    1    2    0    0 -0.52100539406E+02  0.18551713482E+02 -0.96608623046E+02  0.13535456522E+03  0.77000000000E+02 0.  0.
   -5000001    1    1    2    0    0  0.52100539406E+02 -0.18551713482E+02 -0.70536256632E+02  0.11816512082E+03  0.77000000000E+02 0.  0.
<mgrwt>
<rscale>  0 0.19061695E+03</rscale>
<asrwt>0</asrwt>
<pdfrwt beam="1">  1        2 0.61696291E-02 0.19061695E+03</pdfrwt>
<pdfrwt beam="2">  1       -2 0.30047468E-01 0.19061695E+03</pdfrwt>
<totfact> 0.11699413E+04</totfact>
</mgrwt>
</event>
<event>
 4    1  0.1330040E-003  0.3930931E+03  0.7818608E-02  0.1046198E+00
          2   -1    0    0  501    0  0.00000000000E+00  0.00000000000E+00  0.34321763558E+04  0.34321763558E+04  0.25500000000E-02 0.  1.
         -2   -1    0    0    0  501 -0.00000000000E+00 -0.00000000000E+00 -0.11255409329E+02  0.11255409618E+02  0.25500000000E-02 0. -1.
    5000001    1    1    2    0    0 -0.51085224501E+02 -0.96768119303E+02  0.44929391464E+03  0.46879397480E+03  0.77000000000E+02 0.  0.
   -5000001    1    1    2    0    0  0.51085224501E+02  0.96768119303E+02  0.29716270319E+04  0.29746377907E+04  0.77000000000E+02 0.  0.
<mgrwt>
<rscale>  0 0.39309312E+03</rscale>
<asrwt>0</asrwt>
<pdfrwt beam="1">  1        2 0.49031175E+00 0.39309312E+03</pdfrwt>
<pdfrwt beam="2">  1       -2 0.16079129E-02 0.39309312E+03</pdfrwt>
<totfact> 0.16851478E+03</totfact>
</mgrwt>
</event>
<event>
 4    1  0.1330040E-003  0.2029182E+03  0.7818608E-02  0.1147300E+00
          2   -1    0    0  501    0  0.00000000000E+00  0.00000000000E+00  0.41332777680E+03  0.41332777680E+03  0.25500000000E-02 0.  1.
         -2   -1    0    0    0  501 -0.00000000000E+00 -0.00000000000E+00 -0.24905059035E+02  0.24905059165E+02  0.25500000000E-02 0. -1.
    5000001    1    1    2    0    0  0.43178067100E+02  0.39857129769E+02  0.12899070197E+03  0.16130882638E+03  0.77000000000E+02 0.  0.
   -5000001    1    1    2    0    0 -0.43178067100E+02 -0.39857129769E+02  0.25943201579E+03  0.27692400959E+03  0.77000000000E+02 0.  0.
<mgrwt>
<rscale>  0 0.20291824E+03</rscale>
<asrwt>0</asrwt>
<pdfrwt beam="1">  1        2 0.59046821E-01 0.20291824E+03</pdfrwt>
<pdfrwt beam="2">  1       -2 0.35578659E-02 0.20291824E+03</pdfrwt>
<totfact> 0.26516881E+04</totfact>
</mgrwt>
</event>
<event>
 4    1  0.1330040E-003  0.2504244E+03  0.7818608E-02  0.1113037E+00
         -2   -1    0    0    0  501 -0.00000000000E+00  0.00000000000E+00  0.18462413326E+02  0.18462413502E+02  0.25500000000E-02 0. -1.
          2   -1    0    0  501    0  0.00000000000E+00 -0.00000000000E+00 -0.84918995069E+03  0.84918995069E+03  0.25500000000E-02 0.  1.
    5000001    1    1    2    0    0 -0.21614661663E+02  0.95309354604E+02 -0.46412041085E+03  0.48050787969E+03  0.77000000000E+02 0.  0.
   -5000001    1    1    2    0    0  0.21614661663E+02 -0.95309354604E+02 -0.36660712651E+03  0.38714448451E+03  0.77000000000E+02 0.  0.
<mgrwt>
<rscale>  0 0.25042441E+03</rscale>
<asrwt>0</asrwt>
<pdfrwt beam="1">  1        2 0.12131283E+00 0.25042441E+03</pdfrwt>
<pdfrwt beam="2">  1       -2 0.26374882E-02 0.25042441E+03</pdfrwt>
<totfact> 0.18375692E+04</totfact>
</mgrwt>
</event>
<event>
 4    1  0.1330040E-003  0.2341842E+03  0.7818608E-02  0.1123729E+00
          2   -1    0    0  501    0  0.00000000000E+00  0.00000000000E+00  0.60304761185E+02  0.60304761239E+02  0.25500000000E-02 0.  1.
         -2   -1    0    0    0  501 -0.00000000000E+00 -0.00000000000E+00 -0.22735445706E+03  0.22735445708E+03  0.25500000000E-02 0. -1.
    5000001    1    1    2    0    0  0.36465373534E+02  0.40042881885E+02  0.20054533118E+01  0.94160382856E+02  0.77000000000E+02 0.  0.
   -5000001    1    1    2    0    0 -0.36465373534E+02 -0.40042881885E+02 -0.16905514919E+03  0.19349883546E+03  0.77000000000E+02 0.  0.
<mgrwt>
<rscale>  0 0.23418417E+03</rscale>
<asrwt>0</asrwt>
<pdfrwt beam="1">  1        2 0.86149660E-02 0.23418417E+03</pdfrwt>
<pdfrwt beam="2">  1       -2 0.32479208E-01 0.23418417E+03</pdfrwt>
<totfact> 0.67171723E+03</totfact>
</mgrwt>
</event>
<event>
 4    1  0.1330040E-003  0.3120622E+03  0.7818608E-02  0.1079362E+00
          2   -1    0    0  501    0  0.00000000000E+00  0.00000000000E+00  0.14983128871E+03  0.14983128873E+03  0.25500000000E-02 0.  1.
         -2   -1    0    0    0  501 -0.00000000000E+00 -0.00000000000E+00 -0.16248746642E+03  0.16248746644E+03  0.25500000000E-02 0. -1.
    5000001    1    1    2    0    0  0.55188776073E+02  0.69501341905E+02 -0.10907927531E+03  0.16032319181E+03  0.77000000000E+02 0.  0.
   -5000001    1    1    2    0    0 -0.55188776073E+02 -0.69501341905E+02  0.96423097596E+02  0.15199556336E+03  0.77000000000E+02 0.  0.
<mgrwt>
<rscale>  0 0.31206221E+03</rscale>
<asrwt>0</asrwt>
<pdfrwt beam="1">  1        2 0.21404470E-01 0.31206221E+03</pdfrwt>
<pdfrwt beam="2">  1       -2 0.23212495E-01 0.31206221E+03</pdfrwt>
<totfact> 0.41607941E+03</totfact>
</mgrwt>
</event>
<event>
 4    1  0.1330040E-003  0.2350012E+03  0.7818608E-02  0.1123168E+00
          2   -1    0    0  501    0  0.00000000000E+00  0.00000000000E+00  0.94348323900E+03  0.94348323900E+03  0.25500000000E-02 0.  1.
         -2   -1    0    0    0  501 -0.00000000000E+00 -0.00000000000E+00 -0.14633420923E+02  0.14633421145E+02  0.25500000000E-02 0. -1.
    5000001    1    1    2    0    0  0.66306134722E+02  0.48798428691E+02  0.59962133362E+03  0.61012501495E+03  0.77000000000E+02 0.  0.
   -5000001    1    1    2    0    0 -0.66306134722E+02 -0.48798428691E+02  0.32922848446E+03  0.34799164519E+03  0.77000000000E+02 0.  0.
<mgrwt>
<rscale>  0 0.23500117E+03</rscale>
<asrwt>0</asrwt>
<pdfrwt beam="1">  1        2 0.13478335E+00 0.23500117E+03</pdfrwt>
<pdfrwt beam="2">  1       -2 0.20904883E-02 0.23500117E+03</pdfrwt>
<totfact> 0.22524303E+04</totfact>
</mgrwt>
</event>
<event>
 4    1  0.1330040E-003  0.2059560E+03  0.7818608E-02  0.1144809E+00
         -2   -1    0    0    0  501 -0.00000000000E+00  0.00000000000E+00  0.49590387067E+02  0.49590387133E+02  0.25500000000E-02 0. -1.
          2   -1    0    0  501    0  0.00000000000E+00 -0.00000000000E+00 -0.21384118338E+03  0.21384118340E+03  0.25500000000E-02 0.  1.
    5000001    1    1    2    0    0 -0.54788445422E+02  0.24459905998E+02 -0.40180447076E+02  0.10556291527E+03  0.77000000000E+02 0.  0.
   -5000001    1    1    2    0    0  0.54788445422E+02 -0.24459905998E+02 -0.12407034924E+03  0.15786865526E+03  0.77000000000E+02 0.  0.
<mgrwt>
<rscale>  0 0.20595599E+03</rscale>
<asrwt>0</asrwt>
<pdfrwt beam="1">  1        2 0.30548740E-01 0.20595599E+03</pdfrwt>
<pdfrwt beam="2">  1       -2 0.70843411E-02 0.20595599E+03</pdfrwt>
<totfact> 0.19007088E+04</totfact>
</mgrwt>
</event>
<event>
 4    1  0.1330040E-003  0.1881508E+03  0.7818608E-02  0.1160140E+00
         -2   -1    0    0    0  501 -0.00000000000E+00  0.00000000000E+00  0.22926418960E+02  0.22926419102E+02  0.25500000000E-02 0. -1.
          2   -1    0    0  501    0  0.00000000000E+00 -0.00000000000E+00 -0.38602560795E+03  0.38602560796E+03  0.25500000000E-02 0.  1.
    5000001    1    1    2    0    0  0.13536804502E+02 -0.30045574989E+02 -0.88437032360E+02  0.12180349069E+03  0.77000000000E+02 0.  0.
   -5000001    1    1    2    0    0 -0.13536804502E+02  0.30045574989E+02 -0.27466215663E+03  0.28714853637E+03  0.77000000000E+02 0.  0.
<mgrwt>
<rscale>  0 0.18815084E+03</rscale>
<asrwt>0</asrwt>
<pdfrwt beam="1">  1        2 0.55146512E-01 0.18815084E+03</pdfrwt>
<pdfrwt beam="2">  1       -2 0.32752029E-02 0.18815084E+03</pdfrwt>
<totfact> 0.32074970E+04</totfact>
</mgrwt>
</event>
<event>
 4    1  0.1330040E-003  0.2372406E+03  0.7818608E-02  0.1121645E+00
          2   -1    0    0  501    0  0.00000000000E+00  0.00000000000E+00  0.14684362264E+04  0.14684362264E+04  0.25500000000E-02 0.  1.
         -2   -1    0    0    0  501 -0.00000000000E+00 -0.00000000000E+00 -0.95821510962E+01  0.95821514355E+01  0.25500000000E-02 0. -1.
    5000001    1    1    2    0    0  0.80363629209E+02  0.29976886798E+02  0.55489124492E+03  0.56673646462E+03  0.77000000000E+02 0.  0.
   -5000001    1    1    2    0    0 -0.80363629209E+02 -0.29976886798E+02  0.90396283040E+03  0.91128191324E+03  0.77000000000E+02 0.  0.
<mgrwt>
<rscale>  0 0.23724062E+03</rscale>
<asrwt>0</asrwt>
<pdfrwt beam="1">  1        2 0.20977647E+00 0.23724062E+03</pdfrwt>
<pdfrwt beam="2">  1       -2 0.13688797E-02 0.23724062E+03</pdfrwt>
<totfact> 0.21669137E+04</totfact>
</mgrwt>
</event>
<event>
 4    1  0.1330040E-003  0.2201838E+03  0.7818608E-02  0.1133746E+00
         -2   -1    0    0    0  501 -0.00000000000E+00  0.00000000000E+00  0.11463240977E+04  0.11463240978E+04  0.25500000000E-02 0. -1.
          2   -1    0    0  501    0  0.00000000000E+00 -0.00000000000E+00 -0.10573123357E+02  0.10573123664E+02  0.25500000000E-02 0.  1.
    5000001    1    1    2    0    0  0.46385158539E+02  0.63508157653E+02  0.58112329716E+03  0.59145427171E+03  0.77000000000E+02 0.  0.
   -5000001    1    1    2    0    0 -0.46385158539E+02 -0.63508157653E+02  0.55462767723E+03  0.56544294971E+03  0.77000000000E+02 0.  0.
<mgrwt>
<rscale>  0 0.22018380E+03</rscale>
<asrwt>0</asrwt>
<pdfrwt beam="1">  1        2 0.15104469E-02 0.22018380E+03</pdfrwt>
<pdfrwt beam="2">  1       -2 0.16376051E+00 0.22018380E+03</pdfrwt>
<totfact> 0.20155727E+03</totfact>
</mgrwt>
</event>
<event>
 4    1  0.1330040E-003  0.1768127E+03  0.7818608E-02  0.1170924E+00
          2   -1    0    0  501    0  0.00000000000E+00  0.00000000000E+00  0.18163521916E+04  0.18163521916E+04  0.25500000000E-02 0.  1.
         -2   -1    0    0    0  501 -0.00000000000E+00 -0.00000000000E+00 -0.43029541483E+01  0.43029549039E+01  0.25500000000E-02 0. -1.
    5000001    1    1    2    0    0 -0.24078817008E+02 -0.88233427932E+01  0.54503284029E+03  0.55104213796E+03  0.77000000000E+02 0.  0.
   -5000001    1    1    2    0    0  0.24078817008E+02  0.88233427932E+01  0.12670163972E+04  0.12696130086E+04  0.77000000000E+02 0.  0.
<mgrwt>
<rscale>  0 0.17681268E+03</rscale>
<asrwt>0</asrwt>
<pdfrwt beam="1">  1        2 0.25947799E+00 0.17681268E+03</pdfrwt>
<pdfrwt beam="2">  1       -2 0.61470990E-03 0.17681268E+03</pdfrwt>
<totfact> 0.45579733E+04</totfact>
</mgrwt>
</event>
<event>
 4    1  0.1330040E-003  0.3255299E+03  0.7818608E-02  0.1073132E+00
          2   -1    0    0  501    0  0.00000000000E+00  0.00000000000E+00  0.86360953942E+03  0.86360953942E+03  0.25500000000E-02 0.  1.
         -2   -1    0    0    0  501 -0.00000000000E+00 -0.00000000000E+00 -0.30676396089E+02  0.30676396195E+02  0.25500000000E-02 0. -1.
    5000001    1    1    2    0    0  0.12143896508E+03  0.61053737937E+02  0.29092219355E+03  0.33021160466E+03  0.77000000000E+02 0.  0.
   -5000001    1    1    2    0    0 -0.12143896508E+03 -0.61053737937E+02  0.54201094978E+03  0.56407433095E+03  0.77000000000E+02 0.  0.
<mgrwt>
<rscale>  0 0.32552990E+03</rscale>
<asrwt>0</asrwt>
<pdfrwt beam="1">  1        2 0.12337278E+00 0.32552990E+03</pdfrwt>
<pdfrwt beam="2">  1       -2 0.43823427E-02 0.32552990E+03</pdfrwt>
<totfact> 0.84939833E+03</totfact>
</mgrwt>
</event>
<event>
 4    1  0.1330040E-003  0.2273016E+03  0.7818608E-02  0.1128554E+00
          2   -1    0    0  501    0  0.00000000000E+00  0.00000000000E+00  0.16153135709E+04  0.16153135709E+04  0.25500000000E-02 0.  1.
         -2   -1    0    0    0  501 -0.00000000000E+00 -0.00000000000E+00 -0.79962845167E+01  0.79962849233E+01  0.25500000000E-02 0. -1.
    5000001    1    1    2    0    0  0.11127770770E+02 -0.64030690108E+02  0.11791053632E+04  0.11834028115E+04  0.77000000000E+02 0.  0.
   -5000001    1    1    2    0    0 -0.11127770770E+02  0.64030690108E+02  0.42821192318E+03  0.43990704440E+03  0.77000000000E+02 0.  0.
<mgrwt>
<rscale>  0 0.22730163E+03</rscale>
<asrwt>0</asrwt>
<pdfrwt beam="1">  1        2 0.23075927E+00 0.22730163E+03</pdfrwt>
<pdfrwt beam="2">  1       -2 0.11423255E-02 0.22730163E+03</pdfrwt>
<totfact> 0.23756583E+04</totfact>
</mgrwt>
</event>
<event>
 4    1  0.1330040E-003  0.2293894E+03  0.7818608E-02  0.1127070E+00
         -2   -1    0    0    0  501 -0.00000000000E+00  0.00000000000E+00  0.13317861476E+02  0.13317861720E+02  0.25500000000E-02 0. -1.
          2   -1    0    0  501    0  0.00000000000E+00 -0.00000000000E+00 -0.98776147551E+03  0.98776147551E+03  0.25500000000E-02 0.  1.
    5000001    1    1    2    0    0  0.81877842428E+02  0.10095095306E+02 -0.57665707025E+03  0.58759532733E+03  0.77000000000E+02 0.  0.
   -5000001    1    1    2    0    0 -0.81877842428E+02 -0.10095095306E+02 -0.39778654378E+03  0.41348400990E+03  0.77000000000E+02 0.  0.
<mgrwt>
<rscale>  0 0.22938937E+03</rscale>
<asrwt>0</asrwt>
<pdfrwt beam="1">  1        2 0.14110874E+00 0.22938937E+03</pdfrwt>
<pdfrwt beam="2">  1       -2 0.19025523E-02 0.22938937E+03</pdfrwt>
<totfact> 0.24297272E+04</totfact>
</mgrwt>
</event>
<event>
 4    1  0.1330040E-003  0.2527487E+03  0.7818608E-02  0.1111580E+00
          2   -1    0    0  501    0  0.00000000000E+00  0.00000000000E+00  0.39991278781E+03  0.39991278782E+03  0.25500000000E-02 0.  1.
         -2   -1    0    0    0  501 -0.00000000000E+00 -0.00000000000E+00 -0.39934900837E+02  0.39934900919E+02  0.25500000000E-02 0. -1.
    5000001    1    1    2    0    0 -0.16558231945E+02  0.97670887471E+02  0.15372891992E+03  0.19843225072E+03  0.77000000000E+02 0.  0.
   -5000001    1    1    2    0    0  0.16558231945E+02 -0.97670887471E+02  0.20624896705E+03  0.24141543802E+03  0.77000000000E+02 0.  0.
<mgrwt>
<rscale>  0 0.25274871E+03</rscale>
<asrwt>0</asrwt>
<pdfrwt beam="1">  1        2 0.57130400E-01 0.25274871E+03</pdfrwt>
<pdfrwt beam="2">  1       -2 0.57049857E-02 0.25274871E+03</pdfrwt>
<totfact> 0.13675030E+04</totfact>
</mgrwt>
</event>
<event>
 4    1  0.1330040E-003  0.2949658E+03  0.7818608E-02  0.1087785E+00
         -2   -1    0    0    0  501 -0.00000000000E+00  0.00000000000E+00  0.39659493695E+02  0.39659493777E+02  0.25500000000E-02 0. -1.
          2   -1    0    0  501    0  0.00000000000E+00 -0.00000000000E+00 -0.54844891454E+03  0.54844891454E+03  0.25500000000E-02 0.  1.
    5000001    1    1    2    0    0 -0.75614639078E+02 -0.99791244017E+02 -0.27851417392E+03  0.31492064254E+03  0.77000000000E+02 0.  0.
   -5000001    1    1    2    0    0  0.75614639078E+02  0.99791244017E+02 -0.23027524693E+03  0.27318776578E+03  0.77000000000E+02 0.  0.
<mgrwt>
<rscale>  0 0.29496580E+03</rscale>
<asrwt>0</asrwt>
<pdfrwt beam="1">  1        2 0.78349840E-01 0.29496580E+03</pdfrwt>
<pdfrwt beam="2">  1       -2 0.56656423E-02 0.29496580E+03</pdfrwt>
<totfact> 0.98361184E+03</totfact>
</mgrwt>
</event>
<event>
 4    1  0.1330040E-003  0.5501753E+03  0.7818608E-02  0.1001453E+00
          2   -1    0    0  501    0  0.00000000000E+00  0.00000000000E+00  0.96243639800E+03  0.96243639800E+03  0.25500000000E-02 0.  1.
         -2   -1    0    0    0  501 -0.00000000000E+00 -0.00000000000E+00 -0.78626703665E+02  0.78626703706E+02  0.25500000000E-02 0. -1.
    5000001    1    1    2    0    0  0.88735799156E+02 -0.10527760037E+03  0.15471292494E+02  0.15851112290E+03  0.77000000000E+02 0.  0.
   -5000001    1    1    2    0    0 -0.88735799156E+02  0.10527760037E+03  0.86833840184E+03  0.88255197881E+03  0.77000000000E+02 0.  0.
<mgrwt>
<rscale>  0 0.55017525E+03</rscale>
<asrwt>0</asrwt>
<pdfrwt beam="1">  1        2 0.13749090E+00 0.55017525E+03</pdfrwt>
<pdfrwt beam="2">  1       -2 0.11232387E-01 0.55017525E+03</pdfrwt>
<totfact> 0.16879548E+03</totfact>
</mgrwt>
</event>
<event>
 4    1  0.1330040E-003  0.2013566E+03  0.7818608E-02  0.1148599E+00
          2   -1    0    0  501    0  0.00000000000E+00  0.00000000000E+00  0.86926501157E+03  0.86926501157E+03  0.25500000000E-02 0.  1.
         -2   -1    0    0    0  501 -0.00000000000E+00 -0.00000000000E+00 -0.11660561140E+02  0.11660561418E+02  0.25500000000E-02 0. -1.
    5000001    1    1    2    0    0 -0.61834572585E+01  0.61078343154E+02  0.52039652348E+03  0.52963226941E+03  0.77000000000E+02 0.  0.
   -5000001    1    1    2    0    0  0.61834572585E+01 -0.61078343154E+02  0.33720792695E+03  0.35129330358E+03  0.77000000000E+02 0.  0.
<mgrwt>
<rscale>  0 0.20135658E+03</rscale>
<asrwt>0</asrwt>
<pdfrwt beam="1">  1        2 0.12418073E+00 0.20135658E+03</pdfrwt>
<pdfrwt beam="2">  1       -2 0.16657943E-02 0.20135658E+03</pdfrwt>
<totfact> 0.34546097E+04</totfact>
</mgrwt>
</event>
<event>
 4    1  0.1330040E-003  0.2845838E+03  0.7818608E-02  0.1093211E+00
         -2   -1    0    0    0  501 -0.00000000000E+00  0.00000000000E+00  0.35263721363E+02  0.35263721456E+02  0.25500000000E-02 0. -1.
          2   -1    0    0  501    0  0.00000000000E+00 -0.00000000000E+00 -0.57415903367E+03  0.57415903368E+03  0.25500000000E-02 0.  1.
    5000001    1    1    2    0    0  0.20062843963E+01 -0.11938420838E+03 -0.28622356035E+03  0.31954583535E+03  0.77000000000E+02 0.  0.
   -5000001    1    1    2    0    0 -0.20062843963E+01  0.11938420838E+03 -0.25267175196E+03  0.28987691979E+03  0.77000000000E+02 0.  0.
<mgrwt>
<rscale>  0 0.28458380E+03</rscale>
<asrwt>0</asrwt>
<pdfrwt beam="1">  1        2 0.82022714E-01 0.28458380E+03</pdfrwt>
<pdfrwt beam="2">  1       -2 0.50376748E-02 0.28458380E+03</pdfrwt>
<totfact> 0.11159794E+04</totfact>
</mgrwt>
</event>
<event>
 4    1  0.1330040E-003  0.2100705E+03  0.7818608E-02  0.1141510E+00
          2   -1    0    0  501    0  0.00000000000E+00  0.00000000000E+00  0.24560448457E+03  0.24560448458E+03  0.25500000000E-02 0.  1.
         -2   -1    0    0    0  501 -0.00000000000E+00 -0.00000000000E+00 -0.44919397671E+02  0.44919397743E+02  0.25500000000E-02 0. -1.
    5000001    1    1    2    0    0  0.61495993194E+02  0.26813653461E+02  0.66391056175E+02  0.12180928343E+03  0.77000000000E+02 0.  0.
   -5000001    1    1    2    0    0 -0.61495993194E+02 -0.26813653461E+02  0.13429403072E+03  0.16871459889E+03  0.77000000000E+02 0.  0.
<mgrwt>
<rscale>  0 0.21007052E+03</rscale>
<asrwt>0</asrwt>
<pdfrwt beam="1">  1        2 0.35086355E-01 0.21007052E+03</pdfrwt>
<pdfrwt beam="2">  1       -2 0.64170569E-02 0.21007052E+03</pdfrwt>
<totfact> 0.19070222E+04</totfact>
</mgrwt>
</event>
<event>
 4    1  0.1330040E-003  0.2589685E+03  0.7818608E-02  0.1107765E+00
          2   -1    0    0  501    0  0.00000000000E+00  0.00000000000E+00  0.40994482560E+03  0.40994482561E+03  0.25500000000E-02 0.  1.
         -2   -1    0    0    0  501 -0.00000000000E+00 -0.00000000000E+00 -0.40898596522E+02  0.40898596601E+02  0.25500000000E-02 0. -1.
    5000001    1    1    2    0    0 -0.92867519715E+01 -0.89526412157E+02  0.93462080045E+02  0.15088201564E+03  0.77000000000E+02 0.  0.
   -5000001    1    1    2    0    0  0.92867519715E+01  0.89526412157E+02  0.27558414904E+03  0.29996140658E+03  0.77000000000E+02 0.  0.
<mgrwt>
<rscale>  0 0.25896848E+03</rscale>
<asrwt>0</asrwt>
<pdfrwt beam="1">  1        2 0.58563548E-01 0.25896848E+03</pdfrwt>
<pdfrwt beam="2">  1       -2 0.58426565E-02 0.25896848E+03</pdfrwt>
<totfact> 0.12852990E+04</totfact>
</mgrwt>
</event>
<event>
 4    1  0.1330040E-003  0.5191719E+03  0.7818608E-02  0.1008892E+00
          2   -1    0    0  501    0  0.00000000000E+00  0.00000000000E+00  0.15799131699E+04  0.15799131699E+04  0.25500000000E-02 0.  1.
         -2   -1    0    0    0  501 -0.00000000000E+00 -0.00000000000E+00 -0.42650999477E+02  0.42650999553E+02  0.25500000000E-02 0. -1.
    5000001    1    1    2    0    0  0.31655712668E+02 -0.22562330893E+03  0.46324803923E+03  0.52195374079E+03  0.77000000000E+02 0.  0.
   -5000001    1    1    2    0    0 -0.31655712668E+02  0.22562330893E+03  0.10740141312E+04  0.11006104287E+04  0.77000000000E+02 0.  0.
<mgrwt>
<rscale>  0 0.51917194E+03</rscale>
<asrwt>0</asrwt>
<pdfrwt beam="1">  1        2 0.22570186E+00 0.51917194E+03</pdfrwt>
<pdfrwt beam="2">  1       -2 0.60930006E-02 0.51917194E+03</pdfrwt>
<totfact> 0.20427647E+03</totfact>
</mgrwt>
</event>
<event>
 4    1  0.1330040E-003  0.2180497E+03  0.7818608E-02  0.1135345E+00
          2   -1    0    0  501    0  0.00000000000E+00  0.00000000000E+00  0.91263736653E+03  0.91263736653E+03  0.25500000000E-02 0.  1.
         -2   -1    0    0    0  501 -0.00000000000E+00 -0.00000000000E+00 -0.13024253412E+02  0.13024253662E+02  0.25500000000E-02 0. -1.
    5000001    1    1    2    0    0  0.34373101360E+02  0.63418434615E+02  0.56637634066E+03  0.57612027147E+03  0.77000000000E+02 0.  0.
   -5000001    1    1    2    0    0 -0.34373101360E+02 -0.63418434615E+02  0.33323677246E+03  0.34954134872E+03  0.77000000000E+02 0.  0.
<mgrwt>
<rscale>  0 0.21804972E+03</rscale>
<asrwt>0</asrwt>
<pdfrwt beam="1">  1        2 0.13037682E+00 0.21804972E+03</pdfrwt>
<pdfrwt beam="2">  1       -2 0.18606069E-02 0.21804972E+03</pdfrwt>
<totfact> 0.27774769E+04</totfact>
</mgrwt>
</event>
<event>
 4    1  0.1330040E-003  0.2121577E+03  0.7818608E-02  0.1139869E+00
          2   -1    0    0  501    0  0.00000000000E+00  0.00000000000E+00  0.12572409203E+04  0.12572409203E+04  0.25500000000E-02 0.  1.
         -2   -1    0    0    0  501 -0.00000000000E+00 -0.00000000000E+00 -0.89503315036E+01  0.89503318668E+01  0.25500000000E-02 0. -1.
    5000001    1    1    2    0    0  0.53330044757E+02 -0.19829000657E+02  0.35153423141E+03  0.36433857714E+03  0.77000000000E+02 0.  0.
   -5000001    1    1    2    0    0 -0.53330044757E+02  0.19829000657E+02  0.89675635737E+03  0.90185267501E+03  0.77000000000E+02 0.  0.
<mgrwt>
<rscale>  0 0.21215771E+03</rscale>
<asrwt>0</asrwt>
<pdfrwt beam="1">  1        2 0.17960563E+00 0.21215771E+03</pdfrwt>
<pdfrwt beam="2">  1       -2 0.12786204E-02 0.21215771E+03</pdfrwt>
<totfact> 0.30560249E+04</totfact>
</mgrwt>
</event>
<event>
 4    1  0.1330040E-003  0.2163306E+03  0.7818608E-02  0.1136649E+00
         -2   -1    0    0    0  501 -0.00000000000E+00  0.00000000000E+00  0.28454090589E+02  0.28454090704E+02  0.25500000000E-02 0. -1.
          2   -1    0    0  501    0  0.00000000000E+00 -0.00000000000E+00 -0.41117939605E+03  0.41117939605E+03  0.25500000000E-02 0.  1.
    5000001    1    1    2    0    0  0.59878798391E+02  0.23955318544E+02 -0.27294111284E+03  0.29083531227E+03  0.77000000000E+02 0.  0.
   -5000001    1    1    2    0    0 -0.59878798391E+02 -0.23955318544E+02 -0.10978419262E+03  0.14879817449E+03  0.77000000000E+02 0.  0.
<mgrwt>
<rscale>  0 0.21633063E+03</rscale>
<asrwt>0</asrwt>
<pdfrwt beam="1">  1        2 0.58739910E-01 0.21633063E+03</pdfrwt>
<pdfrwt beam="2">  1       -2 0.40648703E-02 0.21633063E+03</pdfrwt>
<totfact> 0.21955357E+04</totfact>
</mgrwt>
</event>
<event>
 4    1  0.1330040E-003  0.1959127E+03  0.7818608E-02  0.1153234E+00
         -2   -1    0    0    0  501 -0.00000000000E+00  0.00000000000E+00  0.33346229230E+01  0.33346238980E+01  0.25500000000E-02 0. -1.
          2   -1    0    0  501    0  0.00000000000E+00 -0.00000000000E+00 -0.28775202487E+04  0.28775202487E+04  0.25500000000E-02 0.  1.
    5000001    1    1    2    0    0 -0.59856259488E+02  0.77666475147E+00 -0.15711174091E+04  0.15741417624E+04  0.77000000000E+02 0.  0.
   -5000001    1    1    2    0    0  0.59856259488E+02 -0.77666475147E+00 -0.13030682166E+04  0.13067131102E+04  0.77000000000E+02 0.  0.
<mgrwt>
<rscale>  0 0.19591270E+03</rscale>
<asrwt>0</asrwt>
<pdfrwt beam="1">  1        2 0.41107273E+00 0.19591270E+03</pdfrwt>
<pdfrwt beam="2">  1       -2 0.47637662E-03 0.19591270E+03</pdfrwt>
<totfact> 0.19898079E+04</totfact>
</mgrwt>
</event>
<event>
 4    1  0.1330040E-003  0.3152064E+03  0.7818608E-02  0.1077877E+00
          2   -1    0    0  501    0  0.00000000000E+00  0.00000000000E+00  0.27787581686E+03  0.27787581688E+03  0.25500000000E-02 0.  1.
         -2   -1    0    0    0  501 -0.00000000000E+00 -0.00000000000E+00 -0.89388014795E+02  0.89388014832E+02  0.25500000000E-02 0. -1.
    5000001    1    1    2    0    0  0.80503272825E+02 -0.10135556919E+03  0.14834567170E+03  0.21139812358E+03  0.77000000000E+02 0.  0.
   -5000001    1    1    2    0    0 -0.80503272825E+02  0.10135556919E+03  0.40142130371E+02  0.15586570813E+03  0.77000000000E+02 0.  0.
<mgrwt>
<rscale>  0 0.31520639E+03</rscale>
<asrwt>0</asrwt>
<pdfrwt beam="1">  1        2 0.39696545E-01 0.31520639E+03</pdfrwt>
<pdfrwt beam="2">  1       -2 0.12769716E-01 0.31520639E+03</pdfrwt>
<totfact> 0.57511076E+03</totfact>
</mgrwt>
</event>
<event>
 4    1  0.1330040E-003  0.1832585E+03  0.7818608E-02  0.1164686E+00
          2   -1    0    0  501    0  0.00000000000E+00  0.00000000000E+00  0.18094796913E+03  0.18094796914E+03  0.25500000000E-02 0.  1.
         -2   -1    0    0    0  501 -0.00000000000E+00 -0.00000000000E+00 -0.46399635155E+02  0.46399635225E+02  0.25500000000E-02 0. -1.
    5000001    1    1    2    0    0  0.21613168060E+02  0.35984147728E+02  0.10021236301E+03  0.13316720926E+03  0.77000000000E+02 0.  0.
   -5000001    1    1    2    0    0 -0.21613168060E+02 -0.35984147728E+02  0.34335970957E+02  0.94180395109E+02  0.77000000000E+02 0.  0.
<mgrwt>
<rscale>  0 0.18325850E+03</rscale>
<asrwt>0</asrwt>
<pdfrwt beam="1">  1        2 0.25849710E-01 0.18325850E+03</pdfrwt>
<pdfrwt beam="2">  1       -2 0.66285193E-02 0.18325850E+03</pdfrwt>
<totfact> 0.25056267E+04</totfact>
</mgrwt>
</event>
<event>
 4    1  0.1330040E-003  0.3205930E+03  0.7818608E-02  0.1075377E+00
          2   -1    0    0  501    0  0.00000000000E+00  0.00000000000E+00  0.85057837667E+03  0.85057837667E+03  0.25500000000E-02 0.  1.
         -2   -1    0    0    0  501 -0.00000000000E+00 -0.00000000000E+00 -0.30208826016E+02  0.30208826124E+02  0.25500000000E-02 0. -1.
    5000001    1    1    2    0    0 -0.13953916864E+03 -0.11022510407E+02  0.37401757936E+03  0.40670729646E+03  0.77000000000E+02 0.  0.
   -5000001    1    1    2    0    0  0.13953916864E+03  0.11022510407E+02  0.44635197129E+03  0.47407990634E+03  0.77000000000E+02 0.  0.
<mgrwt>
<rscale>  0 0.32059304E+03</rscale>
<asrwt>0</asrwt>
<pdfrwt beam="1">  1        2 0.12151120E+00 0.32059304E+03</pdfrwt>
<pdfrwt beam="2">  1       -2 0.43155464E-02 0.32059304E+03</pdfrwt>
<totfact> 0.88610414E+03</totfact>
</mgrwt>
</event>
<event>
 4    1  0.1330040E-003  0.2377565E+03  0.7818608E-02  0.1121296E+00
         -2   -1    0    0    0  501 -0.00000000000E+00  0.00000000000E+00  0.17675479253E+02  0.17675479437E+02  0.25500000000E-02 0. -1.
          2   -1    0    0  501    0  0.00000000000E+00 -0.00000000000E+00 -0.79952793262E+03  0.79952793262E+03  0.25500000000E-02 0.  1.
    5000001    1    1    2    0    0 -0.52801282776E+02 -0.65533908868E+02 -0.50597411274E+03  0.51867279805E+03  0.77000000000E+02 0.  0.
   -5000001    1    1    2    0    0  0.52801282776E+02  0.65533908868E+02 -0.27587834062E+03  0.29853061401E+03  0.77000000000E+02 0.  0.
<mgrwt>
<rscale>  0 0.23775651E+03</rscale>
<asrwt>0</asrwt>
<pdfrwt beam="1">  1        2 0.11421825E+00 0.23775651E+03</pdfrwt>
<pdfrwt beam="2">  1       -2 0.25250690E-02 0.23775651E+03</pdfrwt>
<totfact> 0.21069654E+04</totfact>
</mgrwt>
</event>
<event>
 4    1  0.1330040E-003  0.2096785E+03  0.7818608E-02  0.1141821E+00
         -2   -1    0    0    0  501 -0.00000000000E+00  0.00000000000E+00  0.19500705362E+02  0.19500705529E+02  0.25500000000E-02 0. -1.
          2   -1    0    0  501    0  0.00000000000E+00 -0.00000000000E+00 -0.56363449820E+03  0.56363449821E+03  0.25500000000E-02 0.  1.
    5000001    1    1    2    0    0  0.30035143311E+02 -0.50154616034E+02 -0.15928085241E+03  0.18632494542E+03  0.77000000000E+02 0.  0.
   -5000001    1    1    2    0    0 -0.30035143311E+02  0.50154616034E+02 -0.38485294043E+03  0.39681025831E+03  0.77000000000E+02 0.  0.
<mgrwt>
<rscale>  0 0.20967852E+03</rscale>
<asrwt>0</asrwt>
<pdfrwt beam="1">  1        2 0.80519204E-01 0.20967852E+03</pdfrwt>
<pdfrwt beam="2">  1       -2 0.27858154E-02 0.20967852E+03</pdfrwt>
<totfact> 0.27207238E+04</totfact>
</mgrwt>
</event>
<event>
 4    1  0.1330040E-003  0.2290479E+03  0.7818608E-02  0.1127312E+00
          2   -1    0    0  501    0  0.00000000000E+00  0.00000000000E+00  0.35580735561E+04  0.35580735561E+04  0.25500000000E-02 0.  1.
         -2   -1    0    0    0  501 -0.00000000000E+00 -0.00000000000E+00 -0.36861894806E+01  0.36861903626E+01  0.25500000000E-02 0. -1.
    5000001    1    1    2    0    0  0.77437986180E+02 -0.12494975588E+01  0.12410962360E+04  0.12458920779E+04  0.77000000000E+02 0.  0.
   -5000001    1    1    2    0    0 -0.77437986180E+02  0.12494975588E+01  0.23132911307E+04  0.23158676686E+04  0.77000000000E+02 0.  0.
<mgrwt>
<rscale>  0 0.22904790E+03</rscale>
<asrwt>0</asrwt>
<pdfrwt beam="1">  1        2 0.50829622E+00 0.22904790E+03</pdfrwt>
<pdfrwt beam="2">  1       -2 0.52659856E-03 0.22904790E+03</pdfrwt>
<totfact> 0.73366313E+03</totfact>
</mgrwt>
</event>
<event>
 4    1  0.1330040E-003  0.2462638E+03  0.7818608E-02  0.1115689E+00
         -2   -1    0    0    0  501 -0.00000000000E+00  0.00000000000E+00  0.31737635410E+02  0.31737635512E+02  0.25500000000E-02 0. -1.
          2   -1    0    0  501    0  0.00000000000E+00 -0.00000000000E+00 -0.47771242914E+03  0.47771242915E+03  0.25500000000E-02 0.  1.
    5000001    1    1    2    0    0 -0.36403053748E+02 -0.73528413504E+02 -0.11953390456E+03  0.16416139696E+03  0.77000000000E+02 0.  0.
   -5000001    1    1    2    0    0  0.36403053748E+02  0.73528413504E+02 -0.32644088917E+03  0.34528866769E+03  0.77000000000E+02 0.  0.
<mgrwt>
<rscale>  0 0.24626378E+03</rscale>
<asrwt>0</asrwt>
<pdfrwt beam="1">  1        2 0.68244628E-01 0.24626378E+03</pdfrwt>
<pdfrwt beam="2">  1       -2 0.45339482E-02 0.24626378E+03</pdfrwt>
<totfact> 0.15957003E+04</totfact>
</mgrwt>
</event>
<event>
 4    1  0.1330040E-003  0.2233645E+03  0.7818608E-02  0.1131399E+00
          2   -1    0    0  501    0  0.00000000000E+00  0.00000000000E+00  0.79615955956E+03  0.79615955956E+03  0.25500000000E-02 0.  1.
         -2   -1    0    0    0  501 -0.00000000000E+00 -0.00000000000E+00 -0.15666358214E+02  0.15666358421E+02  0.25500000000E-02 0. -1.
    5000001    1    1    2    0    0  0.51623368240E+02 -0.14459260631E+02  0.61042498438E+03  0.61759347788E+03  0.77000000000E+02 0.  0.
   -5000001    1    1    2    0    0 -0.51623368240E+02  0.14459260631E+02  0.17006821697E+03  0.19423244010E+03  0.77000000000E+02 0.  0.
<mgrwt>
<rscale>  0 0.22336446E+03</rscale>
<asrwt>0</asrwt>
<pdfrwt beam="1">  1        2 0.11373710E+00 0.22336446E+03</pdfrwt>
<pdfrwt beam="2">  1       -2 0.22380507E-02 0.22336446E+03</pdfrwt>
<totfact> 0.25203985E+04</totfact>
</mgrwt>
</event>
<event>
 4    1  0.1330040E-003  0.2695333E+03  0.7818608E-02  0.1101547E+00
         -2   -1    0    0    0  501 -0.00000000000E+00  0.00000000000E+00  0.91864097570E+02  0.91864097605E+02  0.25500000000E-02 0. -1.
          2   -1    0    0  501    0  0.00000000000E+00 -0.00000000000E+00 -0.19770568540E+03  0.19770568541E+03  0.25500000000E-02 0.  1.
    5000001    1    1    2    0    0 -0.94412813606E+02  0.57095600532E+02 -0.44642996321E+02  0.14175924694E+03  0.77000000000E+02 0.  0.
   -5000001    1    1    2    0    0  0.94412813606E+02 -0.57095600532E+02 -0.61198591506E+02  0.14781053608E+03  0.77000000000E+02 0.  0.
<mgrwt>
<rscale>  0 0.26953333E+03</rscale>
<asrwt>0</asrwt>
<pdfrwt beam="1">  1        2 0.28243669E-01 0.26953333E+03</pdfrwt>
<pdfrwt beam="2">  1       -2 0.13123443E-01 0.26953333E+03</pdfrwt>
<totfact> 0.79310389E+03</totfact>
</mgrwt>
</event>
<event>
 4    1  0.1330040E-003  0.2336650E+03  0.7818608E-02  0.1124086E+00
          2   -1    0    0  501    0  0.00000000000E+00  0.00000000000E+00  0.20946048880E+04  0.20946048880E+04  0.25500000000E-02 0.  1.
         -2   -1    0    0    0  501 -0.00000000000E+00 -0.00000000000E+00 -0.65166633823E+01  0.65166638812E+01  0.25500000000E-02 0. -1.
    5000001    1    1    2    0    0 -0.19243799798E+02  0.85599509762E+02  0.10006995726E+04  0.10074851039E+04  0.77000000000E+02 0.  0.
   -5000001    1    1    2    0    0  0.19243799798E+02 -0.85599509762E+02  0.10873886520E+04  0.10936364480E+04  0.77000000000E+02 0.  0.
<mgrwt>
<rscale>  0 0.23366502E+03</rscale>
<asrwt>0</asrwt>
<pdfrwt beam="1">  1        2 0.29922887E+00 0.23366502E+03</pdfrwt>
<pdfrwt beam="2">  1       -2 0.93095318E-03 0.23366502E+03</pdfrwt>
<totfact> 0.18686619E+04</totfact>
</mgrwt>
</event>
<event>
 4    1  0.1330040E-003  0.2470585E+03  0.7818608E-02  0.1115178E+00
         -2   -1    0    0    0  501 -0.00000000000E+00  0.00000000000E+00  0.11098891643E+02  0.11098891936E+02  0.25500000000E-02 0. -1.
          2   -1    0    0  501    0  0.00000000000E+00 -0.00000000000E+00 -0.13748644799E+04  0.13748644799E+04  0.25500000000E-02 0.  1.
    5000001    1    1    2    0    0  0.43089749472E+02  0.70748525455E+02 -0.96059696075E+03  0.96723192739E+03  0.77000000000E+02 0.  0.
   -5000001    1    1    2    0    0 -0.43089749472E+02 -0.70748525455E+02 -0.40316862755E+03  0.41873144449E+03  0.77000000000E+02 0.  0.
<mgrwt>
<rscale>  0 0.24705847E+03</rscale>
<asrwt>0</asrwt>
<pdfrwt beam="1">  1        2 0.19640910E+00 0.24705847E+03</pdfrwt>
<pdfrwt beam="2">  1       -2 0.15855568E-02 0.24705847E+03</pdfrwt>
<totfact> 0.19556874E+04</totfact>
</mgrwt>
</event>
<event>
 4    1  0.1330040E-003  0.2433847E+03  0.7818608E-02  0.1117558E+00
          2   -1    0    0  501    0  0.00000000000E+00  0.00000000000E+00  0.14141005434E+02  0.14141005664E+02  0.25500000000E-02 0.  1.
         -2   -1    0    0    0  501 -0.00000000000E+00 -0.00000000000E+00 -0.10472401832E+04  0.10472401832E+04  0.25500000000E-02 0. -1.
    5000001    1    1    2    0    0  0.61845197078E+02 -0.25426168734E+02 -0.80610647670E+03  0.81253182722E+03  0.77000000000E+02 0.  0.
   -5000001    1    1    2    0    0 -0.61845197078E+02  0.25426168734E+02 -0.22699270107E+03  0.24884936166E+03  0.77000000000E+02 0.  0.
<mgrwt>
<rscale>  0 0.24338471E+03</rscale>
<asrwt>0</asrwt>
<pdfrwt beam="1">  1        2 0.20201443E-02 0.24338471E+03</pdfrwt>
<pdfrwt beam="2">  1       -2 0.14960569E+00 0.24338471E+03</pdfrwt>
<totfact> 0.17157799E+03</totfact>
</mgrwt>
</event>
<event>
 4    1  0.1330040E-003  0.2147559E+03  0.7818608E-02  0.1137854E+00
         -2   -1    0    0    0  501 -0.00000000000E+00  0.00000000000E+00  0.22074542716E+02  0.22074542863E+02  0.25500000000E-02 0. -1.
          2   -1    0    0  501    0  0.00000000000E+00 -0.00000000000E+00 -0.52232217749E+03  0.52232217750E+03  0.25500000000E-02 0.  1.
    5000001    1    1    2    0    0  0.61700922007E+02  0.42147043188E+02 -0.26077251349E+03  0.28198347614E+03  0.77000000000E+02 0.  0.
   -5000001    1    1    2    0    0 -0.61700922007E+02 -0.42147043188E+02 -0.23947512129E+03  0.26241324422E+03  0.77000000000E+02 0.  0.
<mgrwt>
<rscale>  0 0.21475589E+03</rscale>
<asrwt>0</asrwt>
<pdfrwt beam="1">  1        2 0.74617446E-01 0.21475589E+03</pdfrwt>
<pdfrwt beam="2">  1       -2 0.31535065E-02 0.21475589E+03</pdfrwt>
<totfact> 0.24688792E+04</totfact>
</mgrwt>
</event>
<event>
 4    1  0.1330040E-003  0.2040394E+03  0.7818608E-02  0.1146375E+00
          2   -1    0    0  501    0  0.00000000000E+00  0.00000000000E+00  0.38199796005E+03  0.38199796006E+03  0.25500000000E-02 0.  1.
         -2   -1    0    0    0  501 -0.00000000000E+00 -0.00000000000E+00 -0.27246281338E+02  0.27246281458E+02  0.25500000000E-02 0. -1.
    5000001    1    1    2    0    0 -0.63959847033E+01  0.63683450261E+02  0.21660447055E+03  0.23862729751E+03  0.77000000000E+02 0.  0.
   -5000001    1    1    2    0    0  0.63959847033E+01 -0.63683450261E+02  0.13814720817E+03  0.17061694401E+03  0.77000000000E+02 0.  0.
<mgrwt>
<rscale>  0 0.20403945E+03</rscale>
<asrwt>0</asrwt>
<pdfrwt beam="1">  1        2 0.54571138E-01 0.20403945E+03</pdfrwt>
<pdfrwt beam="2">  1       -2 0.38923259E-02 0.20403945E+03</pdfrwt>
<totfact> 0.25250729E+04</totfact>
</mgrwt>
</event>
<event>
 4    1  0.1330040E-003  0.2711675E+03  0.7818608E-02  0.1100613E+00
         -2   -1    0    0    0  501 -0.00000000000E+00  0.00000000000E+00  0.14804899745E+03  0.14804899747E+03  0.25500000000E-02 0. -1.
          2   -1    0    0  501    0  0.00000000000E+00 -0.00000000000E+00 -0.12416804551E+03  0.12416804554E+03  0.25500000000E-02 0.  1.
    5000001    1    1    2    0    0  0.23552644905E+02 -0.99039817324E+02 -0.33956740595E+02  0.13208206816E+03  0.77000000000E+02 0.  0.
   -5000001    1    1    2    0    0 -0.23552644905E+02  0.99039817324E+02  0.57837692534E+02  0.14013497485E+03  0.77000000000E+02 0.  0.
<mgrwt>
<rscale>  0 0.27116751E+03</rscale>
<asrwt>0</asrwt>
<pdfrwt beam="1">  1        2 0.17738292E-01 0.27116751E+03</pdfrwt>
<pdfrwt beam="2">  1       -2 0.21149857E-01 0.27116751E+03</pdfrwt>
<totfact> 0.60422391E+03</totfact>
</mgrwt>
</event>
<event>
 4    1  0.1330040E-003  0.2881373E+03  0.7818608E-02  0.1091326E+00
          2   -1    0    0  501    0  0.00000000000E+00  0.00000000000E+00  0.45185020456E+03  0.45185020457E+03  0.25500000000E-02 0.  1.
         -2   -1    0    0    0  501 -0.00000000000E+00 -0.00000000000E+00 -0.45935071965E+02  0.45935072036E+02  0.25500000000E-02 0. -1.
    5000001    1    1    2    0    0 -0.94483131868E+02  0.54924440117E+02  0.29571870828E+03  0.32453399014E+03  0.77000000000E+02 0.  0.
   -5000001    1    1    2    0    0  0.94483131868E+02 -0.54924440117E+02  0.11019642432E+03  0.17325128647E+03  0.77000000000E+02 0.  0.
<mgrwt>
<rscale>  0 0.28813727E+03</rscale>
<asrwt>0</asrwt>
<pdfrwt beam="1">  1        2 0.64550032E-01 0.28813727E+03</pdfrwt>
<pdfrwt beam="2">  1       -2 0.65621528E-02 0.28813727E+03</pdfrwt>
<totfact> 0.97179956E+03</totfact>
</mgrwt>
</event>
<event>
 4    1  0.1330040E-003  0.1990631E+03  0.7818608E-02  0.1150532E+00
          2   -1    0    0  501    0  0.00000000000E+00  0.00000000000E+00  0.76189939261E+03  0.76189939261E+03  0.25500000000E-02 0.  1.
         -2   -1    0    0    0  501 -0.00000000000E+00 -0.00000000000E+00 -0.13002413162E+02  0.13002413412E+02  0.25500000000E-02 0. -1.
    5000001    1    1    2    0    0  0.48565542254E+02 -0.39495165630E+02  0.34453488675E+03  0.35854116666E+03  0.77000000000E+02 0.  0.
   -5000001    1    1    2    0    0 -0.48565542254E+02  0.39495165630E+02  0.40436209269E+03  0.41636063936E+03  0.77000000000E+02 0.  0.
<mgrwt>
<rscale>  0 0.19906311E+03</rscale>
<asrwt>0</asrwt>
<pdfrwt beam="1">  1        2 0.10884278E+00 0.19906311E+03</pdfrwt>
<pdfrwt beam="2">  1       -2 0.18574874E-02 0.19906311E+03</pdfrwt>
<totfact> 0.34654419E+04</totfact>
</mgrwt>
</event>
<event>
 4    1  0.1330040E-003  0.2018707E+03  0.7818608E-02  0.1148170E+00
         -2   -1    0    0    0  501 -0.00000000000E+00  0.00000000000E+00  0.91634101836E+02  0.91634101872E+02  0.25500000000E-02 0. -1.
          2   -1    0    0  501    0  0.00000000000E+00 -0.00000000000E+00 -0.11118067437E+03  0.11118067439E+03  0.25500000000E-02 0.  1.
    5000001    1    1    2    0    0 -0.31760072421E+02 -0.18729956815E+02 -0.63871450460E+02  0.10662117832E+03  0.77000000000E+02 0.  0.
   -5000001    1    1    2    0    0  0.31760072421E+02  0.18729956815E+02  0.44324877931E+02  0.96193597947E+02  0.77000000000E+02 0.  0.
<mgrwt>
<rscale>  0 0.20187066E+03</rscale>
<asrwt>0</asrwt>
<pdfrwt beam="1">  1        2 0.15882954E-01 0.20187066E+03</pdfrwt>
<pdfrwt beam="2">  1       -2 0.13090586E-01 0.20187066E+03</pdfrwt>
<totfact> 0.15060020E+04</totfact>
</mgrwt>
</event>
<event>
 4    1  0.1330040E-003  0.3062782E+03  0.7818608E-02  0.1082144E+00
         -2   -1    0    0    0  501 -0.00000000000E+00  0.00000000000E+00  0.74635943288E+02  0.74635943332E+02  0.25500000000E-02 0. -1.
          2   -1    0    0  501    0  0.00000000000E+00 -0.00000000000E+00 -0.31421293027E+03  0.31421293028E+03  0.25500000000E-02 0.  1.
    5000001    1    1    2    0    0 -0.11209348434E+03 -0.69562411328E+02 -0.13362066768E+03  0.20294669530E+03  0.77000000000E+02 0.  0.
   -5000001    1    1    2    0    0  0.11209348434E+03  0.69562411328E+02 -0.10595631930E+03  0.18590217831E+03  0.77000000000E+02 0.  0.
<mgrwt>
<rscale>  0 0.30627816E+03</rscale>
<asrwt>0</asrwt>
<pdfrwt beam="1">  1        2 0.44887561E-01 0.30627816E+03</pdfrwt>
<pdfrwt beam="2">  1       -2 0.10662278E-01 0.30627816E+03</pdfrwt>
<totfact> 0.67331183E+03</totfact>
</mgrwt>
</event>
<event>
 4    1  0.1330040E-003  0.4173790E+03  0.7818608E-02  0.1037923E+00
          2   -1    0    0  501    0  0.00000000000E+00  0.00000000000E+00  0.23114952735E+04  0.23114952735E+04  0.25500000000E-02 0.  1.
         -2   -1    0    0    0  501 -0.00000000000E+00 -0.00000000000E+00 -0.18841183444E+02  0.18841183617E+02  0.25500000000E-02 0. -1.
    5000001    1    1    2    0    0  0.13729909178E+03  0.13395141019E+03  0.13070130834E+04  0.13232559167E+04  0.77000000000E+02 0.  0.
   -5000001    1    1    2    0    0 -0.13729909178E+03 -0.13395141019E+03  0.98564100661E+03  0.10070805404E+04  0.77000000000E+02 0.  0.
<mgrwt>
<rscale>  0 0.41737900E+03</rscale>
<asrwt>0</asrwt>
<pdfrwt beam="1">  1        2 0.33021353E+00 0.41737900E+03</pdfrwt>
<pdfrwt beam="2">  1       -2 0.26915983E-02 0.41737900E+03</pdfrwt>
<totfact> 0.30762001E+03</totfact>
</mgrwt>
</event>
<event>
 4    1  0.1330040E-003  0.2610346E+03  0.7818608E-02  0.1106523E+00
         -2   -1    0    0    0  501 -0.00000000000E+00  0.00000000000E+00  0.50972127776E+02  0.50972127840E+02  0.25500000000E-02 0. -1.
          2   -1    0    0  501    0  0.00000000000E+00 -0.00000000000E+00 -0.33419767385E+03  0.33419767386E+03  0.25500000000E-02 0.  1.
    5000001    1    1    2    0    0 -0.59454513236E+02  0.25568417033E+02 -0.26433374555E+03  0.28282487891E+03  0.77000000000E+02 0.  0.
   -5000001    1    1    2    0    0  0.59454513236E+02 -0.25568417033E+02 -0.18891800524E+02  0.10234492279E+03  0.77000000000E+02 0.  0.
<mgrwt>
<rscale>  0 0.26103461E+03</rscale>
<asrwt>0</asrwt>
<pdfrwt beam="1">  1        2 0.47742524E-01 0.26103461E+03</pdfrwt>
<pdfrwt beam="2">  1       -2 0.72817327E-02 0.26103461E+03</pdfrwt>
<totfact> 0.11414772E+04</totfact>
</mgrwt>
</event>
<event>
 4    1  0.1330040E-003  0.1999985E+03  0.7818608E-02  0.1149740E+00
          2   -1    0    0  501    0  0.00000000000E+00  0.00000000000E+00  0.41659504972E+03  0.41659504973E+03  0.25500000000E-02 0.  1.
         -2   -1    0    0    0  501 -0.00000000000E+00 -0.00000000000E+00 -0.24003773375E+02  0.24003773510E+02  0.25500000000E-02 0. -1.
    5000001    1    1    2    0    0 -0.42879332621E+02  0.33469304080E+02  0.26975939921E+03  0.28575857808E+03  0.77000000000E+02 0.  0.
   -5000001    1    1    2    0    0  0.42879332621E+02 -0.33469304080E+02  0.12283187714E+03  0.15484024517E+03  0.77000000000E+02 0.  0.
<mgrwt>
<rscale>  0 0.19999853E+03</rscale>
<asrwt>0</asrwt>
<pdfrwt beam="1">  1        2 0.59513580E-01 0.19999853E+03</pdfrwt>
<pdfrwt beam="2">  1       -2 0.34291104E-02 0.19999853E+03</pdfrwt>
<totfact> 0.27744803E+04</totfact>
</mgrwt>
</event>
<event>
 4    1  0.1330040E-003  0.4748613E+03  0.7818608E-02  0.1020557E+00
          2   -1    0    0  501    0  0.00000000000E+00  0.00000000000E+00  0.16891998828E+04  0.16891998828E+04  0.25500000000E-02 0.  1.
         -2   -1    0    0    0  501 -0.00000000000E+00 -0.00000000000E+00 -0.33372785564E+02  0.33372785662E+02  0.25500000000E-02 0. -1.
    5000001    1    1    2    0    0 -0.17799760679E+03  0.43634214470E+02  0.12988948780E+04  0.13140182635E+04  0.77000000000E+02 0.  0.
   -5000001    1    1    2    0    0  0.17799760679E+03 -0.43634214470E+02  0.35693221923E+03  0.40855440497E+03  0.77000000000E+02 0.  0.
<mgrwt>
<rscale>  0 0.47486127E+03</rscale>
<asrwt>0</asrwt>
<pdfrwt beam="1">  1        2 0.24131426E+00 0.47486127E+03</pdfrwt>
<pdfrwt beam="2">  1       -2 0.47675410E-02 0.47486127E+03</pdfrwt>
<totfact> 0.26321524E+03</totfact>
</mgrwt>
</event>
<event>
 4    1  0.1330040E-003  0.2976564E+03  0.7818608E-02  0.1086418E+00
          2   -1    0    0  501    0  0.00000000000E+00  0.00000000000E+00  0.51535611762E+03  0.51535611763E+03  0.25500000000E-02 0.  1.
         -2   -1    0    0    0  501 -0.00000000000E+00 -0.00000000000E+00 -0.42979676030E+02  0.42979676105E+02  0.25500000000E-02 0. -1.
    5000001    1    1    2    0    0  0.33410242194E+02  0.66958862165E+02  0.42873445449E+02  0.11561516263E+03  0.77000000000E+02 0.  0.
   -5000001    1    1    2    0    0 -0.33410242194E+02 -0.66958862165E+02  0.42950299614E+03  0.44272063110E+03  0.77000000000E+02 0.  0.
<mgrwt>
<rscale>  0 0.29765644E+03</rscale>
<asrwt>0</asrwt>
<pdfrwt beam="1">  1        2 0.73622300E-01 0.29765644E+03</pdfrwt>
<pdfrwt beam="2">  1       -2 0.61399539E-02 0.29765644E+03</pdfrwt>
<totfact> 0.93242497E+03</totfact>
</mgrwt>
</event>
<event>
 4    1  0.1330040E-003  0.2942635E+03  0.7818608E-02  0.1088144E+00
         -2   -1    0    0    0  501 -0.00000000000E+00  0.00000000000E+00  0.68828607765E+01  0.68828612489E+01  0.25500000000E-02 0. -1.
          2   -1    0    0  501    0  0.00000000000E+00 -0.00000000000E+00 -0.31451681558E+04  0.31451681558E+04  0.25500000000E-02 0.  1.
    5000001    1    1    2    0    0 -0.10479937759E+03  0.67080063096E+02 -0.17337369513E+04  0.17399009917E+04  0.77000000000E+02 0.  0.
   -5000001    1    1    2    0    0  0.10479937759E+03 -0.67080063096E+02 -0.14045483437E+04  0.14121500253E+04  0.77000000000E+02 0.  0.
<mgrwt>
<rscale>  0 0.29426352E+03</rscale>
<asrwt>0</asrwt>
<pdfrwt beam="1">  1        2 0.44930882E+00 0.29426352E+03</pdfrwt>
<pdfrwt beam="2">  1       -2 0.98326787E-03 0.29426352E+03</pdfrwt>
<totfact> 0.50661191E+03</totfact>
</mgrwt>
</event>
<event>
 4    1  0.1330040E-003  0.3448246E+03  0.7818608E-02  0.1064760E+00
          2   -1    0    0  501    0  0.00000000000E+00  0.00000000000E+00  0.33712043488E+02  0.33712043585E+02  0.25500000000E-02 0.  1.
         -2   -1    0    0    0  501 -0.00000000000E+00 -0.00000000000E+00 -0.88176186067E+03  0.88176186068E+03  0.25500000000E-02 0. -1.
    5000001    1    1    2    0    0 -0.13724909816E+03 -0.59257180164E+02 -0.52505992828E+03  0.55133080508E+03  0.77000000000E+02 0.  0.
   -5000001    1    1    2    0    0  0.13724909816E+03  0.59257180164E+02 -0.32298988891E+03  0.36414309918E+03  0.77000000000E+02 0.  0.
<mgrwt>
<rscale>  0 0.34482456E+03</rscale>
<asrwt>0</asrwt>
<pdfrwt beam="1">  1        2 0.48160068E-02 0.34482456E+03</pdfrwt>
<pdfrwt beam="2">  1       -2 0.12596597E+00 0.34482456E+03</pdfrwt>
<totfact> 0.81952299E+02</totfact>
</mgrwt>
</event>
<event>
 4    1  0.1330040E-003  0.2403157E+03  0.7818608E-02  0.1119583E+00
          2   -1    0    0  501    0  0.00000000000E+00  0.00000000000E+00  0.90170732758E+03  0.90170732759E+03  0.25500000000E-02 0.  1.
         -2   -1    0    0    0  501 -0.00000000000E+00 -0.00000000000E+00 -0.16011745495E+02  0.16011745698E+02  0.25500000000E-02 0. -1.
    5000001    1    1    2    0    0  0.37810784134E+02  0.39875900844E+02  0.72577895321E+03  0.73191791329E+03  0.77000000000E+02 0.  0.
   -5000001    1    1    2    0    0 -0.37810784134E+02 -0.39875900844E+02  0.15991662887E+03  0.18580115999E+03  0.77000000000E+02 0.  0.
<mgrwt>
<rscale>  0 0.24031570E+03</rscale>
<asrwt>0</asrwt>
<pdfrwt beam="1">  1        2 0.12881539E+00 0.24031570E+03</pdfrwt>
<pdfrwt beam="2">  1       -2 0.22873912E-02 0.24031570E+03</pdfrwt>
<totfact> 0.20957344E+04</totfact>
</mgrwt>
</event>
<event>
 4    1  0.1330040E-003  0.4236437E+03  0.7818608E-02  0.1035887E+00
         -2   -1    0    0    0  501 -0.00000000000E+00  0.00000000000E+00  0.56878766200E+02  0.56878766257E+02  0.25500000000E-02 0. -1.
          2   -1    0    0  501    0  0.00000000000E+00 -0.00000000000E+00 -0.78884435760E+03  0.78884435761E+03  0.25500000000E-02 0.  1.
    5000001    1    1    2    0    0 -0.14250330634E+03 -0.12635673139E+03 -0.46906416346E+03  0.51207753840E+03  0.77000000000E+02 0.  0.
   -5000001    1    1    2    0    0  0.14250330634E+03  0.12635673139E+03 -0.26290142794E+03  0.33364558547E+03  0.77000000000E+02 0.  0.
<mgrwt>
<rscale>  0 0.42364369E+03</rscale>
<asrwt>0</asrwt>
<pdfrwt beam="1">  1        2 0.11269204E+00 0.42364369E+03</pdfrwt>
<pdfrwt beam="2">  1       -2 0.81255385E-02 0.42364369E+03</pdfrwt>
<totfact> 0.36835725E+03</totfact>
</mgrwt>
</event>
<event>
 4    1  0.1330040E-003  0.2225427E+03  0.7818608E-02  0.1132001E+00
         -2   -1    0    0    0  501 -0.00000000000E+00  0.00000000000E+00  0.14266555318E+02  0.14266555546E+02  0.25500000000E-02 0. -1.
          2   -1    0    0  501    0  0.00000000000E+00 -0.00000000000E+00 -0.86785605291E+03  0.86785605292E+03  0.25500000000E-02 0.  1.
    5000001    1    1    2    0    0  0.30971400676E+02  0.70920051889E+02 -0.34146312851E+03  0.35848981792E+03  0.77000000000E+02 0.  0.
   -5000001    1    1    2    0    0 -0.30971400676E+02 -0.70920051889E+02 -0.51212636908E+03  0.52363279054E+03  0.77000000000E+02 0.  0.
<mgrwt>
<rscale>  0 0.22254273E+03</rscale>
<asrwt>0</asrwt>
<pdfrwt beam="1">  1        2 0.12397940E+00 0.22254273E+03</pdfrwt>
<pdfrwt beam="2">  1       -2 0.20380799E-02 0.22254273E+03</pdfrwt>
<totfact> 0.25959367E+04</totfact>
</mgrwt>
</event>
<event>
 4    1  0.1330040E-003  0.8016952E+03  0.7818608E-02  0.9557567E-01
          2   -1    0    0  501    0  0.00000000000E+00  0.00000000000E+00  0.19521847074E+04  0.19521847074E+04  0.25500000000E-02 0.  1.
         -2   -1    0    0    0  501 -0.00000000000E+00 -0.00000000000E+00 -0.82307169376E+02  0.82307169416E+02  0.25500000000E-02 0. -1.
    5000001    1    1    2    0    0 -0.17542087826E+03  0.32510178276E+03  0.59177001119E+03  0.70184357219E+03  0.77000000000E+02 0.  0.
   -5000001    1    1    2    0    0  0.17542087826E+03 -0.32510178276E+03  0.12781075269E+04  0.13326483047E+04  0.77000000000E+02 0.  0.
<mgrwt>
<rscale>  0 0.80169520E+03</rscale>
<asrwt>0</asrwt>
<pdfrwt beam="1">  1        2 0.27888356E+00 0.80169520E+03</pdfrwt>
<pdfrwt beam="2">  1       -2 0.11758166E-01 0.80169520E+03</pdfrwt>
<totfact> 0.45384590E+02</totfact>
</mgrwt>
</event>
<event>
 4    1  0.1330040E-003  0.2116275E+03  0.7818608E-02  0.1140284E+00
         -2   -1    0    0    0  501 -0.00000000000E+00  0.00000000000E+00  0.23823005516E+03  0.23823005517E+03  0.25500000000E-02 0. -1.
          2   -1    0    0  501    0  0.00000000000E+00 -0.00000000000E+00 -0.46998876550E+02  0.46998876619E+02  0.25500000000E-02 0.  1.
    5000001    1    1    2    0    0  0.72076358340E+02  0.71937521973E+01  0.10176148195E+03  0.14673496758E+03  0.77000000000E+02 0.  0.
   -5000001    1    1    2    0    0 -0.72076358340E+02 -0.71937521973E+01  0.89469696662E+02  0.13849396421E+03  0.77000000000E+02 0.  0.
<mgrwt>
<rscale>  0 0.21162746E+03</rscale>
<asrwt>0</asrwt>
<pdfrwt beam="1">  1        2 0.67141252E-02 0.21162746E+03</pdfrwt>
<pdfrwt beam="2">  1       -2 0.34032865E-01 0.21162746E+03</pdfrwt>
<totfact> 0.84146943E+03</totfact>
</mgrwt>
</event>
<event>
 4    1  0.1330040E-003  0.2365239E+03  0.7818608E-02  0.1122130E+00
         -2   -1    0    0    0  501 -0.00000000000E+00  0.00000000000E+00  0.51222645174E+01  0.51222651521E+01  0.25500000000E-02 0.  1.
          2   -1    0    0  501    0  0.00000000000E+00 -0.00000000000E+00 -0.27304106684E+04  0.27304106684E+04  0.25500000000E-02 0. -1.
    5000001    1    1    2    0    0  0.77660582321E+02  0.42119330204E+02 -0.15461262114E+04  0.15505613388E+04  0.77000000000E+02 0.  0.
   -5000001    1    1    2    0    0 -0.77660582321E+02 -0.42119330204E+02 -0.11791621925E+04  0.11849715947E+04  0.77000000000E+02 0.  0.
<mgrwt>
<rscale>  0 0.23652388E+03</rscale>
<asrwt>0</asrwt>
<pdfrwt beam="1">  1        2 0.39005773E+00 0.23652388E+03</pdfrwt>
<pdfrwt beam="2">  1       -2 0.73175387E-03 0.23652388E+03</pdfrwt>
<totfact> 0.12835010E+04</totfact>
</mgrwt>
</event>
<event>
 4    1  0.1330040E-003  0.1918115E+03  0.7818608E-02  0.1156838E+00
          2   -1    0    0  501    0  0.00000000000E+00  0.00000000000E+00  0.23939037100E+04  0.23939037100E+04  0.25500000000E-02 0.  1.
         -2   -1    0    0    0  501 -0.00000000000E+00 -0.00000000000E+00 -0.38422236967E+01  0.38422245429E+01  0.25500000000E-02 0. -1.
    5000001    1    1    2    0    0  0.50770202809E+02  0.87286524629E+01  0.88499948727E+03  0.88983531922E+03  0.77000000000E+02 0.  0.
   -5000001    1    1    2    0    0 -0.50770202809E+02 -0.87286524629E+01  0.15050619990E+04  0.15079106153E+04  0.77000000000E+02 0.  0.
<mgrwt>
<rscale>  0 0.19181152E+03</rscale>
<asrwt>0</asrwt>
<pdfrwt beam="1">  1        2 0.34198633E+00 0.19181152E+03</pdfrwt>
<pdfrwt beam="2">  1       -2 0.54888902E-03 0.19181152E+03</pdfrwt>
<totfact> 0.28348416E+04</totfact>
</mgrwt>
</event>
<event>
 4    1  0.1330040E-003  0.3428279E+03  0.7818608E-02  0.1065598E+00
          2   -1    0    0  501    0  0.00000000000E+00  0.00000000000E+00  0.89400669638E+03  0.89400669638E+03  0.25500000000E-02 0. -1.
         -2   -1    0    0    0  501 -0.00000000000E+00 -0.00000000000E+00 -0.32866354135E+02  0.32866354234E+02  0.25500000000E-02 0.  1.
    5000001    1    1    2    0    0  0.45327916384E+02 -0.14213927515E+03  0.52405205774E+03  0.55028879033E+03  0.77000000000E+02 0.  0.
   -5000001    1    1    2    0    0 -0.45327916384E+02  0.14213927515E+03  0.33708828451E+03  0.37658426029E+03  0.77000000000E+02 0.  0.
<mgrwt>
<rscale>  0 0.34282789E+03</rscale>
<asrwt>0</asrwt>
<pdfrwt beam="1">  1        2 0.12771524E+00 0.34282789E+03</pdfrwt>
<pdfrwt beam="2">  1       -2 0.46951936E-02 0.34282789E+03</pdfrwt>
<totfact> 0.73233932E+03</totfact>
</mgrwt>
</event>
<event>
 4    1  0.1330040E-003  0.1832801E+03  0.7818608E-02  0.1164666E+00
         -2   -1    0    0    0  501 -0.00000000000E+00  0.00000000000E+00  0.56918896681E+02  0.56918896738E+02  0.25500000000E-02 0. -1.
          2   -1    0    0  501    0  0.00000000000E+00 -0.00000000000E+00 -0.14754155202E+03  0.14754155204E+03  0.25500000000E-02 0.  1.
    5000001    1    1    2    0    0 -0.42926361038E+02 -0.19534953307E+02 -0.62758935123E+02  0.10996349763E+03  0.77000000000E+02 0.  0.
   -5000001    1    1    2    0    0  0.42926361038E+02  0.19534953307E+02 -0.27863720214E+02  0.94496951151E+02  0.77000000000E+02 0.  0.
<mgrwt>
<rscale>  0 0.18328014E+03</rscale>
<asrwt>0</asrwt>
<pdfrwt beam="1">  1        2 0.21077364E-01 0.18328014E+03</pdfrwt>
<pdfrwt beam="2">  1       -2 0.81312710E-02 0.18328014E+03</pdfrwt>
<totfact> 0.22963036E+04</totfact>
</mgrwt>
</event>
<event>
 4    1  0.1330040E-003  0.2392031E+03  0.7818608E-02  0.1120325E+00
         -2   -1    0    0    0  501 -0.00000000000E+00  0.00000000000E+00  0.19132627617E+03  0.19132627619E+03  0.25500000000E-02 0. -1.
          2   -1    0    0  501    0  0.00000000000E+00 -0.00000000000E+00 -0.74765091164E+02  0.74765091208E+02  0.25500000000E-02 0.  1.
    5000001    1    1    2    0    0  0.22906158072E+02 -0.66800133815E+02 -0.64743162768E+01  0.10467982961E+03  0.77000000000E+02 0.  0.
   -5000001    1    1    2    0    0 -0.22906158072E+02  0.66800133815E+02  0.12303550129E+03  0.16141153779E+03  0.77000000000E+02 0.  0.
<mgrwt>
<rscale>  0 0.23920306E+03</rscale>
<asrwt>0</asrwt>
<pdfrwt beam="1">  1        2 0.10680727E-01 0.23920306E+03</pdfrwt>
<pdfrwt beam="2">  1       -2 0.27332326E-01 0.23920306E+03</pdfrwt>
<totfact> 0.70325118E+03</totfact>
</mgrwt>
</event>
<event>
 4    1  0.1330040E-003  0.2638173E+03  0.7818608E-02  0.1104871E+00
         -2   -1    0    0    0  501 -0.00000000000E+00  0.00000000000E+00  0.27933429869E+02  0.27933429985E+02  0.25500000000E-02 0. -1.
          2   -1    0    0  501    0  0.00000000000E+00 -0.00000000000E+00 -0.62290545418E+03  0.62290545419E+03  0.25500000000E-02 0.  1.
    5000001    1    1    2    0    0  0.24038287175E+02  0.97936515834E+02 -0.20848602186E+03  0.24405905371E+03  0.77000000000E+02 0.  0.
   -5000001    1    1    2    0    0 -0.24038287175E+02 -0.97936515834E+02 -0.38648600245E+03  0.40677983047E+03  0.77000000000E+02 0.  0.
<mgrwt>
<rscale>  0 0.26381725E+03</rscale>
<asrwt>0</asrwt>
<pdfrwt beam="1">  1        2 0.88986485E-01 0.26381725E+03</pdfrwt>
<pdfrwt beam="2">  1       -2 0.39904904E-02 0.26381725E+03</pdfrwt>
<totfact> 0.14416096E+04</totfact>
</mgrwt>
</event>
<event>
 4    1  0.1330040E-003  0.2236543E+03  0.7818608E-02  0.1131188E+00
         -2   -1    0    0    0  501 -0.00000000000E+00  0.00000000000E+00  0.39546420218E+02  0.39546420300E+02  0.25500000000E-02 0. -1.
          2   -1    0    0  501    0  0.00000000000E+00 -0.00000000000E+00 -0.31621846117E+03  0.31621846118E+03  0.25500000000E-02 0.  1.
    5000001    1    1    2    0    0  0.61346215565E+02 -0.52722230246E+02 -0.12915448852E+03  0.17074212612E+03  0.77000000000E+02 0.  0.
   -5000001    1    1    2    0    0 -0.61346215565E+02  0.52722230246E+02 -0.14751755243E+03  0.18502275536E+03  0.77000000000E+02 0.  0.
<mgrwt>
<rscale>  0 0.22365427E+03</rscale>
<asrwt>0</asrwt>
<pdfrwt beam="1">  1        2 0.45174065E-01 0.22365427E+03</pdfrwt>
<pdfrwt beam="2">  1       -2 0.56494888E-02 0.22365427E+03</pdfrwt>
<totfact> 0.17737395E+04</totfact>
</mgrwt>
</event>
<event>
 4    1  0.1330040E-003  0.3016134E+03  0.7818608E-02  0.1084437E+00
          2   -1    0    0  501    0  0.00000000000E+00  0.00000000000E+00  0.28586783584E+02  0.28586783698E+02  0.25500000000E-02 0.  1.
         -2   -1    0    0    0  501 -0.00000000000E+00 -0.00000000000E+00 -0.79556537530E+03  0.79556537531E+03  0.25500000000E-02 0. -1.
    5000001    1    1    2    0    0 -0.69048750905E+02  0.14584965793E+01 -0.83615475091E+02  0.13300528143E+03  0.77000000000E+02 0.  0.
   -5000001    1    1    2    0    0  0.69048750905E+02 -0.14584965793E+01 -0.68336311663E+03  0.69114687757E+03  0.77000000000E+02 0.  0.
<mgrwt>
<rscale>  0 0.30161336E+03</rscale>
<asrwt>0</asrwt>
<pdfrwt beam="1">  1        2 0.40838267E-02 0.30161336E+03</pdfrwt>
<pdfrwt beam="2">  1       -2 0.11365218E+00 0.30161336E+03</pdfrwt>
<totfact> 0.13094524E+03</totfact>
</mgrwt>
</event>
<event>
 4    1  0.1330040E-003  0.3830391E+03  0.7818608E-02  0.1049816E+00
         -2   -1    0    0    0  501 -0.00000000000E+00  0.00000000000E+00  0.63456721030E+03  0.63456721031E+03  0.25500000000E-02 0. -1.
          2   -1    0    0  501    0  0.00000000000E+00 -0.00000000000E+00 -0.57802761120E+02  0.57802761176E+02  0.25500000000E-02 0.  1.
    5000001    1    1    2    0    0  0.15287060388E+03 -0.77117365447E+02  0.35683705775E+03  0.40320986517E+03  0.77000000000E+02 0.  0.
   -5000001    1    1    2    0    0 -0.15287060388E+03  0.77117365447E+02  0.21992739143E+03  0.28916010632E+03  0.77000000000E+02 0.  0.
<mgrwt>
<rscale>  0 0.38303909E+03</rscale>
<asrwt>0</asrwt>
<pdfrwt beam="1">  1        2 0.82575372E-02 0.38303909E+03</pdfrwt>
<pdfrwt beam="2">  1       -2 0.90652460E-01 0.38303909E+03</pdfrwt>
<totfact> 0.88451359E+02</totfact>
</mgrwt>
</event>
<event>
 4    1  0.1330040E-003  0.3274466E+03  0.7818608E-02  0.1072272E+00
          2   -1    0    0  501    0  0.00000000000E+00  0.00000000000E+00  0.83677086703E+03  0.83677086704E+03  0.25500000000E-02 0.  1.
         -2   -1    0    0    0  501 -0.00000000000E+00 -0.00000000000E+00 -0.32034232193E+02  0.32034232294E+02  0.25500000000E-02 0. -1.
    5000001    1    1    2    0    0  0.11398645468E+03  0.80107792056E+02  0.50396276223E+03  0.52850509545E+03  0.77000000000E+02 0.  0.
   -5000001    1    1    2    0    0 -0.11398645468E+03 -0.80107792056E+02  0.30077387261E+03  0.34030000388E+03  0.77000000000E+02 0.  0.
<mgrwt>
<rscale>  0 0.32744656E+03</rscale>
<asrwt>0</asrwt>
<pdfrwt beam="1">  1        2 0.11953869E+00 0.32744656E+03</pdfrwt>
<pdfrwt beam="2">  1       -2 0.45763191E-02 0.32744656E+03</pdfrwt>
<totfact> 0.82813769E+03</totfact>
</mgrwt>
</event>
<event>
 4    1  0.1330040E-003  0.1806684E+03  0.7818608E-02  0.1167158E+00
          2   -1    0    0  501    0  0.00000000000E+00  0.00000000000E+00  0.56514592766E+03  0.56514592767E+03  0.25500000000E-02 0.  1.
         -2   -1    0    0    0  501 -0.00000000000E+00 -0.00000000000E+00 -0.14439229520E+02  0.14439229746E+02  0.25500000000E-02 0. -1.
    5000001    1    1    2    0    0  0.13592992179E+02  0.42378674822E+02  0.32613214763E+03  0.33804126854E+03  0.77000000000E+02 0.  0.
   -5000001    1    1    2    0    0 -0.13592992179E+02 -0.42378674822E+02  0.22457455051E+03  0.24154388887E+03  0.77000000000E+02 0.  0.
<mgrwt>
<rscale>  0 0.18066845E+03</rscale>
<asrwt>0</asrwt>
<pdfrwt beam="1">  1        2 0.80735155E-01 0.18066845E+03</pdfrwt>
<pdfrwt beam="2">  1       -2 0.20627465E-02 0.18066845E+03</pdfrwt>
<totfact> 0.41668826E+04</totfact>
</mgrwt>
</event>
<event>
 4    1  0.1330040E-003  0.1899909E+03  0.7818608E-02  0.1158470E+00
          2   -1    0    0  501    0  0.00000000000E+00  0.00000000000E+00  0.19514568956E+04  0.19514568956E+04  0.25500000000E-02 0.  1.
         -2   -1    0    0    0  501 -0.00000000000E+00 -0.00000000000E+00 -0.46243051493E+01  0.46243058523E+01  0.25500000000E-02 0. -1.
    5000001    1    1    2    0    0  0.29418730825E+02  0.43916583153E+02  0.11520407425E+04  0.11558204880E+04  0.77000000000E+02 0.  0.
   -5000001    1    1    2    0    0 -0.29418730825E+02 -0.43916583153E+02  0.79479184794E+03  0.80026071349E+03  0.77000000000E+02 0.  0.
<mgrwt>
<rscale>  0 0.18999087E+03</rscale>
<asrwt>0</asrwt>
<pdfrwt beam="1">  1        2 0.27878016E+00 0.18999087E+03</pdfrwt>
<pdfrwt beam="2">  1       -2 0.66061364E-03 0.18999087E+03</pdfrwt>
<totfact> 0.35562352E+04</totfact>
</mgrwt>
</event>
<event>
 4    1  0.1330040E-003  0.2336864E+03  0.7818608E-02  0.1124072E+00
          2   -1    0    0  501    0  0.00000000000E+00  0.00000000000E+00  0.22524983071E+03  0.22524983072E+03  0.25500000000E-02 0.  1.
         -2   -1    0    0    0  501 -0.00000000000E+00 -0.00000000000E+00 -0.60609741360E+02  0.60609741414E+02  0.25500000000E-02 0. -1.
    5000001    1    1    2    0    0  0.74463162432E+02 -0.40318178554E+02  0.53553473183E+02  0.12636175280E+03  0.77000000000E+02 0.  0.
   -5000001    1    1    2    0    0 -0.74463162432E+02  0.40318178554E+02  0.11108661616E+03  0.15949781933E+03  0.77000000000E+02 0.  0.
<mgrwt>
<rscale>  0 0.23368641E+03</rscale>
<asrwt>0</asrwt>
<pdfrwt beam="1">  1        2 0.32178547E-01 0.23368641E+03</pdfrwt>
<pdfrwt beam="2">  1       -2 0.86585346E-02 0.23368641E+03</pdfrwt>
<totfact> 0.13258323E+04</totfact>
</mgrwt>
</event>
<event>
 4    1  0.1330040E-003  0.2148639E+03  0.7818608E-02  0.1137771E+00
          2   -1    0    0  501    0  0.00000000000E+00  0.00000000000E+00  0.98601236451E+03  0.98601236451E+03  0.25500000000E-02 0.  1.
         -2   -1    0    0    0  501 -0.00000000000E+00 -0.00000000000E+00 -0.11705348847E+02  0.11705349124E+02  0.25500000000E-02 0. -1.
    5000001    1    1    2    0    0  0.15489457048E+02  0.28901411251E+02  0.17436697407E+03  0.19341162451E+03  0.77000000000E+02 0.  0.
   -5000001    1    1    2    0    0 -0.15489457048E+02 -0.28901411251E+02  0.79994004160E+03  0.80430608912E+03  0.77000000000E+02 0.  0.
<mgrwt>
<rscale>  0 0.21486385E+03</rscale>
<asrwt>0</asrwt>
<pdfrwt beam="1">  1        2 0.14085898E+00 0.21486385E+03</pdfrwt>
<pdfrwt beam="2">  1       -2 0.16721919E-02 0.21486385E+03</pdfrwt>
<totfact> 0.29290678E+04</totfact>
</mgrwt>
</event>
<event>
 4    1  0.1330040E-003  0.1726403E+03  0.7818608E-02  0.1175122E+00
         -2   -1    0    0    0  501 -0.00000000000E+00  0.00000000000E+00  0.49902619053E+01  0.49902625568E+01  0.25500000000E-02 0. -1.
          2   -1    0    0  501    0  0.00000000000E+00 -0.00000000000E+00 -0.14931419618E+04  0.14931419618E+04  0.25500000000E-02 0.  1.
    5000001    1    1    2    0    0 -0.58934650067E+01  0.28251761829E+02 -0.97190231305E+03  0.97537480031E+03  0.77000000000E+02 0.  0.
   -5000001    1    1    2    0    0  0.58934650067E+01 -0.28251761829E+02 -0.51624938683E+03  0.52275742403E+03  0.77000000000E+02 0.  0.
<mgrwt>
<rscale>  0 0.17264032E+03</rscale>
<asrwt>0</asrwt>
<pdfrwt beam="1">  1        2 0.21330571E+00 0.17264032E+03</pdfrwt>
<pdfrwt beam="2">  1       -2 0.71289556E-03 0.17264032E+03</pdfrwt>
<totfact> 0.52919068E+04</totfact>
</mgrwt>
</event>
<event>
 4    1  0.1330040E-003  0.3253746E+03  0.7818608E-02  0.1073202E+00
          2   -1    0    0  501    0  0.00000000000E+00  0.00000000000E+00  0.93483439312E+03  0.93483439312E+03  0.25500000000E-02 0.  1.
         -2   -1    0    0    0  501 -0.00000000000E+00 -0.00000000000E+00 -0.28312135124E+02  0.28312135239E+02  0.25500000000E-02 0. -1.
    5000001    1    1    2    0    0  0.55102913763E+02  0.10595242082E+03  0.21875882833E+03  0.26085756948E+03  0.77000000000E+02 0.  0.
   -5000001    1    1    2    0    0 -0.55102913763E+02 -0.10595242082E+03  0.68776342967E+03  0.70228895888E+03  0.77000000000E+02 0.  0.
<mgrwt>
<rscale>  0 0.32537460E+03</rscale>
<asrwt>0</asrwt>
<pdfrwt beam="1">  1        2 0.13354775E+00 0.32537460E+03</pdfrwt>
<pdfrwt beam="2">  1       -2 0.40445913E-02 0.32537460E+03</pdfrwt>
<totfact> 0.86489164E+03</totfact>
</mgrwt>
</event>
<event>
 4    1  0.1330040E-003  0.1578531E+03  0.7818608E-02  0.1191142E+00
          2   -1    0    0  501    0  0.00000000000E+00  0.00000000000E+00  0.46670301525E+03  0.46670301525E+03  0.25500000000E-02 0.  1.
         -2   -1    0    0    0  501 -0.00000000000E+00 -0.00000000000E+00 -0.13347670415E+02  0.13347670658E+02  0.25500000000E-02 0. -1.
    5000001    1    1    2    0    0 -0.45728484417E+01  0.16560184910E+02  0.23364405066E+03  0.24660432493E+03  0.77000000000E+02 0.  0.
   -5000001    1    1    2    0    0  0.45728484417E+01 -0.16560184910E+02  0.21971129417E+03  0.23344636098E+03  0.77000000000E+02 0.  0.
<mgrwt>
<rscale>  0 0.15785307E+03</rscale>
<asrwt>0</asrwt>
<pdfrwt beam="1">  1        2 0.66671844E-01 0.15785307E+03</pdfrwt>
<pdfrwt beam="2">  1       -2 0.19068105E-02 0.15785307E+03</pdfrwt>
<totfact> 0.56889607E+04</totfact>
</mgrwt>
</event>
<event>
 4    1  0.1330040E-003  0.3076345E+03  0.7818608E-02  0.1081485E+00
         -2   -1    0    0    0  501 -0.00000000000E+00  0.00000000000E+00  0.98424097996E+02  0.98424098029E+02  0.25500000000E-02 0. -1.
          2   -1    0    0  501    0  0.00000000000E+00 -0.00000000000E+00 -0.24038564384E+03  0.24038564385E+03  0.25500000000E-02 0.  1.
    5000001    1    1    2    0    0 -0.90297547138E+01 -0.89020323859E+02 -0.17958743363E+03  0.21491114640E+03  0.77000000000E+02 0.  0.
   -5000001    1    1    2    0    0  0.90297547138E+01  0.89020323859E+02  0.37625887786E+02  0.12389859548E+03  0.77000000000E+02 0.  0.
<mgrwt>
<rscale>  0 0.30763446E+03</rscale>
<asrwt>0</asrwt>
<pdfrwt beam="1">  1        2 0.34340806E-01 0.30763446E+03</pdfrwt>
<pdfrwt beam="2">  1       -2 0.14060586E-01 0.30763446E+03</pdfrwt>
<totfact> 0.57459154E+03</totfact>
</mgrwt>
</event>
<event>
 4    1  0.1330040E-003  0.2927001E+03  0.7818608E-02  0.1088948E+00
         -2   -1    0    0    0  501 -0.00000000000E+00  0.00000000000E+00  0.19165294303E+02  0.19165294472E+02  0.25500000000E-02 0. -1.
          2   -1    0    0  501    0  0.00000000000E+00 -0.00000000000E+00 -0.11175585750E+04  0.11175585750E+04  0.25500000000E-02 0.  1.
    5000001    1    1    2    0    0 -0.10907338903E+03  0.48601709226E+02 -0.68541056171E+03  0.69998269153E+03  0.77000000000E+02 0.  0.
   -5000001    1    1    2    0    0  0.10907338903E+03 -0.48601709226E+02 -0.41298271902E+03  0.43674117798E+03  0.77000000000E+02 0.  0.
<mgrwt>
<rscale>  0 0.29270011E+03</rscale>
<asrwt>0</asrwt>
<pdfrwt beam="1">  1        2 0.15965118E+00 0.29270011E+03</pdfrwt>
<pdfrwt beam="2">  1       -2 0.27378999E-02 0.29270011E+03</pdfrwt>
<totfact> 0.12090840E+04</totfact>
</mgrwt>
</event>
<event>
 4    1  0.1330040E-003  0.2380784E+03  0.7818608E-02  0.1121080E+00
          2   -1    0    0  501    0  0.00000000000E+00  0.00000000000E+00  0.51487366238E+03  0.51487366238E+03  0.25500000000E-02 0.  1.
         -2   -1    0    0    0  501 -0.00000000000E+00 -0.00000000000E+00 -0.27521954261E+02  0.27521954379E+02  0.25500000000E-02 0. -1.
    5000001    1    1    2    0    0 -0.38934556371E+02  0.63633055456E+02  0.36153429120E+03  0.37709562334E+03  0.77000000000E+02 0.  0.
   -5000001    1    1    2    0    0  0.38934556371E+02 -0.63633055456E+02  0.12581741691E+03  0.16529999342E+03  0.77000000000E+02 0.  0.
<mgrwt>
<rscale>  0 0.23807839E+03</rscale>
<asrwt>0</asrwt>
<pdfrwt beam="1">  1        2 0.73553366E-01 0.23807839E+03</pdfrwt>
<pdfrwt beam="2">  1       -2 0.39317086E-02 0.23807839E+03</pdfrwt>
<totfact> 0.18172601E+04</totfact>
</mgrwt>
</event>
<event>
 4    1  0.1330040E-003  0.1751473E+03  0.7818608E-02  0.1172584E+00
         -2   -1    0    0    0  501 -0.00000000000E+00  0.00000000000E+00  0.29977455489E+03  0.29977455490E+03  0.25500000000E-02 0. -1.
          2   -1    0    0  501    0  0.00000000000E+00 -0.00000000000E+00 -0.25583053536E+02  0.25583053663E+02  0.25500000000E-02 0.  1.
    5000001    1    1    2    0    0 -0.31146323865E+02 -0.13585305180E+02  0.92146877568E+02  0.12479864203E+03  0.77000000000E+02 0.  0.
   -5000001    1    1    2    0    0  0.31146323865E+02  0.13585305180E+02  0.18204462379E+03  0.20055896653E+03  0.77000000000E+02 0.  0.
<mgrwt>
<rscale>  0 0.17514735E+03</rscale>
<asrwt>0</asrwt>
<pdfrwt beam="1">  1        2 0.36547223E-02 0.17514735E+03</pdfrwt>
<pdfrwt beam="2">  1       -2 0.42824932E-01 0.17514735E+03</pdfrwt>
<totfact> 0.11964219E+04</totfact>
</mgrwt>
</event>
<event>
 4    1  0.1330040E-003  0.1751451E+03  0.7818608E-02  0.1172586E+00
         -2   -1    0    0    0  501 -0.00000000000E+00  0.00000000000E+00  0.12097229156E+03  0.12097229159E+03  0.25500000000E-02 0. -1.
          2   -1    0    0  501    0  0.00000000000E+00 -0.00000000000E+00 -0.63394300849E+02  0.63394300900E+02  0.25500000000E-02 0.  1.
    5000001    1    1    2    0    0 -0.94769119207E+01 -0.39684946232E+02  0.19657774033E+02  0.89331600774E+02  0.77000000000E+02 0.  0.
   -5000001    1    1    2    0    0  0.94769119207E+01  0.39684946232E+02  0.37920216678E+02  0.95034991713E+02  0.77000000000E+02 0.  0.
<mgrwt>
<rscale>  0 0.17514513E+03</rscale>
<asrwt>0</asrwt>
<pdfrwt beam="1">  1        2 0.90563287E-02 0.17514513E+03</pdfrwt>
<pdfrwt beam="2">  1       -2 0.17281756E-01 0.17514513E+03</pdfrwt>
<totfact> 0.18607615E+04</totfact>
</mgrwt>
</event>
<event>
 4    1  0.1330040E-003  0.2371625E+03  0.7818608E-02  0.1121698E+00
          2   -1    0    0  501    0  0.00000000000E+00  0.00000000000E+00  0.24518198647E+04  0.24518198647E+04  0.25500000000E-02 0.  1.
         -2   -1    0    0    0  501 -0.00000000000E+00 -0.00000000000E+00 -0.57351307861E+01  0.57351313530E+01  0.25500000000E-02 0. -1.
    5000001    1    1    2    0    0 -0.84605611010E+02  0.25022330117E+02  0.14164273419E+04  0.14212598782E+04  0.77000000000E+02 0.  0.
   -5000001    1    1    2    0    0  0.84605611010E+02 -0.25022330117E+02  0.10296573920E+04  0.10362951179E+04  0.77000000000E+02 0.  0.
<mgrwt>
<rscale>  0 0.23716246E+03</rscale>
<asrwt>0</asrwt>
<pdfrwt beam="1">  1        2 0.35025918E+00 0.23716246E+03</pdfrwt>
<pdfrwt beam="2">  1       -2 0.81930631E-03 0.23716246E+03</pdfrwt>
<totfact> 0.15039203E+04</totfact>
</mgrwt>
</event>
<event>
 4    1  0.1330040E-003  0.2878897E+03  0.7818608E-02  0.1091456E+00
          2   -1    0    0  501    0  0.00000000000E+00  0.00000000000E+00  0.29123592318E+04  0.29123592318E+04  0.25500000000E-02 0.  1.
         -2   -1    0    0    0  501 -0.00000000000E+00 -0.00000000000E+00 -0.71145458907E+01  0.71145463476E+01  0.25500000000E-02 0. -1.
    5000001    1    1    2    0    0  0.23676054907E+02  0.11820403188E+03  0.16156253595E+04  0.16219454525E+04  0.77000000000E+02 0.  0.
   -5000001    1    1    2    0    0 -0.23676054907E+02 -0.11820403188E+03  0.12896193264E+04  0.12975283256E+04  0.77000000000E+02 0.  0.
<mgrwt>
<rscale>  0 0.28788966E+03</rscale>
<asrwt>0</asrwt>
<pdfrwt beam="1">  1        2 0.41605226E+00 0.28788966E+03</pdfrwt>
<pdfrwt beam="2">  1       -2 0.10163614E-02 0.28788966E+03</pdfrwt>
<totfact> 0.64285230E+03</totfact>
</mgrwt>
</event>
<event>
 4    1  0.1330040E-003  0.1945926E+03  0.7818608E-02  0.1154383E+00
          2   -1    0    0  501    0  0.00000000000E+00  0.00000000000E+00  0.56901726039E+03  0.56901726039E+03  0.25500000000E-02 0.  1.
         -2   -1    0    0    0  501 -0.00000000000E+00 -0.00000000000E+00 -0.16636706976E+02  0.16636707172E+02  0.25500000000E-02 0. -1.
    5000001    1    1    2    0    0 -0.44539475604E+02 -0.73291443209E+01  0.15962379962E+03  0.18288312839E+03  0.77000000000E+02 0.  0.
   -5000001    1    1    2    0    0  0.44539475604E+02  0.73291443209E+01  0.39275675379E+03  0.40277083918E+03  0.77000000000E+02 0.  0.
<mgrwt>
<rscale>  0 0.19459264E+03</rscale>
<asrwt>0</asrwt>
<pdfrwt beam="1">  1        2 0.81288187E-01 0.19459264E+03</pdfrwt>
<pdfrwt beam="2">  1       -2 0.23766722E-02 0.19459264E+03</pdfrwt>
<totfact> 0.33820568E+04</totfact>
</mgrwt>
</event>
<event>
 4    1  0.1330040E-003  0.1712399E+03  0.7818608E-02  0.1176561E+00
         -2   -1    0    0    0  501 -0.00000000000E+00  0.00000000000E+00  0.17129520870E+02  0.17129521060E+02  0.25500000000E-02 0. -1.
          2   -1    0    0  501    0  0.00000000000E+00 -0.00000000000E+00 -0.42796165061E+03  0.42796165062E+03  0.25500000000E-02 0.  1.
    5000001    1    1    2    0    0 -0.30965802955E+02  0.20900182631E+02 -0.21182487316E+03  0.22846110276E+03  0.77000000000E+02 0.  0.
   -5000001    1    1    2    0    0  0.30965802955E+02 -0.20900182631E+02 -0.19900725659E+03  0.21663006892E+03  0.77000000000E+02 0.  0.
<mgrwt>
<rscale>  0 0.17123993E+03</rscale>
<asrwt>0</asrwt>
<pdfrwt beam="1">  1        2 0.61137372E-01 0.17123993E+03</pdfrwt>
<pdfrwt beam="2">  1       -2 0.24470747E-02 0.17123993E+03</pdfrwt>
<totfact> 0.43752331E+04</totfact>
</mgrwt>
</event>
<event>
 4    1  0.1330040E-003  0.2452779E+03  0.7818608E-02  0.1116326E+00
         -2   -1    0    0    0  501 -0.00000000000E+00  0.00000000000E+00  0.16712996005E+02  0.16712996199E+02  0.25500000000E-02 0. -1.
          2   -1    0    0  501    0  0.00000000000E+00 -0.00000000000E+00 -0.89991718137E+03  0.89991718138E+03  0.25500000000E-02 0.  1.
    5000001    1    1    2    0    0 -0.35928411450E+02  0.84548617636E+02 -0.53847850685E+03  0.55165879113E+03  0.77000000000E+02 0.  0.
   -5000001    1    1    2    0    0  0.35928411450E+02 -0.84548617636E+02 -0.34472567852E+03  0.36497138645E+03  0.77000000000E+02 0.  0.
<mgrwt>
<rscale>  0 0.24527790E+03</rscale>
<asrwt>0</asrwt>
<pdfrwt beam="1">  1        2 0.12855957E+00 0.24527790E+03</pdfrwt>
<pdfrwt beam="2">  1       -2 0.23875714E-02 0.24527790E+03</pdfrwt>
<totfact> 0.19746104E+04</totfact>
</mgrwt>
</event>
<event>
 4    1  0.1330040E-003  0.3105144E+03  0.7818608E-02  0.1080100E+00
          2   -1    0    0  501    0  0.00000000000E+00  0.00000000000E+00  0.25490287425E+04  0.25490287425E+04  0.25500000000E-02 0.  1.
         -2   -1    0    0    0  501 -0.00000000000E+00 -0.00000000000E+00 -0.94564628628E+01  0.94564632066E+01  0.25500000000E-02 0. -1.
    5000001    1    1    2    0    0  0.18490680296E+02  0.12833652717E+03  0.15740489825E+04  0.15812562628E+04  0.77000000000E+02 0.  0.
   -5000001    1    1    2    0    0 -0.18490680296E+02 -0.12833652717E+03  0.96552329719E+03  0.97722894292E+03  0.77000000000E+02 0.  0.
<mgrwt>
<rscale>  0 0.31051439E+03</rscale>
<asrwt>0</asrwt>
<pdfrwt beam="1">  1        2 0.36414746E+00 0.31051439E+03</pdfrwt>
<pdfrwt beam="2">  1       -2 0.13509214E-02 0.31051439E+03</pdfrwt>
<totfact> 0.65162100E+03</totfact>
</mgrwt>
</event>
<event>
 4    1  0.1330040E-003  0.2718142E+03  0.7818608E-02  0.1100246E+00
          2   -1    0    0  501    0  0.00000000000E+00  0.00000000000E+00  0.44463834994E+03  0.44463834995E+03  0.25500000000E-02 0.  1.
         -2   -1    0    0    0  501 -0.00000000000E+00 -0.00000000000E+00 -0.41541045383E+02  0.41541045462E+02  0.25500000000E-02 0. -1.
    5000001    1    1    2    0    0 -0.20515708932E+02  0.98593816485E+02  0.11392130201E+03  0.17043678597E+03  0.77000000000E+02 0.  0.
   -5000001    1    1    2    0    0  0.20515708932E+02 -0.98593816485E+02  0.28917600255E+03  0.31574260943E+03  0.77000000000E+02 0.  0.
<mgrwt>
<rscale>  0 0.27181422E+03</rscale>
<asrwt>0</asrwt>
<pdfrwt beam="1">  1        2 0.63519762E-01 0.27181422E+03</pdfrwt>
<pdfrwt beam="2">  1       -2 0.59344352E-02 0.27181422E+03</pdfrwt>
<totfact> 0.11516833E+04</totfact>
</mgrwt>
</event>
<event>
 4    1  0.1330040E-003  0.1878928E+03  0.7818608E-02  0.1160376E+00
          2   -1    0    0  501    0  0.00000000000E+00  0.00000000000E+00  0.91808351120E+03  0.91808351120E+03  0.25500000000E-02 0.  1.
         -2   -1    0    0    0  501 -0.00000000000E+00 -0.00000000000E+00 -0.96134280763E+01  0.96134284145E+01  0.25500000000E-02 0. -1.
    5000001    1    1    2    0    0 -0.46294127668E+02 -0.36163366767E+01  0.58861013109E+03  0.59543858673E+03  0.77000000000E+02 0.  0.
   -5000001    1    1    2    0    0  0.46294127668E+02  0.36163366767E+01  0.31985995203E+03  0.33225835288E+03  0.77000000000E+02 0.  0.
<mgrwt>
<rscale>  0 0.18789284E+03</rscale>
<asrwt>0</asrwt>
<pdfrwt beam="1">  1        2 0.13115478E+00 0.18789284E+03</pdfrwt>
<pdfrwt beam="2">  1       -2 0.13733470E-02 0.18789284E+03</pdfrwt>
<totfact> 0.42412310E+04</totfact>
</mgrwt>
</event>
<event>
 4    1  0.1330040E-003  0.2638636E+03  0.7818608E-02  0.1104844E+00
          2   -1    0    0  501    0  0.00000000000E+00  0.00000000000E+00  0.71122047157E+03  0.71122047157E+03  0.25500000000E-02 0.  1.
         -2   -1    0    0    0  501 -0.00000000000E+00 -0.00000000000E+00 -0.24473420169E+02  0.24473420302E+02  0.25500000000E-02 0. -1.
    5000001    1    1    2    0    0  0.94964870236E+02  0.22673264147E+02  0.46632455446E+03  0.48261785460E+03  0.77000000000E+02 0.  0.
   -5000001    1    1    2    0    0 -0.94964870236E+02 -0.22673264147E+02  0.22042249694E+03  0.25307603727E+03  0.77000000000E+02 0.  0.
<mgrwt>
<rscale>  0 0.26386358E+03</rscale>
<asrwt>0</asrwt>
<pdfrwt beam="1">  1        2 0.10160291E+00 0.26386358E+03</pdfrwt>
<pdfrwt beam="2">  1       -2 0.34962034E-02 0.26386358E+03</pdfrwt>
<totfact> 0.15051799E+04</totfact>
</mgrwt>
</event>
<event>
 4    1  0.1330040E-003  0.2584466E+03  0.7818608E-02  0.1108080E+00
          2   -1    0    0  501    0  0.00000000000E+00  0.00000000000E+00  0.11544643401E+04  0.11544643401E+04  0.25500000000E-02 0.  1.
         -2   -1    0    0    0  501 -0.00000000000E+00 -0.00000000000E+00 -0.14464418859E+02  0.14464419084E+02  0.25500000000E-02 0. -1.
    5000001    1    1    2    0    0 -0.56673293832E+02 -0.84817764804E+02  0.48373923887E+03  0.50033845213E+03  0.77000000000E+02 0.  0.
   -5000001    1    1    2    0    0  0.56673293832E+02  0.84817764804E+02  0.65626068236E+03  0.66859030704E+03  0.77000000000E+02 0.  0.
<mgrwt>
<rscale>  0 0.25844656E+03</rscale>
<asrwt>0</asrwt>
<pdfrwt beam="1">  1        2 0.16492346E+00 0.25844656E+03</pdfrwt>
<pdfrwt beam="2">  1       -2 0.20663458E-02 0.25844656E+03</pdfrwt>
<totfact> 0.17404128E+04</totfact>
</mgrwt>
</event>
<event>
 4    1  0.1330040E-003  0.2016494E+03  0.7818608E-02  0.1148355E+00
          2   -1    0    0  501    0  0.00000000000E+00  0.00000000000E+00  0.65993213619E+03  0.65993213620E+03  0.25500000000E-02 0.  1.
         -2   -1    0    0    0  501 -0.00000000000E+00 -0.00000000000E+00 -0.15404036033E+02  0.15404036244E+02  0.25500000000E-02 0. -1.
    5000001    1    1    2    0    0  0.21189994900E+02 -0.49047035369E+02  0.44676587217E+03  0.45649027602E+03  0.77000000000E+02 0.  0.
   -5000001    1    1    2    0    0 -0.21189994900E+02  0.49047035369E+02  0.19776222799E+03  0.21884589642E+03  0.77000000000E+02 0.  0.
<mgrwt>
<rscale>  0 0.20164938E+03</rscale>
<asrwt>0</asrwt>
<pdfrwt beam="1">  1        2 0.94276007E-01 0.20164938E+03</pdfrwt>
<pdfrwt beam="2">  1       -2 0.22005769E-02 0.20164938E+03</pdfrwt>
<totfact> 0.32078009E+04</totfact>
</mgrwt>
</event>
<event>
 4    1  0.1330040E-003  0.2537810E+03  0.7818608E-02  0.1110938E+00
          2   -1    0    0  501    0  0.00000000000E+00  0.00000000000E+00  0.10962763538E+04  0.10962763538E+04  0.25500000000E-02 0.  1.
         -2   -1    0    0    0  501 -0.00000000000E+00 -0.00000000000E+00 -0.14687169792E+02  0.14687170013E+02  0.25500000000E-02 0. -1.
    5000001    1    1    2    0    0  0.37371575431E+02 -0.68451013190E+02  0.26082974624E+03  0.28291930366E+03  0.77000000000E+02 0.  0.
   -5000001    1    1    2    0    0 -0.37371575431E+02  0.68451013190E+02  0.82075943779E+03  0.82804422019E+03  0.77000000000E+02 0.  0.
<mgrwt>
<rscale>  0 0.25378098E+03</rscale>
<asrwt>0</asrwt>
<pdfrwt beam="1">  1        2 0.15661089E+00 0.25378098E+03</pdfrwt>
<pdfrwt beam="2">  1       -2 0.20981674E-02 0.25378098E+03</pdfrwt>
<totfact> 0.18319884E+04</totfact>
</mgrwt>
</event>
<event>
 4    1  0.1330040E-003  0.1922811E+03  0.7818608E-02  0.1156420E+00
         -2   -1    0    0    0  501 -0.00000000000E+00  0.00000000000E+00  0.50906977487E+02  0.50906977551E+02  0.25500000000E-02 0. -1.
          2   -1    0    0  501    0  0.00000000000E+00 -0.00000000000E+00 -0.18156660967E+03  0.18156660969E+03  0.25500000000E-02 0.  1.
    5000001    1    1    2    0    0 -0.28452964645E+02 -0.49918726401E+02 -0.61045536486E+02  0.11382885384E+03  0.77000000000E+02 0.  0.
   -5000001    1    1    2    0    0  0.28452964645E+02  0.49918726401E+02 -0.69614095699E+02  0.11864473340E+03  0.77000000000E+02 0.  0.
<mgrwt>
<rscale>  0 0.19228112E+03</rscale>
<asrwt>0</asrwt>
<pdfrwt beam="1">  1        2 0.25938087E-01 0.19228112E+03</pdfrwt>
<pdfrwt beam="2">  1       -2 0.72724255E-02 0.19228112E+03</pdfrwt>
<totfact> 0.21732125E+04</totfact>
</mgrwt>
</event>
<event>
 4    1  0.1330040E-003  0.3310681E+03  0.7818608E-02  0.1070665E+00
         -2   -1    0    0    0  501 -0.00000000000E+00  0.00000000000E+00  0.21041328493E+02  0.21041328647E+02  0.25500000000E-02 0. -1.
          2   -1    0    0  501    0  0.00000000000E+00 -0.00000000000E+00 -0.13022714248E+04  0.13022714248E+04  0.25500000000E-02 0.  1.
    5000001    1    1    2    0    0 -0.12686654955E+03 -0.71026066686E+02 -0.56770794045E+03  0.59106778731E+03  0.77000000000E+02 0.  0.
   -5000001    1    1    2    0    0  0.12686654955E+03  0.71026066686E+02 -0.71352215590E+03  0.73224496618E+03  0.77000000000E+02 0.  0.
<mgrwt>
<rscale>  0 0.33106810E+03</rscale>
<asrwt>0</asrwt>
<pdfrwt beam="1">  1        2 0.18603872E+00 0.33106810E+03</pdfrwt>
<pdfrwt beam="2">  1       -2 0.30059049E-02 0.33106810E+03</pdfrwt>
<totfact> 0.83705721E+03</totfact>
</mgrwt>
</event>
<event>
 4    1  0.1330040E-003  0.3123732E+03  0.7818608E-02  0.1079214E+00
         -2   -1    0    0    0  501 -0.00000000000E+00  0.00000000000E+00  0.19434288075E+02  0.19434288242E+02  0.25500000000E-02 0. -1.
          2   -1    0    0  501    0  0.00000000000E+00 -0.00000000000E+00 -0.12552174130E+04  0.12552174130E+04  0.25500000000E-02 0.  1.
    5000001    1    1    2    0    0 -0.11183679141E+03 -0.14508096765E+02 -0.92724135359E+03  0.93724248762E+03  0.77000000000E+02 0.  0.
   -5000001    1    1    2    0    0  0.11183679141E+03  0.14508096765E+02 -0.30854177134E+03  0.33740921364E+03  0.77000000000E+02 0.  0.
<mgrwt>
<rscale>  0 0.31237322E+03</rscale>
<asrwt>0</asrwt>
<pdfrwt beam="1">  1        2 0.17931672E+00 0.31237322E+03</pdfrwt>
<pdfrwt beam="2">  1       -2 0.27763277E-02 0.31237322E+03</pdfrwt>
<totfact> 0.99727925E+03</totfact>
</mgrwt>
</event>
<event>
 4    1  0.1330040E-003  0.1927982E+03  0.7818608E-02  0.1155962E+00
         -2   -1    0    0    0  501 -0.00000000000E+00  0.00000000000E+00  0.28499105022E+03  0.28499105023E+03  0.25500000000E-02 0. -1.
          2   -1    0    0  501    0  0.00000000000E+00 -0.00000000000E+00 -0.32607277902E+02  0.32607278002E+02  0.25500000000E-02 0.  1.
    5000001    1    1    2    0    0 -0.34673325455E+02 -0.45233893103E+02  0.10849286026E+03  0.14473439574E+03  0.77000000000E+02 0.  0.
   -5000001    1    1    2    0    0  0.34673325455E+02  0.45233893103E+02  0.14389091206E+03  0.17286393249E+03  0.77000000000E+02 0.  0.
<mgrwt>
<rscale>  0 0.19279816E+03</rscale>
<asrwt>0</asrwt>
<pdfrwt beam="1">  1        2 0.46581827E-02 0.19279816E+03</pdfrwt>
<pdfrwt beam="2">  1       -2 0.40713006E-01 0.19279816E+03</pdfrwt>
<totfact> 0.96215599E+03</totfact>
</mgrwt>
</event>
<event>
 4    1  0.1330040E-003  0.4923529E+03  0.7818608E-02  0.1015794E+00
         -2   -1    0    0    0  501 -0.00000000000E+00  0.00000000000E+00  0.10731254543E+03  0.10731254546E+03  0.25500000000E-02 0. -1.
          2   -1    0    0  501    0  0.00000000000E+00 -0.00000000000E+00 -0.56473206370E+03  0.56473206370E+03  0.25500000000E-02 0.  1.
    5000001    1    1    2    0    0 -0.14643918908E+03  0.15484544255E+03 -0.36000416067E+03  0.42538634542E+03  0.77000000000E+02 0.  0.
   -5000001    1    1    2    0    0  0.14643918908E+03 -0.15484544255E+03 -0.97415357598E+02  0.24665826374E+03  0.77000000000E+02 0.  0.
<mgrwt>
<rscale>  0 0.49235286E+03</rscale>
<asrwt>0</asrwt>
<pdfrwt beam="1">  1        2 0.80676007E-01 0.49235286E+03</pdfrwt>
<pdfrwt beam="2">  1       -2 0.15330364E-01 0.49235286E+03</pdfrwt>
<totfact> 0.19595710E+03</totfact>
</mgrwt>
</event>
<event>
 4    1  0.1330040E-003  0.4244534E+03  0.7818608E-02  0.1035627E+00
         -2   -1    0    0    0  501 -0.00000000000E+00  0.00000000000E+00  0.15981970131E+02  0.15981970334E+02  0.25500000000E-02 0. -1.
          2   -1    0    0  501    0  0.00000000000E+00 -0.00000000000E+00 -0.28181859441E+04  0.28181859441E+04  0.25500000000E-02 0.  1.
    5000001    1    1    2    0    0  0.15032070778E+03 -0.80410182879E+02 -0.73174449408E+03  0.75527552411E+03  0.77000000000E+02 0.  0.
   -5000001    1    1    2    0    0 -0.15032070778E+03  0.80410182879E+02 -0.20704594799E+04  0.20788923903E+04  0.77000000000E+02 0.  0.
<mgrwt>
<rscale>  0 0.42445336E+03</rscale>
<asrwt>0</asrwt>
<pdfrwt beam="1">  1        2 0.40259768E+00 0.42445336E+03</pdfrwt>
<pdfrwt beam="2">  1       -2 0.22831404E-02 0.42445336E+03</pdfrwt>
<totfact> 0.21683519E+03</totfact>
</mgrwt>
</event>
<event>
 4    1  0.1330040E-003  0.1934785E+03  0.7818608E-02  0.1155361E+00
          2   -1    0    0  501    0  0.00000000000E+00  0.00000000000E+00  0.61044257319E+03  0.61044257319E+03  0.25500000000E-02 0.  1.
         -2   -1    0    0    0  501 -0.00000000000E+00 -0.00000000000E+00 -0.15330654333E+02  0.15330654545E+02  0.25500000000E-02 0. -1.
    5000001    1    1    2    0    0  0.13958795188E+02  0.49407895267E+02  0.20644793727E+03  0.22624265487E+03  0.77000000000E+02 0.  0.
   -5000001    1    1    2    0    0 -0.13958795188E+02 -0.49407895267E+02  0.38866398158E+03  0.39953057287E+03  0.77000000000E+02 0.  0.
<mgrwt>
<rscale>  0 0.19347852E+03</rscale>
<asrwt>0</asrwt>
<pdfrwt beam="1">  1        2 0.87206081E-01 0.19347852E+03</pdfrwt>
<pdfrwt beam="2">  1       -2 0.21900935E-02 0.19347852E+03</pdfrwt>
<totfact> 0.35208726E+04</totfact>
</mgrwt>
</event>
<event>
 4    1  0.1330040E-003  0.2173644E+03  0.7818608E-02  0.1135863E+00
          2   -1    0    0  501    0  0.00000000000E+00  0.00000000000E+00  0.24887265187E+03  0.24887265188E+03  0.25500000000E-02 0.  1.
         -2   -1    0    0    0  501 -0.00000000000E+00 -0.00000000000E+00 -0.47461320378E+02  0.47461320446E+02  0.25500000000E-02 0. -1.
    5000001    1    1    2    0    0  0.42299782075E+02 -0.42200605977E+02  0.35144143279E+02  0.10360633917E+03  0.77000000000E+02 0.  0.
   -5000001    1    1    2    0    0 -0.42299782075E+02  0.42200605977E+02  0.16626718821E+03  0.19272763316E+03  0.77000000000E+02 0.  0.
<mgrwt>
<rscale>  0 0.21736444E+03</rscale>
<asrwt>0</asrwt>
<pdfrwt beam="1">  1        2 0.35553236E-01 0.21736444E+03</pdfrwt>
<pdfrwt beam="2">  1       -2 0.67801887E-02 0.21736444E+03</pdfrwt>
<totfact> 0.17315987E+04</totfact>
</mgrwt>
</event>
<event>
 4    1  0.1330040E-003  0.9364739E+03  0.7818608E-02  0.9381102E-01
          2   -1    0    0  501    0  0.00000000000E+00  0.00000000000E+00  0.66168868979E+03  0.66168868979E+03  0.25500000000E-02 0.  1.
         -2   -1    0    0    0  501 -0.00000000000E+00 -0.00000000000E+00 -0.33134291594E+03  0.33134291594E+03  0.25500000000E-02 0. -1.
    5000001    1    1    2    0    0 -0.17143382955E+03 -0.32435191953E+03 -0.13234875590E+03  0.39754109072E+03  0.77000000000E+02 0.  0.
   -5000001    1    1    2    0    0  0.17143382955E+03  0.32435191953E+03  0.46269452975E+03  0.59549051502E+03  0.77000000000E+02 0.  0.
<mgrwt>
<rscale>  0 0.93647394E+03</rscale>
<asrwt>0</asrwt>
<pdfrwt beam="1">  1        2 0.94526954E-01 0.93647394E+03</pdfrwt>
<pdfrwt beam="2">  1       -2 0.47334703E-01 0.93647394E+03</pdfrwt>
<totfact> 0.20419394E+02</totfact>
</mgrwt>
</event>
<event>
 4    1  0.1330040E-003  0.3462046E+03  0.7818608E-02  0.1064184E+00
          2   -1    0    0  501    0  0.00000000000E+00  0.00000000000E+00  0.44574610782E+03  0.44574610783E+03  0.25500000000E-02 0.  1.
         -2   -1    0    0    0  501 -0.00000000000E+00 -0.00000000000E+00 -0.67223026841E+02  0.67223026890E+02  0.25500000000E-02 0. -1.
    5000001    1    1    2    0    0  0.97407787515E+01  0.15386112557E+03  0.16503805325E+03  0.23860990707E+03  0.77000000000E+02 0.  0.
   -5000001    1    1    2    0    0 -0.97407787515E+01 -0.15386112557E+03  0.21348502773E+03  0.27435922765E+03  0.77000000000E+02 0.  0.
<mgrwt>
<rscale>  0 0.34620458E+03</rscale>
<asrwt>0</asrwt>
<pdfrwt beam="1">  1        2 0.63678015E-01 0.34620458E+03</pdfrwt>
<pdfrwt beam="2">  1       -2 0.96032896E-02 0.34620458E+03</pdfrwt>
<totfact> 0.54627402E+03</totfact>
</mgrwt>
</event>
<event>
 4    1  0.1330040E-003  0.2349648E+03  0.7818608E-02  0.1123193E+00
          2   -1    0    0  501    0  0.00000000000E+00  0.00000000000E+00  0.56750441667E+03  0.56750441667E+03  0.25500000000E-02 0.  1.
         -2   -1    0    0    0  501 -0.00000000000E+00 -0.00000000000E+00 -0.24320723449E+02  0.24320723583E+02  0.25500000000E-02 0. -1.
    5000001    1    1    2    0    0 -0.33089956166E+02 -0.67827278766E+02  0.38913109182E+03  0.40379139610E+03  0.77000000000E+02 0.  0.
   -5000001    1    1    2    0    0  0.33089956166E+02  0.67827278766E+02  0.15405260140E+03  0.18803374416E+03  0.77000000000E+02 0.  0.
<mgrwt>
<rscale>  0 0.23496483E+03</rscale>
<asrwt>0</asrwt>
<pdfrwt beam="1">  1        2 0.81072058E-01 0.23496483E+03</pdfrwt>
<pdfrwt beam="2">  1       -2 0.34743891E-02 0.23496483E+03</pdfrwt>
<totfact> 0.19599432E+04</totfact>
</mgrwt>
</event>
<event>
 4    1  0.1330040E-003  0.2818791E+03  0.7818608E-02  0.1094667E+00
         -2   -1    0    0    0  501 -0.00000000000E+00  0.00000000000E+00  0.13786958390E+02  0.13786958626E+02  0.25500000000E-02 0. -1.
          2   -1    0    0  501    0  0.00000000000E+00 -0.00000000000E+00 -0.14407782689E+04  0.14407782689E+04  0.25500000000E-02 0.  1.
    5000001    1    1    2    0    0  0.57058145722E+02 -0.10309747678E+03 -0.67692392397E+03  0.69140416585E+03  0.77000000000E+02 0.  0.
   -5000001    1    1    2    0    0 -0.57058145722E+02  0.10309747678E+03 -0.75006738652E+03  0.76316106165E+03  0.77000000000E+02 0.  0.
<mgrwt>
<rscale>  0 0.28187905E+03</rscale>
<asrwt>0</asrwt>
<pdfrwt beam="1">  1        2 0.20582537E+00 0.28187905E+03</pdfrwt>
<pdfrwt beam="2">  1       -2 0.19695664E-02 0.28187905E+03</pdfrwt>
<totfact> 0.13226435E+04</totfact>
</mgrwt>
</event>
<event>
 4    1  0.1330040E-003  0.2829900E+03  0.7818608E-02  0.1094067E+00
         -2   -1    0    0    0  501 -0.00000000000E+00  0.00000000000E+00  0.24288613163E+02  0.24288613297E+02  0.25500000000E-02 0. -1.
          2   -1    0    0  501    0  0.00000000000E+00 -0.00000000000E+00 -0.82428894947E+03  0.82428894948E+03  0.25500000000E-02 0.  1.
    5000001    1    1    2    0    0  0.44637232203E+02 -0.92733982757E+02 -0.57739447203E+03  0.59152806390E+03  0.77000000000E+02 0.  0.
   -5000001    1    1    2    0    0 -0.44637232203E+02  0.92733982757E+02 -0.22260586428E+03  0.25704949887E+03  0.77000000000E+02 0.  0.
<mgrwt>
<rscale>  0 0.28299000E+03</rscale>
<asrwt>0</asrwt>
<pdfrwt beam="1">  1        2 0.11775555E+00 0.28299000E+03</pdfrwt>
<pdfrwt beam="2">  1       -2 0.34698024E-02 0.28299000E+03</pdfrwt>
<totfact> 0.12752596E+04</totfact>
</mgrwt>
</event>
<event>
 4    1  0.1330040E-003  0.1850936E+03  0.7818608E-02  0.1162963E+00
          2   -1    0    0  501    0  0.00000000000E+00  0.00000000000E+00  0.16743221153E+04  0.16743221153E+04  0.25500000000E-02 0.  1.
         -2   -1    0    0    0  501 -0.00000000000E+00 -0.00000000000E+00 -0.51154467558E+01  0.51154473914E+01  0.25500000000E-02 0. -1.
    5000001    1    1    2    0    0 -0.50310065855E+02 -0.52698830845E+00  0.74183833262E+03  0.74751889085E+03  0.77000000000E+02 0.  0.
   -5000001    1    1    2    0    0  0.50310065855E+02  0.52698830845E+00  0.92736833593E+03  0.93191867184E+03  0.77000000000E+02 0.  0.
<mgrwt>
<rscale>  0 0.18509356E+03</rscale>
<asrwt>0</asrwt>
<pdfrwt beam="1">  1        2 0.23918872E+00 0.18509356E+03</pdfrwt>
<pdfrwt beam="2">  1       -2 0.73077863E-03 0.18509356E+03</pdfrwt>
<totfact> 0.41818115E+04</totfact>
</mgrwt>
</event>
<event>
 4    1  0.1330040E-003  0.2101004E+03  0.7818608E-02  0.1141487E+00
          2   -1    0    0  501    0  0.00000000000E+00  0.00000000000E+00  0.96521597128E+01  0.96521600497E+01  0.25500000000E-02 0.  1.
         -2   -1    0    0    0  501 -0.00000000000E+00 -0.00000000000E+00 -0.11433233960E+04  0.11433233960E+04  0.25500000000E-02 0. -1.
    5000001    1    1    2    0    0 -0.63296673662E+02 -0.24671360024E+02 -0.68848469322E+03  0.69610007736E+03  0.77000000000E+02 0.  0.
   -5000001    1    1    2    0    0  0.63296673662E+02  0.24671360024E+02 -0.44518654305E+03  0.45687547868E+03  0.77000000000E+02 0.  0.
<mgrwt>
<rscale>  0 0.21010036E+03</rscale>
<asrwt>0</asrwt>
<pdfrwt beam="1">  1        2 0.13788807E-02 0.21010036E+03</pdfrwt>
<pdfrwt beam="2">  1       -2 0.16333183E+00 0.21010036E+03</pdfrwt>
<totfact> 0.22975238E+03</totfact>
</mgrwt>
</event>
<event>
 4    1  0.1330040E-003  0.6853704E+03  0.7818608E-02  0.9742583E-01
          2   -1    0    0  501    0  0.00000000000E+00  0.00000000000E+00  0.54033486095E+03  0.54033486095E+03  0.25500000000E-02 0.  1.
         -2   -1    0    0    0  501 -0.00000000000E+00 -0.00000000000E+00 -0.21733400031E+03  0.21733400033E+03  0.25500000000E-02 0. -1.
    5000001    1    1    2    0    0 -0.23835395608E+03  0.18507949598E+03  0.34615882155E+01  0.31146109036E+03  0.77000000000E+02 0.  0.
   -5000001    1    1    2    0    0  0.23835395608E+03 -0.18507949598E+03  0.31953927242E+03  0.44620777092E+03  0.77000000000E+02 0.  0.
<mgrwt>
<rscale>  0 0.68537037E+03</rscale>
<asrwt>0</asrwt>
<pdfrwt beam="1">  1        2 0.77190694E-01 0.68537037E+03</pdfrwt>
<pdfrwt beam="2">  1       -2 0.31047714E-01 0.68537037E+03</pdfrwt>
<totfact> 0.59282449E+02</totfact>
</mgrwt>
</event>
<event>
 4    1  0.1330040E-003  0.1954397E+03  0.7818608E-02  0.1153645E+00
          2   -1    0    0  501    0  0.00000000000E+00  0.00000000000E+00  0.27129439245E+04  0.27129439245E+04  0.25500000000E-02 0.  1.
         -2   -1    0    0    0  501 -0.00000000000E+00 -0.00000000000E+00 -0.35198551229E+01  0.35198560466E+01  0.25500000000E-02 0. -1.
    5000001    1    1    2    0    0 -0.47275490886E+02 -0.10828573050E+02  0.85978568135E+03  0.86458813772E+03  0.77000000000E+02 0.  0.
   -5000001    1    1    2    0    0  0.47275490886E+02  0.10828573050E+02  0.18496383881E+04  0.18518756429E+04  0.77000000000E+02 0.  0.
<mgrwt>
<rscale>  0 0.19543972E+03</rscale>
<asrwt>0</asrwt>
<pdfrwt beam="1">  1        2 0.38756259E+00 0.19543972E+03</pdfrwt>
<pdfrwt beam="2">  1       -2 0.50283759E-03 0.19543972E+03</pdfrwt>
<totfact> 0.22339733E+04</totfact>
</mgrwt>
</event>
<event>
 4    1  0.1330040E-003  0.2878869E+03  0.7818608E-02  0.1091458E+00
         -2   -1    0    0    0  501 -0.00000000000E+00  0.00000000000E+00  0.10914469509E+02  0.10914469807E+02  0.25500000000E-02 0. -1.
          2   -1    0    0  501    0  0.00000000000E+00 -0.00000000000E+00 -0.18983714562E+04  0.18983714562E+04  0.25500000000E-02 0.  1.
    5000001    1    1    2    0    0  0.39040427628E+02 -0.10741958647E+03 -0.12193861391E+04  0.12271490043E+04  0.77000000000E+02 0.  0.
   -5000001    1    1    2    0    0 -0.39040427628E+02  0.10741958647E+03 -0.66807084764E+03  0.68213692175E+03  0.77000000000E+02 0.  0.
<mgrwt>
<rscale>  0 0.28788691E+03</rscale>
<asrwt>0</asrwt>
<pdfrwt beam="1">  1        2 0.27119571E+00 0.28788691E+03</pdfrwt>
<pdfrwt beam="2">  1       -2 0.15592112E-02 0.28788691E+03</pdfrwt>
<totfact> 0.11049666E+04</totfact>
</mgrwt>
</event>
<event>
 4    1  0.1330040E-003  0.2828930E+03  0.7818608E-02  0.1094119E+00
          2   -1    0    0  501    0  0.00000000000E+00  0.00000000000E+00  0.22304546492E+02  0.22304546638E+02  0.25500000000E-02 0.  1.
         -2   -1    0    0    0  501 -0.00000000000E+00 -0.00000000000E+00 -0.89699731720E+03  0.89699731721E+03  0.25500000000E-02 0. -1.
    5000001    1    1    2    0    0  0.11473878647E+03  0.22044731987E+02 -0.37018328940E+03  0.39574692302E+03  0.77000000000E+02 0.  0.
   -5000001    1    1    2    0    0 -0.11473878647E+03 -0.22044731987E+02 -0.50450948131E+03  0.52355494083E+03  0.77000000000E+02 0.  0.
<mgrwt>
<rscale>  0 0.28289304E+03</rscale>
<asrwt>0</asrwt>
<pdfrwt beam="1">  1        2 0.31863644E-02 0.28289304E+03</pdfrwt>
<pdfrwt beam="2">  1       -2 0.12814245E+00 0.28289304E+03</pdfrwt>
<totfact> 0.13653042E+03</totfact>
</mgrwt>
</event>
<event>
 4    1  0.1330040E-003  0.3925819E+03  0.7818608E-02  0.1046379E+00
          2   -1    0    0  501    0  0.00000000000E+00  0.00000000000E+00  0.27328178641E+04  0.27328178641E+04  0.25500000000E-02 0.  1.
         -2   -1    0    0    0  501 -0.00000000000E+00 -0.00000000000E+00 -0.14099053688E+02  0.14099053918E+02  0.25500000000E-02 0. -1.
    5000001    1    1    2    0    0 -0.23956514522E+02 -0.16554230796E+03  0.18351063523E+04  0.18443216896E+04  0.77000000000E+02 0.  0.
   -5000001    1    1    2    0    0  0.23956514522E+02  0.16554230796E+03  0.88361245804E+03  0.90259522839E+03  0.77000000000E+02 0.  0.
<mgrwt>
<rscale>  0 0.39258195E+03</rscale>
<asrwt>0</asrwt>
<pdfrwt beam="1">  1        2 0.39040295E+00 0.39258195E+03</pdfrwt>
<pdfrwt beam="2">  1       -2 0.20141485E-02 0.39258195E+03</pdfrwt>
<totfact> 0.29023320E+03</totfact>
</mgrwt>
</event>
<event>
 4    1  0.1330040E-003  0.2056910E+03  0.7818608E-02  0.1145024E+00
          2   -1    0    0  501    0  0.00000000000E+00  0.00000000000E+00  0.19836287712E+04  0.19836287712E+04  0.25500000000E-02 0.  1.
         -2   -1    0    0    0  501 -0.00000000000E+00 -0.00000000000E+00 -0.53322478238E+01  0.53322484335E+01  0.25500000000E-02 0. -1.
    5000001    1    1    2    0    0  0.35594135296E+02  0.35074413330E+02  0.54067605339E+03  0.54841293899E+03  0.77000000000E+02 0.  0.
   -5000001    1    1    2    0    0 -0.35594135296E+02 -0.35074413330E+02  0.14376204699E+04  0.14405480806E+04  0.77000000000E+02 0.  0.
<mgrwt>
<rscale>  0 0.20569104E+03</rscale>
<asrwt>0</asrwt>
<pdfrwt beam="1">  1        2 0.28337510E+00 0.20569104E+03</pdfrwt>
<pdfrwt beam="2">  1       -2 0.76175092E-03 0.20569104E+03</pdfrwt>
<totfact> 0.28089871E+04</totfact>
</mgrwt>
</event>
<event>
 4    1  0.1330040E-003  0.2169830E+03  0.7818608E-02  0.1136153E+00
         -2   -1    0    0    0  501 -0.00000000000E+00  0.00000000000E+00  0.75596457517E+01  0.75596461818E+01  0.25500000000E-02 0. -1.
          2   -1    0    0  501    0  0.00000000000E+00 -0.00000000000E+00 -0.15570047904E+04  0.15570047904E+04  0.25500000000E-02 0.  1.
    5000001    1    1    2    0    0 -0.75110016441E+02 -0.21403694331E+01 -0.87549208217E+03  0.88207793403E+03  0.77000000000E+02 0.  0.
   -5000001    1    1    2    0    0  0.75110016441E+02  0.21403694331E+01 -0.67395306245E+03  0.68248650253E+03  0.77000000000E+02 0.  0.
<mgrwt>
<rscale>  0 0.21698299E+03</rscale>
<asrwt>0</asrwt>
<pdfrwt beam="1">  1        2 0.22242905E+00 0.21698299E+03</pdfrwt>
<pdfrwt beam="2">  1       -2 0.10799504E-02 0.21698299E+03</pdfrwt>
<totfact> 0.27476569E+04</totfact>
</mgrwt>
</event>
<event>
 4    1  0.1330040E-003  0.3914378E+03  0.7818608E-02  0.1046785E+00
          2   -1    0    0  501    0  0.00000000000E+00  0.00000000000E+00  0.25879602728E+03  0.25879602730E+03  0.25500000000E-02 0.  1.
         -2   -1    0    0    0  501 -0.00000000000E+00 -0.00000000000E+00 -0.14801575487E+03  0.14801575489E+03  0.25500000000E-02 0. -1.
    5000001    1    1    2    0    0  0.14121241067E+03 -0.10351123483E+03  0.12271233512E+02  0.19166403897E+03  0.77000000000E+02 0.  0.
   -5000001    1    1    2    0    0 -0.14121241067E+03  0.10351123483E+03  0.98509038906E+02  0.21514774321E+03  0.77000000000E+02 0.  0.
<mgrwt>
<rscale>  0 0.39143781E+03</rscale>
<asrwt>0</asrwt>
<pdfrwt beam="1">  1        2 0.36970861E-01 0.39143781E+03</pdfrwt>
<pdfrwt beam="2">  1       -2 0.21145108E-01 0.39143781E+03</pdfrwt>
<totfact> 0.26766255E+03</totfact>
</mgrwt>
</event>
<event>
 4    1  0.1330040E-003  0.2094907E+03  0.7818608E-02  0.1141970E+00
          2   -1    0    0  501    0  0.00000000000E+00  0.00000000000E+00  0.25070815697E+04  0.25070815697E+04  0.25500000000E-02 0.  1.
         -2   -1    0    0    0  501 -0.00000000000E+00 -0.00000000000E+00 -0.43762391892E+01  0.43762399321E+01  0.25500000000E-02 0. -1.
    5000001    1    1    2    0    0 -0.58489137840E+02  0.30238760904E+02  0.15701691207E+04  0.15734342787E+04  0.77000000000E+02 0.  0.
   -5000001    1    1    2    0    0  0.58489137840E+02 -0.30238760904E+02  0.93253620983E+03  0.93802353092E+03  0.77000000000E+02 0.  0.
<mgrwt>
<rscale>  0 0.20949071E+03</rscale>
<asrwt>0</asrwt>
<pdfrwt beam="1">  1        2 0.35815366E+00 0.20949071E+03</pdfrwt>
<pdfrwt beam="2">  1       -2 0.62517857E-03 0.20949071E+03</pdfrwt>
<totfact> 0.20770989E+04</totfact>
</mgrwt>
</event>
<event>
 4    1  0.1330040E-003  0.2957989E+03  0.7818608E-02  0.1087360E+00
         -2   -1    0    0    0  501 -0.00000000000E+00  0.00000000000E+00  0.25229447670E+02  0.25229447799E+02  0.25500000000E-02 0. -1.
          2   -1    0    0  501    0  0.00000000000E+00 -0.00000000000E+00 -0.86701276081E+03  0.86701276081E+03  0.25500000000E-02 0.  1.
    5000001    1    1    2    0    0 -0.11429223974E+03  0.46423979507E+02 -0.33954153035E+03  0.36937156465E+03  0.77000000000E+02 0.  0.
   -5000001    1    1    2    0    0  0.11429223974E+03 -0.46423979507E+02 -0.50224178278E+03  0.52287064396E+03  0.77000000000E+02 0.  0.
<mgrwt>
<rscale>  0 0.29579894E+03</rscale>
<asrwt>0</asrwt>
<pdfrwt beam="1">  1        2 0.12385895E+00 0.29579894E+03</pdfrwt>
<pdfrwt beam="2">  1       -2 0.36042074E-02 0.29579894E+03</pdfrwt>
<totfact> 0.11317258E+04</totfact>
</mgrwt>
</event>
<event>
 4    1  0.1330040E-003  0.2209666E+03  0.7818608E-02  0.1133164E+00
         -2   -1    0    0    0  501 -0.00000000000E+00  0.00000000000E+00  0.52718558444E+02  0.52718558506E+02  0.25500000000E-02 0. -1.
          2   -1    0    0  501    0  0.00000000000E+00 -0.00000000000E+00 -0.23154195410E+03  0.23154195412E+03  0.25500000000E-02 0.  1.
    5000001    1    1    2    0    0  0.10380612404E+01  0.77695718935E+02 -0.69488227589E+02  0.12959674412E+03  0.77000000000E+02 0.  0.
   -5000001    1    1    2    0    0 -0.10380612404E+01 -0.77695718935E+02 -0.10933516807E+03  0.15466376851E+03  0.77000000000E+02 0.  0.
<mgrwt>
<rscale>  0 0.22096659E+03</rscale>
<asrwt>0</asrwt>
<pdfrwt beam="1">  1        2 0.33077421E-01 0.22096659E+03</pdfrwt>
<pdfrwt beam="2">  1       -2 0.75312228E-02 0.22096659E+03</pdfrwt>
<totfact> 0.15935833E+04</totfact>
</mgrwt>
</event>
<event>
 4    1  0.1330040E-003  0.1955335E+03  0.7818608E-02  0.1153563E+00
          2   -1    0    0  501    0  0.00000000000E+00  0.00000000000E+00  0.43220393217E+03  0.43220393218E+03  0.25500000000E-02 0.  1.
         -2   -1    0    0    0  501 -0.00000000000E+00 -0.00000000000E+00 -0.22115337383E+02  0.22115337530E+02  0.25500000000E-02 0. -1.
    5000001    1    1    2    0    0  0.92021973075E+01 -0.59378836879E+02  0.21512113202E+03  0.23625542987E+03  0.77000000000E+02 0.  0.
   -5000001    1    1    2    0    0 -0.92021973075E+01  0.59378836879E+02  0.19496746277E+03  0.21806383983E+03  0.77000000000E+02 0.  0.
<mgrwt>
<rscale>  0 0.19553348E+03</rscale>
<asrwt>0</asrwt>
<pdfrwt beam="1">  1        2 0.61743418E-01 0.19553348E+03</pdfrwt>
<pdfrwt beam="2">  1       -2 0.31593340E-02 0.19553348E+03</pdfrwt>
<totfact> 0.30062270E+04</totfact>
</mgrwt>
</event>
<event>
 4    1  0.1330040E-003  0.2512222E+03  0.7818608E-02  0.1112535E+00
          2   -1    0    0  501    0  0.00000000000E+00  0.00000000000E+00  0.21999272401E+04  0.21999272401E+04  0.25500000000E-02 0.  1.
         -2   -1    0    0    0  501 -0.00000000000E+00 -0.00000000000E+00 -0.71721224520E+01  0.71721229053E+01  0.25500000000E-02 0. -1.
    5000001    1    1    2    0    0  0.88708079277E+02  0.14284130708E+01  0.14871062503E+04  0.14917389730E+04  0.77000000000E+02 0.  0.
   -5000001    1    1    2    0    0 -0.88708079277E+02 -0.14284130708E+01  0.70564886731E+03  0.71536039003E+03  0.77000000000E+02 0.  0.
<mgrwt>
<rscale>  0 0.25122220E+03</rscale>
<asrwt>0</asrwt>
<pdfrwt beam="1">  1        2 0.31427597E+00 0.25122220E+03</pdfrwt>
<pdfrwt beam="2">  1       -2 0.10245868E-02 0.25122220E+03</pdfrwt>
<totfact> 0.14485075E+04</totfact>
</mgrwt>
</event>
<event>
 4    1  0.1330040E-003  0.2254987E+03  0.7818608E-02  0.1129849E+00
          2   -1    0    0  501    0  0.00000000000E+00  0.00000000000E+00  0.90756538798E+03  0.90756538798E+03  0.25500000000E-02 0.  1.
         -2   -1    0    0    0  501 -0.00000000000E+00 -0.00000000000E+00 -0.14007157968E+02  0.14007158200E+02  0.25500000000E-02 0. -1.
    5000001    1    1    2    0    0 -0.63938221317E+02 -0.22309541116E+01  0.65875625278E+03  0.66631964842E+03  0.77000000000E+02 0.  0.
   -5000001    1    1    2    0    0  0.63938221317E+02  0.22309541116E+01  0.23480197723E+03  0.25525289776E+03  0.77000000000E+02 0.  0.
<mgrwt>
<rscale>  0 0.22549866E+03</rscale>
<asrwt>0</asrwt>
<pdfrwt beam="1">  1        2 0.12965214E+00 0.22549866E+03</pdfrwt>
<pdfrwt beam="2">  1       -2 0.20010234E-02 0.22549866E+03</pdfrwt>
<totfact> 0.25203025E+04</totfact>
</mgrwt>
</event>
<event>
 4    1  0.1330040E-003  0.2265390E+03  0.7818608E-02  0.1129100E+00
         -2   -1    0    0    0  501 -0.00000000000E+00  0.00000000000E+00  0.34026475087E+02  0.34026475182E+02  0.25500000000E-02 0. -1.
          2   -1    0    0  501    0  0.00000000000E+00 -0.00000000000E+00 -0.37705877807E+03  0.37705877808E+03  0.25500000000E-02 0.  1.
    5000001    1    1    2    0    0 -0.53183461122E+02 -0.62813582167E+02 -0.15106993573E+03  0.18848117180E+03  0.77000000000E+02 0.  0.
   -5000001    1    1    2    0    0  0.53183461122E+02  0.62813582167E+02 -0.19196236726E+03  0.22260408146E+03  0.77000000000E+02 0.  0.
<mgrwt>
<rscale>  0 0.22653901E+03</rscale>
<asrwt>0</asrwt>
<pdfrwt beam="1">  1        2 0.53865537E-01 0.22653901E+03</pdfrwt>
<pdfrwt beam="2">  1       -2 0.48609252E-02 0.22653901E+03</pdfrwt>
<totfact> 0.18468491E+04</totfact>
</mgrwt>
</event>
<event>
 4    1  0.1330040E-003  0.3977960E+03  0.7818608E-02  0.1044546E+00
          2   -1    0    0  501    0  0.00000000000E+00  0.00000000000E+00  0.76295933679E+03  0.76295933679E+03  0.25500000000E-02 0.  1.
         -2   -1    0    0    0  501 -0.00000000000E+00 -0.00000000000E+00 -0.51851272057E+02  0.51851272120E+02  0.25500000000E-02 0. -1.
    5000001    1    1    2    0    0 -0.11207386617E+03  0.14500241388E+03  0.36931903851E+03  0.41941841127E+03  0.77000000000E+02 0.  0.
   -5000001    1    1    2    0    0  0.11207386617E+03 -0.14500241388E+03  0.34178902622E+03  0.39539219764E+03  0.77000000000E+02 0.  0.
<mgrwt>
<rscale>  0 0.39779599E+03</rscale>
<asrwt>0</asrwt>
<pdfrwt beam="1">  1        2 0.10899419E+00 0.39779599E+03</pdfrwt>
<pdfrwt beam="2">  1       -2 0.74073245E-02 0.39779599E+03</pdfrwt>
<totfact> 0.44388984E+03</totfact>
</mgrwt>
</event>
<event>
 4    1  0.1330040E-003  0.3488021E+03  0.7818608E-02  0.1063108E+00
          2   -1    0    0  501    0  0.00000000000E+00  0.00000000000E+00  0.17565511282E+04  0.17565511282E+04  0.25500000000E-02 0.  1.
         -2   -1    0    0    0  501 -0.00000000000E+00 -0.00000000000E+00 -0.17315594947E+02  0.17315595135E+02  0.25500000000E-02 0. -1.
    5000001    1    1    2    0    0 -0.96261899492E+02 -0.78414063956E+02  0.38524016598E+03  0.41201226220E+03  0.77000000000E+02 0.  0.
   -5000001    1    1    2    0    0  0.96261899492E+02  0.78414063956E+02  0.13539953673E+04  0.13618544611E+04  0.77000000000E+02 0.  0.
<mgrwt>
<rscale>  0 0.34880211E+03</rscale>
<asrwt>0</asrwt>
<pdfrwt beam="1">  1        2 0.25093576E+00 0.34880211E+03</pdfrwt>
<pdfrwt beam="2">  1       -2 0.24736576E-02 0.34880211E+03</pdfrwt>
<totfact> 0.65775961E+03</totfact>
</mgrwt>
</event>
<event>
 4    1  0.1330040E-003  0.2194267E+03  0.7818608E-02  0.1134311E+00
          2   -1    0    0  501    0  0.00000000000E+00  0.00000000000E+00  0.11841247546E+04  0.11841247546E+04  0.25500000000E-02 0.  1.
         -2   -1    0    0    0  501 -0.00000000000E+00 -0.00000000000E+00 -0.10165330180E+02  0.10165330499E+02  0.25500000000E-02 0. -1.
    5000001    1    1    2    0    0  0.42911587666E+02 -0.37399910690E+02  0.29550596196E+03  0.31063311354E+03  0.77000000000E+02 0.  0.
   -5000001    1    1    2    0    0 -0.42911587666E+02  0.37399910690E+02  0.87845346246E+03  0.88365697155E+03  0.77000000000E+02 0.  0.
<mgrwt>
<rscale>  0 0.21942670E+03</rscale>
<asrwt>0</asrwt>
<pdfrwt beam="1">  1        2 0.16916071E+00 0.21942670E+03</pdfrwt>
<pdfrwt beam="2">  1       -2 0.14521898E-02 0.21942670E+03</pdfrwt>
<totfact> 0.27852194E+04</totfact>
</mgrwt>
</event>
<event>
 4    1  0.1330040E-003  0.2737539E+03  0.7818608E-02  0.1099150E+00
         -2   -1    0    0    0  501 -0.00000000000E+00  0.00000000000E+00  0.71733085580E+03  0.71733085581E+03  0.25500000000E-02 0. -1.
          2   -1    0    0  501    0  0.00000000000E+00 -0.00000000000E+00 -0.26118073678E+02  0.26118073803E+02  0.25500000000E-02 0.  1.
    5000001    1    1    2    0    0  0.59977592335E+02  0.34023529480E+02  0.58928993169E+03  0.59828633256E+03  0.77000000000E+02 0.  0.
   -5000001    1    1    2    0    0 -0.59977592335E+02 -0.34023529480E+02  0.10192285043E+03  0.14516259705E+03  0.77000000000E+02 0.  0.
<mgrwt>
<rscale>  0 0.27375391E+03</rscale>
<asrwt>0</asrwt>
<pdfrwt beam="1">  1        2 0.37311531E-02 0.27375391E+03</pdfrwt>
<pdfrwt beam="2">  1       -2 0.10247585E+00 0.27375391E+03</pdfrwt>
<totfact> 0.18842291E+03</totfact>
</mgrwt>
</event>
<event>
 4    1  0.1330040E-003  0.3074397E+03  0.7818608E-02  0.1081580E+00
         -2   -1    0    0    0  501 -0.00000000000E+00  0.00000000000E+00  0.61388577924E+02  0.61388577977E+02  0.25500000000E-02 0. -1.
          2   -1    0    0  501    0  0.00000000000E+00 -0.00000000000E+00 -0.38492171764E+03  0.38492171765E+03  0.25500000000E-02 0.  1.
    5000001    1    1    2    0    0  0.70550530997E+02 -0.72116857811E+02 -0.35856555617E+02  0.13188218676E+03  0.77000000000E+02 0.  0.
   -5000001    1    1    2    0    0 -0.70550530997E+02  0.72116857811E+02 -0.28767658410E+03  0.31442810886E+03  0.77000000000E+02 0.  0.
<mgrwt>
<rscale>  0 0.30743973E+03</rscale>
<asrwt>0</asrwt>
<pdfrwt beam="1">  1        2 0.54988815E-01 0.30743973E+03</pdfrwt>
<pdfrwt beam="2">  1       -2 0.87697971E-02 0.30743973E+03</pdfrwt>
<totfact> 0.73768430E+03</totfact>
</mgrwt>
</event>
<event>
 4    1  0.1330040E-003  0.1736286E+03  0.7818608E-02  0.1174116E+00
         -2   -1    0    0    0  501 -0.00000000000E+00  0.00000000000E+00  0.46935771465E+02  0.46935771534E+02  0.25500000000E-02 0. -1.
          2   -1    0    0  501    0  0.00000000000E+00 -0.00000000000E+00 -0.16057517371E+03  0.16057517373E+03  0.25500000000E-02 0.  1.
    5000001    1    1    2    0    0  0.74239529329E+01  0.39332336539E+02 -0.59640818330E+02  0.10530040354E+03  0.77000000000E+02 0.  0.
   -5000001    1    1    2    0    0 -0.74239529329E+01 -0.39332336539E+02 -0.53998583916E+02  0.10221054172E+03  0.77000000000E+02 0.  0.
<mgrwt>
<rscale>  0 0.17362857E+03</rscale>
<asrwt>0</asrwt>
<pdfrwt beam="1">  1        2 0.22939310E-01 0.17362857E+03</pdfrwt>
<pdfrwt beam="2">  1       -2 0.67051103E-02 0.17362857E+03</pdfrwt>
<totfact> 0.27980873E+04</totfact>
</mgrwt>
</event>
<event>
 4    1  0.1330040E-003  0.2287470E+03  0.7818608E-02  0.1127525E+00
          2   -1    0    0  501    0  0.00000000000E+00  0.00000000000E+00  0.18765280176E+03  0.18765280178E+03  0.25500000000E-02 0.  1.
         -2   -1    0    0    0  501 -0.00000000000E+00 -0.00000000000E+00 -0.69710096239E+02  0.69710096286E+02  0.25500000000E-02 0. -1.
    5000001    1    1    2    0    0 -0.11763668089E+02 -0.32813867242E+02 -0.27720840767E+02  0.88952677212E+02  0.77000000000E+02 0.  0.
   -5000001    1    1    2    0    0  0.11763668089E+02  0.32813867242E+02  0.14566354629E+03  0.16841022086E+03  0.77000000000E+02 0.  0.
<mgrwt>
<rscale>  0 0.22874698E+03</rscale>
<asrwt>0</asrwt>
<pdfrwt beam="1">  1        2 0.26807543E-01 0.22874698E+03</pdfrwt>
<pdfrwt beam="2">  1       -2 0.99585853E-02 0.22874698E+03</pdfrwt>
<totfact> 0.12976346E+04</totfact>
</mgrwt>
</event>
<event>
 4    1  0.1330040E-003  0.2265135E+03  0.7818608E-02  0.1129118E+00
         -2   -1    0    0    0  501 -0.00000000000E+00  0.00000000000E+00  0.13790889301E+02  0.13790889537E+02  0.25500000000E-02 0. -1.
          2   -1    0    0  501    0  0.00000000000E+00 -0.00000000000E+00 -0.93011334167E+03  0.93011334167E+03  0.25500000000E-02 0.  1.
    5000001    1    1    2    0    0  0.51545326045E+02 -0.65124228543E+02 -0.45788278807E+03  0.47168181371E+03  0.77000000000E+02 0.  0.
   -5000001    1    1    2    0    0 -0.51545326045E+02  0.65124228543E+02 -0.45843966430E+03  0.47222241749E+03  0.77000000000E+02 0.  0.
<mgrwt>
<rscale>  0 0.22651349E+03</rscale>
<asrwt>0</asrwt>
<pdfrwt beam="1">  1        2 0.13287329E+00 0.22651349E+03</pdfrwt>
<pdfrwt beam="2">  1       -2 0.19701277E-02 0.22651349E+03</pdfrwt>
<totfact> 0.24981786E+04</totfact>
</mgrwt>
</event>
<event>
 4    1  0.1330040E-003  0.3116094E+03  0.7818608E-02  0.1079577E+00
         -2   -1    0    0    0  501 -0.00000000000E+00  0.00000000000E+00  0.32236573071E+02  0.32236573172E+02  0.25500000000E-02 0. -1.
          2   -1    0    0  501    0  0.00000000000E+00 -0.00000000000E+00 -0.75302998257E+03  0.75302998257E+03  0.25500000000E-02 0.  1.
    5000001    1    1    2    0    0  0.54661122114E+02 -0.12029052386E+03 -0.28528200869E+03  0.32368576256E+03  0.77000000000E+02 0.  0.
   -5000001    1    1    2    0    0 -0.54661122114E+02  0.12029052386E+03 -0.43551140081E+03  0.46158079318E+03  0.77000000000E+02 0.  0.
<mgrwt>
<rscale>  0 0.31160941E+03</rscale>
<asrwt>0</asrwt>
<pdfrwt beam="1">  1        2 0.10757570E+00 0.31160941E+03</pdfrwt>
<pdfrwt beam="2">  1       -2 0.46052252E-02 0.31160941E+03</pdfrwt>
<totfact> 0.93372487E+03</totfact>
</mgrwt>
</event>
<event>
 4    1  0.1330040E-003  0.2824100E+03  0.7818608E-02  0.1094380E+00
          2   -1    0    0  501    0  0.00000000000E+00  0.00000000000E+00  0.35697035268E+03  0.35697035268E+03  0.25500000000E-02 0.  1.
         -2   -1    0    0    0  501 -0.00000000000E+00 -0.00000000000E+00 -0.55855759163E+02  0.55855759221E+02  0.25500000000E-02 0. -1.
    5000001    1    1    2    0    0 -0.66518600206E+01  0.11284537387E+03  0.99258329363E+02  0.16899568513E+03  0.77000000000E+02 0.  0.
   -5000001    1    1    2    0    0  0.66518600206E+01 -0.11284537387E+03  0.20185626415E+03  0.24383042677E+03  0.77000000000E+02 0.  0.
<mgrwt>
<rscale>  0 0.28240999E+03</rscale>
<asrwt>0</asrwt>
<pdfrwt beam="1">  1        2 0.50995762E-01 0.28240999E+03</pdfrwt>
<pdfrwt beam="2">  1       -2 0.79793945E-02 0.28240999E+03</pdfrwt>
<totfact> 0.92538386E+03</totfact>
</mgrwt>
</event>
<event>
 4    1  0.1330040E-003  0.1724249E+03  0.7818608E-02  0.1175342E+00
         -2   -1    0    0    0  501 -0.00000000000E+00  0.00000000000E+00  0.15375590991E+03  0.15375590993E+03  0.25500000000E-02 0. -1.
          2   -1    0    0  501    0  0.00000000000E+00 -0.00000000000E+00 -0.48340176366E+02  0.48340176433E+02  0.25500000000E-02 0.  1.
    5000001    1    1    2    0    0  0.25381566958E+02  0.11060671167E+02  0.84527789280E+02  0.11764569499E+03  0.77000000000E+02 0.  0.
   -5000001    1    1    2    0    0 -0.25381566958E+02 -0.11060671167E+02  0.20887944259E+02  0.84450391374E+02  0.77000000000E+02 0.  0.
<mgrwt>
<rscale>  0 0.17242491E+03</rscale>
<asrwt>0</asrwt>
<pdfrwt beam="1">  1        2 0.69057396E-02 0.17242491E+03</pdfrwt>
<pdfrwt beam="2">  1       -2 0.21965130E-01 0.17242491E+03</pdfrwt>
<totfact> 0.17434471E+04</totfact>
</mgrwt>
</event>
<event>
 4    1  0.1330040E-003  0.2363015E+03  0.7818608E-02  0.1122281E+00
          2   -1    0    0  501    0  0.00000000000E+00  0.00000000000E+00  0.84526066610E+02  0.84526066649E+02  0.25500000000E-02 0.  1.
         -2   -1    0    0    0  501 -0.00000000000E+00 -0.00000000000E+00 -0.16515141750E+03  0.16515141752E+03  0.25500000000E-02 0. -1.
    5000001    1    1    2    0    0 -0.43108403047E+02  0.72388179856E+02 -0.72573194218E+02  0.13525624390E+03  0.77000000000E+02 0.  0.
   -5000001    1    1    2    0    0  0.43108403047E+02 -0.72388179856E+02 -0.80521566704E+01  0.11442124026E+03  0.77000000000E+02 0.  0.
<mgrwt>
<rscale>  0 0.23630150E+03</rscale>
<asrwt>0</asrwt>
<pdfrwt beam="1">  1        2 0.12075152E-01 0.23630150E+03</pdfrwt>
<pdfrwt beam="2">  1       -2 0.23593060E-01 0.23630150E+03</pdfrwt>
<totfact> 0.78430684E+03</totfact>
</mgrwt>
</event>
<event>
 4    1  0.1330040E-003  0.3432304E+03  0.7818608E-02  0.1065428E+00
         -2   -1    0    0    0  501 -0.00000000000E+00  0.00000000000E+00  0.93539116397E+01  0.93539119872E+01  0.25500000000E-02 0. -1.
          2   -1    0    0  501    0  0.00000000000E+00 -0.00000000000E+00 -0.31486047782E+04  0.31486047782E+04  0.25500000000E-02 0.  1.
    5000001    1    1    2    0    0 -0.36927098036E+02 -0.13956446611E+03 -0.20460155242E+04  0.20525472896E+04  0.77000000000E+02 0.  0.
   -5000001    1    1    2    0    0  0.36927098036E+02  0.13956446611E+03 -0.10932353423E+04  0.11054114006E+04  0.77000000000E+02 0.  0.
<mgrwt>
<rscale>  0 0.34323037E+03</rscale>
<asrwt>0</asrwt>
<pdfrwt beam="1">  1        2 0.44980001E+00 0.34323037E+03</pdfrwt>
<pdfrwt beam="2">  1       -2 0.13362751E-02 0.34323037E+03</pdfrwt>
<totfact> 0.32106035E+03</totfact>
</mgrwt>
</event>
<event>
 4    1  0.1330040E-003  0.3146347E+03  0.7818608E-02  0.1078145E+00
         -2   -1    0    0    0  501 -0.00000000000E+00  0.00000000000E+00  0.28484713276E+02  0.28484713390E+02  0.25500000000E-02 0. -1.
          2   -1    0    0  501    0  0.00000000000E+00 -0.00000000000E+00 -0.86884334964E+03  0.86884334964E+03  0.25500000000E-02 0.  1.
    5000001    1    1    2    0    0  0.91163601542E+02  0.14868528680E+02 -0.13090658602E+03  0.17775660228E+03  0.77000000000E+02 0.  0.
   -5000001    1    1    2    0    0 -0.91163601542E+02 -0.14868528680E+02 -0.70945205034E+03  0.71957146075E+03  0.77000000000E+02 0.  0.
<mgrwt>
<rscale>  0 0.31463473E+03</rscale>
<asrwt>0</asrwt>
<pdfrwt beam="1">  1        2 0.12412046E+00 0.31463473E+03</pdfrwt>
<pdfrwt beam="2">  1       -2 0.40692453E-02 0.31463473E+03</pdfrwt>
<totfact> 0.94200928E+03</totfact>
</mgrwt>
</event>
<event>
 4    1  0.1330040E-003  0.2033390E+03  0.7818608E-02  0.1146952E+00
         -2   -1    0    0    0  501 -0.00000000000E+00  0.00000000000E+00  0.42654386098E+02  0.42654386174E+02  0.25500000000E-02 0. -1.
          2   -1    0    0  501    0  0.00000000000E+00 -0.00000000000E+00 -0.24233575333E+03  0.24233575334E+03  0.25500000000E-02 0.  1.
    5000001    1    1    2    0    0  0.25489329600E+02 -0.59208945174E+02 -0.77579478821E+02  0.12689752025E+03  0.77000000000E+02 0.  0.
   -5000001    1    1    2    0    0 -0.25489329600E+02  0.59208945174E+02 -0.12210188841E+03  0.15809261926E+03  0.77000000000E+02 0.  0.
<mgrwt>
<rscale>  0 0.20333896E+03</rscale>
<asrwt>0</asrwt>
<pdfrwt beam="1">  1        2 0.34619392E-01 0.20333896E+03</pdfrwt>
<pdfrwt beam="2">  1       -2 0.60934839E-02 0.20333896E+03</pdfrwt>
<totfact> 0.20893720E+04</totfact>
</mgrwt>
</event>
<event>
 4    1  0.1330040E-003  0.2143353E+03  0.7818608E-02  0.1138178E+00
          2   -1    0    0  501    0  0.00000000000E+00  0.00000000000E+00  0.22586263055E+03  0.22586263056E+03  0.25500000000E-02 0.  1.
         -2   -1    0    0    0  501 -0.00000000000E+00 -0.00000000000E+00 -0.50849091452E+02  0.50849091516E+02  0.25500000000E-02 0. -1.
    5000001    1    1    2    0    0 -0.39779307596E+02 -0.54253156572E+02  0.46070959075E+02  0.11214870298E+03  0.77000000000E+02 0.  0.
   -5000001    1    1    2    0    0  0.39779307596E+02  0.54253156572E+02  0.12894258002E+03  0.16456301909E+03  0.77000000000E+02 0.  0.
<mgrwt>
<rscale>  0 0.21433534E+03</rscale>
<asrwt>0</asrwt>
<pdfrwt beam="1">  1        2 0.32266091E-01 0.21433534E+03</pdfrwt>
<pdfrwt beam="2">  1       -2 0.72641558E-02 0.21433534E+03</pdfrwt>
<totfact> 0.17277220E+04</totfact>
</mgrwt>
</event>
<event>
 4    1  0.1330040E-003  0.3736395E+03  0.7818608E-02  0.1053310E+00
         -2   -1    0    0    0  501 -0.00000000000E+00  0.00000000000E+00  0.10331648795E+02  0.10331649110E+02  0.25500000000E-02 0. -1.
          2   -1    0    0  501    0  0.00000000000E+00 -0.00000000000E+00 -0.33781271268E+04  0.33781271268E+04  0.25500000000E-02 0.  1.
    5000001    1    1    2    0    0  0.80488537837E+02  0.80947646718E+02 -0.53886823954E+03  0.55618243932E+03  0.77000000000E+02 0.  0.
   -5000001    1    1    2    0    0 -0.80488537837E+02 -0.80947646718E+02 -0.28289272385E+04  0.28322763366E+04  0.77000000000E+02 0.  0.
<mgrwt>
<rscale>  0 0.37363952E+03</rscale>
<asrwt>0</asrwt>
<pdfrwt beam="1">  1        2 0.48258888E+00 0.37363952E+03</pdfrwt>
<pdfrwt beam="2">  1       -2 0.14759520E-02 0.37363952E+03</pdfrwt>
<totfact> 0.20586808E+03</totfact>
</mgrwt>
</event>
<event>
 4    1  0.1330040E-003  0.2789673E+03  0.7818608E-02  0.1096254E+00
          2   -1    0    0  501    0  0.00000000000E+00  0.00000000000E+00  0.51690521005E+03  0.51690521006E+03  0.25500000000E-02 0.  1.
         -2   -1    0    0    0  501 -0.00000000000E+00 -0.00000000000E+00 -0.37638781274E+02  0.37638781360E+02  0.25500000000E-02 0. -1.
    5000001    1    1    2    0    0 -0.10584249064E+03  0.47359567305E+02  0.25753715768E+03  0.29274553630E+03  0.77000000000E+02 0.  0.
   -5000001    1    1    2    0    0  0.10584249064E+03 -0.47359567305E+02  0.22172927110E+03  0.26179845512E+03  0.77000000000E+02 0.  0.
<mgrwt>
<rscale>  0 0.27896725E+03</rscale>
<asrwt>0</asrwt>
<pdfrwt beam="1">  1        2 0.73843601E-01 0.27896725E+03</pdfrwt>
<pdfrwt beam="2">  1       -2 0.53769688E-02 0.27896725E+03</pdfrwt>
<totfact> 0.11360101E+04</totfact>
</mgrwt>
</event>
<event>
 4    1  0.1330040E-003  0.3692370E+03  0.7818608E-02  0.1054985E+00
         -2   -1    0    0    0  501 -0.00000000000E+00  0.00000000000E+00  0.22286234692E+02  0.22286234838E+02  0.25500000000E-02 0. -1.
          2   -1    0    0  501    0  0.00000000000E+00 -0.00000000000E+00 -0.15293740854E+04  0.15293740854E+04  0.25500000000E-02 0.  1.
    5000001    1    1    2    0    0 -0.86364924886E+02 -0.13672405387E+03 -0.56548626966E+03  0.59317458504E+03  0.77000000000E+02 0.  0.
   -5000001    1    1    2    0    0  0.86364924886E+02  0.13672405387E+03 -0.94160158107E+03  0.95848573523E+03  0.77000000000E+02 0.  0.
<mgrwt>
<rscale>  0 0.36923700E+03</rscale>
<asrwt>0</asrwt>
<pdfrwt beam="1">  1        2 0.21848195E+00 0.36923700E+03</pdfrwt>
<pdfrwt beam="2">  1       -2 0.31837488E-02 0.36923700E+03</pdfrwt>
<totfact> 0.58636108E+03</totfact>
</mgrwt>
</event>
<event>
 4    1  0.1330040E-003  0.6667896E+03  0.7818608E-02  0.9775775E-01
          2   -1    0    0  501    0  0.00000000000E+00  0.00000000000E+00  0.81165948016E+03  0.81165948017E+03  0.25500000000E-02 0.  1.
         -2   -1    0    0    0  501 -0.00000000000E+00 -0.00000000000E+00 -0.13694422302E+03  0.13694422304E+03  0.25500000000E-02 0. -1.
    5000001    1    1    2    0    0 -0.58455670893E+02 -0.27030312031E+03  0.57854596046E+03  0.64585235981E+03  0.77000000000E+02 0.  0.
   -5000001    1    1    2    0    0  0.58455670893E+02  0.27030312031E+03  0.96169296690E+02  0.30275134341E+03  0.77000000000E+02 0.  0.
<mgrwt>
<rscale>  0 0.66678955E+03</rscale>
<asrwt>0</asrwt>
<pdfrwt beam="1">  1        2 0.11595136E+00 0.66678955E+03</pdfrwt>
<pdfrwt beam="2">  1       -2 0.19563460E-01 0.66678955E+03</pdfrwt>
<totfact> 0.83014221E+02</totfact>
</mgrwt>
</event>
<event>
 4    1  0.1330040E-003  0.3081664E+03  0.7818608E-02  0.1081228E+00
          2   -1    0    0  501    0  0.00000000000E+00  0.00000000000E+00  0.15028581671E+04  0.15028581671E+04  0.25500000000E-02 0.  1.
         -2   -1    0    0    0  501 -0.00000000000E+00 -0.00000000000E+00 -0.15797651874E+02  0.15797652080E+02  0.25500000000E-02 0. -1.
    5000001    1    1    2    0    0  0.11895731525E+03  0.19303527446E+02  0.46090128606E+03  0.48257897231E+03  0.77000000000E+02 0.  0.
   -5000001    1    1    2    0    0 -0.11895731525E+03 -0.19303527446E+02  0.10261592292E+04  0.10360768469E+04  0.77000000000E+02 0.  0.
<mgrwt>
<rscale>  0 0.30816639E+03</rscale>
<asrwt>0</asrwt>
<pdfrwt beam="1">  1        2 0.21469406E+00 0.30816639E+03</pdfrwt>
<pdfrwt beam="2">  1       -2 0.22568071E-02 0.30816639E+03</pdfrwt>
<totfact> 0.10081018E+04</totfact>
</mgrwt>
</event>
<event>
 4    1  0.1330040E-003  0.1839979E+03  0.7818608E-02  0.1163989E+00
          2   -1    0    0  501    0  0.00000000000E+00  0.00000000000E+00  0.19068148794E+03  0.19068148795E+03  0.25500000000E-02 0.  1.
         -2   -1    0    0    0  501 -0.00000000000E+00 -0.00000000000E+00 -0.44387155952E+02  0.44387156025E+02  0.25500000000E-02 0. -1.
    5000001    1    1    2    0    0  0.44159484623E+02 -0.22015731014E+02  0.60367946072E+02  0.10958120919E+03  0.77000000000E+02 0.  0.
   -5000001    1    1    2    0    0 -0.44159484623E+02  0.22015731014E+02  0.85926385912E+02  0.12548743479E+03  0.77000000000E+02 0.  0.
<mgrwt>
<rscale>  0 0.18399792E+03</rscale>
<asrwt>0</asrwt>
<pdfrwt beam="1">  1        2 0.27240213E-01 0.18399792E+03</pdfrwt>
<pdfrwt beam="2">  1       -2 0.63410222E-02 0.18399792E+03</pdfrwt>
<totfact> 0.25319756E+04</totfact>
</mgrwt>
</event>
<event>
 4    1  0.1330040E-003  0.2500844E+03  0.7818608E-02  0.1113251E+00
          2   -1    0    0  501    0  0.00000000000E+00  0.00000000000E+00  0.23534081747E+03  0.23534081748E+03  0.25500000000E-02 0. -1.
         -2   -1    0    0    0  501 -0.00000000000E+00 -0.00000000000E+00 -0.66437907129E+02  0.66437907178E+02  0.25500000000E-02 0.  1.
    5000001    1    1    2    0    0 -0.97344480831E+01  0.68271515728E+02  0.16935764744E+03  0.19841061485E+03  0.77000000000E+02 0.  0.
   -5000001    1    1    2    0    0  0.97344480831E+01 -0.68271515728E+02 -0.45473710105E+00  0.10336810981E+03  0.77000000000E+02 0.  0.
<mgrwt>
<rscale>  0 0.25008440E+03</rscale>
<asrwt>0</asrwt>
<pdfrwt beam="1">  1        2 0.33620118E-01 0.25008440E+03</pdfrwt>
<pdfrwt beam="2">  1       -2 0.94911293E-02 0.25008440E+03</pdfrwt>
<totfact> 0.10980561E+04</totfact>
</mgrwt>
</event>
<event>
 4    1  0.1330040E-003  0.1949215E+03  0.7818608E-02  0.1154096E+00
          2   -1    0    0  501    0  0.00000000000E+00  0.00000000000E+00  0.31749392608E+04  0.31749392608E+04  0.25500000000E-02 0.  1.
         -2   -1    0    0    0  501 -0.00000000000E+00 -0.00000000000E+00 -0.29917404922E+01  0.29917415789E+01  0.25500000000E-02 0. -1.
    5000001    1    1    2    0    0 -0.22015585470E+02 -0.51744132377E+02  0.12568763258E+04  0.12604876991E+04  0.77000000000E+02 0.  0.
   -5000001    1    1    2    0    0  0.22015585470E+02  0.51744132377E+02  0.19150711945E+04  0.19174433033E+04  0.77000000000E+02 0.  0.
<mgrwt>
<rscale>  0 0.19492148E+03</rscale>
<asrwt>0</asrwt>
<pdfrwt beam="1">  1        2 0.45356384E+00 0.19492148E+03</pdfrwt>
<pdfrwt beam="2">  1       -2 0.42739056E-03 0.19492148E+03</pdfrwt>
<totfact> 0.16195766E+04</totfact>
</mgrwt>
</event>
<event>
 4    1  0.1330040E-003  0.5295451E+03  0.7818608E-02  0.1006343E+00
         -2   -1    0    0    0  501 -0.00000000000E+00  0.00000000000E+00  0.45369368016E+02  0.45369368088E+02  0.25500000000E-02 0.  1.
          2   -1    0    0  501    0  0.00000000000E+00 -0.00000000000E+00 -0.15451946854E+04  0.15451946854E+04  0.25500000000E-02 0. -1.
    5000001    1    1    2    0    0  0.13355265748E+02  0.20239144137E+03 -0.29404280609E+03  0.36541870570E+03  0.77000000000E+02 0.  0.
   -5000001    1    1    2    0    0 -0.13355265748E+02 -0.20239144137E+03 -0.12057825113E+04  0.12251453478E+04  0.77000000000E+02 0.  0.
<mgrwt>
<rscale>  0 0.52954511E+03</rscale>
<asrwt>0</asrwt>
<pdfrwt beam="1">  1        2 0.22074207E+00 0.52954511E+03</pdfrwt>
<pdfrwt beam="2">  1       -2 0.64813392E-02 0.52954511E+03</pdfrwt>
<totfact> 0.19316540E+03</totfact>
</mgrwt>
</event>
<event>
 4    1  0.1330040E-003  0.2469823E+03  0.7818608E-02  0.1115227E+00
         -2   -1    0    0    0  501 -0.00000000000E+00  0.00000000000E+00  0.18589469587E+02  0.18589469762E+02  0.25500000000E-02 0. -1.
          2   -1    0    0  501    0  0.00000000000E+00 -0.00000000000E+00 -0.82036058818E+03  0.82036058819E+03  0.25500000000E-02 0.  1.
    5000001    1    1    2    0    0 -0.13646405016E+02  0.81208945686E+02 -0.22969378540E+03  0.25586979556E+03  0.77000000000E+02 0.  0.
   -5000001    1    1    2    0    0  0.13646405016E+02 -0.81208945686E+02 -0.57207733320E+03  0.58308026239E+03  0.77000000000E+02 0.  0.
<mgrwt>
<rscale>  0 0.24698233E+03</rscale>
<asrwt>0</asrwt>
<pdfrwt beam="1">  1        2 0.11719435E+00 0.24698233E+03</pdfrwt>
<pdfrwt beam="2">  1       -2 0.26556390E-02 0.24698233E+03</pdfrwt>
<totfact> 0.18981990E+04</totfact>
</mgrwt>
</event>
<event>
 4    1  0.1330040E-003  0.2337198E+03  0.7818608E-02  0.1124049E+00
         -2   -1    0    0    0  501 -0.00000000000E+00  0.00000000000E+00  0.15498449270E+03  0.15498449272E+03  0.25500000000E-02 0. -1.
          2   -1    0    0  501    0  0.00000000000E+00 -0.00000000000E+00 -0.88113546353E+02  0.88113546390E+02  0.25500000000E-02 0.  1.
    5000001    1    1    2    0    0 -0.11116658372E+02  0.87197225808E+02  0.32868621733E+02  0.12139309114E+03  0.77000000000E+02 0.  0.
   -5000001    1    1    2    0    0  0.11116658372E+02 -0.87197225808E+02  0.34002324616E+02  0.12170494797E+03  0.77000000000E+02 0.  0.
<mgrwt>
<rscale>  0 0.23371977E+03</rscale>
<asrwt>0</asrwt>
<pdfrwt beam="1">  1        2 0.12587650E-01 0.23371977E+03</pdfrwt>
<pdfrwt beam="2">  1       -2 0.22140642E-01 0.23371977E+03</pdfrwt>
<totfact> 0.83241824E+03</totfact>
</mgrwt>
</event>
<event>
 4    1  0.1330040E-003  0.2539132E+03  0.7818608E-02  0.1110856E+00
         -2   -1    0    0    0  501 -0.00000000000E+00  0.00000000000E+00  0.76466082826E+03  0.76466082827E+03  0.25500000000E-02 0. -1.
          2   -1    0    0  501    0  0.00000000000E+00 -0.00000000000E+00 -0.21078601608E+02  0.21078601763E+02  0.25500000000E-02 0.  1.
    5000001    1    1    2    0    0  0.62210401461E+02  0.72355366894E+02  0.47365430524E+03  0.48926765072E+03  0.77000000000E+02 0.  0.
   -5000001    1    1    2    0    0 -0.62210401461E+02 -0.72355366894E+02  0.26992792142E+03  0.29647177932E+03  0.77000000000E+02 0.  0.
<mgrwt>
<rscale>  0 0.25391322E+03</rscale>
<asrwt>0</asrwt>
<pdfrwt beam="1">  1        2 0.30112283E-02 0.25391322E+03</pdfrwt>
<pdfrwt beam="2">  1       -2 0.10923728E+00 0.25391322E+03</pdfrwt>
<totfact> 0.21606819E+03</totfact>
</mgrwt>
</event>
<event>
 4    1  0.1330040E-003  0.3602484E+03  0.7818608E-02  0.1058486E+00
         -2   -1    0    0    0  501 -0.00000000000E+00  0.00000000000E+00  0.43697661585E+02  0.43697661660E+02  0.25500000000E-02 0. -1.
          2   -1    0    0  501    0  0.00000000000E+00 -0.00000000000E+00 -0.74248195229E+03  0.74248195229E+03  0.25500000000E-02 0.  1.
    5000001    1    1    2    0    0 -0.42224977822E+02 -0.14777359767E+03 -0.23195661045E+03  0.28870894349E+03  0.77000000000E+02 0.  0.
   -5000001    1    1    2    0    0  0.42224977822E+02  0.14777359767E+03 -0.46682768025E+03  0.49747067046E+03  0.77000000000E+02 0.  0.
<mgrwt>
<rscale>  0 0.36024839E+03</rscale>
<asrwt>0</asrwt>
<pdfrwt beam="1">  1        2 0.10606884E+00 0.36024839E+03</pdfrwt>
<pdfrwt beam="2">  1       -2 0.62425236E-02 0.36024839E+03</pdfrwt>
<totfact> 0.59817463E+03</totfact>
</mgrwt>
</event>
<event>
 4    1  0.1330040E-003  0.2823043E+03  0.7818608E-02  0.1094437E+00
          2   -1    0    0  501    0  0.00000000000E+00  0.00000000000E+00  0.19614701438E+02  0.19614701603E+02  0.25500000000E-02 0.  1.
         -2   -1    0    0    0  501 -0.00000000000E+00 -0.00000000000E+00 -0.10157652015E+04  0.10157652015E+04  0.25500000000E-02 0. -1.
    5000001    1    1    2    0    0 -0.92929599561E+01 -0.11647502266E+03 -0.56591510780E+03  0.58295943190E+03  0.77000000000E+02 0.  0.
   -5000001    1    1    2    0    0  0.92929599561E+01  0.11647502266E+03 -0.43023539224E+03  0.45242047118E+03  0.77000000000E+02 0.  0.
<mgrwt>
<rscale>  0 0.28230431E+03</rscale>
<asrwt>0</asrwt>
<pdfrwt beam="1">  1        2 0.28021009E-02 0.28230431E+03</pdfrwt>
<pdfrwt beam="2">  1       -2 0.14510928E+00 0.28230431E+03</pdfrwt>
<totfact> 0.11899137E+03</totfact>
</mgrwt>
</event>
<event>
 4    1  0.1330040E-003  0.1963993E+03  0.7818608E-02  0.1152813E+00
         -2   -1    0    0    0  501 -0.00000000000E+00  0.00000000000E+00  0.22047793592E+02  0.22047793739E+02  0.25500000000E-02 0. -1.
          2   -1    0    0  501    0  0.00000000000E+00 -0.00000000000E+00 -0.43737563846E+03  0.43737563846E+03  0.25500000000E-02 0.  1.
    5000001    1    1    2    0    0 -0.97707681798E+01  0.55870316580E+02 -0.15550336980E+03  0.18255754765E+03  0.77000000000E+02 0.  0.
   -5000001    1    1    2    0    0  0.97707681798E+01 -0.55870316580E+02 -0.25982447507E+03  0.27686588455E+03  0.77000000000E+02 0.  0.
<mgrwt>
<rscale>  0 0.19639927E+03</rscale>
<asrwt>0</asrwt>
<pdfrwt beam="1">  1        2 0.62482229E-01 0.19639927E+03</pdfrwt>
<pdfrwt beam="2">  1       -2 0.31496851E-02 0.19639927E+03</pdfrwt>
<totfact> 0.29824037E+04</totfact>
</mgrwt>
</event>
<event>
 4    1  0.1330040E-003  0.5271595E+03  0.7818608E-02  0.1006923E+00
          2   -1    0    0  501    0  0.00000000000E+00  0.00000000000E+00  0.14691037240E+04  0.14691037240E+04  0.25500000000E-02 0.  1.
         -2   -1    0    0    0  501 -0.00000000000E+00 -0.00000000000E+00 -0.47290246932E+02  0.47290247001E+02  0.25500000000E-02 0. -1.
    5000001    1    1    2    0    0 -0.53853431769E+02  0.23683802726E+03  0.51681324733E+03  0.57620948958E+03  0.77000000000E+02 0.  0.
   -5000001    1    1    2    0    0  0.53853431769E+02 -0.23683802726E+03  0.90500022970E+03  0.94018448138E+03  0.77000000000E+02 0.  0.
<mgrwt>
<rscale>  0 0.52715947E+03</rscale>
<asrwt>0</asrwt>
<pdfrwt beam="1">  1        2 0.20987192E+00 0.52715947E+03</pdfrwt>
<pdfrwt beam="2">  1       -2 0.67557508E-02 0.52715947E+03</pdfrwt>
<totfact> 0.19820246E+03</totfact>
</mgrwt>
</event>
<event>
 4    1  0.1330040E-003  0.3407212E+03  0.7818608E-02  0.1066489E+00
          2   -1    0    0  501    0  0.00000000000E+00  0.00000000000E+00  0.15663484594E+03  0.15663484596E+03  0.25500000000E-02 0.  1.
         -2   -1    0    0    0  501 -0.00000000000E+00 -0.00000000000E+00 -0.18528911492E+03  0.18528911493E+03  0.25500000000E-02 0. -1.
    5000001    1    1    2    0    0  0.64619381359E+02  0.10085396783E+03  0.79525972535E+02  0.16309680433E+03  0.77000000000E+02 0.  0.
   -5000001    1    1    2    0    0 -0.64619381359E+02 -0.10085396783E+03 -0.10818024151E+03  0.17882715657E+03  0.77000000000E+02 0.  0.
<mgrwt>
<rscale>  0 0.34072119E+03</rscale>
<asrwt>0</asrwt>
<pdfrwt beam="1">  1        2 0.22376407E-01 0.34072119E+03</pdfrwt>
<pdfrwt beam="2">  1       -2 0.26469874E-01 0.34072119E+03</pdfrwt>
<totfact> 0.31429007E+03</totfact>
</mgrwt>
</event>
<event>
 4    1  0.1330040E-003  0.4923207E+03  0.7818608E-02  0.1015803E+00
         -2   -1    0    0    0  501 -0.00000000000E+00  0.00000000000E+00  0.40809613522E+02  0.40809613601E+02  0.25500000000E-02 0. -1.
          2   -1    0    0  501    0  0.00000000000E+00 -0.00000000000E+00 -0.14848199196E+04  0.14848199196E+04  0.25500000000E-02 0.  1.
    5000001    1    1    2    0    0 -0.66609698924E+02 -0.22093714074E+03 -0.60540198649E+03  0.65244972020E+03  0.77000000000E+02 0.  0.
   -5000001    1    1    2    0    0  0.66609698924E+02  0.22093714074E+03 -0.83860831960E+03  0.87317981301E+03  0.77000000000E+02 0.  0.
<mgrwt>
<rscale>  0 0.49232074E+03</rscale>
<asrwt>0</asrwt>
<pdfrwt beam="1">  1        2 0.21211710E+00 0.49232074E+03</pdfrwt>
<pdfrwt beam="2">  1       -2 0.58299457E-02 0.49232074E+03</pdfrwt>
<totfact> 0.24512041E+03</totfact>
</mgrwt>
</event>
<event>
 4    1  0.1330040E-003  0.1666252E+03  0.7818608E-02  0.1181414E+00
         -2   -1    0    0    0  501 -0.00000000000E+00  0.00000000000E+00  0.33320781156E+01  0.33320790914E+01  0.25500000000E-02 0. -1.
          2   -1    0    0  501    0  0.00000000000E+00 -0.00000000000E+00 -0.20830799535E+04  0.20830799535E+04  0.25500000000E-02 0.  1.
    5000001    1    1    2    0    0 -0.20591171940E+02  0.24116988049E+02 -0.10082940219E+04  0.10117269691E+04  0.77000000000E+02 0.  0.
   -5000001    1    1    2    0    0  0.20591171940E+02 -0.24116988049E+02 -0.10714538535E+04  0.10746850635E+04  0.77000000000E+02 0.  0.
<mgrwt>
<rscale>  0 0.16662516E+03</rscale>
<asrwt>0</asrwt>
<pdfrwt beam="1">  1        2 0.29758202E+00 0.16662516E+03</pdfrwt>
<pdfrwt beam="2">  1       -2 0.47601256E-03 0.16662516E+03</pdfrwt>
<totfact> 0.48692304E+04</totfact>
</mgrwt>
</event>
<event>
 4    1  0.1330040E-003  0.4055286E+03  0.7818608E-02  0.1041882E+00
          2   -1    0    0  501    0  0.00000000000E+00  0.00000000000E+00  0.57463144405E+03  0.57463144405E+03  0.25500000000E-02 0.  1.
         -2   -1    0    0    0  501 -0.00000000000E+00 -0.00000000000E+00 -0.71547344860E+02  0.71547344905E+02  0.25500000000E-02 0. -1.
    5000001    1    1    2    0    0  0.11176504954E+03 -0.13567196747E+03  0.35586013654E+03  0.40430649987E+03  0.77000000000E+02 0.  0.
   -5000001    1    1    2    0    0 -0.11176504954E+03  0.13567196747E+03  0.14722396265E+03  0.24187228909E+03  0.77000000000E+02 0.  0.
<mgrwt>
<rscale>  0 0.40552856E+03</rscale>
<asrwt>0</asrwt>
<pdfrwt beam="1">  1        2 0.82090206E-01 0.40552856E+03</pdfrwt>
<pdfrwt beam="2">  1       -2 0.10221049E-01 0.40552856E+03</pdfrwt>
<totfact> 0.37302588E+03</totfact>
</mgrwt>
</event>
<event>
 4    1  0.1330040E-003  0.1817361E+03  0.7818608E-02  0.1166133E+00
         -2   -1    0    0    0  501 -0.00000000000E+00  0.00000000000E+00  0.76642185922E+02  0.76642185965E+02  0.25500000000E-02 0. -1.
          2   -1    0    0  501    0  0.00000000000E+00 -0.00000000000E+00 -0.10773444673E+03  0.10773444677E+03  0.25500000000E-02 0.  1.
    5000001    1    1    2    0    0 -0.39920362940E+01  0.47840198994E+02 -0.10640326178E+02  0.91361028534E+02  0.77000000000E+02 0.  0.
   -5000001    1    1    2    0    0  0.39920362940E+01 -0.47840198994E+02 -0.20451934635E+02  0.93015604196E+02  0.77000000000E+02 0.  0.
<mgrwt>
<rscale>  0 0.18173611E+03</rscale>
<asrwt>0</asrwt>
<pdfrwt beam="1">  1        2 0.15390635E-01 0.18173611E+03</pdfrwt>
<pdfrwt beam="2">  1       -2 0.10948884E-01 0.18173611E+03</pdfrwt>
<totfact> 0.20647351E+04</totfact>
</mgrwt>
</event>
<event>
 4    1  0.1330040E-003  0.4963028E+03  0.7818608E-02  0.1014748E+00
          2   -1    0    0  501    0  0.00000000000E+00  0.00000000000E+00  0.20433645141E+04  0.20433645141E+04  0.25500000000E-02 0.  1.
         -2   -1    0    0    0  501 -0.00000000000E+00 -0.00000000000E+00 -0.30136139803E+02  0.30136139911E+02  0.25500000000E-02 0. -1.
    5000001    1    1    2    0    0 -0.61965241578E+02 -0.14945269880E+03  0.17238786792E+04  0.17331654569E+04  0.77000000000E+02 0.  0.
   -5000001    1    1    2    0    0  0.61965241578E+02  0.14945269880E+03  0.28934969503E+03  0.34033519706E+03  0.77000000000E+02 0.  0.
<mgrwt>
<rscale>  0 0.49630281E+03</rscale>
<asrwt>0</asrwt>
<pdfrwt beam="1">  1        2 0.29190922E+00 0.49630281E+03</pdfrwt>
<pdfrwt beam="2">  1       -2 0.43051627E-02 0.49630281E+03</pdfrwt>
<totfact> 0.20458683E+03</totfact>
</mgrwt>
</event>
<event>
 4    1  0.1330040E-003  0.1941217E+03  0.7818608E-02  0.1154795E+00
          2   -1    0    0  501    0  0.00000000000E+00  0.00000000000E+00  0.11666080328E+03  0.11666080331E+03  0.25500000000E-02 0.  1.
         -2   -1    0    0    0  501 -0.00000000000E+00 -0.00000000000E+00 -0.80753882003E+02  0.80753882044E+02  0.25500000000E-02 0. -1.
    5000001    1    1    2    0    0  0.34219950840E+02 -0.40998908307E+02  0.43678757208E+02  0.10338640795E+03  0.77000000000E+02 0.  0.
   -5000001    1    1    2    0    0 -0.34219950840E+02  0.40998908307E+02 -0.77718359278E+01  0.94028277404E+02  0.77000000000E+02 0.  0.
<mgrwt>
<rscale>  0 0.19412174E+03</rscale>
<asrwt>0</asrwt>
<pdfrwt beam="1">  1        2 0.16665829E-01 0.19412174E+03</pdfrwt>
<pdfrwt beam="2">  1       -2 0.11536269E-01 0.19412174E+03</pdfrwt>
<totfact> 0.17401563E+04</totfact>
</mgrwt>
</event>
<event>
 4    1  0.1330040E-003  0.2272921E+03  0.7818608E-02  0.1128560E+00
          2   -1    0    0  501    0  0.00000000000E+00  0.00000000000E+00  0.35832506809E+02  0.35832506900E+02  0.25500000000E-02 0.  1.
         -2   -1    0    0    0  501 -0.00000000000E+00 -0.00000000000E+00 -0.36043885348E+03  0.36043885349E+03  0.25500000000E-02 0. -1.
    5000001    1    1    2    0    0 -0.15527877240E+02  0.81976569579E+02 -0.17104733912E+03  0.20529847820E+03  0.77000000000E+02 0.  0.
   -5000001    1    1    2    0    0  0.15527877240E+02 -0.81976569579E+02 -0.15355900756E+03  0.19097288220E+03  0.77000000000E+02 0.  0.
<mgrwt>
<rscale>  0 0.22729213E+03</rscale>
<asrwt>0</asrwt>
<pdfrwt beam="1">  1        2 0.51189298E-02 0.22729213E+03</pdfrwt>
<pdfrwt beam="2">  1       -2 0.51491263E-01 0.22729213E+03</pdfrwt>
<totfact> 0.54258602E+03</totfact>
</mgrwt>
</event>
<event>
 4    1  0.1330040E-003  0.2199070E+03  0.7818608E-02  0.1133952E+00
          2   -1    0    0  501    0  0.00000000000E+00  0.00000000000E+00  0.40100606733E+04  0.40100606733E+04  0.25500000000E-02 0.  1.
         -2   -1    0    0    0  501 -0.00000000000E+00 -0.00000000000E+00 -0.30148593014E+01  0.30148603798E+01  0.25500000000E-02 0. -1.
    5000001    1    1    2    0    0 -0.77805902261E+02 -0.96530007761E+01  0.20713934528E+04  0.20743063359E+04  0.77000000000E+02 0.  0.
   -5000001    1    1    2    0    0  0.77805902261E+02  0.96530007761E+01  0.19356523612E+04  0.19387691978E+04  0.77000000000E+02 0.  0.
<mgrwt>
<rscale>  0 0.21990699E+03</rscale>
<asrwt>0</asrwt>
<pdfrwt beam="1">  1        2 0.57286719E+00 0.21990699E+03</pdfrwt>
<pdfrwt beam="2">  1       -2 0.43069323E-03 0.21990699E+03</pdfrwt>
<totfact> 0.51655473E+03</totfact>
</mgrwt>
</event>
<event>
 4    1  0.1330040E-003  0.1700805E+03  0.7818608E-02  0.1177764E+00
          2   -1    0    0  501    0  0.00000000000E+00  0.00000000000E+00  0.27886418265E+03  0.27886418266E+03  0.25500000000E-02 0.  1.
         -2   -1    0    0    0  501 -0.00000000000E+00 -0.00000000000E+00 -0.25933227289E+02  0.25933227415E+02  0.25500000000E-02 0. -1.
    5000001    1    1    2    0    0 -0.27171151183E+02 -0.22486715841E+02  0.14022185984E+03  0.16381420519E+03  0.77000000000E+02 0.  0.
   -5000001    1    1    2    0    0  0.27171151183E+02  0.22486715841E+02  0.11270909552E+03  0.14098320488E+03  0.77000000000E+02 0.  0.
<mgrwt>
<rscale>  0 0.17008055E+03</rscale>
<asrwt>0</asrwt>
<pdfrwt beam="1">  1        2 0.39837741E-01 0.17008055E+03</pdfrwt>
<pdfrwt beam="2">  1       -2 0.37047467E-02 0.17008055E+03</pdfrwt>
<totfact> 0.37444113E+04</totfact>
</mgrwt>
</event>
<event>
 4    1  0.1330040E-003  0.2513799E+03  0.7818608E-02  0.1112436E+00
          2   -1    0    0  501    0  0.00000000000E+00  0.00000000000E+00  0.50221779936E+03  0.50221779937E+03  0.25500000000E-02 0.  1.
         -2   -1    0    0    0  501 -0.00000000000E+00 -0.00000000000E+00 -0.31456404144E+02  0.31456404248E+02  0.25500000000E-02 0. -1.
    5000001    1    1    2    0    0  0.26517319304E+02 -0.51623527186E+02  0.64210031840E+02  0.11584509041E+03  0.77000000000E+02 0.  0.
   -5000001    1    1    2    0    0 -0.26517319304E+02  0.51623527186E+02  0.40655136338E+03  0.41782911321E+03  0.77000000000E+02 0.  0.
<mgrwt>
<rscale>  0 0.25137992E+03</rscale>
<asrwt>0</asrwt>
<pdfrwt beam="1">  1        2 0.71745397E-01 0.25137992E+03</pdfrwt>
<pdfrwt beam="2">  1       -2 0.44937722E-02 0.25137992E+03</pdfrwt>
<totfact> 0.15323572E+04</totfact>
</mgrwt>
</event>
<event>
 4    1  0.1330040E-003  0.2519385E+03  0.7818608E-02  0.1112086E+00
         -2   -1    0    0    0  501 -0.00000000000E+00  0.00000000000E+00  0.10675330422E+02  0.10675330727E+02  0.25500000000E-02 0. -1.
          2   -1    0    0  501    0  0.00000000000E+00 -0.00000000000E+00 -0.14864409109E+04  0.14864409109E+04  0.25500000000E-02 0.  1.
    5000001    1    1    2    0    0 -0.37729581325E+02  0.49073538794E+02 -0.12022839458E+04  0.12063363626E+04  0.77000000000E+02 0.  0.
   -5000001    1    1    2    0    0  0.37729581325E+02 -0.49073538794E+02 -0.27348163474E+03  0.29077987904E+03  0.77000000000E+02 0.  0.
<mgrwt>
<rscale>  0 0.25193847E+03</rscale>
<asrwt>0</asrwt>
<pdfrwt beam="1">  1        2 0.21234857E+00 0.25193847E+03</pdfrwt>
<pdfrwt beam="2">  1       -2 0.15250482E-02 0.25193847E+03</pdfrwt>
<totfact> 0.18174089E+04</totfact>
</mgrwt>
</event>
<event>
 4    1  0.1330040E-003  0.4193798E+03  0.7818608E-02  0.1037268E+00
         -2   -1    0    0    0  501 -0.00000000000E+00  0.00000000000E+00  0.74148459336E+02  0.74148459380E+02  0.25500000000E-02 0. -1.
          2   -1    0    0  501    0  0.00000000000E+00 -0.00000000000E+00 -0.59299750518E+03  0.59299750519E+03  0.25500000000E-02 0.  1.
    5000001    1    1    2    0    0 -0.17744575881E+03  0.73465683444E+02 -0.31352659162E+03  0.37564894198E+03  0.77000000000E+02 0.  0.
   -5000001    1    1    2    0    0  0.17744575881E+03 -0.73465683444E+02 -0.20532245423E+03  0.29149702258E+03  0.77000000000E+02 0.  0.
<mgrwt>
<rscale>  0 0.41937979E+03</rscale>
<asrwt>0</asrwt>
<pdfrwt beam="1">  1        2 0.84713927E-01 0.41937979E+03</pdfrwt>
<pdfrwt beam="2">  1       -2 0.10592637E-01 0.41937979E+03</pdfrwt>
<totfact> 0.33978181E+03</totfact>
</mgrwt>
</event>
<event>
 4    1  0.1330040E-003  0.2127200E+03  0.7818608E-02  0.1139430E+00
          2   -1    0    0  501    0  0.00000000000E+00  0.00000000000E+00  0.19759034176E+03  0.19759034178E+03  0.25500000000E-02 0.  1.
         -2   -1    0    0    0  501 -0.00000000000E+00 -0.00000000000E+00 -0.57252017096E+02  0.57252017152E+02  0.25500000000E-02 0. -1.
    5000001    1    1    2    0    0 -0.18896869968E+02  0.70348577113E+02  0.80711152075E+02  0.13322651412E+03  0.77000000000E+02 0.  0.
   -5000001    1    1    2    0    0  0.18896869968E+02 -0.70348577113E+02  0.59627172588E+02  0.12161584480E+03  0.77000000000E+02 0.  0.
<mgrwt>
<rscale>  0 0.21271996E+03</rscale>
<asrwt>0</asrwt>
<pdfrwt beam="1">  1        2 0.28227191E-01 0.21271996E+03</pdfrwt>
<pdfrwt beam="2">  1       -2 0.81788597E-02 0.21271996E+03</pdfrwt>
<totfact> 0.16623900E+04</totfact>
</mgrwt>
</event>
<event>
 4    1  0.1330040E-003  0.1974485E+03  0.7818608E-02  0.1151910E+00
          2   -1    0    0  501    0  0.00000000000E+00  0.00000000000E+00  0.93599975717E+03  0.93599975717E+03  0.25500000000E-02 0.  1.
         -2   -1    0    0    0  501 -0.00000000000E+00 -0.00000000000E+00 -0.10412907727E+02  0.10412908039E+02  0.25500000000E-02 0. -1.
    5000001    1    1    2    0    0  0.58527297358E+02 -0.91434557053E+01  0.37861392593E+03  0.39087920413E+03  0.77000000000E+02 0.  0.
   -5000001    1    1    2    0    0 -0.58527297358E+02  0.91434557053E+01  0.54697292351E+03  0.55553346108E+03  0.77000000000E+02 0.  0.
<mgrwt>
<rscale>  0 0.19744852E+03</rscale>
<asrwt>0</asrwt>
<pdfrwt beam="1">  1        2 0.13371420E+00 0.19744852E+03</pdfrwt>
<pdfrwt beam="2">  1       -2 0.14875589E-02 0.19744852E+03</pdfrwt>
<totfact> 0.36980584E+04</totfact>
</mgrwt>
</event>
<event>
 4    1  0.1330040E-003  0.2482151E+03  0.7818608E-02  0.1114438E+00
         -2   -1    0    0    0  501 -0.00000000000E+00  0.00000000000E+00  0.30780005498E+02  0.30780005604E+02  0.25500000000E-02 0. -1.
          2   -1    0    0  501    0  0.00000000000E+00 -0.00000000000E+00 -0.50041194909E+03  0.50041194909E+03  0.25500000000E-02 0.  1.
    5000001    1    1    2    0    0 -0.90401545134E+02  0.30843654917E+02 -0.19478438275E+03  0.23020366238E+03  0.77000000000E+02 0.  0.
   -5000001    1    1    2    0    0  0.90401545134E+02 -0.30843654917E+02 -0.27484756084E+03  0.30098829232E+03  0.77000000000E+02 0.  0.
<mgrwt>
<rscale>  0 0.24821509E+03</rscale>
<asrwt>0</asrwt>
<pdfrwt beam="1">  1        2 0.71487417E-01 0.24821509E+03</pdfrwt>
<pdfrwt beam="2">  1       -2 0.43971439E-02 0.24821509E+03</pdfrwt>
<totfact> 0.15886917E+04</totfact>
</mgrwt>
</event>
<event>
 4    1  0.1330040E-003  0.2593989E+03  0.7818608E-02  0.1107505E+00
         -2   -1    0    0    0  501 -0.00000000000E+00  0.00000000000E+00  0.27697677714E+02  0.27697677832E+02  0.25500000000E-02 0. -1.
          2   -1    0    0  501    0  0.00000000000E+00 -0.00000000000E+00 -0.60734130509E+03  0.60734130510E+03  0.25500000000E-02 0.  1.
    5000001    1    1    2    0    0 -0.26227299877E+01 -0.10374329491E+03 -0.26262744347E+03  0.29269732492E+03  0.77000000000E+02 0.  0.
   -5000001    1    1    2    0    0  0.26227299877E+01  0.10374329491E+03 -0.31701618391E+03  0.34234165801E+03  0.77000000000E+02 0.  0.
<mgrwt>
<rscale>  0 0.25939887E+03</rscale>
<asrwt>0</asrwt>
<pdfrwt beam="1">  1        2 0.86763036E-01 0.25939887E+03</pdfrwt>
<pdfrwt beam="2">  1       -2 0.39568115E-02 0.25939887E+03</pdfrwt>
<totfact> 0.15018487E+04</totfact>
</mgrwt>
</event>
<event>
 4    1  0.1330040E-003  0.2441406E+03  0.7818608E-02  0.1117065E+00
         -2   -1    0    0    0  501 -0.00000000000E+00  0.00000000000E+00  0.34479495888E+02  0.34479495982E+02  0.25500000000E-02 0. -1.
          2   -1    0    0  501    0  0.00000000000E+00 -0.00000000000E+00 -0.43217442377E+03  0.43217442377E+03  0.25500000000E-02 0.  1.
    5000001    1    1    2    0    0  0.18107543005E+01  0.46106462423E+02 -0.35696516052E+03  0.36807908191E+03  0.77000000000E+02 0.  0.
   -5000001    1    1    2    0    0 -0.18107543005E+01 -0.46106462423E+02 -0.40729767353E+02  0.98574837849E+02  0.77000000000E+02 0.  0.
<mgrwt>
<rscale>  0 0.24414058E+03</rscale>
<asrwt>0</asrwt>
<pdfrwt beam="1">  1        2 0.61739200E-01 0.24414058E+03</pdfrwt>
<pdfrwt beam="2">  1       -2 0.49256425E-02 0.24414058E+03</pdfrwt>
<totfact> 0.15694198E+04</totfact>
</mgrwt>
</event>
<event>
 4    1  0.1330040E-003  0.3792724E+03  0.7818608E-02  0.1051203E+00
         -2   -1    0    0    0  501 -0.00000000000E+00  0.00000000000E+00  0.14466251882E+02  0.14466252106E+02  0.25500000000E-02 0. -1.
          2   -1    0    0  501    0  0.00000000000E+00 -0.00000000000E+00 -0.24859157377E+04  0.24859157377E+04  0.25500000000E-02 0.  1.
    5000001    1    1    2    0    0 -0.15480210014E+03  0.72684352863E+02 -0.14205731164E+04  0.14329004447E+04  0.77000000000E+02 0.  0.
   -5000001    1    1    2    0    0  0.15480210014E+03 -0.72684352863E+02 -0.10508763694E+04  0.10674815451E+04  0.77000000000E+02 0.  0.
<mgrwt>
<rscale>  0 0.37927237E+03</rscale>
<asrwt>0</asrwt>
<pdfrwt beam="1">  1        2 0.35513055E+00 0.37927237E+03</pdfrwt>
<pdfrwt beam="2">  1       -2 0.20666090E-02 0.37927237E+03</pdfrwt>
<totfact> 0.37373637E+03</totfact>
</mgrwt>
</event>
<event>
 4    1  0.1330040E-003  0.2788625E+03  0.7818608E-02  0.1096312E+00
         -2   -1    0    0    0  501 -0.00000000000E+00  0.00000000000E+00  0.57513694855E+03  0.57513694856E+03  0.25500000000E-02 0. -1.
          2   -1    0    0  501    0  0.00000000000E+00 -0.00000000000E+00 -0.33802519602E+02  0.33802519698E+02  0.25500000000E-02 0.  1.
    5000001    1    1    2    0    0 -0.11282950761E+03 -0.27096047714E+02  0.25563573455E+03  0.29110706341E+03  0.77000000000E+02 0.  0.
   -5000001    1    1    2    0    0  0.11282950761E+03  0.27096047714E+02  0.28569869440E+03  0.31783240484E+03  0.77000000000E+02 0.  0.
<mgrwt>
<rscale>  0 0.27886253E+03</rscale>
<asrwt>0</asrwt>
<pdfrwt beam="1">  1        2 0.48289312E-02 0.27886253E+03</pdfrwt>
<pdfrwt beam="2">  1       -2 0.82162425E-01 0.27886253E+03</pdfrwt>
<totfact> 0.22081115E+03</totfact>
</mgrwt>
</event>
<event>
 4    1  0.1330040E-003  0.1745137E+03  0.7818608E-02  0.1173221E+00
          2   -1    0    0  501    0  0.00000000000E+00  0.00000000000E+00  0.77230745013E+03  0.77230745013E+03  0.25500000000E-02 0.  1.
         -2   -1    0    0    0  501 -0.00000000000E+00 -0.00000000000E+00 -0.98584550017E+01  0.98584553315E+01  0.25500000000E-02 0. -1.
    5000001    1    1    2    0    0  0.38665831035E+02 -0.13772931038E+02  0.38183008053E+03  0.39167327011E+03  0.77000000000E+02 0.  0.
   -5000001    1    1    2    0    0 -0.38665831035E+02  0.13772931038E+02  0.38061891459E+03  0.39049263535E+03  0.77000000000E+02 0.  0.
<mgrwt>
<rscale>  0 0.17451371E+03</rscale>
<asrwt>0</asrwt>
<pdfrwt beam="1">  1        2 0.11032969E+00 0.17451371E+03</pdfrwt>
<pdfrwt beam="2">  1       -2 0.14083500E-02 0.17451371E+03</pdfrwt>
<totfact> 0.50407481E+04</totfact>
</mgrwt>
</event>
<event>
 4    1  0.1330040E-003  0.2097057E+03  0.7818608E-02  0.1141799E+00
         -2   -1    0    0    0  501 -0.00000000000E+00  0.00000000000E+00  0.99481360744E+01  0.99481364012E+01  0.25500000000E-02 0. -1.
          2   -1    0    0  501    0  0.00000000000E+00 -0.00000000000E+00 -0.11051437948E+04  0.11051437948E+04  0.25500000000E-02 0.  1.
    5000001    1    1    2    0    0  0.94014459743E+01  0.46739530124E+02 -0.82857420562E+03  0.83350895921E+03  0.77000000000E+02 0.  0.
   -5000001    1    1    2    0    0 -0.94014459743E+01 -0.46739530124E+02 -0.26662145314E+03  0.28158297203E+03  0.77000000000E+02 0.  0.
<mgrwt>
<rscale>  0 0.20970571E+03</rscale>
<asrwt>0</asrwt>
<pdfrwt beam="1">  1        2 0.15787761E+00 0.20970571E+03</pdfrwt>
<pdfrwt beam="2">  1       -2 0.14211630E-02 0.20970571E+03</pdfrwt>
<totfact> 0.31668363E+04</totfact>
</mgrwt>
</event>
<event>
 4    1  0.1330040E-003  0.2421912E+03  0.7818608E-02  0.1118342E+00
          2   -1    0    0  501    0  0.00000000000E+00  0.00000000000E+00  0.23113768353E+04  0.23113768353E+04  0.25500000000E-02 0.  1.
         -2   -1    0    0    0  501 -0.00000000000E+00 -0.00000000000E+00 -0.63443306452E+01  0.63443311576E+01  0.25500000000E-02 0. -1.
    5000001    1    1    2    0    0  0.56873484674E+02  0.62580059819E+02  0.15334234596E+04  0.15376824651E+04  0.77000000000E+02 0.  0.
   -5000001    1    1    2    0    0 -0.56873484674E+02 -0.62580059819E+02  0.77160904507E+03  0.78003870134E+03  0.77000000000E+02 0.  0.
<mgrwt>
<rscale>  0 0.24219116E+03</rscale>
<asrwt>0</asrwt>
<pdfrwt beam="1">  1        2 0.33019733E+00 0.24219116E+03</pdfrwt>
<pdfrwt beam="2">  1       -2 0.90633123E-03 0.24219116E+03</pdfrwt>
<totfact> 0.15247636E+04</totfact>
</mgrwt>
</event>
<event>
 4    1  0.1330040E-003  0.6562155E+03  0.7818608E-02  0.9795186E-01
          2   -1    0    0  501    0  0.00000000000E+00  0.00000000000E+00  0.79223562191E+03  0.79223562191E+03  0.25500000000E-02 0.  1.
         -2   -1    0    0    0  501 -0.00000000000E+00 -0.00000000000E+00 -0.13588723853E+03  0.13588723855E+03  0.25500000000E-02 0. -1.
    5000001    1    1    2    0    0 -0.11724719861E+03  0.25912643931E+03  0.12403447835E+03  0.31969824671E+03  0.77000000000E+02 0.  0.
   -5000001    1    1    2    0    0  0.11724719861E+03 -0.25912643931E+03  0.53231390503E+03  0.60842461375E+03  0.77000000000E+02 0.  0.
<mgrwt>
<rscale>  0 0.65621555E+03</rscale>
<asrwt>0</asrwt>
<pdfrwt beam="1">  1        2 0.11317652E+00 0.65621555E+03</pdfrwt>
<pdfrwt beam="2">  1       -2 0.19412462E-01 0.65621555E+03</pdfrwt>
<totfact> 0.86818354E+02</totfact>
</mgrwt>
</event>
<event>
 4    1  0.1330040E-003  0.1964259E+03  0.7818608E-02  0.1152790E+00
          2   -1    0    0  501    0  0.00000000000E+00  0.00000000000E+00  0.11096326840E+03  0.11096326843E+03  0.25500000000E-02 0.  1.
         -2   -1    0    0    0  501 -0.00000000000E+00 -0.00000000000E+00 -0.86927685356E+02  0.86927685393E+02  0.25500000000E-02 0. -1.
    5000001    1    1    2    0    0  0.41601700391E+02 -0.34160324792E+02  0.40852077664E+02  0.10244765256E+03  0.77000000000E+02 0.  0.
   -5000001    1    1    2    0    0 -0.41601700391E+02  0.34160324792E+02 -0.16816494617E+02  0.95443301266E+02  0.77000000000E+02 0.  0.
<mgrwt>
<rscale>  0 0.19642586E+03</rscale>
<asrwt>0</asrwt>
<pdfrwt beam="1">  1        2 0.15851895E-01 0.19642586E+03</pdfrwt>
<pdfrwt beam="2">  1       -2 0.12418241E-01 0.19642586E+03</pdfrwt>
<totfact> 0.16404916E+04</totfact>
</mgrwt>
</event>
<event>
 4    1  0.1330040E-003  0.3576545E+03  0.7818608E-02  0.1059516E+00
          2   -1    0    0  501    0  0.00000000000E+00  0.00000000000E+00  0.38894397441E+03  0.38894397442E+03  0.25500000000E-02 0. -1.
         -2   -1    0    0    0  501 -0.00000000000E+00 -0.00000000000E+00 -0.82220526940E+02  0.82220526979E+02  0.25500000000E-02 0.  1.
    5000001    1    1    2    0    0  0.96603594035E+02 -0.12927702683E+03  0.15641578344E+03  0.23757041347E+03  0.77000000000E+02 0.  0.
   -5000001    1    1    2    0    0 -0.96603594035E+02  0.12927702683E+03  0.15030766403E+03  0.23359408792E+03  0.77000000000E+02 0.  0.
<mgrwt>
<rscale>  0 0.35765446E+03</rscale>
<asrwt>0</asrwt>
<pdfrwt beam="1">  1        2 0.55563426E-01 0.35765446E+03</pdfrwt>
<pdfrwt beam="2">  1       -2 0.11745789E-01 0.35765446E+03</pdfrwt>
<totfact> 0.45915082E+03</totfact>
</mgrwt>
</event>
<event>
 4    1  0.1330040E-003  0.2786786E+03  0.7818608E-02  0.1096413E+00
         -2   -1    0    0    0  501 -0.00000000000E+00  0.00000000000E+00  0.30056617986E+03  0.30056617988E+03  0.25500000000E-02 0. -1.
          2   -1    0    0  501    0  0.00000000000E+00 -0.00000000000E+00 -0.64596208533E+02  0.64596208583E+02  0.25500000000E-02 0.  1.
    5000001    1    1    2    0    0  0.96131473667E+02 -0.10663753547E+02  0.20220867045E+03  0.23700700891E+03  0.77000000000E+02 0.  0.
   -5000001    1    1    2    0    0 -0.96131473667E+02  0.10663753547E+02  0.33761300882E+02  0.12815537955E+03  0.77000000000E+02 0.  0.
<mgrwt>
<rscale>  0 0.27867856E+03</rscale>
<asrwt>0</asrwt>
<pdfrwt beam="1">  1        2 0.92280299E-02 0.27867856E+03</pdfrwt>
<pdfrwt beam="2">  1       -2 0.42938025E-01 0.27867856E+03</pdfrwt>
<totfact> 0.36673612E+03</totfact>
</mgrwt>
</event>
<event>
 4    1  0.1330040E-003  0.2460643E+03  0.7818608E-02  0.1115818E+00
         -2   -1    0    0    0  501 -0.00000000000E+00  0.00000000000E+00  0.15564157435E+02  0.15564157644E+02  0.25500000000E-02 0. -1.
          2   -1    0    0  501    0  0.00000000000E+00 -0.00000000000E+00 -0.97254923933E+03  0.97254923933E+03  0.25500000000E-02 0.  1.
    5000001    1    1    2    0    0 -0.37572775111E+02  0.79973921417E+02 -0.62876496057E+03  0.63959511972E+03  0.77000000000E+02 0.  0.
   -5000001    1    1    2    0    0  0.37572775111E+02 -0.79973921417E+02 -0.32822012133E+03  0.34851827725E+03  0.77000000000E+02 0.  0.
<mgrwt>
<rscale>  0 0.24606430E+03</rscale>
<asrwt>0</asrwt>
<pdfrwt beam="1">  1        2 0.13893557E+00 0.24606430E+03</pdfrwt>
<pdfrwt beam="2">  1       -2 0.22234517E-02 0.24606430E+03</pdfrwt>
<totfact> 0.19808321E+04</totfact>
</mgrwt>
</event>
<event>
 4    1  0.1330040E-003  0.2460367E+03  0.7818608E-02  0.1115835E+00
          2   -1    0    0  501    0  0.00000000000E+00  0.00000000000E+00  0.20834607591E+04  0.20834607591E+04  0.25500000000E-02 0.  1.
         -2   -1    0    0    0  501 -0.00000000000E+00 -0.00000000000E+00 -0.72636445968E+01  0.72636450444E+01  0.25500000000E-02 0. -1.
    5000001    1    1    2    0    0  0.48385266766E+02 -0.63443402342E+02  0.14908162626E+04  0.14949342220E+04  0.77000000000E+02 0.  0.
   -5000001    1    1    2    0    0 -0.48385266766E+02  0.63443402342E+02  0.58538085194E+03  0.59579018216E+03  0.77000000000E+02 0.  0.
<mgrwt>
<rscale>  0 0.24603674E+03</rscale>
<asrwt>0</asrwt>
<pdfrwt beam="1">  1        2 0.29763727E+00 0.24603674E+03</pdfrwt>
<pdfrwt beam="2">  1       -2 0.10376635E-02 0.24603674E+03</pdfrwt>
<totfact> 0.16195523E+04</totfact>
</mgrwt>
</event>
<event>
 4    1  0.1330040E-003  0.2113104E+03  0.7818608E-02  0.1140532E+00
         -2   -1    0    0    0  501 -0.00000000000E+00  0.00000000000E+00  0.88107180906E+01  0.88107184596E+01  0.25500000000E-02 0. -1.
          2   -1    0    0  501    0  0.00000000000E+00 -0.00000000000E+00 -0.12669817692E+04  0.12669817692E+04  0.25500000000E-02 0.  1.
    5000001    1    1    2    0    0  0.46286201080E+02 -0.43194417836E+02 -0.84047226710E+03  0.84636328010E+03  0.77000000000E+02 0.  0.
   -5000001    1    1    2    0    0 -0.46286201080E+02  0.43194417836E+02 -0.41769878404E+03  0.42942920759E+03  0.77000000000E+02 0.  0.
<mgrwt>
<rscale>  0 0.21131038E+03</rscale>
<asrwt>0</asrwt>
<pdfrwt beam="1">  1        2 0.18099728E+00 0.21131038E+03</pdfrwt>
<pdfrwt beam="2">  1       -2 0.12586748E-02 0.21131038E+03</pdfrwt>
<totfact> 0.30889371E+04</totfact>
</mgrwt>
</event>
<event>
 4    1  0.1330040E-003  0.1657564E+03  0.7818608E-02  0.1182347E+00
          2   -1    0    0  501    0  0.00000000000E+00  0.00000000000E+00  0.20820401899E+03  0.20820401901E+03  0.25500000000E-02 0.  1.
         -2   -1    0    0    0  501 -0.00000000000E+00 -0.00000000000E+00 -0.32990710245E+02  0.32990710343E+02  0.25500000000E-02 0. -1.
    5000001    1    1    2    0    0  0.23072906237E+02  0.15294280020E+02  0.10677469834E+03  0.13452178340E+03  0.77000000000E+02 0.  0.
   -5000001    1    1    2    0    0 -0.23072906237E+02 -0.15294280020E+02  0.68438610409E+02  0.10667294595E+03  0.77000000000E+02 0.  0.
<mgrwt>
<rscale>  0 0.16575643E+03</rscale>
<asrwt>0</asrwt>
<pdfrwt beam="1">  1        2 0.29743431E-01 0.16575643E+03</pdfrwt>
<pdfrwt beam="2">  1       -2 0.47129586E-02 0.16575643E+03</pdfrwt>
<totfact> 0.35710634E+04</totfact>
</mgrwt>
</event>
<event>
 4    1  0.1330040E-003  0.1768201E+03  0.7818608E-02  0.1170916E+00
         -2   -1    0    0    0  501 -0.00000000000E+00  0.00000000000E+00  0.91576517910E+02  0.91576517945E+02  0.25500000000E-02 0. -1.
          2   -1    0    0  501    0  0.00000000000E+00 -0.00000000000E+00 -0.85353112637E+02  0.85353112675E+02  0.25500000000E-02 0.  1.
    5000001    1    1    2    0    0  0.29597681847E+02 -0.29537696318E+02  0.14902146856E+02  0.88879537889E+02  0.77000000000E+02 0.  0.
   -5000001    1    1    2    0    0 -0.29597681847E+02  0.29537696318E+02 -0.86787415834E+01  0.88050092731E+02  0.77000000000E+02 0.  0.
<mgrwt>
<rscale>  0 0.17682014E+03</rscale>
<asrwt>0</asrwt>
<pdfrwt beam="1">  1        2 0.12193302E-01 0.17682014E+03</pdfrwt>
<pdfrwt beam="2">  1       -2 0.13082360E-01 0.17682014E+03</pdfrwt>
<totfact> 0.20424571E+04</totfact>
</mgrwt>
</event>
<event>
 4    1  0.1330040E-003  0.3481059E+03  0.7818608E-02  0.1063395E+00
         -2   -1    0    0    0  501 -0.00000000000E+00  0.00000000000E+00  0.16656319115E+02  0.16656319310E+02  0.25500000000E-02 0. -1.
          2   -1    0    0  501    0  0.00000000000E+00 -0.00000000000E+00 -0.18187946878E+04  0.18187946878E+04  0.25500000000E-02 0.  1.
    5000001    1    1    2    0    0  0.91115021362E+02 -0.11011578429E+03 -0.57019045411E+03  0.59285207854E+03  0.77000000000E+02 0.  0.
   -5000001    1    1    2    0    0 -0.91115021362E+02  0.11011578429E+03 -0.12319479146E+04  0.12425989286E+04  0.77000000000E+02 0.  0.
<mgrwt>
<rscale>  0 0.34810587E+03</rscale>
<asrwt>0</asrwt>
<pdfrwt beam="1">  1        2 0.25982769E+00 0.34810587E+03</pdfrwt>
<pdfrwt beam="2">  1       -2 0.23794753E-02 0.34810587E+03</pdfrwt>
<totfact> 0.64916853E+03</totfact>
</mgrwt>
</event>
<event>
 4    1  0.1330040E-003  0.3587102E+03  0.7818608E-02  0.1059096E+00
         -2   -1    0    0    0  501 -0.00000000000E+00  0.00000000000E+00  0.46645488443E+02  0.46645488513E+02  0.25500000000E-02 0. -1.
          2   -1    0    0  501    0  0.00000000000E+00 -0.00000000000E+00 -0.68963282251E+03  0.68963282251E+03  0.25500000000E-02 0.  1.
    5000001    1    1    2    0    0 -0.22157182625E+02  0.16043822811E+03 -0.32726066110E+03  0.37317543607E+03  0.77000000000E+02 0.  0.
   -5000001    1    1    2    0    0  0.22157182625E+02 -0.16043822811E+03 -0.31572667296E+03  0.36310287496E+03  0.77000000000E+02 0.  0.
<mgrwt>
<rscale>  0 0.35871024E+03</rscale>
<asrwt>0</asrwt>
<pdfrwt beam="1">  1        2 0.98518969E-01 0.35871024E+03</pdfrwt>
<pdfrwt beam="2">  1       -2 0.66636416E-02 0.35871024E+03</pdfrwt>
<totfact> 0.59089925E+03</totfact>
</mgrwt>
</event>
<event>
 4    1  0.1330040E-003  0.3142045E+03  0.7818608E-02  0.1078348E+00
          2   -1    0    0  501    0  0.00000000000E+00  0.00000000000E+00  0.10364390219E+04  0.10364390219E+04  0.25500000000E-02 0.  1.
         -2   -1    0    0    0  501 -0.00000000000E+00 -0.00000000000E+00 -0.23813382861E+02  0.23813382997E+02  0.25500000000E-02 0. -1.
    5000001    1    1    2    0    0  0.12369028085E+02 -0.13519547173E+03  0.56679947359E+03  0.58789578302E+03  0.77000000000E+02 0.  0.
   -5000001    1    1    2    0    0 -0.12369028085E+02  0.13519547173E+03  0.44582616544E+03  0.47235662187E+03  0.77000000000E+02 0.  0.
<mgrwt>
<rscale>  0 0.31420452E+03</rscale>
<asrwt>0</asrwt>
<pdfrwt beam="1">  1        2 0.14806271E+00 0.31420452E+03</pdfrwt>
<pdfrwt beam="2">  1       -2 0.34019121E-02 0.31420452E+03</pdfrwt>
<totfact> 0.97472608E+03</totfact>
</mgrwt>
</event>
<event>
 4    1  0.1330040E-003  0.2723711E+03  0.7818608E-02  0.1099930E+00
          2   -1    0    0  501    0  0.00000000000E+00  0.00000000000E+00  0.85877007419E+03  0.85877007419E+03  0.25500000000E-02 0.  1.
         -2   -1    0    0    0  501 -0.00000000000E+00 -0.00000000000E+00 -0.21596584122E+02  0.21596584273E+02  0.25500000000E-02 0. -1.
    5000001    1    1    2    0    0  0.59716354822E+02  0.93543521488E+02  0.36250338580E+03  0.38685157122E+03  0.77000000000E+02 0.  0.
   -5000001    1    1    2    0    0 -0.59716354822E+02 -0.93543521488E+02  0.47467010427E+03  0.49351508724E+03  0.77000000000E+02 0.  0.
<mgrwt>
<rscale>  0 0.27237107E+03</rscale>
<asrwt>0</asrwt>
<pdfrwt beam="1">  1        2 0.12268145E+00 0.27237107E+03</pdfrwt>
<pdfrwt beam="2">  1       -2 0.30852260E-02 0.27237107E+03</pdfrwt>
<totfact> 0.14409634E+04</totfact>
</mgrwt>
</event>
<event>
 4    1  0.1330040E-003  0.2649195E+03  0.7818608E-02  0.1104223E+00
         -2   -1    0    0    0  501 -0.00000000000E+00  0.00000000000E+00  0.20341212520E+03  0.20341212522E+03  0.25500000000E-02 0. -1.
          2   -1    0    0  501    0  0.00000000000E+00 -0.00000000000E+00 -0.86256341739E+02  0.86256341777E+02  0.25500000000E-02 0.  1.
    5000001    1    1    2    0    0  0.61398682429E+02 -0.83389485139E+02  0.91252356711E+02  0.15804935002E+03  0.77000000000E+02 0.  0.
   -5000001    1    1    2    0    0 -0.61398682429E+02  0.83389485139E+02  0.25903426749E+02  0.13161911697E+03  0.77000000000E+02 0.  0.
<mgrwt>
<rscale>  0 0.26491950E+03</rscale>
<asrwt>0</asrwt>
<pdfrwt beam="1">  1        2 0.12322335E-01 0.26491950E+03</pdfrwt>
<pdfrwt beam="2">  1       -2 0.29058875E-01 0.26491950E+03</pdfrwt>
<totfact> 0.53142922E+03</totfact>
</mgrwt>
</event>
<event>
 4    1  0.1330040E-003  0.2924212E+03  0.7818608E-02  0.1089092E+00
          2   -1    0    0  501    0  0.00000000000E+00  0.00000000000E+00  0.29001783467E+03  0.29001783468E+03  0.25500000000E-02 0.  1.
         -2   -1    0    0    0  501 -0.00000000000E+00 -0.00000000000E+00 -0.73711103310E+02  0.73711103354E+02  0.25500000000E-02 0. -1.
    5000001    1    1    2    0    0 -0.62349304831E+02 -0.91991229796E+02  0.17739378446E+03  0.22304120009E+03  0.77000000000E+02 0.  0.
   -5000001    1    1    2    0    0  0.62349304831E+02  0.91991229796E+02  0.38912946903E+02  0.14068773795E+03  0.77000000000E+02 0.  0.
<mgrwt>
<rscale>  0 0.29242117E+03</rscale>
<asrwt>0</asrwt>
<pdfrwt beam="1">  1        2 0.41431120E-01 0.29242117E+03</pdfrwt>
<pdfrwt beam="2">  1       -2 0.10530157E-01 0.29242117E+03</pdfrwt>
<totfact> 0.74768689E+03</totfact>
</mgrwt>
</event>
<event>
 4    1  0.1330040E-003  0.2992302E+03  0.7818608E-02  0.1085626E+00
         -2   -1    0    0    0  501 -0.00000000000E+00  0.00000000000E+00  0.14284839114E+02  0.14284839342E+02  0.25500000000E-02 0. -1.
          2   -1    0    0  501    0  0.00000000000E+00 -0.00000000000E+00 -0.15670231238E+04  0.15670231238E+04  0.25500000000E-02 0.  1.
    5000001    1    1    2    0    0  0.81821082308E+02 -0.56216659229E+02 -0.12057128754E+04  0.12122407105E+04  0.77000000000E+02 0.  0.
   -5000001    1    1    2    0    0 -0.81821082308E+02  0.56216659229E+02 -0.34702540928E+03  0.36906725264E+03  0.77000000000E+02 0.  0.
<mgrwt>
<rscale>  0 0.29923017E+03</rscale>
<asrwt>0</asrwt>
<pdfrwt beam="1">  1        2 0.22386034E+00 0.29923017E+03</pdfrwt>
<pdfrwt beam="2">  1       -2 0.20406923E-02 0.29923017E+03</pdfrwt>
<totfact> 0.10851549E+04</totfact>
</mgrwt>
</event>
<event>
 4    1  0.1330040E-003  0.2502335E+03  0.7818608E-02  0.1113157E+00
          2   -1    0    0  501    0  0.00000000000E+00  0.00000000000E+00  0.31882610288E+04  0.31882610288E+04  0.25500000000E-02 0.  1.
         -2   -1    0    0    0  501 -0.00000000000E+00 -0.00000000000E+00 -0.49099481267E+01  0.49099487889E+01  0.25500000000E-02 0. -1.
    5000001    1    1    2    0    0 -0.90755882421E+02  0.32707380145E+02  0.13305332455E+04  0.13362462798E+04  0.77000000000E+02 0.  0.
   -5000001    1    1    2    0    0  0.90755882421E+02 -0.32707380145E+02  0.18528178351E+04  0.18569246977E+04  0.77000000000E+02 0.  0.
<mgrwt>
<rscale>  0 0.25023347E+03</rscale>
<asrwt>0</asrwt>
<pdfrwt beam="1">  1        2 0.45546735E+00 0.25023347E+03</pdfrwt>
<pdfrwt beam="2">  1       -2 0.70141891E-03 0.25023347E+03</pdfrwt>
<totfact> 0.78425786E+03</totfact>
</mgrwt>
</event>
<event>
 4    1  0.1330040E-003  0.2422707E+03  0.7818608E-02  0.1118289E+00
          2   -1    0    0  501    0  0.00000000000E+00  0.00000000000E+00  0.10345048003E+04  0.10345048003E+04  0.25500000000E-02 0.  1.
         -2   -1    0    0    0  501 -0.00000000000E+00 -0.00000000000E+00 -0.14184344904E+02  0.14184345134E+02  0.25500000000E-02 0. -1.
    5000001    1    1    2    0    0 -0.13513905333E+02 -0.92162371234E+02  0.54591881583E+03  0.55913583483E+03  0.77000000000E+02 0.  0.
   -5000001    1    1    2    0    0  0.13513905333E+02  0.92162371234E+02  0.47440163960E+03  0.48955331064E+03  0.77000000000E+02 0.  0.
<mgrwt>
<rscale>  0 0.24227070E+03</rscale>
<asrwt>0</asrwt>
<pdfrwt beam="1">  1        2 0.14778637E+00 0.24227070E+03</pdfrwt>
<pdfrwt beam="2">  1       -2 0.20263355E-02 0.24227070E+03</pdfrwt>
<totfact> 0.20864453E+04</totfact>
</mgrwt>
</event>
<event>
 4    1  0.1330040E-003  0.1899410E+03  0.7818608E-02  0.1158515E+00
         -2   -1    0    0    0  501 -0.00000000000E+00  0.00000000000E+00  0.82979727275E+02  0.82979727314E+02  0.25500000000E-02 0. -1.
          2   -1    0    0  501    0  0.00000000000E+00 -0.00000000000E+00 -0.10869397627E+03  0.10869397630E+03  0.25500000000E-02 0.  1.
    5000001    1    1    2    0    0 -0.91448570838E+01 -0.54780396773E+02 -0.10410917085E+02  0.95508677492E+02  0.77000000000E+02 0.  0.
   -5000001    1    1    2    0    0  0.91448570838E+01  0.54780396773E+02 -0.15303331912E+02  0.96165026123E+02  0.77000000000E+02 0.  0.
<mgrwt>
<rscale>  0 0.18994101E+03</rscale>
<asrwt>0</asrwt>
<pdfrwt beam="1">  1        2 0.15527711E-01 0.18994101E+03</pdfrwt>
<pdfrwt beam="2">  1       -2 0.11854247E-01 0.18994101E+03</pdfrwt>
<totfact> 0.18064259E+04</totfact>
</mgrwt>
</event>
<event>
 4    1  0.1330040E-003  0.2952549E+03  0.7818608E-02  0.1087637E+00
         -2   -1    0    0    0  501 -0.00000000000E+00  0.00000000000E+00  0.29890961354E+02  0.29890961462E+02  0.25500000000E-02 0.  1.
          2   -1    0    0  501    0  0.00000000000E+00 -0.00000000000E+00 -0.72911230080E+03  0.72911230080E+03  0.25500000000E-02 0. -1.
    5000001    1    1    2    0    0 -0.85069414329E+02  0.92640756256E+02 -0.36699887408E+03  0.39552027578E+03  0.77000000000E+02 0.  0.
   -5000001    1    1    2    0    0  0.85069414329E+02 -0.92640756256E+02 -0.33222246536E+03  0.36348298648E+03  0.77000000000E+02 0.  0.
<mgrwt>
<rscale>  0 0.29525492E+03</rscale>
<asrwt>0</asrwt>
<pdfrwt beam="1">  1        2 0.10415889E+00 0.29525492E+03</pdfrwt>
<pdfrwt beam="2">  1       -2 0.42701378E-02 0.29525492E+03</pdfrwt>
<totfact> 0.10867541E+04</totfact>
</mgrwt>
</event>
<event>
 4    1  0.1330040E-003  0.4157232E+03  0.7818608E-02  0.1038467E+00
         -2   -1    0    0    0  501 -0.00000000000E+00  0.00000000000E+00  0.18505983298E+04  0.18505983298E+04  0.25500000000E-02 0. -1.
          2   -1    0    0  501    0  0.00000000000E+00 -0.00000000000E+00 -0.23347278445E+02  0.23347278584E+02  0.25500000000E-02 0.  1.
    5000001    1    1    2    0    0 -0.17833832685E+03  0.65219366105E+02  0.75622366774E+03  0.78349305050E+03  0.77000000000E+02 0.  0.
   -5000001    1    1    2    0    0  0.17833832685E+03 -0.65219366105E+02  0.10710273836E+04  0.10904525579E+04  0.77000000000E+02 0.  0.
<mgrwt>
<rscale>  0 0.41572315E+03</rscale>
<asrwt>0</asrwt>
<pdfrwt beam="1">  1        2 0.33353252E-02 0.41572315E+03</pdfrwt>
<pdfrwt beam="2">  1       -2 0.26437122E+00 0.41572315E+03</pdfrwt>
<totfact> 0.15900886E+02</totfact>
</mgrwt>
</event>
<event>
 4    1  0.1330040E-003  0.2640156E+03  0.7818608E-02  0.1104754E+00
          2   -1    0    0  501    0  0.00000000000E+00  0.00000000000E+00  0.93948996824E+02  0.93948996859E+02  0.25500000000E-02 0.  1.
         -2   -1    0    0    0  501 -0.00000000000E+00 -0.00000000000E+00 -0.18548427089E+03  0.18548427091E+03  0.25500000000E-02 0. -1.
    5000001    1    1    2    0    0  0.19068515344E+02  0.85315377429E+02 -0.11147983613E+03  0.16124228902E+03  0.77000000000E+02 0.  0.
   -5000001    1    1    2    0    0 -0.19068515344E+02 -0.85315377429E+02  0.19944562061E+02  0.11819097875E+03  0.77000000000E+02 0.  0.
<mgrwt>
<rscale>  0 0.26401561E+03</rscale>
<asrwt>0</asrwt>
<pdfrwt beam="1">  1        2 0.13421285E-01 0.26401561E+03</pdfrwt>
<pdfrwt beam="2">  1       -2 0.26497753E-01 0.26401561E+03</pdfrwt>
<totfact> 0.56550291E+03</totfact>
</mgrwt>
</event>
<event>
 4    1  0.1330040E-003  0.5029453E+03  0.7818608E-02  0.1013013E+00
          2   -1    0    0  501    0  0.00000000000E+00  0.00000000000E+00  0.62561055762E+03  0.62561055763E+03  0.25500000000E-02 0.  1.
         -2   -1    0    0    0  501 -0.00000000000E+00 -0.00000000000E+00 -0.10108285960E+03  0.10108285963E+03  0.25500000000E-02 0. -1.
    5000001    1    1    2    0    0  0.59338209319E+02 -0.21544415045E+03  0.13820381092E+03  0.27380010665E+03  0.77000000000E+02 0.  0.
   -5000001    1    1    2    0    0 -0.59338209319E+02  0.21544415045E+03  0.38632388710E+03  0.45289331061E+03  0.77000000000E+02 0.  0.
<mgrwt>
<rscale>  0 0.50294534E+03</rscale>
<asrwt>0</asrwt>
<pdfrwt beam="1">  1        2 0.89372938E-01 0.50294534E+03</pdfrwt>
<pdfrwt beam="2">  1       -2 0.14440408E-01 0.50294534E+03</pdfrwt>
<totfact> 0.19222861E+03</totfact>
</mgrwt>
</event>
<event>
 4    1  0.1330040E-003  0.2211378E+03  0.7818608E-02  0.1133038E+00
          2   -1    0    0  501    0  0.00000000000E+00  0.00000000000E+00  0.14286945773E+03  0.14286945775E+03  0.25500000000E-02 0.  1.
         -2   -1    0    0    0  501 -0.00000000000E+00 -0.00000000000E+00 -0.85570956490E+02  0.85570956528E+02  0.25500000000E-02 0. -1.
    5000001    1    1    2    0    0  0.90286180297E+01  0.65224828790E+02  0.74391089983E+02  0.12569339085E+03  0.77000000000E+02 0.  0.
   -5000001    1    1    2    0    0 -0.90286180297E+01 -0.65224828790E+02 -0.17092588744E+02  0.10274702343E+03  0.77000000000E+02 0.  0.
<mgrwt>
<rscale>  0 0.22113775E+03</rscale>
<asrwt>0</asrwt>
<pdfrwt beam="1">  1        2 0.20409923E-01 0.22113775E+03</pdfrwt>
<pdfrwt beam="2">  1       -2 0.12224422E-01 0.22113775E+03</pdfrwt>
<totfact> 0.12670469E+04</totfact>
</mgrwt>
</event>
<event>
 4    1  0.1330040E-003  0.3795572E+03  0.7818608E-02  0.1051098E+00
          2   -1    0    0  501    0  0.00000000000E+00  0.00000000000E+00  0.28509918047E+03  0.28509918048E+03  0.25500000000E-02 0.  1.
         -2   -1    0    0    0  501 -0.00000000000E+00 -0.00000000000E+00 -0.12632768410E+03  0.12632768413E+03  0.25500000000E-02 0. -1.
    5000001    1    1    2    0    0 -0.88683606732E+02  0.86567753414E+02 -0.52163891476E+02  0.15494782867E+03  0.77000000000E+02 0.  0.
   -5000001    1    1    2    0    0  0.88683606732E+02 -0.86567753414E+02  0.21093538784E+03  0.25647903594E+03  0.77000000000E+02 0.  0.
<mgrwt>
<rscale>  0 0.37955721E+03</rscale>
<asrwt>0</asrwt>
<pdfrwt beam="1">  1        2 0.40728454E-01 0.37955721E+03</pdfrwt>
<pdfrwt beam="2">  1       -2 0.18046812E-01 0.37955721E+03</pdfrwt>
<totfact> 0.31601238E+03</totfact>
</mgrwt>
</event>
<event>
 4    1  0.1330040E-003  0.2043958E+03  0.7818608E-02  0.1146082E+00
         -2   -1    0    0    0  501 -0.00000000000E+00  0.00000000000E+00  0.62210164420E+01  0.62210169647E+01  0.25500000000E-02 0. -1.
          2   -1    0    0  501    0  0.00000000000E+00 -0.00000000000E+00 -0.16788920045E+04  0.16788920045E+04  0.25500000000E-02 0.  1.
    5000001    1    1    2    0    0 -0.55346323551E+02 -0.11835966940E+02 -0.11349714012E+04  0.11389874395E+04  0.77000000000E+02 0.  0.
   -5000001    1    1    2    0    0  0.55346323551E+02  0.11835966940E+02 -0.53769958683E+03  0.54612558200E+03  0.77000000000E+02 0.  0.
<mgrwt>
<rscale>  0 0.20439584E+03</rscale>
<asrwt>0</asrwt>
<pdfrwt beam="1">  1        2 0.23984143E+00 0.20439584E+03</pdfrwt>
<pdfrwt beam="2">  1       -2 0.88871774E-03 0.20439584E+03</pdfrwt>
<totfact> 0.31600669E+04</totfact>
</mgrwt>
</event>
<event>
 4    1  0.1330040E-003  0.2282268E+03  0.7818608E-02  0.1127894E+00
          2   -1    0    0  501    0  0.00000000000E+00  0.00000000000E+00  0.16432948584E+04  0.16432948584E+04  0.25500000000E-02 0.  1.
         -2   -1    0    0    0  501 -0.00000000000E+00 -0.00000000000E+00 -0.79242406203E+01  0.79242410306E+01  0.25500000000E-02 0. -1.
    5000001    1    1    2    0    0 -0.34981166368E+02  0.64167341480E+02  0.11204967414E+04  0.11255145833E+04  0.77000000000E+02 0.  0.
   -5000001    1    1    2    0    0  0.34981166368E+02 -0.64167341480E+02  0.51487387638E+03  0.52570451614E+03  0.77000000000E+02 0.  0.
<mgrwt>
<rscale>  0 0.22822677E+03</rscale>
<asrwt>0</asrwt>
<pdfrwt beam="1">  1        2 0.23475645E+00 0.22822677E+03</pdfrwt>
<pdfrwt beam="2">  1       -2 0.11320342E-02 0.22822677E+03</pdfrwt>
<totfact> 0.23321894E+04</totfact>
</mgrwt>
</event>
<event>
 4    1  0.1330040E-003  0.4098873E+03  0.7818608E-02  0.1040409E+00
          2   -1    0    0  501    0  0.00000000000E+00  0.00000000000E+00  0.20198766347E+03  0.20198766348E+03  0.25500000000E-02 0.  1.
         -2   -1    0    0    0  501 -0.00000000000E+00 -0.00000000000E+00 -0.20794289437E+03  0.20794289439E+03  0.25500000000E-02 0. -1.
    5000001    1    1    2    0    0 -0.17166492026E+03  0.80586547749E+02  0.75050388183E+01  0.20481299308E+03  0.77000000000E+02 0.  0.
   -5000001    1    1    2    0    0  0.17166492026E+03 -0.80586547749E+02 -0.13460269723E+02  0.20511756479E+03  0.77000000000E+02 0.  0.
<mgrwt>
<rscale>  0 0.40988730E+03</rscale>
<asrwt>0</asrwt>
<pdfrwt beam="1">  1        2 0.28855381E-01 0.40988730E+03</pdfrwt>
<pdfrwt beam="2">  1       -2 0.29706128E-01 0.40988730E+03</pdfrwt>
<totfact> 0.19220148E+03</totfact>
</mgrwt>
</event>
<event>
 4    1  0.1330040E-003  0.3216818E+03  0.7818608E-02  0.1074878E+00
          2   -1    0    0  501    0  0.00000000000E+00  0.00000000000E+00  0.20778144537E+03  0.20778144538E+03  0.25500000000E-02 0.  1.
         -2   -1    0    0    0  501 -0.00000000000E+00 -0.00000000000E+00 -0.12450485861E+03  0.12450485864E+03  0.25500000000E-02 0. -1.
    5000001    1    1    2    0    0  0.57967426729E+02  0.88260374294E+02 -0.55211172539E+02  0.14187103230E+03  0.77000000000E+02 0.  0.
   -5000001    1    1    2    0    0 -0.57967426729E+02 -0.88260374294E+02  0.13848775929E+03  0.19041527172E+03  0.77000000000E+02 0.  0.
<mgrwt>
<rscale>  0 0.32168183E+03</rscale>
<asrwt>0</asrwt>
<pdfrwt beam="1">  1        2 0.29683064E-01 0.32168183E+03</pdfrwt>
<pdfrwt beam="2">  1       -2 0.17786408E-01 0.32168183E+03</pdfrwt>
<totfact> 0.45623986E+03</totfact>
</mgrwt>
</event>
<event>
 4    1  0.1330040E-003  0.2565188E+03  0.7818608E-02  0.1109253E+00
          2   -1    0    0  501    0  0.00000000000E+00  0.00000000000E+00  0.62132530230E+03  0.62132530231E+03  0.25500000000E-02 0.  1.
         -2   -1    0    0    0  501 -0.00000000000E+00 -0.00000000000E+00 -0.26476429985E+02  0.26476430108E+02  0.25500000000E-02 0. -1.
    5000001    1    1    2    0    0  0.33665081959E+02 -0.66850520087E+02  0.12030438128E+03  0.16125902745E+03  0.77000000000E+02 0.  0.
   -5000001    1    1    2    0    0 -0.33665081959E+02  0.66850520087E+02  0.47454449104E+03  0.48654270497E+03  0.77000000000E+02 0.  0.
<mgrwt>
<rscale>  0 0.25651882E+03</rscale>
<asrwt>0</asrwt>
<pdfrwt beam="1">  1        2 0.88760741E-01 0.25651882E+03</pdfrwt>
<pdfrwt beam="2">  1       -2 0.37823479E-02 0.25651882E+03</pdfrwt>
<totfact> 0.15647468E+04</totfact>
</mgrwt>
</event>
<event>
 4    1  0.1330040E-003  0.1892557E+03  0.7818608E-02  0.1159134E+00
         -2   -1    0    0    0  501 -0.00000000000E+00  0.00000000000E+00  0.57159761453E+02  0.57159761510E+02  0.25500000000E-02 0. -1.
          2   -1    0    0  501    0  0.00000000000E+00 -0.00000000000E+00 -0.15665617674E+03  0.15665617676E+03  0.25500000000E-02 0.  1.
    5000001    1    1    2    0    0  0.47685569737E+02 -0.22190895556E+02 -0.67932998259E+02  0.11537002063E+03  0.77000000000E+02 0.  0.
   -5000001    1    1    2    0    0 -0.47685569737E+02  0.22190895556E+02 -0.31563417030E+02  0.98445917647E+02  0.77000000000E+02 0.  0.
<mgrwt>
<rscale>  0 0.18925570E+03</rscale>
<asrwt>0</asrwt>
<pdfrwt beam="1">  1        2 0.22379454E-01 0.18925570E+03</pdfrwt>
<pdfrwt beam="2">  1       -2 0.81656803E-02 0.18925570E+03</pdfrwt>
<totfact> 0.21380734E+04</totfact>
</mgrwt>
</event>
<event>
 4    1  0.1330040E-003  0.2800978E+03  0.7818608E-02  0.1095636E+00
         -2   -1    0    0    0  501 -0.00000000000E+00  0.00000000000E+00  0.37696563330E+03  0.37696563331E+03  0.25500000000E-02 0. -1.
          2   -1    0    0  501    0  0.00000000000E+00 -0.00000000000E+00 -0.52030448733E+02  0.52030448796E+02  0.25500000000E-02 0.  1.
    5000001    1    1    2    0    0  0.27219937438E+02  0.11231791766E+03  0.13471016203E+03  0.19347368652E+03  0.77000000000E+02 0.  0.
   -5000001    1    1    2    0    0 -0.27219937438E+02 -0.11231791766E+03  0.19022502254E+03  0.23552239558E+03  0.77000000000E+02 0.  0.
<mgrwt>
<rscale>  0 0.28009778E+03</rscale>
<asrwt>0</asrwt>
<pdfrwt beam="1">  1        2 0.74329215E-02 0.28009778E+03</pdfrwt>
<pdfrwt beam="2">  1       -2 0.53852232E-01 0.28009778E+03</pdfrwt>
<totfact> 0.30810612E+03</totfact>
</mgrwt>
</event>
<event>
 4    1  0.1330040E-003  0.4024616E+03  0.7818608E-02  0.1042931E+00
          2   -1    0    0  501    0  0.00000000000E+00  0.00000000000E+00  0.13480655465E+04  0.13480655465E+04  0.25500000000E-02 0.  1.
         -2   -1    0    0    0  501 -0.00000000000E+00 -0.00000000000E+00 -0.30038474404E+02  0.30038474512E+02  0.25500000000E-02 0. -1.
    5000001    1    1    2    0    0 -0.12200486744E+03  0.77593494665E+02  0.25882436107E+03  0.30630864822E+03  0.77000000000E+02 0.  0.
   -5000001    1    1    2    0    0  0.12200486744E+03 -0.77593494665E+02  0.10592027111E+04  0.10717953728E+04  0.77000000000E+02 0.  0.
<mgrwt>
<rscale>  0 0.40246159E+03</rscale>
<asrwt>0</asrwt>
<pdfrwt beam="1">  1        2 0.19258084E+00 0.40246159E+03</pdfrwt>
<pdfrwt beam="2">  1       -2 0.42912096E-02 0.40246159E+03</pdfrwt>
<totfact> 0.46352688E+03</totfact>
</mgrwt>
</event>
<event>
 4    1  0.1330040E-003  0.2420706E+03  0.7818608E-02  0.1118421E+00
          2   -1    0    0  501    0  0.00000000000E+00  0.00000000000E+00  0.78651959589E+03  0.78651959590E+03  0.25500000000E-02 0.  1.
         -2   -1    0    0    0  501 -0.00000000000E+00 -0.00000000000E+00 -0.18625786500E+02  0.18625786675E+02  0.25500000000E-02 0. -1.
    5000001    1    1    2    0    0  0.83739580264E+01 -0.91218491101E+02  0.44433235620E+03  0.46016429572E+03  0.77000000000E+02 0.  0.
   -5000001    1    1    2    0    0 -0.83739580264E+01  0.91218491101E+02  0.32356145319E+03  0.34498108685E+03  0.77000000000E+02 0.  0.
<mgrwt>
<rscale>  0 0.24207062E+03</rscale>
<asrwt>0</asrwt>
<pdfrwt beam="1">  1        2 0.11235992E+00 0.24207062E+03</pdfrwt>
<pdfrwt beam="2">  1       -2 0.26608271E-02 0.24207062E+03</pdfrwt>
<totfact> 0.19917594E+04</totfact>
</mgrwt>
</event>
<event>
 4    1  0.1330040E-003  0.3135260E+03  0.7818608E-02  0.1078668E+00
          2   -1    0    0  501    0  0.00000000000E+00  0.00000000000E+00  0.86205816409E+02  0.86205816446E+02  0.25500000000E-02 0.  1.
         -2   -1    0    0    0  501 -0.00000000000E+00 -0.00000000000E+00 -0.28506929651E+03  0.28506929652E+03  0.25500000000E-02 0. -1.
    5000001    1    1    2    0    0 -0.10407625410E+03 -0.80792796984E+02 -0.56960829713E+02  0.16288916119E+03  0.77000000000E+02 0.  0.
   -5000001    1    1    2    0    0  0.10407625410E+03  0.80792796984E+02 -0.14190265039E+03  0.20838595178E+03  0.77000000000E+02 0.  0.
<mgrwt>
<rscale>  0 0.31352596E+03</rscale>
<asrwt>0</asrwt>
<pdfrwt beam="1">  1        2 0.12315117E-01 0.31352596E+03</pdfrwt>
<pdfrwt beam="2">  1       -2 0.40724185E-01 0.31352596E+03</pdfrwt>
<totfact> 0.28525584E+03</totfact>
</mgrwt>
</event>
<event>
 4    1  0.1330040E-003  0.2730700E+03  0.7818608E-02  0.1099535E+00
          2   -1    0    0  501    0  0.00000000000E+00  0.00000000000E+00  0.27741716241E+04  0.27741716241E+04  0.25500000000E-02 0.  1.
         -2   -1    0    0    0  501 -0.00000000000E+00 -0.00000000000E+00 -0.67197738182E+01  0.67197743021E+01  0.25500000000E-02 0. -1.
    5000001    1    1    2    0    0 -0.10702311635E+03  0.11874061505E+01  0.17448490100E+04  0.17498235412E+04  0.77000000000E+02 0.  0.
   -5000001    1    1    2    0    0  0.10702311635E+03 -0.11874061505E+01  0.10226028402E+04  0.10310678572E+04  0.77000000000E+02 0.  0.
<mgrwt>
<rscale>  0 0.27307000E+03</rscale>
<asrwt>0</asrwt>
<pdfrwt beam="1">  1        2 0.39631184E+00 0.27307000E+03</pdfrwt>
<pdfrwt beam="2">  1       -2 0.95996382E-03 0.27307000E+03</pdfrwt>
<totfact> 0.82404895E+03</totfact>
</mgrwt>
</event>
<event>
 4    1  0.1330040E-003  0.3836045E+03  0.7818608E-02  0.1049610E+00
         -2   -1    0    0    0  501 -0.00000000000E+00  0.00000000000E+00  0.49526973854E+02  0.49526973919E+02  0.25500000000E-02 0.  1.
          2   -1    0    0  501    0  0.00000000000E+00 -0.00000000000E+00 -0.74278904685E+03  0.74278904685E+03  0.25500000000E-02 0. -1.
    5000001    1    1    2    0    0 -0.37884572255E+02  0.16736281900E+03 -0.42428592661E+03  0.46410462346E+03  0.77000000000E+02 0.  0.
   -5000001    1    1    2    0    0  0.37884572255E+02 -0.16736281900E+03 -0.26897614638E+03  0.32821139731E+03  0.77000000000E+02 0.  0.
<mgrwt>
<rscale>  0 0.38360445E+03</rscale>
<asrwt>0</asrwt>
<pdfrwt beam="1">  1        2 0.10611271E+00 0.38360445E+03</pdfrwt>
<pdfrwt beam="2">  1       -2 0.70752824E-02 0.38360445E+03</pdfrwt>
<totfact> 0.49263370E+03</totfact>
</mgrwt>
</event>
<event>
 4    1  0.1330040E-003  0.3685646E+03  0.7818608E-02  0.1055243E+00
         -2   -1    0    0    0  501 -0.00000000000E+00  0.00000000000E+00  0.44814360183E+02  0.44814360256E+02  0.25500000000E-02 0. -1.
          2   -1    0    0  501    0  0.00000000000E+00 -0.00000000000E+00 -0.75779214689E+03  0.75779214689E+03  0.25500000000E-02 0.  1.
    5000001    1    1    2    0    0  0.89560393886E+02 -0.14126666518E+03 -0.37243720816E+03  0.41547058725E+03  0.77000000000E+02 0.  0.
   -5000001    1    1    2    0    0 -0.89560393886E+02  0.14126666518E+03 -0.34054057854E+03  0.38713591990E+03  0.77000000000E+02 0.  0.
<mgrwt>
<rscale>  0 0.36856462E+03</rscale>
<asrwt>0</asrwt>
<pdfrwt beam="1">  1        2 0.10825601E+00 0.36856462E+03</pdfrwt>
<pdfrwt beam="2">  1       -2 0.64020519E-02 0.36856462E+03</pdfrwt>
<totfact> 0.56127509E+03</totfact>
</mgrwt>
</event>
<event>
 4    1  0.1330040E-003  0.6330086E+03  0.7818608E-02  0.9839195E-01
         -2   -1    0    0    0  501 -0.00000000000E+00  0.00000000000E+00  0.65075143332E+02  0.65075143382E+02  0.25500000000E-02 0. -1.
          2   -1    0    0  501    0  0.00000000000E+00 -0.00000000000E+00 -0.15393740309E+04  0.15393740309E+04  0.25500000000E-02 0.  1.
    5000001    1    1    2    0    0  0.69604789331E+01  0.29008183237E+03 -0.48305169111E+03  0.56873882761E+03  0.77000000000E+02 0.  0.
   -5000001    1    1    2    0    0 -0.69604789331E+01 -0.29008183237E+03 -0.99124719648E+03  0.10357103467E+04  0.77000000000E+02 0.  0.
<mgrwt>
<rscale>  0 0.63300864E+03</rscale>
<asrwt>0</asrwt>
<pdfrwt beam="1">  1        2 0.21991055E+00 0.63300864E+03</pdfrwt>
<pdfrwt beam="2">  1       -2 0.92964500E-02 0.63300864E+03</pdfrwt>
<totfact> 0.10921956E+03</totfact>
</mgrwt>
</event>
<event>
 4    1  0.1330040E-003  0.2325200E+03  0.7818608E-02  0.1124879E+00
          2   -1    0    0  501    0  0.00000000000E+00  0.00000000000E+00  0.12465815523E+04  0.12465815523E+04  0.25500000000E-02 0.  1.
         -2   -1    0    0    0  501 -0.00000000000E+00 -0.00000000000E+00 -0.10842763139E+02  0.10842763439E+02  0.25500000000E-02 0. -1.
    5000001    1    1    2    0    0 -0.63023960405E+02 -0.53348357520E+02  0.46787481706E+03  0.48130438526E+03  0.77000000000E+02 0.  0.
   -5000001    1    1    2    0    0  0.63023960405E+02  0.53348357520E+02  0.76786397211E+03  0.77611993049E+03  0.77000000000E+02 0.  0.
<mgrwt>
<rscale>  0 0.23252001E+03</rscale>
<asrwt>0</asrwt>
<pdfrwt beam="1">  1        2 0.17808295E+00 0.23252001E+03</pdfrwt>
<pdfrwt beam="2">  1       -2 0.15489673E-02 0.23252001E+03</pdfrwt>
<totfact> 0.23548106E+04</totfact>
</mgrwt>
</event>
<event>
 4    1  0.1330040E-003  0.4385460E+03  0.7818608E-02  0.1031194E+00
          2   -1    0    0  501    0  0.00000000000E+00  0.00000000000E+00  0.47060957920E+03  0.47060957921E+03  0.25500000000E-02 0.  1.
         -2   -1    0    0    0  501 -0.00000000000E+00 -0.00000000000E+00 -0.10216673578E+03  0.10216673581E+03  0.25500000000E-02 0. -1.
    5000001    1    1    2    0    0  0.15795312611E+03  0.13014921856E+03  0.16301478580E+03  0.27274682313E+03  0.77000000000E+02 0.  0.
   -5000001    1    1    2    0    0 -0.15795312611E+03 -0.13014921856E+03  0.20542805763E+03  0.30002949188E+03  0.77000000000E+02 0.  0.
<mgrwt>
<rscale>  0 0.43854598E+03</rscale>
<asrwt>0</asrwt>
<pdfrwt beam="1">  1        2 0.67229940E-01 0.43854598E+03</pdfrwt>
<pdfrwt beam="2">  1       -2 0.14595248E-01 0.43854598E+03</pdfrwt>
<totfact> 0.26136254E+03</totfact>
</mgrwt>
</event>
<event>
 4    1  0.1330040E-003  0.2363510E+03  0.7818608E-02  0.1122248E+00
         -2   -1    0    0    0  501 -0.00000000000E+00  0.00000000000E+00  0.11729938681E+03  0.11729938683E+03  0.25500000000E-02 0. -1.
          2   -1    0    0  501    0  0.00000000000E+00 -0.00000000000E+00 -0.11905818565E+03  0.11905818568E+03  0.25500000000E-02 0.  1.
    5000001    1    1    2    0    0  0.87524329473E+02 -0.89439466252E+01  0.16324266908E+02  0.11805076925E+03  0.77000000000E+02 0.  0.
   -5000001    1    1    2    0    0 -0.87524329473E+02  0.89439466252E+01 -0.18083065753E+02  0.11830680326E+03  0.77000000000E+02 0.  0.
<mgrwt>
<rscale>  0 0.23635103E+03</rscale>
<asrwt>0</asrwt>
<pdfrwt beam="1">  1        2 0.17008312E-01 0.23635103E+03</pdfrwt>
<pdfrwt beam="2">  1       -2 0.16757055E-01 0.23635103E+03</pdfrwt>
<totfact> 0.93556106E+03</totfact>
</mgrwt>
</event>
<event>
 4    1  0.1330040E-003  0.2107324E+03  0.7818608E-02  0.1140987E+00
         -2   -1    0    0    0  501 -0.00000000000E+00  0.00000000000E+00  0.19305775915E+02  0.19305776083E+02  0.25500000000E-02 0. -1.
          2   -1    0    0  501    0  0.00000000000E+00 -0.00000000000E+00 -0.57506269616E+03  0.57506269616E+03  0.25500000000E-02 0.  1.
    5000001    1    1    2    0    0 -0.57419350300E+02  0.43040214474E+02 -0.26417954403E+03  0.28437523334E+03  0.77000000000E+02 0.  0.
   -5000001    1    1    2    0    0  0.57419350300E+02 -0.43040214474E+02 -0.29157737621E+03  0.30999323891E+03  0.77000000000E+02 0.  0.
<mgrwt>
<rscale>  0 0.21073236E+03</rscale>
<asrwt>0</asrwt>
<pdfrwt beam="1">  1        2 0.82151803E-01 0.21073236E+03</pdfrwt>
<pdfrwt beam="2">  1       -2 0.27579684E-02 0.21073236E+03</pdfrwt>
<totfact> 0.27008557E+04</totfact>
</mgrwt>
</event>
<event>
 4    1  0.1330040E-003  0.2434780E+03  0.7818608E-02  0.1117497E+00
          2   -1    0    0  501    0  0.00000000000E+00  0.00000000000E+00  0.35335078463E+03  0.35335078464E+03  0.25500000000E-02 0.  1.
         -2   -1    0    0    0  501 -0.00000000000E+00 -0.00000000000E+00 -0.41942418408E+02  0.41942418486E+02  0.25500000000E-02 0. -1.
    5000001    1    1    2    0    0 -0.70792893614E+02  0.38088760132E+02  0.23571952368E+03  0.26068195426E+03  0.77000000000E+02 0.  0.
   -5000001    1    1    2    0    0  0.70792893614E+02 -0.38088760132E+02  0.75688842542E+02  0.13461124886E+03  0.77000000000E+02 0.  0.
<mgrwt>
<rscale>  0 0.24347802E+03</rscale>
<asrwt>0</asrwt>
<pdfrwt beam="1">  1        2 0.50478679E-01 0.24347802E+03</pdfrwt>
<pdfrwt beam="2">  1       -2 0.59917746E-02 0.24347802E+03</pdfrwt>
<totfact> 0.14467566E+04</totfact>
</mgrwt>
</event>
<event>
 4    1  0.1330040E-003  0.2073846E+03  0.7818608E-02  0.1143654E+00
         -2   -1    0    0    0  501 -0.00000000000E+00  0.00000000000E+00  0.78593386278E+03  0.78593386278E+03  0.25500000000E-02 0. -1.
          2   -1    0    0  501    0  0.00000000000E+00 -0.00000000000E+00 -0.13680653430E+02  0.13680653668E+02  0.25500000000E-02 0.  1.
    5000001    1    1    2    0    0 -0.27579812217E+02 -0.59965212352E+02  0.46941493153E+03  0.48024561494E+03  0.77000000000E+02 0.  0.
   -5000001    1    1    2    0    0  0.27579812217E+02  0.59965212352E+02  0.30283827782E+03  0.31936890151E+03  0.77000000000E+02 0.  0.
<mgrwt>
<rscale>  0 0.20738456E+03</rscale>
<asrwt>0</asrwt>
<pdfrwt beam="1">  1        2 0.19543793E-02 0.20738456E+03</pdfrwt>
<pdfrwt beam="2">  1       -2 0.11227625E+00 0.20738456E+03</pdfrwt>
<totfact> 0.36204940E+03</totfact>
</mgrwt>
</event>
<event>
 4    1  0.1330040E-003  0.2969301E+03  0.7818608E-02  0.1086785E+00
          2   -1    0    0  501    0  0.00000000000E+00  0.00000000000E+00  0.12021169951E+04  0.12021169951E+04  0.25500000000E-02 0.  1.
         -2   -1    0    0    0  501 -0.00000000000E+00 -0.00000000000E+00 -0.18335883263E+02  0.18335883440E+02  0.25500000000E-02 0. -1.
    5000001    1    1    2    0    0  0.92862480603E+00 -0.11967919985E+03  0.41804634872E+03  0.44160584564E+03  0.77000000000E+02 0.  0.
   -5000001    1    1    2    0    0 -0.92862480603E+00  0.11967919985E+03  0.76573476307E+03  0.77884703286E+03  0.77000000000E+02 0.  0.
<mgrwt>
<rscale>  0 0.29693014E+03</rscale>
<asrwt>0</asrwt>
<pdfrwt beam="1">  1        2 0.17173108E+00 0.29693014E+03</pdfrwt>
<pdfrwt beam="2">  1       -2 0.26194106E-02 0.29693014E+03</pdfrwt>
<totfact> 0.11601071E+04</totfact>
</mgrwt>
</event>
<event>
 4    1  0.1330040E-003  0.2996178E+03  0.7818608E-02  0.1085432E+00
         -2   -1    0    0    0  501 -0.00000000000E+00  0.00000000000E+00  0.28378514803E+02  0.28378514918E+02  0.25500000000E-02 0. -1.
          2   -1    0    0  501    0  0.00000000000E+00 -0.00000000000E+00 -0.79083453085E+03  0.79083453086E+03  0.25500000000E-02 0.  1.
    5000001    1    1    2    0    0 -0.10387184150E+03 -0.42669298298E+02 -0.55205888936E+03  0.56860183414E+03  0.77000000000E+02 0.  0.
   -5000001    1    1    2    0    0  0.10387184150E+03  0.42669298298E+02 -0.21039712670E+03  0.25061121163E+03  0.77000000000E+02 0.  0.
<mgrwt>
<rscale>  0 0.29961782E+03</rscale>
<asrwt>0</asrwt>
<pdfrwt beam="1">  1        2 0.11297635E+00 0.29961782E+03</pdfrwt>
<pdfrwt beam="2">  1       -2 0.40540740E-02 0.29961782E+03</pdfrwt>
<totfact> 0.10649330E+04</totfact>
</mgrwt>
</event>
<event>
 4    1  0.1330040E-003  0.2239813E+03  0.7818608E-02  0.1130949E+00
         -2   -1    0    0    0  501 -0.00000000000E+00  0.00000000000E+00  0.17858856946E+04  0.17858856946E+04  0.25500000000E-02 0. -1.
          2   -1    0    0  501    0  0.00000000000E+00 -0.00000000000E+00 -0.70227933235E+01  0.70227937864E+01  0.25500000000E-02 0.  1.
    5000001    1    1    2    0    0  0.48975147668E+02 -0.61634333113E+02  0.10526081791E+04  0.10583526514E+04  0.77000000000E+02 0.  0.
   -5000001    1    1    2    0    0 -0.48975147668E+02  0.61634333113E+02  0.72625472220E+03  0.73455583697E+03  0.77000000000E+02 0.  0.
<mgrwt>
<rscale>  0 0.22398131E+03</rscale>
<asrwt>0</asrwt>
<pdfrwt beam="1">  1        2 0.10032570E-02 0.22398131E+03</pdfrwt>
<pdfrwt beam="2">  1       -2 0.25512634E+00 0.22398131E+03</pdfrwt>
<totfact> 0.95590613E+02</totfact>
</mgrwt>
</event>
<event>
 4    1  0.1330040E-003  0.1583066E+03  0.7818608E-02  0.1190622E+00
         -2   -1    0    0    0  501 -0.00000000000E+00  0.00000000000E+00  0.86990005712E+03  0.86990005712E+03  0.25500000000E-02 0. -1.
          2   -1    0    0  501    0  0.00000000000E+00 -0.00000000000E+00 -0.72022618656E+01  0.72022623170E+01  0.25500000000E-02 0.  1.
    5000001    1    1    2    0    0  0.11431237138E+02  0.10552972100E+02  0.37757157503E+03  0.38565701429E+03  0.77000000000E+02 0.  0.
   -5000001    1    1    2    0    0 -0.11431237138E+02 -0.10552972100E+02  0.48512622023E+03  0.49144530515E+03  0.77000000000E+02 0.  0.
<mgrwt>
<rscale>  0 0.15830664E+03</rscale>
<asrwt>0</asrwt>
<pdfrwt beam="1">  1        2 0.10288935E-02 0.15830664E+03</pdfrwt>
<pdfrwt beam="2">  1       -2 0.12427157E+00 0.15830664E+03</pdfrwt>
<totfact> 0.67455729E+03</totfact>
</mgrwt>
</event>
<event>
 4    1  0.1330040E-003  0.2656655E+03  0.7818608E-02  0.1103786E+00
          2   -1    0    0  501    0  0.00000000000E+00  0.00000000000E+00  0.33091321913E+04  0.33091321913E+04  0.25500000000E-02 0.  1.
         -2   -1    0    0    0  501 -0.00000000000E+00 -0.00000000000E+00 -0.53320726510E+01  0.53320732608E+01  0.25500000000E-02 0. -1.
    5000001    1    1    2    0    0 -0.32704540766E+01  0.92592382525E+02  0.23500580250E+04  0.23531438048E+04  0.77000000000E+02 0.  0.
   -5000001    1    1    2    0    0  0.32704540766E+01 -0.92592382525E+02  0.95374209368E+03  0.96132045980E+03  0.77000000000E+02 0.  0.
<mgrwt>
<rscale>  0 0.26566546E+03</rscale>
<asrwt>0</asrwt>
<pdfrwt beam="1">  1        2 0.47273119E+00 0.26566546E+03</pdfrwt>
<pdfrwt beam="2">  1       -2 0.76172789E-03 0.26566546E+03</pdfrwt>
<totfact> 0.59686253E+03</totfact>
</mgrwt>
</event>
<event>
 4    1  0.1330040E-003  0.2553066E+03  0.7818608E-02  0.1109996E+00
          2   -1    0    0  501    0  0.00000000000E+00  0.00000000000E+00  0.40196628542E+02  0.40196628623E+02  0.25500000000E-02 0.  1.
         -2   -1    0    0    0  501 -0.00000000000E+00 -0.00000000000E+00 -0.40539148422E+03  0.40539148423E+03  0.25500000000E-02 0. -1.
    5000001    1    1    2    0    0  0.91552625233E+02 -0.44275024223E+02 -0.17400989153E+03  0.21575588823E+03  0.77000000000E+02 0.  0.
   -5000001    1    1    2    0    0 -0.91552625233E+02  0.44275024223E+02 -0.19118496415E+03  0.22983222462E+03  0.77000000000E+02 0.  0.
<mgrwt>
<rscale>  0 0.25530665E+03</rscale>
<asrwt>0</asrwt>
<pdfrwt beam="1">  1        2 0.57423758E-02 0.25530665E+03</pdfrwt>
<pdfrwt beam="2">  1       -2 0.57913067E-01 0.25530665E+03</pdfrwt>
<totfact> 0.36970013E+03</totfact>
</mgrwt>
</event>
<event>
 4    1  0.1330040E-003  0.2627064E+03  0.7818608E-02  0.1105528E+00
          2   -1    0    0  501    0  0.00000000000E+00  0.00000000000E+00  0.19083097732E+04  0.19083097732E+04  0.25500000000E-02 0.  1.
         -2   -1    0    0    0  501 -0.00000000000E+00 -0.00000000000E+00 -0.90413289498E+01  0.90413293094E+01  0.25500000000E-02 0. -1.
    5000001    1    1    2    0    0 -0.75020368141E+02 -0.34771058774E+02  0.14385532220E+04  0.14429835255E+04  0.77000000000E+02 0.  0.
   -5000001    1    1    2    0    0  0.75020368141E+02  0.34771058774E+02  0.46071522228E+03  0.47436757710E+03  0.77000000000E+02 0.  0.
<mgrwt>
<rscale>  0 0.26270635E+03</rscale>
<asrwt>0</asrwt>
<pdfrwt beam="1">  1        2 0.27261591E+00 0.26270635E+03</pdfrwt>
<pdfrwt beam="2">  1       -2 0.12916174E-02 0.26270635E+03</pdfrwt>
<totfact> 0.14359335E+04</totfact>
</mgrwt>
</event>
<event>
 4    1  0.1330040E-003  0.2791838E+03  0.7818608E-02  0.1096136E+00
         -2   -1    0    0    0  501 -0.00000000000E+00  0.00000000000E+00  0.32764546787E+03  0.32764546788E+03  0.25500000000E-02 0. -1.
          2   -1    0    0  501    0  0.00000000000E+00 -0.00000000000E+00 -0.59472523886E+02  0.59472523940E+02  0.25500000000E-02 0.  1.
    5000001    1    1    2    0    0 -0.79225364571E+02  0.85263925420E+02  0.12963471989E+03  0.19047507966E+03  0.77000000000E+02 0.  0.
   -5000001    1    1    2    0    0  0.79225364571E+02 -0.85263925420E+02  0.13853822410E+03  0.19664291217E+03  0.77000000000E+02 0.  0.
<mgrwt>
<rscale>  0 0.27918383E+03</rscale>
<asrwt>0</asrwt>
<pdfrwt beam="1">  1        2 0.84960750E-02 0.27918383E+03</pdfrwt>
<pdfrwt beam="2">  1       -2 0.46806494E-01 0.27918383E+03</pdfrwt>
<totfact> 0.34388003E+03</totfact>
</mgrwt>
</event>
<event>
 4    1  0.1330040E-003  0.4734927E+03  0.7818608E-02  0.1020939E+00
         -2   -1    0    0    0  501 -0.00000000000E+00  0.00000000000E+00  0.41223425632E+02  0.41223425711E+02  0.25500000000E-02 0. -1.
          2   -1    0    0  501    0  0.00000000000E+00 -0.00000000000E+00 -0.13596355811E+04  0.13596355811E+04  0.25500000000E-02 0.  1.
    5000001    1    1    2    0    0 -0.17699293952E+03  0.88119181690E+02 -0.96990254316E+03  0.99284008483E+03  0.77000000000E+02 0.  0.
   -5000001    1    1    2    0    0  0.17699293952E+03 -0.88119181690E+02 -0.34850961229E+03  0.40801892196E+03  0.77000000000E+02 0.  0.
<mgrwt>
<rscale>  0 0.47349271E+03</rscale>
<asrwt>0</asrwt>
<pdfrwt beam="1">  1        2 0.19423363E+00 0.47349271E+03</pdfrwt>
<pdfrwt beam="2">  1       -2 0.58890617E-02 0.47349271E+03</pdfrwt>
<totfact> 0.28075476E+03</totfact>
</mgrwt>
</event>
<event>
 4    1  0.1330040E-003  0.2358713E+03  0.7818608E-02  0.1122574E+00
         -2   -1    0    0    0  501 -0.00000000000E+00  0.00000000000E+00  0.24547323160E+02  0.24547323292E+02  0.25500000000E-02 0. -1.
          2   -1    0    0  501    0  0.00000000000E+00 -0.00000000000E+00 -0.56661244495E+03  0.56661244496E+03  0.25500000000E-02 0.  1.
    5000001    1    1    2    0    0  0.78552165258E+02  0.19869440037E+02 -0.36529609959E+03  0.38201502286E+03  0.77000000000E+02 0.  0.
   -5000001    1    1    2    0    0 -0.78552165258E+02 -0.19869440037E+02 -0.17676902220E+03  0.20914474539E+03  0.77000000000E+02 0.  0.
<mgrwt>
<rscale>  0 0.23587131E+03</rscale>
<asrwt>0</asrwt>
<pdfrwt beam="1">  1        2 0.80944627E-01 0.23587131E+03</pdfrwt>
<pdfrwt beam="2">  1       -2 0.35067608E-02 0.23587131E+03</pdfrwt>
<totfact> 0.19368669E+04</totfact>
</mgrwt>
</event>
<event>
 4    1  0.1330040E-003  0.3553632E+03  0.7818608E-02  0.1060435E+00
         -2   -1    0    0    0  501 -0.00000000000E+00  0.00000000000E+00  0.63602469936E+02  0.63602469988E+02  0.25500000000E-02 0. -1.
          2   -1    0    0  501    0  0.00000000000E+00 -0.00000000000E+00 -0.49637621514E+03  0.49637621514E+03  0.25500000000E-02 0.  1.
    5000001    1    1    2    0    0  0.89117788350E+02  0.63824798114E+02 -0.32442755774E+02  0.13783003104E+03  0.77000000000E+02 0.  0.
   -5000001    1    1    2    0    0 -0.89117788350E+02 -0.63824798114E+02 -0.40033098943E+03  0.42214865409E+03  0.77000000000E+02 0.  0.
<mgrwt>
<rscale>  0 0.35536321E+03</rscale>
<asrwt>0</asrwt>
<pdfrwt beam="1">  1        2 0.70910886E-01 0.35536321E+03</pdfrwt>
<pdfrwt beam="2">  1       -2 0.90860674E-02 0.35536321E+03</pdfrwt>
<totfact> 0.52990544E+03</totfact>
</mgrwt>
</event>
<event>
 4    1  0.1330040E-003  0.3910135E+03  0.7818608E-02  0.1046937E+00
         -2   -1    0    0    0  501 -0.00000000000E+00  0.00000000000E+00  0.22008200312E+02  0.22008200459E+02  0.25500000000E-02 0. -1.
          2   -1    0    0  501    0  0.00000000000E+00 -0.00000000000E+00 -0.17367567553E+04  0.17367567553E+04  0.25500000000E-02 0.  1.
    5000001    1    1    2    0    0 -0.72097204323E+02 -0.16354694024E+03 -0.77343182388E+03  0.79754084205E+03  0.77000000000E+02 0.  0.
   -5000001    1    1    2    0    0  0.72097204323E+02  0.16354694024E+03 -0.94131673108E+03  0.96122411369E+03  0.77000000000E+02 0.  0.
<mgrwt>
<rscale>  0 0.39101351E+03</rscale>
<asrwt>0</asrwt>
<pdfrwt beam="1">  1        2 0.24810802E+00 0.39101351E+03</pdfrwt>
<pdfrwt beam="2">  1       -2 0.31440297E-02 0.39101351E+03</pdfrwt>
<totfact> 0.46999820E+03</totfact>
</mgrwt>
</event>
<event>
 4    1  0.1330040E-003  0.2545466E+03  0.7818608E-02  0.1110465E+00
          2   -1    0    0  501    0  0.00000000000E+00  0.00000000000E+00  0.87833143865E+03  0.87833143865E+03  0.25500000000E-02 0.  1.
         -2   -1    0    0    0  501 -0.00000000000E+00 -0.00000000000E+00 -0.18442352385E+02  0.18442352562E+02  0.25500000000E-02 0. -1.
    5000001    1    1    2    0    0 -0.93367556437E+02 -0.32516333120E+02  0.50830196082E+03  0.52352143784E+03  0.77000000000E+02 0.  0.
   -5000001    1    1    2    0    0  0.93367556437E+02  0.32516333120E+02  0.35158712545E+03  0.37325235337E+03  0.77000000000E+02 0.  0.
<mgrwt>
<rscale>  0 0.25454664E+03</rscale>
<asrwt>0</asrwt>
<pdfrwt beam="1">  1        2 0.12547591E+00 0.25454664E+03</pdfrwt>
<pdfrwt beam="2">  1       -2 0.26346220E-02 0.25454664E+03</pdfrwt>
<totfact> 0.17646597E+04</totfact>
</mgrwt>
</event>
<event>
 4    1  0.1330040E-003  0.1896790E+03  0.7818608E-02  0.1158751E+00
          2   -1    0    0  501    0  0.00000000000E+00  0.00000000000E+00  0.11265300946E+03  0.11265300949E+03  0.25500000000E-02 0.  1.
         -2   -1    0    0    0  501 -0.00000000000E+00 -0.00000000000E+00 -0.79842785411E+02  0.79842785451E+02  0.25500000000E-02 0. -1.
    5000001    1    1    2    0    0  0.50039082037E+02 -0.20288033697E+02  0.39751203304E+01  0.94129249567E+02  0.77000000000E+02 0.  0.
   -5000001    1    1    2    0    0 -0.50039082037E+02  0.20288033697E+02  0.28835103720E+02  0.98366545374E+02  0.77000000000E+02 0.  0.
<mgrwt>
<rscale>  0 0.18967899E+03</rscale>
<asrwt>0</asrwt>
<pdfrwt beam="1">  1        2 0.16093287E-01 0.18967899E+03</pdfrwt>
<pdfrwt beam="2">  1       -2 0.11406112E-01 0.18967899E+03</pdfrwt>
<totfact> 0.18423637E+04</totfact>
</mgrwt>
</event>
<event>
 4    1  0.1330040E-003  0.4733397E+03  0.7818608E-02  0.1020982E+00
          2   -1    0    0  501    0  0.00000000000E+00  0.00000000000E+00  0.29128375002E+04  0.29128375002E+04  0.25500000000E-02 0.  1.
         -2   -1    0    0    0  501 -0.00000000000E+00 -0.00000000000E+00 -0.19229573078E+02  0.19229573247E+02  0.25500000000E-02 0. -1.
    5000001    1    1    2    0    0  0.19791009442E+03 -0.10123195060E+03  0.12867876386E+04  0.13081161035E+04  0.77000000000E+02 0.  0.
   -5000001    1    1    2    0    0 -0.19791009442E+03  0.10123195060E+03  0.16068202885E+04  0.16239509700E+04  0.77000000000E+02 0.  0.
<mgrwt>
<rscale>  0 0.47333972E+03</rscale>
<asrwt>0</asrwt>
<pdfrwt beam="1">  1        2 0.41611982E+00 0.47333972E+03</pdfrwt>
<pdfrwt beam="2">  1       -2 0.27470807E-02 0.47333972E+03</pdfrwt>
<totfact> 0.14580497E+03</totfact>
</mgrwt>
</event>
<event>
 4    1  0.1330040E-003  0.3607719E+03  0.7818608E-02  0.1058279E+00
         -2   -1    0    0    0  501 -0.00000000000E+00  0.00000000000E+00  0.81095811384E+03  0.81095811384E+03  0.25500000000E-02 0. -1.
          2   -1    0    0  501    0  0.00000000000E+00 -0.00000000000E+00 -0.40124261755E+02  0.40124261836E+02  0.25500000000E-02 0.  1.
    5000001    1    1    2    0    0  0.40602575758E+01  0.15641476483E+03  0.49424172410E+03  0.52410489999E+03  0.77000000000E+02 0.  0.
   -5000001    1    1    2    0    0 -0.40602575758E+01 -0.15641476483E+03  0.27659212798E+03  0.32697747569E+03  0.77000000000E+02 0.  0.
<mgrwt>
<rscale>  0 0.36077193E+03</rscale>
<asrwt>0</asrwt>
<pdfrwt beam="1">  1        2 0.57320375E-02 0.36077193E+03</pdfrwt>
<pdfrwt beam="2">  1       -2 0.11585116E+00 0.36077193E+03</pdfrwt>
<totfact> 0.79854207E+02</totfact>
</mgrwt>
</event>
<event>
 4    1  0.1330040E-003  0.1950331E+03  0.7818608E-02  0.1153999E+00
          2   -1    0    0  501    0  0.00000000000E+00  0.00000000000E+00  0.69598124033E+03  0.69598124033E+03  0.25500000000E-02 0.  1.
         -2   -1    0    0    0  501 -0.00000000000E+00 -0.00000000000E+00 -0.13663405623E+02  0.13663405861E+02  0.25500000000E-02 0. -1.
    5000001    1    1    2    0    0 -0.27063265082E+02 -0.13042084054E+02  0.52945208015E+03  0.53586474175E+03  0.77000000000E+02 0.  0.
   -5000001    1    1    2    0    0  0.27063265082E+02  0.13042084054E+02  0.15286575455E+03  0.17377990444E+03  0.77000000000E+02 0.  0.
<mgrwt>
<rscale>  0 0.19503306E+03</rscale>
<asrwt>0</asrwt>
<pdfrwt beam="1">  1        2 0.99425915E-01 0.19503306E+03</pdfrwt>
<pdfrwt beam="2">  1       -2 0.19519146E-02 0.19503306E+03</pdfrwt>
<totfact> 0.35840441E+04</totfact>
</mgrwt>
</event>
<event>
 4    1  0.1330040E-003  0.2187061E+03  0.7818608E-02  0.1134851E+00
          2   -1    0    0  501    0  0.00000000000E+00  0.00000000000E+00  0.50622140824E+04  0.50622140824E+04  0.25500000000E-02 0.  1.
         -2   -1    0    0    0  501 -0.00000000000E+00 -0.00000000000E+00 -0.23622243880E+01  0.23622257643E+01  0.25500000000E-02 0. -1.
    5000001    1    1    2    0    0  0.55983801480E+01  0.72838759135E+02  0.19206449922E+04  0.19235755802E+04  0.77000000000E+02 0.  0.
   -5000001    1    1    2    0    0 -0.55983801480E+01 -0.72838759135E+02  0.31392068658E+04  0.31410007280E+04  0.77000000000E+02 0.  0.
<mgrwt>
<rscale>  0 0.21870610E+03</rscale>
<asrwt>0</asrwt>
<pdfrwt beam="1">  1        2 0.72315601E+00 0.21870610E+03</pdfrwt>
<pdfrwt beam="2">  1       -2 0.33746886E-03 0.21870610E+03</pdfrwt>
<totfact> 0.11256140E+03</totfact>
</mgrwt>
</event>
<event>
 4    1  0.1330040E-003  0.2780864E+03  0.7818608E-02  0.1096739E+00
          2   -1    0    0  501    0  0.00000000000E+00  0.00000000000E+00  0.80325335436E+03  0.80325335437E+03  0.25500000000E-02 0.  1.
         -2   -1    0    0    0  501 -0.00000000000E+00 -0.00000000000E+00 -0.24068388682E+02  0.24068388817E+02  0.25500000000E-02 0. -1.
    5000001    1    1    2    0    0  0.23416106235E+02 -0.11057684503E+03  0.46417446712E+03  0.48390338769E+03  0.77000000000E+02 0.  0.
   -5000001    1    1    2    0    0 -0.23416106235E+02  0.11057684503E+03  0.31501049856E+03  0.34341835550E+03  0.77000000000E+02 0.  0.
<mgrwt>
<rscale>  0 0.27808642E+03</rscale>
<asrwt>0</asrwt>
<pdfrwt beam="1">  1        2 0.11475049E+00 0.27808642E+03</pdfrwt>
<pdfrwt beam="2">  1       -2 0.34383409E-02 0.27808642E+03</pdfrwt>
<totfact> 0.13341943E+04</totfact>
</mgrwt>
</event>
<event>
 4    1  0.1330040E-003  0.2576879E+03  0.7818608E-02  0.1108540E+00
          2   -1    0    0  501    0  0.00000000000E+00  0.00000000000E+00  0.32820545441E+03  0.32820545442E+03  0.25500000000E-02 0.  1.
         -2   -1    0    0    0  501 -0.00000000000E+00 -0.00000000000E+00 -0.50580398499E+02  0.50580398564E+02  0.25500000000E-02 0. -1.
    5000001    1    1    2    0    0 -0.44627842614E+02  0.24101570562E+02  0.65241561507E+01  0.92434272072E+02  0.77000000000E+02 0.  0.
   -5000001    1    1    2    0    0  0.44627842614E+02 -0.24101570562E+02  0.27110089976E+03  0.28635158091E+03  0.77000000000E+02 0.  0.
<mgrwt>
<rscale>  0 0.25768789E+03</rscale>
<asrwt>0</asrwt>
<pdfrwt beam="1">  1        2 0.46886492E-01 0.25768789E+03</pdfrwt>
<pdfrwt beam="2">  1       -2 0.72257714E-02 0.25768789E+03</pdfrwt>
<totfact> 0.11771460E+04</totfact>
</mgrwt>
</event>
<event>
 4    1  0.1330040E-003  0.1943191E+03  0.7818608E-02  0.1154622E+00
         -2   -1    0    0    0  501 -0.00000000000E+00  0.00000000000E+00  0.14684527637E+02  0.14684527858E+02  0.25500000000E-02 0.  1.
          2   -1    0    0  501    0  0.00000000000E+00 -0.00000000000E+00 -0.64285188671E+03  0.64285188671E+03  0.25500000000E-02 0. -1.
    5000001    1    1    2    0    0  0.54352476028E+02  0.79948948891E+01 -0.23896136579E+03  0.25700125357E+03  0.77000000000E+02 0.  0.
   -5000001    1    1    2    0    0 -0.54352476028E+02 -0.79948948891E+01 -0.38920599328E+03  0.40053516100E+03  0.77000000000E+02 0.  0.
<mgrwt>
<rscale>  0 0.19431908E+03</rscale>
<asrwt>0</asrwt>
<pdfrwt beam="1">  1        2 0.91835966E-01 0.19431908E+03</pdfrwt>
<pdfrwt beam="2">  1       -2 0.20977901E-02 0.19431908E+03</pdfrwt>
<totfact> 0.35360839E+04</totfact>
</mgrwt>
</event>
<event>
 4    1  0.1330040E-003  0.2283757E+03  0.7818608E-02  0.1127788E+00
          2   -1    0    0  501    0  0.00000000000E+00  0.00000000000E+00  0.16034678671E+04  0.16034678671E+04  0.25500000000E-02 0. -1.
         -2   -1    0    0    0  501 -0.00000000000E+00 -0.00000000000E+00 -0.81316637400E+01  0.81316641398E+01  0.25500000000E-02 0.  1.
    5000001    1    1    2    0    0  0.64773573981E+02  0.29637946785E+02  0.11160723911E+04  0.11209909036E+04  0.77000000000E+02 0.  0.
   -5000001    1    1    2    0    0 -0.64773573981E+02 -0.29637946785E+02  0.47926381227E+03  0.49060862765E+03  0.77000000000E+02 0.  0.
<mgrwt>
<rscale>  0 0.22837567E+03</rscale>
<asrwt>0</asrwt>
<pdfrwt beam="1">  1        2 0.22906694E+00 0.22837567E+03</pdfrwt>
<pdfrwt beam="2">  1       -2 0.11616657E-02 0.22837567E+03</pdfrwt>
<totfact> 0.23505238E+04</totfact>
</mgrwt>
</event>
<event>
 4    1  0.1330040E-003  0.3057484E+03  0.7818608E-02  0.1082402E+00
         -2   -1    0    0    0  501 -0.00000000000E+00  0.00000000000E+00  0.81816910222E+01  0.81816914196E+01  0.25500000000E-02 0. -1.
          2   -1    0    0  501    0  0.00000000000E+00 -0.00000000000E+00 -0.28564416720E+04  0.28564416720E+04  0.25500000000E-02 0.  1.
    5000001    1    1    2    0    0 -0.37989941457E+01 -0.12902126254E+03 -0.16858994849E+04  0.16925858891E+04  0.77000000000E+02 0.  0.
   -5000001    1    1    2    0    0  0.37989941457E+01  0.12902126254E+03 -0.11623604960E+04  0.11720374743E+04  0.77000000000E+02 0.  0.
<mgrwt>
<rscale>  0 0.30574842E+03</rscale>
<asrwt>0</asrwt>
<pdfrwt beam="1">  1        2 0.40806246E+00 0.30574842E+03</pdfrwt>
<pdfrwt beam="2">  1       -2 0.11688149E-02 0.30574842E+03</pdfrwt>
<totfact> 0.56058896E+03</totfact>
</mgrwt>
</event>
<event>
 4    1  0.1330040E-003  0.2902489E+03  0.7818608E-02  0.1090219E+00
         -2   -1    0    0    0  501 -0.00000000000E+00  0.00000000000E+00  0.31226316117E+02  0.31226316221E+02  0.25500000000E-02 0. -1.
          2   -1    0    0  501    0  0.00000000000E+00 -0.00000000000E+00 -0.67446646826E+03  0.67446646826E+03  0.25500000000E-02 0.  1.
    5000001    1    1    2    0    0 -0.15144948583E+02  0.73746165339E+02 -0.85089155152E+02  0.13724806263E+03  0.77000000000E+02 0.  0.
   -5000001    1    1    2    0    0  0.15144948583E+02 -0.73746165339E+02 -0.55815099699E+03  0.56844472186E+03  0.77000000000E+02 0.  0.
<mgrwt>
<rscale>  0 0.29024888E+03</rscale>
<asrwt>0</asrwt>
<pdfrwt beam="1">  1        2 0.96352343E-01 0.29024888E+03</pdfrwt>
<pdfrwt beam="2">  1       -2 0.44609028E-02 0.29024888E+03</pdfrwt>
<totfact> 0.11154062E+04</totfact>
</mgrwt>
</event>
<event>
 4    1  0.1330040E-003  0.1863405E+03  0.7818608E-02  0.1161804E+00
         -2   -1    0    0    0  501 -0.00000000000E+00  0.00000000000E+00  0.15035265784E+03  0.15035265786E+03  0.25500000000E-02 0. -1.
          2   -1    0    0  501    0  0.00000000000E+00 -0.00000000000E+00 -0.57735557389E+02  0.57735557445E+02  0.25500000000E-02 0.  1.
    5000001    1    1    2    0    0  0.25715930928E+02 -0.44703245639E+02  0.35597142938E+02  0.99276612853E+02  0.77000000000E+02 0.  0.
   -5000001    1    1    2    0    0 -0.25715930928E+02  0.44703245639E+02  0.57019957515E+02  0.10881160246E+03  0.77000000000E+02 0.  0.
<mgrwt>
<rscale>  0 0.18634049E+03</rscale>
<asrwt>0</asrwt>
<pdfrwt beam="1">  1        2 0.82479367E-02 0.18634049E+03</pdfrwt>
<pdfrwt beam="2">  1       -2 0.21478951E-01 0.18634049E+03</pdfrwt>
<totfact> 0.14556803E+04</totfact>
</mgrwt>
</event>
<event>
 4    1  0.1330040E-003  0.3749397E+03  0.7818608E-02  0.1052820E+00
         -2   -1    0    0    0  501 -0.00000000000E+00  0.00000000000E+00  0.88779710584E+02  0.88779710621E+02  0.25500000000E-02 0. -1.
          2   -1    0    0  501    0  0.00000000000E+00 -0.00000000000E+00 -0.39586675125E+03  0.39586675126E+03  0.25500000000E-02 0.  1.
    5000001    1    1    2    0    0 -0.50741843202E+02 -0.92043696170E+02  0.20689749516E+02  0.13192362332E+03  0.77000000000E+02 0.  0.
   -5000001    1    1    2    0    0  0.50741843202E+02  0.92043696170E+02 -0.32777679018E+03  0.35272283855E+03  0.77000000000E+02 0.  0.
<mgrwt>
<rscale>  0 0.37493965E+03</rscale>
<asrwt>0</asrwt>
<pdfrwt beam="1">  1        2 0.56552392E-01 0.37493965E+03</pdfrwt>
<pdfrwt beam="2">  1       -2 0.12682816E-01 0.37493965E+03</pdfrwt>
<totfact> 0.39786941E+03</totfact>
</mgrwt>
</event>
<event>
 4    1  0.1330040E-003  0.3027814E+03  0.7818608E-02  0.1083858E+00
         -2   -1    0    0    0  501 -0.00000000000E+00  0.00000000000E+00  0.41298974724E+02  0.41298974803E+02  0.25500000000E-02 0. -1.
          2   -1    0    0  501    0  0.00000000000E+00 -0.00000000000E+00 -0.55495660295E+03  0.55495660295E+03  0.25500000000E-02 0.  1.
    5000001    1    1    2    0    0  0.11008009698E+03 -0.46063425967E+02 -0.15354727572E+03  0.20915361064E+03  0.77000000000E+02 0.  0.
   -5000001    1    1    2    0    0 -0.11008009698E+03  0.46063425967E+02 -0.36011035250E+03  0.38710196711E+03  0.77000000000E+02 0.  0.
<mgrwt>
<rscale>  0 0.30278136E+03</rscale>
<asrwt>0</asrwt>
<pdfrwt beam="1">  1        2 0.79279510E-01 0.30278136E+03</pdfrwt>
<pdfrwt beam="2">  1       -2 0.58998539E-02 0.30278136E+03</pdfrwt>
<totfact> 0.91298995E+03</totfact>
</mgrwt>
</event>
<event>
 4    1  0.1330040E-003  0.2416611E+03  0.7818608E-02  0.1118691E+00
          2   -1    0    0  501    0  0.00000000000E+00  0.00000000000E+00  0.14848156457E+04  0.14848156457E+04  0.25500000000E-02 0.  1.
         -2   -1    0    0    0  501 -0.00000000000E+00 -0.00000000000E+00 -0.98328831861E+01  0.98328835168E+01  0.25500000000E-02 0. -1.
    5000001    1    1    2    0    0 -0.90277600466E+02 -0.14965363335E+02  0.84408205922E+03  0.85251248081E+03  0.77000000000E+02 0.  0.
   -5000001    1    1    2    0    0  0.90277600466E+02  0.14965363335E+02  0.63090070331E+03  0.64213604843E+03  0.77000000000E+02 0.  0.
<mgrwt>
<rscale>  0 0.24166108E+03</rscale>
<asrwt>0</asrwt>
<pdfrwt beam="1">  1        2 0.21211654E+00 0.24166108E+03</pdfrwt>
<pdfrwt beam="2">  1       -2 0.14046975E-02 0.24166108E+03</pdfrwt>
<totfact> 0.20492671E+04</totfact>
</mgrwt>
</event>
<event>
 4    1  0.1330040E-003  0.2439269E+03  0.7818608E-02  0.1117204E+00
         -2   -1    0    0    0  501 -0.00000000000E+00  0.00000000000E+00  0.12071555267E+02  0.12071555536E+02  0.25500000000E-02 0. -1.
          2   -1    0    0  501    0  0.00000000000E+00 -0.00000000000E+00 -0.12322421544E+04  0.12322421544E+04  0.25500000000E-02 0.  1.
    5000001    1    1    2    0    0 -0.41811414150E+02 -0.19585039366E+01 -0.10427554654E+04  0.10464320287E+04  0.77000000000E+02 0.  0.
   -5000001    1    1    2    0    0  0.41811414150E+02  0.19585039366E+01 -0.17741513380E+03  0.19788168129E+03  0.77000000000E+02 0.  0.
<mgrwt>
<rscale>  0 0.24392687E+03</rscale>
<asrwt>0</asrwt>
<pdfrwt beam="1">  1        2 0.17603451E+00 0.24392687E+03</pdfrwt>
<pdfrwt beam="2">  1       -2 0.17245087E-02 0.24392687E+03</pdfrwt>
<totfact> 0.20536823E+04</totfact>
</mgrwt>
</event>
<event>
 4    1  0.1330040E-003  0.5672555E+03  0.7818608E-02  0.9975770E-01
         -2   -1    0    0    0  501 -0.00000000000E+00  0.00000000000E+00  0.86579756667E+02  0.86579756705E+02  0.25500000000E-02 0. -1.
          2   -1    0    0  501    0  0.00000000000E+00 -0.00000000000E+00 -0.92913974155E+03  0.92913974156E+03  0.25500000000E-02 0.  1.
    5000001    1    1    2    0    0  0.13629779957E+03  0.19537839651E+03 -0.65994487195E+03  0.70583712144E+03  0.77000000000E+02 0.  0.
   -5000001    1    1    2    0    0 -0.13629779957E+03 -0.19537839651E+03 -0.18261511294E+03  0.30988237682E+03  0.77000000000E+02 0.  0.
<mgrwt>
<rscale>  0 0.56725547E+03</rscale>
<asrwt>0</asrwt>
<pdfrwt beam="1">  1        2 0.13273424E+00 0.56725547E+03</pdfrwt>
<pdfrwt beam="2">  1       -2 0.12368537E-01 0.56725547E+03</pdfrwt>
<totfact> 0.15116400E+03</totfact>
</mgrwt>
</event>
<event>
 4    1  0.1330040E-003  0.4465569E+03  0.7818608E-02  0.1028754E+00
          2   -1    0    0  501    0  0.00000000000E+00  0.00000000000E+00  0.30479919637E+03  0.30479919638E+03  0.25500000000E-02 0.  1.
         -2   -1    0    0    0  501 -0.00000000000E+00 -0.00000000000E+00 -0.16356103664E+03  0.16356103666E+03  0.25500000000E-02 0. -1.
    5000001    1    1    2    0    0 -0.86157308198E+02  0.55220093541E+02  0.26244786865E+03  0.29202777993E+03  0.77000000000E+02 0.  0.
   -5000001    1    1    2    0    0  0.86157308198E+02 -0.55220093541E+02 -0.12120970892E+03  0.17633245312E+03  0.77000000000E+02 0.  0.
<mgrwt>
<rscale>  0 0.44655693E+03</rscale>
<asrwt>0</asrwt>
<pdfrwt beam="1">  1        2 0.43542742E-01 0.44655693E+03</pdfrwt>
<pdfrwt beam="2">  1       -2 0.23365862E-01 0.44655693E+03</pdfrwt>
<totfact> 0.18820173E+03</totfact>
</mgrwt>
</event>
<event>
 4    1  0.1330040E-003  0.2507642E+03  0.7818608E-02  0.1112823E+00
         -2   -1    0    0    0  501 -0.00000000000E+00  0.00000000000E+00  0.53265924615E+01  0.53265930719E+01  0.25500000000E-02 0. -1.
          2   -1    0    0  501    0  0.00000000000E+00 -0.00000000000E+00 -0.29513555686E+04  0.29513555686E+04  0.25500000000E-02 0.  1.
    5000001    1    1    2    0    0 -0.69011113853E+02 -0.69763719206E+02 -0.16231590098E+04  0.16279446187E+04  0.77000000000E+02 0.  0.
   -5000001    1    1    2    0    0  0.69011113853E+02  0.69763719206E+02 -0.13228699663E+04  0.13287375430E+04  0.77000000000E+02 0.  0.
<mgrwt>
<rscale>  0 0.25076419E+03</rscale>
<asrwt>0</asrwt>
<pdfrwt beam="1">  1        2 0.42162118E+00 0.25076419E+03</pdfrwt>
<pdfrwt beam="2">  1       -2 0.76094371E-03 0.25076419E+03</pdfrwt>
<totfact> 0.93331391E+03</totfact>
</mgrwt>
</event>
<event>
 4    1  0.1330040E-003  0.1783262E+03  0.7818608E-02  0.1169433E+00
         -2   -1    0    0    0  501 -0.00000000000E+00  0.00000000000E+00  0.92189572800E+02  0.92189572835E+02  0.25500000000E-02 0. -1.
          2   -1    0    0  501    0  0.00000000000E+00 -0.00000000000E+00 -0.86235940816E+02  0.86235940854E+02  0.25500000000E-02 0.  1.
    5000001    1    1    2    0    0  0.32559751056E+02  0.30781979184E+02  0.66376684341E+01  0.89334910721E+02  0.77000000000E+02 0.  0.
   -5000001    1    1    2    0    0 -0.32559751056E+02 -0.30781979184E+02 -0.68403645011E+00  0.89090602968E+02  0.77000000000E+02 0.  0.
<mgrwt>
<rscale>  0 0.17832616E+03</rscale>
<asrwt>0</asrwt>
<pdfrwt beam="1">  1        2 0.12319420E-01 0.17832616E+03</pdfrwt>
<pdfrwt beam="2">  1       -2 0.13169939E-01 0.17832616E+03</pdfrwt>
<totfact> 0.19970782E+04</totfact>
</mgrwt>
</event>
<event>
 4    1  0.1330040E-003  0.2035221E+03  0.7818608E-02  0.1146801E+00
          2   -1    0    0  501    0  0.00000000000E+00  0.00000000000E+00  0.39180286601E+04  0.39180286601E+04  0.25500000000E-02 0.  1.
         -2   -1    0    0    0  501 -0.00000000000E+00 -0.00000000000E+00 -0.26429891985E+01  0.26429904287E+01  0.25500000000E-02 0. -1.
    5000001    1    1    2    0    0  0.65945684420E+02  0.33868452376E+01  0.21142021056E+04  0.21166340844E+04  0.77000000000E+02 0.  0.
   -5000001    1    1    2    0    0 -0.65945684420E+02 -0.33868452376E+01  0.18011835653E+04  0.18040375661E+04  0.77000000000E+02 0.  0.
<mgrwt>
<rscale>  0 0.20352209E+03</rscale>
<asrwt>0</asrwt>
<pdfrwt beam="1">  1        2 0.55971709E+00 0.20352209E+03</pdfrwt>
<pdfrwt beam="2">  1       -2 0.37757084E-03 0.20352209E+03</pdfrwt>
<totfact> 0.71488551E+03</totfact>
</mgrwt>
</event>
<event>
 4    1  0.1330040E-003  0.4214674E+03  0.7818608E-02  0.1036590E+00
          2   -1    0    0  501    0  0.00000000000E+00  0.00000000000E+00  0.17317728850E+03  0.17317728852E+03  0.25500000000E-02 0.  1.
         -2   -1    0    0    0  501 -0.00000000000E+00 -0.00000000000E+00 -0.25643486170E+03  0.25643486172E+03  0.25500000000E-02 0. -1.
    5000001    1    1    2    0    0  0.12997391840E+03 -0.13131582108E+03 -0.10880089162E+03  0.22782383183E+03  0.77000000000E+02 0.  0.
   -5000001    1    1    2    0    0 -0.12997391840E+03  0.13131582108E+03  0.25543318420E+02  0.20178831841E+03  0.77000000000E+02 0.  0.
<mgrwt>
<rscale>  0 0.42146741E+03</rscale>
<asrwt>0</asrwt>
<pdfrwt beam="1">  1        2 0.24739613E-01 0.42146741E+03</pdfrwt>
<pdfrwt beam="2">  1       -2 0.36633552E-01 0.42146741E+03</pdfrwt>
<totfact> 0.15469275E+03</totfact>
</mgrwt>
</event>
<event>
 4    1  0.1330040E-003  0.1778985E+03  0.7818608E-02  0.1169852E+00
          2   -1    0    0  501    0  0.00000000000E+00  0.00000000000E+00  0.70412360152E+02  0.70412360198E+02  0.25500000000E-02 0.  1.
         -2   -1    0    0    0  501 -0.00000000000E+00 -0.00000000000E+00 -0.11236622471E+03  0.11236622474E+03  0.25500000000E-02 0. -1.
    5000001    1    1    2    0    0 -0.37197608365E+02  0.59094652273E+01 -0.45385458826E+02  0.96991874506E+02  0.77000000000E+02 0.  0.
   -5000001    1    1    2    0    0  0.37197608365E+02 -0.59094652273E+01  0.34315942673E+01  0.85786710431E+02  0.77000000000E+02 0.  0.
<mgrwt>
<rscale>  0 0.17789852E+03</rscale>
<asrwt>0</asrwt>
<pdfrwt beam="1">  1        2 0.10058909E-01 0.17789852E+03</pdfrwt>
<pdfrwt beam="2">  1       -2 0.16052318E-01 0.17789852E+03</pdfrwt>
<totfact> 0.18492153E+04</totfact>
</mgrwt>
</event>
<event>
 4    1  0.1330040E-003  0.3645134E+03  0.7818608E-02  0.1056811E+00
          2   -1    0    0  501    0  0.00000000000E+00  0.00000000000E+00  0.11007242058E+04  0.11007242058E+04  0.25500000000E-02 0.  1.
         -2   -1    0    0    0  501 -0.00000000000E+00 -0.00000000000E+00 -0.30177858331E+02  0.30177858439E+02  0.25500000000E-02 0. -1.
    5000001    1    1    2    0    0  0.11815061435E+03  0.52699809402E+02  0.21658058625E+03  0.26376691969E+03  0.77000000000E+02 0.  0.
   -5000001    1    1    2    0    0 -0.11815061435E+03 -0.52699809402E+02  0.85396576123E+03  0.86713514457E+03  0.77000000000E+02 0.  0.
<mgrwt>
<rscale>  0 0.36451337E+03</rscale>
<asrwt>0</asrwt>
<pdfrwt beam="1">  1        2 0.15724631E+00 0.36451337E+03</pdfrwt>
<pdfrwt beam="2">  1       -2 0.43111227E-02 0.36451337E+03</pdfrwt>
<totfact> 0.62787977E+03</totfact>
</mgrwt>
</event>
<event>
 4    1  0.1330040E-003  0.2531616E+03  0.7818608E-02  0.1111323E+00
          2   -1    0    0  501    0  0.00000000000E+00  0.00000000000E+00  0.28372206242E+04  0.28372206242E+04  0.25500000000E-02 0. -1.
         -2   -1    0    0    0  501 -0.00000000000E+00 -0.00000000000E+00 -0.56473198839E+01  0.56473204596E+01  0.25500000000E-02 0.  1.
    5000001    1    1    2    0    0 -0.61296954853E+02 -0.73281697568E+02  0.17648349860E+04  0.17690955462E+04  0.77000000000E+02 0.  0.
   -5000001    1    1    2    0    0  0.61296954853E+02  0.73281697568E+02  0.10667383183E+04  0.10737723984E+04  0.77000000000E+02 0.  0.
<mgrwt>
<rscale>  0 0.25316156E+03</rscale>
<asrwt>0</asrwt>
<pdfrwt beam="1">  1        2 0.40531761E+00 0.25316156E+03</pdfrwt>
<pdfrwt beam="2">  1       -2 0.80675928E-03 0.25316156E+03</pdfrwt>
<totfact> 0.98351065E+03</totfact>
</mgrwt>
</event>
<event>
 4    1  0.1330040E-003  0.3990118E+03  0.7818608E-02  0.1044122E+00
          2   -1    0    0  501    0  0.00000000000E+00  0.00000000000E+00  0.14424588171E+03  0.14424588173E+03  0.25500000000E-02 0.  1.
         -2   -1    0    0    0  501 -0.00000000000E+00 -0.00000000000E+00 -0.27593577064E+03  0.27593577065E+03  0.25500000000E-02 0. -1.
    5000001    1    1    2    0    0  0.10726149089E+03 -0.14856380349E+03 -0.84004200724E+02  0.21578215142E+03  0.77000000000E+02 0.  0.
   -5000001    1    1    2    0    0 -0.10726149089E+03  0.14856380349E+03 -0.47685688207E+02  0.20439950096E+03  0.77000000000E+02 0.  0.
<mgrwt>
<rscale>  0 0.39901177E+03</rscale>
<asrwt>0</asrwt>
<pdfrwt beam="1">  1        2 0.20606554E-01 0.39901177E+03</pdfrwt>
<pdfrwt beam="2">  1       -2 0.39419396E-01 0.39901177E+03</pdfrwt>
<totfact> 0.16566977E+03</totfact>
</mgrwt>
</event>
<event>
 4    1  0.1330040E-003  0.8342321E+03  0.7818608E-02  0.9511748E-01
          2   -1    0    0  501    0  0.00000000000E+00  0.00000000000E+00  0.15660309428E+04  0.15660309428E+04  0.25500000000E-02 0.  1.
         -2   -1    0    0    0  501 -0.00000000000E+00 -0.00000000000E+00 -0.11109984412E+03  0.11109984415E+03  0.25500000000E-02 0. -1.
    5000001    1    1    2    0    0 -0.28596306117E+03  0.28905939119E+03  0.83244152849E+03  0.92963331607E+03  0.77000000000E+02 0.  0.
   -5000001    1    1    2    0    0  0.28596306117E+03 -0.28905939119E+03  0.62248957015E+03  0.74749747085E+03  0.77000000000E+02 0.  0.
<mgrwt>
<rscale>  0 0.83423209E+03</rscale>
<asrwt>0</asrwt>
<pdfrwt beam="1">  1        2 0.22371871E+00 0.83423209E+03</pdfrwt>
<pdfrwt beam="2">  1       -2 0.15871406E-01 0.83423209E+03</pdfrwt>
<totfact> 0.43203394E+02</totfact>
</mgrwt>
</event>
<event>
 4    1  0.1330040E-003  0.1963560E+03  0.7818608E-02  0.1152850E+00
         -2   -1    0    0    0  501 -0.00000000000E+00  0.00000000000E+00  0.31452893224E+02  0.31452893327E+02  0.25500000000E-02 0. -1.
          2   -1    0    0  501    0  0.00000000000E+00 -0.00000000000E+00 -0.30645562877E+03  0.30645562879E+03  0.25500000000E-02 0.  1.
    5000001    1    1    2    0    0  0.13801801074E+02 -0.40785584970E+02 -0.63363575402E+02  0.10861812161E+03  0.77000000000E+02 0.  0.
   -5000001    1    1    2    0    0 -0.13801801074E+02  0.40785584970E+02 -0.21163916015E+03  0.22929040050E+03  0.77000000000E+02 0.  0.
<mgrwt>
<rscale>  0 0.19635596E+03</rscale>
<asrwt>0</asrwt>
<pdfrwt beam="1">  1        2 0.43779374E-01 0.19635596E+03</pdfrwt>
<pdfrwt beam="2">  1       -2 0.44932706E-02 0.19635596E+03</pdfrwt>
<totfact> 0.25696596E+04</totfact>
</mgrwt>
</event>
<event>
 4    1  0.1330040E-003  0.2875684E+03  0.7818608E-02  0.1091626E+00
          2   -1    0    0  501    0  0.00000000000E+00  0.00000000000E+00  0.60781108012E+03  0.60781108013E+03  0.25500000000E-02 0.  1.
         -2   -1    0    0    0  501 -0.00000000000E+00 -0.00000000000E+00 -0.34013689538E+02  0.34013689634E+02  0.25500000000E-02 0. -1.
    5000001    1    1    2    0    0 -0.69525477075E+02  0.30505396215E+02  0.49840640030E+03  0.51000226570E+03  0.77000000000E+02 0.  0.
   -5000001    1    1    2    0    0  0.69525477075E+02 -0.30505396215E+02  0.75390990285E+02  0.13182250406E+03  0.77000000000E+02 0.  0.
<mgrwt>
<rscale>  0 0.28756841E+03</rscale>
<asrwt>0</asrwt>
<pdfrwt beam="1">  1        2 0.86830155E-01 0.28756841E+03</pdfrwt>
<pdfrwt beam="2">  1       -2 0.48590985E-02 0.28756841E+03</pdfrwt>
<totfact> 0.11052567E+04</totfact>
</mgrwt>
</event>
<event>
 4    1  0.1330040E-003  0.1805238E+03  0.7818608E-02  0.1167297E+00
          2   -1    0    0  501    0  0.00000000000E+00  0.00000000000E+00  0.29033812827E+04  0.29033812827E+04  0.25500000000E-02 0.  1.
         -2   -1    0    0    0  501 -0.00000000000E+00 -0.00000000000E+00 -0.28061099268E+01  0.28061110854E+01  0.25500000000E-02 0. -1.
    5000001    1    1    2    0    0 -0.29029285743E+02  0.33162819224E+02  0.11829644822E+04  0.11862868279E+04  0.77000000000E+02 0.  0.
   -5000001    1    1    2    0    0  0.29029285743E+02 -0.33162819224E+02  0.17176106906E+04  0.17199005659E+04  0.77000000000E+02 0.  0.
<mgrwt>
<rscale>  0 0.18052378E+03</rscale>
<asrwt>0</asrwt>
<pdfrwt beam="1">  1        2 0.41476848E+00 0.18052378E+03</pdfrwt>
<pdfrwt beam="2">  1       -2 0.40087320E-03 0.18052378E+03</pdfrwt>
<totfact> 0.24614824E+04</totfact>
</mgrwt>
</event>
<event>
 4    1  0.1330040E-003  0.2059927E+03  0.7818608E-02  0.1144779E+00
         -2   -1    0    0    0  501 -0.00000000000E+00  0.00000000000E+00  0.15906232541E+02  0.15906232745E+02  0.25500000000E-02 0. -1.
          2   -1    0    0  501    0  0.00000000000E+00 -0.00000000000E+00 -0.66692408148E+03  0.66692408149E+03  0.25500000000E-02 0.  1.
    5000001    1    1    2    0    0 -0.28821476331E+02 -0.58098487782E+02 -0.39761216179E+03  0.41015916786E+03  0.77000000000E+02 0.  0.
   -5000001    1    1    2    0    0  0.28821476331E+02  0.58098487782E+02 -0.25340568716E+03  0.27267114637E+03  0.77000000000E+02 0.  0.
<mgrwt>
<rscale>  0 0.20599271E+03</rscale>
<asrwt>0</asrwt>
<pdfrwt beam="1">  1        2 0.95274851E-01 0.20599271E+03</pdfrwt>
<pdfrwt beam="2">  1       -2 0.22723194E-02 0.20599271E+03</pdfrwt>
<totfact> 0.30279530E+04</totfact>
</mgrwt>
</event>
<event>
 4    1  0.1330040E-003  0.3704682E+03  0.7818608E-02  0.1054514E+00
         -2   -1    0    0    0  501 -0.00000000000E+00  0.00000000000E+00  0.12764834741E+03  0.12764834743E+03  0.25500000000E-02 0. -1.
          2   -1    0    0  501    0  0.00000000000E+00 -0.00000000000E+00 -0.26879840313E+03  0.26879840314E+03  0.25500000000E-02 0.  1.
    5000001    1    1    2    0    0  0.12579656126E+03  0.10360433412E+03 -0.11627868950E+03  0.21449560952E+03  0.77000000000E+02 0.  0.
   -5000001    1    1    2    0    0 -0.12579656126E+03 -0.10360433412E+03 -0.24871366223E+02  0.18195114105E+03  0.77000000000E+02 0.  0.
<mgrwt>
<rscale>  0 0.37046820E+03</rscale>
<asrwt>0</asrwt>
<pdfrwt beam="1">  1        2 0.38399772E-01 0.37046820E+03</pdfrwt>
<pdfrwt beam="2">  1       -2 0.18235478E-01 0.37046820E+03</pdfrwt>
<totfact> 0.33089025E+03</totfact>
</mgrwt>
</event>
<event>
 4    1  0.1330040E-003  0.1810683E+03  0.7818608E-02  0.1166773E+00
          2   -1    0    0  501    0  0.00000000000E+00  0.00000000000E+00  0.40962732224E+02  0.40962732303E+02  0.25500000000E-02 0.  1.
         -2   -1    0    0    0  501 -0.00000000000E+00 -0.00000000000E+00 -0.20009486828E+03  0.20009486830E+03  0.25500000000E-02 0. -1.
    5000001    1    1    2    0    0  0.30086346128E+02  0.29935402020E+02 -0.10830862539E+03  0.13950295642E+03  0.77000000000E+02 0.  0.
   -5000001    1    1    2    0    0 -0.30086346128E+02 -0.29935402020E+02 -0.50823510671E+02  0.10155464418E+03  0.77000000000E+02 0.  0.
<mgrwt>
<rscale>  0 0.18106830E+03</rscale>
<asrwt>0</asrwt>
<pdfrwt beam="1">  1        2 0.58518190E-02 0.18106830E+03</pdfrwt>
<pdfrwt beam="2">  1       -2 0.28584981E-01 0.18106830E+03</pdfrwt>
<totfact> 0.13649851E+04</totfact>
</mgrwt>
</event>
<event>
 4    1  0.1330040E-003  0.2568766E+03  0.7818608E-02  0.1109034E+00
         -2   -1    0    0    0  501 -0.00000000000E+00  0.00000000000E+00  0.12094152941E+02  0.12094153209E+02  0.25500000000E-02 0. -1.
          2   -1    0    0  501    0  0.00000000000E+00 -0.00000000000E+00 -0.13639980556E+04  0.13639980556E+04  0.25500000000E-02 0.  1.
    5000001    1    1    2    0    0 -0.34574585036E+02  0.90394492116E+02 -0.49031491372E+03  0.50567210794E+03  0.77000000000E+02 0.  0.
   -5000001    1    1    2    0    0  0.34574585036E+02 -0.90394492116E+02 -0.86158898898E+03  0.87042010091E+03  0.77000000000E+02 0.  0.
<mgrwt>
<rscale>  0 0.25687663E+03</rscale>
<asrwt>0</asrwt>
<pdfrwt beam="1">  1        2 0.19485677E+00 0.25687663E+03</pdfrwt>
<pdfrwt beam="2">  1       -2 0.17277370E-02 0.25687663E+03</pdfrwt>
<totfact> 0.17500738E+04</totfact>
</mgrwt>
</event>
<event>
 4    1  0.1330040E-003  0.6112914E+03  0.7818608E-02  0.9882253E-01
          2   -1    0    0  501    0  0.00000000000E+00  0.00000000000E+00  0.11151505537E+04  0.11151505537E+04  0.25500000000E-02 0.  1.
         -2   -1    0    0    0  501 -0.00000000000E+00 -0.00000000000E+00 -0.83772818798E+02  0.83772818837E+02  0.25500000000E-02 0. -1.
    5000001    1    1    2    0    0  0.65277649357E+02  0.25812270597E+03  0.76839788255E+03  0.81685543932E+03  0.77000000000E+02 0.  0.
   -5000001    1    1    2    0    0 -0.65277649357E+02 -0.25812270597E+03  0.26297985233E+03  0.38206793319E+03  0.77000000000E+02 0.  0.
<mgrwt>
<rscale>  0 0.61129144E+03</rscale>
<asrwt>0</asrwt>
<pdfrwt beam="1">  1        2 0.15930722E+00 0.61129144E+03</pdfrwt>
<pdfrwt beam="2">  1       -2 0.11967546E-01 0.61129144E+03</pdfrwt>
<totfact> 0.12314605E+03</totfact>
</mgrwt>
</event>
<event>
 4    1  0.1330040E-003  0.2466553E+03  0.7818608E-02  0.1115437E+00
          2   -1    0    0  501    0  0.00000000000E+00  0.00000000000E+00  0.63156820193E+03  0.63156820193E+03  0.25500000000E-02 0.  1.
         -2   -1    0    0    0  501 -0.00000000000E+00 -0.00000000000E+00 -0.24082459036E+02  0.24082459171E+02  0.25500000000E-02 0. -1.
    5000001    1    1    2    0    0  0.36488856248E+02 -0.48732130131E+02  0.50220758329E+03  0.51171057625E+03  0.77000000000E+02 0.  0.
   -5000001    1    1    2    0    0 -0.36488856248E+02  0.48732130131E+02  0.10527815961E+03  0.14394008485E+03  0.77000000000E+02 0.  0.
<mgrwt>
<rscale>  0 0.24665535E+03</rscale>
<asrwt>0</asrwt>
<pdfrwt beam="1">  1        2 0.90224027E-01 0.24665535E+03</pdfrwt>
<pdfrwt beam="2">  1       -2 0.34403514E-02 0.24665535E+03</pdfrwt>
<totfact> 0.17658714E+04</totfact>
</mgrwt>
</event>
<event>
 4    1  0.1330040E-003  0.3142811E+03  0.7818608E-02  0.1078312E+00
         -2   -1    0    0    0  501 -0.00000000000E+00  0.00000000000E+00  0.24060307958E+03  0.24060307959E+03  0.25500000000E-02 0. -1.
          2   -1    0    0  501    0  0.00000000000E+00 -0.00000000000E+00 -0.10263024594E+03  0.10263024597E+03  0.25500000000E-02 0.  1.
    5000001    1    1    2    0    0  0.10453883351E+03  0.31186196751E+02 -0.21489858793E+02  0.13524703550E+03  0.77000000000E+02 0.  0.
   -5000001    1    1    2    0    0 -0.10453883351E+03 -0.31186196751E+02  0.15946269243E+03  0.20798629007E+03  0.77000000000E+02 0.  0.
<mgrwt>
<rscale>  0 0.31428110E+03</rscale>
<asrwt>0</asrwt>
<pdfrwt beam="1">  1        2 0.14661464E-01 0.31428110E+03</pdfrwt>
<pdfrwt beam="2">  1       -2 0.34371868E-01 0.31428110E+03</pdfrwt>
<totfact> 0.31863435E+03</totfact>
</mgrwt>
</event>
<event>
 4    1  0.1330040E-003  0.1189507E+04  0.7818608E-02  0.9122091E-01
         -2   -1    0    0    0  501 -0.00000000000E+00  0.00000000000E+00  0.16862244334E+03  0.16862244336E+03  0.25500000000E-02 0. -1.
          2   -1    0    0  501    0  0.00000000000E+00 -0.00000000000E+00 -0.20977748918E+04  0.20977748918E+04  0.25500000000E-02 0.  1.
    5000001    1    1    2    0    0 -0.43874025803E+03  0.39091043437E+03 -0.10598223617E+04  0.12142719712E+04  0.77000000000E+02 0.  0.
   -5000001    1    1    2    0    0  0.43874025803E+03 -0.39091043437E+03 -0.86933008673E+03  0.10521253639E+04  0.77000000000E+02 0.  0.
<mgrwt>
<rscale>  0 0.11895073E+04</rscale>
<asrwt>0</asrwt>
<pdfrwt beam="1">  1        2 0.29968211E+00 0.11895073E+04</pdfrwt>
<pdfrwt beam="2">  1       -2 0.24088922E-01 0.11895073E+04</pdfrwt>
<totfact> 0.10834721E+02</totfact>
</mgrwt>
</event>
<event>
 4    1  0.1330040E-003  0.5950959E+03  0.7818608E-02  0.9915633E-01
          2   -1    0    0  501    0  0.00000000000E+00  0.00000000000E+00  0.16947061550E+04  0.16947061550E+04  0.25500000000E-02 0.  1.
         -2   -1    0    0    0  501 -0.00000000000E+00 -0.00000000000E+00 -0.52241958982E+02  0.52241959045E+02  0.25500000000E-02 0. -1.
    5000001    1    1    2    0    0 -0.27259699084E+03 -0.89095783282E+02  0.87682163591E+03  0.92573881803E+03  0.77000000000E+02 0.  0.
   -5000001    1    1    2    0    0  0.27259699084E+03  0.89095783282E+02  0.76564256011E+03  0.82120929602E+03  0.77000000000E+02 0.  0.
<mgrwt>
<rscale>  0 0.59509586E+03</rscale>
<asrwt>0</asrwt>
<pdfrwt beam="1">  1        2 0.24210087E+00 0.59509586E+03</pdfrwt>
<pdfrwt beam="2">  1       -2 0.74631373E-02 0.59509586E+03</pdfrwt>
<totfact> 0.12935832E+03</totfact>
</mgrwt>
</event>
<event>
 4    1  0.1330040E-003  0.2667785E+03  0.7818608E-02  0.1103138E+00
         -2   -1    0    0    0  501 -0.00000000000E+00  0.00000000000E+00  0.76713411720E+01  0.76713415959E+01  0.25500000000E-02 0. -1.
          2   -1    0    0  501    0  0.00000000000E+00 -0.00000000000E+00 -0.23193720736E+04  0.23193720736E+04  0.25500000000E-02 0.  1.
    5000001    1    1    2    0    0  0.98559143456E+02  0.21590397640E+02 -0.15137645250E+04  0.15190760637E+04  0.77000000000E+02 0.  0.
   -5000001    1    1    2    0    0 -0.98559143456E+02 -0.21590397640E+02 -0.79793620740E+03  0.80796735151E+03  0.77000000000E+02 0.  0.
<mgrwt>
<rscale>  0 0.26677852E+03</rscale>
<asrwt>0</asrwt>
<pdfrwt beam="1">  1        2 0.33133842E+00 0.26677852E+03</pdfrwt>
<pdfrwt beam="2">  1       -2 0.10959074E-02 0.26677852E+03</pdfrwt>
<totfact> 0.11493948E+04</totfact>
</mgrwt>
</event>
<event>
 4    1  0.1330040E-003  0.2309013E+03  0.7818608E-02  0.1126007E+00
          2   -1    0    0  501    0  0.00000000000E+00  0.00000000000E+00  0.17130469493E+04  0.17130469493E+04  0.25500000000E-02 0.  1.
         -2   -1    0    0    0  501 -0.00000000000E+00 -0.00000000000E+00 -0.77807832764E+01  0.77807836943E+01  0.25500000000E-02 0. -1.
    5000001    1    1    2    0    0  0.39000540672E+02 -0.56434420927E+02  0.46581498488E+03  0.47709379181E+03  0.77000000000E+02 0.  0.
   -5000001    1    1    2    0    0 -0.39000540672E+02  0.56434420927E+02  0.12394511812E+04  0.12437339412E+04  0.77000000000E+02 0.  0.
<mgrwt>
<rscale>  0 0.23090126E+03</rscale>
<asrwt>0</asrwt>
<pdfrwt beam="1">  1        2 0.24472086E+00 0.23090126E+03</pdfrwt>
<pdfrwt beam="2">  1       -2 0.11115411E-02 0.23090126E+03</pdfrwt>
<totfact> 0.22143297E+04</totfact>
</mgrwt>
</event>
<event>
 4    1  0.1330040E-003  0.1895559E+03  0.7818608E-02  0.1158862E+00
         -2   -1    0    0    0  501 -0.00000000000E+00  0.00000000000E+00  0.51649104665E+01  0.51649110960E+01  0.25500000000E-02 0. -1.
          2   -1    0    0  501    0  0.00000000000E+00 -0.00000000000E+00 -0.17392095383E+04  0.17392095383E+04  0.25500000000E-02 0.  1.
    5000001    1    1    2    0    0  0.41960773524E+02  0.67836230346E+01 -0.11920045468E+04  0.11952449806E+04  0.77000000000E+02 0.  0.
   -5000001    1    1    2    0    0 -0.41960773524E+02 -0.67836230346E+01 -0.54204008105E+03  0.54912946881E+03  0.77000000000E+02 0.  0.
<mgrwt>
<rscale>  0 0.18955592E+03</rscale>
<asrwt>0</asrwt>
<pdfrwt beam="1">  1        2 0.24845813E+00 0.18955592E+03</pdfrwt>
<pdfrwt beam="2">  1       -2 0.73784551E-03 0.18955592E+03</pdfrwt>
<totfact> 0.38415761E+04</totfact>
</mgrwt>
</event>
<event>
 4    1  0.1330040E-003  0.2806090E+03  0.7818608E-02  0.1095357E+00
          2   -1    0    0  501    0  0.00000000000E+00  0.00000000000E+00  0.11294503663E+04  0.11294503663E+04  0.25500000000E-02 0.  1.
         -2   -1    0    0    0  501 -0.00000000000E+00 -0.00000000000E+00 -0.17429140099E+02  0.17429140285E+02  0.25500000000E-02 0. -1.
    5000001    1    1    2    0    0  0.10860134264E+03  0.44293608846E+02  0.55430884180E+03  0.57178970566E+03  0.77000000000E+02 0.  0.
   -5000001    1    1    2    0    0 -0.10860134264E+03 -0.44293608846E+02  0.55771238439E+03  0.57508980091E+03  0.77000000000E+02 0.  0.
<mgrwt>
<rscale>  0 0.28060897E+03</rscale>
<asrwt>0</asrwt>
<pdfrwt beam="1">  1        2 0.16135004E+00 0.28060897E+03</pdfrwt>
<pdfrwt beam="2">  1       -2 0.24898774E-02 0.28060897E+03</pdfrwt>
<totfact> 0.13689729E+04</totfact>
</mgrwt>
</event>
<event>
 4    1  0.1330040E-003  0.3268568E+03  0.7818608E-02  0.1072536E+00
          2   -1    0    0  501    0  0.00000000000E+00  0.00000000000E+00  0.12995368299E+04  0.12995368299E+04  0.25500000000E-02 0.  1.
         -2   -1    0    0    0  501 -0.00000000000E+00 -0.00000000000E+00 -0.20552587604E+02  0.20552587762E+02  0.25500000000E-02 0. -1.
    5000001    1    1    2    0    0 -0.99744141998E+02  0.89052891922E+02  0.42197936814E+03  0.44930490600E+03  0.77000000000E+02 0.  0.
   -5000001    1    1    2    0    0  0.99744141998E+02 -0.89052891922E+02  0.85700487415E+03  0.87078451165E+03  0.77000000000E+02 0.  0.
<mgrwt>
<rscale>  0 0.32685682E+03</rscale>
<asrwt>0</asrwt>
<pdfrwt beam="1">  1        2 0.18564812E+00 0.32685682E+03</pdfrwt>
<pdfrwt beam="2">  1       -2 0.29360839E-02 0.32685682E+03</pdfrwt>
<totfact> 0.86968022E+03</totfact>
</mgrwt>
</event>
<event>
 4    1  0.1330040E-003  0.2499351E+03  0.7818608E-02  0.1113346E+00
          2   -1    0    0  501    0  0.00000000000E+00  0.00000000000E+00  0.13285898614E+04  0.13285898614E+04  0.25500000000E-02 0.  1.
         -2   -1    0    0    0  501 -0.00000000000E+00 -0.00000000000E+00 -0.11754483591E+02  0.11754483867E+02  0.25500000000E-02 0. -1.
    5000001    1    1    2    0    0  0.35712538964E+02 -0.89629070743E+02  0.55399750562E+03  0.56758346698E+03  0.77000000000E+02 0.  0.
   -5000001    1    1    2    0    0 -0.35712538964E+02  0.89629070743E+02  0.76283787222E+03  0.77276087831E+03  0.77000000000E+02 0.  0.
<mgrwt>
<rscale>  0 0.24993509E+03</rscale>
<asrwt>0</asrwt>
<pdfrwt beam="1">  1        2 0.18979838E+00 0.24993509E+03</pdfrwt>
<pdfrwt beam="2">  1       -2 0.16792135E-02 0.24993509E+03</pdfrwt>
<totfact> 0.19013514E+04</totfact>
</mgrwt>
</event>
<event>
 4    1  0.1330040E-003  0.2041602E+03  0.7818608E-02  0.1146276E+00
         -2   -1    0    0    0  501 -0.00000000000E+00  0.00000000000E+00  0.77253554539E+02  0.77253554581E+02  0.25500000000E-02 0. -1.
          2   -1    0    0  501    0  0.00000000000E+00 -0.00000000000E+00 -0.13488506879E+03  0.13488506882E+03  0.25500000000E-02 0.  1.
    5000001    1    1    2    0    0 -0.18852537260E+02  0.56762066524E+02 -0.60229655376E+02  0.11460349796E+03  0.77000000000E+02 0.  0.
   -5000001    1    1    2    0    0  0.18852537260E+02 -0.56762066524E+02  0.25981411239E+01  0.97535125439E+02  0.77000000000E+02 0.  0.
<mgrwt>
<rscale>  0 0.20416024E+03</rscale>
<asrwt>0</asrwt>
<pdfrwt beam="1">  1        2 0.19269296E-01 0.20416024E+03</pdfrwt>
<pdfrwt beam="2">  1       -2 0.11036222E-01 0.20416024E+03</pdfrwt>
<totfact> 0.15855420E+04</totfact>
</mgrwt>
</event>
<event>
 4    1  0.1330040E-003  0.2883514E+03  0.7818608E-02  0.1091213E+00
         -2   -1    0    0    0  501 -0.00000000000E+00  0.00000000000E+00  0.13097770032E+02  0.13097770280E+02  0.25500000000E-02 0. -1.
          2   -1    0    0  501    0  0.00000000000E+00 -0.00000000000E+00 -0.15870358247E+04  0.15870358247E+04  0.25500000000E-02 0.  1.
    5000001    1    1    2    0    0  0.93227671110E+02  0.41893856245E+02 -0.11555300922E+04  0.11625942060E+04  0.77000000000E+02 0.  0.
   -5000001    1    1    2    0    0 -0.93227671110E+02 -0.41893856245E+02 -0.41840796247E+03  0.43753938898E+03  0.77000000000E+02 0.  0.
<mgrwt>
<rscale>  0 0.28835139E+03</rscale>
<asrwt>0</asrwt>
<pdfrwt beam="1">  1        2 0.22671928E+00 0.28835139E+03</pdfrwt>
<pdfrwt beam="2">  1       -2 0.18711110E-02 0.28835139E+03</pdfrwt>
<totfact> 0.12039714E+04</totfact>
</mgrwt>
</event>
<event>
 4    1  0.1330040E-003  0.3295974E+03  0.7818608E-02  0.1071315E+00
          2   -1    0    0  501    0  0.00000000000E+00  0.00000000000E+00  0.78549727275E+03  0.78549727276E+03  0.25500000000E-02 0.  1.
         -2   -1    0    0    0  501 -0.00000000000E+00 -0.00000000000E+00 -0.34575051338E+02  0.34575051432E+02  0.25500000000E-02 0. -1.
    5000001    1    1    2    0    0  0.86697779183E+02 -0.11309857410E+03  0.45100347415E+03  0.47920864566E+03  0.77000000000E+02 0.  0.
   -5000001    1    1    2    0    0 -0.86697779183E+02  0.11309857410E+03  0.29991874727E+03  0.34086367853E+03  0.77000000000E+02 0.  0.
<mgrwt>
<rscale>  0 0.32959738E+03</rscale>
<asrwt>0</asrwt>
<pdfrwt beam="1">  1        2 0.11221390E+00 0.32959738E+03</pdfrwt>
<pdfrwt beam="2">  1       -2 0.49392927E-02 0.32959738E+03</pdfrwt>
<totfact> 0.79819416E+03</totfact>
</mgrwt>
</event>
<event>
 4    1  0.1330040E-003  0.2731495E+03  0.7818608E-02  0.1099490E+00
         -2   -1    0    0    0  501 -0.00000000000E+00  0.00000000000E+00  0.14948359349E+02  0.14948359566E+02  0.25500000000E-02 0. -1.
          2   -1    0    0  501    0  0.00000000000E+00 -0.00000000000E+00 -0.12478065584E+04  0.12478065584E+04  0.25500000000E-02 0.  1.
    5000001    1    1    2    0    0 -0.10893609993E+03 -0.22057891064E+02 -0.70535760278E+03  0.71820050976E+03  0.77000000000E+02 0.  0.
   -5000001    1    1    2    0    0  0.10893609993E+03  0.22057891064E+02 -0.52750059624E+03  0.54455440818E+03  0.77000000000E+02 0.  0.
<mgrwt>
<rscale>  0 0.27314949E+03</rscale>
<asrwt>0</asrwt>
<pdfrwt beam="1">  1        2 0.17825801E+00 0.27314949E+03</pdfrwt>
<pdfrwt beam="2">  1       -2 0.21354807E-02 0.27314949E+03</pdfrwt>
<totfact> 0.14789007E+04</totfact>
</mgrwt>
</event>
<event>
 4    1  0.1330040E-003  0.2690028E+03  0.7818608E-02  0.1101852E+00
         -2   -1    0    0    0  501 -0.00000000000E+00  0.00000000000E+00  0.26595054505E+02  0.26595054628E+02  0.25500000000E-02 0. -1.
          2   -1    0    0  501    0  0.00000000000E+00 -0.00000000000E+00 -0.68022501147E+03  0.68022501148E+03  0.25500000000E-02 0.  1.
    5000001    1    1    2    0    0 -0.10511094624E+02  0.10650652490E+03 -0.25692500955E+03  0.28877947207E+03  0.77000000000E+02 0.  0.
   -5000001    1    1    2    0    0  0.10511094624E+02 -0.10650652490E+03 -0.39670494742E+03  0.41804059404E+03  0.77000000000E+02 0.  0.
<mgrwt>
<rscale>  0 0.26900276E+03</rscale>
<asrwt>0</asrwt>
<pdfrwt beam="1">  1        2 0.97174991E-01 0.26900276E+03</pdfrwt>
<pdfrwt beam="2">  1       -2 0.37992939E-02 0.26900276E+03</pdfrwt>
<totfact> 0.14021524E+04</totfact>
</mgrwt>
</event>
<event>
 4    1  0.1330040E-003  0.1810648E+03  0.7818608E-02  0.1166777E+00
         -2   -1    0    0    0  501 -0.00000000000E+00  0.00000000000E+00  0.22168908595E+02  0.22168908742E+02  0.25500000000E-02 0. -1.
          2   -1    0    0  501    0  0.00000000000E+00 -0.00000000000E+00 -0.36971197353E+03  0.36971197354E+03  0.25500000000E-02 0.  1.
    5000001    1    1    2    0    0  0.43967722735E+02 -0.96731260140E+01 -0.20732753410E+03  0.22569988127E+03  0.77000000000E+02 0.  0.
   -5000001    1    1    2    0    0 -0.43967722735E+02  0.96731260140E+01 -0.14021553083E+03  0.16618100101E+03  0.77000000000E+02 0.  0.
<mgrwt>
<rscale>  0 0.18106475E+03</rscale>
<asrwt>0</asrwt>
<pdfrwt beam="1">  1        2 0.52815992E-01 0.18106475E+03</pdfrwt>
<pdfrwt beam="2">  1       -2 0.31669872E-02 0.18106475E+03</pdfrwt>
<totfact> 0.35186476E+04</totfact>
</mgrwt>
</event>
<event>
 4    1  0.1330040E-003  0.1994727E+03  0.7818608E-02  0.1150185E+00
          2   -1    0    0  501    0  0.00000000000E+00  0.00000000000E+00  0.37056174249E+04  0.37056174249E+04  0.25500000000E-02 0.  1.
         -2   -1    0    0    0  501 -0.00000000000E+00 -0.00000000000E+00 -0.26843932206E+01  0.26843944317E+01  0.25500000000E-02 0. -1.
    5000001    1    1    2    0    0  0.30173182572E+02  0.35395264285E+02  0.26521746967E+04  0.26536998450E+04  0.77000000000E+02 0.  0.
   -5000001    1    1    2    0    0 -0.30173182572E+02 -0.35395264285E+02  0.10507583349E+04  0.10546019743E+04  0.77000000000E+02 0.  0.
<mgrwt>
<rscale>  0 0.19947267E+03</rscale>
<asrwt>0</asrwt>
<pdfrwt beam="1">  1        2 0.52937412E+00 0.19947267E+03</pdfrwt>
<pdfrwt beam="2">  1       -2 0.38348469E-03 0.19947267E+03</pdfrwt>
<totfact> 0.94501335E+03</totfact>
</mgrwt>
</event>
<event>
 4    1  0.1330040E-003  0.2165767E+03  0.7818608E-02  0.1136461E+00
          2   -1    0    0  501    0  0.00000000000E+00  0.00000000000E+00  0.41603939265E+03  0.41603939266E+03  0.25500000000E-02 0.  1.
         -2   -1    0    0    0  501 -0.00000000000E+00 -0.00000000000E+00 -0.28185708186E+02  0.28185708301E+02  0.25500000000E-02 0. -1.
    5000001    1    1    2    0    0  0.34140668898E+02 -0.48164266875E+02  0.29255109380E+03  0.30822155077E+03  0.77000000000E+02 0.  0.
   -5000001    1    1    2    0    0 -0.34140668898E+02  0.48164266875E+02  0.95302590668E+02  0.13600355019E+03  0.77000000000E+02 0.  0.
<mgrwt>
<rscale>  0 0.21657668E+03</rscale>
<asrwt>0</asrwt>
<pdfrwt beam="1">  1        2 0.59434202E-01 0.21657668E+03</pdfrwt>
<pdfrwt beam="2">  1       -2 0.40265295E-02 0.21657668E+03</pdfrwt>
<totfact> 0.21990931E+04</totfact>
</mgrwt>
</event>
<event>
 4    1  0.1330040E-003  0.2273752E+03  0.7818608E-02  0.1128501E+00
         -2   -1    0    0    0  501 -0.00000000000E+00  0.00000000000E+00  0.18125959770E+04  0.18125959770E+04  0.25500000000E-02 0. -1.
          2   -1    0    0  501    0  0.00000000000E+00 -0.00000000000E+00 -0.71305856719E+01  0.71305861279E+01  0.25500000000E-02 0.  1.
    5000001    1    1    2    0    0  0.53666874479E+02  0.50095075512E+02  0.12234819956E+04  0.12280988736E+04  0.77000000000E+02 0.  0.
   -5000001    1    1    2    0    0 -0.53666874479E+02 -0.50095075512E+02  0.58198339579E+03  0.59162768950E+03  0.77000000000E+02 0.  0.
<mgrwt>
<rscale>  0 0.22737521E+03</rscale>
<asrwt>0</asrwt>
<pdfrwt beam="1">  1        2 0.10186548E-02 0.22737521E+03</pdfrwt>
<pdfrwt beam="2">  1       -2 0.25894236E+00 0.22737521E+03</pdfrwt>
<totfact> 0.88944760E+02</totfact>
</mgrwt>
</event>
<event>
 4    1  0.1330040E-003  0.1222126E+04  0.7818608E-02  0.9093707E-01
          2   -1    0    0  501    0  0.00000000000E+00  0.00000000000E+00  0.16821325733E+03  0.16821325735E+03  0.25500000000E-02 0.  1.
         -2   -1    0    0    0  501 -0.00000000000E+00 -0.00000000000E+00 -0.22197902364E+04  0.22197902364E+04  0.25500000000E-02 0. -1.
    5000001    1    1    2    0    0 -0.10030615161E+03  0.59043561560E+03 -0.12090209387E+04  0.13514200570E+04  0.77000000000E+02 0.  0.
   -5000001    1    1    2    0    0  0.10030615161E+03 -0.59043561560E+03 -0.84255604032E+03  0.10365834367E+04  0.77000000000E+02 0.  0.
<mgrwt>
<rscale>  0 0.12221263E+04</rscale>
<asrwt>0</asrwt>
<pdfrwt beam="1">  1        2 0.24030467E-01 0.12221263E+04</pdfrwt>
<pdfrwt beam="2">  1       -2 0.31711287E+00 0.12221263E+04</pdfrwt>
<totfact> 0.57093541E+00</totfact>
</mgrwt>
</event>
<event>
 4    1  0.1330040E-003  0.3199850E+03  0.7818608E-02  0.1075656E+00
          2   -1    0    0  501    0  0.00000000000E+00  0.00000000000E+00  0.35917998383E+04  0.35917998383E+04  0.25500000000E-02 0.  1.
         -2   -1    0    0    0  501 -0.00000000000E+00 -0.00000000000E+00 -0.71266777624E+01  0.71266782187E+01  0.25500000000E-02 0. -1.
    5000001    1    1    2    0    0 -0.10290646430E+03  0.34111703555E+00  0.72067850796E+03  0.73204943043E+03  0.77000000000E+02 0.  0.
   -5000001    1    1    2    0    0  0.10290646430E+03 -0.34111703555E+00  0.28639946526E+04  0.28668770861E+04  0.77000000000E+02 0.  0.
<mgrwt>
<rscale>  0 0.31998501E+03</rscale>
<asrwt>0</asrwt>
<pdfrwt beam="1">  1        2 0.51311564E+00 0.31998501E+03</pdfrwt>
<pdfrwt beam="2">  1       -2 0.10180941E-02 0.31998501E+03</pdfrwt>
<totfact> 0.26808412E+03</totfact>
</mgrwt>
</event>
<event>
 4    1  0.1330040E-003  0.2568108E+03  0.7818608E-02  0.1109075E+00
         -2   -1    0    0    0  501 -0.00000000000E+00  0.00000000000E+00  0.14572405046E+02  0.14572405269E+02  0.25500000000E-02 0. -1.
          2   -1    0    0  501    0  0.00000000000E+00 -0.00000000000E+00 -0.11314497806E+04  0.11314497806E+04  0.25500000000E-02 0.  1.
    5000001    1    1    2    0    0  0.73702374335E+02 -0.60854784261E+02 -0.72681218766E+03  0.73710263931E+03  0.77000000000E+02 0.  0.
   -5000001    1    1    2    0    0 -0.73702374335E+02  0.60854784261E+02 -0.39006518787E+03  0.40891954653E+03  0.77000000000E+02 0.  0.
<mgrwt>
<rscale>  0 0.25681078E+03</rscale>
<asrwt>0</asrwt>
<pdfrwt beam="1">  1        2 0.16163563E+00 0.25681078E+03</pdfrwt>
<pdfrwt beam="2">  1       -2 0.20817729E-02 0.25681078E+03</pdfrwt>
<totfact> 0.17721622E+04</totfact>
</mgrwt>
</event>
<event>
 4    1  0.1330040E-003  0.2223512E+03  0.7818608E-02  0.1132142E+00
         -2   -1    0    0    0  501 -0.00000000000E+00  0.00000000000E+00  0.15203269574E+02  0.15203269788E+02  0.25500000000E-02 0. -1.
          2   -1    0    0  501    0  0.00000000000E+00 -0.00000000000E+00 -0.81298404422E+03  0.81298404422E+03  0.25500000000E-02 0.  1.
    5000001    1    1    2    0    0 -0.11735471397E+02  0.51798230514E+02 -0.17509199318E+03  0.19851192420E+03  0.77000000000E+02 0.  0.
   -5000001    1    1    2    0    0  0.11735471397E+02 -0.51798230514E+02 -0.62268878146E+03  0.62967538981E+03  0.77000000000E+02 0.  0.
<mgrwt>
<rscale>  0 0.22235121E+03</rscale>
<asrwt>0</asrwt>
<pdfrwt beam="1">  1        2 0.11614055E+00 0.22235121E+03</pdfrwt>
<pdfrwt beam="2">  1       -2 0.21718962E-02 0.22235121E+03</pdfrwt>
<totfact> 0.25661811E+04</totfact>
</mgrwt>
</event>
<event>
 4    1  0.1330040E-003  0.3240507E+03  0.7818608E-02  0.1073800E+00
          2   -1    0    0  501    0  0.00000000000E+00  0.00000000000E+00  0.12678939859E+04  0.12678939859E+04  0.25500000000E-02 0.  1.
         -2   -1    0    0    0  501 -0.00000000000E+00 -0.00000000000E+00 -0.20705371197E+02  0.20705371354E+02  0.25500000000E-02 0. -1.
    5000001    1    1    2    0    0 -0.23837422984E+02 -0.84992988240E+02  0.17844981713E+03  0.21346046008E+03  0.77000000000E+02 0.  0.
   -5000001    1    1    2    0    0  0.23837422984E+02  0.84992988240E+02  0.10687387976E+04  0.10751388972E+04  0.77000000000E+02 0.  0.
<mgrwt>
<rscale>  0 0.32405071E+03</rscale>
<asrwt>0</asrwt>
<pdfrwt beam="1">  1        2 0.18112767E+00 0.32405071E+03</pdfrwt>
<pdfrwt beam="2">  1       -2 0.29579110E-02 0.32405071E+03</pdfrwt>
<totfact> 0.89399408E+03</totfact>
</mgrwt>
</event>
<event>
 4    1  0.1330040E-003  0.4773509E+03  0.7818608E-02  0.1019866E+00
          2   -1    0    0  501    0  0.00000000000E+00  0.00000000000E+00  0.94769456957E+03  0.94769456957E+03  0.25500000000E-02 0.  1.
         -2   -1    0    0    0  501 -0.00000000000E+00 -0.00000000000E+00 -0.60110043354E+02  0.60110043408E+02  0.25500000000E-02 0. -1.
    5000001    1    1    2    0    0 -0.11839735970E+02  0.20614786644E+03  0.63728921300E+03  0.67431718293E+03  0.77000000000E+02 0.  0.
   -5000001    1    1    2    0    0  0.11839735970E+02 -0.20614786644E+03  0.25029531322E+03  0.33348743005E+03  0.77000000000E+02 0.  0.
<mgrwt>
<rscale>  0 0.47735086E+03</rscale>
<asrwt>0</asrwt>
<pdfrwt beam="1">  1        2 0.13538493E+00 0.47735086E+03</pdfrwt>
<pdfrwt beam="2">  1       -2 0.85871494E-02 0.47735086E+03</pdfrwt>
<totfact> 0.26591356E+03</totfact>
</mgrwt>
</event>
<event>
 4    1  0.1330040E-003  0.1938673E+03  0.7818608E-02  0.1155019E+00
         -2   -1    0    0    0  501 -0.00000000000E+00  0.00000000000E+00  0.11084512226E+03  0.11084512228E+03  0.25500000000E-02 0. -1.
          2   -1    0    0  501    0  0.00000000000E+00 -0.00000000000E+00 -0.84768076066E+02  0.84768076104E+02  0.25500000000E-02 0.  1.
    5000001    1    1    2    0    0 -0.18457782019E+02 -0.44678138286E+02  0.46961265186E+02  0.10232881405E+03  0.77000000000E+02 0.  0.
   -5000001    1    1    2    0    0  0.18457782019E+02  0.44678138286E+02 -0.20884218996E+02  0.93284384335E+02  0.77000000000E+02 0.  0.
<mgrwt>
<rscale>  0 0.19386725E+03</rscale>
<asrwt>0</asrwt>
<pdfrwt beam="1">  1        2 0.12109725E-01 0.19386725E+03</pdfrwt>
<pdfrwt beam="2">  1       -2 0.15835017E-01 0.19386725E+03</pdfrwt>
<totfact> 0.15185794E+04</totfact>
</mgrwt>
</event>
<event>
 4    1  0.1330040E-003  0.1971082E+03  0.7818608E-02  0.1152202E+00
         -2   -1    0    0    0  501 -0.00000000000E+00  0.00000000000E+00  0.63864143112E+03  0.63864143112E+03  0.25500000000E-02 0. -1.
          2   -1    0    0  501    0  0.00000000000E+00 -0.00000000000E+00 -0.15208711827E+02  0.15208712040E+02  0.25500000000E-02 0.  1.
    5000001    1    1    2    0    0  0.44110896815E+02  0.25241222685E+02  0.19675573073E+03  0.21731246655E+03  0.77000000000E+02 0.  0.
   -5000001    1    1    2    0    0 -0.44110896815E+02 -0.25241222685E+02  0.42667698856E+03  0.43653767662E+03  0.77000000000E+02 0.  0.
<mgrwt>
<rscale>  0 0.19710823E+03</rscale>
<asrwt>0</asrwt>
<pdfrwt beam="1">  1        2 0.21726732E-02 0.19710823E+03</pdfrwt>
<pdfrwt beam="2">  1       -2 0.91234488E-01 0.19710823E+03</pdfrwt>
<totfact> 0.50504578E+03</totfact>
</mgrwt>
</event>
<event>
 4    1  0.1330040E-003  0.2909532E+03  0.7818608E-02  0.1089853E+00
         -2   -1    0    0    0  501 -0.00000000000E+00  0.00000000000E+00  0.20082073074E+02  0.20082073236E+02  0.25500000000E-02 0. -1.
          2   -1    0    0  501    0  0.00000000000E+00 -0.00000000000E+00 -0.10538471559E+04  0.10538471559E+04  0.25500000000E-02 0.  1.
    5000001    1    1    2    0    0  0.91853983050E+02 -0.80930483396E+02 -0.45880960112E+03  0.48106355861E+03  0.77000000000E+02 0.  0.
   -5000001    1    1    2    0    0 -0.91853983050E+02  0.80930483396E+02 -0.57495548170E+03  0.59286567052E+03  0.77000000000E+02 0.  0.
<mgrwt>
<rscale>  0 0.29095316E+03</rscale>
<asrwt>0</asrwt>
<pdfrwt beam="1">  1        2 0.15054956E+00 0.29095316E+03</pdfrwt>
<pdfrwt beam="2">  1       -2 0.28688683E-02 0.29095316E+03</pdfrwt>
<totfact> 0.12257460E+04</totfact>
</mgrwt>
</event>
<event>
 4    1  0.1330040E-003  0.3161531E+03  0.7818608E-02  0.1077433E+00
          2   -1    0    0  501    0  0.00000000000E+00  0.00000000000E+00  0.20707841779E+04  0.20707841779E+04  0.25500000000E-02 0.  1.
         -2   -1    0    0    0  501 -0.00000000000E+00 -0.00000000000E+00 -0.12067024257E+02  0.12067024527E+02  0.25500000000E-02 0. -1.
    5000001    1    1    2    0    0 -0.43269162139E+02  0.82268058348E+02  0.35688891025E+03  0.37674785743E+03  0.77000000000E+02 0.  0.
   -5000001    1    1    2    0    0  0.43269162139E+02 -0.82268058348E+02  0.17018282434E+04  0.17061033450E+04  0.77000000000E+02 0.  0.
<mgrwt>
<rscale>  0 0.31615315E+03</rscale>
<asrwt>0</asrwt>
<pdfrwt beam="1">  1        2 0.29582589E+00 0.31615315E+03</pdfrwt>
<pdfrwt beam="2">  1       -2 0.17238631E-02 0.31615315E+03</pdfrwt>
<totfact> 0.78600282E+03</totfact>
</mgrwt>
</event>
<event>
 4    1  0.1330040E-003  0.3097703E+03  0.7818608E-02  0.1080456E+00
         -2   -1    0    0    0  501 -0.00000000000E+00  0.00000000000E+00  0.26840425003E+03  0.26840425004E+03  0.25500000000E-02 0. -1.
          2   -1    0    0  501    0  0.00000000000E+00 -0.00000000000E+00 -0.89377921930E+02  0.89377921967E+02  0.25500000000E-02 0.  1.
    5000001    1    1    2    0    0 -0.19637977602E+02  0.11163675938E+03  0.17289683215E+03  0.22061443918E+03  0.77000000000E+02 0.  0.
   -5000001    1    1    2    0    0  0.19637977602E+02 -0.11163675938E+03  0.61294959517E+01  0.13716773283E+03  0.77000000000E+02 0.  0.
<mgrwt>
<rscale>  0 0.30977033E+03</rscale>
<asrwt>0</asrwt>
<pdfrwt beam="1">  1        2 0.12768274E-01 0.30977033E+03</pdfrwt>
<pdfrwt beam="2">  1       -2 0.38343465E-01 0.30977033E+03</pdfrwt>
<totfact> 0.30620138E+03</totfact>
</mgrwt>
</event>
<event>
 4    1  0.1330040E-003  0.5266355E+03  0.7818608E-02  0.1007051E+00
          2   -1    0    0  501    0  0.00000000000E+00  0.00000000000E+00  0.13939269053E+04  0.13939269053E+04  0.25500000000E-02 0.  1.
         -2   -1    0    0    0  501 -0.00000000000E+00 -0.00000000000E+00 -0.49741660150E+02  0.49741660216E+02  0.25500000000E-02 0. -1.
    5000001    1    1    2    0    0 -0.21271534665E+03  0.95681109117E+01  0.30361522224E+03  0.37874869059E+03  0.77000000000E+02 0.  0.
   -5000001    1    1    2    0    0  0.21271534665E+03 -0.95681109117E+01  0.10405700229E+04  0.10649198749E+04  0.77000000000E+02 0.  0.
<mgrwt>
<rscale>  0 0.52663550E+03</rscale>
<asrwt>0</asrwt>
<pdfrwt beam="1">  1        2 0.19913239E+00 0.52663550E+03</pdfrwt>
<pdfrwt beam="2">  1       -2 0.71059522E-02 0.52663550E+03</pdfrwt>
<totfact> 0.20046358E+03</totfact>
</mgrwt>
</event>
<event>
 4    1  0.1330040E-003  0.2641931E+03  0.7818608E-02  0.1104650E+00
          2   -1    0    0  501    0  0.00000000000E+00  0.00000000000E+00  0.20434789260E+03  0.20434789261E+03  0.25500000000E-02 0.  1.
         -2   -1    0    0    0  501 -0.00000000000E+00 -0.00000000000E+00 -0.85391164976E+02  0.85391165014E+02  0.25500000000E-02 0. -1.
    5000001    1    1    2    0    0  0.45683965544E+02 -0.52660029811E+02  0.14898097190E+03  0.18161617063E+03  0.77000000000E+02 0.  0.
   -5000001    1    1    2    0    0 -0.45683965544E+02  0.52660029811E+02 -0.30024244277E+02  0.10812288699E+03  0.77000000000E+02 0.  0.
<mgrwt>
<rscale>  0 0.26419315E+03</rscale>
<asrwt>0</asrwt>
<pdfrwt beam="1">  1        2 0.29192556E-01 0.26419315E+03</pdfrwt>
<pdfrwt beam="2">  1       -2 0.12198738E-01 0.26419315E+03</pdfrwt>
<totfact> 0.86025483E+03</totfact>
</mgrwt>
</event>
<event>
 4    1  0.1330040E-003  0.2580757E+03  0.7818608E-02  0.1108305E+00
          2   -1    0    0  501    0  0.00000000000E+00  0.00000000000E+00  0.82000742862E+03  0.82000742862E+03  0.25500000000E-02 0.  1.
         -2   -1    0    0    0  501 -0.00000000000E+00 -0.00000000000E+00 -0.20305628816E+02  0.20305628976E+02  0.25500000000E-02 0. -1.
    5000001    1    1    2    0    0 -0.85644025724E+02  0.45104122973E+02  0.51959670486E+03  0.53411517181E+03  0.77000000000E+02 0.  0.
   -5000001    1    1    2    0    0  0.85644025724E+02 -0.45104122973E+02  0.28010509494E+03  0.30619788579E+03  0.77000000000E+02 0.  0.
<mgrwt>
<rscale>  0 0.25807570E+03</rscale>
<asrwt>0</asrwt>
<pdfrwt beam="1">  1        2 0.11714392E+00 0.25807570E+03</pdfrwt>
<pdfrwt beam="2">  1       -2 0.29008041E-02 0.25807570E+03</pdfrwt>
<totfact> 0.16698567E+04</totfact>
</mgrwt>
</event>
<event>
 4    1  0.1330040E-003  0.1832321E+03  0.7818608E-02  0.1164711E+00
         -2   -1    0    0    0  501 -0.00000000000E+00  0.00000000000E+00  0.27062622081E+01  0.27062634095E+01  0.25500000000E-02 0. -1.
          2   -1    0    0  501    0  0.00000000000E+00 -0.00000000000E+00 -0.31015100231E+04  0.31015100231E+04  0.25500000000E-02 0.  1.
    5000001    1    1    2    0    0 -0.45988323403E+02 -0.18673111823E+02 -0.15334172443E+04  0.15361513780E+04  0.77000000000E+02 0.  0.
   -5000001    1    1    2    0    0  0.45988323403E+02  0.18673111823E+02 -0.15653865165E+04  0.15680649085E+04  0.77000000000E+02 0.  0.
<mgrwt>
<rscale>  0 0.18323211E+03</rscale>
<asrwt>0</asrwt>
<pdfrwt beam="1">  1        2 0.44307058E+00 0.18323211E+03</pdfrwt>
<pdfrwt beam="2">  1       -2 0.38661096E-03 0.18323211E+03</pdfrwt>
<totfact> 0.20424128E+04</totfact>
</mgrwt>
</event>
<event>
 4    1  0.1330040E-003  0.2602117E+03  0.7818608E-02  0.1107016E+00
          2   -1    0    0  501    0  0.00000000000E+00  0.00000000000E+00  0.12116089872E+04  0.12116089873E+04  0.25500000000E-02 0.  1.
         -2   -1    0    0    0  501 -0.00000000000E+00 -0.00000000000E+00 -0.13971121610E+02  0.13971121843E+02  0.25500000000E-02 0. -1.
    5000001    1    1    2    0    0 -0.89693020641E+02 -0.41510681354E+02  0.76404044098E+03  0.77424464484E+03  0.77000000000E+02 0.  0.
   -5000001    1    1    2    0    0  0.89693020641E+02  0.41510681354E+02  0.43359742466E+03  0.45133546425E+03  0.77000000000E+02 0.  0.
<mgrwt>
<rscale>  0 0.26021173E+03</rscale>
<asrwt>0</asrwt>
<pdfrwt beam="1">  1        2 0.17308699E+00 0.26021173E+03</pdfrwt>
<pdfrwt beam="2">  1       -2 0.19958746E-02 0.26021173E+03</pdfrwt>
<totfact> 0.17052663E+04</totfact>
</mgrwt>
</event>
<event>
 4    1  0.1330040E-003  0.8395276E+03  0.7818608E-02  0.9504501E-01
         -2   -1    0    0    0  501 -0.00000000000E+00  0.00000000000E+00  0.20183766582E+04  0.20183766582E+04  0.25500000000E-02 0. -1.
          2   -1    0    0  501    0  0.00000000000E+00 -0.00000000000E+00 -0.87298698221E+02  0.87298698258E+02  0.25500000000E-02 0.  1.
    5000001    1    1    2    0    0 -0.19328426965E+03  0.36429577302E+03  0.10012251515E+04  0.10855648406E+04  0.77000000000E+02 0.  0.
   -5000001    1    1    2    0    0  0.19328426965E+03 -0.36429577302E+03  0.92985280841E+03  0.10201105158E+04  0.77000000000E+02 0.  0.
<mgrwt>
<rscale>  0 0.83952762E+03</rscale>
<asrwt>0</asrwt>
<pdfrwt beam="1">  1        2 0.12471243E-01 0.83952762E+03</pdfrwt>
<pdfrwt beam="2">  1       -2 0.28833951E+00 0.83952762E+03</pdfrwt>
<totfact> 0.19409861E+01</totfact>
</mgrwt>
</event>
<event>
 4    1  0.1330040E-003  0.3513069E+03  0.7818608E-02  0.1062080E+00
         -2   -1    0    0    0  501 -0.00000000000E+00  0.00000000000E+00  0.11448241886E+02  0.11448242170E+02  0.25500000000E-02 0. -1.
          2   -1    0    0  501    0  0.00000000000E+00 -0.00000000000E+00 -0.26950978800E+04  0.26950978800E+04  0.25500000000E-02 0.  1.
    5000001    1    1    2    0    0  0.10340996901E+03 -0.41265111251E+02 -0.22041713075E+04  0.22083243838E+04  0.77000000000E+02 0.  0.
   -5000001    1    1    2    0    0 -0.10340996901E+03  0.41265111251E+02 -0.47947833055E+03  0.49822173835E+03  0.77000000000E+02 0.  0.
<mgrwt>
<rscale>  0 0.35130689E+03</rscale>
<asrwt>0</asrwt>
<pdfrwt beam="1">  1        2 0.38501358E+00 0.35130689E+03</pdfrwt>
<pdfrwt beam="2">  1       -2 0.16354649E-02 0.35130689E+03</pdfrwt>
<totfact> 0.41413381E+03</totfact>
</mgrwt>
</event>
<event>
 4    1  0.1330040E-003  0.2241362E+03  0.7818608E-02  0.1130836E+00
         -2   -1    0    0    0  501 -0.00000000000E+00  0.00000000000E+00  0.20463101911E+02  0.20463102070E+02  0.25500000000E-02 0. -1.
          2   -1    0    0  501    0  0.00000000000E+00 -0.00000000000E+00 -0.61375158389E+03  0.61375158390E+03  0.25500000000E-02 0.  1.
    5000001    1    1    2    0    0 -0.76212090454E+02  0.18023053864E+02 -0.35973519951E+03  0.37612700909E+03  0.77000000000E+02 0.  0.
   -5000001    1    1    2    0    0  0.76212090454E+02 -0.18023053864E+02 -0.23355328247E+03  0.25808767687E+03  0.77000000000E+02 0.  0.
<mgrwt>
<rscale>  0 0.22413622E+03</rscale>
<asrwt>0</asrwt>
<pdfrwt beam="1">  1        2 0.87678786E-01 0.22413622E+03</pdfrwt>
<pdfrwt beam="2">  1       -2 0.29233007E-02 0.22413622E+03</pdfrwt>
<totfact> 0.23116362E+04</totfact>
</mgrwt>
</event>
<event>
 4    1  0.1330040E-003  0.1814734E+03  0.7818608E-02  0.1166385E+00
         -2   -1    0    0    0  501 -0.00000000000E+00  0.00000000000E+00  0.25511965707E+02  0.25511965834E+02  0.25500000000E-02 0. -1.
          2   -1    0    0  501    0  0.00000000000E+00 -0.00000000000E+00 -0.32271729740E+03  0.32271729741E+03  0.25500000000E-02 0.  1.
    5000001    1    1    2    0    0  0.22023779394E+02  0.32849622425E+02 -0.20080265587E+03  0.21866607226E+03  0.77000000000E+02 0.  0.
   -5000001    1    1    2    0    0 -0.22023779394E+02 -0.32849622425E+02 -0.96402675814E+02  0.12956319098E+03  0.77000000000E+02 0.  0.
<mgrwt>
<rscale>  0 0.18147344E+03</rscale>
<asrwt>0</asrwt>
<pdfrwt beam="1">  1        2 0.46102469E-01 0.18147344E+03</pdfrwt>
<pdfrwt beam="2">  1       -2 0.36445667E-02 0.18147344E+03</pdfrwt>
<totfact> 0.33033052E+04</totfact>
</mgrwt>
</event>
<event>
 4    1  0.1330040E-003  0.1845059E+03  0.7818608E-02  0.1163512E+00
         -2   -1    0    0    0  501 -0.00000000000E+00  0.00000000000E+00  0.85710753187E+01  0.85710756980E+01  0.25500000000E-02 0. -1.
          2   -1    0    0  501    0  0.00000000000E+00 -0.00000000000E+00 -0.99294531376E+03  0.99294531376E+03  0.25500000000E-02 0.  1.
    5000001    1    1    2    0    0  0.38303341562E+02 -0.26649306246E+02 -0.38304618492E+03  0.39348533808E+03  0.77000000000E+02 0.  0.
   -5000001    1    1    2    0    0 -0.38303341562E+02  0.26649306246E+02 -0.60132805352E+03  0.60803105138E+03  0.77000000000E+02 0.  0.
<mgrwt>
<rscale>  0 0.18450593E+03</rscale>
<asrwt>0</asrwt>
<pdfrwt beam="1">  1        2 0.14184926E+00 0.18450593E+03</pdfrwt>
<pdfrwt beam="2">  1       -2 0.12244400E-02 0.18450593E+03</pdfrwt>
<totfact> 0.45104718E+04</totfact>
</mgrwt>
</event>
<event>
 4    1  0.1330040E-003  0.3449896E+03  0.7818608E-02  0.1064690E+00
          2   -1    0    0  501    0  0.00000000000E+00  0.00000000000E+00  0.29387431475E+02  0.29387431585E+02  0.25500000000E-02 0.  1.
         -2   -1    0    0    0  501 -0.00000000000E+00 -0.00000000000E+00 -0.10124892731E+04  0.10124892731E+04  0.25500000000E-02 0. -1.
    5000001    1    1    2    0    0 -0.32384423702E+02 -0.14883920126E+03 -0.56696692456E+03  0.59209995126E+03  0.77000000000E+02 0.  0.
   -5000001    1    1    2    0    0  0.32384423702E+02  0.14883920126E+03 -0.41613491705E+03  0.44977675342E+03  0.77000000000E+02 0.  0.
<mgrwt>
<rscale>  0 0.34498962E+03</rscale>
<asrwt>0</asrwt>
<pdfrwt beam="1">  1        2 0.41982051E-02 0.34498962E+03</pdfrwt>
<pdfrwt beam="2">  1       -2 0.14464130E+00 0.34498962E+03</pdfrwt>
<totfact> 0.69557870E+02</totfact>
</mgrwt>
</event>
<event>
 4    1  0.1330040E-003  0.4294244E+03  0.7818608E-02  0.1034042E+00
          2   -1    0    0  501    0  0.00000000000E+00  0.00000000000E+00  0.13580795456E+04  0.13580795456E+04  0.25500000000E-02 0.  1.
         -2   -1    0    0    0  501 -0.00000000000E+00 -0.00000000000E+00 -0.33945969266E+02  0.33945969362E+02  0.25500000000E-02 0. -1.
    5000001    1    1    2    0    0  0.10065687117E+03  0.13365463480E+03  0.30435774551E+03  0.35574991830E+03  0.77000000000E+02 0.  0.
   -5000001    1    1    2    0    0 -0.10065687117E+03 -0.13365463480E+03  0.10197758308E+04  0.10362755966E+04  0.77000000000E+02 0.  0.
<mgrwt>
<rscale>  0 0.42942439E+03</rscale>
<asrwt>0</asrwt>
<pdfrwt beam="1">  1        2 0.19401138E+00 0.42942439E+03</pdfrwt>
<pdfrwt beam="2">  1       -2 0.48494237E-02 0.42942439E+03</pdfrwt>
<totfact> 0.37982755E+03</totfact>
</mgrwt>
</event>
<event>
 4    1  0.1330040E-003  0.3117091E+03  0.7818608E-02  0.1079530E+00
          2   -1    0    0  501    0  0.00000000000E+00  0.00000000000E+00  0.36116761175E+02  0.36116761265E+02  0.25500000000E-02 0.  1.
         -2   -1    0    0    0  501 -0.00000000000E+00 -0.00000000000E+00 -0.67255869266E+03  0.67255869267E+03  0.25500000000E-02 0. -1.
    5000001    1    1    2    0    0  0.12139023828E+03  0.57800376084E+02 -0.35661365327E+03  0.38881714356E+03  0.77000000000E+02 0.  0.
   -5000001    1    1    2    0    0 -0.12139023828E+03 -0.57800376084E+02 -0.27982827822E+03  0.31985831038E+03  0.77000000000E+02 0.  0.
<mgrwt>
<rscale>  0 0.31170911E+03</rscale>
<asrwt>0</asrwt>
<pdfrwt beam="1">  1        2 0.51595377E-02 0.31170911E+03</pdfrwt>
<pdfrwt beam="2">  1       -2 0.96079806E-01 0.31170911E+03</pdfrwt>
<totfact> 0.14241718E+03</totfact>
</mgrwt>
</event>
<event>
 4    1  0.1330040E-003  0.8690870E+03  0.7818608E-02  0.9465071E-01
         -2   -1    0    0    0  501 -0.00000000000E+00  0.00000000000E+00  0.16541670971E+03  0.16541670973E+03  0.25500000000E-02 0. -1.
          2   -1    0    0  501    0  0.00000000000E+00 -0.00000000000E+00 -0.11415293910E+04  0.11415293910E+04  0.25500000000E-02 0.  1.
    5000001    1    1    2    0    0  0.35911927614E+03  0.18355273538E+03 -0.70200423163E+03  0.81326330447E+03  0.77000000000E+02 0.  0.
   -5000001    1    1    2    0    0 -0.35911927614E+03 -0.18355273538E+03 -0.27410844965E+03  0.49368279627E+03  0.77000000000E+02 0.  0.
<mgrwt>
<rscale>  0 0.86908696E+03</rscale>
<asrwt>0</asrwt>
<pdfrwt beam="1">  1        2 0.16307562E+00 0.86908696E+03</pdfrwt>
<pdfrwt beam="2">  1       -2 0.23630959E-01 0.86908696E+03</pdfrwt>
<totfact> 0.36683983E+02</totfact>
</mgrwt>
</event>
<event>
 4    1  0.1330040E-003  0.3061401E+03  0.7818608E-02  0.1082211E+00
         -2   -1    0    0    0  501 -0.00000000000E+00  0.00000000000E+00  0.62416834549E+02  0.62416834601E+02  0.25500000000E-02 0. -1.
          2   -1    0    0  501    0  0.00000000000E+00 -0.00000000000E+00 -0.37538665848E+03  0.37538665848E+03  0.25500000000E-02 0.  1.
    5000001    1    1    2    0    0  0.71227151071E+02 -0.82860425666E+02 -0.49828800677E+02  0.14265716445E+03  0.77000000000E+02 0.  0.
   -5000001    1    1    2    0    0 -0.71227151071E+02  0.82860425666E+02 -0.26314102325E+03  0.29514632864E+03  0.77000000000E+02 0.  0.
<mgrwt>
<rscale>  0 0.30614014E+03</rscale>
<asrwt>0</asrwt>
<pdfrwt beam="1">  1        2 0.53626664E-01 0.30614014E+03</pdfrwt>
<pdfrwt beam="2">  1       -2 0.89166909E-02 0.30614014E+03</pdfrwt>
<totfact> 0.73829924E+03</totfact>
</mgrwt>
</event>
<event>
 4    1  0.1330040E-003  0.1861769E+03  0.7818608E-02  0.1161955E+00
         -2   -1    0    0    0  501 -0.00000000000E+00  0.00000000000E+00  0.88355071726E+01  0.88355075406E+01  0.25500000000E-02 0. -1.
          2   -1    0    0  501    0  0.00000000000E+00 -0.00000000000E+00 -0.98075438113E+03  0.98075438114E+03  0.25500000000E-02 0.  1.
    5000001    1    1    2    0    0 -0.31737838680E+02  0.94409300276E+01 -0.27070271134E+03  0.28338203806E+03  0.77000000000E+02 0.  0.
   -5000001    1    1    2    0    0  0.31737838680E+02 -0.94409300276E+01 -0.70121616262E+03  0.70620785062E+03  0.77000000000E+02 0.  0.
<mgrwt>
<rscale>  0 0.18617693E+03</rscale>
<asrwt>0</asrwt>
<pdfrwt beam="1">  1        2 0.14010770E+00 0.18617693E+03</pdfrwt>
<pdfrwt beam="2">  1       -2 0.12622160E-02 0.18617693E+03</pdfrwt>
<totfact> 0.43916228E+04</totfact>
</mgrwt>
</event>
<event>
 4    1  0.1330040E-003  0.2465298E+03  0.7818608E-02  0.1115518E+00
         -2   -1    0    0    0  501 -0.00000000000E+00  0.00000000000E+00  0.64019813923E+01  0.64019819002E+01  0.25500000000E-02 0. -1.
          2   -1    0    0  501    0  0.00000000000E+00 -0.00000000000E+00 -0.23733641631E+04  0.23733641631E+04  0.25500000000E-02 0.  1.
    5000001    1    1    2    0    0 -0.93277506620E+02  0.21329787596E+02 -0.10824320982E+04  0.10893777583E+04  0.77000000000E+02 0.  0.
   -5000001    1    1    2    0    0  0.93277506620E+02 -0.21329787596E+02 -0.12845300835E+04  0.12903883866E+04  0.77000000000E+02 0.  0.
<mgrwt>
<rscale>  0 0.24652979E+03</rscale>
<asrwt>0</asrwt>
<pdfrwt beam="1">  1        2 0.33905146E+00 0.24652979E+03</pdfrwt>
<pdfrwt beam="2">  1       -2 0.91457032E-03 0.24652979E+03</pdfrwt>
<totfact> 0.14036254E+04</totfact>
</mgrwt>
</event>
<event>
 4    1  0.1330040E-003  0.3979072E+03  0.7818608E-02  0.1044507E+00
          2   -1    0    0  501    0  0.00000000000E+00  0.00000000000E+00  0.79683102788E+03  0.79683102788E+03  0.25500000000E-02 0.  1.
         -2   -1    0    0    0  501 -0.00000000000E+00 -0.00000000000E+00 -0.49674938326E+02  0.49674938392E+02  0.25500000000E-02 0. -1.
    5000001    1    1    2    0    0 -0.17165851107E+03  0.61119515537E+02  0.32838440248E+03  0.38336347687E+03  0.77000000000E+02 0.  0.
   -5000001    1    1    2    0    0  0.17165851107E+03 -0.61119515537E+02  0.41877168707E+03  0.46314248940E+03  0.77000000000E+02 0.  0.
<mgrwt>
<rscale>  0 0.39790719E+03</rscale>
<asrwt>0</asrwt>
<pdfrwt beam="1">  1        2 0.11383301E+00 0.39790719E+03</pdfrwt>
<pdfrwt beam="2">  1       -2 0.70964194E-02 0.39790719E+03</pdfrwt>
<totfact> 0.44973464E+03</totfact>
</mgrwt>
</event>
<event>
 4    1  0.1330040E-003  0.2842986E+03  0.7818608E-02  0.1093364E+00
          2   -1    0    0  501    0  0.00000000000E+00  0.00000000000E+00  0.11730351671E+04  0.11730351671E+04  0.25500000000E-02 0.  1.
         -2   -1    0    0    0  501 -0.00000000000E+00 -0.00000000000E+00 -0.17225762431E+02  0.17225762620E+02  0.25500000000E-02 0. -1.
    5000001    1    1    2    0    0  0.11686564021E+03 -0.13895910501E+02  0.66439247856E+03  0.67911489438E+03  0.77000000000E+02 0.  0.
   -5000001    1    1    2    0    0 -0.11686564021E+03  0.13895910501E+02  0.49141692613E+03  0.51114603537E+03  0.77000000000E+02 0.  0.
<mgrwt>
<rscale>  0 0.28429861E+03</rscale>
<asrwt>0</asrwt>
<pdfrwt beam="1">  1        2 0.16757648E+00 0.28429861E+03</pdfrwt>
<pdfrwt beam="2">  1       -2 0.24608228E-02 0.28429861E+03</pdfrwt>
<totfact> 0.13183627E+04</totfact>
</mgrwt>
</event>
<event>
 4    1  0.1330040E-003  0.2143745E+03  0.7818608E-02  0.1138148E+00
         -2   -1    0    0    0  501 -0.00000000000E+00  0.00000000000E+00  0.41738675552E+01  0.41738683341E+01  0.25500000000E-02 0. -1.
          2   -1    0    0  501    0  0.00000000000E+00 -0.00000000000E+00 -0.27526271642E+04  0.27526271642E+04  0.25500000000E-02 0.  1.
    5000001    1    1    2    0    0 -0.54569004861E+02  0.72776627314E+01 -0.72747455748E+03  0.73360682415E+03  0.77000000000E+02 0.  0.
   -5000001    1    1    2    0    0  0.54569004861E+02 -0.72776627314E+01 -0.20209787391E+04  0.20231942083E+04  0.77000000000E+02 0.  0.
<mgrwt>
<rscale>  0 0.21437446E+03</rscale>
<asrwt>0</asrwt>
<pdfrwt beam="1">  1        2 0.39323129E+00 0.21437446E+03</pdfrwt>
<pdfrwt beam="2">  1       -2 0.59626861E-03 0.21437446E+03</pdfrwt>
<totfact> 0.16756818E+04</totfact>
</mgrwt>
</event>
<event>
 4    1  0.1330040E-003  0.2537379E+03  0.7818608E-02  0.1110965E+00
         -2   -1    0    0    0  501 -0.00000000000E+00  0.00000000000E+00  0.15924369863E+02  0.15924370067E+02  0.25500000000E-02 0. -1.
          2   -1    0    0  501    0  0.00000000000E+00 -0.00000000000E+00 -0.10107606812E+04  0.10107606812E+04  0.25500000000E-02 0.  1.
    5000001    1    1    2    0    0  0.79182098278E+02 -0.61690320167E+02 -0.45877140030E+03  0.47589462912E+03  0.77000000000E+02 0.  0.
   -5000001    1    1    2    0    0 -0.79182098278E+02  0.61690320167E+02 -0.53606491106E+03  0.55079042218E+03  0.77000000000E+02 0.  0.
<mgrwt>
<rscale>  0 0.25373787E+03</rscale>
<asrwt>0</asrwt>
<pdfrwt beam="1">  1        2 0.14439434E+00 0.25373787E+03</pdfrwt>
<pdfrwt beam="2">  1       -2 0.22749106E-02 0.25373787E+03</pdfrwt>
<totfact> 0.18208230E+04</totfact>
</mgrwt>
</event>
<event>
 4    1  0.1330040E-003  0.1828322E+03  0.7818608E-02  0.1165090E+00
         -2   -1    0    0    0  501 -0.00000000000E+00  0.00000000000E+00  0.65935317810E+01  0.65935322740E+01  0.25500000000E-02 0. -1.
          2   -1    0    0  501    0  0.00000000000E+00 -0.00000000000E+00 -0.12674401090E+04  0.12674401090E+04  0.25500000000E-02 0.  1.
    5000001    1    1    2    0    0 -0.21578897400E+02 -0.18796399525E+02 -0.90993490658E+03  0.91363531437E+03  0.77000000000E+02 0.  0.
   -5000001    1    1    2    0    0  0.21578897400E+02  0.18796399525E+02 -0.35091167067E+03  0.36039832694E+03  0.77000000000E+02 0.  0.
<mgrwt>
<rscale>  0 0.18283224E+03</rscale>
<asrwt>0</asrwt>
<pdfrwt beam="1">  1        2 0.18106272E+00 0.18283224E+03</pdfrwt>
<pdfrwt beam="2">  1       -2 0.94193396E-03 0.18283224E+03</pdfrwt>
<totfact> 0.46444688E+04</totfact>
</mgrwt>
</event>
<event>
 4    1  0.1330040E-003  0.3907161E+03  0.7818608E-02  0.1047043E+00
         -2   -1    0    0    0  501 -0.00000000000E+00  0.00000000000E+00  0.12368537707E+03  0.12368537710E+03  0.25500000000E-02 0. -1.
          2   -1    0    0  501    0  0.00000000000E+00 -0.00000000000E+00 -0.30856335801E+03  0.30856335802E+03  0.25500000000E-02 0.  1.
    5000001    1    1    2    0    0  0.16647586077E+03  0.62447593254E+02 -0.12002691955E+03  0.22792405652E+03  0.77000000000E+02 0.  0.
   -5000001    1    1    2    0    0 -0.16647586077E+03 -0.62447593254E+02 -0.64851061387E+02  0.20432467860E+03  0.77000000000E+02 0.  0.
<mgrwt>
<rscale>  0 0.39071614E+03</rscale>
<asrwt>0</asrwt>
<pdfrwt beam="1">  1        2 0.44080480E-01 0.39071614E+03</pdfrwt>
<pdfrwt beam="2">  1       -2 0.17669340E-01 0.39071614E+03</pdfrwt>
<totfact> 0.30071219E+03</totfact>
</mgrwt>
</event>
<event>
 4    1  0.1330040E-003  0.1862975E+03  0.7818608E-02  0.1161844E+00
          2   -1    0    0  501    0  0.00000000000E+00  0.00000000000E+00  0.30772518749E+02  0.30772518855E+02  0.25500000000E-02 0.  1.
         -2   -1    0    0    0  501 -0.00000000000E+00 -0.00000000000E+00 -0.28196232308E+03  0.28196232309E+03  0.25500000000E-02 0. -1.
    5000001    1    1    2    0    0 -0.10210173316E+02 -0.33727733698E+02 -0.60452336557E+02  0.10404466663E+03  0.77000000000E+02 0.  0.
   -5000001    1    1    2    0    0  0.10210173316E+02  0.33727733698E+02 -0.19073746777E+03  0.20869017531E+03  0.77000000000E+02 0.  0.
<mgrwt>
<rscale>  0 0.18629751E+03</rscale>
<asrwt>0</asrwt>
<pdfrwt beam="1">  1        2 0.43960743E-02 0.18629751E+03</pdfrwt>
<pdfrwt beam="2">  1       -2 0.40280330E-01 0.18629751E+03</pdfrwt>
<totfact> 0.10573157E+04</totfact>
</mgrwt>
</event>
<event>
 4    1  0.1330040E-003  0.1597633E+03  0.7818608E-02  0.1188964E+00
          2   -1    0    0  501    0  0.00000000000E+00  0.00000000000E+00  0.58299622060E+03  0.58299622060E+03  0.25500000000E-02 0.  1.
         -2   -1    0    0    0  501 -0.00000000000E+00 -0.00000000000E+00 -0.10945321731E+02  0.10945322028E+02  0.25500000000E-02 0. -1.
    5000001    1    1    2    0    0  0.11145749990E+01  0.20589704176E+02  0.30530814325E+03  0.31554277132E+03  0.77000000000E+02 0.  0.
   -5000001    1    1    2    0    0 -0.11145749990E+01 -0.20589704176E+02  0.26674275562E+03  0.27839877131E+03  0.77000000000E+02 0.  0.
<mgrwt>
<rscale>  0 0.15976334E+03</rscale>
<asrwt>0</asrwt>
<pdfrwt beam="1">  1        2 0.83285179E-01 0.15976334E+03</pdfrwt>
<pdfrwt beam="2">  1       -2 0.15636173E-02 0.15976334E+03</pdfrwt>
<totfact> 0.59494205E+04</totfact>
</mgrwt>
</event>
<event>
 4    1  0.1330040E-003  0.3674785E+03  0.7818608E-02  0.1055661E+00
          2   -1    0    0  501    0  0.00000000000E+00  0.00000000000E+00  0.19491309015E+04  0.19491309015E+04  0.25500000000E-02 0.  1.
         -2   -1    0    0    0  501 -0.00000000000E+00 -0.00000000000E+00 -0.17320597229E+02  0.17320597416E+02  0.25500000000E-02 0. -1.
    5000001    1    1    2    0    0 -0.11012253060E+03 -0.58020855445E+02  0.37151888924E+03  0.39931025091E+03  0.77000000000E+02 0.  0.
   -5000001    1    1    2    0    0  0.11012253060E+03  0.58020855445E+02  0.15602914150E+04  0.15671412480E+04  0.77000000000E+02 0.  0.
<mgrwt>
<rscale>  0 0.36747850E+03</rscale>
<asrwt>0</asrwt>
<pdfrwt beam="1">  1        2 0.27844716E+00 0.36747850E+03</pdfrwt>
<pdfrwt beam="2">  1       -2 0.24743720E-02 0.36747850E+03</pdfrwt>
<totfact> 0.52818752E+03</totfact>
</mgrwt>
</event>
<event>
 4    1  0.1330040E-003  0.6525731E+03  0.7818608E-02  0.9801963E-01
         -2   -1    0    0    0  501 -0.00000000000E+00  0.00000000000E+00  0.87091363221E+02  0.87091363258E+02  0.25500000000E-02 0. -1.
          2   -1    0    0  501    0  0.00000000000E+00 -0.00000000000E+00 -0.12224277368E+04  0.12224277368E+04  0.25500000000E-02 0.  1.
    5000001    1    1    2    0    0 -0.80626155322E+02 -0.25549361870E+03 -0.90795838803E+03  0.94978681846E+03  0.77000000000E+02 0.  0.
   -5000001    1    1    2    0    0  0.80626155322E+02  0.25549361870E+03 -0.22737798556E+03  0.35973228162E+03  0.77000000000E+02 0.  0.
<mgrwt>
<rscale>  0 0.65257306E+03</rscale>
<asrwt>0</asrwt>
<pdfrwt beam="1">  1        2 0.17463252E+00 0.65257306E+03</pdfrwt>
<pdfrwt beam="2">  1       -2 0.12441624E-01 0.65257306E+03</pdfrwt>
<totfact> 0.10026035E+03</totfact>
</mgrwt>
</event>
<event>
 4    1  0.1330040E-003  0.2028534E+03  0.7818608E-02  0.1147354E+00
          2   -1    0    0  501    0  0.00000000000E+00  0.00000000000E+00  0.36512279148E+03  0.36512279149E+03  0.25500000000E-02 0.  1.
         -2   -1    0    0    0  501 -0.00000000000E+00 -0.00000000000E+00 -0.28175110447E+02  0.28175110562E+02  0.25500000000E-02 0. -1.
    5000001    1    1    2    0    0 -0.50888373654E+02  0.41323374281E+02  0.15331533176E+03  0.18366229550E+03  0.77000000000E+02 0.  0.
   -5000001    1    1    2    0    0  0.50888373654E+02 -0.41323374281E+02  0.18363234928E+03  0.20963560656E+03  0.77000000000E+02 0.  0.
<mgrwt>
<rscale>  0 0.20285340E+03</rscale>
<asrwt>0</asrwt>
<pdfrwt beam="1">  1        2 0.52160401E-01 0.20285340E+03</pdfrwt>
<pdfrwt beam="2">  1       -2 0.40250157E-02 0.20285340E+03</pdfrwt>
<totfact> 0.25196711E+04</totfact>
</mgrwt>
</event>
<event>
 4    1  0.1330040E-003  0.4137472E+03  0.7818608E-02  0.1039121E+00
          2   -1    0    0  501    0  0.00000000000E+00  0.00000000000E+00  0.95864154962E+03  0.95864154963E+03  0.25500000000E-02 0.  1.
         -2   -1    0    0    0  501 -0.00000000000E+00 -0.00000000000E+00 -0.44643045809E+02  0.44643045882E+02  0.25500000000E-02 0. -1.
    5000001    1    1    2    0    0 -0.77384175236E+02  0.17552415074E+03  0.47737981842E+03  0.52020912055E+03  0.77000000000E+02 0.  0.
   -5000001    1    1    2    0    0  0.77384175236E+02 -0.17552415074E+03  0.43661868540E+03  0.48307547496E+03  0.77000000000E+02 0.  0.
<mgrwt>
<rscale>  0 0.41374716E+03</rscale>
<asrwt>0</asrwt>
<pdfrwt beam="1">  1        2 0.13694878E+00 0.41374716E+03</pdfrwt>
<pdfrwt beam="2">  1       -2 0.63775784E-02 0.41374716E+03</pdfrwt>
<totfact> 0.41781534E+03</totfact>
</mgrwt>
</event>
<event>
 4    1  0.1330040E-003  0.2745632E+03  0.7818608E-02  0.1098696E+00
          2   -1    0    0  501    0  0.00000000000E+00  0.00000000000E+00  0.25787586052E+03  0.25787586054E+03  0.25500000000E-02 0.  1.
         -2   -1    0    0    0  501 -0.00000000000E+00 -0.00000000000E+00 -0.73082618186E+02  0.73082618231E+02  0.25500000000E-02 0. -1.
    5000001    1    1    2    0    0 -0.60409650211E+02 -0.93925535131E+02  0.11785057498E+03  0.17969165259E+03  0.77000000000E+02 0.  0.
   -5000001    1    1    2    0    0  0.60409650211E+02  0.93925535131E+02  0.66942667359E+02  0.15126682618E+03  0.77000000000E+02 0.  0.
<mgrwt>
<rscale>  0 0.27456324E+03</rscale>
<asrwt>0</asrwt>
<pdfrwt beam="1">  1        2 0.36839409E-01 0.27456324E+03</pdfrwt>
<pdfrwt beam="2">  1       -2 0.10440374E-01 0.27456324E+03</pdfrwt>
<totfact> 0.85846072E+03</totfact>
</mgrwt>
</event>
<event>
 4    1  0.1330040E-003  0.2172751E+03  0.7818608E-02  0.1135931E+00
         -2   -1    0    0    0  501 -0.00000000000E+00  0.00000000000E+00  0.50694641383E+01  0.50694647797E+01  0.25500000000E-02 0. -1.
          2   -1    0    0  501    0  0.00000000000E+00 -0.00000000000E+00 -0.23280805181E+04  0.23280805181E+04  0.25500000000E-02 0.  1.
    5000001    1    1    2    0    0 -0.28328557206E+02  0.69722806711E+02 -0.13168741866E+04  0.13212684815E+04  0.77000000000E+02 0.  0.
   -5000001    1    1    2    0    0  0.28328557206E+02 -0.69722806711E+02 -0.10061368674E+04  0.10118815014E+04  0.77000000000E+02 0.  0.
<mgrwt>
<rscale>  0 0.21727514E+03</rscale>
<asrwt>0</asrwt>
<pdfrwt beam="1">  1        2 0.33258225E+00 0.21727514E+03</pdfrwt>
<pdfrwt beam="2">  1       -2 0.72421070E-03 0.21727514E+03</pdfrwt>
<totfact> 0.20616054E+04</totfact>
</mgrwt>
</event>
<event>
 4    1  0.1330040E-003  0.2946256E+03  0.7818608E-02  0.1087959E+00
          2   -1    0    0  501    0  0.00000000000E+00  0.00000000000E+00  0.10897460581E+04  0.10897460581E+04  0.25500000000E-02 0.  1.
         -2   -1    0    0    0  501 -0.00000000000E+00 -0.00000000000E+00 -0.19913865086E+02  0.19913865249E+02  0.25500000000E-02 0. -1.
    5000001    1    1    2    0    0 -0.51926301275E+02  0.87660908718E+02  0.25837133853E+03  0.28821090239E+03  0.77000000000E+02 0.  0.
   -5000001    1    1    2    0    0  0.51926301275E+02 -0.87660908718E+02  0.81146085445E+03  0.82144902093E+03  0.77000000000E+02 0.  0.
<mgrwt>
<rscale>  0 0.29462557E+03</rscale>
<asrwt>0</asrwt>
<pdfrwt beam="1">  1        2 0.15567798E+00 0.29462557E+03</pdfrwt>
<pdfrwt beam="2">  1       -2 0.28448383E-02 0.29462557E+03</pdfrwt>
<totfact> 0.11843566E+04</totfact>
</mgrwt>
</event>
<event>
 4    1  0.1330040E-003  0.5066648E+03  0.7818608E-02  0.1012054E+00
         -2   -1    0    0    0  501 -0.00000000000E+00  0.00000000000E+00  0.40706255886E+02  0.40706255966E+02  0.25500000000E-02 0. -1.
          2   -1    0    0  501    0  0.00000000000E+00 -0.00000000000E+00 -0.15765955946E+04  0.15765955946E+04  0.25500000000E-02 0.  1.
    5000001    1    1    2    0    0  0.69962573391E+02  0.23006603905E+03 -0.83360794426E+03  0.87100881094E+03  0.77000000000E+02 0.  0.
   -5000001    1    1    2    0    0 -0.69962573391E+02 -0.23006603905E+03 -0.70228139441E+03  0.74629303959E+03  0.77000000000E+02 0.  0.
<mgrwt>
<rscale>  0 0.50666480E+03</rscale>
<asrwt>0</asrwt>
<pdfrwt beam="1">  1        2 0.22522790E+00 0.50666480E+03</pdfrwt>
<pdfrwt beam="2">  1       -2 0.58151804E-02 0.50666480E+03</pdfrwt>
<totfact> 0.22063128E+03</totfact>
</mgrwt>
</event>
<event>
 4    1  0.1330040E-003  0.2671536E+03  0.7818608E-02  0.1102920E+00
         -2   -1    0    0    0  501 -0.00000000000E+00  0.00000000000E+00  0.13212496409E+02  0.13212496655E+02  0.25500000000E-02 0. -1.
          2   -1    0    0  501    0  0.00000000000E+00 -0.00000000000E+00 -0.13504458827E+04  0.13504458827E+04  0.25500000000E-02 0.  1.
    5000001    1    1    2    0    0 -0.42330581361E+02 -0.90712057520E+02 -0.44651928235E+03  0.46403558593E+03  0.77000000000E+02 0.  0.
   -5000001    1    1    2    0    0  0.42330581361E+02  0.90712057520E+02 -0.89071410398E+03  0.89962279347E+03  0.77000000000E+02 0.  0.
<mgrwt>
<rscale>  0 0.26715360E+03</rscale>
<asrwt>0</asrwt>
<pdfrwt beam="1">  1        2 0.19292075E+00 0.26715360E+03</pdfrwt>
<pdfrwt beam="2">  1       -2 0.18875004E-02 0.26715360E+03</pdfrwt>
<totfact> 0.15645617E+04</totfact>
</mgrwt>
</event>
<event>
 4    1  0.1330040E-003  0.2441790E+03  0.7818608E-02  0.1117040E+00
          2   -1    0    0  501    0  0.00000000000E+00  0.00000000000E+00  0.73631820891E+03  0.73631820892E+03  0.25500000000E-02 0.  1.
         -2   -1    0    0    0  501 -0.00000000000E+00 -0.00000000000E+00 -0.20243756778E+02  0.20243756938E+02  0.25500000000E-02 0. -1.
    5000001    1    1    2    0    0 -0.55664113749E+02 -0.53115509233E+02  0.52935038154E+03  0.54042629222E+03  0.77000000000E+02 0.  0.
   -5000001    1    1    2    0    0  0.55664113749E+02  0.53115509233E+02  0.18672407059E+03  0.21613567364E+03  0.77000000000E+02 0.  0.
<mgrwt>
<rscale>  0 0.24417901E+03</rscale>
<asrwt>0</asrwt>
<pdfrwt beam="1">  1        2 0.10518830E+00 0.24417901E+03</pdfrwt>
<pdfrwt beam="2">  1       -2 0.28919656E-02 0.24417901E+03</pdfrwt>
<totfact> 0.19081487E+04</totfact>
</mgrwt>
</event>
<event>
 4    1  0.1330040E-003  0.3262861E+03  0.7818608E-02  0.1072792E+00
         -2   -1    0    0    0  501 -0.00000000000E+00  0.00000000000E+00  0.26671239924E+02  0.26671240046E+02  0.25500000000E-02 0. -1.
          2   -1    0    0  501    0  0.00000000000E+00 -0.00000000000E+00 -0.99791589971E+03  0.99791589971E+03  0.25500000000E-02 0.  1.
    5000001    1    1    2    0    0  0.75538685818E+02  0.80297466247E+02 -0.19555547499E+03  0.23732829570E+03  0.77000000000E+02 0.  0.
   -5000001    1    1    2    0    0 -0.75538685818E+02 -0.80297466247E+02 -0.77568918479E+03  0.78725884406E+03  0.77000000000E+02 0.  0.
<mgrwt>
<rscale>  0 0.32628610E+03</rscale>
<asrwt>0</asrwt>
<pdfrwt beam="1">  1        2 0.14255939E+00 0.32628610E+03</pdfrwt>
<pdfrwt beam="2">  1       -2 0.38101778E-02 0.32628610E+03</pdfrwt>
<totfact> 0.86687875E+03</totfact>
</mgrwt>
</event>
<event>
 4    1  0.1330040E-003  0.3227850E+03  0.7818608E-02  0.1074375E+00
         -2   -1    0    0    0  501 -0.00000000000E+00  0.00000000000E+00  0.51164931793E+02  0.51164931857E+02  0.25500000000E-02 0. -1.
          2   -1    0    0  501    0  0.00000000000E+00 -0.00000000000E+00 -0.50908954834E+03  0.50908954834E+03  0.25500000000E-02 0.  1.
    5000001    1    1    2    0    0  0.78005456302E+02  0.21847063966E+02 -0.26872679955E+02  0.11494905978E+03  0.77000000000E+02 0.  0.
   -5000001    1    1    2    0    0 -0.78005456302E+02 -0.21847063966E+02 -0.43105193659E+03  0.44530542042E+03  0.77000000000E+02 0.  0.
<mgrwt>
<rscale>  0 0.32278496E+03</rscale>
<asrwt>0</asrwt>
<pdfrwt beam="1">  1        2 0.72727075E-01 0.32278496E+03</pdfrwt>
<pdfrwt beam="2">  1       -2 0.73092763E-02 0.32278496E+03</pdfrwt>
<totfact> 0.72349161E+03</totfact>
</mgrwt>
</event>
<event>
 4    1  0.1330040E-003  0.2674096E+03  0.7818608E-02  0.1102771E+00
          2   -1    0    0  501    0  0.00000000000E+00  0.00000000000E+00  0.41155681426E+02  0.41155681505E+02  0.25500000000E-02 0.  1.
         -2   -1    0    0    0  501 -0.00000000000E+00 -0.00000000000E+00 -0.43437435767E+03  0.43437435768E+03  0.25500000000E-02 0. -1.
    5000001    1    1    2    0    0 -0.89578991536E+02 -0.34233548689E+02 -0.10332754881E+03  0.16062974172E+03  0.77000000000E+02 0.  0.
   -5000001    1    1    2    0    0  0.89578991536E+02  0.34233548689E+02 -0.28989112743E+03  0.31490029747E+03  0.77000000000E+02 0.  0.
<mgrwt>
<rscale>  0 0.26740959E+03</rscale>
<asrwt>0</asrwt>
<pdfrwt beam="1">  1        2 0.58793833E-02 0.26740959E+03</pdfrwt>
<pdfrwt beam="2">  1       -2 0.62053477E-01 0.26740959E+03</pdfrwt>
<totfact> 0.31130574E+03</totfact>
</mgrwt>
</event>
<event>
 4    1  0.1330040E-003  0.4010182E+03  0.7818608E-02  0.1043428E+00
          2   -1    0    0  501    0  0.00000000000E+00  0.00000000000E+00  0.35312291827E+03  0.35312291828E+03  0.25500000000E-02 0.  1.
         -2   -1    0    0    0  501 -0.00000000000E+00 -0.00000000000E+00 -0.11385244578E+03  0.11385244581E+03  0.25500000000E-02 0. -1.
    5000001    1    1    2    0    0  0.15205729144E+02  0.17946677620E+03  0.69747746841E+02  0.20792615551E+03  0.77000000000E+02 0.  0.
   -5000001    1    1    2    0    0 -0.15205729144E+02 -0.17946677620E+03  0.16952272565E+03  0.25904920858E+03  0.77000000000E+02 0.  0.
<mgrwt>
<rscale>  0 0.40101824E+03</rscale>
<asrwt>0</asrwt>
<pdfrwt beam="1">  1        2 0.50446132E-01 0.40101824E+03</pdfrwt>
<pdfrwt beam="2">  1       -2 0.16264635E-01 0.40101824E+03</pdfrwt>
<totfact> 0.29876224E+03</totfact>
</mgrwt>
</event>
<event>
 4    1  0.1330040E-003  0.2303748E+03  0.7818608E-02  0.1126376E+00
         -2   -1    0    0    0  501 -0.00000000000E+00  0.00000000000E+00  0.21679436542E+02  0.21679436692E+02  0.25500000000E-02 0. -1.
          2   -1    0    0  501    0  0.00000000000E+00 -0.00000000000E+00 -0.61201478330E+03  0.61201478331E+03  0.25500000000E-02 0.  1.
    5000001    1    1    2    0    0 -0.69293306555E+02 -0.39917442031E+02 -0.37968975243E+03  0.39558598637E+03  0.77000000000E+02 0.  0.
   -5000001    1    1    2    0    0  0.69293306555E+02  0.39917442031E+02 -0.21064559432E+03  0.23810823362E+03  0.77000000000E+02 0.  0.
<mgrwt>
<rscale>  0 0.23037479E+03</rscale>
<asrwt>0</asrwt>
<pdfrwt beam="1">  1        2 0.87430673E-01 0.23037479E+03</pdfrwt>
<pdfrwt beam="2">  1       -2 0.30970628E-02 0.23037479E+03</pdfrwt>
<totfact> 0.21325086E+04</totfact>
</mgrwt>
</event>
<event>
 4    1  0.1330040E-003  0.3158502E+03  0.7818608E-02  0.1077575E+00
          2   -1    0    0  501    0  0.00000000000E+00  0.00000000000E+00  0.60393928873E+03  0.60393928874E+03  0.25500000000E-02 0.  1.
         -2   -1    0    0    0  501 -0.00000000000E+00 -0.00000000000E+00 -0.41296110920E+02  0.41296110998E+02  0.25500000000E-02 0. -1.
    5000001    1    1    2    0    0 -0.46098235514E+02 -0.12237782195E+03  0.37060066883E+03  0.40046876827E+03  0.77000000000E+02 0.  0.
   -5000001    1    1    2    0    0  0.46098235514E+02  0.12237782195E+03  0.19204250898E+03  0.24476663146E+03  0.77000000000E+02 0.  0.
<mgrwt>
<rscale>  0 0.31585024E+03</rscale>
<asrwt>0</asrwt>
<pdfrwt beam="1">  1        2 0.86277035E-01 0.31585024E+03</pdfrwt>
<pdfrwt beam="2">  1       -2 0.58994449E-02 0.31585024E+03</pdfrwt>
<totfact> 0.83041018E+03</totfact>
</mgrwt>
</event>
<event>
 4    1  0.1330040E-003  0.2775999E+03  0.7818608E-02  0.1097007E+00
         -2   -1    0    0    0  501 -0.00000000000E+00  0.00000000000E+00  0.25008266801E+03  0.25008266803E+03  0.25500000000E-02 0. -1.
          2   -1    0    0  501    0  0.00000000000E+00 -0.00000000000E+00 -0.77036255151E+02  0.77036255193E+02  0.25500000000E-02 0.  1.
    5000001    1    1    2    0    0  0.21711243684E+02  0.10794668809E+03  0.12755675771E+03  0.18526627327E+03  0.77000000000E+02 0.  0.
   -5000001    1    1    2    0    0 -0.21711243684E+02 -0.10794668809E+03  0.45489655154E+02  0.14185264995E+03  0.77000000000E+02 0.  0.
<mgrwt>
<rscale>  0 0.27759994E+03</rscale>
<asrwt>0</asrwt>
<pdfrwt beam="1">  1        2 0.11005179E-01 0.27759994E+03</pdfrwt>
<pdfrwt beam="2">  1       -2 0.35726096E-01 0.27759994E+03</pdfrwt>
<totfact> 0.41812373E+03</totfact>
</mgrwt>
</event>
<event>
 4    1  0.1330040E-003  0.3178653E+03  0.7818608E-02  0.1076636E+00
          2   -1    0    0  501    0  0.00000000000E+00  0.00000000000E+00  0.21414239316E+03  0.21414239318E+03  0.25500000000E-02 0.  1.
         -2   -1    0    0    0  501 -0.00000000000E+00 -0.00000000000E+00 -0.11795699295E+03  0.11795699297E+03  0.25500000000E-02 0. -1.
    5000001    1    1    2    0    0  0.12803467107E+02  0.12212656601E+03 -0.20032779968E+02  0.14631862208E+03  0.77000000000E+02 0.  0.
   -5000001    1    1    2    0    0 -0.12803467107E+02 -0.12212656601E+03  0.11621818018E+03  0.18578076407E+03  0.77000000000E+02 0.  0.
<mgrwt>
<rscale>  0 0.31786533E+03</rscale>
<asrwt>0</asrwt>
<pdfrwt beam="1">  1        2 0.30591771E-01 0.31786533E+03</pdfrwt>
<pdfrwt beam="2">  1       -2 0.16850999E-01 0.31786533E+03</pdfrwt>
<totfact> 0.48321581E+03</totfact>
</mgrwt>
</event>
<event>
 4    1  0.1330040E-003  0.1872542E+03  0.7818608E-02  0.1160961E+00
          2   -1    0    0  501    0  0.00000000000E+00  0.00000000000E+00  0.42318611744E+03  0.42318611745E+03  0.25500000000E-02 0.  1.
         -2   -1    0    0    0  501 -0.00000000000E+00 -0.00000000000E+00 -0.20714360605E+02  0.20714360762E+02  0.25500000000E-02 0. -1.
    5000001    1    1    2    0    0 -0.12343670458E+01  0.52895810461E+02  0.21576027498E+03  0.23511909043E+03  0.77000000000E+02 0.  0.
   -5000001    1    1    2    0    0  0.12343670458E+01 -0.52895810461E+02  0.18671148186E+03  0.20878138779E+03  0.77000000000E+02 0.  0.
<mgrwt>
<rscale>  0 0.18725416E+03</rscale>
<asrwt>0</asrwt>
<pdfrwt beam="1">  1        2 0.60455160E-01 0.18725416E+03</pdfrwt>
<pdfrwt beam="2">  1       -2 0.29591944E-02 0.18725416E+03</pdfrwt>
<totfact> 0.33756883E+04</totfact>
</mgrwt>
</event>
<event>
 4    1  0.1330040E-003  0.2318557E+03  0.7818608E-02  0.1125340E+00
          2   -1    0    0  501    0  0.00000000000E+00  0.00000000000E+00  0.60146177743E+03  0.60146177744E+03  0.25500000000E-02 0.  1.
         -2   -1    0    0    0  501 -0.00000000000E+00 -0.00000000000E+00 -0.22344347033E+02  0.22344347179E+02  0.25500000000E-02 0. -1.
    5000001    1    1    2    0    0 -0.50259666046E+02  0.64827977904E+02  0.21434176468E+03  0.24207456049E+03  0.77000000000E+02 0.  0.
   -5000001    1    1    2    0    0  0.50259666046E+02 -0.64827977904E+02  0.36477566572E+03  0.38173156413E+03  0.77000000000E+02 0.  0.
<mgrwt>
<rscale>  0 0.23185574E+03</rscale>
<asrwt>0</asrwt>
<pdfrwt beam="1">  1        2 0.85923112E-01 0.23185574E+03</pdfrwt>
<pdfrwt beam="2">  1       -2 0.31920495E-02 0.23185574E+03</pdfrwt>
<totfact> 0.20805316E+04</totfact>
</mgrwt>
</event>
<event>
 4    1  0.1330040E-003  0.2142917E+03  0.7818608E-02  0.1138212E+00
         -2   -1    0    0    0  501 -0.00000000000E+00  0.00000000000E+00  0.53350683347E+01  0.53350689441E+01  0.25500000000E-02 0. -1.
          2   -1    0    0  501    0  0.00000000000E+00 -0.00000000000E+00 -0.21518438929E+04  0.21518438929E+04  0.25500000000E-02 0.  1.
    5000001    1    1    2    0    0  0.33979201029E+02 -0.65483923024E+02 -0.96839561771E+03  0.97424935344E+03  0.77000000000E+02 0.  0.
   -5000001    1    1    2    0    0 -0.33979201029E+02  0.65483923024E+02 -0.11781132068E+04  0.11829296084E+04  0.77000000000E+02 0.  0.
<mgrwt>
<rscale>  0 0.21429172E+03</rscale>
<asrwt>0</asrwt>
<pdfrwt beam="1">  1        2 0.30740571E+00 0.21429172E+03</pdfrwt>
<pdfrwt beam="2">  1       -2 0.76215404E-03 0.21429172E+03</pdfrwt>
<totfact> 0.23321458E+04</totfact>
</mgrwt>
</event>
<event>
 4    1  0.1330040E-003  0.3058149E+03  0.7818608E-02  0.1082369E+00
          2   -1    0    0  501    0  0.00000000000E+00  0.00000000000E+00  0.21543840332E+03  0.21543840334E+03  0.25500000000E-02 0.  1.
         -2   -1    0    0    0  501 -0.00000000000E+00 -0.00000000000E+00 -0.10852609632E+03  0.10852609635E+03  0.25500000000E-02 0. -1.
    5000001    1    1    2    0    0 -0.10711868271E+03 -0.52711399120E+02  0.11337056660E+03  0.18175475002E+03  0.77000000000E+02 0.  0.
   -5000001    1    1    2    0    0  0.10711868271E+03  0.52711399120E+02 -0.64582595926E+01  0.14220974967E+03  0.77000000000E+02 0.  0.
<mgrwt>
<rscale>  0 0.30581490E+03</rscale>
<asrwt>0</asrwt>
<pdfrwt beam="1">  1        2 0.30776915E-01 0.30581490E+03</pdfrwt>
<pdfrwt beam="2">  1       -2 0.15503728E-01 0.30581490E+03</pdfrwt>
<totfact> 0.55106427E+03</totfact>
</mgrwt>
</event>
<event>
 4    1  0.1330040E-003  0.2524220E+03  0.7818608E-02  0.1111784E+00
         -2   -1    0    0    0  501 -0.00000000000E+00  0.00000000000E+00  0.10016635187E+02  0.10016635512E+02  0.25500000000E-02 0. -1.
          2   -1    0    0  501    0  0.00000000000E+00 -0.00000000000E+00 -0.15902766695E+04  0.15902766695E+04  0.25500000000E-02 0.  1.
    5000001    1    1    2    0    0  0.78992101271E+02 -0.56771972456E+02 -0.93709918455E+03  0.94527598647E+03  0.77000000000E+02 0.  0.
   -5000001    1    1    2    0    0 -0.78992101271E+02  0.56771972456E+02 -0.64316084975E+03  0.65501731853E+03  0.77000000000E+02 0.  0.
<mgrwt>
<rscale>  0 0.25242204E+03</rscale>
<asrwt>0</asrwt>
<pdfrwt beam="1">  1        2 0.22718222E+00 0.25242204E+03</pdfrwt>
<pdfrwt beam="2">  1       -2 0.14309489E-02 0.25242204E+03</pdfrwt>
<totfact> 0.17695184E+04</totfact>
</mgrwt>
</event>
<event>
 4    1  0.1330040E-003  0.2454634E+03  0.7818608E-02  0.1116206E+00
         -2   -1    0    0    0  501 -0.00000000000E+00  0.00000000000E+00  0.56569748079E+01  0.56569753826E+01  0.25500000000E-02 0. -1.
          2   -1    0    0  501    0  0.00000000000E+00 -0.00000000000E+00 -0.26627423618E+04  0.26627423618E+04  0.25500000000E-02 0.  1.
    5000001    1    1    2    0    0 -0.83676159194E+02  0.46135248516E+02 -0.13500286951E+04  0.13555945701E+04  0.77000000000E+02 0.  0.
   -5000001    1    1    2    0    0  0.83676159194E+02 -0.46135248516E+02 -0.13070566919E+04  0.13128047671E+04  0.77000000000E+02 0.  0.
<mgrwt>
<rscale>  0 0.24546338E+03</rscale>
<asrwt>0</asrwt>
<pdfrwt beam="1">  1        2 0.38039097E+00 0.24546338E+03</pdfrwt>
<pdfrwt beam="2">  1       -2 0.80814100E-03 0.24546338E+03</pdfrwt>
<totfact> 0.12042361E+04</totfact>
</mgrwt>
</event>
<event>
 4    1  0.1330040E-003  0.2493839E+03  0.7818608E-02  0.1113695E+00
          2   -1    0    0  501    0  0.00000000000E+00  0.00000000000E+00  0.94701480726E+03  0.94701480726E+03  0.25500000000E-02 0.  1.
         -2   -1    0    0    0  501 -0.00000000000E+00 -0.00000000000E+00 -0.16417993412E+02  0.16417993610E+02  0.25500000000E-02 0. -1.
    5000001    1    1    2    0    0  0.63481214434E+02 -0.62016780301E+02  0.30400418468E+03  0.32591945313E+03  0.77000000000E+02 0.  0.
   -5000001    1    1    2    0    0 -0.63481214434E+02  0.62016780301E+02  0.62659262916E+03  0.63751334774E+03  0.77000000000E+02 0.  0.
<mgrwt>
<rscale>  0 0.24938390E+03</rscale>
<asrwt>0</asrwt>
<pdfrwt beam="1">  1        2 0.13528786E+00 0.24938390E+03</pdfrwt>
<pdfrwt beam="2">  1       -2 0.23454271E-02 0.24938390E+03</pdfrwt>
<totfact> 0.18980842E+04</totfact>
</mgrwt>
</event>
<event>
 4    1  0.1330040E-003  0.3465929E+03  0.7818608E-02  0.1064022E+00
         -2   -1    0    0    0  501 -0.00000000000E+00  0.00000000000E+00  0.13831760640E+02  0.13831760875E+02  0.25500000000E-02 0. -1.
          2   -1    0    0  501    0  0.00000000000E+00 -0.00000000000E+00 -0.21712100315E+04  0.21712100315E+04  0.25500000000E-02 0.  1.
    5000001    1    1    2    0    0  0.80896480335E+02 -0.11323069158E+03 -0.64477656865E+03  0.66410183973E+03  0.77000000000E+02 0.  0.
   -5000001    1    1    2    0    0 -0.80896480335E+02  0.11323069158E+03 -0.15126017022E+04  0.15209399526E+04  0.77000000000E+02 0.  0.
<mgrwt>
<rscale>  0 0.34659289E+03</rscale>
<asrwt>0</asrwt>
<pdfrwt beam="1">  1        2 0.31017264E+00 0.34659289E+03</pdfrwt>
<pdfrwt beam="2">  1       -2 0.19759672E-02 0.34659289E+03</pdfrwt>
<totfact> 0.57357562E+03</totfact>
</mgrwt>
</event>
<event>
 4    1  0.1330040E-003  0.2289559E+03  0.7818608E-02  0.1127377E+00
         -2   -1    0    0    0  501 -0.00000000000E+00  0.00000000000E+00  0.13227390007E+02  0.13227390253E+02  0.25500000000E-02 0. -1.
          2   -1    0    0  501    0  0.00000000000E+00 -0.00000000000E+00 -0.99076254797E+03  0.99076254797E+03  0.25500000000E-02 0.  1.
    5000001    1    1    2    0    0 -0.79983523487E+02  0.27617493676E+02 -0.47116555806E+03  0.48485675523E+03  0.77000000000E+02 0.  0.
   -5000001    1    1    2    0    0  0.79983523487E+02 -0.27617493676E+02 -0.50636959990E+03  0.51913318300E+03  0.77000000000E+02 0.  0.
<mgrwt>
<rscale>  0 0.22895591E+03</rscale>
<asrwt>0</asrwt>
<pdfrwt beam="1">  1        2 0.14153746E+00 0.22895591E+03</pdfrwt>
<pdfrwt beam="2">  1       -2 0.18896278E-02 0.22895591E+03</pdfrwt>
<totfact> 0.24438383E+04</totfact>
</mgrwt>
</event>
<event>
 4    1  0.1330040E-003  0.2478529E+03  0.7818608E-02  0.1114669E+00
          2   -1    0    0  501    0  0.00000000000E+00  0.00000000000E+00  0.34095268209E+03  0.34095268210E+03  0.25500000000E-02 0.  1.
         -2   -1    0    0    0  501 -0.00000000000E+00 -0.00000000000E+00 -0.45043685504E+02  0.45043685576E+02  0.25500000000E-02 0. -1.
    5000001    1    1    2    0    0 -0.72946994232E+02 -0.64085531271E+02  0.14910538055E+03  0.19388046265E+03  0.77000000000E+02 0.  0.
   -5000001    1    1    2    0    0  0.72946994232E+02  0.64085531271E+02  0.14680361604E+03  0.19211590503E+03  0.77000000000E+02 0.  0.
<mgrwt>
<rscale>  0 0.24785290E+03</rscale>
<asrwt>0</asrwt>
<pdfrwt beam="1">  1        2 0.48707525E-01 0.24785290E+03</pdfrwt>
<pdfrwt beam="2">  1       -2 0.64348124E-02 0.24785290E+03</pdfrwt>
<totfact> 0.13487509E+04</totfact>
</mgrwt>
</event>
<event>
 4    1  0.1330040E-003  0.2273465E+03  0.7818608E-02  0.1128521E+00
         -2   -1    0    0    0  501 -0.00000000000E+00  0.00000000000E+00  0.57575445250E+03  0.57575445250E+03  0.25500000000E-02 0. -1.
          2   -1    0    0  501    0  0.00000000000E+00 -0.00000000000E+00 -0.22442909536E+02  0.22442909681E+02  0.25500000000E-02 0.  1.
    5000001    1    1    2    0    0  0.56775951676E+02 -0.37713485818E+02  0.40412146918E+03  0.41699997308E+03  0.77000000000E+02 0.  0.
   -5000001    1    1    2    0    0 -0.56775951676E+02  0.37713485818E+02  0.14919007378E+03  0.18119738910E+03  0.77000000000E+02 0.  0.
<mgrwt>
<rscale>  0 0.22734648E+03</rscale>
<asrwt>0</asrwt>
<pdfrwt beam="1">  1        2 0.32061296E-02 0.22734648E+03</pdfrwt>
<pdfrwt beam="2">  1       -2 0.82250646E-01 0.22734648E+03</pdfrwt>
<totfact> 0.37814633E+03</totfact>
</mgrwt>
</event>
<event>
 4    1  0.1330040E-003  0.2597361E+03  0.7818608E-02  0.1107302E+00
         -2   -1    0    0    0  501 -0.00000000000E+00  0.00000000000E+00  0.50726149955E+02  0.50726150019E+02  0.25500000000E-02 0. -1.
          2   -1    0    0  501    0  0.00000000000E+00 -0.00000000000E+00 -0.33248563824E+03  0.33248563825E+03  0.25500000000E-02 0.  1.
    5000001    1    1    2    0    0  0.80071182819E+02  0.66813043503E+02 -0.15243489783E+03  0.20010191198E+03  0.77000000000E+02 0.  0.
   -5000001    1    1    2    0    0 -0.80071182819E+02 -0.66813043503E+02 -0.12932459046E+03  0.18310987630E+03  0.77000000000E+02 0.  0.
<mgrwt>
<rscale>  0 0.25973615E+03</rscale>
<asrwt>0</asrwt>
<pdfrwt beam="1">  1        2 0.47497947E-01 0.25973615E+03</pdfrwt>
<pdfrwt beam="2">  1       -2 0.72465930E-02 0.25973615E+03</pdfrwt>
<totfact> 0.11561575E+04</totfact>
</mgrwt>
</event>
<event>
 4    1  0.1330040E-003  0.1910379E+03  0.7818608E-02  0.1157529E+00
          2   -1    0    0  501    0  0.00000000000E+00  0.00000000000E+00  0.93004597736E+02  0.93004597771E+02  0.25500000000E-02 0.  1.
         -2   -1    0    0    0  501 -0.00000000000E+00 -0.00000000000E+00 -0.98101295402E+02  0.98101295435E+02  0.25500000000E-02 0. -1.
    5000001    1    1    2    0    0 -0.33519416190E+02  0.26081664706E+01  0.42904782927E+02  0.94340734532E+02  0.77000000000E+02 0.  0.
   -5000001    1    1    2    0    0  0.33519416190E+02 -0.26081664706E+01 -0.48001480593E+02  0.96765158674E+02  0.77000000000E+02 0.  0.
<mgrwt>
<rscale>  0 0.19103792E+03</rscale>
<asrwt>0</asrwt>
<pdfrwt beam="1">  1        2 0.13286371E-01 0.19103792E+03</pdfrwt>
<pdfrwt beam="2">  1       -2 0.14014471E-01 0.19103792E+03</pdfrwt>
<totfact> 0.16581490E+04</totfact>
</mgrwt>
</event>
<event>
 4    1  0.1330040E-003  0.4178604E+03  0.7818608E-02  0.1037765E+00
         -2   -1    0    0    0  501 -0.00000000000E+00  0.00000000000E+00  0.51606444699E+02  0.51606444762E+02  0.25500000000E-02 0. -1.
          2   -1    0    0  501    0  0.00000000000E+00 -0.00000000000E+00 -0.84586013729E+03  0.84586013729E+03  0.25500000000E-02 0.  1.
    5000001    1    1    2    0    0  0.74195197435E+02 -0.68574087894E+02 -0.40859714113E+02  0.13343855923E+03  0.77000000000E+02 0.  0.
   -5000001    1    1    2    0    0 -0.74195197435E+02  0.68574087894E+02 -0.75339397848E+03  0.76402802282E+03  0.77000000000E+02 0.  0.
<mgrwt>
<rscale>  0 0.41786043E+03</rscale>
<asrwt>0</asrwt>
<pdfrwt beam="1">  1        2 0.12083715E+00 0.41786043E+03</pdfrwt>
<pdfrwt beam="2">  1       -2 0.73723498E-02 0.41786043E+03</pdfrwt>
<totfact> 0.39292873E+03</totfact>
</mgrwt>
</event>
<event>
 4    1  0.1330040E-003  0.2462639E+03  0.7818608E-02  0.1115689E+00
          2   -1    0    0  501    0  0.00000000000E+00  0.00000000000E+00  0.82349634637E+03  0.82349634637E+03  0.25500000000E-02 0.  1.
         -2   -1    0    0    0  501 -0.00000000000E+00 -0.00000000000E+00 -0.18411098179E+02  0.18411098356E+02  0.25500000000E-02 0. -1.
    5000001    1    1    2    0    0  0.92013522942E+02 -0.24296044252E+02  0.35722864171E+03  0.37762162097E+03  0.77000000000E+02 0.  0.
   -5000001    1    1    2    0    0 -0.92013522942E+02  0.24296044252E+02  0.44785660648E+03  0.46428582376E+03  0.77000000000E+02 0.  0.
<mgrwt>
<rscale>  0 0.24626386E+03</rscale>
<asrwt>0</asrwt>
<pdfrwt beam="1">  1        2 0.11764234E+00 0.24626386E+03</pdfrwt>
<pdfrwt beam="2">  1       -2 0.26301568E-02 0.24626386E+03</pdfrwt>
<totfact> 0.19160441E+04</totfact>
</mgrwt>
</event>
<event>
 4    1  0.1330040E-003  0.3274146E+03  0.7818608E-02  0.1072287E+00
         -2   -1    0    0    0  501 -0.00000000000E+00  0.00000000000E+00  0.19219351199E+02  0.19219351368E+02  0.25500000000E-02 0. -1.
          2   -1    0    0  501    0  0.00000000000E+00 -0.00000000000E+00 -0.13944324506E+04  0.13944324506E+04  0.25500000000E-02 0.  1.
    5000001    1    1    2    0    0  0.28624404266E+01 -0.14127556704E+03 -0.55778271371E+03  0.58053211377E+03  0.77000000000E+02 0.  0.
   -5000001    1    1    2    0    0 -0.28624404266E+01  0.14127556704E+03 -0.81743038570E+03  0.83311968820E+03  0.77000000000E+02 0.  0.
<mgrwt>
<rscale>  0 0.32741464E+03</rscale>
<asrwt>0</asrwt>
<pdfrwt beam="1">  1        2 0.19920457E+00 0.32741464E+03</pdfrwt>
<pdfrwt beam="2">  1       -2 0.27456225E-02 0.32741464E+03</pdfrwt>
<totfact> 0.85721076E+03</totfact>
</mgrwt>
</event>
<event>
 4    1  0.1330040E-003  0.2421723E+03  0.7818608E-02  0.1118354E+00
         -2   -1    0    0    0  501 -0.00000000000E+00  0.00000000000E+00  0.23787086345E+02  0.23787086482E+02  0.25500000000E-02 0. -1.
          2   -1    0    0  501    0  0.00000000000E+00 -0.00000000000E+00 -0.61637886625E+03  0.61637886625E+03  0.25500000000E-02 0.  1.
    5000001    1    1    2    0    0 -0.60352621030E+02  0.70838834559E+01 -0.48396533278E+03  0.49380569418E+03  0.77000000000E+02 0.  0.
   -5000001    1    1    2    0    0  0.60352621030E+02 -0.70838834559E+01 -0.10862644712E+03  0.14636025855E+03  0.77000000000E+02 0.  0.
<mgrwt>
<rscale>  0 0.24217231E+03</rscale>
<asrwt>0</asrwt>
<pdfrwt beam="1">  1        2 0.88054114E-01 0.24217231E+03</pdfrwt>
<pdfrwt beam="2">  1       -2 0.33981556E-02 0.24217231E+03</pdfrwt>
<totfact> 0.18478296E+04</totfact>
</mgrwt>
</event>
<event>
 4    1  0.1330040E-003  0.1933860E+03  0.7818608E-02  0.1155442E+00
          2   -1    0    0  501    0  0.00000000000E+00  0.00000000000E+00  0.88885816626E+03  0.88885816626E+03  0.25500000000E-02 0.  1.
         -2   -1    0    0    0  501 -0.00000000000E+00 -0.00000000000E+00 -0.10518586745E+02  0.10518587054E+02  0.25500000000E-02 0. -1.
    5000001    1    1    2    0    0 -0.33035232367E+02 -0.47406986456E+02  0.48122773459E+03  0.49076255101E+03  0.77000000000E+02 0.  0.
   -5000001    1    1    2    0    0  0.33035232367E+02  0.47406986456E+02  0.39711184492E+03  0.40861420230E+03  0.77000000000E+02 0.  0.
<mgrwt>
<rscale>  0 0.19338595E+03</rscale>
<asrwt>0</asrwt>
<pdfrwt beam="1">  1        2 0.12697979E+00 0.19338595E+03</pdfrwt>
<pdfrwt beam="2">  1       -2 0.15026547E-02 0.19338595E+03</pdfrwt>
<totfact> 0.38891919E+04</totfact>
</mgrwt>
</event>
<event>
 4    1  0.1330040E-003  0.4765554E+03  0.7818608E-02  0.1020086E+00
          2   -1    0    0  501    0  0.00000000000E+00  0.00000000000E+00  0.37671032239E+04  0.37671032239E+04  0.25500000000E-02 0.  1.
         -2   -1    0    0    0  501 -0.00000000000E+00 -0.00000000000E+00 -0.15071598833E+02  0.15071599048E+02  0.25500000000E-02 0. -1.
    5000001    1    1    2    0    0  0.16825511919E+03  0.13916868282E+03  0.14292007824E+04  0.14478334102E+04  0.77000000000E+02 0.  0.
   -5000001    1    1    2    0    0 -0.16825511919E+03 -0.13916868282E+03  0.23228308427E+04  0.23343414127E+04  0.77000000000E+02 0.  0.
<mgrwt>
<rscale>  0 0.47655543E+03</rscale>
<asrwt>0</asrwt>
<pdfrwt beam="1">  1        2 0.53815797E+00 0.47655543E+03</pdfrwt>
<pdfrwt beam="2">  1       -2 0.21530841E-02 0.47655543E+03</pdfrwt>
<totfact> 0.67930493E+02</totfact>
</mgrwt>
</event>
<event>
 4    1  0.1330040E-003  0.3407257E+03  0.7818608E-02  0.1066487E+00
         -2   -1    0    0    0  501 -0.00000000000E+00  0.00000000000E+00  0.15845974526E+02  0.15845974731E+02  0.25500000000E-02 0. -1.
          2   -1    0    0  501    0  0.00000000000E+00 -0.00000000000E+00 -0.18316003498E+04  0.18316003498E+04  0.25500000000E-02 0.  1.
    5000001    1    1    2    0    0 -0.12584927007E+03  0.19185309938E+02 -0.45786375729E+03  0.48142947058E+03  0.77000000000E+02 0.  0.
   -5000001    1    1    2    0    0  0.12584927007E+03 -0.19185309938E+02 -0.13578906180E+04  0.13660168540E+04  0.77000000000E+02 0.  0.
<mgrwt>
<rscale>  0 0.34072565E+03</rscale>
<asrwt>0</asrwt>
<pdfrwt beam="1">  1        2 0.26165706E+00 0.34072565E+03</pdfrwt>
<pdfrwt beam="2">  1       -2 0.22637118E-02 0.34072565E+03</pdfrwt>
<totfact> 0.68893702E+03</totfact>
</mgrwt>
</event>
<event>
 4    1  0.1330040E-003  0.2160814E+03  0.7818608E-02  0.1136839E+00
         -2   -1    0    0    0  501 -0.00000000000E+00  0.00000000000E+00  0.93441382356E+01  0.93441385835E+01  0.25500000000E-02 0. -1.
          2   -1    0    0  501    0  0.00000000000E+00 -0.00000000000E+00 -0.12492099059E+04  0.12492099059E+04  0.25500000000E-02 0.  1.
    5000001    1    1    2    0    0 -0.51413505014E+02 -0.55344996586E+02 -0.58432597932E+03  0.59419884488E+03  0.77000000000E+02 0.  0.
   -5000001    1    1    2    0    0  0.51413505014E+02  0.55344996586E+02 -0.65553978834E+03  0.66435519960E+03  0.77000000000E+02 0.  0.
<mgrwt>
<rscale>  0 0.21608138E+03</rscale>
<asrwt>0</asrwt>
<pdfrwt beam="1">  1        2 0.17845845E+00 0.21608138E+03</pdfrwt>
<pdfrwt beam="2">  1       -2 0.13348777E-02 0.21608138E+03</pdfrwt>
<totfact> 0.29024208E+04</totfact>
</mgrwt>
</event>
<event>
 4    1  0.1330040E-003  0.4278975E+03  0.7818608E-02  0.1034526E+00
          2   -1    0    0  501    0  0.00000000000E+00  0.00000000000E+00  0.32679879556E+03  0.32679879557E+03  0.25500000000E-02 0.  1.
         -2   -1    0    0    0  501 -0.00000000000E+00 -0.00000000000E+00 -0.14006803126E+03  0.14006803128E+03  0.25500000000E-02 0. -1.
    5000001    1    1    2    0    0  0.41766111984E+02  0.18457839309E+03  0.24089009183E+02  0.20572523343E+03  0.77000000000E+02 0.  0.
   -5000001    1    1    2    0    0 -0.41766111984E+02 -0.18457839309E+03  0.16264175512E+03  0.26114159342E+03  0.77000000000E+02 0.  0.
<mgrwt>
<rscale>  0 0.42789748E+03</rscale>
<asrwt>0</asrwt>
<pdfrwt beam="1">  1        2 0.46685541E-01 0.42789748E+03</pdfrwt>
<pdfrwt beam="2">  1       -2 0.20009719E-01 0.42789748E+03</pdfrwt>
<totfact> 0.22857562E+03</totfact>
</mgrwt>
</event>
<event>
 4    1  0.1330040E-003  0.2473369E+03  0.7818608E-02  0.1115000E+00
          2   -1    0    0  501    0  0.00000000000E+00  0.00000000000E+00  0.98839655009E+03  0.98839655010E+03  0.25500000000E-02 0.  1.
         -2   -1    0    0    0  501 -0.00000000000E+00 -0.00000000000E+00 -0.15473427194E+02  0.15473427404E+02  0.25500000000E-02 0. -1.
    5000001    1    1    2    0    0 -0.33538001578E+02 -0.30406025602E+02  0.13931542507E+03  0.16549051818E+03  0.77000000000E+02 0.  0.
   -5000001    1    1    2    0    0  0.33538001578E+02  0.30406025602E+02  0.83360769783E+03  0.83837945932E+03  0.77000000000E+02 0.  0.
<mgrwt>
<rscale>  0 0.24733687E+03</rscale>
<asrwt>0</asrwt>
<pdfrwt beam="1">  1        2 0.14119952E+00 0.24733687E+03</pdfrwt>
<pdfrwt beam="2">  1       -2 0.22104894E-02 0.24733687E+03</pdfrwt>
<totfact> 0.19555907E+04</totfact>
</mgrwt>
</event>
<event>
 4    1  0.1330040E-003  0.1904598E+03  0.7818608E-02  0.1158047E+00
          2   -1    0    0  501    0  0.00000000000E+00  0.00000000000E+00  0.42533625814E+02  0.42533625890E+02  0.25500000000E-02 0.  1.
         -2   -1    0    0    0  501 -0.00000000000E+00 -0.00000000000E+00 -0.21321337778E+03  0.21321337779E+03  0.25500000000E-02 0. -1.
    5000001    1    1    2    0    0  0.33417884569E+02 -0.39477345885E+02 -0.11428066479E+03  0.14718792814E+03  0.77000000000E+02 0.  0.
   -5000001    1    1    2    0    0 -0.33417884569E+02  0.39477345885E+02 -0.56399087175E+02  0.10855907554E+03  0.77000000000E+02 0.  0.
<mgrwt>
<rscale>  0 0.19045984E+03</rscale>
<asrwt>0</asrwt>
<pdfrwt beam="1">  1        2 0.60762324E-02 0.19045984E+03</pdfrwt>
<pdfrwt beam="2">  1       -2 0.30459053E-01 0.19045984E+03</pdfrwt>
<totfact> 0.11641704E+04</totfact>
</mgrwt>
</event>
<event>
 4    1  0.1330040E-003  0.3051694E+03  0.7818608E-02  0.1082685E+00
          2   -1    0    0  501    0  0.00000000000E+00  0.00000000000E+00  0.69469146193E+03  0.69469146193E+03  0.25500000000E-02 0.  1.
         -2   -1    0    0    0  501 -0.00000000000E+00 -0.00000000000E+00 -0.33514287477E+02  0.33514287575E+02  0.25500000000E-02 0. -1.
    5000001    1    1    2    0    0 -0.65159383832E+02 -0.41399505003E+02  0.75881938237E+02  0.13284100597E+03  0.77000000000E+02 0.  0.
   -5000001    1    1    2    0    0  0.65159383832E+02  0.41399505003E+02  0.58529523621E+03  0.59536474354E+03  0.77000000000E+02 0.  0.
<mgrwt>
<rscale>  0 0.30516939E+03</rscale>
<asrwt>0</asrwt>
<pdfrwt beam="1">  1        2 0.99241646E-01 0.30516939E+03</pdfrwt>
<pdfrwt beam="2">  1       -2 0.47877550E-02 0.30516939E+03</pdfrwt>
<totfact> 0.96923634E+03</totfact>
</mgrwt>
</event>
<event>
 4    1  0.1330040E-003  0.3236575E+03  0.7818608E-02  0.1073978E+00
          2   -1    0    0  501    0  0.00000000000E+00  0.00000000000E+00  0.89098018490E+03  0.89098018490E+03  0.25500000000E-02 0.  1.
         -2   -1    0    0    0  501 -0.00000000000E+00 -0.00000000000E+00 -0.29392962151E+02  0.29392962262E+02  0.25500000000E-02 0. -1.
    5000001    1    1    2    0    0 -0.13795122109E+03  0.19514964830E+02  0.51361082816E+03  0.53771410252E+03  0.77000000000E+02 0.  0.
   -5000001    1    1    2    0    0  0.13795122109E+03 -0.19514964830E+02  0.34797639459E+03  0.38265904464E+03  0.77000000000E+02 0.  0.
<mgrwt>
<rscale>  0 0.32365752E+03</rscale>
<asrwt>0</asrwt>
<pdfrwt beam="1">  1        2 0.12728287E+00 0.32365752E+03</pdfrwt>
<pdfrwt beam="2">  1       -2 0.41989952E-02 0.32365752E+03</pdfrwt>
<totfact> 0.87031652E+03</totfact>
</mgrwt>
</event>
<event>
 4    1  0.1330040E-003  0.2302476E+03  0.7818608E-02  0.1126466E+00
         -2   -1    0    0    0  501 -0.00000000000E+00  0.00000000000E+00  0.35247560232E+01  0.35247569457E+01  0.25500000000E-02 0. -1.
          2   -1    0    0  501    0  0.00000000000E+00 -0.00000000000E+00 -0.37601151872E+04  0.37601151872E+04  0.25500000000E-02 0.  1.
    5000001    1    1    2    0    0  0.60191087345E+02 -0.58641320948E+02 -0.21432419531E+04  0.21462704492E+04  0.77000000000E+02 0.  0.
   -5000001    1    1    2    0    0 -0.60191087345E+02  0.58641320948E+02 -0.16133484781E+04  0.16173694950E+04  0.77000000000E+02 0.  0.
<mgrwt>
<rscale>  0 0.23024761E+03</rscale>
<asrwt>0</asrwt>
<pdfrwt beam="1">  1        2 0.53715674E+00 0.23024761E+03</pdfrwt>
<pdfrwt beam="2">  1       -2 0.50353905E-03 0.23024761E+03</pdfrwt>
<totfact> 0.59268651E+03</totfact>
</mgrwt>
</event>
<event>
 4    1  0.1330040E-003  0.4681972E+03  0.7818608E-02  0.1022430E+00
          2   -1    0    0  501    0  0.00000000000E+00  0.00000000000E+00  0.22235232021E+04  0.22235232021E+04  0.25500000000E-02 0. -1.
         -2   -1    0    0    0  501 -0.00000000000E+00 -0.00000000000E+00 -0.24646541312E+02  0.24646541444E+02  0.25500000000E-02 0.  1.
    5000001    1    1    2    0    0  0.99979130246E+02 -0.18962346442E+03  0.13589231289E+04  0.13778802397E+04  0.77000000000E+02 0.  0.
   -5000001    1    1    2    0    0 -0.99979130246E+02  0.18962346442E+03  0.83995353186E+03  0.87028950380E+03  0.77000000000E+02 0.  0.
<mgrwt>
<rscale>  0 0.46819721E+03</rscale>
<asrwt>0</asrwt>
<pdfrwt beam="1">  1        2 0.31764607E+00 0.46819721E+03</pdfrwt>
<pdfrwt beam="2">  1       -2 0.35209356E-02 0.46819721E+03</pdfrwt>
<totfact> 0.22638335E+03</totfact>
</mgrwt>
</event>
<event>
 4    1  0.1330040E-003  0.3604509E+03  0.7818608E-02  0.1058405E+00
          2   -1    0    0  501    0  0.00000000000E+00  0.00000000000E+00  0.10245756802E+04  0.10245756802E+04  0.25500000000E-02 0.  1.
         -2   -1    0    0    0  501 -0.00000000000E+00 -0.00000000000E+00 -0.31702112654E+02  0.31702112757E+02  0.25500000000E-02 0. -1.
    5000001    1    1    2    0    0  0.71662702014E+02 -0.12789510876E+03  0.28799424991E+03  0.33220835282E+03  0.77000000000E+02 0.  0.
   -5000001    1    1    2    0    0 -0.71662702014E+02  0.12789510876E+03  0.70487931759E+03  0.72406944009E+03  0.77000000000E+02 0.  0.
<mgrwt>
<rscale>  0 0.36045090E+03</rscale>
<asrwt>0</asrwt>
<pdfrwt beam="1">  1        2 0.14636797E+00 0.36045090E+03</pdfrwt>
<pdfrwt beam="2">  1       -2 0.45288729E-02 0.36045090E+03</pdfrwt>
<totfact> 0.64467305E+03</totfact>
</mgrwt>
</event>
<event>
 4    1  0.1330040E-003  0.5024157E+03  0.7818608E-02  0.1013150E+00
         -2   -1    0    0    0  501 -0.00000000000E+00  0.00000000000E+00  0.38079632849E+02  0.38079632934E+02  0.25500000000E-02 0. -1.
          2   -1    0    0  501    0  0.00000000000E+00 -0.00000000000E+00 -0.16571949598E+04  0.16571949598E+04  0.25500000000E-02 0.  1.
    5000001    1    1    2    0    0  0.10731699660E+03  0.11679053387E+03 -0.14133443547E+04  0.14242992072E+04  0.77000000000E+02 0.  0.
   -5000001    1    1    2    0    0 -0.10731699660E+03 -0.11679053387E+03 -0.20577097220E+03  0.27097538552E+03  0.77000000000E+02 0.  0.
<mgrwt>
<rscale>  0 0.50241567E+03</rscale>
<asrwt>0</asrwt>
<pdfrwt beam="1">  1        2 0.23674209E+00 0.50241567E+03</pdfrwt>
<pdfrwt beam="2">  1       -2 0.54399486E-02 0.50241567E+03</pdfrwt>
<totfact> 0.22266837E+03</totfact>
</mgrwt>
</event>
<event>
 4    1  0.1330040E-003  0.3106198E+03  0.7818608E-02  0.1080049E+00
         -2   -1    0    0    0  501 -0.00000000000E+00  0.00000000000E+00  0.20365287415E+02  0.20365287574E+02  0.25500000000E-02 0. -1.
          2   -1    0    0  501    0  0.00000000000E+00 -0.00000000000E+00 -0.11844256264E+04  0.11844256264E+04  0.25500000000E-02 0.  1.
    5000001    1    1    2    0    0  0.10249463353E+03 -0.44150781444E+02 -0.28822971869E+03  0.31852756888E+03  0.77000000000E+02 0.  0.
   -5000001    1    1    2    0    0 -0.10249463353E+03  0.44150781444E+02 -0.87583062026E+03  0.88626334506E+03  0.77000000000E+02 0.  0.
<mgrwt>
<rscale>  0 0.31061982E+03</rscale>
<asrwt>0</asrwt>
<pdfrwt beam="1">  1        2 0.16920362E+00 0.31061982E+03</pdfrwt>
<pdfrwt beam="2">  1       -2 0.29093275E-02 0.31061982E+03</pdfrwt>
<totfact> 0.10158730E+04</totfact>
</mgrwt>
</event>
<event>
 4    1  0.1330040E-003  0.1959947E+03  0.7818608E-02  0.1153163E+00
         -2   -1    0    0    0  501 -0.00000000000E+00  0.00000000000E+00  0.81945596464E+01  0.81945600432E+01  0.25500000000E-02 0. -1.
          2   -1    0    0  501    0  0.00000000000E+00 -0.00000000000E+00 -0.11719338169E+04  0.11719338169E+04  0.25500000000E-02 0.  1.
    5000001    1    1    2    0    0 -0.30566224917E+02  0.36508153297E+02 -0.80775327548E+03  0.81281085956E+03  0.77000000000E+02 0.  0.
   -5000001    1    1    2    0    0  0.30566224917E+02 -0.36508153297E+02 -0.35598598179E+03  0.36731751741E+03  0.77000000000E+02 0.  0.
<mgrwt>
<rscale>  0 0.19599471E+03</rscale>
<asrwt>0</asrwt>
<pdfrwt beam="1">  1        2 0.16741901E+00 0.19599471E+03</pdfrwt>
<pdfrwt beam="2">  1       -2 0.11706522E-02 0.19599471E+03</pdfrwt>
<totfact> 0.38365919E+04</totfact>
</mgrwt>
</event>
<event>
 4    1  0.1330040E-003  0.2621733E+03  0.7818608E-02  0.1105844E+00
          2   -1    0    0  501    0  0.00000000000E+00  0.00000000000E+00  0.14269316402E+04  0.14269316402E+04  0.25500000000E-02 0.  1.
         -2   -1    0    0    0  501 -0.00000000000E+00 -0.00000000000E+00 -0.12042415457E+02  0.12042415727E+02  0.25500000000E-02 0. -1.
    5000001    1    1    2    0    0  0.91112389836E+02  0.41713041908E+02  0.51626515255E+03  0.53150743474E+03  0.77000000000E+02 0.  0.
   -5000001    1    1    2    0    0 -0.91112389836E+02 -0.41713041908E+02  0.89862407217E+03  0.90746662116E+03  0.77000000000E+02 0.  0.
<mgrwt>
<rscale>  0 0.26217325E+03</rscale>
<asrwt>0</asrwt>
<pdfrwt beam="1">  1        2 0.20384724E+00 0.26217325E+03</pdfrwt>
<pdfrwt beam="2">  1       -2 0.17203462E-02 0.26217325E+03</pdfrwt>
<totfact> 0.16359509E+04</totfact>
</mgrwt>
</event>
<event>
 4    1  0.1330040E-003  0.2743622E+03  0.7818608E-02  0.1098809E+00
          2   -1    0    0  501    0  0.00000000000E+00  0.00000000000E+00  0.83071946755E+03  0.83071946755E+03  0.25500000000E-02 0.  1.
         -2   -1    0    0    0  501 -0.00000000000E+00 -0.00000000000E+00 -0.22653433897E+02  0.22653434041E+02  0.25500000000E-02 0. -1.
    5000001    1    1    2    0    0  0.53440350603E+02 -0.41292757940E+00  0.92471951909E+02  0.13166663766E+03  0.77000000000E+02 0.  0.
   -5000001    1    1    2    0    0 -0.53440350603E+02  0.41292757940E+00  0.71559408174E+03  0.72170626394E+03  0.77000000000E+02 0.  0.
<mgrwt>
<rscale>  0 0.27436216E+03</rscale>
<asrwt>0</asrwt>
<pdfrwt beam="1">  1        2 0.11867423E+00 0.27436216E+03</pdfrwt>
<pdfrwt beam="2">  1       -2 0.32362044E-02 0.27436216E+03</pdfrwt>
<totfact> 0.13998148E+04</totfact>
</mgrwt>
</event>
<event>
 4    1  0.1330040E-003  0.1754963E+03  0.7818608E-02  0.1172234E+00
         -2   -1    0    0    0  501 -0.00000000000E+00  0.00000000000E+00  0.63493256656E+01  0.63493261777E+01  0.25500000000E-02 0. -1.
          2   -1    0    0  501    0  0.00000000000E+00 -0.00000000000E+00 -0.12126852693E+04  0.12126852693E+04  0.25500000000E-02 0.  1.
    5000001    1    1    2    0    0  0.18260857171E+02  0.37806946757E+02 -0.62270387160E+03  0.62884969256E+03  0.77000000000E+02 0.  0.
   -5000001    1    1    2    0    0 -0.18260857171E+02 -0.37806946757E+02 -0.58363207205E+03  0.59018490294E+03  0.77000000000E+02 0.  0.
<mgrwt>
<rscale>  0 0.17549626E+03</rscale>
<asrwt>0</asrwt>
<pdfrwt beam="1">  1        2 0.17324061E+00 0.17549626E+03</pdfrwt>
<pdfrwt beam="2">  1       -2 0.90704733E-03 0.17549626E+03</pdfrwt>
<totfact> 0.52233972E+04</totfact>
</mgrwt>
</event>
<event>
 4    1  0.1330040E-003  0.2233455E+03  0.7818608E-02  0.1131413E+00
         -2   -1    0    0    0  501 -0.00000000000E+00  0.00000000000E+00  0.38509703142E+01  0.38509711584E+01  0.25500000000E-02 0. -1.
          2   -1    0    0  501    0  0.00000000000E+00 -0.00000000000E+00 -0.32383530723E+04  0.32383530723E+04  0.25500000000E-02 0.  1.
    5000001    1    1    2    0    0 -0.21680376567E+02 -0.42095527664E+02 -0.66536761543E+03  0.67147981045E+03  0.77000000000E+02 0.  0.
   -5000001    1    1    2    0    0  0.21680376567E+02  0.42095527664E+02 -0.25691344865E+04  0.25707242330E+04  0.77000000000E+02 0.  0.
<mgrwt>
<rscale>  0 0.22334550E+03</rscale>
<asrwt>0</asrwt>
<pdfrwt beam="1">  1        2 0.46262012E+00 0.22334550E+03</pdfrwt>
<pdfrwt beam="2">  1       -2 0.55014075E-03 0.22334550E+03</pdfrwt>
<totfact> 0.10443824E+04</totfact>
</mgrwt>
</event>
<event>
 4    1  0.1330040E-003  0.6902565E+03  0.7818608E-02  0.9734041E-01
         -2   -1    0    0    0  501 -0.00000000000E+00  0.00000000000E+00  0.35951859779E+03  0.35951859780E+03  0.25500000000E-02 0. -1.
          2   -1    0    0  501    0  0.00000000000E+00 -0.00000000000E+00 -0.33131392975E+03  0.33131392976E+03  0.25500000000E-02 0.  1.
    5000001    1    1    2    0    0  0.59586655487E+02 -0.17020564158E+03 -0.27014873238E+03  0.33381112556E+03  0.77000000000E+02 0.  0.
   -5000001    1    1    2    0    0 -0.59586655487E+02  0.17020564158E+03  0.29835340042E+03  0.35702140199E+03  0.77000000000E+02 0.  0.
<mgrwt>
<rscale>  0 0.69025653E+03</rscale>
<asrwt>0</asrwt>
<pdfrwt beam="1">  1        2 0.47330561E-01 0.69025653E+03</pdfrwt>
<pdfrwt beam="2">  1       -2 0.51359800E-01 0.69025653E+03</pdfrwt>
<totfact> 0.38559330E+02</totfact>
</mgrwt>
</event>
<event>
 4    1  0.1330040E-003  0.4099222E+03  0.7818608E-02  0.1040397E+00
         -2   -1    0    0    0  501 -0.00000000000E+00  0.00000000000E+00  0.30349606013E+02  0.30349606120E+02  0.25500000000E-02 0. -1.
          2   -1    0    0  501    0  0.00000000000E+00 -0.00000000000E+00 -0.13841714880E+04  0.13841714880E+04  0.25500000000E-02 0.  1.
    5000001    1    1    2    0    0  0.16778953997E+03 -0.23298748284E+02 -0.97342876067E+03  0.99105434437E+03  0.77000000000E+02 0.  0.
   -5000001    1    1    2    0    0 -0.16778953997E+03  0.23298748284E+02 -0.38039312127E+03  0.42346674970E+03  0.77000000000E+02 0.  0.
<mgrwt>
<rscale>  0 0.40992223E+03</rscale>
<asrwt>0</asrwt>
<pdfrwt beam="1">  1        2 0.19773874E+00 0.40992223E+03</pdfrwt>
<pdfrwt beam="2">  1       -2 0.43356589E-02 0.40992223E+03</pdfrwt>
<totfact> 0.43678242E+03</totfact>
</mgrwt>
</event>
<event>
 4    1  0.1330040E-003  0.3117017E+03  0.7818608E-02  0.1079533E+00
         -2   -1    0    0    0  501 -0.00000000000E+00  0.00000000000E+00  0.61880324422E+02  0.61880324474E+02  0.25500000000E-02 0.  1.
          2   -1    0    0  501    0  0.00000000000E+00 -0.00000000000E+00 -0.39252347206E+03  0.39252347207E+03  0.25500000000E-02 0. -1.
    5000001    1    1    2    0    0 -0.54110044442E+02  0.12417435004E+03 -0.16000230331E+03  0.22333137528E+03  0.77000000000E+02 0.  0.
   -5000001    1    1    2    0    0  0.54110044442E+02 -0.12417435004E+03 -0.17064084433E+03  0.23107242127E+03  0.77000000000E+02 0.  0.
<mgrwt>
<rscale>  0 0.31170165E+03</rscale>
<asrwt>0</asrwt>
<pdfrwt beam="1">  1        2 0.56074781E-01 0.31170165E+03</pdfrwt>
<pdfrwt beam="2">  1       -2 0.88400465E-02 0.31170165E+03</pdfrwt>
<totfact> 0.71348615E+03</totfact>
</mgrwt>
</event>
<event>
 4    1  0.1330040E-003  0.6202765E+03  0.7818608E-02  0.9864209E-01
         -2   -1    0    0    0  501 -0.00000000000E+00  0.00000000000E+00  0.77135366701E+02  0.77135366743E+02  0.25500000000E-02 0. -1.
          2   -1    0    0  501    0  0.00000000000E+00 -0.00000000000E+00 -0.12469733118E+04  0.12469733118E+04  0.25500000000E-02 0.  1.
    5000001    1    1    2    0    0 -0.63917745568E+02 -0.21009488393E+03 -0.14727068061E+03  0.27539606355E+03  0.77000000000E+02 0.  0.
   -5000001    1    1    2    0    0  0.63917745568E+02  0.21009488393E+03 -0.10225672645E+04  0.10487126150E+04  0.77000000000E+02 0.  0.
<mgrwt>
<rscale>  0 0.62027653E+03</rscale>
<asrwt>0</asrwt>
<pdfrwt beam="1">  1        2 0.17813903E+00 0.62027653E+03</pdfrwt>
<pdfrwt beam="2">  1       -2 0.11019339E-01 0.62027653E+03</pdfrwt>
<totfact> 0.11875494E+03</totfact>
</mgrwt>
</event>
<event>
 4    1  0.1330040E-003  0.1931401E+03  0.7818608E-02  0.1155659E+00
          2   -1    0    0  501    0  0.00000000000E+00  0.00000000000E+00  0.50049245024E+03  0.50049245025E+03  0.25500000000E-02 0.  1.
         -2   -1    0    0    0  501 -0.00000000000E+00 -0.00000000000E+00 -0.18633200925E+02  0.18633201100E+02  0.25500000000E-02 0. -1.
    5000001    1    1    2    0    0 -0.32278409059E+02 -0.16121682201E+02  0.11790583083E+03  0.14537052408E+03  0.77000000000E+02 0.  0.
   -5000001    1    1    2    0    0  0.32278409059E+02  0.16121682201E+02  0.36395341849E+03  0.37375512727E+03  0.77000000000E+02 0.  0.
<mgrwt>
<rscale>  0 0.19314012E+03</rscale>
<asrwt>0</asrwt>
<pdfrwt beam="1">  1        2 0.71498911E-01 0.19314012E+03</pdfrwt>
<pdfrwt beam="2">  1       -2 0.26618862E-02 0.19314012E+03</pdfrwt>
<totfact> 0.32981112E+04</totfact>
</mgrwt>
</event>
<event>
 4    1  0.1330040E-003  0.3395812E+03  0.7818608E-02  0.1066974E+00
          2   -1    0    0  501    0  0.00000000000E+00  0.00000000000E+00  0.44012317023E+03  0.44012317024E+03  0.25500000000E-02 0.  1.
         -2   -1    0    0    0  501 -0.00000000000E+00 -0.00000000000E+00 -0.65501789397E+02  0.65501789447E+02  0.25500000000E-02 0. -1.
    5000001    1    1    2    0    0  0.37146040291E+02 -0.14081609865E+03  0.12608442481E+03  0.20744947368E+03  0.77000000000E+02 0.  0.
   -5000001    1    1    2    0    0 -0.37146040291E+02  0.14081609865E+03  0.24853695602E+03  0.29817548601E+03  0.77000000000E+02 0.  0.
<mgrwt>
<rscale>  0 0.33958124E+03</rscale>
<asrwt>0</asrwt>
<pdfrwt beam="1">  1        2 0.62874738E-01 0.33958124E+03</pdfrwt>
<pdfrwt beam="2">  1       -2 0.93573986E-02 0.33958124E+03</pdfrwt>
<totfact> 0.57700510E+03</totfact>
</mgrwt>
</event>
<event>
 4    1  0.1330040E-003  0.2255797E+03  0.7818608E-02  0.1129790E+00
          2   -1    0    0  501    0  0.00000000000E+00  0.00000000000E+00  0.14150328528E+04  0.14150328528E+04  0.25500000000E-02 0.  1.
         -2   -1    0    0    0  501 -0.00000000000E+00 -0.00000000000E+00 -0.89902893802E+01  0.89902897419E+01  0.25500000000E-02 0. -1.
    5000001    1    1    2    0    0  0.20032410281E+02 -0.74021127948E+02  0.89367504327E+03  0.90025802291E+03  0.77000000000E+02 0.  0.
   -5000001    1    1    2    0    0 -0.20032410281E+02  0.74021127948E+02  0.51236752015E+03  0.52376511963E+03  0.77000000000E+02 0.  0.
<mgrwt>
<rscale>  0 0.22557974E+03</rscale>
<asrwt>0</asrwt>
<pdfrwt beam="1">  1        2 0.20214741E+00 0.22557974E+03</pdfrwt>
<pdfrwt beam="2">  1       -2 0.12843280E-02 0.22557974E+03</pdfrwt>
<totfact> 0.25241110E+04</totfact>
</mgrwt>
</event>
<event>
 4    1  0.1330040E-003  0.3108856E+03  0.7818608E-02  0.1079922E+00
         -2   -1    0    0    0  501 -0.00000000000E+00  0.00000000000E+00  0.32598383735E+02  0.32598383835E+02  0.25500000000E-02 0. -1.
          2   -1    0    0  501    0  0.00000000000E+00 -0.00000000000E+00 -0.74121675444E+03  0.74121675445E+03  0.25500000000E-02 0.  1.
    5000001    1    1    2    0    0  0.12609564603E+03 -0.46580378407E+02 -0.32247007540E+03  0.35775102115E+03  0.77000000000E+02 0.  0.
   -5000001    1    1    2    0    0 -0.12609564603E+03  0.46580378407E+02 -0.38614829531E+03  0.41606411714E+03  0.77000000000E+02 0.  0.
<mgrwt>
<rscale>  0 0.31088563E+03</rscale>
<asrwt>0</asrwt>
<pdfrwt beam="1">  1        2 0.10588810E+00 0.31088563E+03</pdfrwt>
<pdfrwt beam="2">  1       -2 0.46569124E-02 0.31088563E+03</pdfrwt>
<totfact> 0.93578396E+03</totfact>
</mgrwt>
</event>
<event>
 4    1  0.1330040E-003  0.2020736E+03  0.7818608E-02  0.1148001E+00
          2   -1    0    0  501    0  0.00000000000E+00  0.00000000000E+00  0.41998422068E+03  0.41998422069E+03  0.25500000000E-02 0.  1.
         -2   -1    0    0    0  501 -0.00000000000E+00 -0.00000000000E+00 -0.24306700891E+02  0.24306701025E+02  0.25500000000E-02 0. -1.
    5000001    1    1    2    0    0  0.34875017746E+01 -0.59835243222E+02  0.25546762482E+03  0.27346869351E+03  0.77000000000E+02 0.  0.
   -5000001    1    1    2    0    0 -0.34875017746E+01  0.59835243222E+02  0.14020989497E+03  0.17082222820E+03  0.77000000000E+02 0.  0.
<mgrwt>
<rscale>  0 0.20207356E+03</rscale>
<asrwt>0</asrwt>
<pdfrwt beam="1">  1        2 0.59997743E-01 0.20207356E+03</pdfrwt>
<pdfrwt beam="2">  1       -2 0.34723860E-02 0.20207356E+03</pdfrwt>
<totfact> 0.27016968E+04</totfact>
</mgrwt>
</event>
<event>
 4    1  0.1330040E-003  0.1998787E+03  0.7818608E-02  0.1149841E+00
         -2   -1    0    0    0  501 -0.00000000000E+00  0.00000000000E+00  0.42407025647E+01  0.42407033314E+01  0.25500000000E-02 0. -1.
          2   -1    0    0  501    0  0.00000000000E+00 -0.00000000000E+00 -0.23552391763E+04  0.23552391763E+04  0.25500000000E-02 0.  1.
    5000001    1    1    2    0    0  0.60828431256E+02  0.83150001496E+01 -0.13763962377E+04  0.13799147946E+04  0.77000000000E+02 0.  0.
   -5000001    1    1    2    0    0 -0.60828431256E+02 -0.83150001496E+01 -0.97460223601E+03  0.97956508498E+03  0.77000000000E+02 0.  0.
<mgrwt>
<rscale>  0 0.19987866E+03</rscale>
<asrwt>0</asrwt>
<pdfrwt beam="1">  1        2 0.33646190E+00 0.19987866E+03</pdfrwt>
<pdfrwt beam="2">  1       -2 0.60581622E-03 0.19987866E+03</pdfrwt>
<totfact> 0.25754913E+04</totfact>
</mgrwt>
</event>
<event>
 4    1  0.1330040E-003  0.3953004E+03  0.7818608E-02  0.1045419E+00
         -2   -1    0    0    0  501 -0.00000000000E+00  0.00000000000E+00  0.20459773980E+02  0.20459774138E+02  0.25500000000E-02 0. -1.
          2   -1    0    0  501    0  0.00000000000E+00 -0.00000000000E+00 -0.19093859645E+04  0.19093859645E+04  0.25500000000E-02 0.  1.
    5000001    1    1    2    0    0 -0.94470044213E+02  0.85317459156E+01 -0.18596064910E+03  0.22250335493E+03  0.77000000000E+02 0.  0.
   -5000001    1    1    2    0    0  0.94470044213E+02 -0.85317459156E+01 -0.17029655414E+04  0.17073423837E+04  0.77000000000E+02 0.  0.
<mgrwt>
<rscale>  0 0.39530042E+03</rscale>
<asrwt>0</asrwt>
<pdfrwt beam="1">  1        2 0.27276931E+00 0.39530042E+03</pdfrwt>
<pdfrwt beam="2">  1       -2 0.29228261E-02 0.39530042E+03</pdfrwt>
<totfact> 0.43055141E+03</totfact>
</mgrwt>
</event>
<event>
 4    1  0.1330040E-003  0.4164163E+03  0.7818608E-02  0.1038239E+00
          2   -1    0    0  501    0  0.00000000000E+00  0.00000000000E+00  0.27834537861E+03  0.27834537863E+03  0.25500000000E-02 0.  1.
         -2   -1    0    0    0  501 -0.00000000000E+00 -0.00000000000E+00 -0.15574400965E+03  0.15574400968E+03  0.25500000000E-02 0. -1.
    5000001    1    1    2    0    0  0.10840721922E+03 -0.99155966382E+02 -0.69887916235E+02  0.17999264341E+03  0.77000000000E+02 0.  0.
   -5000001    1    1    2    0    0 -0.10840721922E+03  0.99155966382E+02  0.19248928519E+03  0.25409674489E+03  0.77000000000E+02 0.  0.
<mgrwt>
<rscale>  0 0.41641626E+03</rscale>
<asrwt>0</asrwt>
<pdfrwt beam="1">  1        2 0.39763626E-01 0.41641626E+03</pdfrwt>
<pdfrwt beam="2">  1       -2 0.22249144E-01 0.41641626E+03</pdfrwt>
<totfact> 0.22636698E+03</totfact>
</mgrwt>
</event>
<event>
 4    1  0.1330040E-003  0.2321006E+03  0.7818608E-02  0.1125170E+00
         -2   -1    0    0    0  501 -0.00000000000E+00  0.00000000000E+00  0.13362548025E+02  0.13362548268E+02  0.25500000000E-02 0. -1.
          2   -1    0    0  501    0  0.00000000000E+00 -0.00000000000E+00 -0.10078667248E+04  0.10078667248E+04  0.25500000000E-02 0.  1.
    5000001    1    1    2    0    0  0.69766428299E+02  0.40480418176E+02 -0.35586055625E+03  0.37292325520E+03  0.77000000000E+02 0.  0.
   -5000001    1    1    2    0    0 -0.69766428299E+02 -0.40480418176E+02 -0.63864362051E+03  0.64830601786E+03  0.77000000000E+02 0.  0.
<mgrwt>
<rscale>  0 0.23210056E+03</rscale>
<asrwt>0</asrwt>
<pdfrwt beam="1">  1        2 0.14398091E+00 0.23210056E+03</pdfrwt>
<pdfrwt beam="2">  1       -2 0.19089361E-02 0.23210056E+03</pdfrwt>
<totfact> 0.23545472E+04</totfact>
</mgrwt>
</event>
<event>
 4    1  0.1330040E-003  0.2662940E+03  0.7818608E-02  0.1103420E+00
         -2   -1    0    0    0  501 -0.00000000000E+00  0.00000000000E+00  0.94391118407E+01  0.94391121852E+01  0.25500000000E-02 0. -1.
          2   -1    0    0  501    0  0.00000000000E+00 -0.00000000000E+00 -0.18781563651E+04  0.18781563651E+04  0.25500000000E-02 0.  1.
    5000001    1    1    2    0    0  0.81950162969E+02 -0.31046067940E+02 -0.13893117181E+04  0.13942007522E+04  0.77000000000E+02 0.  0.
   -5000001    1    1    2    0    0 -0.81950162969E+02  0.31046067940E+02 -0.47940553515E+03  0.49339472502E+03  0.77000000000E+02 0.  0.
<mgrwt>
<rscale>  0 0.26629404E+03</rscale>
<asrwt>0</asrwt>
<pdfrwt beam="1">  1        2 0.26830781E+00 0.26629404E+03</pdfrwt>
<pdfrwt beam="2">  1       -2 0.13484458E-02 0.26629404E+03</pdfrwt>
<totfact> 0.13954749E+04</totfact>
</mgrwt>
</event>
<event>
 4    1  0.1330040E-003  0.2148254E+03  0.7818608E-02  0.1137801E+00
          2   -1    0    0  501    0  0.00000000000E+00  0.00000000000E+00  0.35781842311E+03  0.35781842312E+03  0.25500000000E-02 0.  1.
         -2   -1    0    0    0  501 -0.00000000000E+00 -0.00000000000E+00 -0.32243985533E+02  0.32243985634E+02  0.25500000000E-02 0. -1.
    5000001    1    1    2    0    0  0.35499487946E+02 -0.43106329811E+02  0.72180839887E+02  0.11940453493E+03  0.77000000000E+02 0.  0.
   -5000001    1    1    2    0    0 -0.35499487946E+02  0.43106329811E+02  0.25339359769E+03  0.27065787383E+03  0.77000000000E+02 0.  0.
<mgrwt>
<rscale>  0 0.21482544E+03</rscale>
<asrwt>0</asrwt>
<pdfrwt beam="1">  1        2 0.51116920E-01 0.21482544E+03</pdfrwt>
<pdfrwt beam="2">  1       -2 0.46062835E-02 0.21482544E+03</pdfrwt>
<totfact> 0.21114050E+04</totfact>
</mgrwt>
</event>
<event>
 4    1  0.1330040E-003  0.2270787E+03  0.7818608E-02  0.1128713E+00
         -2   -1    0    0    0  501 -0.00000000000E+00  0.00000000000E+00  0.24811298528E+03  0.24811298529E+03  0.25500000000E-02 0. -1.
          2   -1    0    0  501    0  0.00000000000E+00 -0.00000000000E+00 -0.51956927997E+02  0.51956928060E+02  0.25500000000E-02 0.  1.
    5000001    1    1    2    0    0  0.72014769133E+02 -0.41792001754E+02  0.10525406093E+03  0.15472593747E+03  0.77000000000E+02 0.  0.
   -5000001    1    1    2    0    0 -0.72014769133E+02  0.41792001754E+02  0.90901996346E+02  0.14534397588E+03  0.77000000000E+02 0.  0.
<mgrwt>
<rscale>  0 0.22707874E+03</rscale>
<asrwt>0</asrwt>
<pdfrwt beam="1">  1        2 0.74224183E-02 0.22707874E+03</pdfrwt>
<pdfrwt beam="2">  1       -2 0.35444712E-01 0.22707874E+03</pdfrwt>
<totfact> 0.68910825E+03</totfact>
</mgrwt>
</event>
<event>
 4    1  0.1330040E-003  0.3489892E+03  0.7818608E-02  0.1063031E+00
         -2   -1    0    0    0  501 -0.00000000000E+00  0.00000000000E+00  0.49031579100E+02  0.49031579167E+02  0.25500000000E-02 0. -1.
          2   -1    0    0  501    0  0.00000000000E+00 -0.00000000000E+00 -0.62099494487E+03  0.62099494487E+03  0.25500000000E-02 0.  1.
    5000001    1    1    2    0    0  0.34612142602E+02 -0.13091340862E+03 -0.13501499794E+03  0.20614162763E+03  0.77000000000E+02 0.  0.
   -5000001    1    1    2    0    0 -0.34612142602E+02  0.13091340862E+03 -0.43694836782E+03  0.46388489641E+03  0.77000000000E+02 0.  0.
<mgrwt>
<rscale>  0 0.34898918E+03</rscale>
<asrwt>0</asrwt>
<pdfrwt beam="1">  1        2 0.88713559E-01 0.34898918E+03</pdfrwt>
<pdfrwt beam="2">  1       -2 0.70045117E-02 0.34898918E+03</pdfrwt>
<totfact> 0.61818407E+03</totfact>
</mgrwt>
</event>
<event>
 4    1  0.1330040E-003  0.1858151E+03  0.7818608E-02  0.1162291E+00
         -2   -1    0    0    0  501 -0.00000000000E+00  0.00000000000E+00  0.22010844368E+03  0.22010844369E+03  0.25500000000E-02 0. -1.
          2   -1    0    0  501    0  0.00000000000E+00 -0.00000000000E+00 -0.39216178900E+02  0.39216178983E+02  0.25500000000E-02 0.  1.
    5000001    1    1    2    0    0 -0.31851638928E+02 -0.23942717756E+02  0.43843941526E+02  0.97154885850E+02  0.77000000000E+02 0.  0.
   -5000001    1    1    2    0    0  0.31851638928E+02  0.23942717756E+02  0.13704832325E+03  0.16216973683E+03  0.77000000000E+02 0.  0.
<mgrwt>
<rscale>  0 0.18581509E+03</rscale>
<asrwt>0</asrwt>
<pdfrwt beam="1">  1        2 0.56023113E-02 0.18581509E+03</pdfrwt>
<pdfrwt beam="2">  1       -2 0.31444063E-01 0.18581509E+03</pdfrwt>
<totfact> 0.12186284E+04</totfact>
</mgrwt>
</event>
<event>
 4    1  0.1330040E-003  0.2240537E+03  0.7818608E-02  0.1130896E+00
          2   -1    0    0  501    0  0.00000000000E+00  0.00000000000E+00  0.75525859417E+03  0.75525859418E+03  0.25500000000E-02 0.  1.
         -2   -1    0    0    0  501 -0.00000000000E+00 -0.00000000000E+00 -0.16616845630E+02  0.16616845826E+02  0.25500000000E-02 0. -1.
    5000001    1    1    2    0    0  0.59919288148E+02  0.34290399587E+02  0.51769255226E+03  0.52792114114E+03  0.77000000000E+02 0.  0.
   -5000001    1    1    2    0    0 -0.59919288148E+02 -0.34290399587E+02  0.22094919628E+03  0.24395429886E+03  0.77000000000E+02 0.  0.
<mgrwt>
<rscale>  0 0.22405370E+03</rscale>
<asrwt>0</asrwt>
<pdfrwt beam="1">  1        2 0.10789410E+00 0.22405370E+03</pdfrwt>
<pdfrwt beam="2">  1       -2 0.23738348E-02 0.22405370E+03</pdfrwt>
<totfact> 0.24650239E+04</totfact>
</mgrwt>
</event>
<event>
 4    1  0.1330040E-003  0.3602417E+03  0.7818608E-02  0.1058488E+00
         -2   -1    0    0    0  501 -0.00000000000E+00  0.00000000000E+00  0.16733404133E+03  0.16733404135E+03  0.25500000000E-02 0. -1.
          2   -1    0    0  501    0  0.00000000000E+00 -0.00000000000E+00 -0.19388472190E+03  0.19388472191E+03  0.25500000000E-02 0.  1.
    5000001    1    1    2    0    0  0.12554071996E+03  0.27709808270E+02  0.86926724427E+02  0.17324422433E+03  0.77000000000E+02 0.  0.
   -5000001    1    1    2    0    0 -0.12554071996E+03 -0.27709808270E+02 -0.11347740500E+03  0.18797453894E+03  0.77000000000E+02 0.  0.
<mgrwt>
<rscale>  0 0.36024166E+03</rscale>
<asrwt>0</asrwt>
<pdfrwt beam="1">  1        2 0.27697817E-01 0.36024166E+03</pdfrwt>
<pdfrwt beam="2">  1       -2 0.23904863E-01 0.36024166E+03</pdfrwt>
<totfact> 0.29653800E+03</totfact>
</mgrwt>
</event>
<event>
 4    1  0.1330040E-003  0.5803036E+03  0.7818608E-02  0.9947134E-01
          2   -1    0    0  501    0  0.00000000000E+00  0.00000000000E+00  0.42937407950E+03  0.42937407950E+03  0.25500000000E-02 0.  1.
         -2   -1    0    0    0  501 -0.00000000000E+00 -0.00000000000E+00 -0.19607163149E+03  0.19607163151E+03  0.25500000000E-02 0. -1.
    5000001    1    1    2    0    0 -0.21157758533E+03  0.79424705154E+02  0.29435830490E+03  0.37901077829E+03  0.77000000000E+02 0.  0.
   -5000001    1    1    2    0    0  0.21157758533E+03 -0.79424705154E+02 -0.61055856892E+02  0.24643493272E+03  0.77000000000E+02 0.  0.
<mgrwt>
<rscale>  0 0.58030363E+03</rscale>
<asrwt>0</asrwt>
<pdfrwt beam="1">  1        2 0.61339155E-01 0.58030363E+03</pdfrwt>
<pdfrwt beam="2">  1       -2 0.28010233E-01 0.58030363E+03</pdfrwt>
<totfact> 0.93205405E+02</totfact>
</mgrwt>
</event>
<event>
 4    1  0.1330040E-003  0.2677768E+03  0.7818608E-02  0.1102559E+00
          2   -1    0    0  501    0  0.00000000000E+00  0.00000000000E+00  0.36128404615E+02  0.36128404705E+02  0.25500000000E-02 0.  1.
         -2   -1    0    0    0  501 -0.00000000000E+00 -0.00000000000E+00 -0.49617769684E+03  0.49617769684E+03  0.25500000000E-02 0. -1.
    5000001    1    1    2    0    0  0.24711724997E+02 -0.10670236455E+03 -0.22799286561E+03  0.26439707018E+03  0.77000000000E+02 0.  0.
   -5000001    1    1    2    0    0 -0.24711724997E+02  0.10670236455E+03 -0.23205642662E+03  0.26790903137E+03  0.77000000000E+02 0.  0.
<mgrwt>
<rscale>  0 0.26777684E+03</rscale>
<asrwt>0</asrwt>
<pdfrwt beam="1">  1        2 0.51612010E-02 0.26777684E+03</pdfrwt>
<pdfrwt beam="2">  1       -2 0.70882524E-01 0.26777684E+03</pdfrwt>
<totfact> 0.27875576E+03</totfact>
</mgrwt>
</event>
<event>
 4    1  0.1330040E-003  0.1788032E+03  0.7818608E-02  0.1168966E+00
         -2   -1    0    0    0  501 -0.00000000000E+00  0.00000000000E+00  0.41665552246E+01  0.41665560049E+01  0.25500000000E-02 0. -1.
          2   -1    0    0  501    0  0.00000000000E+00 -0.00000000000E+00 -0.19182853787E+04  0.19182853787E+04  0.25500000000E-02 0.  1.
    5000001    1    1    2    0    0 -0.39835226842E+02  0.21753579657E+02 -0.97740043821E+03  0.98147882307E+03  0.77000000000E+02 0.  0.
   -5000001    1    1    2    0    0  0.39835226842E+02 -0.21753579657E+02 -0.93671838530E+03  0.94097311167E+03  0.77000000000E+02 0.  0.
<mgrwt>
<rscale>  0 0.17880316E+03</rscale>
<asrwt>0</asrwt>
<pdfrwt beam="1">  1        2 0.27404020E+00 0.17880316E+03</pdfrwt>
<pdfrwt beam="2">  1       -2 0.59522346E-03 0.17880316E+03</pdfrwt>
<totfact> 0.42666397E+04</totfact>
</mgrwt>
</event>
<event>
 4    1  0.1330040E-003  0.2908295E+03  0.7818608E-02  0.1089917E+00
         -2   -1    0    0    0  501 -0.00000000000E+00  0.00000000000E+00  0.41760625456E+02  0.41760625534E+02  0.25500000000E-02 0.  1.
          2   -1    0    0  501    0  0.00000000000E+00 -0.00000000000E+00 -0.50634903727E+03  0.50634903727E+03  0.25500000000E-02 0. -1.
    5000001    1    1    2    0    0 -0.11381792343E+03  0.20625396989E+02 -0.15152840751E+03  0.20559616966E+03  0.77000000000E+02 0.  0.
   -5000001    1    1    2    0    0  0.11381792343E+03 -0.20625396989E+02 -0.31306000430E+03  0.34251349314E+03  0.77000000000E+02 0.  0.
<mgrwt>
<rscale>  0 0.29082952E+03</rscale>
<asrwt>0</asrwt>
<pdfrwt beam="1">  1        2 0.72335573E-01 0.29082952E+03</pdfrwt>
<pdfrwt beam="2">  1       -2 0.59658039E-02 0.29082952E+03</pdfrwt>
<totfact> 0.99305080E+03</totfact>
</mgrwt>
</event>
<event>
 4    1  0.1330040E-003  0.2889824E+03  0.7818608E-02  0.1090882E+00
         -2   -1    0    0    0  501 -0.00000000000E+00  0.00000000000E+00  0.58221736178E+02  0.58221736234E+02  0.25500000000E-02 0. -1.
          2   -1    0    0  501    0  0.00000000000E+00 -0.00000000000E+00 -0.35858966473E+03  0.35858966474E+03  0.25500000000E-02 0.  1.
    5000001    1    1    2    0    0  0.11690305523E+03 -0.20605456179E+02 -0.10794024992E+03  0.17796349822E+03  0.77000000000E+02 0.  0.
   -5000001    1    1    2    0    0 -0.11690305523E+03  0.20605456179E+02 -0.19242767862E+03  0.23884790275E+03  0.77000000000E+02 0.  0.
<mgrwt>
<rscale>  0 0.28898244E+03</rscale>
<asrwt>0</asrwt>
<pdfrwt beam="1">  1        2 0.51227094E-01 0.28898244E+03</pdfrwt>
<pdfrwt beam="2">  1       -2 0.83173911E-02 0.28898244E+03</pdfrwt>
<totfact> 0.86372283E+03</totfact>
</mgrwt>
</event>
<event>
 4    1  0.1330040E-003  0.2651041E+03  0.7818608E-02  0.1104115E+00
         -2   -1    0    0    0  501 -0.00000000000E+00  0.00000000000E+00  0.41251348026E+03  0.41251348027E+03  0.25500000000E-02 0. -1.
          2   -1    0    0  501    0  0.00000000000E+00 -0.00000000000E+00 -0.42592666317E+02  0.42592666394E+02  0.25500000000E-02 0.  1.
    5000001    1    1    2    0    0  0.45553358443E+01 -0.95022128077E+02  0.97575238110E+02  0.15652438469E+03  0.77000000000E+02 0.  0.
   -5000001    1    1    2    0    0 -0.45553358443E+01  0.95022128077E+02  0.27234557583E+03  0.29858176198E+03  0.77000000000E+02 0.  0.
<mgrwt>
<rscale>  0 0.26510412E+03</rscale>
<asrwt>0</asrwt>
<pdfrwt beam="1">  1        2 0.60846667E-02 0.26510412E+03</pdfrwt>
<pdfrwt beam="2">  1       -2 0.58930496E-01 0.26510412E+03</pdfrwt>
<totfact> 0.33122291E+03</totfact>
</mgrwt>
</event>
<event>
 4    1  0.1330040E-003  0.2147574E+03  0.7818608E-02  0.1137853E+00
          2   -1    0    0  501    0  0.00000000000E+00  0.00000000000E+00  0.47755252443E+03  0.47755252443E+03  0.25500000000E-02 0.  1.
         -2   -1    0    0    0  501 -0.00000000000E+00 -0.00000000000E+00 -0.24144327040E+02  0.24144327175E+02  0.25500000000E-02 0. -1.
    5000001    1    1    2    0    0  0.45305732974E+02 -0.50528360959E+02  0.30041047964E+03  0.31746051877E+03  0.77000000000E+02 0.  0.
   -5000001    1    1    2    0    0 -0.45305732974E+02  0.50528360959E+02  0.15299771775E+03  0.18423633284E+03  0.77000000000E+02 0.  0.
<mgrwt>
<rscale>  0 0.21475739E+03</rscale>
<asrwt>0</asrwt>
<pdfrwt beam="1">  1        2 0.68221780E-01 0.21475739E+03</pdfrwt>
<pdfrwt beam="2">  1       -2 0.34491900E-02 0.21475739E+03</pdfrwt>
<totfact> 0.23846041E+04</totfact>
</mgrwt>
</event>
<event>
 4    1  0.1330040E-003  0.1702370E+03  0.7818608E-02  0.1177601E+00
         -2   -1    0    0    0  501 -0.00000000000E+00  0.00000000000E+00  0.28540420029E+01  0.28540431420E+01  0.25500000000E-02 0. -1.
          2   -1    0    0  501    0  0.00000000000E+00 -0.00000000000E+00 -0.25385608028E+04  0.25385608028E+04  0.25500000000E-02 0.  1.
    5000001    1    1    2    0    0  0.14686964491E+02 -0.28529445681E+02 -0.10151550503E+04  0.10185766600E+04  0.77000000000E+02 0.  0.
   -5000001    1    1    2    0    0 -0.14686964491E+02  0.28529445681E+02 -0.15205517105E+04  0.15228381859E+04  0.77000000000E+02 0.  0.
<mgrwt>
<rscale>  0 0.17023702E+03</rscale>
<asrwt>0</asrwt>
<pdfrwt beam="1">  1        2 0.36265010E+00 0.17023702E+03</pdfrwt>
<pdfrwt beam="2">  1       -2 0.40772199E-03 0.17023702E+03</pdfrwt>
<totfact> 0.36571368E+04</totfact>
</mgrwt>
</event>
<event>
 4    1  0.1330040E-003  0.1762423E+03  0.7818608E-02  0.1171490E+00
         -2   -1    0    0    0  501 -0.00000000000E+00  0.00000000000E+00  0.35488176343E+02  0.35488176434E+02  0.25500000000E-02 0. -1.
          2   -1    0    0  501    0  0.00000000000E+00 -0.00000000000E+00 -0.21881486649E+03  0.21881486651E+03  0.25500000000E-02 0.  1.
    5000001    1    1    2    0    0 -0.26805042196E+02  0.33420936357E+02 -0.90316470573E+02  0.12618056162E+03  0.77000000000E+02 0.  0.
   -5000001    1    1    2    0    0  0.26805042196E+02 -0.33420936357E+02 -0.93010219577E+02  0.12812248132E+03  0.77000000000E+02 0.  0.
<mgrwt>
<rscale>  0 0.17624234E+03</rscale>
<asrwt>0</asrwt>
<pdfrwt beam="1">  1        2 0.31259266E-01 0.17624234E+03</pdfrwt>
<pdfrwt beam="2">  1       -2 0.50697396E-02 0.17624234E+03</pdfrwt>
<totfact> 0.30488601E+04</totfact>
</mgrwt>
</event>
<event>
 4    1  0.1330040E-003  0.4533666E+03  0.7818608E-02  0.1026723E+00
         -2   -1    0    0    0  501 -0.00000000000E+00  0.00000000000E+00  0.61584636665E+02  0.61584636717E+02  0.25500000000E-02 0. -1.
          2   -1    0    0  501    0  0.00000000000E+00 -0.00000000000E+00 -0.83438532090E+03  0.83438532090E+03  0.25500000000E-02 0.  1.
    5000001    1    1    2    0    0  0.20656754407E+03  0.12911595151E+02 -0.48754654747E+03  0.53522658333E+03  0.77000000000E+02 0.  0.
   -5000001    1    1    2    0    0 -0.20656754407E+03 -0.12911595151E+02 -0.28525413676E+03  0.36074337429E+03  0.77000000000E+02 0.  0.
<mgrwt>
<rscale>  0 0.45336659E+03</rscale>
<asrwt>0</asrwt>
<pdfrwt beam="1">  1        2 0.11919790E+00 0.45336659E+03</pdfrwt>
<pdfrwt beam="2">  1       -2 0.87978058E-02 0.45336659E+03</pdfrwt>
<totfact> 0.30254821E+03</totfact>
</mgrwt>
</event>
<event>
 4    1  0.1330040E-003  0.1804740E+03  0.7818608E-02  0.1167345E+00
         -2   -1    0    0    0  501 -0.00000000000E+00  0.00000000000E+00  0.80809484371E+02  0.80809484411E+02  0.25500000000E-02 0. -1.
          2   -1    0    0  501    0  0.00000000000E+00 -0.00000000000E+00 -0.10076432163E+03  0.10076432166E+03  0.25500000000E-02 0.  1.
    5000001    1    1    2    0    0 -0.12898207033E+02 -0.43655545665E+02 -0.21947084385E+02  0.92102361126E+02  0.77000000000E+02 0.  0.
   -5000001    1    1    2    0    0  0.12898207033E+02  0.43655545665E+02  0.19922471269E+01  0.89471444945E+02  0.77000000000E+02 0.  0.
<mgrwt>
<rscale>  0 0.18047396E+03</rscale>
<asrwt>0</asrwt>
<pdfrwt beam="1">  1        2 0.14394903E-01 0.18047396E+03</pdfrwt>
<pdfrwt beam="2">  1       -2 0.11544212E-01 0.18047396E+03</pdfrwt>
<totfact> 0.20518975E+04</totfact>
</mgrwt>
</event>
<event>
 4    1  0.1330040E-003  0.2741051E+03  0.7818608E-02  0.1098953E+00
         -2   -1    0    0    0  501 -0.00000000000E+00  0.00000000000E+00  0.13848121706E+02  0.13848121941E+02  0.25500000000E-02 0. -1.
          2   -1    0    0  501    0  0.00000000000E+00 -0.00000000000E+00 -0.13563864405E+04  0.13563864405E+04  0.25500000000E-02 0.  1.
    5000001    1    1    2    0    0  0.49768724855E+02 -0.76665284305E+02 -0.33593343900E+03  0.35655962648E+03  0.77000000000E+02 0.  0.
   -5000001    1    1    2    0    0 -0.49768724855E+02  0.76665284305E+02 -0.10066048798E+04  0.10136749360E+04  0.77000000000E+02 0.  0.
<mgrwt>
<rscale>  0 0.27410512E+03</rscale>
<asrwt>0</asrwt>
<pdfrwt beam="1">  1        2 0.19376941E+00 0.27410512E+03</pdfrwt>
<pdfrwt beam="2">  1       -2 0.19783040E-02 0.27410512E+03</pdfrwt>
<totfact> 0.14511017E+04</totfact>
</mgrwt>
</event>
<event>
 4    1  0.1330040E-003  0.2786817E+03  0.7818608E-02  0.1096411E+00
          2   -1    0    0  501    0  0.00000000000E+00  0.00000000000E+00  0.20719964451E+04  0.20719964451E+04  0.25500000000E-02 0.  1.
         -2   -1    0    0    0  501 -0.00000000000E+00 -0.00000000000E+00 -0.93706105314E+01  0.93706108784E+01  0.25500000000E-02 0. -1.
    5000001    1    1    2    0    0  0.64685230478E+02 -0.89551694627E+02  0.12988507524E+04  0.13058123763E+04  0.77000000000E+02 0.  0.
   -5000001    1    1    2    0    0 -0.64685230478E+02  0.89551694627E+02  0.76377508214E+03  0.77555467966E+03  0.77000000000E+02 0.  0.
<mgrwt>
<rscale>  0 0.27868170E+03</rscale>
<asrwt>0</asrwt>
<pdfrwt beam="1">  1        2 0.29599975E+00 0.27868170E+03</pdfrwt>
<pdfrwt beam="2">  1       -2 0.13386575E-02 0.27868170E+03</pdfrwt>
<totfact> 0.11356344E+04</totfact>
</mgrwt>
</event>
<event>
 4    1  0.1330040E-003  0.2303945E+03  0.7818608E-02  0.1126362E+00
          2   -1    0    0  501    0  0.00000000000E+00  0.00000000000E+00  0.87346503422E+02  0.87346503459E+02  0.25500000000E-02 0.  1.
         -2   -1    0    0    0  501 -0.00000000000E+00 -0.00000000000E+00 -0.15192826929E+03  0.15192826931E+03  0.25500000000E-02 0. -1.
    5000001    1    1    2    0    0 -0.50721893927E+02  0.30221967268E+02 -0.96775388129E+02  0.13704215985E+03  0.77000000000E+02 0.  0.
   -5000001    1    1    2    0    0  0.50721893927E+02 -0.30221967268E+02  0.32193622266E+02  0.10223261292E+03  0.77000000000E+02 0.  0.
<mgrwt>
<rscale>  0 0.23039447E+03</rscale>
<asrwt>0</asrwt>
<pdfrwt beam="1">  1        2 0.12478072E-01 0.23039447E+03</pdfrwt>
<pdfrwt beam="2">  1       -2 0.21704038E-01 0.23039447E+03</pdfrwt>
<totfact> 0.87000964E+03</totfact>
</mgrwt>
</event>
<event>
 4    1  0.1330040E-003  0.2555641E+03  0.7818608E-02  0.1109838E+00
          2   -1    0    0  501    0  0.00000000000E+00  0.00000000000E+00  0.49811977502E+02  0.49811977568E+02  0.25500000000E-02 0.  1.
         -2   -1    0    0    0  501 -0.00000000000E+00 -0.00000000000E+00 -0.32779781350E+03  0.32779781351E+03  0.25500000000E-02 0. -1.
    5000001    1    1    2    0    0  0.98997277628E+02 -0.23816621952E+02 -0.14729420277E+03  0.19491607073E+03  0.77000000000E+02 0.  0.
   -5000001    1    1    2    0    0 -0.98997277628E+02  0.23816621952E+02 -0.13069163323E+03  0.18269372035E+03  0.77000000000E+02 0.  0.
<mgrwt>
<rscale>  0 0.25556414E+03</rscale>
<asrwt>0</asrwt>
<pdfrwt beam="1">  1        2 0.71159969E-02 0.25556414E+03</pdfrwt>
<pdfrwt beam="2">  1       -2 0.46828258E-01 0.25556414E+03</pdfrwt>
<totfact> 0.42920053E+03</totfact>
</mgrwt>
</event>
<event>
 4    1  0.1330040E-003  0.1711376E+03  0.7818608E-02  0.1176667E+00
         -2   -1    0    0    0  501 -0.00000000000E+00  0.00000000000E+00  0.71913214290E+01  0.71913218811E+01  0.25500000000E-02 0. -1.
          2   -1    0    0  501    0  0.00000000000E+00 -0.00000000000E+00 -0.10181740657E+04  0.10181740657E+04  0.25500000000E-02 0.  1.
    5000001    1    1    2    0    0  0.18606388291E+02  0.11047184088E+02 -0.32328971485E+03  0.33303675126E+03  0.77000000000E+02 0.  0.
   -5000001    1    1    2    0    0 -0.18606388291E+02 -0.11047184088E+02 -0.68769302943E+03  0.69232863633E+03  0.77000000000E+02 0.  0.
<mgrwt>
<rscale>  0 0.17113757E+03</rscale>
<asrwt>0</asrwt>
<pdfrwt beam="1">  1        2 0.14545335E+00 0.17113757E+03</pdfrwt>
<pdfrwt beam="2">  1       -2 0.10273323E-02 0.17113757E+03</pdfrwt>
<totfact> 0.55800727E+04</totfact>
</mgrwt>
</event>
<event>
 4    1  0.1330040E-003  0.2251119E+03  0.7818608E-02  0.1130128E+00
          2   -1    0    0  501    0  0.00000000000E+00  0.00000000000E+00  0.36947788571E+03  0.36947788572E+03  0.25500000000E-02 0.  1.
         -2   -1    0    0    0  501 -0.00000000000E+00 -0.00000000000E+00 -0.34288511236E+02  0.34288511331E+02  0.25500000000E-02 0. -1.
    5000001    1    1    2    0    0 -0.21541445187E+02 -0.75026765028E+02  0.12197884009E+03  0.16401489798E+03  0.77000000000E+02 0.  0.
   -5000001    1    1    2    0    0  0.21541445187E+02  0.75026765028E+02  0.21321053439E+03  0.23975149907E+03  0.77000000000E+02 0.  0.
<mgrwt>
<rscale>  0 0.22511194E+03</rscale>
<asrwt>0</asrwt>
<pdfrwt beam="1">  1        2 0.52782559E-01 0.22511194E+03</pdfrwt>
<pdfrwt beam="2">  1       -2 0.48983584E-02 0.22511194E+03</pdfrwt>
<totfact> 0.18650461E+04</totfact>
</mgrwt>
</event>
<event>
 4    1  0.1330040E-003  0.3269970E+03  0.7818608E-02  0.1072473E+00
         -2   -1    0    0    0  501 -0.00000000000E+00  0.00000000000E+00  0.14165452952E+02  0.14165453182E+02  0.25500000000E-02 0. -1.
          2   -1    0    0  501    0  0.00000000000E+00 -0.00000000000E+00 -0.18871097026E+04  0.18871097026E+04  0.25500000000E-02 0.  1.
    5000001    1    1    2    0    0 -0.12866356707E+03 -0.64671421038E+02 -0.98372878434E+03  0.99719006580E+03  0.77000000000E+02 0.  0.
   -5000001    1    1    2    0    0  0.12866356707E+03  0.64671421038E+02 -0.88921546533E+03  0.90408509001E+03  0.77000000000E+02 0.  0.
<mgrwt>
<rscale>  0 0.32699703E+03</rscale>
<asrwt>0</asrwt>
<pdfrwt beam="1">  1        2 0.26958694E+00 0.32699703E+03</pdfrwt>
<pdfrwt beam="2">  1       -2 0.20236374E-02 0.32699703E+03</pdfrwt>
<totfact> 0.76363483E+03</totfact>
</mgrwt>
</event>
<event>
 4    1  0.1330040E-003  0.3397748E+03  0.7818608E-02  0.1066892E+00
          2   -1    0    0  501    0  0.00000000000E+00  0.00000000000E+00  0.35013413424E+03  0.35013413425E+03  0.25500000000E-02 0.  1.
         -2   -1    0    0    0  501 -0.00000000000E+00 -0.00000000000E+00 -0.82430467191E+02  0.82430467231E+02  0.25500000000E-02 0. -1.
    5000001    1    1    2    0    0  0.11151534704E+03  0.66646102797E+02  0.34784766171E+02  0.15497211233E+03  0.77000000000E+02 0.  0.
   -5000001    1    1    2    0    0 -0.11151534704E+03 -0.66646102797E+02  0.23291890088E+03  0.27759248915E+03  0.77000000000E+02 0.  0.
<mgrwt>
<rscale>  0 0.33977475E+03</rscale>
<asrwt>0</asrwt>
<pdfrwt beam="1">  1        2 0.50019163E-01 0.33977475E+03</pdfrwt>
<pdfrwt beam="2">  1       -2 0.11775781E-01 0.33977475E+03</pdfrwt>
<totfact> 0.51199448E+03</totfact>
</mgrwt>
</event>
<event>
 4    1  0.1330040E-003  0.3407544E+03  0.7818608E-02  0.1066475E+00
         -2   -1    0    0    0  501 -0.00000000000E+00  0.00000000000E+00  0.18720337042E+02  0.18720337215E+02  0.25500000000E-02 0. -1.
          2   -1    0    0  501    0  0.00000000000E+00 -0.00000000000E+00 -0.15506336041E+04  0.15506336041E+04  0.25500000000E-02 0.  1.
    5000001    1    1    2    0    0 -0.14354444113E+03 -0.48117197091E+02 -0.70431948360E+03  0.72451032168E+03  0.77000000000E+02 0.  0.
   -5000001    1    1    2    0    0  0.14354444113E+03  0.48117197091E+02 -0.82759378351E+03  0.84484361969E+03  0.77000000000E+02 0.  0.
<mgrwt>
<rscale>  0 0.34075436E+03</rscale>
<asrwt>0</asrwt>
<pdfrwt beam="1">  1        2 0.22151901E+00 0.34075436E+03</pdfrwt>
<pdfrwt beam="2">  1       -2 0.26743349E-02 0.34075436E+03</pdfrwt>
<totfact> 0.74209479E+03</totfact>
</mgrwt>
</event>
<event>
 4    1  0.1330040E-003  0.3662504E+03  0.7818608E-02  0.1056136E+00
         -2   -1    0    0    0  501 -0.00000000000E+00  0.00000000000E+00  0.16862732392E+03  0.16862732394E+03  0.25500000000E-02 0. -1.
          2   -1    0    0  501    0  0.00000000000E+00 -0.00000000000E+00 -0.19886953350E+03  0.19886953352E+03  0.25500000000E-02 0.  1.
    5000001    1    1    2    0    0  0.51821585902E+02 -0.13644347801E+03 -0.94786132774E+02  0.19030425750E+03  0.77000000000E+02 0.  0.
   -5000001    1    1    2    0    0 -0.51821585902E+02  0.13644347801E+03  0.64543923190E+02  0.17719259995E+03  0.77000000000E+02 0.  0.
<mgrwt>
<rscale>  0 0.36625039E+03</rscale>
<asrwt>0</asrwt>
<pdfrwt beam="1">  1        2 0.28409933E-01 0.36625039E+03</pdfrwt>
<pdfrwt beam="2">  1       -2 0.24089618E-01 0.36625039E+03</pdfrwt>
<totfact> 0.28447472E+03</totfact>
</mgrwt>
</event>
<event>
 4    1  0.1330040E-003  0.2088383E+03  0.7818608E-02  0.1142489E+00
          2   -1    0    0  501    0  0.00000000000E+00  0.00000000000E+00  0.14450774162E+04  0.14450774162E+04  0.25500000000E-02 0.  1.
         -2   -1    0    0    0  501 -0.00000000000E+00 -0.00000000000E+00 -0.75451708510E+01  0.75451712819E+01  0.25500000000E-02 0. -1.
    5000001    1    1    2    0    0  0.34168632599E+02  0.92664195213E+01  0.29446693635E+03  0.30641987303E+03  0.77000000000E+02 0.  0.
   -5000001    1    1    2    0    0 -0.34168632599E+02 -0.92664195213E+01  0.11430653090E+04  0.11462027144E+04  0.77000000000E+02 0.  0.
<mgrwt>
<rscale>  0 0.20883828E+03</rscale>
<asrwt>0</asrwt>
<pdfrwt beam="1">  1        2 0.20643965E+00 0.20883828E+03</pdfrwt>
<pdfrwt beam="2">  1       -2 0.10778815E-02 0.20883828E+03</pdfrwt>
<totfact> 0.31278915E+04</totfact>
</mgrwt>
</event>
<event>
 4    1  0.1330040E-003  0.1828475E+03  0.7818608E-02  0.1165075E+00
         -2   -1    0    0    0  501 -0.00000000000E+00  0.00000000000E+00  0.17094441079E+03  0.17094441081E+03  0.25500000000E-02 0. -1.
          2   -1    0    0  501    0  0.00000000000E+00 -0.00000000000E+00 -0.48894842701E+02  0.48894842768E+02  0.25500000000E-02 0.  1.
    5000001    1    1    2    0    0  0.43184061645E+02 -0.16291381162E+02  0.81815624803E+02  0.12146221117E+03  0.77000000000E+02 0.  0.
   -5000001    1    1    2    0    0 -0.43184061645E+02  0.16291381162E+02  0.40233943285E+02  0.98377042406E+02  0.77000000000E+02 0.  0.
<mgrwt>
<rscale>  0 0.18284748E+03</rscale>
<asrwt>0</asrwt>
<pdfrwt beam="1">  1        2 0.69849775E-02 0.18284748E+03</pdfrwt>
<pdfrwt beam="2">  1       -2 0.24420630E-01 0.18284748E+03</pdfrwt>
<totfact> 0.14369164E+04</totfact>
</mgrwt>
</event>
<event>
 4    1  0.1330040E-003  0.5345992E+03  0.7818608E-02  0.1005123E+00
         -2   -1    0    0    0  501 -0.00000000000E+00  0.00000000000E+00  0.66734160111E+02  0.66734160160E+02  0.25500000000E-02 0.  1.
          2   -1    0    0  501    0  0.00000000000E+00 -0.00000000000E+00 -0.10706521251E+04  0.10706521251E+04  0.25500000000E-02 0. -1.
    5000001    1    1    2    0    0  0.21974318839E+03  0.13115047617E+03 -0.48981998748E+03  0.55797861642E+03  0.77000000000E+02 0.  0.
   -5000001    1    1    2    0    0 -0.21974318839E+03 -0.13115047617E+03 -0.51409797751E+03  0.57940766885E+03  0.77000000000E+02 0.  0.
<mgrwt>
<rscale>  0 0.53459918E+03</rscale>
<asrwt>0</asrwt>
<pdfrwt beam="1">  1        2 0.15295029E+00 0.53459918E+03</pdfrwt>
<pdfrwt beam="2">  1       -2 0.95334521E-02 0.53459918E+03</pdfrwt>
<totfact> 0.18956323E+03</totfact>
</mgrwt>
</event>
<event>
 4    1  0.1330040E-003  0.2532816E+03  0.7818608E-02  0.1111248E+00
          2   -1    0    0  501    0  0.00000000000E+00  0.00000000000E+00  0.66655624849E+03  0.66655624849E+03  0.25500000000E-02 0. -1.
         -2   -1    0    0    0  501 -0.00000000000E+00 -0.00000000000E+00 -0.24060814128E+02  0.24060814263E+02  0.25500000000E-02 0.  1.
    5000001    1    1    2    0    0  0.50424686937E+02 -0.86857027854E+02  0.30843125807E+03  0.33338511259E+03  0.77000000000E+02 0.  0.
   -5000001    1    1    2    0    0 -0.50424686937E+02  0.86857027854E+02  0.33406417629E+03  0.35723195017E+03  0.77000000000E+02 0.  0.
<mgrwt>
<rscale>  0 0.25328155E+03</rscale>
<asrwt>0</asrwt>
<pdfrwt beam="1">  1        2 0.95222322E-01 0.25328155E+03</pdfrwt>
<pdfrwt beam="2">  1       -2 0.34372591E-02 0.25328155E+03</pdfrwt>
<totfact> 0.16633374E+04</totfact>
</mgrwt>
</event>
<event>
 4    1  0.1330040E-003  0.2190292E+03  0.7818608E-02  0.1134609E+00
          2   -1    0    0  501    0  0.00000000000E+00  0.00000000000E+00  0.18432657421E+04  0.18432657421E+04  0.25500000000E-02 0.  1.
         -2   -1    0    0    0  501 -0.00000000000E+00 -0.00000000000E+00 -0.65066273599E+01  0.65066278595E+01  0.25500000000E-02 0. -1.
    5000001    1    1    2    0    0  0.59200246996E+02  0.17999837948E+01  0.13453936193E+04  0.13488961784E+04  0.77000000000E+02 0.  0.
   -5000001    1    1    2    0    0 -0.59200246996E+02 -0.17999837948E+01  0.49136549538E+03  0.50087619153E+03  0.77000000000E+02 0.  0.
<mgrwt>
<rscale>  0 0.21902916E+03</rscale>
<asrwt>0</asrwt>
<pdfrwt beam="1">  1        2 0.26332363E+00 0.21902916E+03</pdfrwt>
<pdfrwt beam="2">  1       -2 0.92951839E-03 0.21902916E+03</pdfrwt>
<totfact> 0.24725876E+04</totfact>
</mgrwt>
</event>
<event>
 4    1  0.1330040E-003  0.6525832E+03  0.7818608E-02  0.9801944E-01
          2   -1    0    0  501    0  0.00000000000E+00  0.00000000000E+00  0.13581889339E+04  0.13581889339E+04  0.25500000000E-02 0.  1.
         -2   -1    0    0    0  501 -0.00000000000E+00 -0.00000000000E+00 -0.78388356991E+02  0.78388357032E+02  0.25500000000E-02 0. -1.
    5000001    1    1    2    0    0 -0.18579197396E+03  0.73598749117E+02  0.11818210194E+04  0.12010684224E+04  0.77000000000E+02 0.  0.
   -5000001    1    1    2    0    0  0.18579197396E+03 -0.73598749117E+02  0.97979557533E+02  0.23550886853E+03  0.77000000000E+02 0.  0.
<mgrwt>
<rscale>  0 0.65258317E+03</rscale>
<asrwt>0</asrwt>
<pdfrwt beam="1">  1        2 0.19402699E+00 0.65258317E+03</pdfrwt>
<pdfrwt beam="2">  1       -2 0.11198337E-01 0.65258317E+03</pdfrwt>
<totfact> 0.10049053E+03</totfact>
</mgrwt>
</event>
<event>
 4    1  0.1330040E-003  0.2317964E+03  0.7818608E-02  0.1125382E+00
          2   -1    0    0  501    0  0.00000000000E+00  0.00000000000E+00  0.81070194288E+03  0.81070194288E+03  0.25500000000E-02 0.  1.
         -2   -1    0    0    0  501 -0.00000000000E+00 -0.00000000000E+00 -0.16568835469E+02  0.16568835666E+02  0.25500000000E-02 0. -1.
    5000001    1    1    2    0    0 -0.82765923468E+02  0.25516061687E+02  0.39187044709E+03  0.40864742113E+03  0.77000000000E+02 0.  0.
   -5000001    1    1    2    0    0  0.82765923468E+02 -0.25516061687E+02  0.40226266032E+03  0.41862335742E+03  0.77000000000E+02 0.  0.
<mgrwt>
<rscale>  0 0.23179635E+03</rscale>
<asrwt>0</asrwt>
<pdfrwt beam="1">  1        2 0.11581455E+00 0.23179635E+03</pdfrwt>
<pdfrwt beam="2">  1       -2 0.23669768E-02 0.23179635E+03</pdfrwt>
<totfact> 0.22750262E+04</totfact>
</mgrwt>
</event>
<event>
 4    1  0.1330040E-003  0.2276106E+03  0.7818608E-02  0.1128333E+00
         -2   -1    0    0    0  501 -0.00000000000E+00  0.00000000000E+00  0.14204166077E+03  0.14204166079E+03  0.25500000000E-02 0. -1.
          2   -1    0    0  501    0  0.00000000000E+00 -0.00000000000E+00 -0.91182049192E+02  0.91182049227E+02  0.25500000000E-02 0.  1.
    5000001    1    1    2    0    0  0.31415513813E+02 -0.75665479209E+02  0.73756864430E+01  0.11267475317E+03  0.77000000000E+02 0.  0.
   -5000001    1    1    2    0    0 -0.31415513813E+02  0.75665479209E+02  0.43483925137E+02  0.12054895685E+03  0.77000000000E+02 0.  0.
<mgrwt>
<rscale>  0 0.22761063E+03</rscale>
<asrwt>0</asrwt>
<pdfrwt beam="1">  1        2 0.13026007E-01 0.22761063E+03</pdfrwt>
<pdfrwt beam="2">  1       -2 0.20291666E-01 0.22761063E+03</pdfrwt>
<totfact> 0.92661332E+03</totfact>
</mgrwt>
</event>
<event>
 4    1  0.1330040E-003  0.2993373E+03  0.7818608E-02  0.1085572E+00
         -2   -1    0    0    0  501 -0.00000000000E+00  0.00000000000E+00  0.23126311025E+02  0.23126311165E+02  0.25500000000E-02 0. -1.
          2   -1    0    0  501    0  0.00000000000E+00 -0.00000000000E+00 -0.96862391014E+03  0.96862391014E+03  0.25500000000E-02 0.  1.
    5000001    1    1    2    0    0 -0.11924508608E+03 -0.41467576230E+02 -0.54922076045E+03  0.56878062040E+03  0.77000000000E+02 0.  0.
   -5000001    1    1    2    0    0  0.11924508608E+03  0.41467576230E+02 -0.39627683867E+03  0.42296960091E+03  0.77000000000E+02 0.  0.
<mgrwt>
<rscale>  0 0.29933725E+03</rscale>
<asrwt>0</asrwt>
<pdfrwt beam="1">  1        2 0.13837482E+00 0.29933725E+03</pdfrwt>
<pdfrwt beam="2">  1       -2 0.33037593E-02 0.29933725E+03</pdfrwt>
<totfact> 0.11155313E+04</totfact>
</mgrwt>
</event>
<event>
 4    1  0.1330040E-003  0.2914828E+03  0.7818608E-02  0.1089577E+00
          2   -1    0    0  501    0  0.00000000000E+00  0.00000000000E+00  0.82109157303E+03  0.82109157304E+03  0.25500000000E-02 0.  1.
         -2   -1    0    0    0  501 -0.00000000000E+00 -0.00000000000E+00 -0.25868679255E+02  0.25868679381E+02  0.25500000000E-02 0. -1.
    5000001    1    1    2    0    0 -0.44512826040E+02 -0.68098981008E+02  0.66852282547E+03  0.67784263002E+03  0.77000000000E+02 0.  0.
   -5000001    1    1    2    0    0  0.44512826040E+02  0.68098981008E+02  0.12670006830E+03  0.16911762239E+03  0.77000000000E+02 0.  0.
<mgrwt>
<rscale>  0 0.29148279E+03</rscale>
<asrwt>0</asrwt>
<pdfrwt beam="1">  1        2 0.11729879E+00 0.29148279E+03</pdfrwt>
<pdfrwt beam="2">  1       -2 0.36955259E-02 0.29148279E+03</pdfrwt>
<totfact> 0.11671756E+04</totfact>
</mgrwt>
</event>
<event>
 4    1  0.1330040E-003  0.2119655E+03  0.7818608E-02  0.1140019E+00
          2   -1    0    0  501    0  0.00000000000E+00  0.00000000000E+00  0.12277900479E+03  0.12277900482E+03  0.25500000000E-02 0.  1.
         -2   -1    0    0    0  501 -0.00000000000E+00 -0.00000000000E+00 -0.91484237434E+02  0.91484237470E+02  0.25500000000E-02 0. -1.
    5000001    1    1    2    0    0  0.30337150143E+02 -0.62287408970E+02  0.38324465452E+02  0.11044378048E+03  0.77000000000E+02 0.  0.
   -5000001    1    1    2    0    0 -0.30337150143E+02  0.62287408970E+02 -0.70296980917E+01  0.10381946181E+03  0.77000000000E+02 0.  0.
<mgrwt>
<rscale>  0 0.21196550E+03</rscale>
<asrwt>0</asrwt>
<pdfrwt beam="1">  1        2 0.17539858E-01 0.21196550E+03</pdfrwt>
<pdfrwt beam="2">  1       -2 0.13069177E-01 0.21196550E+03</pdfrwt>
<totfact> 0.13496981E+04</totfact>
</mgrwt>
</event>
<event>
 4    1  0.1330040E-003  0.2167833E+03  0.7818608E-02  0.1136304E+00
          2   -1    0    0  501    0  0.00000000000E+00  0.00000000000E+00  0.56302481921E+03  0.56302481922E+03  0.25500000000E-02 0.  1.
         -2   -1    0    0    0  501 -0.00000000000E+00 -0.00000000000E+00 -0.20867195270E+02  0.20867195426E+02  0.25500000000E-02 0. -1.
    5000001    1    1    2    0    0  0.39379050986E+02 -0.62038154531E+02  0.32629797800E+03  0.34321831641E+03  0.77000000000E+02 0.  0.
   -5000001    1    1    2    0    0 -0.39379050986E+02  0.62038154531E+02  0.21585964595E+03  0.24067369824E+03  0.77000000000E+02 0.  0.
<mgrwt>
<rscale>  0 0.21678329E+03</rscale>
<asrwt>0</asrwt>
<pdfrwt beam="1">  1        2 0.80432097E-01 0.21678329E+03</pdfrwt>
<pdfrwt beam="2">  1       -2 0.29810286E-02 0.21678329E+03</pdfrwt>
<totfact> 0.24701363E+04</totfact>
</mgrwt>
</event>
<event>
 4    1  0.1330040E-003  0.5679154E+03  0.7818608E-02  0.9974302E-01
         -2   -1    0    0    0  501 -0.00000000000E+00  0.00000000000E+00  0.83170818914E+02  0.83170818953E+02  0.25500000000E-02 0. -1.
          2   -1    0    0  501    0  0.00000000000E+00 -0.00000000000E+00 -0.96947443429E+03  0.96947443429E+03  0.25500000000E-02 0.  1.
    5000001    1    1    2    0    0  0.19333137833E+03 -0.78359254240E+02 -0.11582864937E+03  0.25072389313E+03  0.77000000000E+02 0.  0.
   -5000001    1    1    2    0    0 -0.19333137833E+03  0.78359254240E+02 -0.77047496601E+03  0.80192136012E+03  0.77000000000E+02 0.  0.
<mgrwt>
<rscale>  0 0.56791543E+03</rscale>
<asrwt>0</asrwt>
<pdfrwt beam="1">  1        2 0.13849634E+00 0.56791543E+03</pdfrwt>
<pdfrwt beam="2">  1       -2 0.11881546E-01 0.56791543E+03</pdfrwt>
<totfact> 0.15238207E+03</totfact>
</mgrwt>
</event>
<event>
 4    1  0.1330040E-003  0.4023980E+03  0.7818608E-02  0.1042952E+00
         -2   -1    0    0    0  501 -0.00000000000E+00  0.00000000000E+00  0.33174976449E+02  0.33174976547E+02  0.25500000000E-02 0. -1.
          2   -1    0    0  501    0  0.00000000000E+00 -0.00000000000E+00 -0.12202281003E+04  0.12202281003E+04  0.25500000000E-02 0.  1.
    5000001    1    1    2    0    0  0.52376321134E+02 -0.13410034890E+03 -0.22727376332E+03  0.27983664178E+03  0.77000000000E+02 0.  0.
   -5000001    1    1    2    0    0 -0.52376321134E+02  0.13410034890E+03 -0.95977936058E+03  0.97356643512E+03  0.77000000000E+02 0.  0.
<mgrwt>
<rscale>  0 0.40239800E+03</rscale>
<asrwt>0</asrwt>
<pdfrwt beam="1">  1        2 0.17431827E+00 0.40239800E+03</pdfrwt>
<pdfrwt beam="2">  1       -2 0.47392831E-02 0.40239800E+03</pdfrwt>
<totfact> 0.46656137E+03</totfact>
</mgrwt>
</event>
<event>
 4    1  0.1330040E-003  0.2530972E+03  0.7818608E-02  0.1111363E+00
         -2   -1    0    0    0  501 -0.00000000000E+00  0.00000000000E+00  0.62702458407E+01  0.62702463592E+01  0.25500000000E-02 0. -1.
          2   -1    0    0  501    0  0.00000000000E+00 -0.00000000000E+00 -0.25540536731E+04  0.25540536731E+04  0.25500000000E-02 0.  1.
    5000001    1    1    2    0    0  0.69074852355E+02 -0.58178767757E+02 -0.82954359250E+03  0.83799026015E+03  0.77000000000E+02 0.  0.
   -5000001    1    1    2    0    0 -0.69074852355E+02  0.58178767757E+02 -0.17182398348E+04  0.17223336593E+04  0.77000000000E+02 0.  0.
<mgrwt>
<rscale>  0 0.25309718E+03</rscale>
<asrwt>0</asrwt>
<pdfrwt beam="1">  1        2 0.36486414E+00 0.25309718E+03</pdfrwt>
<pdfrwt beam="2">  1       -2 0.89575108E-03 0.25309718E+03</pdfrwt>
<totfact> 0.11773020E+04</totfact>
</mgrwt>
</event>
<event>
 4    1  0.1330040E-003  0.2114615E+03  0.7818608E-02  0.1140414E+00
          2   -1    0    0  501    0  0.00000000000E+00  0.00000000000E+00  0.36244844850E+03  0.36244844850E+03  0.25500000000E-02 0.  1.
         -2   -1    0    0    0  501 -0.00000000000E+00 -0.00000000000E+00 -0.30842979099E+02  0.30842979205E+02  0.25500000000E-02 0. -1.
    5000001    1    1    2    0    0 -0.38030615236E+01  0.63484170036E+02  0.10123308858E+03  0.14220352086E+03  0.77000000000E+02 0.  0.
   -5000001    1    1    2    0    0  0.38030615236E+01 -0.63484170036E+02  0.23037238081E+03  0.25108790685E+03  0.77000000000E+02 0.  0.
<mgrwt>
<rscale>  0 0.21146149E+03</rscale>
<asrwt>0</asrwt>
<pdfrwt beam="1">  1        2 0.51778346E-01 0.21146149E+03</pdfrwt>
<pdfrwt beam="2">  1       -2 0.44061402E-02 0.21146149E+03</pdfrwt>
<totfact> 0.22240740E+04</totfact>
</mgrwt>
</event>
<event>
 4    1  0.1330040E-003  0.4216282E+03  0.7818608E-02  0.1036538E+00
         -2   -1    0    0    0  501 -0.00000000000E+00  0.00000000000E+00  0.51918371865E+02  0.51918371928E+02  0.25500000000E-02 0. -1.
          2   -1    0    0  501    0  0.00000000000E+00 -0.00000000000E+00 -0.85600887043E+03  0.85600887043E+03  0.25500000000E-02 0.  1.
    5000001    1    1    2    0    0 -0.16970032333E+03 -0.94440695324E+02 -0.34127776524E+03  0.40014592054E+03  0.77000000000E+02 0.  0.
   -5000001    1    1    2    0    0  0.16970032333E+03  0.94440695324E+02 -0.46281273332E+03  0.50778132182E+03  0.77000000000E+02 0.  0.
<mgrwt>
<rscale>  0 0.42162821E+03</rscale>
<asrwt>0</asrwt>
<pdfrwt beam="1">  1        2 0.12228697E+00 0.42162821E+03</pdfrwt>
<pdfrwt beam="2">  1       -2 0.74169108E-02 0.42162821E+03</pdfrwt>
<totfact> 0.38332089E+03</totfact>
</mgrwt>
</event>
<event>
 4    1  0.1330040E-003  0.3295976E+03  0.7818608E-02  0.1071315E+00
          2   -1    0    0  501    0  0.00000000000E+00  0.00000000000E+00  0.44204338521E+04  0.44204338521E+04  0.25500000000E-02 0.  1.
         -2   -1    0    0    0  501 -0.00000000000E+00 -0.00000000000E+00 -0.61438872900E+01  0.61438878192E+01  0.25500000000E-02 0. -1.
    5000001    1    1    2    0    0 -0.85934322732E+02  0.82593458652E+02  0.33326655507E+04  0.33356850960E+04  0.77000000000E+02 0.  0.
   -5000001    1    1    2    0    0  0.85934322732E+02 -0.82593458652E+02  0.10816244141E+04  0.10908926439E+04  0.77000000000E+02 0.  0.
<mgrwt>
<rscale>  0 0.32959762E+03</rscale>
<asrwt>0</asrwt>
<pdfrwt beam="1">  1        2 0.63149133E+00 0.32959762E+03</pdfrwt>
<pdfrwt beam="2">  1       -2 0.87769714E-03 0.32959762E+03</pdfrwt>
<totfact> 0.94305229E+02</totfact>
</mgrwt>
</event>
<event>
 4    1  0.1330040E-003  0.1950750E+03  0.7818608E-02  0.1153962E+00
         -2   -1    0    0    0  501 -0.00000000000E+00  0.00000000000E+00  0.97077314952E+01  0.97077318301E+01  0.25500000000E-02 0. -1.
          2   -1    0    0  501    0  0.00000000000E+00 -0.00000000000E+00 -0.97999890145E+03  0.97999890145E+03  0.25500000000E-02 0.  1.
    5000001    1    1    2    0    0 -0.36267550467E+02 -0.43845195581E+02 -0.39066052957E+03  0.40222181164E+03  0.77000000000E+02 0.  0.
   -5000001    1    1    2    0    0  0.36267550467E+02  0.43845195581E+02 -0.57963064038E+03  0.58748482164E+03  0.77000000000E+02 0.  0.
<mgrwt>
<rscale>  0 0.19507503E+03</rscale>
<asrwt>0</asrwt>
<pdfrwt beam="1">  1        2 0.13999978E+00 0.19507503E+03</pdfrwt>
<pdfrwt beam="2">  1       -2 0.13868194E-02 0.19507503E+03</pdfrwt>
<totfact> 0.38502059E+04</totfact>
</mgrwt>
</event>
<event>
 4    1  0.1330040E-003  0.2289181E+03  0.7818608E-02  0.1127404E+00
          2   -1    0    0  501    0  0.00000000000E+00  0.00000000000E+00  0.22807923906E+03  0.22807923907E+03  0.25500000000E-02 0.  1.
         -2   -1    0    0    0  501 -0.00000000000E+00 -0.00000000000E+00 -0.57440026942E+02  0.57440026998E+02  0.25500000000E-02 0. -1.
    5000001    1    1    2    0    0  0.71731373120E+02  0.41345548285E+02  0.63111693821E+02  0.12948718141E+03  0.77000000000E+02 0.  0.
   -5000001    1    1    2    0    0 -0.71731373120E+02 -0.41345548285E+02  0.10752751830E+03  0.15603208466E+03  0.77000000000E+02 0.  0.
<mgrwt>
<rscale>  0 0.22891813E+03</rscale>
<asrwt>0</asrwt>
<pdfrwt beam="1">  1        2 0.32582748E-01 0.22891813E+03</pdfrwt>
<pdfrwt beam="2">  1       -2 0.82057182E-02 0.22891813E+03</pdfrwt>
<totfact> 0.14207761E+04</totfact>
</mgrwt>
</event>
<event>
 4    1  0.1330040E-003  0.2746614E+03  0.7818608E-02  0.1098641E+00
          2   -1    0    0  501    0  0.00000000000E+00  0.00000000000E+00  0.74081776847E+03  0.74081776847E+03  0.25500000000E-02 0.  1.
         -2   -1    0    0    0  501 -0.00000000000E+00 -0.00000000000E+00 -0.25457974084E+02  0.25457974211E+02  0.25500000000E-02 0. -1.
    5000001    1    1    2    0    0  0.10303915283E+03  0.26062180855E+01  0.49167783219E+03  0.50823218124E+03  0.77000000000E+02 0.  0.
   -5000001    1    1    2    0    0 -0.10303915283E+03 -0.26062180855E+01  0.22368196220E+03  0.25804356144E+03  0.77000000000E+02 0.  0.
<mgrwt>
<rscale>  0 0.27466139E+03</rscale>
<asrwt>0</asrwt>
<pdfrwt beam="1">  1        2 0.10583111E+00 0.27466139E+03</pdfrwt>
<pdfrwt beam="2">  1       -2 0.36368534E-02 0.27466139E+03</pdfrwt>
<totfact> 0.13536009E+04</totfact>
</mgrwt>
</event>
<event>
 4    1  0.1330040E-003  0.2540839E+03  0.7818608E-02  0.1110751E+00
          2   -1    0    0  501    0  0.00000000000E+00  0.00000000000E+00  0.23608191703E+02  0.23608191841E+02  0.25500000000E-02 0.  1.
         -2   -1    0    0    0  501 -0.00000000000E+00 -0.00000000000E+00 -0.68364621068E+03  0.68364621068E+03  0.25500000000E-02 0. -1.
    5000001    1    1    2    0    0  0.52289833698E+02  0.31698462469E+02 -0.10609251042E+03  0.14465006048E+03  0.77000000000E+02 0.  0.
   -5000001    1    1    2    0    0 -0.52289833698E+02 -0.31698462469E+02 -0.55394550856E+03  0.56260434204E+03  0.77000000000E+02 0.  0.
<mgrwt>
<rscale>  0 0.25408385E+03</rscale>
<asrwt>0</asrwt>
<pdfrwt beam="1">  1        2 0.33725992E-02 0.25408385E+03</pdfrwt>
<pdfrwt beam="2">  1       -2 0.97663732E-01 0.25408385E+03</pdfrwt>
<totfact> 0.24082919E+03</totfact>
</mgrwt>
</event>
<event>
 4    1  0.1330040E-003  0.3406496E+03  0.7818608E-02  0.1066520E+00
          2   -1    0    0  501    0  0.00000000000E+00  0.00000000000E+00  0.19321810818E+04  0.19321810818E+04  0.25500000000E-02 0.  1.
         -2   -1    0    0    0  501 -0.00000000000E+00 -0.00000000000E+00 -0.15014401158E+02  0.15014401374E+02  0.25500000000E-02 0. -1.
    5000001    1    1    2    0    0 -0.77310560733E+02 -0.81348675260E+02  0.15439493825E+04  0.15499365231E+04  0.77000000000E+02 0.  0.
   -5000001    1    1    2    0    0  0.77310560733E+02  0.81348675260E+02  0.37321729816E+03  0.39725896015E+03  0.77000000000E+02 0.  0.
<mgrwt>
<rscale>  0 0.34064963E+03</rscale>
<asrwt>0</asrwt>
<pdfrwt beam="1">  1        2 0.27602570E+00 0.34064963E+03</pdfrwt>
<pdfrwt beam="2">  1       -2 0.21449158E-02 0.34064963E+03</pdfrwt>
<totfact> 0.66587078E+03</totfact>
</mgrwt>
</event>
<event>
 4    1  0.1330040E-003  0.2699802E+03  0.7818608E-02  0.1101291E+00
         -2   -1    0    0    0  501 -0.00000000000E+00  0.00000000000E+00  0.32281860514E+02  0.32281860615E+02  0.25500000000E-02 0. -1.
          2   -1    0    0  501    0  0.00000000000E+00 -0.00000000000E+00 -0.56447594054E+03  0.56447594054E+03  0.25500000000E-02 0.  1.
    5000001    1    1    2    0    0  0.69621836311E+02 -0.81494179892E+02 -0.32880443705E+03  0.35430193235E+03  0.77000000000E+02 0.  0.
   -5000001    1    1    2    0    0 -0.69621836311E+02  0.81494179892E+02 -0.20338964298E+03  0.24245586880E+03  0.77000000000E+02 0.  0.
<mgrwt>
<rscale>  0 0.26998025E+03</rscale>
<asrwt>0</asrwt>
<pdfrwt beam="1">  1        2 0.80639414E-01 0.26998025E+03</pdfrwt>
<pdfrwt beam="2">  1       -2 0.46116947E-02 0.26998025E+03</pdfrwt>
<totfact> 0.12979313E+04</totfact>
</mgrwt>
</event>
<event>
 4    1  0.1330040E-003  0.2629825E+03  0.7818608E-02  0.1105364E+00
         -2   -1    0    0    0  501 -0.00000000000E+00  0.00000000000E+00  0.20894160374E+02  0.20894160530E+02  0.25500000000E-02 0. -1.
          2   -1    0    0  501    0  0.00000000000E+00 -0.00000000000E+00 -0.82750161892E+03  0.82750161893E+03  0.25500000000E-02 0.  1.
    5000001    1    1    2    0    0 -0.95485959528E+02 -0.13669566215E+02 -0.54960184320E+03  0.56328998887E+03  0.77000000000E+02 0.  0.
   -5000001    1    1    2    0    0  0.95485959528E+02  0.13669566215E+02 -0.25700561535E+03  0.28510579059E+03  0.77000000000E+02 0.  0.
<mgrwt>
<rscale>  0 0.26298252E+03</rscale>
<asrwt>0</asrwt>
<pdfrwt beam="1">  1        2 0.11821450E+00 0.26298252E+03</pdfrwt>
<pdfrwt beam="2">  1       -2 0.29848806E-02 0.26298252E+03</pdfrwt>
<totfact> 0.15837384E+04</totfact>
</mgrwt>
</event>
<event>
 4    1  0.1330040E-003  0.3358091E+03  0.7818608E-02  0.1068595E+00
         -2   -1    0    0    0  501 -0.00000000000E+00  0.00000000000E+00  0.30763344939E+02  0.30763345045E+02  0.25500000000E-02 0. -1.
          2   -1    0    0  501    0  0.00000000000E+00 -0.00000000000E+00 -0.91641352652E+03  0.91641352653E+03  0.25500000000E-02 0.  1.
    5000001    1    1    2    0    0  0.11166645644E+03  0.82812932459E+02 -0.29000357430E+03  0.33069389529E+03  0.77000000000E+02 0.  0.
   -5000001    1    1    2    0    0 -0.11166645644E+03 -0.82812932459E+02 -0.59564660728E+03  0.61648297628E+03  0.77000000000E+02 0.  0.
<mgrwt>
<rscale>  0 0.33580915E+03</rscale>
<asrwt>0</asrwt>
<pdfrwt beam="1">  1        2 0.13091620E+00 0.33580915E+03</pdfrwt>
<pdfrwt beam="2">  1       -2 0.43947641E-02 0.33580915E+03</pdfrwt>
<totfact> 0.78361223E+03</totfact>
</mgrwt>
</event>
<event>
 4    1  0.1330040E-003  0.1840278E+03  0.7818608E-02  0.1163961E+00
         -2   -1    0    0    0  501 -0.00000000000E+00  0.00000000000E+00  0.11900914155E+02  0.11900914429E+02  0.25500000000E-02 0. -1.
          2   -1    0    0  501    0  0.00000000000E+00 -0.00000000000E+00 -0.71142060988E+03  0.71142060988E+03  0.25500000000E-02 0.  1.
    5000001    1    1    2    0    0 -0.38319086890E+02 -0.18387480886E+02 -0.24348327560E+03  0.25888135771E+03  0.77000000000E+02 0.  0.
   -5000001    1    1    2    0    0  0.38319086890E+02  0.18387480886E+02 -0.45603642012E+03  0.46444016660E+03  0.77000000000E+02 0.  0.
<mgrwt>
<rscale>  0 0.18402778E+03</rscale>
<asrwt>0</asrwt>
<pdfrwt beam="1">  1        2 0.10163149E+00 0.18402778E+03</pdfrwt>
<pdfrwt beam="2">  1       -2 0.17001311E-02 0.18402778E+03</pdfrwt>
<totfact> 0.42507331E+04</totfact>
</mgrwt>
</event>
<event>
 4    1  0.1330040E-003  0.3521882E+03  0.7818608E-02  0.1061720E+00
         -2   -1    0    0    0  501 -0.00000000000E+00  0.00000000000E+00  0.19144663379E+02  0.19144663549E+02  0.25500000000E-02 0. -1.
          2   -1    0    0  501    0  0.00000000000E+00 -0.00000000000E+00 -0.16197271223E+04  0.16197271223E+04  0.25500000000E-02 0.  1.
    5000001    1    1    2    0    0  0.12701054441E+03 -0.73841654989E+02 -0.52515527717E+03  0.55072800323E+03  0.77000000000E+02 0.  0.
   -5000001    1    1    2    0    0 -0.12701054441E+03  0.73841654989E+02 -0.10754271817E+04  0.10881437826E+04  0.77000000000E+02 0.  0.
<mgrwt>
<rscale>  0 0.35218819E+03</rscale>
<asrwt>0</asrwt>
<pdfrwt beam="1">  1        2 0.23138950E+00 0.35218819E+03</pdfrwt>
<pdfrwt beam="2">  1       -2 0.27349529E-02 0.35218819E+03</pdfrwt>
<totfact> 0.66261832E+03</totfact>
</mgrwt>
</event>
<event>
 4    1  0.1330040E-003  0.2348647E+03  0.7818608E-02  0.1123262E+00
          2   -1    0    0  501    0  0.00000000000E+00  0.00000000000E+00  0.44078088829E+03  0.44078088829E+03  0.25500000000E-02 0.  1.
         -2   -1    0    0    0  501 -0.00000000000E+00 -0.00000000000E+00 -0.31286196200E+02  0.31286196304E+02  0.25500000000E-02 0. -1.
    5000001    1    1    2    0    0 -0.34177384263E+02 -0.81784786878E+02  0.20901698026E+03  0.23973723740E+03  0.77000000000E+02 0.  0.
   -5000001    1    1    2    0    0  0.34177384263E+02  0.81784786878E+02  0.20047771183E+03  0.23232984720E+03  0.77000000000E+02 0.  0.
<mgrwt>
<rscale>  0 0.23486470E+03</rscale>
<asrwt>0</asrwt>
<pdfrwt beam="1">  1        2 0.62968693E-01 0.23486470E+03</pdfrwt>
<pdfrwt beam="2">  1       -2 0.44694570E-02 0.23486470E+03</pdfrwt>
<totfact> 0.17753644E+04</totfact>
</mgrwt>
</event>
<event>
 4    1  0.1330040E-003  0.6171954E+03  0.7818608E-02  0.9870360E-01
         -2   -1    0    0    0  501 -0.00000000000E+00  0.00000000000E+00  0.41840421612E+02  0.41840421690E+02  0.25500000000E-02 0. -1.
          2   -1    0    0  501    0  0.00000000000E+00 -0.00000000000E+00 -0.22760894535E+04  0.22760894535E+04  0.25500000000E-02 0.  1.
    5000001    1    1    2    0    0  0.67538004562E+02 -0.26468024725E+03 -0.66199273397E+03  0.72026411487E+03  0.77000000000E+02 0.  0.
   -5000001    1    1    2    0    0 -0.67538004562E+02  0.26468024725E+03 -0.15722562979E+04  0.15976657603E+04  0.77000000000E+02 0.  0.
<mgrwt>
<rscale>  0 0.61719541E+03</rscale>
<asrwt>0</asrwt>
<pdfrwt beam="1">  1        2 0.32515556E+00 0.61719541E+03</pdfrwt>
<pdfrwt beam="2">  1       -2 0.59772045E-02 0.61719541E+03</pdfrwt>
<totfact> 0.93378144E+02</totfact>
</mgrwt>
</event>
<event>
 4    1  0.1330040E-003  0.3581300E+03  0.7818608E-02  0.1059327E+00
          2   -1    0    0  501    0  0.00000000000E+00  0.00000000000E+00  0.22089114858E+04  0.22089114858E+04  0.25500000000E-02 0.  1.
         -2   -1    0    0    0  501 -0.00000000000E+00 -0.00000000000E+00 -0.14515871064E+02  0.14515871288E+02  0.25500000000E-02 0. -1.
    5000001    1    1    2    0    0 -0.29813649561E+02  0.13766331647E+03  0.60460494394E+03  0.62555270013E+03  0.77000000000E+02 0.  0.
   -5000001    1    1    2    0    0  0.29813649561E+02 -0.13766331647E+03  0.15897906708E+04  0.15978746570E+04  0.77000000000E+02 0.  0.
<mgrwt>
<rscale>  0 0.35813000E+03</rscale>
<asrwt>0</asrwt>
<pdfrwt beam="1">  1        2 0.31555859E+00 0.35813000E+03</pdfrwt>
<pdfrwt beam="2">  1       -2 0.20736971E-02 0.35813000E+03</pdfrwt>
<totfact> 0.51149031E+03</totfact>
</mgrwt>
</event>
<event>
 4    1  0.1330040E-003  0.4167821E+03  0.7818608E-02  0.1038119E+00
         -2   -1    0    0    0  501 -0.00000000000E+00  0.00000000000E+00  0.66956434481E+03  0.66956434481E+03  0.25500000000E-02 0. -1.
          2   -1    0    0  501    0  0.00000000000E+00 -0.00000000000E+00 -0.64858348905E+02  0.64858348956E+02  0.25500000000E-02 0.  1.
    5000001    1    1    2    0    0 -0.15605878951E+03 -0.63850984979E+02  0.47013982900E+03  0.50536299120E+03  0.77000000000E+02 0.  0.
   -5000001    1    1    2    0    0  0.15605878951E+03  0.63850984979E+02  0.13456616690E+03  0.22905970256E+03  0.77000000000E+02 0.  0.
<mgrwt>
<rscale>  0 0.41678214E+03</rscale>
<asrwt>0</asrwt>
<pdfrwt beam="1">  1        2 0.92654786E-02 0.41678214E+03</pdfrwt>
<pdfrwt beam="2">  1       -2 0.95652048E-01 0.41678214E+03</pdfrwt>
<totfact> 0.67556706E+02</totfact>
</mgrwt>
</event>
<event>
 4    1  0.1330040E-003  0.4833597E+03  0.7818608E-02  0.1018216E+00
          2   -1    0    0  501    0  0.00000000000E+00  0.00000000000E+00  0.53466964105E+03  0.53466964106E+03  0.25500000000E-02 0.  1.
         -2   -1    0    0    0  501 -0.00000000000E+00 -0.00000000000E+00 -0.10924343062E+03  0.10924343065E+03  0.25500000000E-02 0. -1.
    5000001    1    1    2    0    0  0.57818339910E+02  0.21085412474E+03  0.30382479299E+03  0.38215301541E+03  0.77000000000E+02 0.  0.
   -5000001    1    1    2    0    0 -0.57818339910E+02 -0.21085412474E+03  0.12160141744E+03  0.26176005630E+03  0.77000000000E+02 0.  0.
<mgrwt>
<rscale>  0 0.48335968E+03</rscale>
<asrwt>0</asrwt>
<pdfrwt beam="1">  1        2 0.76381378E-01 0.48335968E+03</pdfrwt>
<pdfrwt beam="2">  1       -2 0.15606204E-01 0.48335968E+03</pdfrwt>
<totfact> 0.20247267E+03</totfact>
</mgrwt>
</event>
<event>
 4    1  0.1330040E-003  0.1878368E+03  0.7818608E-02  0.1160427E+00
          2   -1    0    0  501    0  0.00000000000E+00  0.00000000000E+00  0.30100830865E+04  0.30100830865E+04  0.25500000000E-02 0.  1.
         -2   -1    0    0    0  501 -0.00000000000E+00 -0.00000000000E+00 -0.29303738191E+01  0.29303749286E+01  0.25500000000E-02 0. -1.
    5000001    1    1    2    0    0 -0.15901889178E+02 -0.48940432916E+02  0.12532022071E+04  0.12566195956E+04  0.77000000000E+02 0.  0.
   -5000001    1    1    2    0    0  0.15901889178E+02  0.48940432916E+02  0.17539505056E+04  0.17563938659E+04  0.77000000000E+02 0.  0.
<mgrwt>
<rscale>  0 0.18783685E+03</rscale>
<asrwt>0</asrwt>
<pdfrwt beam="1">  1        2 0.43001152E+00 0.18783685E+03</pdfrwt>
<pdfrwt beam="2">  1       -2 0.41862525E-03 0.18783685E+03</pdfrwt>
<totfact> 0.20393230E+04</totfact>
</mgrwt>
</event>
<event>
 4    1  0.1330040E-003  0.1999922E+03  0.7818608E-02  0.1149746E+00
          2   -1    0    0  501    0  0.00000000000E+00  0.00000000000E+00  0.50532405003E+01  0.50532411437E+01  0.25500000000E-02 0.  1.
         -2   -1    0    0    0  501 -0.00000000000E+00 -0.00000000000E+00 -0.19787746464E+04  0.19787746464E+04  0.25500000000E-02 0. -1.
    5000001    1    1    2    0    0 -0.20829118426E+02  0.41771873453E+02 -0.14182725600E+04  0.14211280013E+04  0.77000000000E+02 0.  0.
   -5000001    1    1    2    0    0  0.20829118426E+02 -0.41771873453E+02 -0.55544884587E+03  0.56269988623E+03  0.77000000000E+02 0.  0.
<mgrwt>
<rscale>  0 0.19999225E+03</rscale>
<asrwt>0</asrwt>
<pdfrwt beam="1">  1        2 0.72189281E-03 0.19999225E+03</pdfrwt>
<pdfrwt beam="2">  1       -2 0.28268160E+00 0.19999225E+03</pdfrwt>
<totfact> 0.10451673E+03</totfact>
</mgrwt>
</event>
<event>
 4    1  0.1330040E-003  0.3185753E+03  0.7818608E-02  0.1076307E+00
         -2   -1    0    0    0  501 -0.00000000000E+00  0.00000000000E+00  0.58583525227E+02  0.58583525283E+02  0.25500000000E-02 0. -1.
          2   -1    0    0  501    0  0.00000000000E+00 -0.00000000000E+00 -0.43310060501E+03  0.43310060501E+03  0.25500000000E-02 0.  1.
    5000001    1    1    2    0    0  0.26613611349E+02  0.11837914733E+03 -0.81205993312E+02  0.16506156482E+03  0.77000000000E+02 0.  0.
   -5000001    1    1    2    0    0 -0.26613611349E+02 -0.11837914733E+03 -0.29331108647E+03  0.32662256547E+03  0.77000000000E+02 0.  0.
<mgrwt>
<rscale>  0 0.31857533E+03</rscale>
<asrwt>0</asrwt>
<pdfrwt beam="1">  1        2 0.61871513E-01 0.31857533E+03</pdfrwt>
<pdfrwt beam="2">  1       -2 0.83690753E-02 0.31857533E+03</pdfrwt>
<totfact> 0.69925615E+03</totfact>
</mgrwt>
</event>
<event>
 4    1  0.1330040E-003  0.3782584E+03  0.7818608E-02  0.1051579E+00
          2   -1    0    0  501    0  0.00000000000E+00  0.00000000000E+00  0.18008346743E+04  0.18008346744E+04  0.25500000000E-02 0. -1.
         -2   -1    0    0    0  501 -0.00000000000E+00 -0.00000000000E+00 -0.19862925937E+02  0.19862926101E+02  0.25500000000E-02 0.  1.
    5000001    1    1    2    0    0 -0.62019723486E+02 -0.15905931632E+03  0.10173374749E+04  0.10344326223E+04  0.77000000000E+02 0.  0.
   -5000001    1    1    2    0    0  0.62019723486E+02  0.15905931632E+03  0.76363427352E+03  0.78626497817E+03  0.77000000000E+02 0.  0.
<mgrwt>
<rscale>  0 0.37825836E+03</rscale>
<asrwt>0</asrwt>
<pdfrwt beam="1">  1        2 0.25726219E+00 0.37825836E+03</pdfrwt>
<pdfrwt beam="2">  1       -2 0.28375598E-02 0.37825836E+03</pdfrwt>
<totfact> 0.50950579E+03</totfact>
</mgrwt>
</event>
<event>
 4    1  0.1330040E-003  0.1856493E+03  0.7818608E-02  0.1162445E+00
         -2   -1    0    0    0  501 -0.00000000000E+00  0.00000000000E+00  0.60066059312E+01  0.60066064725E+01  0.25500000000E-02 0. -1.
          2   -1    0    0  501    0  0.00000000000E+00 -0.00000000000E+00 -0.14344902829E+04  0.14344902829E+04  0.25500000000E-02 0.  1.
    5000001    1    1    2    0    0  0.17656622567E+01 -0.48822190578E+02 -0.84879118620E+03  0.85367570050E+03  0.77000000000E+02 0.  0.
   -5000001    1    1    2    0    0 -0.17656622567E+01  0.48822190578E+02 -0.57969249072E+03  0.58682118883E+03  0.77000000000E+02 0.  0.
<mgrwt>
<rscale>  0 0.18564933E+03</rscale>
<asrwt>0</asrwt>
<pdfrwt beam="1">  1        2 0.20492696E+00 0.18564933E+03</pdfrwt>
<pdfrwt beam="2">  1       -2 0.85808752E-03 0.18564933E+03</pdfrwt>
<totfact> 0.43644560E+04</totfact>
</mgrwt>
</event>
<event>
 4    1  0.1330040E-003  0.4614905E+03  0.7818608E-02  0.1024350E+00
          2   -1    0    0  501    0  0.00000000000E+00  0.00000000000E+00  0.18508824637E+04  0.18508824637E+04  0.25500000000E-02 0.  1.
         -2   -1    0    0    0  501 -0.00000000000E+00 -0.00000000000E+00 -0.28766479159E+02  0.28766479272E+02  0.25500000000E-02 0. -1.
    5000001    1    1    2    0    0  0.20646773677E+03 -0.53351343297E+02  0.10857263577E+04  0.11091465259E+04  0.77000000000E+02 0.  0.
   -5000001    1    1    2    0    0 -0.20646773677E+03  0.53351343297E+02  0.73638962679E+03  0.77050241700E+03  0.77000000000E+02 0.  0.
<mgrwt>
<rscale>  0 0.46149051E+03</rscale>
<asrwt>0</asrwt>
<pdfrwt beam="1">  1        2 0.26441187E+00 0.46149051E+03</pdfrwt>
<pdfrwt beam="2">  1       -2 0.41094956E-02 0.46149051E+03</pdfrwt>
<totfact> 0.27435104E+03</totfact>
</mgrwt>
</event>
<event>
 4    1  0.1330040E-003  0.4098548E+03  0.7818608E-02  0.1040420E+00
         -2   -1    0    0    0  501 -0.00000000000E+00  0.00000000000E+00  0.22188684637E+02  0.22188684784E+02  0.25500000000E-02 0. -1.
          2   -1    0    0  501    0  0.00000000000E+00 -0.00000000000E+00 -0.18926420054E+04  0.18926420054E+04  0.25500000000E-02 0.  1.
    5000001    1    1    2    0    0 -0.18251738283E+03  0.36284687463E+02 -0.11123347073E+04  0.11304188050E+04  0.77000000000E+02 0.  0.
   -5000001    1    1    2    0    0  0.18251738283E+03 -0.36284687463E+02 -0.75811861350E+03  0.78441188525E+03  0.77000000000E+02 0.  0.
<mgrwt>
<rscale>  0 0.40985479E+03</rscale>
<asrwt>0</asrwt>
<pdfrwt beam="1">  1        2 0.27037733E+00 0.40985479E+03</pdfrwt>
<pdfrwt beam="2">  1       -2 0.31698133E-02 0.40985479E+03</pdfrwt>
<totfact> 0.38831591E+03</totfact>
</mgrwt>
</event>
<event>
 4    1  0.1330040E-003  0.2641670E+03  0.7818608E-02  0.1104665E+00
         -2   -1    0    0    0  501 -0.00000000000E+00  0.00000000000E+00  0.40387089790E+02  0.40387089870E+02  0.25500000000E-02 0. -1.
          2   -1    0    0  501    0  0.00000000000E+00 -0.00000000000E+00 -0.43197093512E+03  0.43197093513E+03  0.25500000000E-02 0.  1.
    5000001    1    1    2    0    0  0.10014191035E+03 -0.37907625889E+02 -0.20864373298E+03  0.24683313720E+03  0.77000000000E+02 0.  0.
   -5000001    1    1    2    0    0 -0.10014191035E+03  0.37907625889E+02 -0.18294011235E+03  0.22552488780E+03  0.77000000000E+02 0.  0.
<mgrwt>
<rscale>  0 0.26416698E+03</rscale>
<asrwt>0</asrwt>
<pdfrwt beam="1">  1        2 0.61710131E-01 0.26416698E+03</pdfrwt>
<pdfrwt beam="2">  1       -2 0.57695845E-02 0.26416698E+03</pdfrwt>
<totfact> 0.12392336E+04</totfact>
</mgrwt>
</event>
<event>
 4    1  0.1330040E-003  0.2592573E+03  0.7818608E-02  0.1107590E+00
         -2   -1    0    0    0  501 -0.00000000000E+00  0.00000000000E+00  0.65709207850E+02  0.65709207899E+02  0.25500000000E-02 0. -1.
          2   -1    0    0  501    0  0.00000000000E+00 -0.00000000000E+00 -0.25572647648E+03  0.25572647649E+03  0.25500000000E-02 0.  1.
    5000001    1    1    2    0    0 -0.75599648530E+02 -0.14573917246E+02 -0.18221109539E+03  0.21226773002E+03  0.77000000000E+02 0.  0.
   -5000001    1    1    2    0    0  0.75599648530E+02  0.14573917246E+02 -0.78061732345E+01  0.10916795437E+03  0.77000000000E+02 0.  0.
<mgrwt>
<rscale>  0 0.25925728E+03</rscale>
<asrwt>0</asrwt>
<pdfrwt beam="1">  1        2 0.36532353E-01 0.25925728E+03</pdfrwt>
<pdfrwt beam="2">  1       -2 0.93870299E-02 0.25925728E+03</pdfrwt>
<totfact> 0.10229257E+04</totfact>
</mgrwt>
</event>
<event>
 4    1  0.1330040E-003  0.3475774E+03  0.7818608E-02  0.1063614E+00
          2   -1    0    0  501    0  0.00000000000E+00  0.00000000000E+00  0.83479294920E+03  0.83479294920E+03  0.25500000000E-02 0.  1.
         -2   -1    0    0    0  501 -0.00000000000E+00 -0.00000000000E+00 -0.36179650961E+02  0.36179651051E+02  0.25500000000E-02 0. -1.
    5000001    1    1    2    0    0 -0.13061493284E+03 -0.83924480603E+02  0.36664043978E+03  0.40553395814E+03  0.77000000000E+02 0.  0.
   -5000001    1    1    2    0    0  0.13061493284E+03  0.83924480603E+02  0.43197285846E+03  0.46543864211E+03  0.77000000000E+02 0.  0.
<mgrwt>
<rscale>  0 0.34757743E+03</rscale>
<asrwt>0</asrwt>
<pdfrwt beam="1">  1        2 0.11925613E+00 0.34757743E+03</pdfrwt>
<pdfrwt beam="2">  1       -2 0.51685218E-02 0.34757743E+03</pdfrwt>
<totfact> 0.69089771E+03</totfact>
</mgrwt>
</event>
<event>
 4    1  0.1330040E-003  0.3139562E+03  0.7818608E-02  0.1078465E+00
         -2   -1    0    0    0  501 -0.00000000000E+00  0.00000000000E+00  0.10037318926E+02  0.10037319250E+02  0.25500000000E-02 0. -1.
          2   -1    0    0  501    0  0.00000000000E+00 -0.00000000000E+00 -0.24550499502E+04  0.24550499502E+04  0.25500000000E-02 0.  1.
    5000001    1    1    2    0    0 -0.49621306776E+02  0.83431185478E+02 -0.19792922768E+04  0.19831666480E+04  0.77000000000E+02 0.  0.
   -5000001    1    1    2    0    0  0.49621306776E+02 -0.83431185478E+02 -0.46572035452E+03  0.48192062148E+03  0.77000000000E+02 0.  0.
<mgrwt>
<rscale>  0 0.31395617E+03</rscale>
<asrwt>0</asrwt>
<pdfrwt beam="1">  1        2 0.35072104E+00 0.31395617E+03</pdfrwt>
<pdfrwt beam="2">  1       -2 0.14339043E-02 0.31395617E+03</pdfrwt>
<totfact> 0.66553445E+03</totfact>
</mgrwt>
</event>
<event>
 4    1  0.1330040E-003  0.2101098E+03  0.7818608E-02  0.1141479E+00
          2   -1    0    0  501    0  0.00000000000E+00  0.00000000000E+00  0.32944498796E+03  0.32944498797E+03  0.25500000000E-02 0.  1.
         -2   -1    0    0    0  501 -0.00000000000E+00 -0.00000000000E+00 -0.33500382956E+02  0.33500383053E+02  0.25500000000E-02 0. -1.
    5000001    1    1    2    0    0  0.39494328840E+01  0.70341849037E+02  0.16869828571E+03  0.19837259223E+03  0.77000000000E+02 0.  0.
   -5000001    1    1    2    0    0 -0.39494328840E+01 -0.70341849037E+02  0.12724631929E+03  0.16457277879E+03  0.77000000000E+02 0.  0.
<mgrwt>
<rscale>  0 0.21010981E+03</rscale>
<asrwt>0</asrwt>
<pdfrwt beam="1">  1        2 0.47063570E-01 0.21010981E+03</pdfrwt>
<pdfrwt beam="2">  1       -2 0.47857690E-02 0.21010981E+03</pdfrwt>
<totfact> 0.21739642E+04</totfact>
</mgrwt>
</event>
<event>
 4    1  0.1330040E-003  0.2110918E+03  0.7818608E-02  0.1140704E+00
          2   -1    0    0  501    0  0.00000000000E+00  0.00000000000E+00  0.60936775597E+03  0.60936775598E+03  0.25500000000E-02 0.  1.
         -2   -1    0    0    0  501 -0.00000000000E+00 -0.00000000000E+00 -0.18281137340E+02  0.18281137518E+02  0.25500000000E-02 0. -1.
    5000001    1    1    2    0    0 -0.51687143898E+02  0.17946362522E+02  0.15553366746E+03  0.18197075173E+03  0.77000000000E+02 0.  0.
   -5000001    1    1    2    0    0  0.51687143898E+02 -0.17946362522E+02  0.43555295117E+03  0.44567814176E+03  0.77000000000E+02 0.  0.
<mgrwt>
<rscale>  0 0.21109179E+03</rscale>
<asrwt>0</asrwt>
<pdfrwt beam="1">  1        2 0.87052530E-01 0.21109179E+03</pdfrwt>
<pdfrwt beam="2">  1       -2 0.26115913E-02 0.21109179E+03</pdfrwt>
<totfact> 0.27419043E+04</totfact>
</mgrwt>
</event>
<event>
 4    1  0.1330040E-003  0.2240065E+03  0.7818608E-02  0.1130931E+00
          2   -1    0    0  501    0  0.00000000000E+00  0.00000000000E+00  0.37587609796E+02  0.37587609882E+02  0.25500000000E-02 0.  1.
         -2   -1    0    0    0  501 -0.00000000000E+00 -0.00000000000E+00 -0.33374644873E+03  0.33374644874E+03  0.25500000000E-02 0. -1.
    5000001    1    1    2    0    0 -0.78642888545E+02 -0.16531173963E+02 -0.16889965253E+03  0.20227228247E+03  0.77000000000E+02 0.  0.
   -5000001    1    1    2    0    0  0.78642888545E+02  0.16531173963E+02 -0.12725918641E+03  0.16906177616E+03  0.77000000000E+02 0.  0.
<mgrwt>
<rscale>  0 0.22400653E+03</rscale>
<asrwt>0</asrwt>
<pdfrwt beam="1">  1        2 0.53696587E-02 0.22400653E+03</pdfrwt>
<pdfrwt beam="2">  1       -2 0.47678062E-01 0.22400653E+03</pdfrwt>
<totfact> 0.59322742E+03</totfact>
</mgrwt>
</event>
<event>
 4    1  0.1330040E-003  0.1720752E+03  0.7818608E-02  0.1175701E+00
         -2   -1    0    0    0  501 -0.00000000000E+00  0.00000000000E+00  0.58808395498E+01  0.58808401026E+01  0.25500000000E-02 0. -1.
          2   -1    0    0  501    0  0.00000000000E+00 -0.00000000000E+00 -0.12587435533E+04  0.12587435533E+04  0.25500000000E-02 0.  1.
    5000001    1    1    2    0    0  0.23581854637E+02 -0.23262534188E+02 -0.76898033596E+03  0.77353539444E+03  0.77000000000E+02 0.  0.
   -5000001    1    1    2    0    0 -0.23581854637E+02  0.23262534188E+02 -0.48388237783E+03  0.49108899900E+03  0.77000000000E+02 0.  0.
<mgrwt>
<rscale>  0 0.17207521E+03</rscale>
<asrwt>0</asrwt>
<pdfrwt beam="1">  1        2 0.17982034E+00 0.17207521E+03</pdfrwt>
<pdfrwt beam="2">  1       -2 0.84012078E-03 0.17207521E+03</pdfrwt>
<totfact> 0.55040817E+04</totfact>
</mgrwt>
</event>
<event>
 4    1  0.1330040E-003  0.3283465E+03  0.7818608E-02  0.1071871E+00
         -2   -1    0    0    0  501 -0.00000000000E+00  0.00000000000E+00  0.55321011254E+02  0.55321011313E+02  0.25500000000E-02 0. -1.
          2   -1    0    0  501    0  0.00000000000E+00 -0.00000000000E+00 -0.48720841752E+03  0.48720841753E+03  0.25500000000E-02 0.  1.
    5000001    1    1    2    0    0  0.88928147622E+02 -0.11135287634E+02 -0.40427524104E+03  0.42118841459E+03  0.77000000000E+02 0.  0.
   -5000001    1    1    2    0    0 -0.88928147622E+02  0.11135287634E+02 -0.27612165227E+02  0.12134101425E+03  0.77000000000E+02 0.  0.
<mgrwt>
<rscale>  0 0.32834654E+03</rscale>
<asrwt>0</asrwt>
<pdfrwt beam="1">  1        2 0.69601200E-01 0.32834654E+03</pdfrwt>
<pdfrwt beam="2">  1       -2 0.79030019E-02 0.32834654E+03</pdfrwt>
<totfact> 0.67274622E+03</totfact>
</mgrwt>
</event>
<event>
 4    1  0.1330040E-003  0.1057809E+04  0.7818608E-02  0.9247319E-01
          2   -1    0    0  501    0  0.00000000000E+00  0.00000000000E+00  0.13821078050E+04  0.13821078050E+04  0.25500000000E-02 0.  1.
         -2   -1    0    0    0  501 -0.00000000000E+00 -0.00000000000E+00 -0.20240080943E+03  0.20240080945E+03  0.25500000000E-02 0. -1.
    5000001    1    1    2    0    0  0.45785555639E+03  0.20643702235E+03  0.80981158812E+03  0.95601870430E+03  0.77000000000E+02 0.  0.
   -5000001    1    1    2    0    0 -0.45785555639E+03 -0.20643702235E+03  0.36989540747E+03  0.62848991017E+03  0.77000000000E+02 0.  0.
<mgrwt>
<rscale>  0 0.10578086E+04</rscale>
<asrwt>0</asrwt>
<pdfrwt beam="1">  1        2 0.19744397E+00 0.10578086E+04</pdfrwt>
<pdfrwt beam="2">  1       -2 0.28914401E-01 0.10578086E+04</pdfrwt>
<totfact> 0.18454303E+02</totfact>
</mgrwt>
</event>
<event>
 4    1  0.1330040E-003  0.2225949E+03  0.7818608E-02  0.1131963E+00
         -2   -1    0    0    0  501 -0.00000000000E+00  0.00000000000E+00  0.33825575172E+03  0.33825575173E+03  0.25500000000E-02 0. -1.
          2   -1    0    0  501    0  0.00000000000E+00 -0.00000000000E+00 -0.36620567571E+02  0.36620567660E+02  0.25500000000E-02 0.  1.
    5000001    1    1    2    0    0  0.66264264348E+02 -0.28910937573E+02  0.20991368981E+03  0.23498840867E+03  0.77000000000E+02 0.  0.
   -5000001    1    1    2    0    0 -0.66264264348E+02  0.28910937573E+02  0.91721494340E+02  0.13988791072E+03  0.77000000000E+02 0.  0.
<mgrwt>
<rscale>  0 0.22259486E+03</rscale>
<asrwt>0</asrwt>
<pdfrwt beam="1">  1        2 0.52315092E-02 0.22259486E+03</pdfrwt>
<pdfrwt beam="2">  1       -2 0.48322255E-01 0.22259486E+03</pdfrwt>
<totfact> 0.59760399E+03</totfact>
</mgrwt>
</event>
<event>
 4    1  0.1330040E-003  0.3215412E+03  0.7818608E-02  0.1074942E+00
         -2   -1    0    0    0  501 -0.00000000000E+00  0.00000000000E+00  0.17411754173E+02  0.17411754360E+02  0.25500000000E-02 0. -1.
          2   -1    0    0  501    0  0.00000000000E+00 -0.00000000000E+00 -0.14844675615E+04  0.14844675615E+04  0.25500000000E-02 0.  1.
    5000001    1    1    2    0    0  0.89623933509E+02 -0.96881681442E+02 -0.49999925244E+03  0.52282574735E+03  0.77000000000E+02 0.  0.
   -5000001    1    1    2    0    0 -0.89623933509E+02  0.96881681442E+02 -0.96705655492E+03  0.97905356854E+03  0.77000000000E+02 0.  0.
<mgrwt>
<rscale>  0 0.32154119E+03</rscale>
<asrwt>0</asrwt>
<pdfrwt beam="1">  1        2 0.21206671E+00 0.32154119E+03</pdfrwt>
<pdfrwt beam="2">  1       -2 0.24873944E-02 0.32154119E+03</pdfrwt>
<totfact> 0.89233648E+03</totfact>
</mgrwt>
</event>
<event>
 4    1  0.1330040E-003  0.3005612E+03  0.7818608E-02  0.1084960E+00
         -2   -1    0    0    0  501 -0.00000000000E+00  0.00000000000E+00  0.44115034655E+03  0.44115034655E+03  0.25500000000E-02 0. -1.
          2   -1    0    0  501    0  0.00000000000E+00 -0.00000000000E+00 -0.51194003436E+02  0.51194003499E+02  0.25500000000E-02 0.  1.
    5000001    1    1    2    0    0 -0.49285559134E+02  0.11573840421E+03  0.24219386724E+03  0.28356888736E+03  0.77000000000E+02 0.  0.
   -5000001    1    1    2    0    0  0.49285559134E+02 -0.11573840421E+03  0.14776247587E+03  0.20877546269E+03  0.77000000000E+02 0.  0.
<mgrwt>
<rscale>  0 0.30056116E+03</rscale>
<asrwt>0</asrwt>
<pdfrwt beam="1">  1        2 0.73134295E-02 0.30056116E+03</pdfrwt>
<pdfrwt beam="2">  1       -2 0.63021474E-01 0.30056116E+03</pdfrwt>
<totfact> 0.22796435E+03</totfact>
</mgrwt>
</event>
<event>
 4    1  0.1330040E-003  0.1780805E+03  0.7818608E-02  0.1169674E+00
         -2   -1    0    0    0  501 -0.00000000000E+00  0.00000000000E+00  0.19105136665E+02  0.19105136835E+02  0.25500000000E-02 0. -1.
          2   -1    0    0  501    0  0.00000000000E+00 -0.00000000000E+00 -0.41497557924E+03  0.41497557925E+03  0.25500000000E-02 0.  1.
    5000001    1    1    2    0    0 -0.38561688411E+02 -0.18870440799E+02 -0.16748356866E+03  0.18926923448E+03  0.77000000000E+02 0.  0.
   -5000001    1    1    2    0    0  0.38561688411E+02  0.18870440799E+02 -0.22838687392E+03  0.24481148161E+03  0.77000000000E+02 0.  0.
<mgrwt>
<rscale>  0 0.17808049E+03</rscale>
<asrwt>0</asrwt>
<pdfrwt beam="1">  1        2 0.59282220E-01 0.17808049E+03</pdfrwt>
<pdfrwt beam="2">  1       -2 0.27293055E-02 0.17808049E+03</pdfrwt>
<totfact> 0.38666650E+04</totfact>
</mgrwt>
</event>
<event>
 4    1  0.1330040E-003  0.2733387E+03  0.7818608E-02  0.1099384E+00
         -2   -1    0    0    0  501 -0.00000000000E+00  0.00000000000E+00  0.12523608838E+02  0.12523609097E+02  0.25500000000E-02 0. -1.
          2   -1    0    0  501    0  0.00000000000E+00 -0.00000000000E+00 -0.14914638690E+04  0.14914638690E+04  0.25500000000E-02 0.  1.
    5000001    1    1    2    0    0  0.11849863727E+02 -0.10129403039E+03 -0.10061244347E+04  0.10142072165E+04  0.77000000000E+02 0.  0.
   -5000001    1    1    2    0    0 -0.11849863727E+02  0.10129403039E+03 -0.47281582547E+03  0.48978026162E+03  0.77000000000E+02 0.  0.
<mgrwt>
<rscale>  0 0.27333869E+03</rscale>
<asrwt>0</asrwt>
<pdfrwt beam="1">  1        2 0.21306615E+00 0.27333869E+03</pdfrwt>
<pdfrwt beam="2">  1       -2 0.17890880E-02 0.27333869E+03</pdfrwt>
<totfact> 0.14342596E+04</totfact>
</mgrwt>
</event>
<event>
 4    1  0.1330040E-003  0.2905922E+03  0.7818608E-02  0.1090040E+00
         -2   -1    0    0    0  501 -0.00000000000E+00  0.00000000000E+00  0.26887684076E+02  0.26887684197E+02  0.25500000000E-02 0. -1.
          2   -1    0    0  501    0  0.00000000000E+00 -0.00000000000E+00 -0.78515350434E+03  0.78515350434E+03  0.25500000000E-02 0.  1.
    5000001    1    1    2    0    0 -0.84023962931E+02 -0.37870859942E+02 -0.15060803694E+03  0.19262920124E+03  0.77000000000E+02 0.  0.
   -5000001    1    1    2    0    0  0.84023962931E+02  0.37870859942E+02 -0.60765778332E+03  0.61941198730E+03  0.77000000000E+02 0.  0.
<mgrwt>
<rscale>  0 0.29059222E+03</rscale>
<asrwt>0</asrwt>
<pdfrwt beam="1">  1        2 0.11216477E+00 0.29059222E+03</pdfrwt>
<pdfrwt beam="2">  1       -2 0.38410982E-02 0.29059222E+03</pdfrwt>
<totfact> 0.11641986E+04</totfact>
</mgrwt>
</event>
<event>
 4    1  0.1330040E-003  0.2469453E+03  0.7818608E-02  0.1115251E+00
         -2   -1    0    0    0  501 -0.00000000000E+00  0.00000000000E+00  0.22824913192E+02  0.22824913334E+02  0.25500000000E-02 0.  1.
          2   -1    0    0  501    0  0.00000000000E+00 -0.00000000000E+00 -0.66793241051E+03  0.66793241051E+03  0.25500000000E-02 0. -1.
    5000001    1    1    2    0    0  0.75681366372E+02 -0.16361441186E+02 -0.16135271075E+03  0.19483085803E+03  0.77000000000E+02 0.  0.
   -5000001    1    1    2    0    0 -0.75681366372E+02  0.16361441186E+02 -0.48375478656E+03  0.49592646582E+03  0.77000000000E+02 0.  0.
<mgrwt>
<rscale>  0 0.24694533E+03</rscale>
<asrwt>0</asrwt>
<pdfrwt beam="1">  1        2 0.95418904E-01 0.24694533E+03</pdfrwt>
<pdfrwt beam="2">  1       -2 0.32607023E-02 0.24694533E+03</pdfrwt>
<totfact> 0.17927484E+04</totfact>
</mgrwt>
</event>
<event>
 4    1  0.1330040E-003  0.1847018E+03  0.7818608E-02  0.1163329E+00
          2   -1    0    0  501    0  0.00000000000E+00  0.00000000000E+00  0.24757383264E+03  0.24757383265E+03  0.25500000000E-02 0.  1.
         -2   -1    0    0    0  501 -0.00000000000E+00 -0.00000000000E+00 -0.34449064709E+02  0.34449064804E+02  0.25500000000E-02 0. -1.
    5000001    1    1    2    0    0  0.39338683087E+02  0.32434474174E+02  0.10717294571E+03  0.14147285038E+03  0.77000000000E+02 0.  0.
   -5000001    1    1    2    0    0 -0.39338683087E+02 -0.32434474174E+02  0.10595182222E+03  0.14055004708E+03  0.77000000000E+02 0.  0.
<mgrwt>
<rscale>  0 0.18470178E+03</rscale>
<asrwt>0</asrwt>
<pdfrwt beam="1">  1        2 0.35367690E-01 0.18470178E+03</pdfrwt>
<pdfrwt beam="2">  1       -2 0.49212950E-02 0.18470178E+03</pdfrwt>
<totfact> 0.28019944E+04</totfact>
</mgrwt>
</event>
<event>
 4    1  0.1330040E-003  0.1905200E+03  0.7818608E-02  0.1157993E+00
          2   -1    0    0  501    0  0.00000000000E+00  0.00000000000E+00  0.11014554337E+04  0.11014554337E+04  0.25500000000E-02 0.  1.
         -2   -1    0    0    0  501 -0.00000000000E+00 -0.00000000000E+00 -0.82386134638E+01  0.82386138585E+01  0.25500000000E-02 0. -1.
    5000001    1    1    2    0    0  0.23573761974E+02 -0.93380695462E+01  0.83798428278E+03  0.84189641880E+03  0.77000000000E+02 0.  0.
   -5000001    1    1    2    0    0 -0.23573761974E+02  0.93380695462E+01  0.25523253749E+03  0.26779762880E+03  0.77000000000E+02 0.  0.
<mgrwt>
<rscale>  0 0.19051998E+03</rscale>
<asrwt>0</asrwt>
<pdfrwt beam="1">  1        2 0.15735051E+00 0.19051998E+03</pdfrwt>
<pdfrwt beam="2">  1       -2 0.11769468E-02 0.19051998E+03</pdfrwt>
<totfact> 0.41527613E+04</totfact>
</mgrwt>
</event>
<event>
 4    1  0.1330040E-003  0.2694386E+03  0.7818608E-02  0.1101601E+00
         -2   -1    0    0    0  501 -0.00000000000E+00  0.00000000000E+00  0.89615778640E+01  0.89615782268E+01  0.25500000000E-02 0. -1.
          2   -1    0    0  501    0  0.00000000000E+00 -0.00000000000E+00 -0.20252340639E+04  0.20252340639E+04  0.25500000000E-02 0.  1.
    5000001    1    1    2    0    0  0.91516123765E+02 -0.44031277410E+02 -0.67850155026E+03  0.69036751662E+03  0.77000000000E+02 0.  0.
   -5000001    1    1    2    0    0 -0.91516123765E+02  0.44031277410E+02 -0.13377709358E+04  0.13438281255E+04  0.77000000000E+02 0.  0.
<mgrwt>
<rscale>  0 0.26943862E+03</rscale>
<asrwt>0</asrwt>
<pdfrwt beam="1">  1        2 0.28931886E+00 0.26943862E+03</pdfrwt>
<pdfrwt beam="2">  1       -2 0.12802267E-02 0.26943862E+03</pdfrwt>
<totfact> 0.12765879E+04</totfact>
</mgrwt>
</event>
<event>
 4    1  0.1330040E-003  0.3457243E+03  0.7818608E-02  0.1064384E+00
          2   -1    0    0  501    0  0.00000000000E+00  0.00000000000E+00  0.25783545367E+03  0.25783545368E+03  0.25500000000E-02 0.  1.
         -2   -1    0    0    0  501 -0.00000000000E+00 -0.00000000000E+00 -0.11589297152E+03  0.11589297155E+03  0.25500000000E-02 0. -1.
    5000001    1    1    2    0    0 -0.13460886176E+03  0.67953968345E+02  0.33290480080E+02  0.17255301661E+03  0.77000000000E+02 0.  0.
   -5000001    1    1    2    0    0  0.13460886176E+03 -0.67953968345E+02  0.10865200207E+03  0.20117540862E+03  0.77000000000E+02 0.  0.
<mgrwt>
<rscale>  0 0.34572427E+03</rscale>
<asrwt>0</asrwt>
<pdfrwt beam="1">  1        2 0.36833637E-01 0.34572427E+03</pdfrwt>
<pdfrwt beam="2">  1       -2 0.16556139E-01 0.34572427E+03</pdfrwt>
<totfact> 0.40708904E+03</totfact>
</mgrwt>
</event>
<event>
 4    1  0.1330040E-003  0.2148758E+03  0.7818608E-02  0.1137762E+00
          2   -1    0    0  501    0  0.00000000000E+00  0.00000000000E+00  0.70750438826E+03  0.70750438826E+03  0.25500000000E-02 0.  1.
         -2   -1    0    0    0  501 -0.00000000000E+00 -0.00000000000E+00 -0.16314957995E+02  0.16314958195E+02  0.25500000000E-02 0. -1.
    5000001    1    1    2    0    0 -0.20893084493E+02 -0.67782791860E+02  0.42692100317E+03  0.43956975647E+03  0.77000000000E+02 0.  0.
   -5000001    1    1    2    0    0  0.20893084493E+02  0.67782791860E+02  0.26426842709E+03  0.28424958999E+03  0.77000000000E+02 0.  0.
<mgrwt>
<rscale>  0 0.21487582E+03</rscale>
<asrwt>0</asrwt>
<pdfrwt beam="1">  1        2 0.10107203E+00 0.21487582E+03</pdfrwt>
<pdfrwt beam="2">  1       -2 0.23307090E-02 0.21487582E+03</pdfrwt>
<totfact> 0.27302920E+04</totfact>
</mgrwt>
</event>
<event>
 4    1  0.1330040E-003  0.4239541E+03  0.7818608E-02  0.1035787E+00
          2   -1    0    0  501    0  0.00000000000E+00  0.00000000000E+00  0.12338431193E+03  0.12338431195E+03  0.25500000000E-02 0.  1.
         -2   -1    0    0    0  501 -0.00000000000E+00 -0.00000000000E+00 -0.36418146801E+03  0.36418146802E+03  0.25500000000E-02 0. -1.
    5000001    1    1    2    0    0  0.64345302872E+02 -0.18347322607E+03 -0.80517803652E+02  0.22408672293E+03  0.77000000000E+02 0.  0.
   -5000001    1    1    2    0    0 -0.64345302872E+02  0.18347322607E+03 -0.16027935243E+03  0.26347905705E+03  0.77000000000E+02 0.  0.
<mgrwt>
<rscale>  0 0.42395415E+03</rscale>
<asrwt>0</asrwt>
<pdfrwt beam="1">  1        2 0.17626330E-01 0.42395415E+03</pdfrwt>
<pdfrwt beam="2">  1       -2 0.52025924E-01 0.42395415E+03</pdfrwt>
<totfact> 0.11502639E+03</totfact>
</mgrwt>
</event>
<event>
 4    1  0.1330040E-003  0.1917658E+03  0.7818608E-02  0.1156878E+00
          2   -1    0    0  501    0  0.00000000000E+00  0.00000000000E+00  0.35647740906E+03  0.35647740907E+03  0.25500000000E-02 0.  1.
         -2   -1    0    0    0  501 -0.00000000000E+00 -0.00000000000E+00 -0.25789939397E+02  0.25789939523E+02  0.25500000000E-02 0. -1.
    5000001    1    1    2    0    0  0.21241644395E+02  0.45294955749E+02  0.11032820984E+03  0.14354147261E+03  0.77000000000E+02 0.  0.
   -5000001    1    1    2    0    0 -0.21241644395E+02 -0.45294955749E+02  0.22035925982E+03  0.23872587597E+03  0.77000000000E+02 0.  0.
<mgrwt>
<rscale>  0 0.19176580E+03</rscale>
<asrwt>0</asrwt>
<pdfrwt beam="1">  1        2 0.50925341E-01 0.19176580E+03</pdfrwt>
<pdfrwt beam="2">  1       -2 0.36842773E-02 0.19176580E+03</pdfrwt>
<totfact> 0.29370804E+04</totfact>
</mgrwt>
</event>
<event>
 4    1  0.1330040E-003  0.2851794E+03  0.7818608E-02  0.1092893E+00
         -2   -1    0    0    0  501 -0.00000000000E+00  0.00000000000E+00  0.13261124409E+02  0.13261124654E+02  0.25500000000E-02 0. -1.
          2   -1    0    0  501    0  0.00000000000E+00 -0.00000000000E+00 -0.15331900305E+04  0.15331900305E+04  0.25500000000E-02 0.  1.
    5000001    1    1    2    0    0 -0.11676172761E+03 -0.59533490520E+01 -0.90688748911E+03  0.91762882545E+03  0.77000000000E+02 0.  0.
   -5000001    1    1    2    0    0  0.11676172761E+03  0.59533490520E+01 -0.61304141698E+03  0.62882232970E+03  0.77000000000E+02 0.  0.
<mgrwt>
<rscale>  0 0.28517941E+03</rscale>
<asrwt>0</asrwt>
<pdfrwt beam="1">  1        2 0.21902703E+00 0.28517941E+03</pdfrwt>
<pdfrwt beam="2">  1       -2 0.18944473E-02 0.28517941E+03</pdfrwt>
<totfact> 0.12577226E+04</totfact>
</mgrwt>
</event>
<event>
 4    1  0.1330040E-003  0.2043521E+03  0.7818608E-02  0.1146118E+00
         -2   -1    0    0    0  501 -0.00000000000E+00  0.00000000000E+00  0.18460289884E+02  0.18460290060E+02  0.25500000000E-02 0. -1.
          2   -1    0    0  501    0  0.00000000000E+00 -0.00000000000E+00 -0.56553552767E+03  0.56553552768E+03  0.25500000000E-02 0.  1.
    5000001    1    1    2    0    0  0.41104882527E+01 -0.66951974926E+02 -0.28322328664E+03  0.30107124266E+03  0.77000000000E+02 0.  0.
   -5000001    1    1    2    0    0 -0.41104882527E+01  0.66951974926E+02 -0.26385195114E+03  0.28292457508E+03  0.77000000000E+02 0.  0.
<mgrwt>
<rscale>  0 0.20435215E+03</rscale>
<asrwt>0</asrwt>
<pdfrwt beam="1">  1        2 0.80790779E-01 0.20435215E+03</pdfrwt>
<pdfrwt beam="2">  1       -2 0.26371846E-02 0.20435215E+03</pdfrwt>
<totfact> 0.29333256E+04</totfact>
</mgrwt>
</event>
<event>
 4    1  0.1330040E-003  0.3032785E+03  0.7818608E-02  0.1083613E+00
          2   -1    0    0  501    0  0.00000000000E+00  0.00000000000E+00  0.68006161626E+03  0.68006161627E+03  0.25500000000E-02 0.  1.
         -2   -1    0    0    0  501 -0.00000000000E+00 -0.00000000000E+00 -0.33812311994E+02  0.33812312091E+02  0.25500000000E-02 0. -1.
    5000001    1    1    2    0    0 -0.15107920973E+02 -0.12372675581E+03  0.41516303099E+03  0.44025663162E+03  0.77000000000E+02 0.  0.
   -5000001    1    1    2    0    0  0.15107920973E+02  0.12372675581E+03  0.23108627327E+03  0.27361729674E+03  0.77000000000E+02 0.  0.
<mgrwt>
<rscale>  0 0.30327846E+03</rscale>
<asrwt>0</asrwt>
<pdfrwt beam="1">  1        2 0.97151652E-01 0.30327846E+03</pdfrwt>
<pdfrwt beam="2">  1       -2 0.48303306E-02 0.30327846E+03</pdfrwt>
<totfact> 0.98050247E+03</totfact>
</mgrwt>
</event>
<event>
 4    1  0.1330040E-003  0.3558260E+03  0.7818608E-02  0.1060249E+00
          2   -1    0    0  501    0  0.00000000000E+00  0.00000000000E+00  0.18644549969E+04  0.18644549969E+04  0.25500000000E-02 0.  1.
         -2   -1    0    0    0  501 -0.00000000000E+00 -0.00000000000E+00 -0.16977096206E+02  0.16977096397E+02  0.25500000000E-02 0. -1.
    5000001    1    1    2    0    0 -0.12444846181E+03  0.35547881930E+02  0.42287615722E+03  0.44889232105E+03  0.77000000000E+02 0.  0.
   -5000001    1    1    2    0    0  0.12444846181E+03 -0.35547881930E+02  0.14246017434E+04  0.14325397722E+04  0.77000000000E+02 0.  0.
<mgrwt>
<rscale>  0 0.35582598E+03</rscale>
<asrwt>0</asrwt>
<pdfrwt beam="1">  1        2 0.26635083E+00 0.35582598E+03</pdfrwt>
<pdfrwt beam="2">  1       -2 0.24252984E-02 0.35582598E+03</pdfrwt>
<totfact> 0.59912148E+03</totfact>
</mgrwt>
</event>
<event>
 4    1  0.1330040E-003  0.2871340E+03  0.7818608E-02  0.1091855E+00
         -2   -1    0    0    0  501 -0.00000000000E+00  0.00000000000E+00  0.20850371553E+03  0.20850371555E+03  0.25500000000E-02 0. -1.
          2   -1    0    0  501    0  0.00000000000E+00 -0.00000000000E+00 -0.98854298237E+02  0.98854298270E+02  0.25500000000E-02 0.  1.
    5000001    1    1    2    0    0  0.66563241806E+02  0.10125016944E+03  0.54315250912E+02  0.15349725878E+03  0.77000000000E+02 0.  0.
   -5000001    1    1    2    0    0 -0.66563241806E+02 -0.10125016944E+03  0.55334166382E+02  0.15386075504E+03  0.77000000000E+02 0.  0.
<mgrwt>
<rscale>  0 0.28713403E+03</rscale>
<asrwt>0</asrwt>
<pdfrwt beam="1">  1        2 0.14122043E-01 0.28713403E+03</pdfrwt>
<pdfrwt beam="2">  1       -2 0.29786245E-01 0.28713403E+03</pdfrwt>
<totfact> 0.43250118E+03</totfact>
</mgrwt>
</event>
<event>
 4    1  0.1330040E-003  0.1913810E+03  0.7818608E-02  0.1157222E+00
          2   -1    0    0  501    0  0.00000000000E+00  0.00000000000E+00  0.55585402072E+02  0.55585402131E+02  0.25500000000E-02 0.  1.
         -2   -1    0    0    0  501 -0.00000000000E+00 -0.00000000000E+00 -0.16473161672E+03  0.16473161674E+03  0.25500000000E-02 0. -1.
    5000001    1    1    2    0    0 -0.26665869815E+02 -0.50076128383E+02 -0.58023990536E+02  0.11186809520E+03  0.77000000000E+02 0.  0.
   -5000001    1    1    2    0    0  0.26665869815E+02  0.50076128383E+02 -0.51122224116E+02  0.10844892367E+03  0.77000000000E+02 0.  0.
<mgrwt>
<rscale>  0 0.19138101E+03</rscale>
<asrwt>0</asrwt>
<pdfrwt beam="1">  1        2 0.79407718E-02 0.19138101E+03</pdfrwt>
<pdfrwt beam="2">  1       -2 0.23533088E-01 0.19138101E+03</pdfrwt>
<totfact> 0.13068453E+04</totfact>
</mgrwt>
</event>
<event>
 4    1  0.1330040E-003  0.3451935E+03  0.7818608E-02  0.1064605E+00
          2   -1    0    0  501    0  0.00000000000E+00  0.00000000000E+00  0.46944251005E+03  0.46944251006E+03  0.25500000000E-02 0.  1.
         -2   -1    0    0    0  501 -0.00000000000E+00 -0.00000000000E+00 -0.63457468037E+02  0.63457468089E+02  0.25500000000E-02 0. -1.
    5000001    1    1    2    0    0  0.14066892091E+03 -0.44809182623E+02  0.13283959661E+03  0.21300461634E+03  0.77000000000E+02 0.  0.
   -5000001    1    1    2    0    0 -0.14066892091E+03  0.44809182623E+02  0.27314544541E+03  0.31989536180E+03  0.77000000000E+02 0.  0.
<mgrwt>
<rscale>  0 0.34519347E+03</rscale>
<asrwt>0</asrwt>
<pdfrwt beam="1">  1        2 0.67063214E-01 0.34519347E+03</pdfrwt>
<pdfrwt beam="2">  1       -2 0.90653528E-02 0.34519347E+03</pdfrwt>
<totfact> 0.56541983E+03</totfact>
</mgrwt>
</event>
<event>
 4    1  0.1330040E-003  0.1717439E+03  0.7818608E-02  0.1176041E+00
          2   -1    0    0  501    0  0.00000000000E+00  0.00000000000E+00  0.25317496122E+03  0.25317496123E+03  0.25500000000E-02 0.  1.
         -2   -1    0    0    0  501 -0.00000000000E+00 -0.00000000000E+00 -0.29126086104E+02  0.29126086216E+02  0.25500000000E-02 0. -1.
    5000001    1    1    2    0    0 -0.30573903208E+02 -0.21911067841E+02  0.10300076922E+03  0.13398886861E+03  0.77000000000E+02 0.  0.
   -5000001    1    1    2    0    0  0.30573903208E+02  0.21911067841E+02  0.12104810590E+03  0.14831217884E+03  0.77000000000E+02 0.  0.
<mgrwt>
<rscale>  0 0.17174395E+03</rscale>
<asrwt>0</asrwt>
<pdfrwt beam="1">  1        2 0.36167854E-01 0.17174395E+03</pdfrwt>
<pdfrwt beam="2">  1       -2 0.41608691E-02 0.17174395E+03</pdfrwt>
<totfact> 0.34961118E+04</totfact>
</mgrwt>
</event>
<event>
 4    1  0.1330040E-003  0.3468115E+03  0.7818608E-02  0.1063931E+00
          2   -1    0    0  501    0  0.00000000000E+00  0.00000000000E+00  0.12060590433E+04  0.12060590433E+04  0.25500000000E-02 0.  1.
         -2   -1    0    0    0  501 -0.00000000000E+00 -0.00000000000E+00 -0.24932081644E+02  0.24932081774E+02  0.25500000000E-02 0. -1.
    5000001    1    1    2    0    0  0.36007960069E+02  0.15059536851E+03  0.54496656497E+03  0.57174565599E+03  0.77000000000E+02 0.  0.
   -5000001    1    1    2    0    0 -0.36007960069E+02 -0.15059536851E+03  0.63616039671E+03  0.65924546912E+03  0.77000000000E+02 0.  0.
<mgrwt>
<rscale>  0 0.34681155E+03</rscale>
<asrwt>0</asrwt>
<pdfrwt beam="1">  1        2 0.17229412E+00 0.34681155E+03</pdfrwt>
<pdfrwt beam="2">  1       -2 0.35617266E-02 0.34681155E+03</pdfrwt>
<totfact> 0.73161338E+03</totfact>
</mgrwt>
</event>
<event>
 4    1  0.1330040E-003  0.2469005E+03  0.7818608E-02  0.1115279E+00
         -2   -1    0    0    0  501 -0.00000000000E+00  0.00000000000E+00  0.12085366794E+02  0.12085367063E+02  0.25500000000E-02 0. -1.
          2   -1    0    0  501    0  0.00000000000E+00 -0.00000000000E+00 -0.12610264689E+04  0.12610264689E+04  0.25500000000E-02 0.  1.
    5000001    1    1    2    0    0  0.94264144069E+02 -0.58708150493E+01 -0.72640157850E+03  0.73655172838E+03  0.77000000000E+02 0.  0.
   -5000001    1    1    2    0    0 -0.94264144069E+02  0.58708150493E+01 -0.52253952359E+03  0.53656010758E+03  0.77000000000E+02 0.  0.
<mgrwt>
<rscale>  0 0.24690053E+03</rscale>
<asrwt>0</asrwt>
<pdfrwt beam="1">  1        2 0.18014656E+00 0.24690053E+03</pdfrwt>
<pdfrwt beam="2">  1       -2 0.17264818E-02 0.24690053E+03</pdfrwt>
<totfact> 0.19802216E+04</totfact>
</mgrwt>
</event>
<event>
 4    1  0.1330040E-003  0.2053314E+03  0.7818608E-02  0.1145317E+00
         -2   -1    0    0    0  501 -0.00000000000E+00  0.00000000000E+00  0.56287045852E+01  0.56287051628E+01  0.25500000000E-02 0. -1.
          2   -1    0    0  501    0  0.00000000000E+00 -0.00000000000E+00 -0.18725886663E+04  0.18725886663E+04  0.25500000000E-02 0.  1.
    5000001    1    1    2    0    0 -0.52556172455E+02  0.46767037423E+01 -0.54247114447E+03  0.55044342616E+03  0.77000000000E+02 0.  0.
   -5000001    1    1    2    0    0  0.52556172455E+02 -0.46767037423E+01 -0.13244888172E+04  0.13277739453E+04  0.77000000000E+02 0.  0.
<mgrwt>
<rscale>  0 0.20533143E+03</rscale>
<asrwt>0</asrwt>
<pdfrwt beam="1">  1        2 0.26751227E+00 0.20533143E+03</pdfrwt>
<pdfrwt beam="2">  1       -2 0.80410189E-03 0.20533143E+03</pdfrwt>
<totfact> 0.29397517E+04</totfact>
</mgrwt>
</event>
<event>
 4    1  0.1330040E-003  0.3655763E+03  0.7818608E-02  0.1056397E+00
         -2   -1    0    0    0  501 -0.00000000000E+00  0.00000000000E+00  0.41240583177E+03  0.41240583178E+03  0.25500000000E-02 0. -1.
          2   -1    0    0  501    0  0.00000000000E+00 -0.00000000000E+00 -0.81016099212E+02  0.81016099252E+02  0.25500000000E-02 0.  1.
    5000001    1    1    2    0    0 -0.10452060866E+03  0.29906667119E+02 -0.32268264929E+01  0.13326056724E+03  0.77000000000E+02 0.  0.
   -5000001    1    1    2    0    0  0.10452060866E+03 -0.29906667119E+02  0.33461655905E+03  0.36016136379E+03  0.77000000000E+02 0.  0.
<mgrwt>
<rscale>  0 0.36557632E+03</rscale>
<asrwt>0</asrwt>
<pdfrwt beam="1">  1        2 0.11573728E-01 0.36557632E+03</pdfrwt>
<pdfrwt beam="2">  1       -2 0.58915119E-01 0.36557632E+03</pdfrwt>
<totfact> 0.14772284E+03</totfact>
</mgrwt>
</event>
<event>
 4    1  0.1330040E-003  0.3165103E+03  0.7818608E-02  0.1077267E+00
          2   -1    0    0  501    0  0.00000000000E+00  0.00000000000E+00  0.24155168324E+03  0.24155168325E+03  0.25500000000E-02 0.  1.
         -2   -1    0    0    0  501 -0.00000000000E+00 -0.00000000000E+00 -0.10368256257E+03  0.10368256261E+03  0.25500000000E-02 0. -1.
    5000001    1    1    2    0    0  0.12836326255E+03  0.43718583537E+02  0.39519511370E+02  0.16087023807E+03  0.77000000000E+02 0.  0.
   -5000001    1    1    2    0    0 -0.12836326255E+03 -0.43718583537E+02  0.98349609294E+02  0.18436400779E+03  0.77000000000E+02 0.  0.
<mgrwt>
<rscale>  0 0.31651033E+03</rscale>
<asrwt>0</asrwt>
<pdfrwt beam="1">  1        2 0.34507384E-01 0.31651033E+03</pdfrwt>
<pdfrwt beam="2">  1       -2 0.14811795E-01 0.31651033E+03</pdfrwt>
<totfact> 0.52499206E+03</totfact>
</mgrwt>
</event>
<event>
 4    1  0.1330040E-003  0.2687716E+03  0.7818608E-02  0.1101985E+00
          2   -1    0    0  501    0  0.00000000000E+00  0.00000000000E+00  0.18158700721E+04  0.18158700721E+04  0.25500000000E-02 0.  1.
         -2   -1    0    0    0  501 -0.00000000000E+00 -0.00000000000E+00 -0.99453922503E+01  0.99453925772E+01  0.25500000000E-02 0. -1.
    5000001    1    1    2    0    0  0.92066082531E+02  0.52889851032E+02  0.11018346062E+04  0.11096134459E+04  0.77000000000E+02 0.  0.
   -5000001    1    1    2    0    0 -0.92066082531E+02 -0.52889851032E+02  0.70409007360E+03  0.71620201873E+03  0.77000000000E+02 0.  0.
<mgrwt>
<rscale>  0 0.26877158E+03</rscale>
<asrwt>0</asrwt>
<pdfrwt beam="1">  1        2 0.25941017E+00 0.26877158E+03</pdfrwt>
<pdfrwt beam="2">  1       -2 0.14207695E-02 0.26877158E+03</pdfrwt>
<totfact> 0.13871605E+04</totfact>
</mgrwt>
</event>
<event>
 4    1  0.1330040E-003  0.1994024E+03  0.7818608E-02  0.1150244E+00
         -2   -1    0    0    0  501 -0.00000000000E+00  0.00000000000E+00  0.35061139789E+02  0.35061139881E+02  0.25500000000E-02 0. -1.
          2   -1    0    0  501    0  0.00000000000E+00 -0.00000000000E+00 -0.28351419585E+03  0.28351419586E+03  0.25500000000E-02 0.  1.
    5000001    1    1    2    0    0 -0.31507568640E+02 -0.50332888551E+02 -0.15941853721E+03  0.18673349072E+03  0.77000000000E+02 0.  0.
   -5000001    1    1    2    0    0  0.31507568640E+02  0.50332888551E+02 -0.89034518858E+02  0.13184184503E+03  0.77000000000E+02 0.  0.
<mgrwt>
<rscale>  0 0.19940242E+03</rscale>
<asrwt>0</asrwt>
<pdfrwt beam="1">  1        2 0.40502026E-01 0.19940242E+03</pdfrwt>
<pdfrwt beam="2">  1       -2 0.50087345E-02 0.19940242E+03</pdfrwt>
<totfact> 0.23737076E+04</totfact>
</mgrwt>
</event>
<event>
 4    1  0.1330040E-003  0.2716950E+03  0.7818608E-02  0.1100313E+00
         -2   -1    0    0    0  501 -0.00000000000E+00  0.00000000000E+00  0.42654958314E+02  0.42654958390E+02  0.25500000000E-02 0. -1.
          2   -1    0    0  501    0  0.00000000000E+00 -0.00000000000E+00 -0.43264705449E+03  0.43264705450E+03  0.25500000000E-02 0.  1.
    5000001    1    1    2    0    0  0.86007418442E+02 -0.36356135178E+02 -0.30292818996E+03  0.32621087178E+03  0.77000000000E+02 0.  0.
   -5000001    1    1    2    0    0 -0.86007418442E+02  0.36356135178E+02 -0.87063906214E+02  0.14909114111E+03  0.77000000000E+02 0.  0.
<mgrwt>
<rscale>  0 0.27169499E+03</rscale>
<asrwt>0</asrwt>
<pdfrwt beam="1">  1        2 0.61806719E-01 0.27169499E+03</pdfrwt>
<pdfrwt beam="2">  1       -2 0.60935657E-02 0.27169499E+03</pdfrwt>
<totfact> 0.11392552E+04</totfact>
</mgrwt>
</event>
<event>
 4    1  0.1330040E-003  0.1978503E+03  0.7818608E-02  0.1151565E+00
          2   -1    0    0  501    0  0.00000000000E+00  0.00000000000E+00  0.52360851678E+02  0.52360851740E+02  0.25500000000E-02 0.  1.
         -2   -1    0    0    0  501 -0.00000000000E+00 -0.00000000000E+00 -0.18689897835E+03  0.18689897837E+03  0.25500000000E-02 0. -1.
    5000001    1    1    2    0    0 -0.54834969356E+02 -0.24431998963E+02 -0.86519053212E+02  0.13045437136E+03  0.77000000000E+02 0.  0.
   -5000001    1    1    2    0    0  0.54834969356E+02  0.24431998963E+02 -0.48019073459E+02  0.10880545875E+03  0.77000000000E+02 0.  0.
<mgrwt>
<rscale>  0 0.19785034E+03</rscale>
<asrwt>0</asrwt>
<pdfrwt beam="1">  1        2 0.74801218E-02 0.19785034E+03</pdfrwt>
<pdfrwt beam="2">  1       -2 0.26699854E-01 0.19785034E+03</pdfrwt>
<totfact> 0.11321064E+04</totfact>
</mgrwt>
</event>
<event>
 4    1  0.1330040E-003  0.3111693E+03  0.7818608E-02  0.1079787E+00
         -2   -1    0    0    0  501 -0.00000000000E+00  0.00000000000E+00  0.17407077963E+02  0.17407078150E+02  0.25500000000E-02 0. -1.
          2   -1    0    0  501    0  0.00000000000E+00 -0.00000000000E+00 -0.13906175937E+04  0.13906175937E+04  0.25500000000E-02 0.  1.
    5000001    1    1    2    0    0 -0.11834659084E+03  0.48343492484E+02 -0.88562989336E+03  0.89811598184E+03  0.77000000000E+02 0.  0.
   -5000001    1    1    2    0    0  0.11834659084E+03 -0.48343492484E+02 -0.48758062238E+03  0.50990869001E+03  0.77000000000E+02 0.  0.
<mgrwt>
<rscale>  0 0.31116934E+03</rscale>
<asrwt>0</asrwt>
<pdfrwt beam="1">  1        2 0.19865959E+00 0.31116934E+03</pdfrwt>
<pdfrwt beam="2">  1       -2 0.24867263E-02 0.31116934E+03</pdfrwt>
<totfact> 0.99684684E+03</totfact>
</mgrwt>
</event>
<event>
 4    1  0.1330040E-003  0.2181508E+03  0.7818608E-02  0.1135269E+00
         -2   -1    0    0    0  501 -0.00000000000E+00  0.00000000000E+00  0.40549875669E+01  0.40549883687E+01  0.25500000000E-02 0. -1.
          2   -1    0    0  501    0  0.00000000000E+00 -0.00000000000E+00 -0.29340271465E+04  0.29340271465E+04  0.25500000000E-02 0.  1.
    5000001    1    1    2    0    0  0.10005632696E+02  0.34307272041E+02 -0.23874633829E+04  0.23889720606E+04  0.77000000000E+02 0.  0.
   -5000001    1    1    2    0    0 -0.10005632696E+02 -0.34307272041E+02 -0.54250877603E+03  0.54911007428E+03  0.77000000000E+02 0.  0.
<mgrwt>
<rscale>  0 0.21815082E+03</rscale>
<asrwt>0</asrwt>
<pdfrwt beam="1">  1        2 0.41914538E+00 0.21815082E+03</pdfrwt>
<pdfrwt beam="2">  1       -2 0.57928588E-03 0.21815082E+03</pdfrwt>
<totfact> 0.14093718E+04</totfact>
</mgrwt>
</event>
<event>
 4    1  0.1330040E-003  0.5916652E+03  0.7818608E-02  0.9922850E-01
         -2   -1    0    0    0  501 -0.00000000000E+00  0.00000000000E+00  0.30673600977E+02  0.30673601083E+02  0.25500000000E-02 0. -1.
          2   -1    0    0  501    0  0.00000000000E+00 -0.00000000000E+00 -0.28531681395E+04  0.28531681395E+04  0.25500000000E-02 0.  1.
    5000001    1    1    2    0    0 -0.20959408265E+03 -0.18086839387E+03 -0.10685004005E+04  0.11064651649E+04  0.77000000000E+02 0.  0.
   -5000001    1    1    2    0    0  0.20959408265E+03  0.18086839387E+03 -0.17539941380E+04  0.17773765756E+04  0.77000000000E+02 0.  0.
<mgrwt>
<rscale>  0 0.59166525E+03</rscale>
<asrwt>0</asrwt>
<pdfrwt beam="1">  1        2 0.40759528E+00 0.59166525E+03</pdfrwt>
<pdfrwt beam="2">  1       -2 0.43819448E-02 0.59166525E+03</pdfrwt>
<totfact> 0.76218568E+02</totfact>
</mgrwt>
</event>
<event>
 4    1  0.1330040E-003  0.2437025E+03  0.7818608E-02  0.1117351E+00
         -2   -1    0    0    0  501 -0.00000000000E+00  0.00000000000E+00  0.24804283267E+03  0.24804283269E+03  0.25500000000E-02 0. -1.
          2   -1    0    0  501    0  0.00000000000E+00 -0.00000000000E+00 -0.59859550502E+02  0.59859550556E+02  0.25500000000E-02 0.  1.
    5000001    1    1    2    0    0 -0.93465803041E+01  0.93614787199E+02  0.83700277250E+02  0.14760021463E+03  0.77000000000E+02 0.  0.
   -5000001    1    1    2    0    0  0.93465803041E+01 -0.93614787199E+02  0.10448300492E+03  0.16030216862E+03  0.77000000000E+02 0.  0.
<mgrwt>
<rscale>  0 0.24370254E+03</rscale>
<asrwt>0</asrwt>
<pdfrwt beam="1">  1        2 0.85513643E-02 0.24370254E+03</pdfrwt>
<pdfrwt beam="2">  1       -2 0.35434691E-01 0.24370254E+03</pdfrwt>
<totfact> 0.57819847E+03</totfact>
</mgrwt>
</event>
<event>
 4    1  0.1330040E-003  0.3175704E+03  0.7818608E-02  0.1076773E+00
          2   -1    0    0  501    0  0.00000000000E+00  0.00000000000E+00  0.12893144533E+04  0.12893144534E+04  0.25500000000E-02 0.  1.
         -2   -1    0    0    0  501 -0.00000000000E+00 -0.00000000000E+00 -0.19555153665E+02  0.19555153831E+02  0.25500000000E-02 0. -1.
    5000001    1    1    2    0    0 -0.13606452669E+03  0.21953418578E+02  0.70485244432E+03  0.72231674235E+03  0.77000000000E+02 0.  0.
   -5000001    1    1    2    0    0  0.13606452669E+03 -0.21953418578E+02  0.56490685536E+03  0.58655286483E+03  0.77000000000E+02 0.  0.
<mgrwt>
<rscale>  0 0.31757042E+03</rscale>
<asrwt>0</asrwt>
<pdfrwt beam="1">  1        2 0.18418774E+00 0.31757042E+03</pdfrwt>
<pdfrwt beam="2">  1       -2 0.27935939E-02 0.31757042E+03</pdfrwt>
<totfact> 0.94791471E+03</totfact>
</mgrwt>
</event>
<event>
 4    1  0.1330040E-003  0.2628283E+03  0.7818608E-02  0.1105456E+00
          2   -1    0    0  501    0  0.00000000000E+00  0.00000000000E+00  0.27666798068E+03  0.27666798069E+03  0.25500000000E-02 0. -1.
         -2   -1    0    0    0  501 -0.00000000000E+00 -0.00000000000E+00 -0.62420208051E+02  0.62420208103E+02  0.25500000000E-02 0.  1.
    5000001    1    1    2    0    0 -0.10441197946E+03  0.19889223344E+02  0.98641177347E+02  0.16418442230E+03  0.77000000000E+02 0.  0.
   -5000001    1    1    2    0    0  0.10441197946E+03 -0.19889223344E+02  0.11560659528E+03  0.17490376649E+03  0.77000000000E+02 0.  0.
<mgrwt>
<rscale>  0 0.26282826E+03</rscale>
<asrwt>0</asrwt>
<pdfrwt beam="1">  1        2 0.39523998E-01 0.26282826E+03</pdfrwt>
<pdfrwt beam="2">  1       -2 0.89171724E-02 0.26282826E+03</pdfrwt>
<totfact> 0.10194379E+04</totfact>
</mgrwt>
</event>
<event>
 4    1  0.1330040E-003  0.2969316E+03  0.7818608E-02  0.1086785E+00
          2   -1    0    0  501    0  0.00000000000E+00  0.00000000000E+00  0.21754154717E+04  0.21754154717E+04  0.25500000000E-02 0.  1.
         -2   -1    0    0    0  501 -0.00000000000E+00 -0.00000000000E+00 -0.10132357303E+02  0.10132357624E+02  0.25500000000E-02 0. -1.
    5000001    1    1    2    0    0 -0.85457967494E+02 -0.54600114930E+02  0.52069447915E+03  0.53603729104E+03  0.77000000000E+02 0.  0.
   -5000001    1    1    2    0    0  0.85457967494E+02  0.54600114930E+02  0.16445886352E+04  0.16495105383E+04  0.77000000000E+02 0.  0.
<mgrwt>
<rscale>  0 0.29693156E+03</rscale>
<asrwt>0</asrwt>
<pdfrwt beam="1">  1        2 0.31077363E+00 0.29693156E+03</pdfrwt>
<pdfrwt beam="2">  1       -2 0.14474797E-02 0.29693156E+03</pdfrwt>
<totfact> 0.90233689E+03</totfact>
</mgrwt>
</event>
<event>
 4    1  0.1330040E-003  0.2244922E+03  0.7818608E-02  0.1130578E+00
         -2   -1    0    0    0  501 -0.00000000000E+00  0.00000000000E+00  0.17515996048E+02  0.17515996233E+02  0.25500000000E-02 0. -1.
          2   -1    0    0  501    0  0.00000000000E+00 -0.00000000000E+00 -0.71929593827E+03  0.71929593827E+03  0.25500000000E-02 0.  1.
    5000001    1    1    2    0    0  0.69891939898E+02 -0.21000179652E+02 -0.47122791136E+03  0.48302239622E+03  0.77000000000E+02 0.  0.
   -5000001    1    1    2    0    0 -0.69891939898E+02  0.21000179652E+02 -0.23055203086E+03  0.25378953828E+03  0.77000000000E+02 0.  0.
<mgrwt>
<rscale>  0 0.22449218E+03</rscale>
<asrwt>0</asrwt>
<pdfrwt beam="1">  1        2 0.10275654E+00 0.22449218E+03</pdfrwt>
<pdfrwt beam="2">  1       -2 0.25022856E-02 0.22449218E+03</pdfrwt>
<totfact> 0.24185050E+04</totfact>
</mgrwt>
</event>
<event>
 4    1  0.1330040E-003  0.1862290E+03  0.7818608E-02  0.1161907E+00
          2   -1    0    0  501    0  0.00000000000E+00  0.00000000000E+00  0.52254551122E+04  0.52254551122E+04  0.25500000000E-02 0.  1.
         -2   -1    0    0    0  501 -0.00000000000E+00 -0.00000000000E+00 -0.16592439822E+01  0.16592459416E+01  0.25500000000E-02 0. -1.
    5000001    1    1    2    0    0 -0.49207432184E+02  0.38740514961E+01  0.31020321976E+04  0.31033802755E+04  0.77000000000E+02 0.  0.
   -5000001    1    1    2    0    0  0.49207432184E+02 -0.38740514961E+01  0.21217636706E+04  0.21237340826E+04  0.77000000000E+02 0.  0.
<mgrwt>
<rscale>  0 0.18622900E+03</rscale>
<asrwt>0</asrwt>
<pdfrwt beam="1">  1        2 0.74649879E+00 0.18622900E+03</pdfrwt>
<pdfrwt beam="2">  1       -2 0.23703334E-03 0.18622900E+03</pdfrwt>
<totfact> 0.13015541E+03</totfact>
</mgrwt>
</event>
<event>
 4    1  0.1330040E-003  0.3118299E+03  0.7818608E-02  0.1079472E+00
         -2   -1    0    0    0  501 -0.00000000000E+00  0.00000000000E+00  0.26078920515E+02  0.26078920640E+02  0.25500000000E-02 0.  1.
          2   -1    0    0  501    0  0.00000000000E+00 -0.00000000000E+00 -0.93215051644E+03  0.93215051644E+03  0.25500000000E-02 0. -1.
    5000001    1    1    2    0    0 -0.13058781603E+03 -0.32277246442E+02 -0.40111513193E+03  0.43002017092E+03  0.77000000000E+02 0.  0.
   -5000001    1    1    2    0    0  0.13058781603E+03  0.32277246442E+02 -0.50495646399E+03  0.52820926617E+03  0.77000000000E+02 0.  0.
<mgrwt>
<rscale>  0 0.31182995E+03</rscale>
<asrwt>0</asrwt>
<pdfrwt beam="1">  1        2 0.13316434E+00 0.31182995E+03</pdfrwt>
<pdfrwt beam="2">  1       -2 0.37255607E-02 0.31182995E+03</pdfrwt>
<totfact> 0.98156813E+03</totfact>
</mgrwt>
</event>
<event>
 4    1  0.1330040E-003  0.2234233E+03  0.7818608E-02  0.1131356E+00
          2   -1    0    0  501    0  0.00000000000E+00  0.00000000000E+00  0.57913935663E+02  0.57913935719E+02  0.25500000000E-02 0.  1.
         -2   -1    0    0    0  501 -0.00000000000E+00 -0.00000000000E+00 -0.21548342080E+03  0.21548342081E+03  0.25500000000E-02 0. -1.
    5000001    1    1    2    0    0  0.35410523017E+02  0.43352457509E+02 -0.15031635428E+03  0.17792511648E+03  0.77000000000E+02 0.  0.
   -5000001    1    1    2    0    0 -0.35410523017E+02 -0.43352457509E+02 -0.72531308559E+01  0.95472240047E+02  0.77000000000E+02 0.  0.
<mgrwt>
<rscale>  0 0.22342330E+03</rscale>
<asrwt>0</asrwt>
<pdfrwt beam="1">  1        2 0.82734195E-02 0.22342330E+03</pdfrwt>
<pdfrwt beam="2">  1       -2 0.30783345E-01 0.22342330E+03</pdfrwt>
<totfact> 0.77760803E+03</totfact>
</mgrwt>
</event>
<event>
 4    1  0.1330040E-003  0.1924775E+03  0.7818608E-02  0.1156246E+00
         -2   -1    0    0    0  501 -0.00000000000E+00  0.00000000000E+00  0.58776952595E+01  0.58776958127E+01  0.25500000000E-02 0. -1.
          2   -1    0    0  501    0  0.00000000000E+00 -0.00000000000E+00 -0.15757704923E+04  0.15757704923E+04  0.25500000000E-02 0.  1.
    5000001    1    1    2    0    0 -0.49784784058E+02  0.29188057180E+02 -0.79776062956E+03  0.80354308502E+03  0.77000000000E+02 0.  0.
   -5000001    1    1    2    0    0  0.49784784058E+02 -0.29188057180E+02 -0.77213216746E+03  0.77810510307E+03  0.77000000000E+02 0.  0.
<mgrwt>
<rscale>  0 0.19247752E+03</rscale>
<asrwt>0</asrwt>
<pdfrwt beam="1">  1        2 0.22510980E+00 0.19247752E+03</pdfrwt>
<pdfrwt beam="2">  1       -2 0.83967180E-03 0.19247752E+03</pdfrwt>
<totfact> 0.38387448E+04</totfact>
</mgrwt>
</event>
<event>
 4    1  0.1330040E-003  0.1876016E+03  0.7818608E-02  0.1160643E+00
         -2   -1    0    0    0  501 -0.00000000000E+00  0.00000000000E+00  0.68601595674E+01  0.68601600413E+01  0.25500000000E-02 0. -1.
          2   -1    0    0  501    0  0.00000000000E+00 -0.00000000000E+00 -0.12825631006E+04  0.12825631006E+04  0.25500000000E-02 0.  1.
    5000001    1    1    2    0    0 -0.20736686215E+02  0.36162647346E+02 -0.40661749028E+03  0.41593813316E+03  0.77000000000E+02 0.  0.
   -5000001    1    1    2    0    0  0.20736686215E+02 -0.36162647346E+02 -0.86908545072E+03  0.87348512745E+03  0.77000000000E+02 0.  0.
<mgrwt>
<rscale>  0 0.18760158E+03</rscale>
<asrwt>0</asrwt>
<pdfrwt beam="1">  1        2 0.18322315E+00 0.18760158E+03</pdfrwt>
<pdfrwt beam="2">  1       -2 0.98002365E-03 0.18760158E+03</pdfrwt>
<totfact> 0.43162623E+04</totfact>
</mgrwt>
</event>
<event>
 4    1  0.1330040E-003  0.2977500E+03  0.7818608E-02  0.1086371E+00
         -2   -1    0    0    0  501 -0.00000000000E+00  0.00000000000E+00  0.30553407386E+02  0.30553407493E+02  0.25500000000E-02 0. -1.
          2   -1    0    0  501    0  0.00000000000E+00 -0.00000000000E+00 -0.72541061862E+03  0.72541061863E+03  0.25500000000E-02 0.  1.
    5000001    1    1    2    0    0  0.13371733661E+02 -0.79853692638E+02 -0.97640090444E+02  0.14838464459E+03  0.77000000000E+02 0.  0.
   -5000001    1    1    2    0    0 -0.13371733661E+02  0.79853692638E+02 -0.59721712079E+03  0.60757938152E+03  0.77000000000E+02 0.  0.
<mgrwt>
<rscale>  0 0.29775000E+03</rscale>
<asrwt>0</asrwt>
<pdfrwt beam="1">  1        2 0.10363008E+00 0.29775000E+03</pdfrwt>
<pdfrwt beam="2">  1       -2 0.43647729E-02 0.29775000E+03</pdfrwt>
<totfact> 0.10580913E+04</totfact>
</mgrwt>
</event>
<event>
 4    1  0.1330040E-003  0.2921180E+03  0.7818608E-02  0.1089248E+00
          2   -1    0    0  501    0  0.00000000000E+00  0.00000000000E+00  0.17390303197E+03  0.17390303199E+03  0.25500000000E-02 0.  1.
         -2   -1    0    0    0  501 -0.00000000000E+00 -0.00000000000E+00 -0.12267316037E+03  0.12267316040E+03  0.25500000000E-02 0. -1.
    5000001    1    1    2    0    0 -0.20550357634E+02  0.95100860985E+02 -0.52617824676E+02  0.13477435376E+03  0.77000000000E+02 0.  0.
   -5000001    1    1    2    0    0  0.20550357634E+02 -0.95100860985E+02  0.10384769628E+03  0.16180183862E+03  0.77000000000E+02 0.  0.
<mgrwt>
<rscale>  0 0.29211802E+03</rscale>
<asrwt>0</asrwt>
<pdfrwt beam="1">  1        2 0.24843290E-01 0.29211802E+03</pdfrwt>
<pdfrwt beam="2">  1       -2 0.17524737E-01 0.29211802E+03</pdfrwt>
<totfact> 0.56842107E+03</totfact>
</mgrwt>
</event>
<event>
 4    1  0.1330040E-003  0.3439293E+03  0.7818608E-02  0.1065135E+00
         -2   -1    0    0    0  501 -0.00000000000E+00  0.00000000000E+00  0.59273454381E+02  0.59273454436E+02  0.25500000000E-02 0. -1.
          2   -1    0    0  501    0  0.00000000000E+00 -0.00000000000E+00 -0.49890520117E+03  0.49890520118E+03  0.25500000000E-02 0.  1.
    5000001    1    1    2    0    0  0.75132203978E+02  0.10738384459E+03 -0.89305408805E+02  0.17629689219E+03  0.77000000000E+02 0.  0.
   -5000001    1    1    2    0    0 -0.75132203978E+02 -0.10738384459E+03 -0.35032633799E+03  0.38188176343E+03  0.77000000000E+02 0.  0.
<mgrwt>
<rscale>  0 0.34392926E+03</rscale>
<asrwt>0</asrwt>
<pdfrwt beam="1">  1        2 0.71272169E-01 0.34392926E+03</pdfrwt>
<pdfrwt beam="2">  1       -2 0.84676366E-02 0.34392926E+03</pdfrwt>
<totfact> 0.58861576E+03</totfact>
</mgrwt>
</event>
<event>
 4    1  0.1330040E-003  0.1858601E+03  0.7818608E-02  0.1162249E+00
          2   -1    0    0  501    0  0.00000000000E+00  0.00000000000E+00  0.14043413804E+04  0.14043413804E+04  0.25500000000E-02 0.  1.
         -2   -1    0    0    0  501 -0.00000000000E+00 -0.00000000000E+00 -0.61494943458E+01  0.61494948745E+01  0.25500000000E-02 0. -1.
    5000001    1    1    2    0    0  0.45473865239E+02 -0.19853711070E+02  0.81786976264E+03  0.82298359091E+03  0.77000000000E+02 0.  0.
   -5000001    1    1    2    0    0 -0.45473865239E+02  0.19853711070E+02  0.58032212345E+03  0.58750728441E+03  0.77000000000E+02 0.  0.
<mgrwt>
<rscale>  0 0.18586005E+03</rscale>
<asrwt>0</asrwt>
<pdfrwt beam="1">  1        2 0.20062032E+00 0.18586005E+03</pdfrwt>
<pdfrwt beam="2">  1       -2 0.87849870E-03 0.18586005E+03</pdfrwt>
<totfact> 0.43704553E+04</totfact>
</mgrwt>
</event>
<event>
 4    1  0.1330040E-003  0.1720693E+03  0.7818608E-02  0.1175707E+00
          2   -1    0    0  501    0  0.00000000000E+00  0.00000000000E+00  0.18544858574E+04  0.18544858574E+04  0.25500000000E-02 0.  1.
         -2   -1    0    0    0  501 -0.00000000000E+00 -0.00000000000E+00 -0.39913823143E+01  0.39913831288E+01  0.25500000000E-02 0. -1.
    5000001    1    1    2    0    0 -0.18976828949E+02  0.28074412251E+02  0.73063283207E+03  0.73546014709E+03  0.77000000000E+02 0.  0.
   -5000001    1    1    2    0    0  0.18976828949E+02 -0.28074412251E+02  0.11198616430E+04  0.11230170935E+04  0.77000000000E+02 0.  0.
<mgrwt>
<rscale>  0 0.17206932E+03</rscale>
<asrwt>0</asrwt>
<pdfrwt beam="1">  1        2 0.26492558E+00 0.17206932E+03</pdfrwt>
<pdfrwt beam="2">  1       -2 0.57019963E-03 0.17206932E+03</pdfrwt>
<totfact> 0.48553295E+04</totfact>
</mgrwt>
</event>
<event>
 4    1  0.1330040E-003  0.2936970E+03  0.7818608E-02  0.1088435E+00
          2   -1    0    0  501    0  0.00000000000E+00  0.00000000000E+00  0.18994939334E+04  0.18994939334E+04  0.25500000000E-02 0.  1.
         -2   -1    0    0    0  501 -0.00000000000E+00 -0.00000000000E+00 -0.11352748156E+02  0.11352748443E+02  0.25500000000E-02 0. -1.
    5000001    1    1    2    0    0 -0.55588878976E+01 -0.10797636561E+03  0.13527542807E+04  0.13592508748E+04  0.77000000000E+02 0.  0.
   -5000001    1    1    2    0    0  0.55588878976E+01  0.10797636561E+03  0.53538690459E+03  0.55159580707E+03  0.77000000000E+02 0.  0.
<mgrwt>
<rscale>  0 0.29369696E+03</rscale>
<asrwt>0</asrwt>
<pdfrwt beam="1">  1        2 0.27135632E+00 0.29369696E+03</pdfrwt>
<pdfrwt beam="2">  1       -2 0.16218209E-02 0.29369696E+03</pdfrwt>
<totfact> 0.10420076E+04</totfact>
</mgrwt>
</event>
<event>
 4    1  0.1330040E-003  0.2325750E+03  0.7818608E-02  0.1124840E+00
         -2   -1    0    0    0  501 -0.00000000000E+00  0.00000000000E+00  0.27509914567E+02  0.27509914685E+02  0.25500000000E-02 0. -1.
          2   -1    0    0  501    0  0.00000000000E+00 -0.00000000000E+00 -0.49156024420E+03  0.49156024421E+03  0.25500000000E-02 0.  1.
    5000001    1    1    2    0    0  0.29779634517E+02  0.70875663928E+02 -0.14044914741E+03  0.17766583627E+03  0.77000000000E+02 0.  0.
   -5000001    1    1    2    0    0 -0.29779634517E+02 -0.70875663928E+02 -0.32360118222E+03  0.34140432262E+03  0.77000000000E+02 0.  0.
<mgrwt>
<rscale>  0 0.23257498E+03</rscale>
<asrwt>0</asrwt>
<pdfrwt beam="1">  1        2 0.70222887E-01 0.23257498E+03</pdfrwt>
<pdfrwt beam="2">  1       -2 0.39299881E-02 0.23257498E+03</pdfrwt>
<totfact> 0.19111651E+04</totfact>
</mgrwt>
</event>
<event>
 4    1  0.1330040E-003  0.3468071E+03  0.7818608E-02  0.1063933E+00
          2   -1    0    0  501    0  0.00000000000E+00  0.00000000000E+00  0.60653425812E+03  0.60653425813E+03  0.25500000000E-02 0.  1.
         -2   -1    0    0    0  501 -0.00000000000E+00 -0.00000000000E+00 -0.49574763061E+02  0.49574763126E+02  0.25500000000E-02 0. -1.
    5000001    1    1    2    0    0 -0.11450607324E+03  0.10383712225E+03  0.30815255028E+03  0.35324323491E+03  0.77000000000E+02 0.  0.
   -5000001    1    1    2    0    0  0.11450607324E+03 -0.10383712225E+03  0.24880694478E+03  0.30286578634E+03  0.77000000000E+02 0.  0.
<mgrwt>
<rscale>  0 0.34680711E+03</rscale>
<asrwt>0</asrwt>
<pdfrwt beam="1">  1        2 0.86647745E-01 0.34680711E+03</pdfrwt>
<pdfrwt beam="2">  1       -2 0.70821095E-02 0.34680711E+03</pdfrwt>
<totfact> 0.62437305E+03</totfact>
</mgrwt>
</event>
<event>
 4    1  0.1330040E-003  0.1851653E+03  0.7818608E-02  0.1162896E+00
         -2   -1    0    0    0  501 -0.00000000000E+00  0.00000000000E+00  0.11833453740E+02  0.11833454015E+02  0.25500000000E-02 0. -1.
          2   -1    0    0  501    0  0.00000000000E+00 -0.00000000000E+00 -0.72434834335E+03  0.72434834336E+03  0.25500000000E-02 0.  1.
    5000001    1    1    2    0    0 -0.47398812433E+02  0.73989564355E+01 -0.28282318176E+03  0.29701741383E+03  0.77000000000E+02 0.  0.
   -5000001    1    1    2    0    0  0.47398812433E+02 -0.73989564355E+01 -0.42969170785E+03  0.43916438354E+03  0.77000000000E+02 0.  0.
<mgrwt>
<rscale>  0 0.18516525E+03</rscale>
<asrwt>0</asrwt>
<pdfrwt beam="1">  1        2 0.10347831E+00 0.18516525E+03</pdfrwt>
<pdfrwt beam="2">  1       -2 0.16904939E-02 0.18516525E+03</pdfrwt>
<totfact> 0.41980095E+04</totfact>
</mgrwt>
</event>
<event>
 4    1  0.1330040E-003  0.2354995E+03  0.7818608E-02  0.1122828E+00
          2   -1    0    0  501    0  0.00000000000E+00  0.00000000000E+00  0.56314185820E+02  0.56314185878E+02  0.25500000000E-02 0.  1.
         -2   -1    0    0    0  501 -0.00000000000E+00 -0.00000000000E+00 -0.24620799241E+03  0.24620799242E+03  0.25500000000E-02 0. -1.
    5000001    1    1    2    0    0 -0.66118164071E+02 -0.57853628923E+02 -0.11388540923E+03  0.16314882910E+03  0.77000000000E+02 0.  0.
   -5000001    1    1    2    0    0  0.66118164071E+02  0.57853628923E+02 -0.76008397359E+02  0.13937334921E+03  0.77000000000E+02 0.  0.
<mgrwt>
<rscale>  0 0.23549949E+03</rscale>
<asrwt>0</asrwt>
<pdfrwt beam="1">  1        2 0.80448838E-02 0.23549949E+03</pdfrwt>
<pdfrwt beam="2">  1       -2 0.35172570E-01 0.23549949E+03</pdfrwt>
<totfact> 0.63224855E+03</totfact>
</mgrwt>
</event>
<event>
 4    1  0.1330040E-003  0.2701830E+03  0.7818608E-02  0.1101175E+00
          2   -1    0    0  501    0  0.00000000000E+00  0.00000000000E+00  0.69418031771E+03  0.69418031771E+03  0.25500000000E-02 0.  1.
         -2   -1    0    0    0  501 -0.00000000000E+00 -0.00000000000E+00 -0.26289585265E+02  0.26289585389E+02  0.25500000000E-02 0. -1.
    5000001    1    1    2    0    0 -0.67104686746E+01  0.11010298394E+03  0.30095970695E+03  0.32965655259E+03  0.77000000000E+02 0.  0.
   -5000001    1    1    2    0    0  0.67104686746E+01 -0.11010298394E+03  0.36693102550E+03  0.39081335051E+03  0.77000000000E+02 0.  0.
<mgrwt>
<rscale>  0 0.27018300E+03</rscale>
<asrwt>0</asrwt>
<pdfrwt beam="1">  1        2 0.99168613E-01 0.27018300E+03</pdfrwt>
<pdfrwt beam="2">  1       -2 0.37556552E-02 0.27018300E+03</pdfrwt>
<totfact> 0.13931546E+04</totfact>
</mgrwt>
</event>
<event>
 4    1  0.1330040E-003  0.2770667E+03  0.7818608E-02  0.1097302E+00
          2   -1    0    0  501    0  0.00000000000E+00  0.00000000000E+00  0.66390434133E+03  0.66390434134E+03  0.25500000000E-02 0.  1.
         -2   -1    0    0    0  501 -0.00000000000E+00 -0.00000000000E+00 -0.28907006820E+02  0.28907006932E+02  0.25500000000E-02 0. -1.
    5000001    1    1    2    0    0  0.74438423810E+02 -0.86711222869E+02  0.28190926789E+03  0.31378615398E+03  0.77000000000E+02 0.  0.
   -5000001    1    1    2    0    0 -0.74438423810E+02  0.86711222869E+02  0.35308806663E+03  0.37902519429E+03  0.77000000000E+02 0.  0.
<mgrwt>
<rscale>  0 0.27706669E+03</rscale>
<asrwt>0</asrwt>
<pdfrwt beam="1">  1        2 0.94843467E-01 0.27706669E+03</pdfrwt>
<pdfrwt beam="2">  1       -2 0.41295729E-02 0.27706669E+03</pdfrwt>
<totfact> 0.12743881E+04</totfact>
</mgrwt>
</event>
<event>
 4    1  0.1330040E-003  0.6493663E+03  0.7818608E-02  0.9807969E-01
          2   -1    0    0  501    0  0.00000000000E+00  0.00000000000E+00  0.82573667352E+03  0.82573667353E+03  0.25500000000E-02 0.  1.
         -2   -1    0    0    0  501 -0.00000000000E+00 -0.00000000000E+00 -0.12766678164E+03  0.12766678167E+03  0.25500000000E-02 0. -1.
    5000001    1    1    2    0    0  0.18536751464E+03  0.15171988789E+03  0.65032177012E+03  0.69730011082E+03  0.77000000000E+02 0.  0.
   -5000001    1    1    2    0    0 -0.18536751464E+03 -0.15171988789E+03  0.47748121764E+02  0.25610334437E+03  0.77000000000E+02 0.  0.
<mgrwt>
<rscale>  0 0.64936629E+03</rscale>
<asrwt>0</asrwt>
<pdfrwt beam="1">  1        2 0.11796238E+00 0.64936629E+03</pdfrwt>
<pdfrwt beam="2">  1       -2 0.18238111E-01 0.64936629E+03</pdfrwt>
<totfact> 0.91717634E+02</totfact>
</mgrwt>
</event>
<event>
 4    1  0.1330040E-003  0.2005604E+03  0.7818608E-02  0.1149267E+00
         -2   -1    0    0    0  501 -0.00000000000E+00  0.00000000000E+00  0.21059851639E+02  0.21059851794E+02  0.25500000000E-02 0. -1.
          2   -1    0    0  501    0  0.00000000000E+00 -0.00000000000E+00 -0.47750187936E+03  0.47750187936E+03  0.25500000000E-02 0.  1.
    5000001    1    1    2    0    0  0.63234162796E+02  0.27341472961E+01 -0.20086726248E+03  0.22423802541E+03  0.77000000000E+02 0.  0.
   -5000001    1    1    2    0    0 -0.63234162796E+02 -0.27341472961E+01 -0.25557476524E+03  0.27432370574E+03  0.77000000000E+02 0.  0.
<mgrwt>
<rscale>  0 0.20056040E+03</rscale>
<asrwt>0</asrwt>
<pdfrwt beam="1">  1        2 0.68214548E-01 0.20056040E+03</pdfrwt>
<pdfrwt beam="2">  1       -2 0.30085505E-02 0.20056040E+03</pdfrwt>
<totfact> 0.29066720E+04</totfact>
</mgrwt>
</event>
<event>
 4    1  0.1330040E-003  0.2223155E+03  0.7818608E-02  0.1132168E+00
          2   -1    0    0  501    0  0.00000000000E+00  0.00000000000E+00  0.19880648551E+04  0.19880648551E+04  0.25500000000E-02 0.  1.
         -2   -1    0    0    0  501 -0.00000000000E+00 -0.00000000000E+00 -0.62151112685E+01  0.62151117916E+01  0.25500000000E-02 0. -1.
    5000001    1    1    2    0    0  0.42445893599E+02 -0.65761584304E+02  0.83534303845E+03  0.84252788188E+03  0.77000000000E+02 0.  0.
   -5000001    1    1    2    0    0 -0.42445893599E+02  0.65761584304E+02  0.11465067053E+04  0.11517520850E+04  0.77000000000E+02 0.  0.
<mgrwt>
<rscale>  0 0.22231549E+03</rscale>
<asrwt>0</asrwt>
<pdfrwt beam="1">  1        2 0.28400942E+00 0.22231549E+03</pdfrwt>
<pdfrwt beam="2">  1       -2 0.88787260E-03 0.22231549E+03</pdfrwt>
<totfact> 0.22493881E+04</totfact>
</mgrwt>
</event>
<event>
 4    1  0.1330040E-003  0.1703309E+03  0.7818608E-02  0.1177503E+00
         -2   -1    0    0    0  501 -0.00000000000E+00  0.00000000000E+00  0.68141996699E+01  0.68142001470E+01  0.25500000000E-02 0. -1.
          2   -1    0    0  501    0  0.00000000000E+00 -0.00000000000E+00 -0.10644178325E+04  0.10644178325E+04  0.25500000000E-02 0.  1.
    5000001    1    1    2    0    0  0.15104022845E+02  0.30030993199E+02 -0.61643613758E+03  0.62213543845E+03  0.77000000000E+02 0.  0.
   -5000001    1    1    2    0    0 -0.15104022845E+02 -0.30030993199E+02 -0.44116749525E+03  0.44909659421E+03  0.77000000000E+02 0.  0.
<mgrwt>
<rscale>  0 0.17033092E+03</rscale>
<asrwt>0</asrwt>
<pdfrwt beam="1">  1        2 0.15205958E+00 0.17033092E+03</pdfrwt>
<pdfrwt beam="2">  1       -2 0.97345781E-03 0.17033092E+03</pdfrwt>
<totfact> 0.56724049E+04</totfact>
</mgrwt>
</event>
<event>
 4    1  0.1330040E-003  0.1807237E+03  0.7818608E-02  0.1167104E+00
         -2   -1    0    0    0  501 -0.00000000000E+00  0.00000000000E+00  0.15035195498E+03  0.15035195500E+03  0.25500000000E-02 0. -1.
          2   -1    0    0  501    0  0.00000000000E+00 -0.00000000000E+00 -0.54307655990E+02  0.54307656050E+02  0.25500000000E-02 0.  1.
    5000001    1    1    2    0    0  0.31117023758E+02 -0.14101552048E+02  0.85050488436E+02  0.11970676055E+03  0.77000000000E+02 0.  0.
   -5000001    1    1    2    0    0 -0.31117023758E+02  0.14101552048E+02  0.10993810550E+02  0.84952850500E+02  0.77000000000E+02 0.  0.
<mgrwt>
<rscale>  0 0.18072368E+03</rscale>
<asrwt>0</asrwt>
<pdfrwt beam="1">  1        2 0.77582367E-02 0.18072368E+03</pdfrwt>
<pdfrwt beam="2">  1       -2 0.21478850E-01 0.18072368E+03</pdfrwt>
<totfact> 0.15687170E+04</totfact>
</mgrwt>
</event>
<event>
 4    1  0.1330040E-003  0.2423806E+03  0.7818608E-02  0.1118217E+00
         -2   -1    0    0    0  501 -0.00000000000E+00  0.00000000000E+00  0.40031834951E+02  0.40031835033E+02  0.25500000000E-02 0. -1.
          2   -1    0    0  501    0  0.00000000000E+00 -0.00000000000E+00 -0.36688531260E+03  0.36688531261E+03  0.25500000000E-02 0.  1.
    5000001    1    1    2    0    0  0.17967988529E+02  0.82828972177E+02 -0.23004509382E+03  0.25696932197E+03  0.77000000000E+02 0.  0.
   -5000001    1    1    2    0    0 -0.17967988529E+02 -0.82828972177E+02 -0.96808383828E+02  0.14994782567E+03  0.77000000000E+02 0.  0.
<mgrwt>
<rscale>  0 0.24238063E+03</rscale>
<asrwt>0</asrwt>
<pdfrwt beam="1">  1        2 0.52412185E-01 0.24238063E+03</pdfrwt>
<pdfrwt beam="2">  1       -2 0.57188338E-02 0.24238063E+03</pdfrwt>
<totfact> 0.14917609E+04</totfact>
</mgrwt>
</event>
<event>
 4    1  0.1330040E-003  0.3291592E+03  0.7818608E-02  0.1071509E+00
         -2   -1    0    0    0  501 -0.00000000000E+00  0.00000000000E+00  0.26142874253E+02  0.26142874377E+02  0.25500000000E-02 0. -1.
          2   -1    0    0  501    0  0.00000000000E+00 -0.00000000000E+00 -0.10360930343E+04  0.10360930343E+04  0.25500000000E-02 0.  1.
    5000001    1    1    2    0    0 -0.13315621082E+02  0.13672549768E+03 -0.65928003933E+03  0.67782766079E+03  0.77000000000E+02 0.  0.
   -5000001    1    1    2    0    0  0.13315621082E+02 -0.13672549768E+03 -0.35067012076E+03  0.38440824792E+03  0.77000000000E+02 0.  0.
<mgrwt>
<rscale>  0 0.32915923E+03</rscale>
<asrwt>0</asrwt>
<pdfrwt beam="1">  1        2 0.14801326E+00 0.32915923E+03</pdfrwt>
<pdfrwt beam="2">  1       -2 0.37346970E-02 0.32915923E+03</pdfrwt>
<totfact> 0.84849990E+03</totfact>
</mgrwt>
</event>
<event>
 4    1  0.1330040E-003  0.2733937E+03  0.7818608E-02  0.1099353E+00
          2   -1    0    0  501    0  0.00000000000E+00  0.00000000000E+00  0.26170208992E+04  0.26170208992E+04  0.25500000000E-02 0. -1.
         -2   -1    0    0    0  501 -0.00000000000E+00 -0.00000000000E+00 -0.71401927918E+01  0.71401932471E+01  0.25500000000E-02 0.  1.
    5000001    1    1    2    0    0 -0.38440002344E+02  0.10372924451E+03  0.10861364546E+04  0.10944673535E+04  0.77000000000E+02 0.  0.
   -5000001    1    1    2    0    0  0.38440002344E+02 -0.10372924451E+03  0.15237442518E+04  0.15296937389E+04  0.77000000000E+02 0.  0.
<mgrwt>
<rscale>  0 0.27339374E+03</rscale>
<asrwt>0</asrwt>
<pdfrwt beam="1">  1        2 0.37385912E+00 0.27339374E+03</pdfrwt>
<pdfrwt beam="2">  1       -2 0.10200303E-02 0.27339374E+03</pdfrwt>
<totfact> 0.90718226E+03</totfact>
</mgrwt>
</event>
<event>
 4    1  0.1330040E-003  0.6532072E+03  0.7818608E-02  0.9800780E-01
         -2   -1    0    0    0  501 -0.00000000000E+00  0.00000000000E+00  0.15776188478E+03  0.15776188480E+03  0.25500000000E-02 0. -1.
          2   -1    0    0  501    0  0.00000000000E+00 -0.00000000000E+00 -0.67614502772E+03  0.67614502772E+03  0.25500000000E-02 0.  1.
    5000001    1    1    2    0    0  0.27617379191E+03  0.14301606290E+03 -0.17829527226E+03  0.36666573564E+03  0.77000000000E+02 0.  0.
   -5000001    1    1    2    0    0 -0.27617379191E+03 -0.14301606290E+03 -0.34008787068E+03  0.46724117688E+03  0.77000000000E+02 0.  0.
<mgrwt>
<rscale>  0 0.65320721E+03</rscale>
<asrwt>0</asrwt>
<pdfrwt beam="1">  1        2 0.96592146E-01 0.65320721E+03</pdfrwt>
<pdfrwt beam="2">  1       -2 0.22537412E-01 0.65320721E+03</pdfrwt>
<totfact> 0.81382121E+02</totfact>
</mgrwt>
</event>
<event>
 4    1  0.1330040E-003  0.5863377E+03  0.7818608E-02  0.9934163E-01
         -2   -1    0    0    0  501 -0.00000000000E+00  0.00000000000E+00  0.38275109354E+03  0.38275109355E+03  0.25500000000E-02 0. -1.
          2   -1    0    0  501    0  0.00000000000E+00 -0.00000000000E+00 -0.22455319982E+03  0.22455319983E+03  0.25500000000E-02 0.  1.
    5000001    1    1    2    0    0 -0.15547913587E+03  0.21301126112E+03  0.18508808941E+03  0.33126146757E+03  0.77000000000E+02 0.  0.
   -5000001    1    1    2    0    0  0.15547913587E+03 -0.21301126112E+03 -0.26890195691E+02  0.27604282581E+03  0.77000000000E+02 0.  0.
<mgrwt>
<rscale>  0 0.58633773E+03</rscale>
<asrwt>0</asrwt>
<pdfrwt beam="1">  1        2 0.32079029E-01 0.58633773E+03</pdfrwt>
<pdfrwt beam="2">  1       -2 0.54678727E-01 0.58633773E+03</pdfrwt>
<totfact> 0.52332490E+02</totfact>
</mgrwt>
</event>
<event>
 4    1  0.1330040E-003  0.5069668E+03  0.7818608E-02  0.1011976E+00
          2   -1    0    0  501    0  0.00000000000E+00  0.00000000000E+00  0.12071806480E+04  0.12071806480E+04  0.25500000000E-02 0.  1.
         -2   -1    0    0    0  501 -0.00000000000E+00 -0.00000000000E+00 -0.53226356620E+02  0.53226356682E+02  0.25500000000E-02 0. -1.
    5000001    1    1    2    0    0 -0.23012972449E+03  0.64564396207E+02  0.66297775338E+03  0.70894058484E+03  0.77000000000E+02 0.  0.
   -5000001    1    1    2    0    0  0.23012972449E+03 -0.64564396207E+02  0.49097653799E+03  0.55146641984E+03  0.77000000000E+02 0.  0.
<mgrwt>
<rscale>  0 0.50696677E+03</rscale>
<asrwt>0</asrwt>
<pdfrwt beam="1">  1        2 0.17245439E+00 0.50696677E+03</pdfrwt>
<pdfrwt beam="2">  1       -2 0.76037646E-02 0.50696677E+03</pdfrwt>
<totfact> 0.22740682E+03</totfact>
</mgrwt>
</event>
<event>
 4    1  0.1330040E-003  0.2329929E+03  0.7818608E-02  0.1124551E+00
         -2   -1    0    0    0  501 -0.00000000000E+00  0.00000000000E+00  0.73125074071E+01  0.73125078518E+01  0.25500000000E-02 0. -1.
          2   -1    0    0  501    0  0.00000000000E+00 -0.00000000000E+00 -0.18559184177E+04  0.18559184177E+04  0.25500000000E-02 0.  1.
    5000001    1    1    2    0    0 -0.30734525602E+02  0.78581863716E+02 -0.11071336787E+04  0.11130110974E+04  0.77000000000E+02 0.  0.
   -5000001    1    1    2    0    0  0.30734525602E+02 -0.78581863716E+02 -0.74147223165E+03  0.75021982824E+03  0.77000000000E+02 0.  0.
<mgrwt>
<rscale>  0 0.23299285E+03</rscale>
<asrwt>0</asrwt>
<pdfrwt beam="1">  1        2 0.26513090E+00 0.23299285E+03</pdfrwt>
<pdfrwt beam="2">  1       -2 0.10446451E-02 0.23299285E+03</pdfrwt>
<totfact> 0.20644944E+04</totfact>
</mgrwt>
</event>
<event>
 4    1  0.1330040E-003  0.3298458E+03  0.7818608E-02  0.1071205E+00
         -2   -1    0    0    0  501 -0.00000000000E+00  0.00000000000E+00  0.53617674652E+02  0.53617674713E+02  0.25500000000E-02 0. -1.
          2   -1    0    0  501    0  0.00000000000E+00 -0.00000000000E+00 -0.50728721997E+03  0.50728721997E+03  0.25500000000E-02 0.  1.
    5000001    1    1    2    0    0 -0.66064460748E+02  0.94370413760E+02 -0.74734254387E+02  0.15743092690E+03  0.77000000000E+02 0.  0.
   -5000001    1    1    2    0    0  0.66064460748E+02 -0.94370413760E+02 -0.37893529093E+03  0.40347396778E+03  0.77000000000E+02 0.  0.
<mgrwt>
<rscale>  0 0.32984579E+03</rscale>
<asrwt>0</asrwt>
<pdfrwt beam="1">  1        2 0.72469600E-01 0.32984579E+03</pdfrwt>
<pdfrwt beam="2">  1       -2 0.76596681E-02 0.32984579E+03</pdfrwt>
<totfact> 0.67557814E+03</totfact>
</mgrwt>
</event>
<event>
 4    1  0.1330040E-003  0.1932094E+03  0.7818608E-02  0.1155598E+00
          2   -1    0    0  501    0  0.00000000000E+00  0.00000000000E+00  0.73699841268E+02  0.73699841312E+02  0.25500000000E-02 0.  1.
         -2   -1    0    0    0  501 -0.00000000000E+00 -0.00000000000E+00 -0.12662802545E+03  0.12662802548E+03  0.25500000000E-02 0. -1.
    5000001    1    1    2    0    0  0.33476320472E+02  0.37957960749E+02 -0.56550325560E+02  0.10811295083E+03  0.77000000000E+02 0.  0.
   -5000001    1    1    2    0    0 -0.33476320472E+02 -0.37957960749E+02  0.36221413780E+01  0.92214915956E+02  0.77000000000E+02 0.  0.
<mgrwt>
<rscale>  0 0.19320937E+03</rscale>
<asrwt>0</asrwt>
<pdfrwt beam="1">  1        2 0.10528549E-01 0.19320937E+03</pdfrwt>
<pdfrwt beam="2">  1       -2 0.18089718E-01 0.19320937E+03</pdfrwt>
<totfact> 0.14423269E+04</totfact>
</mgrwt>
</event>
<event>
 4    1  0.1330040E-003  0.2600972E+03  0.7818608E-02  0.1107085E+00
          2   -1    0    0  501    0  0.00000000000E+00  0.00000000000E+00  0.17895672230E+04  0.17895672230E+04  0.25500000000E-02 0.  1.
         -2   -1    0    0    0  501 -0.00000000000E+00 -0.00000000000E+00 -0.94506850367E+01  0.94506853807E+01  0.25500000000E-02 0. -1.
    5000001    1    1    2    0    0 -0.61917084476E+02  0.68887717998E+02  0.12292166874E+04  0.12351040068E+04  0.77000000000E+02 0.  0.
   -5000001    1    1    2    0    0  0.61917084476E+02 -0.68887717998E+02  0.55089985049E+03  0.56391390150E+03  0.77000000000E+02 0.  0.
<mgrwt>
<rscale>  0 0.26009719E+03</rscale>
<asrwt>0</asrwt>
<pdfrwt beam="1">  1        2 0.25565289E+00 0.26009719E+03</pdfrwt>
<pdfrwt beam="2">  1       -2 0.13500956E-02 0.26009719E+03</pdfrwt>
<totfact> 0.15379280E+04</totfact>
</mgrwt>
</event>
<event>
 4    1  0.1330040E-003  0.2855053E+03  0.7818608E-02  0.1092720E+00
          2   -1    0    0  501    0  0.00000000000E+00  0.00000000000E+00  0.10607516534E+04  0.10607516534E+04  0.25500000000E-02 0.  1.
         -2   -1    0    0    0  501 -0.00000000000E+00 -0.00000000000E+00 -0.19211200477E+02  0.19211200647E+02  0.25500000000E-02 0. -1.
    5000001    1    1    2    0    0 -0.74360302019E+02 -0.56123748748E+02  0.23343956006E+03  0.26287327345E+03  0.77000000000E+02 0.  0.
   -5000001    1    1    2    0    0  0.74360302019E+02  0.56123748748E+02  0.80810089284E+03  0.81708958058E+03  0.77000000000E+02 0.  0.
<mgrwt>
<rscale>  0 0.28550526E+03</rscale>
<asrwt>0</asrwt>
<pdfrwt beam="1">  1        2 0.15153596E+00 0.28550526E+03</pdfrwt>
<pdfrwt beam="2">  1       -2 0.27444570E-02 0.28550526E+03</pdfrwt>
<totfact> 0.12965482E+04</totfact>
</mgrwt>
</event>
<event>
 4    1  0.1330040E-003  0.2908995E+03  0.7818608E-02  0.1089880E+00
         -2   -1    0    0    0  501 -0.00000000000E+00  0.00000000000E+00  0.67035779126E+03  0.67035779126E+03  0.25500000000E-02 0. -1.
          2   -1    0    0  501    0  0.00000000000E+00 -0.00000000000E+00 -0.31558713306E+02  0.31558713409E+02  0.25500000000E-02 0.  1.
    5000001    1    1    2    0    0 -0.50122929844E+02 -0.11267632902E+03  0.30905879599E+03  0.34154736508E+03  0.77000000000E+02 0.  0.
   -5000001    1    1    2    0    0  0.50122929844E+02  0.11267632902E+03  0.32974028196E+03  0.36036913958E+03  0.77000000000E+02 0.  0.
<mgrwt>
<rscale>  0 0.29089950E+03</rscale>
<asrwt>0</asrwt>
<pdfrwt beam="1">  1        2 0.45083880E-02 0.29089950E+03</pdfrwt>
<pdfrwt beam="2">  1       -2 0.95765391E-01 0.29089950E+03</pdfrwt>
<totfact> 0.17138824E+03</totfact>
</mgrwt>
</event>
<event>
 4    1  0.1330040E-003  0.2430126E+03  0.7818608E-02  0.1117802E+00
          2   -1    0    0  501    0  0.00000000000E+00  0.00000000000E+00  0.19691618070E+04  0.19691618070E+04  0.25500000000E-02 0.  1.
         -2   -1    0    0    0  501 -0.00000000000E+00 -0.00000000000E+00 -0.74974951785E+01  0.74974956121E+01  0.25500000000E-02 0. -1.
    5000001    1    1    2    0    0 -0.72497963965E+02 -0.52096729223E+02  0.12200261194E+04  0.12257090830E+04  0.77000000000E+02 0.  0.
   -5000001    1    1    2    0    0  0.72497963965E+02  0.52096729223E+02  0.74163819238E+03  0.75095021964E+03  0.77000000000E+02 0.  0.
<mgrwt>
<rscale>  0 0.24301261E+03</rscale>
<asrwt>0</asrwt>
<pdfrwt beam="1">  1        2 0.28130888E+00 0.24301261E+03</pdfrwt>
<pdfrwt beam="2">  1       -2 0.10710706E-02 0.24301261E+03</pdfrwt>
<totfact> 0.17569883E+04</totfact>
</mgrwt>
</event>
<event>
 4    1  0.1330040E-003  0.1958855E+03  0.7818608E-02  0.1153258E+00
          2   -1    0    0  501    0  0.00000000000E+00  0.00000000000E+00  0.92549383094E+02  0.92549383129E+02  0.25500000000E-02 0.  1.
         -2   -1    0    0    0  501 -0.00000000000E+00 -0.00000000000E+00 -0.10365037130E+03  0.10365037134E+03  0.25500000000E-02 0. -1.
    5000001    1    1    2    0    0  0.30091810713E+00 -0.47031585060E+02 -0.43713037146E+02  0.10025911510E+03  0.77000000000E+02 0.  0.
   -5000001    1    1    2    0    0 -0.30091810713E+00  0.47031585060E+02  0.32612048936E+02  0.95940639360E+02  0.77000000000E+02 0.  0.
<mgrwt>
<rscale>  0 0.19588546E+03</rscale>
<asrwt>0</asrwt>
<pdfrwt beam="1">  1        2 0.13221340E-01 0.19588546E+03</pdfrwt>
<pdfrwt beam="2">  1       -2 0.14807196E-01 0.19588546E+03</pdfrwt>
<totfact> 0.15272100E+04</totfact>
</mgrwt>
</event>
<event>
 4    1  0.1330040E-003  0.2166035E+03  0.7818608E-02  0.1136441E+00
         -2   -1    0    0    0  501 -0.00000000000E+00  0.00000000000E+00  0.33735254546E+02  0.33735254642E+02  0.25500000000E-02 0. -1.
          2   -1    0    0  501    0  0.00000000000E+00 -0.00000000000E+00 -0.34768568258E+03  0.34768568259E+03  0.25500000000E-02 0.  1.
    5000001    1    1    2    0    0 -0.46376703402E+02  0.49829819626E+02 -0.21711657028E+03  0.24021326906E+03  0.77000000000E+02 0.  0.
   -5000001    1    1    2    0    0  0.46376703402E+02 -0.49829819626E+02 -0.96833857747E+02  0.14120766817E+03  0.77000000000E+02 0.  0.
<mgrwt>
<rscale>  0 0.21660346E+03</rscale>
<asrwt>0</asrwt>
<pdfrwt beam="1">  1        2 0.49669381E-01 0.21660346E+03</pdfrwt>
<pdfrwt beam="2">  1       -2 0.48193223E-02 0.21660346E+03</pdfrwt>
<totfact> 0.20349603E+04</totfact>
</mgrwt>
</event>
<event>
 4    1  0.1330040E-003  0.3339878E+03  0.7818608E-02  0.1069386E+00
          2   -1    0    0  501    0  0.00000000000E+00  0.00000000000E+00  0.21505635835E+03  0.21505635837E+03  0.25500000000E-02 0.  1.
         -2   -1    0    0    0  501 -0.00000000000E+00 -0.00000000000E+00 -0.12967281163E+03  0.12967281165E+03  0.25500000000E-02 0. -1.
    5000001    1    1    2    0    0 -0.92797569292E+02 -0.11404655713E+03  0.61722666264E+02  0.17707821320E+03  0.77000000000E+02 0.  0.
   -5000001    1    1    2    0    0  0.92797569292E+02  0.11404655713E+03  0.23660880464E+02  0.16765095682E+03  0.77000000000E+02 0.  0.
<mgrwt>
<rscale>  0 0.33398780E+03</rscale>
<asrwt>0</asrwt>
<pdfrwt beam="1">  1        2 0.30722337E-01 0.33398780E+03</pdfrwt>
<pdfrwt beam="2">  1       -2 0.18524688E-01 0.33398780E+03</pdfrwt>
<totfact> 0.41040985E+03</totfact>
</mgrwt>
</event>
<event>
 4    1  0.1330040E-003  0.3240767E+03  0.7818608E-02  0.1073788E+00
         -2   -1    0    0    0  501 -0.00000000000E+00  0.00000000000E+00  0.28027896860E+02  0.28027896976E+02  0.25500000000E-02 0. -1.
          2   -1    0    0  501    0  0.00000000000E+00 -0.00000000000E+00 -0.93679638945E+03  0.93679638946E+03  0.25500000000E-02 0.  1.
    5000001    1    1    2    0    0  0.13453524598E+03  0.10991217736E+02 -0.59103802610E+03  0.61112640883E+03  0.77000000000E+02 0.  0.
   -5000001    1    1    2    0    0 -0.13453524598E+03 -0.10991217736E+02 -0.31773046650E+03  0.35369787760E+03  0.77000000000E+02 0.  0.
<mgrwt>
<rscale>  0 0.32407674E+03</rscale>
<asrwt>0</asrwt>
<pdfrwt beam="1">  1        2 0.13382803E+00 0.32407674E+03</pdfrwt>
<pdfrwt beam="2">  1       -2 0.40039859E-02 0.32407674E+03</pdfrwt>
<totfact> 0.87564820E+03</totfact>
</mgrwt>
</event>
<event>
 4    1  0.1330040E-003  0.1733614E+03  0.7818608E-02  0.1174387E+00
         -2   -1    0    0    0  501 -0.00000000000E+00  0.00000000000E+00  0.59934578913E+01  0.59934584338E+01  0.25500000000E-02 0. -1.
          2   -1    0    0  501    0  0.00000000000E+00 -0.00000000000E+00 -0.12536237295E+04  0.12536237295E+04  0.25500000000E-02 0.  1.
    5000001    1    1    2    0    0 -0.23413188340E+01  0.34408354006E+02 -0.76824379315E+03  0.77286282244E+03  0.77000000000E+02 0.  0.
   -5000001    1    1    2    0    0  0.23413188340E+01 -0.34408354006E+02 -0.47938647848E+03  0.48675436552E+03  0.77000000000E+02 0.  0.
<mgrwt>
<rscale>  0 0.17336137E+03</rscale>
<asrwt>0</asrwt>
<pdfrwt beam="1">  1        2 0.17908894E+00 0.17336137E+03</pdfrwt>
<pdfrwt beam="2">  1       -2 0.85620911E-03 0.17336137E+03</pdfrwt>
<totfact> 0.53929762E+04</totfact>
</mgrwt>
</event>
<event>
 4    1  0.1330040E-003  0.3860739E+03  0.7818608E-02  0.1048711E+00
          2   -1    0    0  501    0  0.00000000000E+00  0.00000000000E+00  0.10276465680E+04  0.10276465680E+04  0.25500000000E-02 0.  1.
         -2   -1    0    0    0  501 -0.00000000000E+00 -0.00000000000E+00 -0.36260775709E+02  0.36260775799E+02  0.25500000000E-02 0. -1.
    5000001    1    1    2    0    0 -0.93535080260E+02 -0.12263370037E+03  0.73508181202E+03  0.75502457315E+03  0.77000000000E+02 0.  0.
   -5000001    1    1    2    0    0  0.93535080260E+02  0.12263370037E+03  0.25630398031E+03  0.30888277069E+03  0.77000000000E+02 0.  0.
<mgrwt>
<rscale>  0 0.38607389E+03</rscale>
<asrwt>0</asrwt>
<pdfrwt beam="1">  1        2 0.14680665E+00 0.38607389E+03</pdfrwt>
<pdfrwt beam="2">  1       -2 0.51801109E-02 0.38607389E+03</pdfrwt>
<totfact> 0.52327125E+03</totfact>
</mgrwt>
</event>
<event>
 4    1  0.1330040E-003  0.2016137E+03  0.7818608E-02  0.1148385E+00
         -2   -1    0    0    0  501 -0.00000000000E+00  0.00000000000E+00  0.68355571253E+01  0.68355576010E+01  0.25500000000E-02 0. -1.
          2   -1    0    0  501    0  0.00000000000E+00 -0.00000000000E+00 -0.14866411022E+04  0.14866411022E+04  0.25500000000E-02 0.  1.
    5000001    1    1    2    0    0  0.34311124693E+02 -0.55105517337E+02 -0.77231836182E+03  0.77885719058E+03  0.77000000000E+02 0.  0.
   -5000001    1    1    2    0    0 -0.34311124693E+02  0.55105517337E+02 -0.70748718326E+03  0.71461946923E+03  0.77000000000E+02 0.  0.
<mgrwt>
<rscale>  0 0.20161370E+03</rscale>
<asrwt>0</asrwt>
<pdfrwt beam="1">  1        2 0.21237709E+00 0.20161370E+03</pdfrwt>
<pdfrwt beam="2">  1       -2 0.97650914E-03 0.20161370E+03</pdfrwt>
<totfact> 0.34304786E+04</totfact>
</mgrwt>
</event>
<event>
 4    1  0.1330040E-003  0.3000129E+03  0.7818608E-02  0.1085234E+00
         -2   -1    0    0    0  501 -0.00000000000E+00  0.00000000000E+00  0.75638453097E+02  0.75638453140E+02  0.25500000000E-02 0. -1.
          2   -1    0    0  501    0  0.00000000000E+00 -0.00000000000E+00 -0.29749330000E+03  0.29749330001E+03  0.25500000000E-02 0.  1.
    5000001    1    1    2    0    0 -0.10354952610E+03 -0.76244644233E+02 -0.11851134656E+03  0.19107508837E+03  0.77000000000E+02 0.  0.
   -5000001    1    1    2    0    0  0.10354952610E+03  0.76244644233E+02 -0.10334350034E+03  0.18205666478E+03  0.77000000000E+02 0.  0.
<mgrwt>
<rscale>  0 0.30001289E+03</rscale>
<asrwt>0</asrwt>
<pdfrwt beam="1">  1        2 0.42499042E-01 0.30001289E+03</pdfrwt>
<pdfrwt beam="2">  1       -2 0.10805493E-01 0.30001289E+03</pdfrwt>
<totfact> 0.69862812E+03</totfact>
</mgrwt>
</event>
<event>
 4    1  0.1330040E-003  0.3447906E+03  0.7818608E-02  0.1064774E+00
          2   -1    0    0  501    0  0.00000000000E+00  0.00000000000E+00  0.61379635256E+03  0.61379635257E+03  0.25500000000E-02 0.  1.
         -2   -1    0    0    0  501 -0.00000000000E+00 -0.00000000000E+00 -0.48420186500E+02  0.48420186567E+02  0.25500000000E-02 0. -1.
    5000001    1    1    2    0    0  0.26222088075E+02  0.15005554884E+03  0.23616002217E+03  0.29138431960E+03  0.77000000000E+02 0.  0.
   -5000001    1    1    2    0    0 -0.26222088075E+02 -0.15005554884E+03  0.32921614389E+03  0.37083221953E+03  0.77000000000E+02 0.  0.
<mgrwt>
<rscale>  0 0.34479057E+03</rscale>
<asrwt>0</asrwt>
<pdfrwt beam="1">  1        2 0.87685178E-01 0.34479057E+03</pdfrwt>
<pdfrwt beam="2">  1       -2 0.69171707E-02 0.34479057E+03</pdfrwt>
<totfact> 0.63877468E+03</totfact>
</mgrwt>
</event>
<event>
 4    1  0.1330040E-003  0.2491997E+03  0.7818608E-02  0.1113812E+00
          2   -1    0    0  501    0  0.00000000000E+00  0.00000000000E+00  0.13345895758E+04  0.13345895758E+04  0.25500000000E-02 0.  1.
         -2   -1    0    0    0  501 -0.00000000000E+00 -0.00000000000E+00 -0.11632880348E+02  0.11632880628E+02  0.25500000000E-02 0. -1.
    5000001    1    1    2    0    0  0.76096442271E+02 -0.58897393806E+02  0.56237374557E+03  0.57571937716E+03  0.77000000000E+02 0.  0.
   -5000001    1    1    2    0    0 -0.76096442271E+02  0.58897393806E+02  0.76058294984E+03  0.77050307924E+03  0.77000000000E+02 0.  0.
<mgrwt>
<rscale>  0 0.24919969E+03</rscale>
<asrwt>0</asrwt>
<pdfrwt beam="1">  1        2 0.19065560E+00 0.24919969E+03</pdfrwt>
<pdfrwt beam="2">  1       -2 0.16618405E-02 0.24919969E+03</pdfrwt>
<totfact> 0.19164095E+04</totfact>
</mgrwt>
</event>
<event>
 4    1  0.1330040E-003  0.4241474E+03  0.7818608E-02  0.1035725E+00
          2   -1    0    0  501    0  0.00000000000E+00  0.00000000000E+00  0.24733195033E+03  0.24733195034E+03  0.25500000000E-02 0.  1.
         -2   -1    0    0    0  501 -0.00000000000E+00 -0.00000000000E+00 -0.18184164070E+03  0.18184164071E+03  0.25500000000E-02 0. -1.
    5000001    1    1    2    0    0  0.30727029715E+02 -0.19469267219E+03  0.18548183108E+02  0.21242038992E+03  0.77000000000E+02 0.  0.
   -5000001    1    1    2    0    0 -0.30727029715E+02  0.19469267219E+03  0.46942126522E+02  0.21675320113E+03  0.77000000000E+02 0.  0.
<mgrwt>
<rscale>  0 0.42414737E+03</rscale>
<asrwt>0</asrwt>
<pdfrwt beam="1">  1        2 0.35333136E-01 0.42414737E+03</pdfrwt>
<pdfrwt beam="2">  1       -2 0.25977377E-01 0.42414737E+03</pdfrwt>
<totfact> 0.19588447E+03</totfact>
</mgrwt>
</event>
<event>
 4    1  0.1330040E-003  0.1824862E+03  0.7818608E-02  0.1165418E+00
         -2   -1    0    0    0  501 -0.00000000000E+00  0.00000000000E+00  0.21418925035E+02  0.21418925186E+02  0.25500000000E-02 0. -1.
          2   -1    0    0  501    0  0.00000000000E+00 -0.00000000000E+00 -0.38868901900E+03  0.38868901901E+03  0.25500000000E-02 0.  1.
    5000001    1    1    2    0    0 -0.24955765330E+02 -0.31168914390E+02 -0.11999097138E+03  0.14805784227E+03  0.77000000000E+02 0.  0.
   -5000001    1    1    2    0    0  0.24955765330E+02  0.31168914390E+02 -0.24727912259E+03  0.26205010192E+03  0.77000000000E+02 0.  0.
<mgrwt>
<rscale>  0 0.18248617E+03</rscale>
<asrwt>0</asrwt>
<pdfrwt beam="1">  1        2 0.55526998E-01 0.18248617E+03</pdfrwt>
<pdfrwt beam="2">  1       -2 0.30598467E-02 0.18248617E+03</pdfrwt>
<totfact> 0.35118055E+04</totfact>
</mgrwt>
</event>
<event>
 4    1  0.1330040E-003  0.2326481E+03  0.7818608E-02  0.1124790E+00
         -2   -1    0    0    0  501 -0.00000000000E+00  0.00000000000E+00  0.18623698022E+03  0.18623698023E+03  0.25500000000E-02 0. -1.
          2   -1    0    0  501    0  0.00000000000E+00 -0.00000000000E+00 -0.72656296551E+02  0.72656296596E+02  0.25500000000E-02 0.  1.
    5000001    1    1    2    0    0 -0.47958234145E+02  0.66423894701E+02  0.23588970589E+02  0.11488065783E+03  0.77000000000E+02 0.  0.
   -5000001    1    1    2    0    0  0.47958234145E+02 -0.66423894701E+02  0.89991713077E+02  0.14401261900E+03  0.77000000000E+02 0.  0.
<mgrwt>
<rscale>  0 0.23264814E+03</rscale>
<asrwt>0</asrwt>
<pdfrwt beam="1">  1        2 0.10379471E-01 0.23264814E+03</pdfrwt>
<pdfrwt beam="2">  1       -2 0.26605283E-01 0.23264814E+03</pdfrwt>
<totfact> 0.76325058E+03</totfact>
</mgrwt>
</event>
<event>
 4    1  0.1330040E-003  0.1964087E+03  0.7818608E-02  0.1152805E+00
          2   -1    0    0  501    0  0.00000000000E+00  0.00000000000E+00  0.76194793037E+03  0.76194793038E+03  0.25500000000E-02 0.  1.
         -2   -1    0    0    0  501 -0.00000000000E+00 -0.00000000000E+00 -0.12657156143E+02  0.12657156400E+02  0.25500000000E-02 0. -1.
    5000001    1    1    2    0    0 -0.43802663884E+02 -0.42204706458E+02  0.39001292914E+03  0.40216786981E+03  0.77000000000E+02 0.  0.
   -5000001    1    1    2    0    0  0.43802663884E+02  0.42204706458E+02  0.35927784509E+03  0.37243721696E+03  0.77000000000E+02 0.  0.
<mgrwt>
<rscale>  0 0.19640870E+03</rscale>
<asrwt>0</asrwt>
<pdfrwt beam="1">  1        2 0.10884972E+00 0.19640870E+03</pdfrwt>
<pdfrwt beam="2">  1       -2 0.18081649E-02 0.19640870E+03</pdfrwt>
<totfact> 0.36002019E+04</totfact>
</mgrwt>
</event>
<event>
 4    1  0.1330040E-003  0.2190067E+03  0.7818608E-02  0.1134626E+00
         -2   -1    0    0    0  501 -0.00000000000E+00  0.00000000000E+00  0.60385407981E+01  0.60385413365E+01  0.25500000000E-02 0. -1.
          2   -1    0    0  501    0  0.00000000000E+00 -0.00000000000E+00 -0.19857415791E+04  0.19857415791E+04  0.25500000000E-02 0.  1.
    5000001    1    1    2    0    0 -0.25482343771E+02 -0.67578917673E+02 -0.72536845626E+03  0.73301068020E+03  0.77000000000E+02 0.  0.
   -5000001    1    1    2    0    0  0.25482343771E+02  0.67578917673E+02 -0.12543345820E+04  0.12587694402E+04  0.77000000000E+02 0.  0.
<mgrwt>
<rscale>  0 0.21900669E+03</rscale>
<asrwt>0</asrwt>
<pdfrwt beam="1">  1        2 0.28367695E+00 0.21900669E+03</pdfrwt>
<pdfrwt beam="2">  1       -2 0.86264999E-03 0.21900669E+03</pdfrwt>
<totfact> 0.23495155E+04</totfact>
</mgrwt>
</event>
<event>
 4    1  0.1330040E-003  0.4270140E+03  0.7818608E-02  0.1034807E+00
          2   -1    0    0  501    0  0.00000000000E+00  0.00000000000E+00  0.27701629395E+03  0.27701629396E+03  0.25500000000E-02 0.  1.
         -2   -1    0    0    0  501 -0.00000000000E+00 -0.00000000000E+00 -0.16455794200E+03  0.16455794202E+03  0.25500000000E-02 0. -1.
    5000001    1    1    2    0    0  0.80826926835E+01 -0.13884566943E+03 -0.91153469194E+02  0.18325229817E+03  0.77000000000E+02 0.  0.
   -5000001    1    1    2    0    0 -0.80826926835E+01  0.13884566943E+03  0.20361182115E+03  0.25832193780E+03  0.77000000000E+02 0.  0.
<mgrwt>
<rscale>  0 0.42701396E+03</rscale>
<asrwt>0</asrwt>
<pdfrwt beam="1">  1        2 0.39573756E-01 0.42701396E+03</pdfrwt>
<pdfrwt beam="2">  1       -2 0.23508278E-01 0.42701396E+03</pdfrwt>
<totfact> 0.20661167E+03</totfact>
</mgrwt>
</event>
<event>
 4    1  0.1330040E-003  0.1630627E+03  0.7818608E-02  0.1185282E+00
         -2   -1    0    0    0  501 -0.00000000000E+00  0.00000000000E+00  0.13876307895E+02  0.13876308129E+02  0.25500000000E-02 0. -1.
          2   -1    0    0  501    0  0.00000000000E+00 -0.00000000000E+00 -0.47904365853E+03  0.47904365854E+03  0.25500000000E-02 0.  1.
    5000001    1    1    2    0    0 -0.11851282855E+02  0.23925144645E+02 -0.23966775689E+03  0.25314521356E+03  0.77000000000E+02 0.  0.
   -5000001    1    1    2    0    0  0.11851282855E+02 -0.23925144645E+02 -0.22549959375E+03  0.23977475311E+03  0.77000000000E+02 0.  0.
<mgrwt>
<rscale>  0 0.16306265E+03</rscale>
<asrwt>0</asrwt>
<pdfrwt beam="1">  1        2 0.68434798E-01 0.16306265E+03</pdfrwt>
<pdfrwt beam="2">  1       -2 0.19823300E-02 0.16306265E+03</pdfrwt>
<totfact> 0.52442370E+04</totfact>
</mgrwt>
</event>
<event>
 4    1  0.1330040E-003  0.5267367E+03  0.7818608E-02  0.1007027E+00
          2   -1    0    0  501    0  0.00000000000E+00  0.00000000000E+00  0.23361235812E+03  0.23361235814E+03  0.25500000000E-02 0.  1.
         -2   -1    0    0    0  501 -0.00000000000E+00 -0.00000000000E+00 -0.29691447973E+03  0.29691447974E+03  0.25500000000E-02 0. -1.
    5000001    1    1    2    0    0 -0.22599325757E+03 -0.10607416926E+03  0.18933865161E+01  0.26126091703E+03  0.77000000000E+02 0.  0.
   -5000001    1    1    2    0    0  0.22599325757E+03  0.10607416926E+03 -0.65195508122E+02  0.26926592085E+03  0.77000000000E+02 0.  0.
<mgrwt>
<rscale>  0 0.52673672E+03</rscale>
<asrwt>0</asrwt>
<pdfrwt beam="1">  1        2 0.33373194E-01 0.52673672E+03</pdfrwt>
<pdfrwt beam="2">  1       -2 0.42416354E-01 0.52673672E+03</pdfrwt>
<totfact> 0.83448976E+02</totfact>
</mgrwt>
</event>
<event>
 4    1  0.1330040E-003  0.5865334E+03  0.7818608E-02  0.9933746E-01
          2   -1    0    0  501    0  0.00000000000E+00  0.00000000000E+00  0.40024061548E+03  0.40024061549E+03  0.25500000000E-02 0.  1.
         -2   -1    0    0    0  501 -0.00000000000E+00 -0.00000000000E+00 -0.21488411800E+03  0.21488411802E+03  0.25500000000E-02 0. -1.
    5000001    1    1    2    0    0 -0.14856151721E+03  0.24060972380E+03  0.81540381348E+02  0.30420617576E+03  0.77000000000E+02 0.  0.
   -5000001    1    1    2    0    0  0.14856151721E+03 -0.24060972380E+03  0.10381611613E+03  0.31091855774E+03  0.77000000000E+02 0.  0.
<mgrwt>
<rscale>  0 0.58653338E+03</rscale>
<asrwt>0</asrwt>
<pdfrwt beam="1">  1        2 0.57177230E-01 0.58653338E+03</pdfrwt>
<pdfrwt beam="2">  1       -2 0.30697731E-01 0.58653338E+03</pdfrwt>
<totfact> 0.85150343E+02</totfact>
</mgrwt>
</event>
<event>
 4    1  0.1330040E-003  0.1720751E+03  0.7818608E-02  0.1175701E+00
          2   -1    0    0  501    0  0.00000000000E+00  0.00000000000E+00  0.11651048442E+04  0.11651048442E+04  0.25500000000E-02 0.  1.
         -2   -1    0    0    0  501 -0.00000000000E+00 -0.00000000000E+00 -0.63534706211E+01  0.63534711328E+01  0.25500000000E-02 0. -1.
    5000001    1    1    2    0    0 -0.17678414955E+02 -0.34066642787E+02  0.57508516613E+03  0.58148517678E+03  0.77000000000E+02 0.  0.
   -5000001    1    1    2    0    0  0.17678414955E+02  0.34066642787E+02  0.58366620749E+03  0.58997313860E+03  0.77000000000E+02 0.  0.
<mgrwt>
<rscale>  0 0.17207510E+03</rscale>
<asrwt>0</asrwt>
<pdfrwt beam="1">  1        2 0.16644363E+00 0.17207510E+03</pdfrwt>
<pdfrwt beam="2">  1       -2 0.90763825E-03 0.17207510E+03</pdfrwt>
<totfact> 0.55249315E+04</totfact>
</mgrwt>
</event>
<event>
 4    1  0.1330040E-003  0.3093404E+03  0.7818608E-02  0.1080662E+00
          2   -1    0    0  501    0  0.00000000000E+00  0.00000000000E+00  0.36473420277E+03  0.36473420278E+03  0.25500000000E-02 0.  1.
         -2   -1    0    0    0  501 -0.00000000000E+00 -0.00000000000E+00 -0.65589867003E+02  0.65589867053E+02  0.25500000000E-02 0. -1.
    5000001    1    1    2    0    0  0.60763100248E+02  0.10020220879E+03  0.24038067882E+03  0.27828853327E+03  0.77000000000E+02 0.  0.
   -5000001    1    1    2    0    0 -0.60763100248E+02 -0.10020220879E+03  0.58763656940E+02  0.15203553656E+03  0.77000000000E+02 0.  0.
<mgrwt>
<rscale>  0 0.30934038E+03</rscale>
<asrwt>0</asrwt>
<pdfrwt beam="1">  1        2 0.52104886E-01 0.30934038E+03</pdfrwt>
<pdfrwt beam="2">  1       -2 0.93699809E-02 0.30934038E+03</pdfrwt>
<totfact> 0.70443952E+03</totfact>
</mgrwt>
</event>
<event>
 4    1  0.1330040E-003  0.2176931E+03  0.7818608E-02  0.1135615E+00
         -2   -1    0    0    0  501 -0.00000000000E+00  0.00000000000E+00  0.32581110418E+02  0.32581110518E+02  0.25500000000E-02 0. -1.
          2   -1    0    0  501    0  0.00000000000E+00 -0.00000000000E+00 -0.36363305341E+03  0.36363305342E+03  0.25500000000E-02 0.  1.
    5000001    1    1    2    0    0  0.69884853818E+00  0.61780475769E+02 -0.24895641805E+03  0.26781638050E+03  0.77000000000E+02 0.  0.
   -5000001    1    1    2    0    0 -0.69884853818E+00 -0.61780475769E+02 -0.82095524937E+02  0.12839778343E+03  0.77000000000E+02 0.  0.
<mgrwt>
<rscale>  0 0.21769307E+03</rscale>
<asrwt>0</asrwt>
<pdfrwt beam="1">  1        2 0.51947577E-01 0.21769307E+03</pdfrwt>
<pdfrwt beam="2">  1       -2 0.46544446E-02 0.21769307E+03</pdfrwt>
<totfact> 0.20448177E+04</totfact>
</mgrwt>
</event>
<event>
 4    1  0.1330040E-003  0.1763632E+03  0.7818608E-02  0.1171370E+00
         -2   -1    0    0    0  501 -0.00000000000E+00  0.00000000000E+00  0.12930465916E+02  0.12930466167E+02  0.25500000000E-02 0. -1.
          2   -1    0    0  501    0  0.00000000000E+00 -0.00000000000E+00 -0.60137022140E+03  0.60137022140E+03  0.25500000000E-02 0.  1.
    5000001    1    1    2    0    0  0.39023901598E+02  0.16486194136E+02 -0.31941871054E+03  0.33128835195E+03  0.77000000000E+02 0.  0.
   -5000001    1    1    2    0    0 -0.39023901598E+02 -0.16486194136E+02 -0.26902104493E+03  0.28301233562E+03  0.77000000000E+02 0.  0.
<mgrwt>
<rscale>  0 0.17636323E+03</rscale>
<asrwt>0</asrwt>
<pdfrwt beam="1">  1        2 0.85910014E-01 0.17636323E+03</pdfrwt>
<pdfrwt beam="2">  1       -2 0.18472098E-02 0.17636323E+03</pdfrwt>
<totfact> 0.45547285E+04</totfact>
</mgrwt>
</event>
<event>
 4    1  0.1330040E-003  0.2681517E+03  0.7818608E-02  0.1102342E+00
         -2   -1    0    0    0  501 -0.00000000000E+00  0.00000000000E+00  0.95756174095E+02  0.95756174129E+02  0.25500000000E-02 0. -1.
          2   -1    0    0  501    0  0.00000000000E+00 -0.00000000000E+00 -0.18773026238E+03  0.18773026239E+03  0.25500000000E-02 0.  1.
    5000001    1    1    2    0    0 -0.88804671646E+02 -0.64435487199E+02 -0.42792663910E+02  0.14070683637E+03  0.77000000000E+02 0.  0.
   -5000001    1    1    2    0    0  0.88804671646E+02  0.64435487199E+02 -0.49181424373E+02  0.14277960015E+03  0.77000000000E+02 0.  0.
<mgrwt>
<rscale>  0 0.26815169E+03</rscale>
<asrwt>0</asrwt>
<pdfrwt beam="1">  1        2 0.26818609E-01 0.26815169E+03</pdfrwt>
<pdfrwt beam="2">  1       -2 0.13679453E-01 0.26815169E+03</pdfrwt>
<totfact> 0.78465930E+03</totfact>
</mgrwt>
</event>
<event>
 4    1  0.1330040E-003  0.2590917E+03  0.7818608E-02  0.1107690E+00
          2   -1    0    0  501    0  0.00000000000E+00  0.00000000000E+00  0.15515219974E+04  0.15515219974E+04  0.25500000000E-02 0.  1.
         -2   -1    0    0    0  501 -0.00000000000E+00 -0.00000000000E+00 -0.10816554557E+02  0.10816554858E+02  0.25500000000E-02 0. -1.
    5000001    1    1    2    0    0 -0.22439293725E+02  0.86329246971E+02  0.10949056981E+04  0.11012282908E+04  0.77000000000E+02 0.  0.
   -5000001    1    1    2    0    0  0.22439293725E+02 -0.86329246971E+02  0.44579974472E+03  0.46111026141E+03  0.77000000000E+02 0.  0.
<mgrwt>
<rscale>  0 0.25909166E+03</rscale>
<asrwt>0</asrwt>
<pdfrwt beam="1">  1        2 0.22164604E+00 0.25909166E+03</pdfrwt>
<pdfrwt beam="2">  1       -2 0.15452218E-02 0.25909166E+03</pdfrwt>
<totfact> 0.16552675E+04</totfact>
</mgrwt>
</event>
<event>
 4    1  0.1330040E-003  0.3702470E+03  0.7818608E-02  0.1054599E+00
         -2   -1    0    0    0  501 -0.00000000000E+00  0.00000000000E+00  0.24466342114E+02  0.24466342247E+02  0.25500000000E-02 0. -1.
          2   -1    0    0  501    0  0.00000000000E+00 -0.00000000000E+00 -0.14007291761E+04  0.14007291761E+04  0.25500000000E-02 0.  1.
    5000001    1    1    2    0    0  0.51407813100E+02  0.12422133618E+03 -0.29807618771E+03  0.33593469200E+03  0.77000000000E+02 0.  0.
   -5000001    1    1    2    0    0 -0.51407813100E+02 -0.12422133618E+03 -0.10781866463E+04  0.10892608263E+04  0.77000000000E+02 0.  0.
<mgrwt>
<rscale>  0 0.37024705E+03</rscale>
<asrwt>0</asrwt>
<pdfrwt beam="1">  1        2 0.20010412E+00 0.37024705E+03</pdfrwt>
<pdfrwt beam="2">  1       -2 0.34951926E-02 0.37024705E+03</pdfrwt>
<totfact> 0.59334503E+03</totfact>
</mgrwt>
</event>
<event>
 4    1  0.1330040E-003  0.2203083E+03  0.7818608E-02  0.1133653E+00
          2   -1    0    0  501    0  0.00000000000E+00  0.00000000000E+00  0.68747696893E+02  0.68747696940E+02  0.25500000000E-02 0.  1.
         -2   -1    0    0    0  501 -0.00000000000E+00 -0.00000000000E+00 -0.17649957713E+03  0.17649957715E+03  0.25500000000E-02 0. -1.
    5000001    1    1    2    0    0  0.64758736963E+02 -0.40146552056E+02 -0.31625861193E+02  0.11284783893E+03  0.77000000000E+02 0.  0.
   -5000001    1    1    2    0    0 -0.64758736963E+02  0.40146552056E+02 -0.76126019047E+02  0.13239943516E+03  0.77000000000E+02 0.  0.
<mgrwt>
<rscale>  0 0.22030832E+03</rscale>
<asrwt>0</asrwt>
<pdfrwt beam="1">  1        2 0.98210996E-02 0.22030832E+03</pdfrwt>
<pdfrwt beam="2">  1       -2 0.25214225E-01 0.22030832E+03</pdfrwt>
<totfact> 0.89590992E+03</totfact>
</mgrwt>
</event>
<event>
 4    1  0.1330040E-003  0.2664109E+03  0.7818608E-02  0.1103351E+00
         -2   -1    0    0    0  501 -0.00000000000E+00  0.00000000000E+00  0.39198524438E+02  0.39198524521E+02  0.25500000000E-02 0. -1.
          2   -1    0    0  501    0  0.00000000000E+00 -0.00000000000E+00 -0.45266238235E+03  0.45266238235E+03  0.25500000000E-02 0.  1.
    5000001    1    1    2    0    0 -0.28924781938E+01 -0.10258207991E+03 -0.27286908784E+03  0.30152609945E+03  0.77000000000E+02 0.  0.
   -5000001    1    1    2    0    0  0.28924781938E+01  0.10258207991E+03 -0.14059477007E+03  0.19033480743E+03  0.77000000000E+02 0.  0.
<mgrwt>
<rscale>  0 0.26641094E+03</rscale>
<asrwt>0</asrwt>
<pdfrwt beam="1">  1        2 0.64666051E-01 0.26641094E+03</pdfrwt>
<pdfrwt beam="2">  1       -2 0.55997895E-02 0.26641094E+03</pdfrwt>
<totfact> 0.12331949E+04</totfact>
</mgrwt>
</event>
<event>
 4    1  0.1330040E-003  0.2529271E+03  0.7818608E-02  0.1111469E+00
          2   -1    0    0  501    0  0.00000000000E+00  0.00000000000E+00  0.98949880417E+03  0.98949880418E+03  0.25500000000E-02 0.  1.
         -2   -1    0    0    0  501 -0.00000000000E+00 -0.00000000000E+00 -0.16162759413E+02  0.16162759614E+02  0.25500000000E-02 0. -1.
    5000001    1    1    2    0    0  0.48858752345E+02  0.77838822690E+02  0.64660241275E+03  0.65762431537E+03  0.77000000000E+02 0.  0.
   -5000001    1    1    2    0    0 -0.48858752345E+02 -0.77838822690E+02  0.32673363201E+03  0.34803724842E+03  0.77000000000E+02 0.  0.
<mgrwt>
<rscale>  0 0.25292711E+03</rscale>
<asrwt>0</asrwt>
<pdfrwt beam="1">  1        2 0.14135697E+00 0.25292711E+03</pdfrwt>
<pdfrwt beam="2">  1       -2 0.23089657E-02 0.25292711E+03</pdfrwt>
<totfact> 0.18331857E+04</totfact>
</mgrwt>
</event>
<event>
 4    1  0.1330040E-003  0.1615595E+03  0.7818608E-02  0.1186947E+00
          2   -1    0    0  501    0  0.00000000000E+00  0.00000000000E+00  0.12532829807E+04  0.12532829807E+04  0.25500000000E-02 0.  1.
         -2   -1    0    0    0  501 -0.00000000000E+00 -0.00000000000E+00 -0.52066181227E+01  0.52066187472E+01  0.25500000000E-02 0. -1.
    5000001    1    1    2    0    0 -0.15923817593E+02 -0.17472997236E+02  0.57634125360E+03  0.58194253514E+03  0.77000000000E+02 0.  0.
   -5000001    1    1    2    0    0  0.15923817593E+02  0.17472997236E+02  0.67173510898E+03  0.67654706432E+03  0.77000000000E+02 0.  0.
<mgrwt>
<rscale>  0 0.16155948E+03</rscale>
<asrwt>0</asrwt>
<pdfrwt beam="1">  1        2 0.17904072E+00 0.16155948E+03</pdfrwt>
<pdfrwt beam="2">  1       -2 0.74380143E-03 0.16155948E+03</pdfrwt>
<totfact> 0.65590007E+04</totfact>
</mgrwt>
</event>
<event>
 4    1  0.1330040E-003  0.2200640E+03  0.7818608E-02  0.1133835E+00
          2   -1    0    0  501    0  0.00000000000E+00  0.00000000000E+00  0.21820426189E+04  0.21820426189E+04  0.25500000000E-02 0.  1.
         -2   -1    0    0    0  501 -0.00000000000E+00 -0.00000000000E+00 -0.55484917725E+01  0.55484923585E+01  0.25500000000E-02 0. -1.
    5000001    1    1    2    0    0 -0.66945054916E+02  0.34248637003E+02  0.86081634803E+03  0.86751852692E+03  0.77000000000E+02 0.  0.
   -5000001    1    1    2    0    0  0.66945054916E+02 -0.34248637003E+02  0.13156777791E+04  0.13200725843E+04  0.77000000000E+02 0.  0.
<mgrwt>
<rscale>  0 0.22006405E+03</rscale>
<asrwt>0</asrwt>
<pdfrwt beam="1">  1        2 0.31172067E+00 0.22006405E+03</pdfrwt>
<pdfrwt beam="2">  1       -2 0.79264097E-03 0.22006405E+03</pdfrwt>
<totfact> 0.21331877E+04</totfact>
</mgrwt>
</event>
<event>
 4    1  0.1330040E-003  0.2706239E+03  0.7818608E-02  0.1100923E+00
         -2   -1    0    0    0  501 -0.00000000000E+00  0.00000000000E+00  0.76782472153E+02  0.76782472195E+02  0.25500000000E-02 0. -1.
          2   -1    0    0  501    0  0.00000000000E+00 -0.00000000000E+00 -0.23845700140E+03  0.23845700141E+03  0.25500000000E-02 0.  1.
    5000001    1    1    2    0    0 -0.41149352834E+02  0.10128304557E+03 -0.10495844856E+03  0.16999058939E+03  0.77000000000E+02 0.  0.
   -5000001    1    1    2    0    0  0.41149352834E+02 -0.10128304557E+03 -0.56716080684E+02  0.14524888422E+03  0.77000000000E+02 0.  0.
<mgrwt>
<rscale>  0 0.27062386E+03</rscale>
<asrwt>0</asrwt>
<pdfrwt beam="1">  1        2 0.34065286E-01 0.27062386E+03</pdfrwt>
<pdfrwt beam="2">  1       -2 0.10968925E-01 0.27062386E+03</pdfrwt>
<totfact> 0.86310590E+03</totfact>
</mgrwt>
</event>
<event>
 4    1  0.1330040E-003  0.2441195E+03  0.7818608E-02  0.1117079E+00
         -2   -1    0    0    0  501 -0.00000000000E+00  0.00000000000E+00  0.92733463267E+01  0.92733466773E+01  0.25500000000E-02 0. -1.
          2   -1    0    0  501    0  0.00000000000E+00 -0.00000000000E+00 -0.16066029761E+04  0.16066029761E+04  0.25500000000E-02 0.  1.
    5000001    1    1    2    0    0 -0.90538141105E+02 -0.20996245593E+02 -0.67813194434E+03  0.68878874211E+03  0.77000000000E+02 0.  0.
   -5000001    1    1    2    0    0  0.90538141105E+02  0.20996245593E+02 -0.91919768539E+03  0.92708758063E+03  0.77000000000E+02 0.  0.
<mgrwt>
<rscale>  0 0.24411953E+03</rscale>
<asrwt>0</asrwt>
<pdfrwt beam="1">  1        2 0.22951453E+00 0.24411953E+03</pdfrwt>
<pdfrwt beam="2">  1       -2 0.13247648E-02 0.24411953E+03</pdfrwt>
<totfact> 0.19408025E+04</totfact>
</mgrwt>
</event>
<event>
 4    1  0.1330040E-003  0.2223063E+03  0.7818608E-02  0.1132175E+00
          2   -1    0    0  501    0  0.00000000000E+00  0.00000000000E+00  0.16450765898E+04  0.16450765898E+04  0.25500000000E-02 0.  1.
         -2   -1    0    0    0  501 -0.00000000000E+00 -0.00000000000E+00 -0.75103035914E+01  0.75103040243E+01  0.25500000000E-02 0. -1.
    5000001    1    1    2    0    0 -0.20931638759E+02 -0.67657062892E+02  0.53960224827E+03  0.54965006868E+03  0.77000000000E+02 0.  0.
   -5000001    1    1    2    0    0  0.20931638759E+02  0.67657062892E+02  0.10979640379E+04  0.11029368251E+04  0.77000000000E+02 0.  0.
<mgrwt>
<rscale>  0 0.22230632E+03</rscale>
<asrwt>0</asrwt>
<pdfrwt beam="1">  1        2 0.23501108E+00 0.22230632E+03</pdfrwt>
<pdfrwt beam="2">  1       -2 0.10728999E-02 0.22230632E+03</pdfrwt>
<totfact> 0.25124292E+04</totfact>
</mgrwt>
</event>
<event>
 4    1  0.1330040E-003  0.2826648E+03  0.7818608E-02  0.1094242E+00
          2   -1    0    0  501    0  0.00000000000E+00  0.00000000000E+00  0.20876931585E+02  0.20876931741E+02  0.25500000000E-02 0.  1.
         -2   -1    0    0    0  501 -0.00000000000E+00 -0.00000000000E+00 -0.95679054063E+03  0.95679054064E+03  0.25500000000E-02 0. -1.
    5000001    1    1    2    0    0 -0.43612296267E+02  0.85702454653E+02 -0.70755889005E+03  0.71820298385E+03  0.77000000000E+02 0.  0.
   -5000001    1    1    2    0    0  0.43612296267E+02 -0.85702454653E+02 -0.22835471900E+03  0.25946448853E+03  0.77000000000E+02 0.  0.
<mgrwt>
<rscale>  0 0.28266482E+03</rscale>
<asrwt>0</asrwt>
<pdfrwt beam="1">  1        2 0.29824194E-02 0.28266482E+03</pdfrwt>
<pdfrwt beam="2">  1       -2 0.13668434E+00 0.28266482E+03</pdfrwt>
<totfact> 0.12723004E+03</totfact>
</mgrwt>
</event>
<event>
 4    1  0.1330040E-003  0.2870905E+03  0.7818608E-02  0.1091878E+00
         -2   -1    0    0    0  501 -0.00000000000E+00  0.00000000000E+00  0.11308939302E+02  0.11308939590E+02  0.25500000000E-02 0. -1.
          2   -1    0    0  501    0  0.00000000000E+00 -0.00000000000E+00 -0.18220315248E+04  0.18220315248E+04  0.25500000000E-02 0.  1.
    5000001    1    1    2    0    0  0.75306795547E+02  0.85509925742E+02 -0.64259101654E+03  0.65714174680E+03  0.77000000000E+02 0.  0.
   -5000001    1    1    2    0    0 -0.75306795547E+02 -0.85509925742E+02 -0.11681315689E+04  0.11761987176E+04  0.77000000000E+02 0.  0.
<mgrwt>
<rscale>  0 0.28709054E+03</rscale>
<asrwt>0</asrwt>
<pdfrwt beam="1">  1        2 0.26029003E+00 0.28709054E+03</pdfrwt>
<pdfrwt beam="2">  1       -2 0.16155639E-02 0.28709054E+03</pdfrwt>
<totfact> 0.11431179E+04</totfact>
</mgrwt>
</event>
<event>
 4    1  0.1330040E-003  0.1920749E+03  0.7818608E-02  0.1156603E+00
         -2   -1    0    0    0  501 -0.00000000000E+00  0.00000000000E+00  0.48681406211E+02  0.48681406277E+02  0.25500000000E-02 0. -1.
          2   -1    0    0  501    0  0.00000000000E+00 -0.00000000000E+00 -0.18946020225E+03  0.18946020227E+03  0.25500000000E-02 0.  1.
    5000001    1    1    2    0    0 -0.34186925470E+02 -0.21799451676E+02 -0.12075529699E+03  0.14884489819E+03  0.77000000000E+02 0.  0.
   -5000001    1    1    2    0    0  0.34186925470E+02  0.21799451676E+02 -0.20023499055E+02  0.89296710359E+02  0.77000000000E+02 0.  0.
<mgrwt>
<rscale>  0 0.19207487E+03</rscale>
<asrwt>0</asrwt>
<pdfrwt beam="1">  1        2 0.27065743E-01 0.19207487E+03</pdfrwt>
<pdfrwt beam="2">  1       -2 0.69544867E-02 0.19207487E+03</pdfrwt>
<totfact> 0.22211640E+04</totfact>
</mgrwt>
</event>
<event>
 4    1  0.1330040E-003  0.3252302E+03  0.7818608E-02  0.1073267E+00
          2   -1    0    0  501    0  0.00000000000E+00  0.00000000000E+00  0.20860692320E+03  0.20860692322E+03  0.25500000000E-02 0.  1.
         -2   -1    0    0    0  501 -0.00000000000E+00 -0.00000000000E+00 -0.12676311839E+03  0.12676311842E+03  0.25500000000E-02 0. -1.
    5000001    1    1    2    0    0  0.78772724470E+02 -0.10539714888E+03  0.99262890458E+02  0.18192257291E+03  0.77000000000E+02 0.  0.
   -5000001    1    1    2    0    0 -0.78772724470E+02  0.10539714888E+03 -0.17419085650E+02  0.15344746872E+03  0.77000000000E+02 0.  0.
<mgrwt>
<rscale>  0 0.32523016E+03</rscale>
<asrwt>0</asrwt>
<pdfrwt beam="1">  1        2 0.29800989E-01 0.32523016E+03</pdfrwt>
<pdfrwt beam="2">  1       -2 0.18109017E-01 0.32523016E+03</pdfrwt>
<totfact> 0.44077277E+03</totfact>
</mgrwt>
</event>
<event>
 4    1  0.1330040E-003  0.3572066E+03  0.7818608E-02  0.1059695E+00
          2   -1    0    0  501    0  0.00000000000E+00  0.00000000000E+00  0.40578870844E+03  0.40578870844E+03  0.25500000000E-02 0. -1.
         -2   -1    0    0    0  501 -0.00000000000E+00 -0.00000000000E+00 -0.78610223360E+02  0.78610223401E+02  0.25500000000E-02 0.  1.
    5000001    1    1    2    0    0 -0.11900034481E+03  0.10527396723E+03  0.12703929282E+03  0.21751246438E+03  0.77000000000E+02 0.  0.
   -5000001    1    1    2    0    0  0.11900034481E+03 -0.10527396723E+03  0.20013919225E+03  0.26688646746E+03  0.77000000000E+02 0.  0.
<mgrwt>
<rscale>  0 0.35720661E+03</rscale>
<asrwt>0</asrwt>
<pdfrwt beam="1">  1        2 0.57969815E-01 0.35720661E+03</pdfrwt>
<pdfrwt beam="2">  1       -2 0.11230032E-01 0.35720661E+03</pdfrwt>
<totfact> 0.47141554E+03</totfact>
</mgrwt>
</event>
<event>
 4    1  0.1330040E-003  0.3517533E+03  0.7818608E-02  0.1061898E+00
         -2   -1    0    0    0  501 -0.00000000000E+00  0.00000000000E+00  0.18267237523E+03  0.18267237524E+03  0.25500000000E-02 0. -1.
          2   -1    0    0  501    0  0.00000000000E+00 -0.00000000000E+00 -0.16933369788E+03  0.16933369790E+03  0.25500000000E-02 0.  1.
    5000001    1    1    2    0    0 -0.50162442576E+02  0.11386444921E+03  0.10432126131E+03  0.17970339173E+03  0.77000000000E+02 0.  0.
   -5000001    1    1    2    0    0  0.50162442576E+02 -0.11386444921E+03 -0.90982583957E+02  0.17230268141E+03  0.77000000000E+02 0.  0.
<mgrwt>
<rscale>  0 0.35175326E+03</rscale>
<asrwt>0</asrwt>
<pdfrwt beam="1">  1        2 0.24190528E-01 0.35175326E+03</pdfrwt>
<pdfrwt beam="2">  1       -2 0.26096054E-01 0.35175326E+03</pdfrwt>
<totfact> 0.29530879E+03</totfact>
</mgrwt>
</event>
<event>
 4    1  0.1330040E-003  0.2005143E+03  0.7818608E-02  0.1149306E+00
         -2   -1    0    0    0  501 -0.00000000000E+00  0.00000000000E+00  0.26141300525E+02  0.26141300650E+02  0.25500000000E-02 0. -1.
          2   -1    0    0  501    0  0.00000000000E+00 -0.00000000000E+00 -0.38450617943E+03  0.38450617944E+03  0.25500000000E-02 0.  1.
    5000001    1    1    2    0    0  0.44049353584E+02  0.50101414746E+01 -0.27429841496E+03  0.28832978951E+03  0.77000000000E+02 0.  0.
   -5000001    1    1    2    0    0 -0.44049353584E+02 -0.50101414746E+01 -0.84066463950E+02  0.12231769058E+03  0.77000000000E+02 0.  0.
<mgrwt>
<rscale>  0 0.20051426E+03</rscale>
<asrwt>0</asrwt>
<pdfrwt beam="1">  1        2 0.54929451E-01 0.20051426E+03</pdfrwt>
<pdfrwt beam="2">  1       -2 0.37344717E-02 0.20051426E+03</pdfrwt>
<totfact> 0.26637687E+04</totfact>
</mgrwt>
</event>
<event>
 4    1  0.1330040E-003  0.3540812E+03  0.7818608E-02  0.1060952E+00
         -2   -1    0    0    0  501 -0.00000000000E+00  0.00000000000E+00  0.13846064299E+02  0.13846064534E+02  0.25500000000E-02 0. -1.
          2   -1    0    0  501    0  0.00000000000E+00 -0.00000000000E+00 -0.22637028061E+04  0.22637028061E+04  0.25500000000E-02 0.  1.
    5000001    1    1    2    0    0 -0.10527782331E+03  0.17205508295E+02 -0.36290220708E+03  0.38601355092E+03  0.77000000000E+02 0.  0.
   -5000001    1    1    2    0    0  0.10527782331E+03 -0.17205508295E+02 -0.18869545348E+04  0.18915353198E+04  0.77000000000E+02 0.  0.
<mgrwt>
<rscale>  0 0.35408120E+03</rscale>
<asrwt>0</asrwt>
<pdfrwt beam="1">  1        2 0.32338588E+00 0.35408120E+03</pdfrwt>
<pdfrwt beam="2">  1       -2 0.19780106E-02 0.35408120E+03</pdfrwt>
<totfact> 0.51542536E+03</totfact>
</mgrwt>
</event>
<event>
 4    1  0.1330040E-003  0.3419595E+03  0.7818608E-02  0.1065964E+00
          2   -1    0    0  501    0  0.00000000000E+00  0.00000000000E+00  0.40565427023E+03  0.40565427023E+03  0.25500000000E-02 0.  1.
         -2   -1    0    0    0  501 -0.00000000000E+00 -0.00000000000E+00 -0.72066462647E+02  0.72066462693E+02  0.25500000000E-02 0. -1.
    5000001    1    1    2    0    0  0.14123191498E+03 -0.27737516624E+02  0.23788022057E+03  0.28849925992E+03  0.77000000000E+02 0.  0.
   -5000001    1    1    2    0    0 -0.14123191498E+03  0.27737516624E+02  0.95707587010E+02  0.18922147301E+03  0.77000000000E+02 0.  0.
<mgrwt>
<rscale>  0 0.34195946E+03</rscale>
<asrwt>0</asrwt>
<pdfrwt beam="1">  1        2 0.57950609E-01 0.34195946E+03</pdfrwt>
<pdfrwt beam="2">  1       -2 0.10295209E-01 0.34195946E+03</pdfrwt>
<totfact> 0.54177103E+03</totfact>
</mgrwt>
</event>
<event>
 4    1  0.1330040E-003  0.2254226E+03  0.7818608E-02  0.1129904E+00
         -2   -1    0    0    0  501 -0.00000000000E+00  0.00000000000E+00  0.78722953421E+01  0.78722957551E+01  0.25500000000E-02 0. -1.
          2   -1    0    0  501    0  0.00000000000E+00 -0.00000000000E+00 -0.16137397232E+04  0.16137397232E+04  0.25500000000E-02 0.  1.
    5000001    1    1    2    0    0 -0.69439281887E+02 -0.36502172820E+02 -0.98214285029E+03  0.98827516455E+03  0.77000000000E+02 0.  0.
   -5000001    1    1    2    0    0  0.69439281887E+02  0.36502172820E+02 -0.62372457761E+03  0.63333685445E+03  0.77000000000E+02 0.  0.
<mgrwt>
<rscale>  0 0.22542259E+03</rscale>
<asrwt>0</asrwt>
<pdfrwt beam="1">  1        2 0.23053404E+00 0.22542259E+03</pdfrwt>
<pdfrwt beam="2">  1       -2 0.11246147E-02 0.22542259E+03</pdfrwt>
<totfact> 0.24334675E+04</totfact>
</mgrwt>
</event>
<event>
 4    1  0.1330040E-003  0.2445104E+03  0.7818608E-02  0.1116824E+00
         -2   -1    0    0    0  501 -0.00000000000E+00  0.00000000000E+00  0.21115254462E+02  0.21115254616E+02  0.25500000000E-02 0. -1.
          2   -1    0    0  501    0  0.00000000000E+00 -0.00000000000E+00 -0.70784557933E+03  0.70784557933E+03  0.25500000000E-02 0.  1.
    5000001    1    1    2    0    0  0.69126785564E+02  0.65064134802E+02 -0.35034770375E+03  0.37105844235E+03  0.77000000000E+02 0.  0.
   -5000001    1    1    2    0    0 -0.69126785564E+02 -0.65064134802E+02 -0.33638262112E+03  0.35790239160E+03  0.77000000000E+02 0.  0.
<mgrwt>
<rscale>  0 0.24451045E+03</rscale>
<asrwt>0</asrwt>
<pdfrwt beam="1">  1        2 0.10112078E+00 0.24451045E+03</pdfrwt>
<pdfrwt beam="2">  1       -2 0.30164654E-02 0.24451045E+03</pdfrwt>
<totfact> 0.18789500E+04</totfact>
</mgrwt>
</event>
<event>
 4    1  0.1330040E-003  0.3352851E+03  0.7818608E-02  0.1068822E+00
          2   -1    0    0  501    0  0.00000000000E+00  0.00000000000E+00  0.52377838683E+03  0.52377838684E+03  0.25500000000E-02 0.  1.
         -2   -1    0    0    0  501 -0.00000000000E+00 -0.00000000000E+00 -0.53656337399E+02  0.53656337460E+02  0.25500000000E-02 0. -1.
    5000001    1    1    2    0    0 -0.82923340306E+02 -0.58381034080E+02  0.47264775513E+02  0.13582188525E+03  0.77000000000E+02 0.  0.
   -5000001    1    1    2    0    0  0.82923340306E+02  0.58381034080E+02  0.42285727392E+03  0.44161283905E+03  0.77000000000E+02 0.  0.
<mgrwt>
<rscale>  0 0.33528513E+03</rscale>
<asrwt>0</asrwt>
<pdfrwt beam="1">  1        2 0.74825481E-01 0.33528513E+03</pdfrwt>
<pdfrwt beam="2">  1       -2 0.76651913E-02 0.33528513E+03</pdfrwt>
<totfact> 0.65140434E+03</totfact>
</mgrwt>
</event>
<event>
 4    1  0.1330040E-003  0.2831977E+03  0.7818608E-02  0.1093955E+00
          2   -1    0    0  501    0  0.00000000000E+00  0.00000000000E+00  0.54805454582E+02  0.54805454642E+02  0.25500000000E-02 0.  1.
         -2   -1    0    0    0  501 -0.00000000000E+00 -0.00000000000E+00 -0.36584376971E+03  0.36584376972E+03  0.25500000000E-02 0. -1.
    5000001    1    1    2    0    0 -0.14849107050E+02  0.11769094372E+03 -0.14506032465E+03  0.20259109556E+03  0.77000000000E+02 0.  0.
   -5000001    1    1    2    0    0  0.14849107050E+02 -0.11769094372E+03 -0.16597799048E+03  0.21805812880E+03  0.77000000000E+02 0.  0.
<mgrwt>
<rscale>  0 0.28319770E+03</rscale>
<asrwt>0</asrwt>
<pdfrwt beam="1">  1        2 0.78293509E-02 0.28319770E+03</pdfrwt>
<pdfrwt beam="2">  1       -2 0.52263394E-01 0.28319770E+03</pdfrwt>
<totfact> 0.30639851E+03</totfact>
</mgrwt>
</event>
<event>
 4    1  0.1330040E-003  0.1928906E+03  0.7818608E-02  0.1155880E+00
          2   -1    0    0  501    0  0.00000000000E+00  0.00000000000E+00  0.23603896428E+04  0.23603896428E+04  0.25500000000E-02 0.  1.
         -2   -1    0    0    0  501 -0.00000000000E+00 -0.00000000000E+00 -0.39407450238E+01  0.39407458488E+01  0.25500000000E-02 0. -1.
    5000001    1    1    2    0    0  0.36007330328E+01  0.55883390784E+02  0.98961387629E+03  0.99418335471E+03  0.77000000000E+02 0.  0.
   -5000001    1    1    2    0    0 -0.36007330328E+01 -0.55883390784E+02  0.13668350215E+04  0.13701470339E+04  0.77000000000E+02 0.  0.
<mgrwt>
<rscale>  0 0.19289059E+03</rscale>
<asrwt>0</asrwt>
<pdfrwt beam="1">  1        2 0.33719928E+00 0.19289059E+03</pdfrwt>
<pdfrwt beam="2">  1       -2 0.56296237E-03 0.19289059E+03</pdfrwt>
<totfact> 0.28396592E+04</totfact>
</mgrwt>
</event>
<event>
 4    1  0.1330040E-003  0.2366633E+03  0.7818608E-02  0.1122036E+00
          2   -1    0    0  501    0  0.00000000000E+00  0.00000000000E+00  0.70726281040E+03  0.70726281040E+03  0.25500000000E-02 0.  1.
         -2   -1    0    0    0  501 -0.00000000000E+00 -0.00000000000E+00 -0.19797979527E+02  0.19797979692E+02  0.25500000000E-02 0. -1.
    5000001    1    1    2    0    0  0.10154537093E+02  0.87054715732E+02  0.28292774674E+03  0.30603716773E+03  0.77000000000E+02 0.  0.
   -5000001    1    1    2    0    0 -0.10154537093E+02 -0.87054715732E+02  0.40453708413E+03  0.42102362237E+03  0.77000000000E+02 0.  0.
<mgrwt>
<rscale>  0 0.23666326E+03</rscale>
<asrwt>0</asrwt>
<pdfrwt beam="1">  1        2 0.10103755E+00 0.23666326E+03</pdfrwt>
<pdfrwt beam="2">  1       -2 0.28282827E-02 0.23666326E+03</pdfrwt>
<totfact> 0.20656340E+04</totfact>
</mgrwt>
</event>
<event>
 4    1  0.1330040E-003  0.1692648E+03  0.7818608E-02  0.1178617E+00
         -2   -1    0    0    0  501 -0.00000000000E+00  0.00000000000E+00  0.10910574622E+03  0.10910574625E+03  0.25500000000E-02 0. -1.
          2   -1    0    0  501    0  0.00000000000E+00 -0.00000000000E+00 -0.65648634609E+02  0.65648634658E+02  0.25500000000E-02 0.  1.
    5000001    1    1    2    0    0 -0.24995602063E+02 -0.22716881643E+02  0.11782509617E+02  0.84903853664E+02  0.77000000000E+02 0.  0.
   -5000001    1    1    2    0    0  0.24995602063E+02  0.22716881643E+02  0.31674601990E+02  0.89850527240E+02  0.77000000000E+02 0.  0.
<mgrwt>
<rscale>  0 0.16926480E+03</rscale>
<asrwt>0</asrwt>
<pdfrwt beam="1">  1        2 0.93783765E-02 0.16926480E+03</pdfrwt>
<pdfrwt beam="2">  1       -2 0.15586535E-01 0.16926480E+03</pdfrwt>
<totfact> 0.21076853E+04</totfact>
</mgrwt>
</event>
<event>
 4    1  0.1330040E-003  0.2101155E+03  0.7818608E-02  0.1141475E+00
          2   -1    0    0  501    0  0.00000000000E+00  0.00000000000E+00  0.96803878996E+03  0.96803878996E+03  0.25500000000E-02 0.  1.
         -2   -1    0    0    0  501 -0.00000000000E+00 -0.00000000000E+00 -0.11401534082E+02  0.11401534367E+02  0.25500000000E-02 0. -1.
    5000001    1    1    2    0    0 -0.62361723180E+02  0.58597458575E+01  0.31786718515E+03  0.33300430708E+03  0.77000000000E+02 0.  0.
   -5000001    1    1    2    0    0  0.62361723180E+02 -0.58597458575E+01  0.63877007073E+03  0.64643601725E+03  0.77000000000E+02 0.  0.
<mgrwt>
<rscale>  0 0.21011547E+03</rscale>
<asrwt>0</asrwt>
<pdfrwt beam="1">  1        2 0.13829127E+00 0.21011547E+03</pdfrwt>
<pdfrwt beam="2">  1       -2 0.16287904E-02 0.21011547E+03</pdfrwt>
<totfact> 0.31144357E+04</totfact>
</mgrwt>
</event>
<event>
 4    1  0.1330040E-003  0.2593424E+03  0.7818608E-02  0.1107539E+00
          2   -1    0    0  501    0  0.00000000000E+00  0.00000000000E+00  0.37131381688E+03  0.37131381688E+03  0.25500000000E-02 0.  1.
         -2   -1    0    0    0  501 -0.00000000000E+00 -0.00000000000E+00 -0.45284111562E+02  0.45284111633E+02  0.25500000000E-02 0. -1.
    5000001    1    1    2    0    0  0.87248476352E+02  0.51088319158E+02  0.20438620554E+03  0.24067620155E+03  0.77000000000E+02 0.  0.
   -5000001    1    1    2    0    0 -0.87248476352E+02 -0.51088319158E+02  0.12164349978E+03  0.17592172696E+03  0.77000000000E+02 0.  0.
<mgrwt>
<rscale>  0 0.25934237E+03</rscale>
<asrwt>0</asrwt>
<pdfrwt beam="1">  1        2 0.53044832E-01 0.25934237E+03</pdfrwt>
<pdfrwt beam="2">  1       -2 0.64691587E-02 0.25934237E+03</pdfrwt>
<totfact> 0.12233220E+04</totfact>
</mgrwt>
</event>
<event>
 4    1  0.1330040E-003  0.1980976E+03  0.7818608E-02  0.1151354E+00
         -2   -1    0    0    0  501 -0.00000000000E+00  0.00000000000E+00  0.40697970971E+02  0.40697971051E+02  0.25500000000E-02 0. -1.
          2   -1    0    0  501    0  0.00000000000E+00 -0.00000000000E+00 -0.24106033739E+03  0.24106033740E+03  0.25500000000E-02 0.  1.
    5000001    1    1    2    0    0 -0.62147434298E+02  0.10358710908E+01 -0.94098370845E+02  0.13655357928E+03  0.77000000000E+02 0.  0.
   -5000001    1    1    2    0    0  0.62147434298E+02 -0.10358710908E+01 -0.10626399557E+03  0.14520472917E+03  0.77000000000E+02 0.  0.
<mgrwt>
<rscale>  0 0.19809762E+03</rscale>
<asrwt>0</asrwt>
<pdfrwt beam="1">  1        2 0.34437190E-01 0.19809762E+03</pdfrwt>
<pdfrwt beam="2">  1       -2 0.58139960E-02 0.19809762E+03</pdfrwt>
<totfact> 0.22529083E+04</totfact>
</mgrwt>
</event>
<event>
 4    1  0.1330040E-003  0.1628381E+03  0.7818608E-02  0.1185529E+00
          2   -1    0    0  501    0  0.00000000000E+00  0.00000000000E+00  0.10127525384E+03  0.10127525388E+03  0.25500000000E-02 0.  1.
         -2   -1    0    0    0  501 -0.00000000000E+00 -0.00000000000E+00 -0.65455920417E+02  0.65455920466E+02  0.25500000000E-02 0. -1.
    5000001    1    1    2    0    0  0.20643236113E+02 -0.16169557856E+02  0.21524968164E+02  0.84142272687E+02  0.77000000000E+02 0.  0.
   -5000001    1    1    2    0    0 -0.20643236113E+02  0.16169557856E+02  0.14294365264E+02  0.82588901656E+02  0.77000000000E+02 0.  0.
<mgrwt>
<rscale>  0 0.16283814E+03</rscale>
<asrwt>0</asrwt>
<pdfrwt beam="1">  1        2 0.14467893E-01 0.16283814E+03</pdfrwt>
<pdfrwt beam="2">  1       -2 0.93508459E-02 0.16283814E+03</pdfrwt>
<totfact> 0.28206579E+04</totfact>
</mgrwt>
</event>
<event>
 4    1  0.1330040E-003  0.3197233E+03  0.7818608E-02  0.1075777E+00
         -2   -1    0    0    0  501 -0.00000000000E+00  0.00000000000E+00  0.42335370526E+03  0.42335370527E+03  0.25500000000E-02 0. -1.
          2   -1    0    0  501    0  0.00000000000E+00 -0.00000000000E+00 -0.60364985274E+02  0.60364985327E+02  0.25500000000E-02 0.  1.
    5000001    1    1    2    0    0 -0.13137655324E+03 -0.43752568533E+02  0.21368294754E+03  0.26601407493E+03  0.77000000000E+02 0.  0.
   -5000001    1    1    2    0    0  0.13137655324E+03  0.43752568533E+02  0.14930577245E+03  0.21770461566E+03  0.77000000000E+02 0.  0.
<mgrwt>
<rscale>  0 0.31972326E+03</rscale>
<asrwt>0</asrwt>
<pdfrwt beam="1">  1        2 0.86235690E-02 0.31972326E+03</pdfrwt>
<pdfrwt beam="2">  1       -2 0.60479103E-01 0.31972326E+03</pdfrwt>
<totfact> 0.20161052E+03</totfact>
</mgrwt>
</event>
<event>
 4    1  0.1330040E-003  0.3292970E+03  0.7818608E-02  0.1071448E+00
         -2   -1    0    0    0  501 -0.00000000000E+00  0.00000000000E+00  0.52393332550E+03  0.52393332551E+03  0.25500000000E-02 0. -1.
          2   -1    0    0  501    0  0.00000000000E+00 -0.00000000000E+00 -0.51741547965E+02  0.51741548028E+02  0.25500000000E-02 0.  1.
    5000001    1    1    2    0    0  0.80510868772E+02  0.12104481917E+03  0.22420392076E+03  0.27808316440E+03  0.77000000000E+02 0.  0.
   -5000001    1    1    2    0    0 -0.80510868772E+02 -0.12104481917E+03  0.24798785677E+03  0.29759170913E+03  0.77000000000E+02 0.  0.
<mgrwt>
<rscale>  0 0.32929696E+03</rscale>
<asrwt>0</asrwt>
<pdfrwt beam="1">  1        2 0.73916494E-02 0.32929696E+03</pdfrwt>
<pdfrwt beam="2">  1       -2 0.74847621E-01 0.32929696E+03</pdfrwt>
<totfact> 0.15600192E+03</totfact>
</mgrwt>
</event>
<event>
 4    1  0.1330040E-003  0.2429755E+03  0.7818608E-02  0.1117826E+00
         -2   -1    0    0    0  501 -0.00000000000E+00  0.00000000000E+00  0.64231311223E+02  0.64231311273E+02  0.25500000000E-02 0. -1.
          2   -1    0    0  501    0  0.00000000000E+00 -0.00000000000E+00 -0.22978318944E+03  0.22978318945E+03  0.25500000000E-02 0.  1.
    5000001    1    1    2    0    0  0.31472032536E+02 -0.87642646810E+02 -0.98012737773E+02  0.15558669332E+03  0.77000000000E+02 0.  0.
   -5000001    1    1    2    0    0 -0.31472032536E+02  0.87642646810E+02 -0.67539140441E+02  0.13842780741E+03  0.77000000000E+02 0.  0.
<mgrwt>
<rscale>  0 0.24297552E+03</rscale>
<asrwt>0</asrwt>
<pdfrwt beam="1">  1        2 0.32826170E-01 0.24297552E+03</pdfrwt>
<pdfrwt beam="2">  1       -2 0.91759017E-02 0.24297552E+03</pdfrwt>
<totfact> 0.11868688E+04</totfact>
</mgrwt>
</event>
<event>
 4    1  0.1330040E-003  0.3474994E+03  0.7818608E-02  0.1063646E+00
          2   -1    0    0  501    0  0.00000000000E+00  0.00000000000E+00  0.92127974235E+02  0.92127974271E+02  0.25500000000E-02 0.  1.
         -2   -1    0    0    0  501 -0.00000000000E+00 -0.00000000000E+00 -0.32768498950E+03  0.32768498951E+03  0.25500000000E-02 0. -1.
    5000001    1    1    2    0    0 -0.58575953832E+02  0.29476309544E+02  0.52901100981E+02  0.11413816924E+03  0.77000000000E+02 0.  0.
   -5000001    1    1    2    0    0  0.58575953832E+02 -0.29476309544E+02 -0.28845811625E+03  0.30567479454E+03  0.77000000000E+02 0.  0.
<mgrwt>
<rscale>  0 0.34749938E+03</rscale>
<asrwt>0</asrwt>
<pdfrwt beam="1">  1        2 0.13161139E-01 0.34749938E+03</pdfrwt>
<pdfrwt beam="2">  1       -2 0.46812141E-01 0.34749938E+03</pdfrwt>
<totfact> 0.20099679E+03</totfact>
</mgrwt>
</event>
<event>
 4    1  0.1330040E-003  0.3280503E+03  0.7818608E-02  0.1072003E+00
          2   -1    0    0  501    0  0.00000000000E+00  0.00000000000E+00  0.20568656972E+04  0.20568656972E+04  0.25500000000E-02 0.  1.
         -2   -1    0    0    0  501 -0.00000000000E+00 -0.00000000000E+00 -0.13080218865E+02  0.13080219113E+02  0.25500000000E-02 0. -1.
    5000001    1    1    2    0    0  0.37001802300E+02  0.13804484690E+03  0.87394870981E+03  0.88889867843E+03  0.77000000000E+02 0.  0.
   -5000001    1    1    2    0    0 -0.37001802300E+02 -0.13804484690E+03  0.11698367685E+04  0.11810472379E+04  0.77000000000E+02 0.  0.
<mgrwt>
<rscale>  0 0.32805032E+03</rscale>
<asrwt>0</asrwt>
<pdfrwt beam="1">  1        2 0.29383811E+00 0.32805032E+03</pdfrwt>
<pdfrwt beam="2">  1       -2 0.18686018E-02 0.32805032E+03</pdfrwt>
<totfact> 0.70909558E+03</totfact>
</mgrwt>
</event>
<event>
 4    1  0.1330040E-003  0.1817991E+03  0.7818608E-02  0.1166073E+00
          2   -1    0    0  501    0  0.00000000000E+00  0.00000000000E+00  0.83077243961E+03  0.83077243962E+03  0.25500000000E-02 0.  1.
         -2   -1    0    0    0  501 -0.00000000000E+00 -0.00000000000E+00 -0.99458419019E+01  0.99458422288E+01  0.25500000000E-02 0. -1.
    5000001    1    1    2    0    0  0.36015976535E+02  0.37680938781E+01  0.26254831005E+03  0.27599268868E+03  0.77000000000E+02 0.  0.
   -5000001    1    1    2    0    0 -0.36015976535E+02 -0.37680938781E+01  0.55827828767E+03  0.56472559317E+03  0.77000000000E+02 0.  0.
<mgrwt>
<rscale>  0 0.18179914E+03</rscale>
<asrwt>0</asrwt>
<pdfrwt beam="1">  1        2 0.11868178E+00 0.18179914E+03</pdfrwt>
<pdfrwt beam="2">  1       -2 0.14208345E-02 0.18179914E+03</pdfrwt>
<totfact> 0.45686287E+04</totfact>
</mgrwt>
</event>
<event>
 4    1  0.1330040E-003  0.1987909E+03  0.7818608E-02  0.1150763E+00
         -2   -1    0    0    0  501 -0.00000000000E+00  0.00000000000E+00  0.19293579488E+02  0.19293579657E+02  0.25500000000E-02 0. -1.
          2   -1    0    0  501    0  0.00000000000E+00 -0.00000000000E+00 -0.51205924354E+03  0.51205924355E+03  0.25500000000E-02 0.  1.
    5000001    1    1    2    0    0 -0.84262085933E+01 -0.56676945580E+02 -0.31542390693E+03  0.32970368244E+03  0.77000000000E+02 0.  0.
   -5000001    1    1    2    0    0  0.84262085933E+01  0.56676945580E+02 -0.17734175712E+03  0.20164914076E+03  0.77000000000E+02 0.  0.
<mgrwt>
<rscale>  0 0.19879090E+03</rscale>
<asrwt>0</asrwt>
<pdfrwt beam="1">  1        2 0.73151312E-01 0.19879090E+03</pdfrwt>
<pdfrwt beam="2">  1       -2 0.27562260E-02 0.19879090E+03</pdfrwt>
<totfact> 0.30623922E+04</totfact>
</mgrwt>
</event>
<event>
 4    1  0.1330040E-003  0.1707954E+03  0.7818608E-02  0.1177021E+00
         -2   -1    0    0    0  501 -0.00000000000E+00  0.00000000000E+00  0.84699487844E+01  0.84699491683E+01  0.25500000000E-02 0. -1.
          2   -1    0    0  501    0  0.00000000000E+00 -0.00000000000E+00 -0.86101666628E+03  0.86101666628E+03  0.25500000000E-02 0.  1.
    5000001    1    1    2    0    0  0.34475688435E+02 -0.61960035941E+01 -0.36672968581E+03  0.37635970296E+03  0.77000000000E+02 0.  0.
   -5000001    1    1    2    0    0 -0.34475688435E+02  0.61960035941E+01 -0.48581703168E+03  0.49312691249E+03  0.77000000000E+02 0.  0.
<mgrwt>
<rscale>  0 0.17079540E+03</rscale>
<asrwt>0</asrwt>
<pdfrwt beam="1">  1        2 0.12300233E+00 0.17079540E+03</pdfrwt>
<pdfrwt beam="2">  1       -2 0.12099933E-02 0.17079540E+03</pdfrwt>
<totfact> 0.54802991E+04</totfact>
</mgrwt>
</event>
<event>
 4    1  0.1330040E-003  0.1749434E+03  0.7818608E-02  0.1172789E+00
         -2   -1    0    0    0  501 -0.00000000000E+00  0.00000000000E+00  0.37631599191E+01  0.37631607831E+01  0.25500000000E-02 0. -1.
          2   -1    0    0  501    0  0.00000000000E+00 -0.00000000000E+00 -0.20332097245E+04  0.20332097245E+04  0.25500000000E-02 0.  1.
    5000001    1    1    2    0    0  0.79612534306E+01 -0.37693619433E+02 -0.11943913484E+04  0.11974906612E+04  0.77000000000E+02 0.  0.
   -5000001    1    1    2    0    0 -0.79612534306E+01  0.37693619433E+02 -0.83505521624E+03  0.83948222415E+03  0.77000000000E+02 0.  0.
<mgrwt>
<rscale>  0 0.17494335E+03</rscale>
<asrwt>0</asrwt>
<pdfrwt beam="1">  1        2 0.29045783E+00 0.17494335E+03</pdfrwt>
<pdfrwt beam="2">  1       -2 0.53759564E-03 0.17494335E+03</pdfrwt>
<totfact> 0.43399613E+04</totfact>
</mgrwt>
</event>
<event>
 4    1  0.1330040E-003  0.1982977E+03  0.7818608E-02  0.1151183E+00
          2   -1    0    0  501    0  0.00000000000E+00  0.00000000000E+00  0.94663156764E+03  0.94663156765E+03  0.25500000000E-02 0.  1.
         -2   -1    0    0    0  501 -0.00000000000E+00 -0.00000000000E+00 -0.10384707112E+02  0.10384707425E+02  0.25500000000E-02 0. -1.
    5000001    1    1    2    0    0  0.52476162005E+02  0.29059012343E+02  0.38407090595E+03  0.39627974282E+03  0.77000000000E+02 0.  0.
   -5000001    1    1    2    0    0 -0.52476162005E+02 -0.29059012343E+02  0.55217595459E+03  0.56073653225E+03  0.77000000000E+02 0.  0.
<mgrwt>
<rscale>  0 0.19829767E+03</rscale>
<asrwt>0</asrwt>
<pdfrwt beam="1">  1        2 0.13523318E+00 0.19829767E+03</pdfrwt>
<pdfrwt beam="2">  1       -2 0.14835285E-02 0.19829767E+03</pdfrwt>
<totfact> 0.36593905E+04</totfact>
</mgrwt>
</event>
<event>
 4    1  0.1330040E-003  0.2202859E+03  0.7818608E-02  0.1133670E+00
          2   -1    0    0  501    0  0.00000000000E+00  0.00000000000E+00  0.77472395531E+02  0.77472395573E+02  0.25500000000E-02 0.  1.
         -2   -1    0    0    0  501 -0.00000000000E+00 -0.00000000000E+00 -0.15659084010E+03  0.15659084012E+03  0.25500000000E-02 0. -1.
    5000001    1    1    2    0    0  0.44891893027E+02  0.63647843606E+02 -0.51956757457E+02  0.12122225332E+03  0.77000000000E+02 0.  0.
   -5000001    1    1    2    0    0 -0.44891893027E+02 -0.63647843606E+02 -0.27161687111E+02  0.11284098237E+03  0.77000000000E+02 0.  0.
<mgrwt>
<rscale>  0 0.22028588E+03</rscale>
<asrwt>0</asrwt>
<pdfrwt beam="1">  1        2 0.11067485E-01 0.22028588E+03</pdfrwt>
<pdfrwt beam="2">  1       -2 0.22370120E-01 0.22028588E+03</pdfrwt>
<totfact> 0.95293086E+03</totfact>
</mgrwt>
</event>
<event>
 4    1  0.1330040E-003  0.5144646E+03  0.7818608E-02  0.1010071E+00
         -2   -1    0    0    0  501 -0.00000000000E+00  0.00000000000E+00  0.48843913780E+02  0.48843913847E+02  0.25500000000E-02 0. -1.
          2   -1    0    0  501    0  0.00000000000E+00 -0.00000000000E+00 -0.13546919795E+04  0.13546919795E+04  0.25500000000E-02 0.  1.
    5000001    1    1    2    0    0  0.13140699981E+03 -0.13167784644E+03 -0.21614238809E+03  0.29538684259E+03  0.77000000000E+02 0.  0.
   -5000001    1    1    2    0    0 -0.13140699981E+03  0.13167784644E+03 -0.10897056776E+04  0.11081490507E+04  0.77000000000E+02 0.  0.
<mgrwt>
<rscale>  0 0.51446461E+03</rscale>
<asrwt>0</asrwt>
<pdfrwt beam="1">  1        2 0.19352740E+00 0.51446461E+03</pdfrwt>
<pdfrwt beam="2">  1       -2 0.69777028E-02 0.51446461E+03</pdfrwt>
<totfact> 0.21649357E+03</totfact>
</mgrwt>
</event>
<event>
 4    1  0.1330040E-003  0.2000585E+03  0.7818608E-02  0.1149690E+00
         -2   -1    0    0    0  501 -0.00000000000E+00  0.00000000000E+00  0.43438422970E+02  0.43438423045E+02  0.25500000000E-02 0. -1.
          2   -1    0    0  501    0  0.00000000000E+00 -0.00000000000E+00 -0.23034571643E+03  0.23034571644E+03  0.25500000000E-02 0.  1.
    5000001    1    1    2    0    0 -0.21013880698E+02 -0.59382876340E+02 -0.79169450178E+02  0.12714051685E+03  0.77000000000E+02 0.  0.
   -5000001    1    1    2    0    0  0.21013880698E+02  0.59382876340E+02 -0.10773784328E+03  0.14664362263E+03  0.77000000000E+02 0.  0.
<mgrwt>
<rscale>  0 0.20005854E+03</rscale>
<asrwt>0</asrwt>
<pdfrwt beam="1">  1        2 0.32906530E-01 0.20005854E+03</pdfrwt>
<pdfrwt beam="2">  1       -2 0.62054891E-02 0.20005854E+03</pdfrwt>
<totfact> 0.21440778E+04</totfact>
</mgrwt>
</event>
<event>
 4    1  0.1330040E-003  0.3726657E+03  0.7818608E-02  0.1053678E+00
          2   -1    0    0  501    0  0.00000000000E+00  0.00000000000E+00  0.16844761055E+04  0.16844761055E+04  0.25500000000E-02 0.  1.
         -2   -1    0    0    0  501 -0.00000000000E+00 -0.00000000000E+00 -0.20611707446E+02  0.20611707604E+02  0.25500000000E-02 0. -1.
    5000001    1    1    2    0    0  0.11473731896E+03  0.23644390495E+00  0.14038772633E+04  0.14106612204E+04  0.77000000000E+02 0.  0.
   -5000001    1    1    2    0    0 -0.11473731896E+03 -0.23644390495E+00  0.25998713475E+03  0.29442659272E+03  0.77000000000E+02 0.  0.
<mgrwt>
<rscale>  0 0.37266569E+03</rscale>
<asrwt>0</asrwt>
<pdfrwt beam="1">  1        2 0.24063953E+00 0.37266569E+03</pdfrwt>
<pdfrwt beam="2">  1       -2 0.29445286E-02 0.37266569E+03</pdfrwt>
<totfact> 0.55076476E+03</totfact>
</mgrwt>
</event>
<event>
 4    1  0.1330040E-003  0.4229127E+03  0.7818608E-02  0.1036122E+00
         -2   -1    0    0    0  501 -0.00000000000E+00  0.00000000000E+00  0.17396338291E+02  0.17396338478E+02  0.25500000000E-02 0. -1.
          2   -1    0    0  501    0  0.00000000000E+00 -0.00000000000E+00 -0.25702989387E+04  0.25702989387E+04  0.25500000000E-02 0.  1.
    5000001    1    1    2    0    0  0.81725772850E+02  0.13367001645E+03 -0.20065593158E+04  0.20141390376E+04  0.77000000000E+02 0.  0.
   -5000001    1    1    2    0    0 -0.81725772850E+02 -0.13367001645E+03 -0.54634328469E+03  0.57355623959E+03  0.77000000000E+02 0.  0.
<mgrwt>
<rscale>  0 0.42291271E+03</rscale>
<asrwt>0</asrwt>
<pdfrwt beam="1">  1        2 0.36718532E+00 0.42291271E+03</pdfrwt>
<pdfrwt beam="2">  1       -2 0.24851928E-02 0.42291271E+03</pdfrwt>
<totfact> 0.25659453E+03</totfact>
</mgrwt>
</event>
<event>
 4    1  0.1330040E-003  0.2012094E+03  0.7818608E-02  0.1148723E+00
          2   -1    0    0  501    0  0.00000000000E+00  0.00000000000E+00  0.19132448301E+03  0.19132448302E+03  0.25500000000E-02 0.  1.
         -2   -1    0    0    0  501 -0.00000000000E+00 -0.00000000000E+00 -0.52901246686E+02  0.52901246748E+02  0.25500000000E-02 0. -1.
    5000001    1    1    2    0    0 -0.43180632431E+00  0.58403231955E+02  0.10313652575E+03  0.14134095975E+03  0.77000000000E+02 0.  0.
   -5000001    1    1    2    0    0  0.43180632431E+00 -0.58403231955E+02  0.35286710572E+02  0.10288477002E+03  0.77000000000E+02 0.  0.
<mgrwt>
<rscale>  0 0.20120938E+03</rscale>
<asrwt>0</asrwt>
<pdfrwt beam="1">  1        2 0.27332069E-01 0.20120938E+03</pdfrwt>
<pdfrwt beam="2">  1       -2 0.75573210E-02 0.20120938E+03</pdfrwt>
<totfact> 0.19396023E+04</totfact>
</mgrwt>
</event>
<event>
 4    1  0.1330040E-003  0.2944781E+03  0.7818608E-02  0.1088034E+00
         -2   -1    0    0    0  501 -0.00000000000E+00  0.00000000000E+00  0.62458981031E+01  0.62458986236E+01  0.25500000000E-02 0. -1.
          2   -1    0    0  501    0  0.00000000000E+00 -0.00000000000E+00 -0.34709717213E+04  0.34709717213E+04  0.25500000000E-02 0.  1.
    5000001    1    1    2    0    0  0.12507185932E+03 -0.41005577358E+01 -0.18447271148E+04  0.18505693482E+04  0.77000000000E+02 0.  0.
   -5000001    1    1    2    0    0 -0.12507185932E+03  0.41005577358E+01 -0.16199987084E+04  0.16266482717E+04  0.77000000000E+02 0.  0.
<mgrwt>
<rscale>  0 0.29447809E+03</rscale>
<asrwt>0</asrwt>
<pdfrwt beam="1">  1        2 0.49585187E+00 0.29447809E+03</pdfrwt>
<pdfrwt beam="2">  1       -2 0.89227342E-03 0.29447809E+03</pdfrwt>
<totfact> 0.38332377E+03</totfact>
</mgrwt>
</event>
<event>
 4    1  0.1330040E-003  0.4228270E+03  0.7818608E-02  0.1036150E+00
          2   -1    0    0  501    0  0.00000000000E+00  0.00000000000E+00  0.99464808779E+03  0.99464808779E+03  0.25500000000E-02 0.  1.
         -2   -1    0    0    0  501 -0.00000000000E+00 -0.00000000000E+00 -0.44936157646E+02  0.44936157719E+02  0.25500000000E-02 0. -1.
    5000001    1    1    2    0    0  0.95894143508E+02 -0.16439942533E+03  0.59886089514E+03  0.63307679592E+03  0.77000000000E+02 0.  0.
   -5000001    1    1    2    0    0 -0.95894143508E+02  0.16439942533E+03  0.35085103500E+03  0.40650744959E+03  0.77000000000E+02 0.  0.
<mgrwt>
<rscale>  0 0.42282698E+03</rscale>
<asrwt>0</asrwt>
<pdfrwt beam="1">  1        2 0.14209257E+00 0.42282698E+03</pdfrwt>
<pdfrwt beam="2">  1       -2 0.64194515E-02 0.42282698E+03</pdfrwt>
<totfact> 0.39331515E+03</totfact>
</mgrwt>
</event>
<event>
 4    1  0.1330040E-003  0.2209145E+03  0.7818608E-02  0.1133203E+00
          2   -1    0    0  501    0  0.00000000000E+00  0.00000000000E+00  0.14809006976E+04  0.14809006976E+04  0.25500000000E-02 0.  1.
         -2   -1    0    0    0  501 -0.00000000000E+00 -0.00000000000E+00 -0.82387726527E+01  0.82387730473E+01  0.25500000000E-02 0. -1.
    5000001    1    1    2    0    0  0.52450092697E+02  0.58921383490E+02  0.78354676178E+03  0.79126308491E+03  0.77000000000E+02 0.  0.
   -5000001    1    1    2    0    0 -0.52450092697E+02 -0.58921383490E+02  0.68911516318E+03  0.69787638575E+03  0.77000000000E+02 0.  0.
<mgrwt>
<rscale>  0 0.22091450E+03</rscale>
<asrwt>0</asrwt>
<pdfrwt beam="1">  1        2 0.21155712E+00 0.22091450E+03</pdfrwt>
<pdfrwt beam="2">  1       -2 0.11769682E-02 0.22091450E+03</pdfrwt>
<totfact> 0.26503228E+04</totfact>
</mgrwt>
</event>
<event>
 4    1  0.1330040E-003  0.1873633E+03  0.7818608E-02  0.1160861E+00
         -2   -1    0    0    0  501 -0.00000000000E+00  0.00000000000E+00  0.11371465644E+02  0.11371465930E+02  0.25500000000E-02 0. -1.
          2   -1    0    0  501    0  0.00000000000E+00 -0.00000000000E+00 -0.77177840367E+03  0.77177840367E+03  0.25500000000E-02 0.  1.
    5000001    1    1    2    0    0 -0.28455752363E+02 -0.39388201156E+02 -0.28804837331E+03  0.30209605359E+03  0.77000000000E+02 0.  0.
   -5000001    1    1    2    0    0  0.28455752363E+02  0.39388201156E+02 -0.47235856472E+03  0.48105381601E+03  0.77000000000E+02 0.  0.
<mgrwt>
<rscale>  0 0.18736330E+03</rscale>
<asrwt>0</asrwt>
<pdfrwt beam="1">  1        2 0.11025402E+00 0.18736330E+03</pdfrwt>
<pdfrwt beam="2">  1       -2 0.16244956E-02 0.18736330E+03</pdfrwt>
<totfact> 0.41272125E+04</totfact>
</mgrwt>
</event>
<event>
 4    1  0.1330040E-003  0.2786927E+03  0.7818608E-02  0.1096405E+00
          2   -1    0    0  501    0  0.00000000000E+00  0.00000000000E+00  0.11865248502E+04  0.11865248502E+04  0.25500000000E-02 0.  1.
         -2   -1    0    0    0  501 -0.00000000000E+00 -0.00000000000E+00 -0.16364942339E+02  0.16364942538E+02  0.25500000000E-02 0. -1.
    5000001    1    1    2    0    0  0.26155666211E+02 -0.11180213604E+03  0.50975361349E+03  0.52816813892E+03  0.77000000000E+02 0.  0.
   -5000001    1    1    2    0    0 -0.26155666211E+02  0.11180213604E+03  0.66040629435E+03  0.67472165381E+03  0.77000000000E+02 0.  0.
<mgrwt>
<rscale>  0 0.27869274E+03</rscale>
<asrwt>0</asrwt>
<pdfrwt beam="1">  1        2 0.16950355E+00 0.27869274E+03</pdfrwt>
<pdfrwt beam="2">  1       -2 0.23378490E-02 0.27869274E+03</pdfrwt>
<totfact> 0.13973372E+04</totfact>
</mgrwt>
</event>
<event>
 4    1  0.1330040E-003  0.2524319E+03  0.7818608E-02  0.1111778E+00
         -2   -1    0    0    0  501 -0.00000000000E+00  0.00000000000E+00  0.12212225499E+03  0.12212225502E+03  0.25500000000E-02 0. -1.
          2   -1    0    0  501    0  0.00000000000E+00 -0.00000000000E+00 -0.13044683143E+03  0.13044683145E+03  0.25500000000E-02 0.  1.
    5000001    1    1    2    0    0  0.97807470819E+02  0.20653739706E+02 -0.12310361949E+01  0.12618793033E+03  0.77000000000E+02 0.  0.
   -5000001    1    1    2    0    0 -0.97807470819E+02 -0.20653739706E+02 -0.70935402420E+01  0.12638115613E+03  0.77000000000E+02 0.  0.
<mgrwt>
<rscale>  0 0.25243186E+03</rscale>
<asrwt>0</asrwt>
<pdfrwt beam="1">  1        2 0.18635262E-01 0.25243186E+03</pdfrwt>
<pdfrwt beam="2">  1       -2 0.17446036E-01 0.25243186E+03</pdfrwt>
<totfact> 0.78924416E+03</totfact>
</mgrwt>
</event>
<event>
 4    1  0.1330040E-003  0.1771034E+03  0.7818608E-02  0.1170636E+00
         -2   -1    0    0    0  501 -0.00000000000E+00  0.00000000000E+00  0.42939264776E+01  0.42939272347E+01  0.25500000000E-02 0. -1.
          2   -1    0    0  501    0  0.00000000000E+00 -0.00000000000E+00 -0.18261606536E+04  0.18261606536E+04  0.25500000000E-02 0.  1.
    5000001    1    1    2    0    0  0.21939819948E+02  0.31564516341E+02 -0.11264297045E+04  0.11297125977E+04  0.77000000000E+02 0.  0.
   -5000001    1    1    2    0    0 -0.21939819948E+02 -0.31564516341E+02 -0.69543702263E+03  0.70074198307E+03  0.77000000000E+02 0.  0.
<mgrwt>
<rscale>  0 0.17710336E+03</rscale>
<asrwt>0</asrwt>
<pdfrwt beam="1">  1        2 0.26087960E+00 0.17710336E+03</pdfrwt>
<pdfrwt beam="2">  1       -2 0.61341929E-03 0.17710336E+03</pdfrwt>
<totfact> 0.45227391E+04</totfact>
</mgrwt>
</event>
<event>
 4    1  0.1330040E-003  0.1787985E+03  0.7818608E-02  0.1168971E+00
          2   -1    0    0  501    0  0.00000000000E+00  0.00000000000E+00  0.15336382708E+04  0.15336382708E+04  0.25500000000E-02 0.  1.
         -2   -1    0    0    0  501 -0.00000000000E+00 -0.00000000000E+00 -0.52112869375E+01  0.52112875613E+01  0.25500000000E-02 0. -1.
    5000001    1    1    2    0    0 -0.32854906883E+02  0.13870504892E+01  0.49452827299E+03  0.50156612884E+03  0.77000000000E+02 0.  0.
   -5000001    1    1    2    0    0  0.32854906883E+02 -0.13870504892E+01  0.10338987109E+04  0.10372834295E+04  0.77000000000E+02 0.  0.
<mgrwt>
<rscale>  0 0.17879854E+03</rscale>
<asrwt>0</asrwt>
<pdfrwt beam="1">  1        2 0.21909125E+00 0.17879854E+03</pdfrwt>
<pdfrwt beam="2">  1       -2 0.74446938E-03 0.17879854E+03</pdfrwt>
<totfact> 0.47616360E+04</totfact>
</mgrwt>
</event>
<event>
 4    1  0.1330040E-003  0.2348729E+03  0.7818608E-02  0.1123256E+00
         -2   -1    0    0    0  501 -0.00000000000E+00  0.00000000000E+00  0.31024506877E+02  0.31024506982E+02  0.25500000000E-02 0. -1.
          2   -1    0    0  501    0  0.00000000000E+00 -0.00000000000E+00 -0.44452987061E+03  0.44452987062E+03  0.25500000000E-02 0.  1.
    5000001    1    1    2    0    0 -0.73829240860E+02 -0.31509595721E+01 -0.10752776479E+03  0.15149886320E+03  0.77000000000E+02 0.  0.
   -5000001    1    1    2    0    0  0.73829240860E+02  0.31509595721E+01 -0.30597759895E+03  0.32405551439E+03  0.77000000000E+02 0.  0.
<mgrwt>
<rscale>  0 0.23487290E+03</rscale>
<asrwt>0</asrwt>
<pdfrwt beam="1">  1        2 0.63504263E-01 0.23487290E+03</pdfrwt>
<pdfrwt beam="2">  1       -2 0.44320727E-02 0.23487290E+03</pdfrwt>
<totfact> 0.17815281E+04</totfact>
</mgrwt>
</event>
<event>
 4    1  0.1330040E-003  0.3840735E+03  0.7818608E-02  0.1049438E+00
         -2   -1    0    0    0  501 -0.00000000000E+00  0.00000000000E+00  0.24434969803E+03  0.24434969804E+03  0.25500000000E-02 0. -1.
          2   -1    0    0  501    0  0.00000000000E+00 -0.00000000000E+00 -0.15092353656E+03  0.15092353658E+03  0.25500000000E-02 0.  1.
    5000001    1    1    2    0    0 -0.15829720276E+03  0.61964003366E+02  0.93328231072E+02  0.20865450110E+03  0.77000000000E+02 0.  0.
   -5000001    1    1    2    0    0  0.15829720276E+03 -0.61964003366E+02  0.97930399447E-01  0.18661873353E+03  0.77000000000E+02 0.  0.
<mgrwt>
<rscale>  0 0.38407354E+03</rscale>
<asrwt>0</asrwt>
<pdfrwt beam="1">  1        2 0.21560505E-01 0.38407354E+03</pdfrwt>
<pdfrwt beam="2">  1       -2 0.34907100E-01 0.38407354E+03</pdfrwt>
<totfact> 0.19797762E+03</totfact>
</mgrwt>
</event>
<event>
 4    1  0.1330040E-003  0.2544288E+03  0.7818608E-02  0.1110537E+00
         -2   -1    0    0    0  501 -0.00000000000E+00  0.00000000000E+00  0.21452997683E+02  0.21452997835E+02  0.25500000000E-02 0. -1.
          2   -1    0    0  501    0  0.00000000000E+00 -0.00000000000E+00 -0.75437045079E+03  0.75437045080E+03  0.25500000000E-02 0.  1.
    5000001    1    1    2    0    0  0.24761710502E+02  0.52001998398E+02 -0.11248584070E+03  0.14798450764E+03  0.77000000000E+02 0.  0.
   -5000001    1    1    2    0    0 -0.24761710502E+02 -0.52001998398E+02 -0.62043161241E+03  0.62783894099E+03  0.77000000000E+02 0.  0.
<mgrwt>
<rscale>  0 0.25442883E+03</rscale>
<asrwt>0</asrwt>
<pdfrwt beam="1">  1        2 0.10776719E+00 0.25442883E+03</pdfrwt>
<pdfrwt beam="2">  1       -2 0.30647144E-02 0.25442883E+03</pdfrwt>
<totfact> 0.17038069E+04</totfact>
</mgrwt>
</event>
<event>
 4    1  0.1330040E-003  0.2528721E+03  0.7818608E-02  0.1111503E+00
          2   -1    0    0  501    0  0.00000000000E+00  0.00000000000E+00  0.20850134764E+03  0.20850134765E+03  0.25500000000E-02 0.  1.
         -2   -1    0    0    0  501 -0.00000000000E+00 -0.00000000000E+00 -0.76671311932E+02  0.76671311975E+02  0.25500000000E-02 0. -1.
    5000001    1    1    2    0    0  0.43746644828E+02  0.90178885367E+02  0.62162596067E+02  0.14085165476E+03  0.77000000000E+02 0.  0.
   -5000001    1    1    2    0    0 -0.43746644828E+02 -0.90178885367E+02  0.69667439639E+02  0.14432100487E+03  0.77000000000E+02 0.  0.
<mgrwt>
<rscale>  0 0.25287208E+03</rscale>
<asrwt>0</asrwt>
<pdfrwt beam="1">  1        2 0.29785907E-01 0.25287208E+03</pdfrwt>
<pdfrwt beam="2">  1       -2 0.10953044E-01 0.25287208E+03</pdfrwt>
<totfact> 0.99849975E+03</totfact>
</mgrwt>
</event>
<event>
 4    1  0.1330040E-003  0.1838318E+03  0.7818608E-02  0.1164145E+00
         -2   -1    0    0    0  501 -0.00000000000E+00  0.00000000000E+00  0.33714898365E+03  0.33714898365E+03  0.25500000000E-02 0. -1.
          2   -1    0    0  501    0  0.00000000000E+00 -0.00000000000E+00 -0.25058747568E+02  0.25058747698E+02  0.25500000000E-02 0.  1.
    5000001    1    1    2    0    0 -0.50017773797E+02 -0.24458021279E+00  0.16433307475E+03  0.18824504501E+03  0.77000000000E+02 0.  0.
   -5000001    1    1    2    0    0  0.50017773797E+02  0.24458021279E+00  0.14775716133E+03  0.17396268634E+03  0.77000000000E+02 0.  0.
<mgrwt>
<rscale>  0 0.18383179E+03</rscale>
<asrwt>0</asrwt>
<pdfrwt beam="1">  1        2 0.35798210E-02 0.18383179E+03</pdfrwt>
<pdfrwt beam="2">  1       -2 0.48164142E-01 0.18383179E+03</pdfrwt>
<totfact> 0.98248364E+03</totfact>
</mgrwt>
</event>
<event>
 4    1  0.1330040E-003  0.2454470E+03  0.7818608E-02  0.1116216E+00
          2   -1    0    0  501    0  0.00000000000E+00  0.00000000000E+00  0.79054155352E+03  0.79054155352E+03  0.25500000000E-02 0.  1.
         -2   -1    0    0    0  501 -0.00000000000E+00 -0.00000000000E+00 -0.19051570535E+02  0.19051570705E+02  0.25500000000E-02 0. -1.
    5000001    1    1    2    0    0 -0.42431458691E+02 -0.80325537778E+02  0.48356136773E+03  0.49800925400E+03  0.77000000000E+02 0.  0.
   -5000001    1    1    2    0    0  0.42431458691E+02  0.80325537778E+02  0.28792861525E+03  0.31158387023E+03  0.77000000000E+02 0.  0.
<mgrwt>
<rscale>  0 0.24544701E+03</rscale>
<asrwt>0</asrwt>
<pdfrwt beam="1">  1        2 0.11293450E+00 0.24544701E+03</pdfrwt>
<pdfrwt beam="2">  1       -2 0.27216532E-02 0.24544701E+03</pdfrwt>
<totfact> 0.19156319E+04</totfact>
</mgrwt>
</event>
<event>
 4    1  0.1330040E-003  0.3228918E+03  0.7818608E-02  0.1074326E+00
          2   -1    0    0  501    0  0.00000000000E+00  0.00000000000E+00  0.10259172020E+04  0.10259172020E+04  0.25500000000E-02 0.  1.
         -2   -1    0    0    0  501 -0.00000000000E+00 -0.00000000000E+00 -0.25406315635E+02  0.25406315763E+02  0.25500000000E-02 0. -1.
    5000001    1    1    2    0    0  0.76175953154E+02  0.11913506899E+03  0.46175297291E+03  0.48902019231E+03  0.77000000000E+02 0.  0.
   -5000001    1    1    2    0    0 -0.76175953154E+02 -0.11913506899E+03  0.53875791349E+03  0.56230332548E+03  0.77000000000E+02 0.  0.
<mgrwt>
<rscale>  0 0.32289179E+03</rscale>
<asrwt>0</asrwt>
<pdfrwt beam="1">  1        2 0.14655959E+00 0.32289179E+03</pdfrwt>
<pdfrwt beam="2">  1       -2 0.36294739E-02 0.32289179E+03</pdfrwt>
<totfact> 0.89762079E+03</totfact>
</mgrwt>
</event>
<event>
 4    1  0.1330040E-003  0.2770660E+03  0.7818608E-02  0.1097302E+00
          2   -1    0    0  501    0  0.00000000000E+00  0.00000000000E+00  0.10670730263E+03  0.10670730266E+03  0.25500000000E-02 0.  1.
         -2   -1    0    0    0  501 -0.00000000000E+00 -0.00000000000E+00 -0.17985084301E+03  0.17985084303E+03  0.25500000000E-02 0. -1.
    5000001    1    1    2    0    0 -0.47965099207E+02 -0.95927161307E+02  0.68144824770E+01  0.13220479639E+03  0.77000000000E+02 0.  0.
   -5000001    1    1    2    0    0  0.47965099207E+02  0.95927161307E+02 -0.79958022862E+02  0.15435334929E+03  0.77000000000E+02 0.  0.
<mgrwt>
<rscale>  0 0.27706605E+03</rscale>
<asrwt>0</asrwt>
<pdfrwt beam="1">  1        2 0.15243900E-01 0.27706605E+03</pdfrwt>
<pdfrwt beam="2">  1       -2 0.25692978E-01 0.27706605E+03</pdfrwt>
<totfact> 0.51418112E+03</totfact>
</mgrwt>
</event>
