<event>
 4    1  0.5863356E-005  0.1787635E+04  0.7818608E-02  0.8712903E-01
         -2   -1    0    0    0  501 -0.00000000000E+00  0.00000000000E+00  0.70678737670E+03  0.70678737671E+03  0.25500000000E-02 0. -1.
          2   -1    0    0  501    0  0.00000000000E+00 -0.00000000000E+00 -0.11303400547E+04  0.11303400547E+04  0.25500000000E-02 0.  1.
    5000001    1    1    2    0    0 -0.38368258851E+03  0.67815366574E+03 -0.61630008079E+03  0.10118273137E+04  0.19200000000E+03 0.  0.
   -5000001    1    1    2    0    0  0.38368258851E+03 -0.67815366574E+03  0.19274740279E+03  0.82530011776E+03  0.19200000000E+03 0.  0.
<mgrwt>
<rscale>  0 0.17876354E+04</rscale>
<asrwt>0</asrwt>
<pdfrwt beam="1">  1        2 0.16147715E+00 0.17876354E+04</pdfrwt>
<pdfrwt beam="2">  1       -2 0.10096963E+00 0.17876354E+04</pdfrwt>
<totfact> 0.17945546E+01</totfact>
</mgrwt>
</event>
<event>
 4    1  0.5863356E-005  0.8105418E+03  0.7818608E-02  0.9544882E-01
         -2   -1    0    0    0  501 -0.00000000000E+00  0.00000000000E+00  0.10226774757E+03  0.10226774761E+03  0.25500000000E-02 0. -1.
          2   -1    0    0  501    0  0.00000000000E+00 -0.00000000000E+00 -0.16060243491E+04  0.16060243491E+04  0.25500000000E-02 0.  1.
    5000001    1    1    2    0    0 -0.55987846432E+02  0.26165824012E+03 -0.25410778135E+03  0.41597408347E+03  0.19200000000E+03 0.  0.
   -5000001    1    1    2    0    0  0.55987846432E+02 -0.26165824012E+03 -0.12496488201E+04  0.12923180132E+04  0.19200000000E+03 0.  0.
<mgrwt>
<rscale>  0 0.81054178E+03</rscale>
<asrwt>0</asrwt>
<pdfrwt beam="1">  1        2 0.22943203E+00 0.81054178E+03</pdfrwt>
<pdfrwt beam="2">  1       -2 0.14609679E-01 0.81054178E+03</pdfrwt>
<totfact> 0.47454412E+02</totfact>
</mgrwt>
</event>
<event>
 4    1  0.5863356E-005  0.4895363E+03  0.7818608E-02  0.1016547E+00
          2   -1    0    0  501    0  0.00000000000E+00  0.00000000000E+00  0.24244370875E+04  0.24244370875E+04  0.25500000000E-02 0.  1.
         -2   -1    0    0    0  501 -0.00000000000E+00 -0.00000000000E+00 -0.24711484585E+02  0.24711484717E+02  0.25500000000E-02 0. -1.
    5000001    1    1    2    0    0  0.10962049939E+03  0.98330586036E+02  0.10152337784E+04  0.10436710127E+04  0.19200000000E+03 0.  0.
   -5000001    1    1    2    0    0 -0.10962049939E+03 -0.98330586036E+02  0.13844918245E+04  0.14054775595E+04  0.19200000000E+03 0.  0.
<mgrwt>
<rscale>  0 0.48953627E+03</rscale>
<asrwt>0</asrwt>
<pdfrwt beam="1">  1        2 0.34634799E+00 0.48953627E+03</pdfrwt>
<pdfrwt beam="2">  1       -2 0.35302138E-02 0.48953627E+03</pdfrwt>
<totfact> 0.17846015E+03</totfact>
</mgrwt>
</event>
<event>
 4    1  0.5863356E-005  0.4552178E+03  0.7818608E-02  0.1026177E+00
         -2   -1    0    0    0  501 -0.00000000000E+00  0.00000000000E+00  0.43817442579E+02  0.43817442653E+02  0.25500000000E-02 0. -1.
          2   -1    0    0  501    0  0.00000000000E+00 -0.00000000000E+00 -0.11823102537E+04  0.11823102537E+04  0.25500000000E-02 0.  1.
    5000001    1    1    2    0    0 -0.67352634441E+02 -0.51701269161E+02 -0.80609673308E+03  0.83298579920E+03  0.19200000000E+03 0.  0.
   -5000001    1    1    2    0    0  0.67352634441E+02  0.51701269161E+02 -0.33239607806E+03  0.39314189717E+03  0.19200000000E+03 0.  0.
<mgrwt>
<rscale>  0 0.45521780E+03</rscale>
<asrwt>0</asrwt>
<pdfrwt beam="1">  1        2 0.16890144E+00 0.45521780E+03</pdfrwt>
<pdfrwt beam="2">  1       -2 0.62596354E-02 0.45521780E+03</pdfrwt>
<totfact> 0.31873190E+03</totfact>
</mgrwt>
</event>
<event>
 4    1  0.5863356E-005  0.4711003E+03  0.7818608E-02  0.1021610E+00
         -2   -1    0    0    0  501 -0.00000000000E+00  0.00000000000E+00  0.33449133094E+03  0.33449133095E+03  0.25500000000E-02 0. -1.
          2   -1    0    0  501    0  0.00000000000E+00 -0.00000000000E+00 -0.16587539311E+03  0.16587539313E+03  0.25500000000E-02 0.  1.
    5000001    1    1    2    0    0  0.12725009325E+03 -0.31740683802E+02  0.44286573119E+02  0.23669676339E+03  0.19200000000E+03 0.  0.
   -5000001    1    1    2    0    0 -0.12725009325E+03  0.31740683802E+02  0.12432936472E+03  0.26366996069E+03  0.19200000000E+03 0.  0.
<mgrwt>
<rscale>  0 0.47110033E+03</rscale>
<asrwt>0</asrwt>
<pdfrwt beam="1">  1        2 0.23696485E-01 0.47110033E+03</pdfrwt>
<pdfrwt beam="2">  1       -2 0.47784476E-01 0.47110033E+03</pdfrwt>
<totfact> 0.96917019E+02</totfact>
</mgrwt>
</event>
<event>
 4    1  0.5863356E-005  0.5904591E+03  0.7818608E-02  0.9925401E-01
          2   -1    0    0  501    0  0.00000000000E+00  0.00000000000E+00  0.13741047165E+04  0.13741047165E+04  0.25500000000E-02 0.  1.
         -2   -1    0    0    0  501 -0.00000000000E+00 -0.00000000000E+00 -0.63430740222E+02  0.63430740273E+02  0.25500000000E-02 0. -1.
    5000001    1    1    2    0    0 -0.47639141862E+01  0.20591301907E+03  0.87136785001E+03  0.91573402051E+03  0.19200000000E+03 0.  0.
   -5000001    1    1    2    0    0  0.47639141862E+01 -0.20591301907E+03  0.43930612624E+03  0.52180143623E+03  0.19200000000E+03 0.  0.
<mgrwt>
<rscale>  0 0.59045907E+03</rscale>
<asrwt>0</asrwt>
<pdfrwt beam="1">  1        2 0.19630067E+00 0.59045907E+03</pdfrwt>
<pdfrwt beam="2">  1       -2 0.90615345E-02 0.59045907E+03</pdfrwt>
<totfact> 0.13924349E+03</totfact>
</mgrwt>
</event>
<event>
 4    1  0.5863356E-005  0.4491805E+03  0.7818608E-02  0.1027967E+00
         -2   -1    0    0    0  501 -0.00000000000E+00  0.00000000000E+00  0.67056308532E+02  0.67056308580E+02  0.25500000000E-02 0. -1.
          2   -1    0    0  501    0  0.00000000000E+00 -0.00000000000E+00 -0.75221543666E+03  0.75221543666E+03  0.25500000000E-02 0.  1.
    5000001    1    1    2    0    0 -0.10097399874E+03 -0.47436610654E+02 -0.28124548414E+03  0.35834201931E+03  0.19200000000E+03 0.  0.
   -5000001    1    1    2    0    0  0.10097399874E+03  0.47436610654E+02 -0.40391364398E+03  0.46092972593E+03  0.19200000000E+03 0.  0.
<mgrwt>
<rscale>  0 0.44918054E+03</rscale>
<asrwt>0</asrwt>
<pdfrwt beam="1">  1        2 0.10745934E+00 0.44918054E+03</pdfrwt>
<pdfrwt beam="2">  1       -2 0.95794731E-02 0.44918054E+03</pdfrwt>
<totfact> 0.30086616E+03</totfact>
</mgrwt>
</event>
<event>
 4    1  0.5863356E-005  0.5660340E+03  0.7818608E-02  0.9978493E-01
          2   -1    0    0  501    0  0.00000000000E+00  0.00000000000E+00  0.12854492141E+04  0.12854492141E+04  0.25500000000E-02 0.  1.
         -2   -1    0    0    0  501 -0.00000000000E+00 -0.00000000000E+00 -0.62311771472E+02  0.62311771524E+02  0.25500000000E-02 0. -1.
    5000001    1    1    2    0    0 -0.20491210002E+03  0.10058948635E+02  0.53101753881E+03  0.60077764415E+03  0.19200000000E+03 0.  0.
   -5000001    1    1    2    0    0  0.20491210002E+03 -0.10058948635E+02  0.69211990380E+03  0.74698334146E+03  0.19200000000E+03 0.  0.
<mgrwt>
<rscale>  0 0.56603398E+03</rscale>
<asrwt>0</asrwt>
<pdfrwt beam="1">  1        2 0.18363560E+00 0.56603398E+03</pdfrwt>
<pdfrwt beam="2">  1       -2 0.89016817E-02 0.56603398E+03</pdfrwt>
<totfact> 0.16005615E+03</totfact>
</mgrwt>
</event>
<event>
 4    1  0.5863356E-005  0.5319450E+03  0.7818608E-02  0.1005762E+00
          2   -1    0    0  501    0  0.00000000000E+00  0.00000000000E+00  0.19149004584E+04  0.19149004584E+04  0.25500000000E-02 0.  1.
         -2   -1    0    0    0  501 -0.00000000000E+00 -0.00000000000E+00 -0.36942582298E+02  0.36942582386E+02  0.25500000000E-02 0. -1.
    5000001    1    1    2    0    0  0.17512264186E+03  0.35706126639E+02  0.11003637324E+04  0.11311972466E+04  0.19200000000E+03 0.  0.
   -5000001    1    1    2    0    0 -0.17512264186E+03 -0.35706126639E+02  0.77759414374E+03  0.82064579421E+03  0.19200000000E+03 0.  0.
<mgrwt>
<rscale>  0 0.53194499E+03</rscale>
<asrwt>0</asrwt>
<pdfrwt beam="1">  1        2 0.27355723E+00 0.53194499E+03</pdfrwt>
<pdfrwt beam="2">  1       -2 0.52775113E-02 0.53194499E+03</pdfrwt>
<totfact> 0.17296780E+03</totfact>
</mgrwt>
</event>
<event>
 4    1  0.5863356E-005  0.6784062E+03  0.7818608E-02  0.9754890E-01
         -2   -1    0    0    0  501 -0.00000000000E+00  0.00000000000E+00  0.32384371088E+03  0.32384371089E+03  0.25500000000E-02 0. -1.
          2   -1    0    0  501    0  0.00000000000E+00 -0.00000000000E+00 -0.35529095000E+03  0.35529095001E+03  0.25500000000E-02 0.  1.
    5000001    1    1    2    0    0  0.73128176869E+02  0.20794702870E+03 -0.18796953814E+03  0.34754315454E+03  0.19200000000E+03 0.  0.
   -5000001    1    1    2    0    0 -0.73128176869E+02 -0.20794702870E+03  0.15652229902E+03  0.33159150636E+03  0.19200000000E+03 0.  0.
<mgrwt>
<rscale>  0 0.67840619E+03</rscale>
<asrwt>0</asrwt>
<pdfrwt beam="1">  1        2 0.50755849E-01 0.67840619E+03</pdfrwt>
<pdfrwt beam="2">  1       -2 0.46263388E-01 0.67840619E+03</pdfrwt>
<totfact> 0.44086932E+02</totfact>
</mgrwt>
</event>
<event>
 4    1  0.5863356E-005  0.6541884E+03  0.7818608E-02  0.9798952E-01
          2   -1    0    0  501    0  0.00000000000E+00  0.00000000000E+00  0.59027560552E+03  0.59027560553E+03  0.25500000000E-02 0.  1.
         -2   -1    0    0    0  501 -0.00000000000E+00 -0.00000000000E+00 -0.18125533851E+03  0.18125533853E+03  0.25500000000E-02 0. -1.
    5000001    1    1    2    0    0 -0.25733668733E+03  0.62386160948E+02  0.20866329238E+03  0.38796723226E+03  0.19200000000E+03 0.  0.
   -5000001    1    1    2    0    0  0.25733668733E+03 -0.62386160948E+02  0.20035697463E+03  0.38356371179E+03  0.19200000000E+03 0.  0.
<mgrwt>
<rscale>  0 0.65418837E+03</rscale>
<asrwt>0</asrwt>
<pdfrwt beam="1">  1        2 0.84325087E-01 0.65418837E+03</pdfrwt>
<pdfrwt beam="2">  1       -2 0.25893620E-01 0.65418837E+03</pdfrwt>
<totfact> 0.74658399E+02</totfact>
</mgrwt>
</event>
<event>
 4    1  0.5863356E-005  0.5868751E+03  0.7818608E-02  0.9933016E-01
         -2   -1    0    0    0  501 -0.00000000000E+00  0.00000000000E+00  0.14097657896E+03  0.14097657898E+03  0.25500000000E-02 0. -1.
          2   -1    0    0  501    0  0.00000000000E+00 -0.00000000000E+00 -0.61077954089E+03  0.61077954089E+03  0.25500000000E-02 0.  1.
    5000001    1    1    2    0    0  0.82366701869E+02 -0.14058599587E+03 -0.42786552375E+03  0.49646913522E+03  0.19200000000E+03 0.  0.
   -5000001    1    1    2    0    0 -0.82366701869E+02  0.14058599587E+03 -0.41937438173E+02  0.25528698465E+03  0.19200000000E+03 0.  0.
<mgrwt>
<rscale>  0 0.58687515E+03</rscale>
<asrwt>0</asrwt>
<pdfrwt beam="1">  1        2 0.87254219E-01 0.58687515E+03</pdfrwt>
<pdfrwt beam="2">  1       -2 0.20139512E-01 0.58687515E+03</pdfrwt>
<totfact> 0.11213204E+03</totfact>
</mgrwt>
</event>
<event>
 4    1  0.5863356E-005  0.4623081E+03  0.7818608E-02  0.1024114E+00
          2   -1    0    0  501    0  0.00000000000E+00  0.00000000000E+00  0.54920444389E+03  0.54920444390E+03  0.25500000000E-02 0.  1.
         -2   -1    0    0    0  501 -0.00000000000E+00 -0.00000000000E+00 -0.97290192120E+02  0.97290192153E+02  0.25500000000E-02 0. -1.
    5000001    1    1    2    0    0  0.95877966035E+02 -0.25244328187E+02  0.34074870032E+03  0.40348920339E+03  0.19200000000E+03 0.  0.
   -5000001    1    1    2    0    0 -0.95877966035E+02  0.25244328187E+02  0.11116555145E+03  0.24300543267E+03  0.19200000000E+03 0.  0.
<mgrwt>
<rscale>  0 0.46230815E+03</rscale>
<asrwt>0</asrwt>
<pdfrwt beam="1">  1        2 0.78457781E-01 0.46230815E+03</pdfrwt>
<pdfrwt beam="2">  1       -2 0.13898598E-01 0.46230815E+03</pdfrwt>
<totfact> 0.23823233E+03</totfact>
</mgrwt>
</event>
<event>
 4    1  0.5863356E-005  0.4736346E+03  0.7818608E-02  0.1020899E+00
         -2   -1    0    0    0  501 -0.00000000000E+00  0.00000000000E+00  0.24985558389E+03  0.24985558391E+03  0.25500000000E-02 0. -1.
          2   -1    0    0  501    0  0.00000000000E+00 -0.00000000000E+00 -0.22445938694E+03  0.22445938696E+03  0.25500000000E-02 0.  1.
    5000001    1    1    2    0    0  0.15174377327E+01 -0.13294783757E+03  0.52010075868E+02  0.23926236253E+03  0.19200000000E+03 0.  0.
   -5000001    1    1    2    0    0 -0.15174377327E+01  0.13294783757E+03 -0.26613878916E+02  0.23505260833E+03  0.19200000000E+03 0.  0.
<mgrwt>
<rscale>  0 0.47363459E+03</rscale>
<asrwt>0</asrwt>
<pdfrwt beam="1">  1        2 0.32065627E-01 0.47363459E+03</pdfrwt>
<pdfrwt beam="2">  1       -2 0.35693655E-01 0.47363459E+03</pdfrwt>
<totfact> 0.12159183E+03</totfact>
</mgrwt>
</event>
<event>
 4    1  0.5863356E-005  0.1098377E+04  0.7818608E-02  0.9206775E-01
          2   -1    0    0  501    0  0.00000000000E+00  0.00000000000E+00  0.11939731397E+04  0.11939731397E+04  0.25500000000E-02 0.  1.
         -2   -1    0    0    0  501 -0.00000000000E+00 -0.00000000000E+00 -0.25260886544E+03  0.25260886545E+03  0.25500000000E-02 0. -1.
    5000001    1    1    2    0    0  0.48262840360E+03  0.16880401214E+03  0.54655913613E+03  0.77266801394E+03  0.19200000000E+03 0.  0.
   -5000001    1    1    2    0    0 -0.48262840360E+03 -0.16880401214E+03  0.39480513815E+03  0.67391399124E+03  0.19200000000E+03 0.  0.
<mgrwt>
<rscale>  0 0.10983773E+04</rscale>
<asrwt>0</asrwt>
<pdfrwt beam="1">  1        2 0.17056759E+00 0.10983773E+04</pdfrwt>
<pdfrwt beam="2">  1       -2 0.36086981E-01 0.10983773E+04</pdfrwt>
<totfact> 0.15426492E+02</totfact>
</mgrwt>
</event>
<event>
 4    1  0.5863356E-005  0.7807151E+03  0.7818608E-02  0.9588358E-01
          2   -1    0    0  501    0  0.00000000000E+00  0.00000000000E+00  0.29158114754E+04  0.29158114754E+04  0.25500000000E-02 0.  1.
         -2   -1    0    0    0  501 -0.00000000000E+00 -0.00000000000E+00 -0.52259555885E+02  0.52259555947E+02  0.25500000000E-02 0. -1.
    5000001    1    1    2    0    0  0.24201826158E+03 -0.22857461506E+03  0.11712581594E+04  0.12326917171E+04  0.19200000000E+03 0.  0.
   -5000001    1    1    2    0    0 -0.24201826158E+03  0.22857461506E+03  0.16922937601E+04  0.17353793142E+04  0.19200000000E+03 0.  0.
<mgrwt>
<rscale>  0 0.78071509E+03</rscale>
<asrwt>0</asrwt>
<pdfrwt beam="1">  1        2 0.41654448E+00 0.78071509E+03</pdfrwt>
<pdfrwt beam="2">  1       -2 0.74656511E-02 0.78071509E+03</pdfrwt>
<totfact> 0.30086107E+02</totfact>
</mgrwt>
</event>
<event>
 4    1  0.5863356E-005  0.5161896E+03  0.7818608E-02  0.1009637E+00
          2   -1    0    0  501    0  0.00000000000E+00  0.00000000000E+00  0.10651368405E+04  0.10651368405E+04  0.25500000000E-02 0.  1.
         -2   -1    0    0    0  501 -0.00000000000E+00 -0.00000000000E+00 -0.62539310325E+02  0.62539310377E+02  0.25500000000E-02 0. -1.
    5000001    1    1    2    0    0  0.15748522985E+02  0.17065913443E+03  0.45891679958E+03  0.52615699661E+03  0.19200000000E+03 0.  0.
   -5000001    1    1    2    0    0 -0.15748522985E+02 -0.17065913443E+03  0.54368073060E+03  0.60151915428E+03  0.19200000000E+03 0.  0.
<mgrwt>
<rscale>  0 0.51618959E+03</rscale>
<asrwt>0</asrwt>
<pdfrwt beam="1">  1        2 0.15216240E+00 0.51618959E+03</pdfrwt>
<pdfrwt beam="2">  1       -2 0.89341876E-02 0.51618959E+03</pdfrwt>
<totfact> 0.21200883E+03</totfact>
</mgrwt>
</event>
<event>
 4    1  0.5863356E-005  0.5819936E+03  0.7818608E-02  0.9943484E-01
          2   -1    0    0  501    0  0.00000000000E+00  0.00000000000E+00  0.14385019820E+04  0.14385019820E+04  0.25500000000E-02 0.  1.
         -2   -1    0    0    0  501 -0.00000000000E+00 -0.00000000000E+00 -0.58866185472E+02  0.58866185527E+02  0.25500000000E-02 0. -1.
    5000001    1    1    2    0    0 -0.54439423044E+02  0.21099463107E+03  0.73674919267E+03  0.79192534877E+03  0.19200000000E+03 0.  0.
   -5000001    1    1    2    0    0  0.54439423044E+02 -0.21099463107E+03  0.64288660388E+03  0.70544281878E+03  0.19200000000E+03 0.  0.
<mgrwt>
<rscale>  0 0.58199356E+03</rscale>
<asrwt>0</asrwt>
<pdfrwt beam="1">  1        2 0.20550030E+00 0.58199356E+03</pdfrwt>
<pdfrwt beam="2">  1       -2 0.84094543E-02 0.58199356E+03</pdfrwt>
<totfact> 0.14512787E+03</totfact>
</mgrwt>
</event>
<event>
 4    1  0.5863356E-005  0.7876047E+03  0.7818608E-02  0.9578134E-01
          2   -1    0    0  501    0  0.00000000000E+00  0.00000000000E+00  0.21912870284E+03  0.21912870286E+03  0.25500000000E-02 0.  1.
         -2   -1    0    0    0  501 -0.00000000000E+00 -0.00000000000E+00 -0.70771332495E+03  0.70771332496E+03  0.25500000000E-02 0. -1.
    5000001    1    1    2    0    0  0.39691290114E+01 -0.27068877784E+03  0.51422313843E+01  0.33193163600E+03  0.19200000000E+03 0.  0.
   -5000001    1    1    2    0    0 -0.39691290114E+01  0.27068877784E+03 -0.49372685350E+03  0.59491039182E+03  0.19200000000E+03 0.  0.
<mgrwt>
<rscale>  0 0.78760473E+03</rscale>
<asrwt>0</asrwt>
<pdfrwt beam="1">  1        2 0.31304101E-01 0.78760473E+03</pdfrwt>
<pdfrwt beam="2">  1       -2 0.10110190E+00 0.78760473E+03</pdfrwt>
<totfact> 0.13753068E+02</totfact>
</mgrwt>
</event>
<event>
 4    1  0.5863356E-005  0.7298970E+03  0.7818608E-02  0.9667427E-01
         -2   -1    0    0    0  501 -0.00000000000E+00  0.00000000000E+00  0.15456330000E+03  0.15456330002E+03  0.25500000000E-02 0. -1.
          2   -1    0    0  501    0  0.00000000000E+00 -0.00000000000E+00 -0.86170142570E+03  0.86170142570E+03  0.25500000000E-02 0.  1.
    5000001    1    1    2    0    0  0.19259921793E+03  0.24310591592E+03 -0.33778758734E+03  0.49715128408E+03  0.19200000000E+03 0.  0.
   -5000001    1    1    2    0    0 -0.19259921793E+03 -0.24310591592E+03 -0.36935053836E+03  0.51911344164E+03  0.19200000000E+03 0.  0.
<mgrwt>
<rscale>  0 0.72989702E+03</rscale>
<asrwt>0</asrwt>
<pdfrwt beam="1">  1        2 0.12310020E+00 0.72989702E+03</pdfrwt>
<pdfrwt beam="2">  1       -2 0.22080472E-01 0.72989702E+03</pdfrwt>
<totfact> 0.61968858E+02</totfact>
</mgrwt>
</event>
<event>
 4    1  0.5863356E-005  0.4793333E+03  0.7818608E-02  0.1019319E+00
          2   -1    0    0  501    0  0.00000000000E+00  0.00000000000E+00  0.47879392877E+03  0.47879392878E+03  0.25500000000E-02 0.  1.
         -2   -1    0    0    0  501 -0.00000000000E+00 -0.00000000000E+00 -0.11996832230E+03  0.11996832233E+03  0.25500000000E-02 0. -1.
    5000001    1    1    2    0    0 -0.64446837458E+02  0.12624894075E+03  0.20689181515E+03  0.31584871866E+03  0.19200000000E+03 0.  0.
   -5000001    1    1    2    0    0  0.64446837458E+02 -0.12624894075E+03  0.15193379131E+03  0.28291353245E+03  0.19200000000E+03 0.  0.
<mgrwt>
<rscale>  0 0.47933331E+03</rscale>
<asrwt>0</asrwt>
<pdfrwt beam="1">  1        2 0.68399133E-01 0.47933331E+03</pdfrwt>
<pdfrwt beam="2">  1       -2 0.17138332E-01 0.47933331E+03</pdfrwt>
<totfact> 0.19580588E+03</totfact>
</mgrwt>
</event>
<event>
 4    1  0.5863356E-005  0.6257082E+03  0.7818608E-02  0.9853460E-01
         -2   -1    0    0    0  501 -0.00000000000E+00  0.00000000000E+00  0.32868204484E+03  0.32868204485E+03  0.25500000000E-02 0. -1.
          2   -1    0    0  501    0  0.00000000000E+00 -0.00000000000E+00 -0.29778836705E+03  0.29778836706E+03  0.25500000000E-02 0.  1.
    5000001    1    1    2    0    0  0.20983454536E+03 -0.52851217054E+02 -0.10381964334E+03  0.30735371466E+03  0.19200000000E+03 0.  0.
   -5000001    1    1    2    0    0 -0.20983454536E+03  0.52851217054E+02  0.13471332114E+03  0.31911669725E+03  0.19200000000E+03 0.  0.
<mgrwt>
<rscale>  0 0.62570820E+03</rscale>
<asrwt>0</asrwt>
<pdfrwt beam="1">  1        2 0.42541195E-01 0.62570820E+03</pdfrwt>
<pdfrwt beam="2">  1       -2 0.46954578E-01 0.62570820E+03</pdfrwt>
<totfact> 0.52090316E+02</totfact>
</mgrwt>
</event>
<event>
 4    1  0.5863356E-005  0.6202030E+03  0.7818608E-02  0.9864356E-01
          2   -1    0    0  501    0  0.00000000000E+00  0.00000000000E+00  0.90121063933E+03  0.90121063934E+03  0.25500000000E-02 0.  1.
         -2   -1    0    0    0  501 -0.00000000000E+00 -0.00000000000E+00 -0.10670417530E+03  0.10670417533E+03  0.25500000000E-02 0. -1.
    5000001    1    1    2    0    0 -0.21730013999E+03  0.72437129315E+02  0.53158483178E+03  0.60984663803E+03  0.19200000000E+03 0.  0.
   -5000001    1    1    2    0    0  0.21730013999E+03 -0.72437129315E+02  0.26292163226E+03  0.39806817664E+03  0.19200000000E+03 0.  0.
<mgrwt>
<rscale>  0 0.62020299E+03</rscale>
<asrwt>0</asrwt>
<pdfrwt beam="1">  1        2 0.12874438E+00 0.62020299E+03</pdfrwt>
<pdfrwt beam="2">  1       -2 0.15243453E-01 0.62020299E+03</pdfrwt>
<totfact> 0.11104839E+03</totfact>
</mgrwt>
</event>
<event>
 4    1  0.5863356E-005  0.4648515E+03  0.7818608E-02  0.1023383E+00
         -2   -1    0    0    0  501 -0.00000000000E+00  0.00000000000E+00  0.33430822898E+02  0.33430822995E+02  0.25500000000E-02 0. -1.
          2   -1    0    0  501    0  0.00000000000E+00 -0.00000000000E+00 -0.16159256835E+04  0.16159256835E+04  0.25500000000E-02 0.  1.
    5000001    1    1    2    0    0  0.19538149049E+02  0.12098948611E+03 -0.95528996357E+03  0.98207082714E+03  0.19200000000E+03 0.  0.
   -5000001    1    1    2    0    0 -0.19538149049E+02 -0.12098948611E+03 -0.62720489704E+03  0.66728567936E+03  0.19200000000E+03 0.  0.
<mgrwt>
<rscale>  0 0.46485148E+03</rscale>
<asrwt>0</asrwt>
<pdfrwt beam="1">  1        2 0.23084648E+00 0.46485148E+03</pdfrwt>
<pdfrwt beam="2">  1       -2 0.47758329E-02 0.46485148E+03</pdfrwt>
<totfact> 0.28597948E+03</totfact>
</mgrwt>
</event>
<event>
 4    1  0.5863356E-005  0.6030778E+03  0.7818608E-02  0.9899041E-01
         -2   -1    0    0    0  501 -0.00000000000E+00  0.00000000000E+00  0.32063595892E+03  0.32063595893E+03  0.25500000000E-02 0. -1.
          2   -1    0    0  501    0  0.00000000000E+00 -0.00000000000E+00 -0.28357925999E+03  0.28357926000E+03  0.25500000000E-02 0.  1.
    5000001    1    1    2    0    0  0.20816851556E+03  0.53898805040E+02 -0.70083334739E+02  0.29667302854E+03  0.19200000000E+03 0.  0.
   -5000001    1    1    2    0    0 -0.20816851556E+03 -0.53898805040E+02  0.10714003367E+03  0.30754219039E+03  0.19200000000E+03 0.  0.
<mgrwt>
<rscale>  0 0.60307780E+03</rscale>
<asrwt>0</asrwt>
<pdfrwt beam="1">  1        2 0.40511323E-01 0.60307780E+03</pdfrwt>
<pdfrwt beam="2">  1       -2 0.45805137E-01 0.60307780E+03</pdfrwt>
<totfact> 0.57794997E+02</totfact>
</mgrwt>
</event>
<event>
 4    1  0.5863356E-005  0.1121179E+04  0.7818608E-02  0.9184792E-01
          2   -1    0    0  501    0  0.00000000000E+00  0.00000000000E+00  0.20851980657E+04  0.20851980657E+04  0.25500000000E-02 0.  1.
         -2   -1    0    0    0  501 -0.00000000000E+00 -0.00000000000E+00 -0.15071008286E+03  0.15071008288E+03  0.25500000000E-02 0. -1.
    5000001    1    1    2    0    0  0.43464113927E+03 -0.93417832184E+02  0.40404435676E+03  0.63067872451E+03  0.19200000000E+03 0.  0.
   -5000001    1    1    2    0    0 -0.43464113927E+03  0.93417832184E+02  0.15304436261E+04  0.16052294241E+04  0.19200000000E+03 0.  0.
<mgrwt>
<rscale>  0 0.11211786E+04</rscale>
<asrwt>0</asrwt>
<pdfrwt beam="1">  1        2 0.29788542E+00 0.11211786E+04</pdfrwt>
<pdfrwt beam="2">  1       -2 0.21530013E-01 0.11211786E+04</pdfrwt>
<totfact> 0.13509103E+02</totfact>
</mgrwt>
</event>
<event>
 4    1  0.5863356E-005  0.5529499E+03  0.7818608E-02  0.1000813E+00
          2   -1    0    0  501    0  0.00000000000E+00  0.00000000000E+00  0.38846885029E+03  0.38846885030E+03  0.25500000000E-02 0.  1.
         -2   -1    0    0    0  501 -0.00000000000E+00 -0.00000000000E+00 -0.19676838132E+03  0.19676838134E+03  0.25500000000E-02 0. -1.
    5000001    1    1    2    0    0  0.44373392855E+02 -0.18622396323E+03  0.38598958988E+02  0.27386537223E+03  0.19200000000E+03 0.  0.
   -5000001    1    1    2    0    0 -0.44373392855E+02  0.18622396323E+03  0.15310150998E+03  0.31137185941E+03  0.19200000000E+03 0.  0.
<mgrwt>
<rscale>  0 0.55294986E+03</rscale>
<asrwt>0</asrwt>
<pdfrwt beam="1">  1        2 0.55495549E-01 0.55294986E+03</pdfrwt>
<pdfrwt beam="2">  1       -2 0.28109769E-01 0.55294986E+03</pdfrwt>
<totfact> 0.10352119E+03</totfact>
</mgrwt>
</event>
<event>
 4    1  0.5863356E-005  0.5152738E+03  0.7818608E-02  0.1009867E+00
          2   -1    0    0  501    0  0.00000000000E+00  0.00000000000E+00  0.29652241064E+03  0.29652241065E+03  0.25500000000E-02 0.  1.
         -2   -1    0    0    0  501 -0.00000000000E+00 -0.00000000000E+00 -0.22385076935E+03  0.22385076937E+03  0.25500000000E-02 0. -1.
    5000001    1    1    2    0    0 -0.89552182378E+02  0.14478218279E+03  0.59613790403E+02  0.26343742678E+03  0.19200000000E+03 0.  0.
   -5000001    1    1    2    0    0  0.89552182378E+02 -0.14478218279E+03  0.13057850886E+02  0.25693575324E+03  0.19200000000E+03 0.  0.
<mgrwt>
<rscale>  0 0.51527379E+03</rscale>
<asrwt>0</asrwt>
<pdfrwt beam="1">  1        2 0.42360344E-01 0.51527379E+03</pdfrwt>
<pdfrwt beam="2">  1       -2 0.31978681E-01 0.51527379E+03</pdfrwt>
<totfact> 0.10991785E+03</totfact>
</mgrwt>
</event>
<event>
 4    1  0.5863356E-005  0.6322649E+03  0.7818608E-02  0.9840639E-01
          2   -1    0    0  501    0  0.00000000000E+00  0.00000000000E+00  0.59746762577E+03  0.59746762578E+03  0.25500000000E-02 0. -1.
         -2   -1    0    0    0  501 -0.00000000000E+00 -0.00000000000E+00 -0.16727217671E+03  0.16727217673E+03  0.25500000000E-02 0.  1.
    5000001    1    1    2    0    0 -0.19459932155E+03  0.15401693596E+03  0.26171697390E+03  0.40859501580E+03  0.19200000000E+03 0.  0.
   -5000001    1    1    2    0    0  0.19459932155E+03 -0.15401693596E+03  0.16847847516E+03  0.35614478671E+03  0.19200000000E+03 0.  0.
<mgrwt>
<rscale>  0 0.63226485E+03</rscale>
<asrwt>0</asrwt>
<pdfrwt beam="1">  1        2 0.85352519E-01 0.63226485E+03</pdfrwt>
<pdfrwt beam="2">  1       -2 0.23896025E-01 0.63226485E+03</pdfrwt>
<totfact> 0.85058304E+02</totfact>
</mgrwt>
</event>
<event>
 4    1  0.5863356E-005  0.7189373E+03  0.7818608E-02  0.9685384E-01
          2   -1    0    0  501    0  0.00000000000E+00  0.00000000000E+00  0.71710346746E+03  0.71710346747E+03  0.25500000000E-02 0.  1.
         -2   -1    0    0    0  501 -0.00000000000E+00 -0.00000000000E+00 -0.18019396947E+03  0.18019396948E+03  0.25500000000E-02 0. -1.
    5000001    1    1    2    0    0  0.22596213533E+03 -0.10716598172E+03  0.48394541633E+03  0.57759033946E+03  0.19200000000E+03 0.  0.
   -5000001    1    1    2    0    0 -0.22596213533E+03  0.10716598172E+03  0.52964081664E+02  0.31970709750E+03  0.19200000000E+03 0.  0.
<mgrwt>
<rscale>  0 0.71893733E+03</rscale>
<asrwt>0</asrwt>
<pdfrwt beam="1">  1        2 0.10244335E+00 0.71893733E+03</pdfrwt>
<pdfrwt beam="2">  1       -2 0.25741996E-01 0.71893733E+03</pdfrwt>
<totfact> 0.59578424E+02</totfact>
</mgrwt>
</event>
<event>
 4    1  0.5863356E-005  0.4102116E+03  0.7818608E-02  0.1040300E+00
         -2   -1    0    0    0  501 -0.00000000000E+00  0.00000000000E+00  0.36659424421E+03  0.36659424421E+03  0.25500000000E-02 0. -1.
          2   -1    0    0  501    0  0.00000000000E+00 -0.00000000000E+00 -0.11475461801E+03  0.11475461804E+03  0.25500000000E-02 0.  1.
    5000001    1    1    2    0    0  0.71750935407E+02 -0.58689101236E+01  0.12044841773E+03  0.23781182092E+03  0.19200000000E+03 0.  0.
   -5000001    1    1    2    0    0 -0.71750935407E+02  0.58689101236E+01  0.13139120847E+03  0.24353704133E+03  0.19200000000E+03 0.  0.
<mgrwt>
<rscale>  0 0.41021157E+03</rscale>
<asrwt>0</asrwt>
<pdfrwt beam="1">  1        2 0.16393517E-01 0.41021157E+03</pdfrwt>
<pdfrwt beam="2">  1       -2 0.52370606E-01 0.41021157E+03</pdfrwt>
<totfact> 0.12362511E+03</totfact>
</mgrwt>
</event>
<event>
 4    1  0.5863356E-005  0.5541885E+03  0.7818608E-02  0.1000529E+00
          2   -1    0    0  501    0  0.00000000000E+00  0.00000000000E+00  0.13881105543E+04  0.13881105543E+04  0.25500000000E-02 0.  1.
         -2   -1    0    0    0  501 -0.00000000000E+00 -0.00000000000E+00 -0.55313485351E+02  0.55313485410E+02  0.25500000000E-02 0. -1.
    5000001    1    1    2    0    0 -0.11097112016E+03 -0.14378021430E+03  0.88321870037E+03  0.92191464476E+03  0.19200000000E+03 0.  0.
   -5000001    1    1    2    0    0  0.11097112016E+03  0.14378021430E+03  0.44957836858E+03  0.52150939495E+03  0.19200000000E+03 0.  0.
<mgrwt>
<rscale>  0 0.55418853E+03</rscale>
<asrwt>0</asrwt>
<pdfrwt beam="1">  1        2 0.19830151E+00 0.55418853E+03</pdfrwt>
<pdfrwt beam="2">  1       -2 0.79019263E-02 0.55418853E+03</pdfrwt>
<totfact> 0.17053990E+03</totfact>
</mgrwt>
</event>
<event>
 4    1  0.5863356E-005  0.4650116E+03  0.7818608E-02  0.1023338E+00
         -2   -1    0    0    0  501 -0.00000000000E+00  0.00000000000E+00  0.61582637173E+02  0.61582637225E+02  0.25500000000E-02 0. -1.
          2   -1    0    0  501    0  0.00000000000E+00 -0.00000000000E+00 -0.87782790642E+03  0.87782790642E+03  0.25500000000E-02 0.  1.
    5000001    1    1    2    0    0  0.12041793001E+03 -0.13783407019E+02 -0.30702246452E+03  0.38186025441E+03  0.19200000000E+03 0.  0.
   -5000001    1    1    2    0    0 -0.12041793001E+03  0.13783407019E+02 -0.50922280472E+03  0.55755028923E+03  0.19200000000E+03 0.  0.
<mgrwt>
<rscale>  0 0.46501164E+03</rscale>
<asrwt>0</asrwt>
<pdfrwt beam="1">  1        2 0.12540398E+00 0.46501164E+03</pdfrwt>
<pdfrwt beam="2">  1       -2 0.87975201E-02 0.46501164E+03</pdfrwt>
<totfact> 0.28332549E+03</totfact>
</mgrwt>
</event>
<event>
 4    1  0.5863356E-005  0.7869441E+03  0.7818608E-02  0.9579110E-01
          2   -1    0    0  501    0  0.00000000000E+00  0.00000000000E+00  0.13713836161E+04  0.13713836161E+04  0.25500000000E-02 0.  1.
         -2   -1    0    0    0  501 -0.00000000000E+00 -0.00000000000E+00 -0.11289346932E+03  0.11289346934E+03  0.25500000000E-02 0. -1.
    5000001    1    1    2    0    0  0.31286817545E+03  0.11981608084E+03  0.77181768850E+03  0.86302313568E+03  0.19200000000E+03 0.  0.
   -5000001    1    1    2    0    0 -0.31286817545E+03 -0.11981608084E+03  0.48667245824E+03  0.62125394972E+03  0.19200000000E+03 0.  0.
<mgrwt>
<rscale>  0 0.78694410E+03</rscale>
<asrwt>0</asrwt>
<pdfrwt beam="1">  1        2 0.19591194E+00 0.78694410E+03</pdfrwt>
<pdfrwt beam="2">  1       -2 0.16127639E-01 0.78694410E+03</pdfrwt>
<totfact> 0.53436497E+02</totfact>
</mgrwt>
</event>
<event>
 4    1  0.5863356E-005  0.4373040E+03  0.7818608E-02  0.1031577E+00
          2   -1    0    0  501    0  0.00000000000E+00  0.00000000000E+00  0.12084590777E+04  0.12084590777E+04  0.25500000000E-02 0.  1.
         -2   -1    0    0    0  501 -0.00000000000E+00 -0.00000000000E+00 -0.39561700821E+02  0.39561700903E+02  0.25500000000E-02 0. -1.
    5000001    1    1    2    0    0  0.18689535409E+02 -0.86115268296E+02  0.42352433608E+03  0.47328849703E+03  0.19200000000E+03 0.  0.
   -5000001    1    1    2    0    0 -0.18689535409E+02  0.86115268296E+02  0.74537304078E+03  0.77473228156E+03  0.19200000000E+03 0.  0.
<mgrwt>
<rscale>  0 0.43730400E+03</rscale>
<asrwt>0</asrwt>
<pdfrwt beam="1">  1        2 0.17263700E+00 0.43730400E+03</pdfrwt>
<pdfrwt beam="2">  1       -2 0.56516718E-02 0.43730400E+03</pdfrwt>
<totfact> 0.36126137E+03</totfact>
</mgrwt>
</event>
<event>
 4    1  0.5863356E-005  0.7129302E+03  0.7818608E-02  0.9695372E-01
         -2   -1    0    0    0  501 -0.00000000000E+00  0.00000000000E+00  0.67831104300E+03  0.67831104300E+03  0.25500000000E-02 0. -1.
          2   -1    0    0  501    0  0.00000000000E+00 -0.00000000000E+00 -0.18732906794E+03  0.18732906796E+03  0.25500000000E-02 0.  1.
    5000001    1    1    2    0    0  0.53046332741E+02 -0.17856627437E+03 -0.40564786366E+02  0.27057222631E+03  0.19200000000E+03 0.  0.
   -5000001    1    1    2    0    0 -0.53046332741E+02  0.17856627437E+03  0.53154676142E+03  0.59506788465E+03  0.19200000000E+03 0.  0.
<mgrwt>
<rscale>  0 0.71293022E+03</rscale>
<asrwt>0</asrwt>
<pdfrwt beam="1">  1        2 0.26761295E-01 0.71293022E+03</pdfrwt>
<pdfrwt beam="2">  1       -2 0.96901578E-01 0.71293022E+03</pdfrwt>
<totfact> 0.18206896E+02</totfact>
</mgrwt>
</event>
<event>
 4    1  0.5863356E-005  0.5930646E+03  0.7818608E-02  0.9919900E-01
          2   -1    0    0  501    0  0.00000000000E+00  0.00000000000E+00  0.25340009095E+04  0.25340009095E+04  0.25500000000E-02 0.  1.
         -2   -1    0    0    0  501 -0.00000000000E+00 -0.00000000000E+00 -0.34700621635E+02  0.34700621729E+02  0.25500000000E-02 0. -1.
    5000001    1    1    2    0    0  0.19798394632E+03 -0.48306913155E+02  0.16726102936E+04  0.16958833672E+04  0.19200000000E+03 0.  0.
   -5000001    1    1    2    0    0 -0.19798394632E+03  0.48306913155E+02  0.82668999426E+03  0.87281816404E+03  0.19200000000E+03 0.  0.
<mgrwt>
<rscale>  0 0.59306461E+03</rscale>
<asrwt>0</asrwt>
<pdfrwt beam="1">  1        2 0.36200020E+00 0.59306461E+03</pdfrwt>
<pdfrwt beam="2">  1       -2 0.49572307E-02 0.59306461E+03</pdfrwt>
<totfact> 0.92496478E+02</totfact>
</mgrwt>
</event>
<event>
 4    1  0.5863356E-005  0.5828702E+03  0.7818608E-02  0.9941596E-01
          2   -1    0    0  501    0  0.00000000000E+00  0.00000000000E+00  0.78400876696E+03  0.78400876697E+03  0.25500000000E-02 0.  1.
         -2   -1    0    0    0  501 -0.00000000000E+00 -0.00000000000E+00 -0.10833349004E+03  0.10833349007E+03  0.25500000000E-02 0. -1.
    5000001    1    1    2    0    0  0.14237541606E+02 -0.16890002329E+03  0.55074626920E+03  0.60738404531E+03  0.19200000000E+03 0.  0.
   -5000001    1    1    2    0    0 -0.14237541606E+02  0.16890002329E+03  0.12492900772E+03  0.28495821172E+03  0.19200000000E+03 0.  0.
<mgrwt>
<rscale>  0 0.58287016E+03</rscale>
<asrwt>0</asrwt>
<pdfrwt beam="1">  1        2 0.11200125E+00 0.58287016E+03</pdfrwt>
<pdfrwt beam="2">  1       -2 0.15476213E-01 0.58287016E+03</pdfrwt>
<totfact> 0.12986056E+03</totfact>
</mgrwt>
</event>
<event>
 4    1  0.5863356E-005  0.9830132E+03  0.7818608E-02  0.9327374E-01
          2   -1    0    0  501    0  0.00000000000E+00  0.00000000000E+00  0.14726875115E+04  0.14726875115E+04  0.25500000000E-02 0.  1.
         -2   -1    0    0    0  501 -0.00000000000E+00 -0.00000000000E+00 -0.16403937769E+03  0.16403937771E+03  0.25500000000E-02 0. -1.
    5000001    1    1    2    0    0  0.20214687358E+03  0.11506280673E+03  0.81544147955E+01  0.30171725584E+03  0.19200000000E+03 0.  0.
   -5000001    1    1    2    0    0 -0.20214687358E+03 -0.11506280673E+03  0.13004937190E+04  0.13350096334E+04  0.19200000000E+03 0.  0.
<mgrwt>
<rscale>  0 0.98301321E+03</rscale>
<asrwt>0</asrwt>
<pdfrwt beam="1">  1        2 0.21038392E+00 0.98301321E+03</pdfrwt>
<pdfrwt beam="2">  1       -2 0.23434198E-01 0.98301321E+03</pdfrwt>
<totfact> 0.24295710E+02</totfact>
</mgrwt>
</event>
<event>
 4    1  0.5863356E-005  0.6390036E+03  0.7818608E-02  0.9827635E-01
         -2   -1    0    0    0  501 -0.00000000000E+00  0.00000000000E+00  0.71791192557E+02  0.71791192602E+02  0.25500000000E-02 0. -1.
          2   -1    0    0  501    0  0.00000000000E+00 -0.00000000000E+00 -0.14219210587E+04  0.14219210587E+04  0.25500000000E-02 0.  1.
    5000001    1    1    2    0    0  0.35727666664E+00 -0.22385405365E+03 -0.38775700399E+03  0.48716553565E+03  0.19200000000E+03 0.  0.
   -5000001    1    1    2    0    0 -0.35727666664E+00  0.22385405365E+03 -0.96237286219E+03  0.10065467157E+04  0.19200000000E+03 0.  0.
<mgrwt>
<rscale>  0 0.63900363E+03</rscale>
<asrwt>0</asrwt>
<pdfrwt beam="1">  1        2 0.20313156E+00 0.63900363E+03</pdfrwt>
<pdfrwt beam="2">  1       -2 0.10255886E-01 0.63900363E+03</pdfrwt>
<totfact> 0.10731712E+03</totfact>
</mgrwt>
</event>
<event>
 4    1  0.5863356E-005  0.5205393E+03  0.7818608E-02  0.1008553E+00
          2   -1    0    0  501    0  0.00000000000E+00  0.00000000000E+00  0.25060477785E+04  0.25060477785E+04  0.25500000000E-02 0.  1.
         -2   -1    0    0    0  501 -0.00000000000E+00 -0.00000000000E+00 -0.27030726465E+02  0.27030726585E+02  0.25500000000E-02 0. -1.
    5000001    1    1    2    0    0 -0.68043399072E+02  0.14335212292E+03  0.87222509261E+03  0.90709445346E+03  0.19200000000E+03 0.  0.
   -5000001    1    1    2    0    0  0.68043399072E+02 -0.14335212292E+03  0.16067919595E+04  0.16259840517E+04  0.19200000000E+03 0.  0.
<mgrwt>
<rscale>  0 0.52053931E+03</rscale>
<asrwt>0</asrwt>
<pdfrwt beam="1">  1        2 0.35800656E+00 0.52053931E+03</pdfrwt>
<pdfrwt beam="2">  1       -2 0.38615352E-02 0.52053931E+03</pdfrwt>
<totfact> 0.14116944E+03</totfact>
</mgrwt>
</event>
<event>
 4    1  0.5863356E-005  0.2040325E+04  0.7818608E-02  0.8587996E-01
         -2   -1    0    0    0  501 -0.00000000000E+00  0.00000000000E+00  0.87164489915E+03  0.87164489915E+03  0.25500000000E-02 0. -1.
          2   -1    0    0  501    0  0.00000000000E+00 -0.00000000000E+00 -0.11939861504E+04  0.11939861504E+04  0.25500000000E-02 0.  1.
    5000001    1    1    2    0    0 -0.73997737587E+03 -0.29485694921E+03 -0.77645901164E+03  0.11288311362E+04  0.19200000000E+03 0.  0.
   -5000001    1    1    2    0    0  0.73997737587E+03  0.29485694921E+03  0.45411776041E+03  0.93679991333E+03  0.19200000000E+03 0.  0.
<mgrwt>
<rscale>  0 0.20403254E+04</rscale>
<asrwt>0</asrwt>
<pdfrwt beam="1">  1        2 0.17056945E+00 0.20403254E+04</pdfrwt>
<pdfrwt beam="2">  1       -2 0.12452070E+00 0.20403254E+04</pdfrwt>
<totfact> 0.96984706E+00</totfact>
</mgrwt>
</event>
<event>
 4    1  0.5863356E-005  0.6737796E+03  0.7818608E-02  0.9763154E-01
          2   -1    0    0  501    0  0.00000000000E+00  0.00000000000E+00  0.15832905090E+04  0.15832905090E+04  0.25500000000E-02 0.  1.
         -2   -1    0    0    0  501 -0.00000000000E+00 -0.00000000000E+00 -0.71682835926E+02  0.71682835971E+02  0.25500000000E-02 0. -1.
    5000001    1    1    2    0    0 -0.52959281872E+02  0.27151690948E+03  0.78092929493E+03  0.85043558330E+03  0.19200000000E+03 0.  0.
   -5000001    1    1    2    0    0  0.52959281872E+02 -0.27151690948E+03  0.73067837815E+03  0.80453776168E+03  0.19200000000E+03 0.  0.
<mgrwt>
<rscale>  0 0.67377965E+03</rscale>
<asrwt>0</asrwt>
<pdfrwt beam="1">  1        2 0.22618436E+00 0.67377965E+03</pdfrwt>
<pdfrwt beam="2">  1       -2 0.10240405E-01 0.67377965E+03</pdfrwt>
<totfact> 0.88452814E+02</totfact>
</mgrwt>
</event>
<event>
 4    1  0.5863356E-005  0.8090659E+03  0.7818608E-02  0.9546987E-01
          2   -1    0    0  501    0  0.00000000000E+00  0.00000000000E+00  0.50366444742E+03  0.50366444743E+03  0.25500000000E-02 0.  1.
         -2   -1    0    0    0  501 -0.00000000000E+00 -0.00000000000E+00 -0.32491252556E+03  0.32491252557E+03  0.25500000000E-02 0. -1.
    5000001    1    1    2    0    0 -0.74428886141E+01 -0.30183824482E+03 -0.10391121854E+03  0.37258994077E+03  0.19200000000E+03 0.  0.
   -5000001    1    1    2    0    0  0.74428886141E+01  0.30183824482E+03  0.28266314039E+03  0.45598703223E+03  0.19200000000E+03 0.  0.
<mgrwt>
<rscale>  0 0.80906585E+03</rscale>
<asrwt>0</asrwt>
<pdfrwt beam="1">  1        2 0.71952063E-01 0.80906585E+03</pdfrwt>
<pdfrwt beam="2">  1       -2 0.46416075E-01 0.80906585E+03</pdfrwt>
<totfact> 0.29462929E+02</totfact>
</mgrwt>
</event>
<event>
 4    1  0.5863356E-005  0.5945812E+03  0.7818608E-02  0.9916712E-01
         -2   -1    0    0    0  501 -0.00000000000E+00  0.00000000000E+00  0.84237404572E+02  0.84237404611E+02  0.25500000000E-02 0. -1.
          2   -1    0    0  501    0  0.00000000000E+00 -0.00000000000E+00 -0.10491979183E+04  0.10491979183E+04  0.25500000000E-02 0.  1.
    5000001    1    1    2    0    0  0.16470424176E+03 -0.40814762459E+02 -0.76984371792E+03  0.81136716849E+03  0.19200000000E+03 0.  0.
   -5000001    1    1    2    0    0 -0.16470424176E+03  0.40814762459E+02 -0.19511679582E+03  0.32206815444E+03  0.19200000000E+03 0.  0.
<mgrwt>
<rscale>  0 0.59458123E+03</rscale>
<asrwt>0</asrwt>
<pdfrwt beam="1">  1        2 0.14988541E+00 0.59458123E+03</pdfrwt>
<pdfrwt beam="2">  1       -2 0.12033916E-01 0.59458123E+03</pdfrwt>
<totfact> 0.13344878E+03</totfact>
</mgrwt>
</event>
<event>
 4    1  0.5863356E-005  0.4892123E+03  0.7818608E-02  0.1016634E+00
         -2   -1    0    0    0  501 -0.00000000000E+00  0.00000000000E+00  0.88616306883E+02  0.88616306920E+02  0.25500000000E-02 0. -1.
          2   -1    0    0  501    0  0.00000000000E+00 -0.00000000000E+00 -0.67518239542E+03  0.67518239543E+03  0.25500000000E-02 0.  1.
    5000001    1    1    2    0    0  0.14092445106E+03  0.44235700433E+02 -0.34626719741E+03  0.42258900850E+03  0.19200000000E+03 0.  0.
   -5000001    1    1    2    0    0 -0.14092445106E+03 -0.44235700433E+02 -0.24029889113E+03  0.34120969385E+03  0.19200000000E+03 0.  0.
<mgrwt>
<rscale>  0 0.48921231E+03</rscale>
<asrwt>0</asrwt>
<pdfrwt beam="1">  1        2 0.96454625E-01 0.48921231E+03</pdfrwt>
<pdfrwt beam="2">  1       -2 0.12659473E-01 0.48921231E+03</pdfrwt>
<totfact> 0.21833885E+03</totfact>
</mgrwt>
</event>
<event>
 4    1  0.5863356E-005  0.6018252E+03  0.7818608E-02  0.9901627E-01
          2   -1    0    0  501    0  0.00000000000E+00  0.00000000000E+00  0.34248658773E+03  0.34248658774E+03  0.25500000000E-02 0. -1.
         -2   -1    0    0    0  501 -0.00000000000E+00 -0.00000000000E+00 -0.26438518980E+03  0.26438518982E+03  0.25500000000E-02 0.  1.
    5000001    1    1    2    0    0 -0.22598697406E+03 -0.50817169742E+02  0.44744669392E+02  0.30416867463E+03  0.19200000000E+03 0.  0.
   -5000001    1    1    2    0    0  0.22598697406E+03  0.50817169742E+02  0.33356728537E+02  0.30270310293E+03  0.19200000000E+03 0.  0.
<mgrwt>
<rscale>  0 0.60182516E+03</rscale>
<asrwt>0</asrwt>
<pdfrwt beam="1">  1        2 0.48926656E-01 0.60182516E+03</pdfrwt>
<pdfrwt beam="2">  1       -2 0.37769313E-01 0.60182516E+03</pdfrwt>
<totfact> 0.68429137E+02</totfact>
</mgrwt>
</event>
<event>
 4    1  0.5863356E-005  0.1393271E+04  0.7818608E-02  0.8958704E-01
         -2   -1    0    0    0  501 -0.00000000000E+00  0.00000000000E+00  0.30157882378E+03  0.30157882379E+03  0.25500000000E-02 0. -1.
          2   -1    0    0  501    0  0.00000000000E+00 -0.00000000000E+00 -0.16092017951E+04  0.16092017951E+04  0.25500000000E-02 0.  1.
    5000001    1    1    2    0    0 -0.65176826821E+03  0.78698385053E+02 -0.83493370063E+03  0.10793394256E+04  0.19200000000E+03 0.  0.
   -5000001    1    1    2    0    0  0.65176826821E+03 -0.78698385053E+02 -0.47268927073E+03  0.83144119330E+03  0.19200000000E+03 0.  0.
<mgrwt>
<rscale>  0 0.13932712E+04</rscale>
<asrwt>0</asrwt>
<pdfrwt beam="1">  1        2 0.22988597E+00 0.13932712E+04</pdfrwt>
<pdfrwt beam="2">  1       -2 0.43082690E-01 0.13932712E+04</pdfrwt>
<totfact> 0.63690222E+01</totfact>
</mgrwt>
</event>
<event>
 4    1  0.5863356E-005  0.7685507E+03  0.7818608E-02  0.9606688E-01
         -2   -1    0    0    0  501 -0.00000000000E+00  0.00000000000E+00  0.16160710807E+03  0.16160710809E+03  0.25500000000E-02 0. -1.
          2   -1    0    0  501    0  0.00000000000E+00 -0.00000000000E+00 -0.91374421015E+03  0.91374421016E+03  0.25500000000E-02 0.  1.
    5000001    1    1    2    0    0 -0.26041496483E+03 -0.18403138612E+03 -0.24244699008E+03  0.44421621761E+03  0.19200000000E+03 0.  0.
   -5000001    1    1    2    0    0  0.26041496483E+03  0.18403138612E+03 -0.50969011200E+03  0.63113510064E+03  0.19200000000E+03 0.  0.
<mgrwt>
<rscale>  0 0.76855074E+03</rscale>
<asrwt>0</asrwt>
<pdfrwt beam="1">  1        2 0.13053488E+00 0.76855074E+03</pdfrwt>
<pdfrwt beam="2">  1       -2 0.23086730E-01 0.76855074E+03</pdfrwt>
<totfact> 0.52853889E+02</totfact>
</mgrwt>
</event>
<event>
 4    1  0.5863356E-005  0.7239308E+03  0.7818608E-02  0.9677161E-01
          2   -1    0    0  501    0  0.00000000000E+00  0.00000000000E+00  0.94922934984E+03  0.94922934984E+03  0.25500000000E-02 0.  1.
         -2   -1    0    0    0  501 -0.00000000000E+00 -0.00000000000E+00 -0.13802664066E+03  0.13802664068E+03  0.25500000000E-02 0. -1.
    5000001    1    1    2    0    0 -0.18184522602E+03 -0.24623797848E+03  0.43760617275E+03  0.56750681996E+03  0.19200000000E+03 0.  0.
   -5000001    1    1    2    0    0  0.18184522602E+03  0.24623797848E+03  0.37359653643E+03  0.51974917057E+03  0.19200000000E+03 0.  0.
<mgrwt>
<rscale>  0 0.72393077E+03</rscale>
<asrwt>0</asrwt>
<pdfrwt beam="1">  1        2 0.13560420E+00 0.72393077E+03</pdfrwt>
<pdfrwt beam="2">  1       -2 0.19718091E-01 0.72393077E+03</pdfrwt>
<totfact> 0.66363808E+02</totfact>
</mgrwt>
</event>
<event>
 4    1  0.5863356E-005  0.6707474E+03  0.7818608E-02  0.9768609E-01
          2   -1    0    0  501    0  0.00000000000E+00  0.00000000000E+00  0.19627353605E+04  0.19627353605E+04  0.25500000000E-02 0.  1.
         -2   -1    0    0    0  501 -0.00000000000E+00 -0.00000000000E+00 -0.57305485333E+02  0.57305485390E+02  0.25500000000E-02 0. -1.
    5000001    1    1    2    0    0 -0.17012530307E+03 -0.21581025663E+03  0.98204033977E+03  0.10376819910E+04  0.19200000000E+03 0.  0.
   -5000001    1    1    2    0    0  0.17012530307E+03  0.21581025663E+03  0.92338953541E+03  0.98235885486E+03  0.19200000000E+03 0.  0.
<mgrwt>
<rscale>  0 0.67074735E+03</rscale>
<asrwt>0</asrwt>
<pdfrwt beam="1">  1        2 0.28039075E+00 0.67074735E+03</pdfrwt>
<pdfrwt beam="2">  1       -2 0.81864983E-02 0.67074735E+03</pdfrwt>
<totfact> 0.81394655E+02</totfact>
</mgrwt>
</event>
<event>
 4    1  0.5863356E-005  0.4870432E+03  0.7818608E-02  0.1017217E+00
         -2   -1    0    0    0  501 -0.00000000000E+00  0.00000000000E+00  0.26570925451E+02  0.26570925573E+02  0.25500000000E-02 0. -1.
          2   -1    0    0  501    0  0.00000000000E+00 -0.00000000000E+00 -0.22318668840E+04  0.22318668841E+04  0.25500000000E-02 0.  1.
    5000001    1    1    2    0    0 -0.76373888987E+02 -0.11881412574E+03 -0.87130665356E+03  0.90332112338E+03  0.19200000000E+03 0.  0.
   -5000001    1    1    2    0    0  0.76373888987E+02  0.11881412574E+03 -0.13339893050E+04  0.13551166862E+04  0.19200000000E+03 0.  0.
<mgrwt>
<rscale>  0 0.48704320E+03</rscale>
<asrwt>0</asrwt>
<pdfrwt beam="1">  1        2 0.31883801E+00 0.48704320E+03</pdfrwt>
<pdfrwt beam="2">  1       -2 0.37958479E-02 0.48704320E+03</pdfrwt>
<totfact> 0.19977985E+03</totfact>
</mgrwt>
</event>
<event>
 4    1  0.5863356E-005  0.5412129E+03  0.7818608E-02  0.1003548E+00
          2   -1    0    0  501    0  0.00000000000E+00  0.00000000000E+00  0.73604856014E+03  0.73604856015E+03  0.25500000000E-02 0.  1.
         -2   -1    0    0    0  501 -0.00000000000E+00 -0.00000000000E+00 -0.99487801169E+02  0.99487801202E+02  0.25500000000E-02 0. -1.
    5000001    1    1    2    0    0  0.21923289136E+02  0.18327461387E+03  0.39221701057E+03  0.47409745630E+03  0.19200000000E+03 0.  0.
   -5000001    1    1    2    0    0 -0.21923289136E+02 -0.18327461387E+03  0.24434374840E+03  0.36143890504E+03  0.19200000000E+03 0.  0.
<mgrwt>
<rscale>  0 0.54121291E+03</rscale>
<asrwt>0</asrwt>
<pdfrwt beam="1">  1        2 0.10514979E+00 0.54121291E+03</pdfrwt>
<pdfrwt beam="2">  1       -2 0.14212544E-01 0.54121291E+03</pdfrwt>
<totfact> 0.16221040E+03</totfact>
</mgrwt>
</event>
<event>
 4    1  0.5863356E-005  0.6866027E+03  0.7818608E-02  0.9740422E-01
         -2   -1    0    0    0  501 -0.00000000000E+00  0.00000000000E+00  0.24298700244E+03  0.24298700246E+03  0.25500000000E-02 0. -1.
          2   -1    0    0  501    0  0.00000000000E+00 -0.00000000000E+00 -0.48502931661E+03  0.48502931662E+03  0.25500000000E-02 0.  1.
    5000001    1    1    2    0    0 -0.98232195046E+01  0.24695457255E+03  0.28587850766E+02  0.31426791398E+03  0.19200000000E+03 0.  0.
   -5000001    1    1    2    0    0  0.98232195046E+01 -0.24695457255E+03 -0.27063016493E+03  0.41374840509E+03  0.19200000000E+03 0.  0.
<mgrwt>
<rscale>  0 0.68660271E+03</rscale>
<asrwt>0</asrwt>
<pdfrwt beam="1">  1        2 0.69289902E-01 0.68660271E+03</pdfrwt>
<pdfrwt beam="2">  1       -2 0.34712429E-01 0.68660271E+03</pdfrwt>
<totfact> 0.54404916E+02</totfact>
</mgrwt>
</event>
<event>
 4    1  0.5863356E-005  0.6119551E+03  0.7818608E-02  0.9880909E-01
         -2   -1    0    0    0  501 -0.00000000000E+00  0.00000000000E+00  0.33424506884E+03  0.33424506885E+03  0.25500000000E-02 0. -1.
          2   -1    0    0  501    0  0.00000000000E+00 -0.00000000000E+00 -0.28010061122E+03  0.28010061123E+03  0.25500000000E-02 0.  1.
    5000001    1    1    2    0    0  0.16763449431E+03  0.16508050542E+03  0.64706690147E+02  0.31048969822E+03  0.19200000000E+03 0.  0.
   -5000001    1    1    2    0    0 -0.16763449431E+03 -0.16508050542E+03 -0.10562232529E+02  0.30385598185E+03  0.19200000000E+03 0.  0.
<mgrwt>
<rscale>  0 0.61195506E+03</rscale>
<asrwt>0</asrwt>
<pdfrwt beam="1">  1        2 0.40014373E-01 0.61195506E+03</pdfrwt>
<pdfrwt beam="2">  1       -2 0.47749296E-01 0.61195506E+03</pdfrwt>
<totfact> 0.53906738E+02</totfact>
</mgrwt>
</event>
<event>
 4    1  0.5863356E-005  0.9681517E+03  0.7818608E-02  0.9344182E-01
         -2   -1    0    0    0  501 -0.00000000000E+00  0.00000000000E+00  0.14711757843E+03  0.14711757845E+03  0.25500000000E-02 0. -1.
          2   -1    0    0  501    0  0.00000000000E+00 -0.00000000000E+00 -0.15928036176E+04  0.15928036176E+04  0.25500000000E-02 0.  1.
    5000001    1    1    2    0    0 -0.12123653311E+03 -0.42481415476E+03 -0.63665346387E+03  0.79834641359E+03  0.19200000000E+03 0.  0.
   -5000001    1    1    2    0    0  0.12123653311E+03  0.42481415476E+03 -0.80903257527E+03  0.94157478242E+03  0.19200000000E+03 0.  0.
<mgrwt>
<rscale>  0 0.96815166E+03</rscale>
<asrwt>0</asrwt>
<pdfrwt beam="1">  1        2 0.22754336E+00 0.96815166E+03</pdfrwt>
<pdfrwt beam="2">  1       -2 0.21016798E-01 0.96815166E+03</pdfrwt>
<totfact> 0.25512790E+02</totfact>
</mgrwt>
</event>
<event>
 4    1  0.5863356E-005  0.5233151E+03  0.7818608E-02  0.1007866E+00
          2   -1    0    0  501    0  0.00000000000E+00  0.00000000000E+00  0.21732580012E+04  0.21732580012E+04  0.25500000000E-02 0.  1.
         -2   -1    0    0    0  501 -0.00000000000E+00 -0.00000000000E+00 -0.31503241911E+02  0.31503242015E+02  0.25500000000E-02 0. -1.
    5000001    1    1    2    0    0  0.17316599638E+03  0.40127316337E+02  0.10793128233E+04  0.11105750017E+04  0.19200000000E+03 0.  0.
   -5000001    1    1    2    0    0 -0.17316599638E+03 -0.40127316337E+02  0.10624419360E+04  0.10941862416E+04  0.19200000000E+03 0.  0.
<mgrwt>
<rscale>  0 0.52331510E+03</rscale>
<asrwt>0</asrwt>
<pdfrwt beam="1">  1        2 0.31046542E+00 0.52331510E+03</pdfrwt>
<pdfrwt beam="2">  1       -2 0.45004632E-02 0.52331510E+03</pdfrwt>
<totfact> 0.16435986E+03</totfact>
</mgrwt>
</event>
<event>
 4    1  0.5863356E-005  0.4688610E+03  0.7818608E-02  0.1022242E+00
         -2   -1    0    0    0  501 -0.00000000000E+00  0.00000000000E+00  0.73428846825E+02  0.73428846869E+02  0.25500000000E-02 0. -1.
          2   -1    0    0  501    0  0.00000000000E+00 -0.00000000000E+00 -0.74844773044E+03  0.74844773045E+03  0.25500000000E-02 0.  1.
    5000001    1    1    2    0    0 -0.10490330500E+03  0.75863496894E+02 -0.27349346597E+03  0.35836106023E+03  0.19200000000E+03 0.  0.
   -5000001    1    1    2    0    0  0.10490330500E+03 -0.75863496894E+02 -0.40152541765E+03  0.46351551708E+03  0.19200000000E+03 0.  0.
<mgrwt>
<rscale>  0 0.46886098E+03</rscale>
<asrwt>0</asrwt>
<pdfrwt beam="1">  1        2 0.10692110E+00 0.46886098E+03</pdfrwt>
<pdfrwt beam="2">  1       -2 0.10489836E-01 0.46886098E+03</pdfrwt>
<totfact> 0.26163578E+03</totfact>
</mgrwt>
</event>
<event>
 4    1  0.5863356E-005  0.6220728E+03  0.7818608E-02  0.9860641E-01
         -2   -1    0    0    0  501 -0.00000000000E+00  0.00000000000E+00  0.26687020209E+03  0.26687020210E+03  0.25500000000E-02 0. -1.
          2   -1    0    0  501    0  0.00000000000E+00 -0.00000000000E+00 -0.36251192797E+03  0.36251192798E+03  0.25500000000E-02 0.  1.
    5000001    1    1    2    0    0  0.10537820806E+03 -0.22018285918E+03 -0.65185667144E+02  0.31732984324E+03  0.19200000000E+03 0.  0.
   -5000001    1    1    2    0    0 -0.10537820806E+03  0.22018285918E+03 -0.30456058737E+02  0.31205228684E+03  0.19200000000E+03 0.  0.
<mgrwt>
<rscale>  0 0.62207277E+03</rscale>
<asrwt>0</asrwt>
<pdfrwt beam="1">  1        2 0.51787418E-01 0.62207277E+03</pdfrwt>
<pdfrwt beam="2">  1       -2 0.38124315E-01 0.62207277E+03</pdfrwt>
<totfact> 0.63093301E+02</totfact>
</mgrwt>
</event>
<event>
 4    1  0.5863356E-005  0.4583534E+03  0.7818608E-02  0.1025260E+00
         -2   -1    0    0    0  501 -0.00000000000E+00  0.00000000000E+00  0.39816819899E+02  0.39816819980E+02  0.25500000000E-02 0. -1.
          2   -1    0    0  501    0  0.00000000000E+00 -0.00000000000E+00 -0.13190897313E+04  0.13190897313E+04  0.25500000000E-02 0.  1.
    5000001    1    1    2    0    0 -0.10814660647E+03 -0.53019130667E+02 -0.74023052579E+03  0.77415240620E+03  0.19200000000E+03 0.  0.
   -5000001    1    1    2    0    0  0.10814660647E+03  0.53019130667E+02 -0.53904238557E+03  0.58475414505E+03  0.19200000000E+03 0.  0.
<mgrwt>
<rscale>  0 0.45835339E+03</rscale>
<asrwt>0</asrwt>
<pdfrwt beam="1">  1        2 0.18844136E+00 0.45835339E+03</pdfrwt>
<pdfrwt beam="2">  1       -2 0.56881180E-02 0.45835339E+03</pdfrwt>
<totfact> 0.31146103E+03</totfact>
</mgrwt>
</event>
<event>
 4    1  0.5863356E-005  0.5687827E+03  0.7818608E-02  0.9972376E-01
          2   -1    0    0  501    0  0.00000000000E+00  0.00000000000E+00  0.47522347949E+03  0.47522347949E+03  0.25500000000E-02 0.  1.
         -2   -1    0    0    0  501 -0.00000000000E+00 -0.00000000000E+00 -0.17019033642E+03  0.17019033644E+03  0.25500000000E-02 0. -1.
    5000001    1    1    2    0    0  0.17444445918E+03  0.10647272543E+03  0.98725984717E+02  0.29728459540E+03  0.19200000000E+03 0.  0.
   -5000001    1    1    2    0    0 -0.17444445918E+03 -0.10647272543E+03  0.20630715835E+03  0.34812922053E+03  0.19200000000E+03 0.  0.
<mgrwt>
<rscale>  0 0.56878271E+03</rscale>
<asrwt>0</asrwt>
<pdfrwt beam="1">  1        2 0.67889069E-01 0.56878271E+03</pdfrwt>
<pdfrwt beam="2">  1       -2 0.24312905E-01 0.56878271E+03</pdfrwt>
<totfact> 0.10741331E+03</totfact>
</mgrwt>
</event>
<event>
 4    1  0.5863356E-005  0.5757363E+03  0.7818608E-02  0.9957065E-01
         -2   -1    0    0    0  501 -0.00000000000E+00  0.00000000000E+00  0.40819964417E+02  0.40819964497E+02  0.25500000000E-02 0. -1.
          2   -1    0    0  501    0  0.00000000000E+00 -0.00000000000E+00 -0.20300869592E+04  0.20300869592E+04  0.25500000000E-02 0.  1.
    5000001    1    1    2    0    0  0.19819591576E+03  0.61476616977E+02 -0.11897698299E+04  0.12228970699E+04  0.19200000000E+03 0.  0.
   -5000001    1    1    2    0    0 -0.19819591576E+03 -0.61476616977E+02 -0.79949716484E+03  0.84800985374E+03  0.19200000000E+03 0.  0.
<mgrwt>
<rscale>  0 0.57573632E+03</rscale>
<asrwt>0</asrwt>
<pdfrwt beam="1">  1        2 0.29001236E+00 0.57573632E+03</pdfrwt>
<pdfrwt beam="2">  1       -2 0.58314248E-02 0.57573632E+03</pdfrwt>
<totfact> 0.12938402E+03</totfact>
</mgrwt>
</event>
<event>
 4    1  0.5863356E-005  0.5713361E+03  0.7818608E-02  0.9966726E-01
          2   -1    0    0  501    0  0.00000000000E+00  0.00000000000E+00  0.13821949284E+04  0.13821949284E+04  0.25500000000E-02 0.  1.
         -2   -1    0    0    0  501 -0.00000000000E+00 -0.00000000000E+00 -0.59041051638E+02  0.59041051693E+02  0.25500000000E-02 0. -1.
    5000001    1    1    2    0    0  0.17929568493E+03 -0.78865505647E+02  0.86299648323E+03  0.90553500246E+03  0.19200000000E+03 0.  0.
   -5000001    1    1    2    0    0 -0.17929568493E+03  0.78865505647E+02  0.46015739351E+03  0.53570097761E+03  0.19200000000E+03 0.  0.
<mgrwt>
<rscale>  0 0.57133613E+03</rscale>
<asrwt>0</asrwt>
<pdfrwt beam="1">  1        2 0.19745640E+00 0.57133613E+03</pdfrwt>
<pdfrwt beam="2">  1       -2 0.84344366E-02 0.57133613E+03</pdfrwt>
<totfact> 0.15474877E+03</totfact>
</mgrwt>
</event>
<event>
 4    1  0.5863356E-005  0.5012649E+03  0.7818608E-02  0.1013449E+00
         -2   -1    0    0    0  501 -0.00000000000E+00  0.00000000000E+00  0.76590091543E+02  0.76590091586E+02  0.25500000000E-02 0. -1.
          2   -1    0    0  501    0  0.00000000000E+00 -0.00000000000E+00 -0.82016633272E+03  0.82016633272E+03  0.25500000000E-02 0.  1.
    5000001    1    1    2    0    0 -0.13234751678E+03 -0.90582894562E+02 -0.34456913184E+03  0.42580865726E+03  0.19200000000E+03 0.  0.
   -5000001    1    1    2    0    0  0.13234751678E+03  0.90582894562E+02 -0.39900710934E+03  0.47094776705E+03  0.19200000000E+03 0.  0.
<mgrwt>
<rscale>  0 0.50126486E+03</rscale>
<asrwt>0</asrwt>
<pdfrwt beam="1">  1        2 0.11716661E+00 0.50126486E+03</pdfrwt>
<pdfrwt beam="2">  1       -2 0.10941442E-01 0.50126486E+03</pdfrwt>
<totfact> 0.21782316E+03</totfact>
</mgrwt>
</event>
<event>
 4    1  0.5863356E-005  0.7980236E+03  0.7818608E-02  0.9562882E-01
          2   -1    0    0  501    0  0.00000000000E+00  0.00000000000E+00  0.95416295029E+03  0.95416295029E+03  0.25500000000E-02 0.  1.
         -2   -1    0    0    0  501 -0.00000000000E+00 -0.00000000000E+00 -0.16685874787E+03  0.16685874788E+03  0.25500000000E-02 0. -1.
    5000001    1    1    2    0    0  0.13919938701E+03 -0.20724991662E+03  0.49510651227E+02  0.31881703510E+03  0.19200000000E+03 0.  0.
   -5000001    1    1    2    0    0 -0.13919938701E+03  0.20724991662E+03  0.73779355120E+03  0.80220466308E+03  0.19200000000E+03 0.  0.
<mgrwt>
<rscale>  0 0.79802365E+03</rscale>
<asrwt>0</asrwt>
<pdfrwt beam="1">  1        2 0.13630899E+00 0.79802365E+03</pdfrwt>
<pdfrwt beam="2">  1       -2 0.23836964E-01 0.79802365E+03</pdfrwt>
<totfact> 0.46988154E+02</totfact>
</mgrwt>
</event>
<event>
 4    1  0.5863356E-005  0.5150938E+03  0.7818608E-02  0.1009913E+00
          2   -1    0    0  501    0  0.00000000000E+00  0.00000000000E+00  0.12579488657E+04  0.12579488657E+04  0.25500000000E-02 0.  1.
         -2   -1    0    0    0  501 -0.00000000000E+00 -0.00000000000E+00 -0.52729014241E+02  0.52729014303E+02  0.25500000000E-02 0. -1.
    5000001    1    1    2    0    0  0.97539685107E+02  0.13065602882E+03  0.46602190557E+03  0.52974088431E+03  0.19200000000E+03 0.  0.
   -5000001    1    1    2    0    0 -0.97539685107E+02 -0.13065602882E+03  0.73919794589E+03  0.78093699569E+03  0.19200000000E+03 0.  0.
<mgrwt>
<rscale>  0 0.51509379E+03</rscale>
<asrwt>0</asrwt>
<pdfrwt beam="1">  1        2 0.17970694E+00 0.51509379E+03</pdfrwt>
<pdfrwt beam="2">  1       -2 0.75327179E-02 0.51509379E+03</pdfrwt>
<totfact> 0.21638282E+03</totfact>
</mgrwt>
</event>
<event>
 4    1  0.5863356E-005  0.5671708E+03  0.7818608E-02  0.9975959E-01
          2   -1    0    0  501    0  0.00000000000E+00  0.00000000000E+00  0.20260294731E+04  0.20260294731E+04  0.25500000000E-02 0.  1.
         -2   -1    0    0    0  501 -0.00000000000E+00 -0.00000000000E+00 -0.39693736461E+02  0.39693736543E+02  0.25500000000E-02 0. -1.
    5000001    1    1    2    0    0  0.16222006983E+03 -0.87089451125E+02  0.13510779264E+04  0.13770168796E+04  0.19200000000E+03 0.  0.
   -5000001    1    1    2    0    0 -0.16222006983E+03  0.87089451125E+02  0.63525781030E+03  0.68870633009E+03  0.19200000000E+03 0.  0.
<mgrwt>
<rscale>  0 0.56717080E+03</rscale>
<asrwt>0</asrwt>
<pdfrwt beam="1">  1        2 0.28943282E+00 0.56717080E+03</pdfrwt>
<pdfrwt beam="2">  1       -2 0.56705331E-02 0.56717080E+03</pdfrwt>
<totfact> 0.13585429E+03</totfact>
</mgrwt>
</event>
<event>
 4    1  0.5863356E-005  0.6802102E+03  0.7818608E-02  0.9751687E-01
          2   -1    0    0  501    0  0.00000000000E+00  0.00000000000E+00  0.51990015194E+03  0.51990015194E+03  0.25500000000E-02 0.  1.
         -2   -1    0    0    0  501 -0.00000000000E+00 -0.00000000000E+00 -0.22248784060E+03  0.22248784061E+03  0.25500000000E-02 0. -1.
    5000001    1    1    2    0    0  0.83363718467E+02 -0.23559361008E+03  0.28827695387E+03  0.42710825419E+03  0.19200000000E+03 0.  0.
   -5000001    1    1    2    0    0 -0.83363718467E+02  0.23559361008E+03  0.91353574738E+01  0.31527973836E+03  0.19200000000E+03 0.  0.
<mgrwt>
<rscale>  0 0.68021015E+03</rscale>
<asrwt>0</asrwt>
<pdfrwt beam="1">  1        2 0.74271451E-01 0.68021015E+03</pdfrwt>
<pdfrwt beam="2">  1       -2 0.31783977E-01 0.68021015E+03</pdfrwt>
<totfact> 0.59333441E+02</totfact>
</mgrwt>
</event>
<event>
 4    1  0.5863356E-005  0.9634012E+03  0.7818608E-02  0.9349622E-01
         -2   -1    0    0    0  501 -0.00000000000E+00  0.00000000000E+00  0.80262602617E+02  0.80262602657E+02  0.25500000000E-02 0. -1.
          2   -1    0    0  501    0  0.00000000000E+00 -0.00000000000E+00 -0.28909534058E+04  0.28909534058E+04  0.25500000000E-02 0.  1.
    5000001    1    1    2    0    0 -0.10684294830E+03 -0.42857549829E+03 -0.13779210727E+04  0.14596653233E+04  0.19200000000E+03 0.  0.
   -5000001    1    1    2    0    0  0.10684294830E+03  0.42857549829E+03 -0.14327697305E+04  0.15115506852E+04  0.19200000000E+03 0.  0.
<mgrwt>
<rscale>  0 0.96340115E+03</rscale>
<asrwt>0</asrwt>
<pdfrwt beam="1">  1        2 0.41299328E+00 0.96340115E+03</pdfrwt>
<pdfrwt beam="2">  1       -2 0.11466088E-01 0.96340115E+03</pdfrwt>
<totfact> 0.15214345E+02</totfact>
</mgrwt>
</event>
<event>
 4    1  0.5863356E-005  0.5295441E+03  0.7818608E-02  0.1006343E+00
         -2   -1    0    0    0  501 -0.00000000000E+00  0.00000000000E+00  0.43497864067E+02  0.43497864141E+02  0.25500000000E-02 0. -1.
          2   -1    0    0  501    0  0.00000000000E+00 -0.00000000000E+00 -0.16116709298E+04  0.16116709298E+04  0.25500000000E-02 0.  1.
    5000001    1    1    2    0    0  0.16146633471E+03  0.63103114692E+02 -0.96053659769E+03  0.99476024038E+03  0.19200000000E+03 0.  0.
   -5000001    1    1    2    0    0 -0.16146633471E+03 -0.63103114692E+02 -0.60763646804E+03  0.66040855356E+03  0.19200000000E+03 0.  0.
<mgrwt>
<rscale>  0 0.52954412E+03</rscale>
<asrwt>0</asrwt>
<pdfrwt beam="1">  1        2 0.23023867E+00 0.52954412E+03</pdfrwt>
<pdfrwt beam="2">  1       -2 0.62139816E-02 0.52954412E+03</pdfrwt>
<totfact> 0.19076124E+03</totfact>
</mgrwt>
</event>
<event>
 4    1  0.5863356E-005  0.6889429E+03  0.7818608E-02  0.9736330E-01
          2   -1    0    0  501    0  0.00000000000E+00  0.00000000000E+00  0.14526666658E+04  0.14526666658E+04  0.25500000000E-02 0.  1.
         -2   -1    0    0    0  501 -0.00000000000E+00 -0.00000000000E+00 -0.81684655923E+02  0.81684655962E+02  0.25500000000E-02 0. -1.
    5000001    1    1    2    0    0 -0.69314190221E+02 -0.21847908514E+03  0.10664440035E+04  0.11075668739E+04  0.19200000000E+03 0.  0.
   -5000001    1    1    2    0    0  0.69314190221E+02  0.21847908514E+03  0.30453800645E+03  0.42678444792E+03  0.19200000000E+03 0.  0.
<mgrwt>
<rscale>  0 0.68894289E+03</rscale>
<asrwt>0</asrwt>
<pdfrwt beam="1">  1        2 0.20752381E+00 0.68894289E+03</pdfrwt>
<pdfrwt beam="2">  1       -2 0.11669236E-01 0.68894289E+03</pdfrwt>
<totfact> 0.83517548E+02</totfact>
</mgrwt>
</event>
<event>
 4    1  0.5863356E-005  0.9964638E+03  0.7818608E-02  0.9312432E-01
          2   -1    0    0  501    0  0.00000000000E+00  0.00000000000E+00  0.18084526494E+04  0.18084526494E+04  0.25500000000E-02 0.  1.
         -2   -1    0    0    0  501 -0.00000000000E+00 -0.00000000000E+00 -0.13726377957E+03  0.13726377959E+03  0.25500000000E-02 0. -1.
    5000001    1    1    2    0    0 -0.45888598447E+03 -0.14415951190E+02  0.78829102418E+03  0.93222899825E+03  0.19200000000E+03 0.  0.
   -5000001    1    1    2    0    0  0.45888598447E+03  0.14415951190E+02  0.88289784561E+03  0.10134874307E+04  0.19200000000E+03 0.  0.
<mgrwt>
<rscale>  0 0.99646384E+03</rscale>
<asrwt>0</asrwt>
<pdfrwt beam="1">  1        2 0.25835035E+00 0.99646384E+03</pdfrwt>
<pdfrwt beam="2">  1       -2 0.19609114E-01 0.99646384E+03</pdfrwt>
<totfact> 0.22256960E+02</totfact>
</mgrwt>
</event>
<event>
 4    1  0.5863356E-005  0.6012467E+03  0.7818608E-02  0.9902823E-01
         -2   -1    0    0    0  501 -0.00000000000E+00  0.00000000000E+00  0.21545961091E+03  0.21545961093E+03  0.25500000000E-02 0. -1.
          2   -1    0    0  501    0  0.00000000000E+00 -0.00000000000E+00 -0.41944942154E+03  0.41944942155E+03  0.25500000000E-02 0.  1.
    5000001    1    1    2    0    0 -0.22994776435E+02 -0.22618429580E+03 -0.56916312408E+02  0.30297122310E+03  0.19200000000E+03 0.  0.
   -5000001    1    1    2    0    0  0.22994776435E+02  0.22618429580E+03 -0.14707349822E+03  0.33193780937E+03  0.19200000000E+03 0.  0.
<mgrwt>
<rscale>  0 0.60124674E+03</rscale>
<asrwt>0</asrwt>
<pdfrwt beam="1">  1        2 0.59921346E-01 0.60124674E+03</pdfrwt>
<pdfrwt beam="2">  1       -2 0.30779944E-01 0.60124674E+03</pdfrwt>
<totfact> 0.80409478E+02</totfact>
</mgrwt>
</event>
<event>
 4    1  0.5863356E-005  0.4711813E+03  0.7818608E-02  0.1021587E+00
         -2   -1    0    0    0  501 -0.00000000000E+00  0.00000000000E+00  0.13630079978E+03  0.13630079981E+03  0.25500000000E-02 0. -1.
          2   -1    0    0  501    0  0.00000000000E+00 -0.00000000000E+00 -0.40720936803E+03  0.40720936804E+03  0.25500000000E-02 0.  1.
    5000001    1    1    2    0    0  0.92727442208E+02 -0.77582210585E+02 -0.62303632303E+02  0.23529368996E+03  0.19200000000E+03 0.  0.
   -5000001    1    1    2    0    0 -0.92727442208E+02  0.77582210585E+02 -0.20860493595E+03  0.30821647788E+03  0.19200000000E+03 0.  0.
<mgrwt>
<rscale>  0 0.47118133E+03</rscale>
<asrwt>0</asrwt>
<pdfrwt beam="1">  1        2 0.58172766E-01 0.47118133E+03</pdfrwt>
<pdfrwt beam="2">  1       -2 0.19471543E-01 0.47118133E+03</pdfrwt>
<totfact> 0.18838937E+03</totfact>
</mgrwt>
</event>
<event>
 4    1  0.5863356E-005  0.7504860E+03  0.7818608E-02  0.9634588E-01
          2   -1    0    0  501    0  0.00000000000E+00  0.00000000000E+00  0.13300267402E+04  0.13300267402E+04  0.25500000000E-02 0.  1.
         -2   -1    0    0    0  501 -0.00000000000E+00 -0.00000000000E+00 -0.10586801938E+03  0.10586801942E+03  0.25500000000E-02 0. -1.
    5000001    1    1    2    0    0  0.11783808627E+03  0.20110842765E+03  0.10382438554E+04  0.10812699559E+04  0.19200000000E+03 0.  0.
   -5000001    1    1    2    0    0 -0.11783808627E+03 -0.20110842765E+03  0.18591486546E+03  0.35462480377E+03  0.19200000000E+03 0.  0.
<mgrwt>
<rscale>  0 0.75048597E+03</rscale>
<asrwt>0</asrwt>
<pdfrwt beam="1">  1        2 0.19000382E+00 0.75048597E+03</pdfrwt>
<pdfrwt beam="2">  1       -2 0.15124003E-01 0.75048597E+03</pdfrwt>
<totfact> 0.62857754E+02</totfact>
</mgrwt>
</event>
<event>
 4    1  0.5863356E-005  0.9440099E+03  0.7818608E-02  0.9372180E-01
          2   -1    0    0  501    0  0.00000000000E+00  0.00000000000E+00  0.11875024109E+04  0.11875024109E+04  0.25500000000E-02 0.  1.
         -2   -1    0    0    0  501 -0.00000000000E+00 -0.00000000000E+00 -0.18761115146E+03  0.18761115147E+03  0.25500000000E-02 0. -1.
    5000001    1    1    2    0    0  0.34374877616E+03 -0.26009931002E+03  0.51521101063E+03  0.69865675239E+03  0.19200000000E+03 0.  0.
   -5000001    1    1    2    0    0 -0.34374877616E+03  0.26009931002E+03  0.48468024881E+03  0.67645680999E+03  0.19200000000E+03 0.  0.
<mgrwt>
<rscale>  0 0.94400995E+03</rscale>
<asrwt>0</asrwt>
<pdfrwt beam="1">  1        2 0.16964320E+00 0.94400995E+03</pdfrwt>
<pdfrwt beam="2">  1       -2 0.26801593E-01 0.94400995E+03</pdfrwt>
<totfact> 0.27385413E+02</totfact>
</mgrwt>
</event>
<event>
 4    1  0.5863356E-005  0.5484170E+03  0.7818608E-02  0.1001861E+00
         -2   -1    0    0    0  501 -0.00000000000E+00  0.00000000000E+00  0.28775716056E+03  0.28775716058E+03  0.25500000000E-02 0. -1.
          2   -1    0    0  501    0  0.00000000000E+00 -0.00000000000E+00 -0.26129774745E+03  0.26129774746E+03  0.25500000000E-02 0.  1.
    5000001    1    1    2    0    0 -0.15804734004E+03  0.41455759442E+02 -0.94732440373E+02  0.26932466828E+03  0.19200000000E+03 0.  0.
   -5000001    1    1    2    0    0  0.15804734004E+03 -0.41455759442E+02  0.12119185349E+03  0.27973023976E+03  0.19200000000E+03 0.  0.
<mgrwt>
<rscale>  0 0.54841699E+03</rscale>
<asrwt>0</asrwt>
<pdfrwt beam="1">  1        2 0.37328250E-01 0.54841699E+03</pdfrwt>
<pdfrwt beam="2">  1       -2 0.41108166E-01 0.54841699E+03</pdfrwt>
<totfact> 0.78341908E+02</totfact>
</mgrwt>
</event>
<event>
 4    1  0.5863356E-005  0.1480022E+04  0.7818608E-02  0.8897848E-01
         -2   -1    0    0    0  501 -0.00000000000E+00  0.00000000000E+00  0.26778190446E+03  0.26778190447E+03  0.25500000000E-02 0. -1.
          2   -1    0    0  501    0  0.00000000000E+00 -0.00000000000E+00 -0.20450093308E+04  0.20450093308E+04  0.25500000000E-02 0.  1.
    5000001    1    1    2    0    0  0.50328166039E+03 -0.80627848306E+02 -0.16714478394E+04  0.17579519787E+04  0.19200000000E+03 0.  0.
   -5000001    1    1    2    0    0 -0.50328166039E+03  0.80627848306E+02 -0.10577958693E+03  0.55483925656E+03  0.19200000000E+03 0.  0.
<mgrwt>
<rscale>  0 0.14800223E+04</rscale>
<asrwt>0</asrwt>
<pdfrwt beam="1">  1        2 0.29214418E+00 0.14800223E+04</pdfrwt>
<pdfrwt beam="2">  1       -2 0.38254559E-01 0.14800223E+04</pdfrwt>
<totfact> 0.47553231E+01</totfact>
</mgrwt>
</event>
<event>
 4    1  0.5863356E-005  0.4327951E+03  0.7818608E-02  0.1032981E+00
          2   -1    0    0  501    0  0.00000000000E+00  0.00000000000E+00  0.28671362678E+04  0.28671362678E+04  0.25500000000E-02 0.  1.
         -2   -1    0    0    0  501 -0.00000000000E+00 -0.00000000000E+00 -0.16332635283E+02  0.16332635482E+02  0.25500000000E-02 0. -1.
    5000001    1    1    2    0    0 -0.65060971073E+02  0.74433840217E+02  0.15173735214E+04  0.15326642587E+04  0.19200000000E+03 0.  0.
   -5000001    1    1    2    0    0  0.65060971073E+02 -0.74433840217E+02  0.13334301111E+04  0.13508046445E+04  0.19200000000E+03 0.  0.
<mgrwt>
<rscale>  0 0.43279506E+03</rscale>
<asrwt>0</asrwt>
<pdfrwt beam="1">  1        2 0.40959172E+00 0.43279506E+03</pdfrwt>
<pdfrwt beam="2">  1       -2 0.23332289E-02 0.43279506E+03</pdfrwt>
<totfact> 0.19768890E+03</totfact>
</mgrwt>
</event>
<event>
 4    1  0.5863356E-005  0.5679101E+03  0.7818608E-02  0.9974314E-01
          2   -1    0    0  501    0  0.00000000000E+00  0.00000000000E+00  0.43555729892E+02  0.43555729967E+02  0.25500000000E-02 0.  1.
         -2   -1    0    0    0  501 -0.00000000000E+00 -0.00000000000E+00 -0.18512022450E+04  0.18512022450E+04  0.25500000000E-02 0. -1.
    5000001    1    1    2    0    0  0.20475773083E+03 -0.35580919833E+02 -0.82383837171E+03  0.87107140516E+03  0.19200000000E+03 0.  0.
   -5000001    1    1    2    0    0 -0.20475773083E+03  0.35580919833E+02 -0.98380814343E+03  0.10236865698E+04  0.19200000000E+03 0.  0.
<mgrwt>
<rscale>  0 0.56791008E+03</rscale>
<asrwt>0</asrwt>
<pdfrwt beam="1">  1        2 0.62222483E-02 0.56791008E+03</pdfrwt>
<pdfrwt beam="2">  1       -2 0.26445741E+00 0.56791008E+03</pdfrwt>
<totfact> 0.67639395E+01</totfact>
</mgrwt>
</event>
<event>
 4    1  0.5863356E-005  0.1649577E+04  0.7818608E-02  0.8790657E-01
          2   -1    0    0  501    0  0.00000000000E+00  0.00000000000E+00  0.25228262217E+04  0.25228262217E+04  0.25500000000E-02 0.  1.
         -2   -1    0    0    0  501 -0.00000000000E+00 -0.00000000000E+00 -0.26964833947E+03  0.26964833949E+03  0.25500000000E-02 0. -1.
    5000001    1    1    2    0    0 -0.63381438669E+03 -0.40308578503E+03  0.65014136504E+03  0.10118036477E+04  0.19200000000E+03 0.  0.
   -5000001    1    1    2    0    0  0.63381438669E+03  0.40308578503E+03  0.16030365172E+04  0.17806709135E+04  0.19200000000E+03 0.  0.
<mgrwt>
<rscale>  0 0.16495768E+04</rscale>
<asrwt>0</asrwt>
<pdfrwt beam="1">  1        2 0.36040376E+00 0.16495768E+04</pdfrwt>
<pdfrwt beam="2">  1       -2 0.38521190E-01 0.16495768E+04</pdfrwt>
<totfact> 0.26153238E+01</totfact>
</mgrwt>
</event>
<event>
 4    1  0.5863356E-005  0.8696451E+03  0.7818608E-02  0.9464343E-01
          2   -1    0    0  501    0  0.00000000000E+00  0.00000000000E+00  0.10072258073E+04  0.10072258073E+04  0.25500000000E-02 0.  1.
         -2   -1    0    0    0  501 -0.00000000000E+00 -0.00000000000E+00 -0.18771426315E+03  0.18771426317E+03  0.25500000000E-02 0. -1.
    5000001    1    1    2    0    0 -0.26312412549E+03 -0.56303087956E+02  0.79791667890E+03  0.86367781585E+03  0.19200000000E+03 0.  0.
   -5000001    1    1    2    0    0  0.26312412549E+03  0.56303087956E+02  0.21594865250E+02  0.33126225462E+03  0.19200000000E+03 0.  0.
<mgrwt>
<rscale>  0 0.86964510E+03</rscale>
<asrwt>0</asrwt>
<pdfrwt beam="1">  1        2 0.14388940E+00 0.86964510E+03</pdfrwt>
<pdfrwt beam="2">  1       -2 0.26816324E-01 0.86964510E+03</pdfrwt>
<totfact> 0.35088721E+02</totfact>
</mgrwt>
</event>
<event>
 4    1  0.5863356E-005  0.5641185E+03  0.7818608E-02  0.9982779E-01
         -2   -1    0    0    0  501 -0.00000000000E+00  0.00000000000E+00  0.50000156460E+02  0.50000156525E+02  0.25500000000E-02 0. -1.
          2   -1    0    0  501    0  0.00000000000E+00 -0.00000000000E+00 -0.15911436975E+04  0.15911436975E+04  0.25500000000E-02 0.  1.
    5000001    1    1    2    0    0  0.36390048379E+02 -0.20282889705E+03 -0.72648614625E+03  0.77917258537E+03  0.19200000000E+03 0.  0.
   -5000001    1    1    2    0    0 -0.36390048379E+02  0.20282889705E+03 -0.81465739479E+03  0.86197126865E+03  0.19200000000E+03 0.  0.
<mgrwt>
<rscale>  0 0.56411855E+03</rscale>
<asrwt>0</asrwt>
<pdfrwt beam="1">  1        2 0.22730621E+00 0.56411855E+03</pdfrwt>
<pdfrwt beam="2">  1       -2 0.71428805E-02 0.56411855E+03</pdfrwt>
<totfact> 0.15681195E+03</totfact>
</mgrwt>
</event>
<event>
 4    1  0.5863356E-005  0.4302817E+03  0.7818608E-02  0.1033771E+00
          2   -1    0    0  501    0  0.00000000000E+00  0.00000000000E+00  0.16994870164E+04  0.16994870164E+04  0.25500000000E-02 0.  1.
         -2   -1    0    0    0  501 -0.00000000000E+00 -0.00000000000E+00 -0.27235034511E+02  0.27235034631E+02  0.25500000000E-02 0. -1.
    5000001    1    1    2    0    0 -0.32064884430E+02 -0.85396754200E+02  0.96927217721E+03  0.99230706737E+03  0.19200000000E+03 0.  0.
   -5000001    1    1    2    0    0  0.32064884430E+02  0.85396754200E+02  0.70297980470E+03  0.73441498368E+03  0.19200000000E+03 0.  0.
<mgrwt>
<rscale>  0 0.43028171E+03</rscale>
<asrwt>0</asrwt>
<pdfrwt beam="1">  1        2 0.24278394E+00 0.43028171E+03</pdfrwt>
<pdfrwt beam="2">  1       -2 0.38907180E-02 0.43028171E+03</pdfrwt>
<totfact> 0.35526852E+03</totfact>
</mgrwt>
</event>
<event>
 4    1  0.5863356E-005  0.9126307E+03  0.7818608E-02  0.9409929E-01
          2   -1    0    0  501    0  0.00000000000E+00  0.00000000000E+00  0.51638969592E+04  0.51638969592E+04  0.25500000000E-02 0.  1.
         -2   -1    0    0    0  501 -0.00000000000E+00 -0.00000000000E+00 -0.40322977632E+02  0.40322977713E+02  0.25500000000E-02 0. -1.
    5000001    1    1    2    0    0 -0.39789834254E+03  0.10463834982E+03  0.28223220458E+04  0.28586077040E+04  0.19200000000E+03 0.  0.
   -5000001    1    1    2    0    0  0.39789834254E+03 -0.10463834982E+03  0.23012519358E+04  0.23456122329E+04  0.19200000000E+03 0.  0.
<mgrwt>
<rscale>  0 0.91263071E+03</rscale>
<asrwt>0</asrwt>
<pdfrwt beam="1">  1        2 0.73769906E+00 0.91263071E+03</pdfrwt>
<pdfrwt beam="2">  1       -2 0.57604293E-02 0.91263071E+03</pdfrwt>
<totfact> 0.11164690E+01</totfact>
</mgrwt>
</event>
<event>
 4    1  0.5863356E-005  0.4921886E+03  0.7818608E-02  0.1015838E+00
         -2   -1    0    0    0  501 -0.00000000000E+00  0.00000000000E+00  0.62047385514E+02  0.62047385567E+02  0.25500000000E-02 0. -1.
          2   -1    0    0  501    0  0.00000000000E+00 -0.00000000000E+00 -0.97606708172E+03  0.97606708172E+03  0.25500000000E-02 0.  1.
    5000001    1    1    2    0    0  0.87233381123E+02 -0.54549235585E+02 -0.21548221113E+03  0.30640147715E+03  0.19200000000E+03 0.  0.
   -5000001    1    1    2    0    0 -0.87233381123E+02  0.54549235585E+02 -0.69853748508E+03  0.73171299015E+03  0.19200000000E+03 0.  0.
<mgrwt>
<rscale>  0 0.49218862E+03</rscale>
<asrwt>0</asrwt>
<pdfrwt beam="1">  1        2 0.13943814E+00 0.49218862E+03</pdfrwt>
<pdfrwt beam="2">  1       -2 0.88639128E-02 0.49218862E+03</pdfrwt>
<totfact> 0.24281571E+03</totfact>
</mgrwt>
</event>
<event>
 4    1  0.5863356E-005  0.1145440E+04  0.7818608E-02  0.9162001E-01
         -2   -1    0    0    0  501 -0.00000000000E+00  0.00000000000E+00  0.21661027272E+03  0.21661027273E+03  0.25500000000E-02 0. -1.
          2   -1    0    0  501    0  0.00000000000E+00 -0.00000000000E+00 -0.15142769359E+04  0.15142769359E+04  0.25500000000E-02 0.  1.
    5000001    1    1    2    0    0 -0.34895011976E+02 -0.44699195774E+03 -0.19518642758E+03  0.52533914156E+03  0.19200000000E+03 0.  0.
   -5000001    1    1    2    0    0  0.34895011976E+02  0.44699195774E+03 -0.11024802356E+04  0.12055480671E+04  0.19200000000E+03 0.  0.
<mgrwt>
<rscale>  0 0.11454395E+04</rscale>
<asrwt>0</asrwt>
<pdfrwt beam="1">  1        2 0.21632527E+00 0.11454395E+04</pdfrwt>
<pdfrwt beam="2">  1       -2 0.30944325E-01 0.11454395E+04</pdfrwt>
<totfact> 0.13743876E+02</totfact>
</mgrwt>
</event>
<event>
 4    1  0.5863356E-005  0.7715951E+03  0.7818608E-02  0.9602067E-01
          2   -1    0    0  501    0  0.00000000000E+00  0.00000000000E+00  0.21609994457E+04  0.21609994457E+04  0.25500000000E-02 0.  1.
         -2   -1    0    0    0  501 -0.00000000000E+00 -0.00000000000E+00 -0.68875415287E+02  0.68875415334E+02  0.25500000000E-02 0. -1.
    5000001    1    1    2    0    0 -0.28938271607E+03 -0.10424721168E+03  0.66522455452E+03  0.75762625709E+03  0.19200000000E+03 0.  0.
   -5000001    1    1    2    0    0  0.28938271607E+03  0.10424721168E+03  0.14268994759E+04  0.14722486039E+04  0.19200000000E+03 0.  0.
<mgrwt>
<rscale>  0 0.77159506E+03</rscale>
<asrwt>0</asrwt>
<pdfrwt beam="1">  1        2 0.30871423E+00 0.77159506E+03</pdfrwt>
<pdfrwt beam="2">  1       -2 0.98393444E-02 0.77159506E+03</pdfrwt>
<totfact> 0.47726300E+02</totfact>
</mgrwt>
</event>
<event>
 4    1  0.5863356E-005  0.5101254E+03  0.7818608E-02  0.1011169E+00
         -2   -1    0    0    0  501 -0.00000000000E+00  0.00000000000E+00  0.19034394065E+03  0.19034394067E+03  0.25500000000E-02 0. -1.
          2   -1    0    0  501    0  0.00000000000E+00 -0.00000000000E+00 -0.34178646899E+03  0.34178646900E+03  0.25500000000E-02 0.  1.
    5000001    1    1    2    0    0  0.15792997753E+03  0.34651446257E+01 -0.13508936948E+03  0.28296116832E+03  0.19200000000E+03 0.  0.
   -5000001    1    1    2    0    0 -0.15792997753E+03 -0.34651446257E+01 -0.16353158863E+02  0.24916924135E+03  0.19200000000E+03 0.  0.
<mgrwt>
<rscale>  0 0.51012541E+03</rscale>
<asrwt>0</asrwt>
<pdfrwt beam="1">  1        2 0.48826638E-01 0.51012541E+03</pdfrwt>
<pdfrwt beam="2">  1       -2 0.27191992E-01 0.51012541E+03</pdfrwt>
<totfact> 0.12665178E+03</totfact>
</mgrwt>
</event>
<event>
 4    1  0.5863356E-005  0.4757528E+03  0.7818608E-02  0.1020309E+00
         -2   -1    0    0    0  501 -0.00000000000E+00  0.00000000000E+00  0.46045600443E+03  0.46045600443E+03  0.25500000000E-02 0.  1.
          2   -1    0    0  501    0  0.00000000000E+00 -0.00000000000E+00 -0.12288945529E+03  0.12288945531E+03  0.25500000000E-02 0. -1.
    5000001    1    1    2    0    0 -0.36164908204E+02 -0.13549293882E+03  0.15969397619E+03  0.28641299392E+03  0.19200000000E+03 0.  0.
   -5000001    1    1    2    0    0  0.36164908204E+02  0.13549293882E+03  0.17787257294E+03  0.29693246582E+03  0.19200000000E+03 0.  0.
<mgrwt>
<rscale>  0 0.47575282E+03</rscale>
<asrwt>0</asrwt>
<pdfrwt beam="1">  1        2 0.17555636E-01 0.47575282E+03</pdfrwt>
<pdfrwt beam="2">  1       -2 0.65779429E-01 0.47575282E+03</pdfrwt>
<totfact> 0.70965743E+02</totfact>
</mgrwt>
</event>
<event>
 4    1  0.5863356E-005  0.4294924E+03  0.7818608E-02  0.1034020E+00
         -2   -1    0    0    0  501 -0.00000000000E+00  0.00000000000E+00  0.49251937239E+02  0.49251937305E+02  0.25500000000E-02 0.  1.
          2   -1    0    0  501    0  0.00000000000E+00 -0.00000000000E+00 -0.93632729219E+03  0.93632729219E+03  0.25500000000E-02 0. -1.
    5000001    1    1    2    0    0  0.26303605350E+02 -0.90597107730E+02 -0.40047098688E+03  0.45402723147E+03  0.19200000000E+03 0.  0.
   -5000001    1    1    2    0    0 -0.26303605350E+02  0.90597107730E+02 -0.48660436807E+03  0.53155199803E+03  0.19200000000E+03 0.  0.
<mgrwt>
<rscale>  0 0.42949241E+03</rscale>
<asrwt>0</asrwt>
<pdfrwt beam="1">  1        2 0.13376103E+00 0.42949241E+03</pdfrwt>
<pdfrwt beam="2">  1       -2 0.70359916E-02 0.42949241E+03</pdfrwt>
<totfact> 0.37006153E+03</totfact>
</mgrwt>
</event>
<event>
 4    1  0.5863356E-005  0.1702607E+04  0.7818608E-02  0.8759879E-01
          2   -1    0    0  501    0  0.00000000000E+00  0.00000000000E+00  0.16016030787E+04  0.16016030787E+04  0.25500000000E-02 0.  1.
         -2   -1    0    0    0  501 -0.00000000000E+00 -0.00000000000E+00 -0.45249493018E+03  0.45249493019E+03  0.25500000000E-02 0. -1.
    5000001    1    1    2    0    0  0.42498651557E+03 -0.50708338359E+03 -0.28795580450E+02  0.68952177760E+03  0.19200000000E+03 0.  0.
   -5000001    1    1    2    0    0 -0.42498651557E+03  0.50708338359E+03  0.11779037290E+04  0.13645762313E+04  0.19200000000E+03 0.  0.
<mgrwt>
<rscale>  0 0.17026066E+04</rscale>
<asrwt>0</asrwt>
<pdfrwt beam="1">  1        2 0.22880045E+00 0.17026066E+04</pdfrwt>
<pdfrwt beam="2">  1       -2 0.64642130E-01 0.17026066E+04</pdfrwt>
<totfact> 0.27211298E+01</totfact>
</mgrwt>
</event>
<event>
 4    1  0.5863356E-005  0.6171144E+03  0.7818608E-02  0.9870522E-01
          2   -1    0    0  501    0  0.00000000000E+00  0.00000000000E+00  0.12485291687E+04  0.12485291687E+04  0.25500000000E-02 0.  1.
         -2   -1    0    0    0  501 -0.00000000000E+00 -0.00000000000E+00 -0.76255765796E+02  0.76255765839E+02  0.25500000000E-02 0. -1.
    5000001    1    1    2    0    0 -0.20438028461E+03 -0.58575313696E+02  0.34004505400E+03  0.44463131566E+03  0.19200000000E+03 0.  0.
   -5000001    1    1    2    0    0  0.20438028461E+03  0.58575313696E+02  0.83222834886E+03  0.88015361884E+03  0.19200000000E+03 0.  0.
<mgrwt>
<rscale>  0 0.61711441E+03</rscale>
<asrwt>0</asrwt>
<pdfrwt beam="1">  1        2 0.17836131E+00 0.61711441E+03</pdfrwt>
<pdfrwt beam="2">  1       -2 0.10893681E-01 0.61711441E+03</pdfrwt>
<totfact> 0.12077392E+03</totfact>
</mgrwt>
</event>
<event>
 4    1  0.5863356E-005  0.6232241E+03  0.7818608E-02  0.9858361E-01
          2   -1    0    0  501    0  0.00000000000E+00  0.00000000000E+00  0.36970740098E+03  0.36970740099E+03  0.25500000000E-02 0. -1.
         -2   -1    0    0    0  501 -0.00000000000E+00 -0.00000000000E+00 -0.26264570591E+03  0.26264570593E+03  0.25500000000E-02 0.  1.
    5000001    1    1    2    0    0 -0.16720165539E+03  0.13619871656E+03  0.17242914896E+03  0.33630684704E+03  0.19200000000E+03 0.  0.
   -5000001    1    1    2    0    0  0.16720165539E+03 -0.13619871656E+03 -0.65367453885E+02  0.29604625987E+03  0.19200000000E+03 0.  0.
<mgrwt>
<rscale>  0 0.62322407E+03</rscale>
<asrwt>0</asrwt>
<pdfrwt beam="1">  1        2 0.52815343E-01 0.62322407E+03</pdfrwt>
<pdfrwt beam="2">  1       -2 0.37520815E-01 0.62322407E+03</pdfrwt>
<totfact> 0.63655604E+02</totfact>
</mgrwt>
</event>
<event>
 4    1  0.5863356E-005  0.5408852E+03  0.7818608E-02  0.1003626E+00
         -2   -1    0    0    0  501 -0.00000000000E+00  0.00000000000E+00  0.21980283752E+03  0.21980283754E+03  0.25500000000E-02 0. -1.
          2   -1    0    0  501    0  0.00000000000E+00 -0.00000000000E+00 -0.33274913694E+03  0.33274913695E+03  0.25500000000E-02 0.  1.
    5000001    1    1    2    0    0  0.15112371734E+03 -0.22687845343E+02 -0.17260046188E+03  0.30001339255E+03  0.19200000000E+03 0.  0.
   -5000001    1    1    2    0    0 -0.15112371734E+03  0.22687845343E+02  0.59654162459E+02  0.25253858194E+03  0.19200000000E+03 0.  0.
<mgrwt>
<rscale>  0 0.54088522E+03</rscale>
<asrwt>0</asrwt>
<pdfrwt beam="1">  1        2 0.47535591E-01 0.54088522E+03</pdfrwt>
<pdfrwt beam="2">  1       -2 0.31400405E-01 0.54088522E+03</pdfrwt>
<totfact> 0.10017151E+03</totfact>
</mgrwt>
</event>
<event>
 4    1  0.5863356E-005  0.4668997E+03  0.7818608E-02  0.1022799E+00
          2   -1    0    0  501    0  0.00000000000E+00  0.00000000000E+00  0.20685130462E+03  0.20685130463E+03  0.25500000000E-02 0.  1.
         -2   -1    0    0    0  501 -0.00000000000E+00 -0.00000000000E+00 -0.26346862915E+03  0.26346862917E+03  0.25500000000E-02 0. -1.
    5000001    1    1    2    0    0  0.63580830871E+02  0.76988043419E+02  0.59883521603E+02  0.22454335226E+03  0.19200000000E+03 0.  0.
   -5000001    1    1    2    0    0 -0.63580830871E+02 -0.76988043419E+02 -0.11650084614E+03  0.24577658154E+03  0.19200000000E+03 0.  0.
<mgrwt>
<rscale>  0 0.46689969E+03</rscale>
<asrwt>0</asrwt>
<pdfrwt beam="1">  1        2 0.29550186E-01 0.46689969E+03</pdfrwt>
<pdfrwt beam="2">  1       -2 0.37638376E-01 0.46689969E+03</pdfrwt>
<totfact> 0.12039103E+03</totfact>
</mgrwt>
</event>
<event>
 4    1  0.5863356E-005  0.5974016E+03  0.7818608E-02  0.9910812E-01
         -2   -1    0    0    0  501 -0.00000000000E+00  0.00000000000E+00  0.13983053662E+03  0.13983053664E+03  0.25500000000E-02 0. -1.
          2   -1    0    0  501    0  0.00000000000E+00 -0.00000000000E+00 -0.63807363565E+03  0.63807363566E+03  0.25500000000E-02 0.  1.
    5000001    1    1    2    0    0  0.75739808841E+02  0.13267940712E+03 -0.47093720632E+03  0.53102372453E+03  0.19200000000E+03 0.  0.
   -5000001    1    1    2    0    0 -0.75739808841E+02 -0.13267940712E+03 -0.27305892713E+02  0.24688044777E+03  0.19200000000E+03 0.  0.
<mgrwt>
<rscale>  0 0.59740164E+03</rscale>
<asrwt>0</asrwt>
<pdfrwt beam="1">  1        2 0.91153375E-01 0.59740164E+03</pdfrwt>
<pdfrwt beam="2">  1       -2 0.19975791E-01 0.59740164E+03</pdfrwt>
<totfact> 0.10797402E+03</totfact>
</mgrwt>
</event>
<event>
 4    1  0.5863356E-005  0.5776284E+03  0.7818608E-02  0.9952939E-01
         -2   -1    0    0    0  501 -0.00000000000E+00  0.00000000000E+00  0.39210341047E+02  0.39210341130E+02  0.25500000000E-02 0. -1.
          2   -1    0    0  501    0  0.00000000000E+00 -0.00000000000E+00 -0.21273381804E+04  0.21273381804E+04  0.25500000000E-02 0.  1.
    5000001    1    1    2    0    0 -0.32774840774E+02  0.20545892364E+03 -0.12582879705E+04  0.12897442290E+04  0.19200000000E+03 0.  0.
   -5000001    1    1    2    0    0  0.32774840774E+02 -0.20545892364E+03 -0.82983986878E+03  0.87680429248E+03  0.19200000000E+03 0.  0.
<mgrwt>
<rscale>  0 0.57762845E+03</rscale>
<asrwt>0</asrwt>
<pdfrwt beam="1">  1        2 0.30390538E+00 0.57762845E+03</pdfrwt>
<pdfrwt beam="2">  1       -2 0.56014786E-02 0.57762845E+03</pdfrwt>
<totfact> 0.12311500E+03</totfact>
</mgrwt>
</event>
<event>
 4    1  0.5863356E-005  0.7420922E+03  0.7818608E-02  0.9647839E-01
         -2   -1    0    0    0  501 -0.00000000000E+00  0.00000000000E+00  0.81903850320E+02  0.81903850359E+02  0.25500000000E-02 0. -1.
          2   -1    0    0  501    0  0.00000000000E+00 -0.00000000000E+00 -0.16809370013E+04  0.16809370013E+04  0.25500000000E-02 0.  1.
    5000001    1    1    2    0    0  0.27122198724E+03 -0.16005530148E+03 -0.70354672301E+03  0.79436833858E+03  0.19200000000E+03 0.  0.
   -5000001    1    1    2    0    0 -0.27122198724E+03  0.16005530148E+03 -0.89548642793E+03  0.96847251303E+03  0.19200000000E+03 0.  0.
<mgrwt>
<rscale>  0 0.74209221E+03</rscale>
<asrwt>0</asrwt>
<pdfrwt beam="1">  1        2 0.24013384E+00 0.74209221E+03</pdfrwt>
<pdfrwt beam="2">  1       -2 0.11700551E-01 0.74209221E+03</pdfrwt>
<totfact> 0.63110120E+02</totfact>
</mgrwt>
</event>
<event>
 4    1  0.5863356E-005  0.4073104E+03  0.7818608E-02  0.1041277E+00
          2   -1    0    0  501    0  0.00000000000E+00  0.00000000000E+00  0.15126784379E+04  0.15126784379E+04  0.25500000000E-02 0.  1.
         -2   -1    0    0    0  501 -0.00000000000E+00 -0.00000000000E+00 -0.27418544619E+02  0.27418544738E+02  0.25500000000E-02 0. -1.
    5000001    1    1    2    0    0  0.31998075346E+02 -0.58983309847E+02  0.78202165476E+03  0.80803760814E+03  0.19200000000E+03 0.  0.
   -5000001    1    1    2    0    0 -0.31998075346E+02  0.58983309847E+02  0.70323823855E+03  0.73205937453E+03  0.19200000000E+03 0.  0.
<mgrwt>
<rscale>  0 0.40731040E+03</rscale>
<asrwt>0</asrwt>
<pdfrwt beam="1">  1        2 0.21609698E+00 0.40731040E+03</pdfrwt>
<pdfrwt beam="2">  1       -2 0.39169339E-02 0.40731040E+03</pdfrwt>
<totfact> 0.43735161E+03</totfact>
</mgrwt>
</event>
<event>
 4    1  0.5863356E-005  0.5361558E+03  0.7818608E-02  0.1004750E+00
         -2   -1    0    0    0  501 -0.00000000000E+00  0.00000000000E+00  0.58729156942E+02  0.58729156997E+02  0.25500000000E-02 0. -1.
          2   -1    0    0  501    0  0.00000000000E+00 -0.00000000000E+00 -0.12236813089E+04  0.12236813089E+04  0.25500000000E-02 0.  1.
    5000001    1    1    2    0    0 -0.16042109563E+02  0.15514968934E+03 -0.82957974314E+03  0.86567622447E+03  0.19200000000E+03 0.  0.
   -5000001    1    1    2    0    0  0.16042109563E+02 -0.15514968934E+03 -0.33537240881E+03  0.41673424142E+03  0.19200000000E+03 0.  0.
<mgrwt>
<rscale>  0 0.53615584E+03</rscale>
<asrwt>0</asrwt>
<pdfrwt beam="1">  1        2 0.17481160E+00 0.53615584E+03</pdfrwt>
<pdfrwt beam="2">  1       -2 0.83898803E-02 0.53615584E+03</pdfrwt>
<totfact> 0.19036759E+03</totfact>
</mgrwt>
</event>
<event>
 4    1  0.5863356E-005  0.1733787E+04  0.7818608E-02  0.8742326E-01
         -2   -1    0    0    0  501 -0.00000000000E+00  0.00000000000E+00  0.11563553587E+04  0.11563553587E+04  0.25500000000E-02 0. -1.
          2   -1    0    0  501    0  0.00000000000E+00 -0.00000000000E+00 -0.64989027304E+03  0.64989027304E+03  0.25500000000E-02 0.  1.
    5000001    1    1    2    0    0 -0.12581435827E+03  0.42917771624E+03 -0.49411625923E+03  0.69356877272E+03  0.19200000000E+03 0.  0.
   -5000001    1    1    2    0    0  0.12581435827E+03 -0.42917771624E+03  0.10005813449E+04  0.11126768590E+04  0.19200000000E+03 0.  0.
<mgrwt>
<rscale>  0 0.17337867E+04</rscale>
<asrwt>0</asrwt>
<pdfrwt beam="1">  1        2 0.92841469E-01 0.17337867E+04</pdfrwt>
<pdfrwt beam="2">  1       -2 0.16519362E+00 0.17337867E+04</pdfrwt>
<totfact> 0.10819371E+01</totfact>
</mgrwt>
</event>
<event>
 4    1  0.5863356E-005  0.4039876E+03  0.7818608E-02  0.1042408E+00
          2   -1    0    0  501    0  0.00000000000E+00  0.00000000000E+00  0.86443148933E+03  0.86443148934E+03  0.25500000000E-02 0.  1.
         -2   -1    0    0    0  501 -0.00000000000E+00 -0.00000000000E+00 -0.47200371602E+02  0.47200371671E+02  0.25500000000E-02 0. -1.
    5000001    1    1    2    0    0  0.22917099217E+02  0.56743425969E+02  0.37730853809E+03  0.42775079514E+03  0.19200000000E+03 0.  0.
   -5000001    1    1    2    0    0 -0.22917099217E+02 -0.56743425969E+02  0.43992257965E+03  0.48388106587E+03  0.19200000000E+03 0.  0.
<mgrwt>
<rscale>  0 0.40398756E+03</rscale>
<asrwt>0</asrwt>
<pdfrwt beam="1">  1        2 0.12349021E+00 0.40398756E+03</pdfrwt>
<pdfrwt beam="2">  1       -2 0.67429104E-02 0.40398756E+03</pdfrwt>
<totfact> 0.43919048E+03</totfact>
</mgrwt>
</event>
<event>
 4    1  0.5863356E-005  0.8016077E+03  0.7818608E-02  0.9557693E-01
          2   -1    0    0  501    0  0.00000000000E+00  0.00000000000E+00  0.60915548709E+03  0.60915548709E+03  0.25500000000E-02 0.  1.
         -2   -1    0    0    0  501 -0.00000000000E+00 -0.00000000000E+00 -0.26371549371E+03  0.26371549372E+03  0.25500000000E-02 0. -1.
    5000001    1    1    2    0    0  0.26454386148E+03  0.22885515817E+03  0.13166394670E+03  0.42018749735E+03  0.19200000000E+03 0.  0.
   -5000001    1    1    2    0    0 -0.26454386148E+03 -0.22885515817E+03  0.21377604668E+03  0.45268348346E+03  0.19200000000E+03 0.  0.
<mgrwt>
<rscale>  0 0.80160773E+03</rscale>
<asrwt>0</asrwt>
<pdfrwt beam="1">  1        2 0.87022213E-01 0.80160773E+03</pdfrwt>
<pdfrwt beam="2">  1       -2 0.37673642E-01 0.80160773E+03</pdfrwt>
<totfact> 0.35575466E+02</totfact>
</mgrwt>
</event>
<event>
 4    1  0.5863356E-005  0.5024576E+03  0.7818608E-02  0.1013139E+00
          2   -1    0    0  501    0  0.00000000000E+00  0.00000000000E+00  0.19543619386E+03  0.19543619388E+03  0.25500000000E-02 0.  1.
         -2   -1    0    0    0  501 -0.00000000000E+00 -0.00000000000E+00 -0.32294896088E+03  0.32294896089E+03  0.25500000000E-02 0. -1.
    5000001    1    1    2    0    0 -0.15501147295E+03  0.46711181071E+02 -0.57116170540E+02  0.25755921284E+03  0.19200000000E+03 0.  0.
   -5000001    1    1    2    0    0  0.15501147295E+03 -0.46711181071E+02 -0.70396596480E+02  0.26082594192E+03  0.19200000000E+03 0.  0.
<mgrwt>
<rscale>  0 0.50245762E+03</rscale>
<asrwt>0</asrwt>
<pdfrwt beam="1">  1        2 0.27919456E-01 0.50245762E+03</pdfrwt>
<pdfrwt beam="2">  1       -2 0.46135565E-01 0.50245762E+03</pdfrwt>
<totfact> 0.86314916E+02</totfact>
</mgrwt>
</event>
<event>
 4    1  0.5863356E-005  0.4396930E+03  0.7818608E-02  0.1030841E+00
          2   -1    0    0  501    0  0.00000000000E+00  0.00000000000E+00  0.12511136573E+03  0.12511136575E+03  0.25500000000E-02 0.  1.
         -2   -1    0    0    0  501 -0.00000000000E+00 -0.00000000000E+00 -0.38631567049E+03  0.38631567050E+03  0.25500000000E-02 0. -1.
    5000001    1    1    2    0    0 -0.80166852590E+02  0.64300699963E+02 -0.16563537816E+03  0.27360625499E+03  0.19200000000E+03 0.  0.
   -5000001    1    1    2    0    0  0.80166852590E+02 -0.64300699963E+02 -0.95568926603E+02  0.23782078127E+03  0.19200000000E+03 0.  0.
<mgrwt>
<rscale>  0 0.43969299E+03</rscale>
<asrwt>0</asrwt>
<pdfrwt beam="1">  1        2 0.17873052E-01 0.43969299E+03</pdfrwt>
<pdfrwt beam="2">  1       -2 0.55187952E-01 0.43969299E+03</pdfrwt>
<totfact> 0.10033504E+03</totfact>
</mgrwt>
</event>
<event>
 4    1  0.5863356E-005  0.9781552E+03  0.7818608E-02  0.9332834E-01
          2   -1    0    0  501    0  0.00000000000E+00  0.00000000000E+00  0.27024394905E+04  0.27024394905E+04  0.25500000000E-02 0.  1.
         -2   -1    0    0    0  501 -0.00000000000E+00 -0.00000000000E+00 -0.88511476974E+02  0.88511477011E+02  0.25500000000E-02 0. -1.
    5000001    1    1    2    0    0  0.13675310369E+03  0.38957655182E+03  0.18162694108E+04  0.18724769354E+04  0.19200000000E+03 0.  0.
   -5000001    1    1    2    0    0 -0.13675310369E+03 -0.38957655182E+03  0.79765860268E+03  0.91847403204E+03  0.19200000000E+03 0.  0.
<mgrwt>
<rscale>  0 0.97815522E+03</rscale>
<asrwt>0</asrwt>
<pdfrwt beam="1">  1        2 0.38606278E+00 0.97815522E+03</pdfrwt>
<pdfrwt beam="2">  1       -2 0.12644497E-01 0.97815522E+03</pdfrwt>
<totfact> 0.16305929E+02</totfact>
</mgrwt>
</event>
<event>
 4    1  0.5863356E-005  0.9160216E+03  0.7818608E-02  0.9405772E-01
         -2   -1    0    0    0  501 -0.00000000000E+00  0.00000000000E+00  0.42627279798E+03  0.42627279799E+03  0.25500000000E-02 0. -1.
          2   -1    0    0  501    0  0.00000000000E+00 -0.00000000000E+00 -0.49211181481E+03  0.49211181482E+03  0.25500000000E-02 0.  1.
    5000001    1    1    2    0    0 -0.35140350113E+03 -0.13864062917E+03 -0.20716149806E+03  0.47168371918E+03  0.19200000000E+03 0.  0.
   -5000001    1    1    2    0    0  0.35140350113E+03  0.13864062917E+03  0.14132248123E+03  0.44670089362E+03  0.19200000000E+03 0.  0.
<mgrwt>
<rscale>  0 0.91602157E+03</rscale>
<asrwt>0</asrwt>
<pdfrwt beam="1">  1        2 0.70301688E-01 0.91602157E+03</pdfrwt>
<pdfrwt beam="2">  1       -2 0.60896114E-01 0.91602157E+03</pdfrwt>
<totfact> 0.17212369E+02</totfact>
</mgrwt>
</event>
<event>
 4    1  0.5863356E-005  0.8338957E+03  0.7818608E-02  0.9512210E-01
          2   -1    0    0  501    0  0.00000000000E+00  0.00000000000E+00  0.40378027149E+03  0.40378027150E+03  0.25500000000E-02 0.  1.
         -2   -1    0    0    0  501 -0.00000000000E+00 -0.00000000000E+00 -0.43054484777E+03  0.43054484778E+03  0.25500000000E-02 0. -1.
    5000001    1    1    2    0    0 -0.33498937158E+03  0.81815034653E+02  0.12111139634E+03  0.41284809470E+03  0.19200000000E+03 0.  0.
   -5000001    1    1    2    0    0  0.33498937158E+03 -0.81815034653E+02 -0.14787597262E+03  0.42147702458E+03  0.19200000000E+03 0.  0.
<mgrwt>
<rscale>  0 0.83389571E+03</rscale>
<asrwt>0</asrwt>
<pdfrwt beam="1">  1        2 0.57682897E-01 0.83389571E+03</pdfrwt>
<pdfrwt beam="2">  1       -2 0.61506406E-01 0.83389571E+03</pdfrwt>
<totfact> 0.21153951E+02</totfact>
</mgrwt>
</event>
<event>
 4    1  0.5863356E-005  0.5689307E+03  0.7818608E-02  0.9972048E-01
          2   -1    0    0  501    0  0.00000000000E+00  0.00000000000E+00  0.35912401949E+03  0.35912401950E+03  0.25500000000E-02 0.  1.
         -2   -1    0    0    0  501 -0.00000000000E+00 -0.00000000000E+00 -0.22532753327E+03  0.22532753328E+03  0.25500000000E-02 0. -1.
    5000001    1    1    2    0    0  0.43322887184E+02 -0.14295387042E+03 -0.84582477831E+02  0.25754781532E+03  0.19200000000E+03 0.  0.
   -5000001    1    1    2    0    0 -0.43322887184E+02  0.14295387042E+03  0.21837896405E+03  0.32690373745E+03  0.19200000000E+03 0.  0.
<mgrwt>
<rscale>  0 0.56893068E+03</rscale>
<asrwt>0</asrwt>
<pdfrwt beam="1">  1        2 0.51303432E-01 0.56893068E+03</pdfrwt>
<pdfrwt beam="2">  1       -2 0.32189647E-01 0.56893068E+03</pdfrwt>
<totfact> 0.87918347E+02</totfact>
</mgrwt>
</event>
<event>
 4    1  0.5863356E-005  0.1111945E+04  0.7818608E-02  0.9193627E-01
         -2   -1    0    0    0  501 -0.00000000000E+00  0.00000000000E+00  0.41201173316E+03  0.41201173317E+03  0.25500000000E-02 0. -1.
          2   -1    0    0  501    0  0.00000000000E+00 -0.00000000000E+00 -0.75023484006E+03  0.75023484007E+03  0.25500000000E-02 0.  1.
    5000001    1    1    2    0    0  0.47164863212E+03  0.10307120760E+03 -0.37596675066E+03  0.64131981384E+03  0.19200000000E+03 0.  0.
   -5000001    1    1    2    0    0 -0.47164863212E+03 -0.10307120760E+03  0.37743643759E+02  0.52092675940E+03  0.19200000000E+03 0.  0.
<mgrwt>
<rscale>  0 0.11119452E+04</rscale>
<asrwt>0</asrwt>
<pdfrwt beam="1">  1        2 0.10717641E+00 0.11119452E+04</pdfrwt>
<pdfrwt beam="2">  1       -2 0.58858819E-01 0.11119452E+04</pdfrwt>
<totfact> 0.11049694E+02</totfact>
</mgrwt>
</event>
<event>
 4    1  0.5863356E-005  0.4445716E+03  0.7818608E-02  0.1029353E+00
          2   -1    0    0  501    0  0.00000000000E+00  0.00000000000E+00  0.78804516408E+03  0.78804516409E+03  0.25500000000E-02 0.  1.
         -2   -1    0    0    0  501 -0.00000000000E+00 -0.00000000000E+00 -0.62700686561E+02  0.62700686613E+02  0.25500000000E-02 0. -1.
    5000001    1    1    2    0    0  0.92207354007E+02 -0.28466540100E+02  0.47150438875E+03  0.51816303289E+03  0.19200000000E+03 0.  0.
   -5000001    1    1    2    0    0 -0.92207354007E+02  0.28466540100E+02  0.25384008877E+03  0.33258281781E+03  0.19200000000E+03 0.  0.
<mgrwt>
<rscale>  0 0.44457158E+03</rscale>
<asrwt>0</asrwt>
<pdfrwt beam="1">  1        2 0.11257786E+00 0.44457158E+03</pdfrwt>
<pdfrwt beam="2">  1       -2 0.89572422E-02 0.44457158E+03</pdfrwt>
<totfact> 0.31608364E+03</totfact>
</mgrwt>
</event>
<event>
 4    1  0.5863356E-005  0.4304231E+03  0.7818608E-02  0.1033726E+00
          2   -1    0    0  501    0  0.00000000000E+00  0.00000000000E+00  0.25243205475E+02  0.25243205604E+02  0.25500000000E-02 0.  1.
         -2   -1    0    0    0  501 -0.00000000000E+00 -0.00000000000E+00 -0.18347910453E+04  0.18347910453E+04  0.25500000000E-02 0. -1.
    5000001    1    1    2    0    0  0.22138019424E+02  0.94607535667E+02 -0.89022817504E+03  0.91586619183E+03  0.19200000000E+03 0.  0.
   -5000001    1    1    2    0    0 -0.22138019424E+02 -0.94607535667E+02 -0.91931966475E+03  0.94416805903E+03  0.19200000000E+03 0.  0.
<mgrwt>
<rscale>  0 0.43042308E+03</rscale>
<asrwt>0</asrwt>
<pdfrwt beam="1">  1        2 0.36061734E-02 0.43042308E+03</pdfrwt>
<pdfrwt beam="2">  1       -2 0.26211292E+00 0.43042308E+03</pdfrwt>
<totfact> 0.14721718E+02</totfact>
</mgrwt>
</event>
<event>
 4    1  0.5863356E-005  0.4682352E+03  0.7818608E-02  0.1022420E+00
         -2   -1    0    0    0  501 -0.00000000000E+00  0.00000000000E+00  0.10115118046E+03  0.10115118049E+03  0.25500000000E-02 0. -1.
          2   -1    0    0  501    0  0.00000000000E+00 -0.00000000000E+00 -0.54187251786E+03  0.54187251787E+03  0.25500000000E-02 0.  1.
    5000001    1    1    2    0    0 -0.30879180345E+02  0.12061077817E+03 -0.15243389457E+03  0.27495558878E+03  0.19200000000E+03 0.  0.
   -5000001    1    1    2    0    0  0.30879180345E+02 -0.12061077817E+03 -0.28828744284E+03  0.36806810958E+03  0.19200000000E+03 0.  0.
<mgrwt>
<rscale>  0 0.46823518E+03</rscale>
<asrwt>0</asrwt>
<pdfrwt beam="1">  1        2 0.77410358E-01 0.46823518E+03</pdfrwt>
<pdfrwt beam="2">  1       -2 0.14450169E-01 0.46823518E+03</pdfrwt>
<totfact> 0.22678039E+03</totfact>
</mgrwt>
</event>
<event>
 4    1  0.5863356E-005  0.4390677E+03  0.7818608E-02  0.1031033E+00
          2   -1    0    0  501    0  0.00000000000E+00  0.00000000000E+00  0.46980891665E+03  0.46980891666E+03  0.25500000000E-02 0.  1.
         -2   -1    0    0    0  501 -0.00000000000E+00 -0.00000000000E+00 -0.10258448423E+03  0.10258448426E+03  0.25500000000E-02 0. -1.
    5000001    1    1    2    0    0  0.29361127269E+02 -0.91073440852E+02  0.24440592485E+03  0.32519948266E+03  0.19200000000E+03 0.  0.
   -5000001    1    1    2    0    0 -0.29361127269E+02  0.91073440852E+02  0.12281850757E+03  0.24719391826E+03  0.19200000000E+03 0.  0.
<mgrwt>
<rscale>  0 0.43906767E+03</rscale>
<asrwt>0</asrwt>
<pdfrwt beam="1">  1        2 0.67115558E-01 0.43906767E+03</pdfrwt>
<pdfrwt beam="2">  1       -2 0.14654927E-01 0.43906767E+03</pdfrwt>
<totfact> 0.26008842E+03</totfact>
</mgrwt>
</event>
<event>
 4    1  0.5863356E-005  0.4771878E+03  0.7818608E-02  0.1019911E+00
          2   -1    0    0  501    0  0.00000000000E+00  0.00000000000E+00  0.31830205758E+03  0.31830205759E+03  0.25500000000E-02 0.  1.
         -2   -1    0    0    0  501 -0.00000000000E+00 -0.00000000000E+00 -0.17884602686E+03  0.17884602688E+03  0.25500000000E-02 0. -1.
    5000001    1    1    2    0    0 -0.78055081223E+02  0.10214819011E+03  0.77745760100E+01  0.23119535566E+03  0.19200000000E+03 0.  0.
   -5000001    1    1    2    0    0  0.78055081223E+02 -0.10214819011E+03  0.13168145471E+03  0.26595272881E+03  0.19200000000E+03 0.  0.
<mgrwt>
<rscale>  0 0.47718784E+03</rscale>
<asrwt>0</asrwt>
<pdfrwt beam="1">  1        2 0.45471723E-01 0.47718784E+03</pdfrwt>
<pdfrwt beam="2">  1       -2 0.25549432E-01 0.47718784E+03</pdfrwt>
<totfact> 0.15317771E+03</totfact>
</mgrwt>
</event>
<event>
 4    1  0.5863356E-005  0.5243453E+03  0.7818608E-02  0.1007613E+00
         -2   -1    0    0    0  501 -0.00000000000E+00  0.00000000000E+00  0.12797978467E+03  0.12797978469E+03  0.25500000000E-02 0. -1.
          2   -1    0    0  501    0  0.00000000000E+00 -0.00000000000E+00 -0.53707301856E+03  0.53707301857E+03  0.25500000000E-02 0.  1.
    5000001    1    1    2    0    0 -0.15307268616E+03 -0.91590044444E+02 -0.19553278720E+03  0.32698173399E+03  0.19200000000E+03 0.  0.
   -5000001    1    1    2    0    0  0.15307268616E+03  0.91590044444E+02 -0.21356044669E+03  0.33807106927E+03  0.19200000000E+03 0.  0.
<mgrwt>
<rscale>  0 0.52434527E+03</rscale>
<asrwt>0</asrwt>
<pdfrwt beam="1">  1        2 0.76724716E-01 0.52434527E+03</pdfrwt>
<pdfrwt beam="2">  1       -2 0.18282827E-01 0.52434527E+03</pdfrwt>
<totfact> 0.15397181E+03</totfact>
</mgrwt>
</event>
<event>
 4    1  0.5863356E-005  0.1461022E+04  0.7818608E-02  0.8910795E-01
          2   -1    0    0  501    0  0.00000000000E+00  0.00000000000E+00  0.12605808928E+04  0.12605808928E+04  0.25500000000E-02 0.  1.
         -2   -1    0    0    0  501 -0.00000000000E+00 -0.00000000000E+00 -0.42333377789E+03  0.42333377790E+03  0.25500000000E-02 0. -1.
    5000001    1    1    2    0    0 -0.58481447122E+03  0.35126747991E+03  0.62281094880E+03  0.94347988115E+03  0.19200000000E+03 0.  0.
   -5000001    1    1    2    0    0  0.58481447122E+03 -0.35126747991E+03  0.21443616607E+03  0.74043478951E+03  0.19200000000E+03 0.  0.
<mgrwt>
<rscale>  0 0.14610222E+04</rscale>
<asrwt>0</asrwt>
<pdfrwt beam="1">  1        2 0.18008299E+00 0.14610222E+04</pdfrwt>
<pdfrwt beam="2">  1       -2 0.60476253E-01 0.14610222E+04</pdfrwt>
<totfact> 0.48808257E+01</totfact>
</mgrwt>
</event>
<event>
 4    1  0.5863356E-005  0.1443235E+04  0.7818608E-02  0.8923104E-01
         -2   -1    0    0    0  501 -0.00000000000E+00  0.00000000000E+00  0.27978840232E+03  0.27978840233E+03  0.25500000000E-02 0. -1.
          2   -1    0    0  501    0  0.00000000000E+00 -0.00000000000E+00 -0.18611621357E+04  0.18611621357E+04  0.25500000000E-02 0.  1.
    5000001    1    1    2    0    0  0.32774702097E+03 -0.32134186462E+03 -0.15330805701E+02  0.49777277679E+03  0.19200000000E+03 0.  0.
   -5000001    1    1    2    0    0 -0.32774702097E+03  0.32134186462E+03 -0.15660429277E+04  0.16431777612E+04  0.19200000000E+03 0.  0.
<mgrwt>
<rscale>  0 0.14432347E+04</rscale>
<asrwt>0</asrwt>
<pdfrwt beam="1">  1        2 0.26588030E+00 0.14432347E+04</pdfrwt>
<pdfrwt beam="2">  1       -2 0.39969773E-01 0.14432347E+04</pdfrwt>
<totfact> 0.54429913E+01</totfact>
</mgrwt>
</event>
<event>
 4    1  0.5863356E-005  0.6385031E+03  0.7818608E-02  0.9828595E-01
         -2   -1    0    0    0  501 -0.00000000000E+00  0.00000000000E+00  0.41346371675E+02  0.41346371754E+02  0.25500000000E-02 0. -1.
          2   -1    0    0  501    0  0.00000000000E+00 -0.00000000000E+00 -0.24650667364E+04  0.24650667364E+04  0.25500000000E-02 0.  1.
    5000001    1    1    2    0    0  0.10629839452E+03  0.17147174097E+03 -0.59924245967E+03  0.66080059935E+03  0.19200000000E+03 0.  0.
   -5000001    1    1    2    0    0 -0.10629839452E+03 -0.17147174097E+03 -0.18244779050E+04  0.18456125088E+04  0.19200000000E+03 0.  0.
<mgrwt>
<rscale>  0 0.63850314E+03</rscale>
<asrwt>0</asrwt>
<pdfrwt beam="1">  1        2 0.35215230E+00 0.63850314E+03</pdfrwt>
<pdfrwt beam="2">  1       -2 0.59066261E-02 0.63850314E+03</pdfrwt>
<totfact> 0.76116335E+02</totfact>
</mgrwt>
</event>
<event>
 4    1  0.5863356E-005  0.7180729E+03  0.7818608E-02  0.9686815E-01
          2   -1    0    0  501    0  0.00000000000E+00  0.00000000000E+00  0.15184880992E+04  0.15184880992E+04  0.25500000000E-02 0.  1.
         -2   -1    0    0    0  501 -0.00000000000E+00 -0.00000000000E+00 -0.84891794362E+02  0.84891794400E+02  0.25500000000E-02 0. -1.
    5000001    1    1    2    0    0 -0.99542615799E+02 -0.28405263650E+03  0.63181474234E+03  0.72570551969E+03  0.19200000000E+03 0.  0.
   -5000001    1    1    2    0    0  0.99542615799E+02  0.28405263650E+03  0.80178156248E+03  0.87767437390E+03  0.19200000000E+03 0.  0.
<mgrwt>
<rscale>  0 0.71807292E+03</rscale>
<asrwt>0</asrwt>
<pdfrwt beam="1">  1        2 0.21692684E+00 0.71807292E+03</pdfrwt>
<pdfrwt beam="2">  1       -2 0.12127401E-01 0.71807292E+03</pdfrwt>
<totfact> 0.72280306E+02</totfact>
</mgrwt>
</event>
<event>
 4    1  0.5863356E-005  0.4700385E+03  0.7818608E-02  0.1021909E+00
         -2   -1    0    0    0  501 -0.00000000000E+00  0.00000000000E+00  0.99635554506E+02  0.99635554539E+02  0.25500000000E-02 0. -1.
          2   -1    0    0  501    0  0.00000000000E+00 -0.00000000000E+00 -0.55436075058E+03  0.55436075059E+03  0.25500000000E-02 0.  1.
    5000001    1    1    2    0    0  0.82622164954E+01  0.93318364428E+02 -0.91083417775E+02  0.23224291239E+03  0.19200000000E+03 0.  0.
   -5000001    1    1    2    0    0 -0.82622164954E+01 -0.93318364428E+02 -0.36364177830E+03  0.42175339274E+03  0.19200000000E+03 0.  0.
<mgrwt>
<rscale>  0 0.47003847E+03</rscale>
<asrwt>0</asrwt>
<pdfrwt beam="1">  1        2 0.79194391E-01 0.47003847E+03</pdfrwt>
<pdfrwt beam="2">  1       -2 0.14233651E-01 0.47003847E+03</pdfrwt>
<totfact> 0.22657167E+03</totfact>
</mgrwt>
</event>
<event>
 4    1  0.5863356E-005  0.6787333E+03  0.7818608E-02  0.9754308E-01
          2   -1    0    0  501    0  0.00000000000E+00  0.00000000000E+00  0.15752962005E+04  0.15752962005E+04  0.25500000000E-02 0.  1.
         -2   -1    0    0    0  501 -0.00000000000E+00 -0.00000000000E+00 -0.73109891916E+02  0.73109891961E+02  0.25500000000E-02 0. -1.
    5000001    1    1    2    0    0  0.13505780195E+03 -0.39453704548E+02  0.16363812507E+03  0.28885747463E+03  0.19200000000E+03 0.  0.
   -5000001    1    1    2    0    0 -0.13505780195E+03  0.39453704548E+02  0.13385481835E+04  0.13595486178E+04  0.19200000000E+03 0.  0.
<mgrwt>
<rscale>  0 0.67873333E+03</rscale>
<asrwt>0</asrwt>
<pdfrwt beam="1">  1        2 0.22504234E+00 0.67873333E+03</pdfrwt>
<pdfrwt beam="2">  1       -2 0.10444269E-01 0.67873333E+03</pdfrwt>
<totfact> 0.86457254E+02</totfact>
</mgrwt>
</event>
<event>
 4    1  0.5863356E-005  0.9707745E+03  0.7818608E-02  0.9341193E-01
         -2   -1    0    0    0  501 -0.00000000000E+00  0.00000000000E+00  0.71060618036E+03  0.71060618036E+03  0.25500000000E-02 0. -1.
          2   -1    0    0  501    0  0.00000000000E+00 -0.00000000000E+00 -0.33154901146E+03  0.33154901147E+03  0.25500000000E-02 0.  1.
    5000001    1    1    2    0    0  0.43462955024E+03  0.58219619721E+02  0.27570838969E+03  0.55242328536E+03  0.19200000000E+03 0.  0.
   -5000001    1    1    2    0    0 -0.43462955024E+03 -0.58219619721E+02  0.10334877920E+03  0.48973190648E+03  0.19200000000E+03 0.  0.
<mgrwt>
<rscale>  0 0.97077449E+03</rscale>
<asrwt>0</asrwt>
<pdfrwt beam="1">  1        2 0.47364145E-01 0.97077449E+03</pdfrwt>
<pdfrwt beam="2">  1       -2 0.10151517E+00 0.97077449E+03</pdfrwt>
<totfact> 0.85054271E+01</totfact>
</mgrwt>
</event>
<event>
 4    1  0.5863356E-005  0.5374157E+03  0.7818608E-02  0.1004449E+00
          2   -1    0    0  501    0  0.00000000000E+00  0.00000000000E+00  0.63036410023E+03  0.63036410023E+03  0.25500000000E-02 0.  1.
         -2   -1    0    0    0  501 -0.00000000000E+00 -0.00000000000E+00 -0.11454317757E+03  0.11454317760E+03  0.25500000000E-02 0. -1.
    5000001    1    1    2    0    0 -0.17018506287E+03  0.43527140823E+02  0.16511125867E+03  0.30819360044E+03  0.19200000000E+03 0.  0.
   -5000001    1    1    2    0    0  0.17018506287E+03 -0.43527140823E+02  0.35070966398E+03  0.43671367740E+03  0.19200000000E+03 0.  0.
<mgrwt>
<rscale>  0 0.53741569E+03</rscale>
<asrwt>0</asrwt>
<pdfrwt beam="1">  1        2 0.90052013E-01 0.53741569E+03</pdfrwt>
<pdfrwt beam="2">  1       -2 0.16363311E-01 0.53741569E+03</pdfrwt>
<totfact> 0.15438092E+03</totfact>
</mgrwt>
</event>
<event>
 4    1  0.5863356E-005  0.5705733E+03  0.7818608E-02  0.9968411E-01
         -2   -1    0    0    0  501 -0.00000000000E+00  0.00000000000E+00  0.27346592906E+02  0.27346593025E+02  0.25500000000E-02 0. -1.
          2   -1    0    0  501    0  0.00000000000E+00 -0.00000000000E+00 -0.29761836165E+04  0.29761836165E+04  0.25500000000E-02 0.  1.
    5000001    1    1    2    0    0 -0.19485569204E+03  0.13806212871E+01 -0.10482628229E+04  0.10833695550E+04  0.19200000000E+03 0.  0.
   -5000001    1    1    2    0    0  0.19485569204E+03 -0.13806212871E+01 -0.19005742007E+04  0.19201606545E+04  0.19200000000E+03 0.  0.
<mgrwt>
<rscale>  0 0.57057333E+03</rscale>
<asrwt>0</asrwt>
<pdfrwt beam="1">  1        2 0.42516889E+00 0.57057333E+03</pdfrwt>
<pdfrwt beam="2">  1       -2 0.39066580E-02 0.57057333E+03</pdfrwt>
<totfact> 0.78253168E+02</totfact>
</mgrwt>
</event>
<event>
 4    1  0.5863356E-005  0.1245754E+04  0.7818608E-02  0.9073725E-01
         -2   -1    0    0    0  501 -0.00000000000E+00  0.00000000000E+00  0.15820370872E+03  0.15820370874E+03  0.25500000000E-02 0. -1.
          2   -1    0    0  501    0  0.00000000000E+00 -0.00000000000E+00 -0.24523796671E+04  0.24523796671E+04  0.25500000000E-02 0.  1.
    5000001    1    1    2    0    0  0.59611057382E+02 -0.57473158229E+03 -0.87192165098E+03  0.10634760154E+04  0.19200000000E+03 0.  0.
   -5000001    1    1    2    0    0 -0.59611057382E+02  0.57473158229E+03 -0.14222543074E+04  0.15471073604E+04  0.19200000000E+03 0.  0.
<mgrwt>
<rscale>  0 0.12457537E+04</rscale>
<asrwt>0</asrwt>
<pdfrwt beam="1">  1        2 0.35033993E+00 0.12457537E+04</pdfrwt>
<pdfrwt beam="2">  1       -2 0.22600531E-01 0.12457537E+04</pdfrwt>
<totfact> 0.79360334E+01</totfact>
</mgrwt>
</event>
<event>
 4    1  0.5863356E-005  0.5324544E+03  0.7818608E-02  0.1005639E+00
         -2   -1    0    0    0  501 -0.00000000000E+00  0.00000000000E+00  0.77530351992E+02  0.77530352034E+02  0.25500000000E-02 0. -1.
          2   -1    0    0  501    0  0.00000000000E+00 -0.00000000000E+00 -0.91418291166E+03  0.91418291167E+03  0.25500000000E-02 0.  1.
    5000001    1    1    2    0    0  0.10231372968E+03 -0.74628885012E+02 -0.16861255382E+03  0.28518724211E+03  0.19200000000E+03 0.  0.
   -5000001    1    1    2    0    0 -0.10231372968E+03  0.74628885012E+02 -0.66804000585E+03  0.70652602159E+03  0.19200000000E+03 0.  0.
<mgrwt>
<rscale>  0 0.53245440E+03</rscale>
<asrwt>0</asrwt>
<pdfrwt beam="1">  1        2 0.13059755E+00 0.53245440E+03</pdfrwt>
<pdfrwt beam="2">  1       -2 0.11075765E-01 0.53245440E+03</pdfrwt>
<totfact> 0.18522407E+03</totfact>
</mgrwt>
</event>
<event>
 4    1  0.5863356E-005  0.6135095E+03  0.7818608E-02  0.9877768E-01
          2   -1    0    0  501    0  0.00000000000E+00  0.00000000000E+00  0.12228204614E+04  0.12228204614E+04  0.25500000000E-02 0.  1.
         -2   -1    0    0    0  501 -0.00000000000E+00 -0.00000000000E+00 -0.76952003509E+02  0.76952003551E+02  0.25500000000E-02 0. -1.
    5000001    1    1    2    0    0  0.18625270253E+03 -0.14075535199E+03  0.68367661613E+03  0.74751578830E+03  0.19200000000E+03 0.  0.
   -5000001    1    1    2    0    0 -0.18625270253E+03  0.14075535199E+03  0.46219184174E+03  0.55225667663E+03  0.19200000000E+03 0.  0.
<mgrwt>
<rscale>  0 0.61350953E+03</rscale>
<asrwt>0</asrwt>
<pdfrwt beam="1">  1        2 0.17468863E+00 0.61350953E+03</pdfrwt>
<pdfrwt beam="2">  1       -2 0.10993144E-01 0.61350953E+03</pdfrwt>
<totfact> 0.12297794E+03</totfact>
</mgrwt>
</event>
<event>
 4    1  0.5863356E-005  0.7604819E+03  0.7818608E-02  0.9619048E-01
         -2   -1    0    0    0  501 -0.00000000000E+00  0.00000000000E+00  0.51842175131E+02  0.51842175194E+02  0.25500000000E-02 0. -1.
          2   -1    0    0  501    0  0.00000000000E+00 -0.00000000000E+00 -0.27889104672E+04  0.27889104672E+04  0.25500000000E-02 0.  1.
    5000001    1    1    2    0    0  0.11919610655E+03  0.29889107861E+03 -0.16099155341E+04  0.16529475538E+04  0.19200000000E+03 0.  0.
   -5000001    1    1    2    0    0 -0.11919610655E+03 -0.29889107861E+03 -0.11271527580E+04  0.11878050886E+04  0.19200000000E+03 0.  0.
<mgrwt>
<rscale>  0 0.76048191E+03</rscale>
<asrwt>0</asrwt>
<pdfrwt beam="1">  1        2 0.39841568E+00 0.76048191E+03</pdfrwt>
<pdfrwt beam="2">  1       -2 0.74060268E-02 0.76048191E+03</pdfrwt>
<totfact> 0.35715891E+02</totfact>
</mgrwt>
</event>
<event>
 4    1  0.5863356E-005  0.1130648E+04  0.7818608E-02  0.9175824E-01
         -2   -1    0    0    0  501 -0.00000000000E+00  0.00000000000E+00  0.28461702966E+03  0.28461702968E+03  0.25500000000E-02 0. -1.
          2   -1    0    0  501    0  0.00000000000E+00 -0.00000000000E+00 -0.11228825676E+04  0.11228825676E+04  0.25500000000E-02 0.  1.
    5000001    1    1    2    0    0  0.13180085311E+03  0.51285223756E+03 -0.47933330693E+03  0.73960347592E+03  0.19200000000E+03 0.  0.
   -5000001    1    1    2    0    0 -0.13180085311E+03 -0.51285223756E+03 -0.35893223096E+03  0.66789612132E+03  0.19200000000E+03 0.  0.
<mgrwt>
<rscale>  0 0.11306485E+04</rscale>
<asrwt>0</asrwt>
<pdfrwt beam="1">  1        2 0.16041179E+00 0.11306485E+04</pdfrwt>
<pdfrwt beam="2">  1       -2 0.40659576E-01 0.11306485E+04</pdfrwt>
<totfact> 0.13429794E+02</totfact>
</mgrwt>
</event>
<event>
 4    1  0.5863356E-005  0.4725772E+03  0.7818608E-02  0.1021195E+00
         -2   -1    0    0    0  501 -0.00000000000E+00  0.00000000000E+00  0.10005721183E+03  0.10005721186E+03  0.25500000000E-02 0. -1.
          2   -1    0    0  501    0  0.00000000000E+00 -0.00000000000E+00 -0.55800382131E+03  0.55800382132E+03  0.25500000000E-02 0.  1.
    5000001    1    1    2    0    0 -0.10539979496E+03 -0.62224131107E+02 -0.31690297132E+03  0.39022103031E+03  0.19200000000E+03 0.  0.
   -5000001    1    1    2    0    0  0.10539979496E+03  0.62224131107E+02 -0.14104363817E+03  0.26784000287E+03  0.19200000000E+03 0.  0.
<mgrwt>
<rscale>  0 0.47257722E+03</rscale>
<asrwt>0</asrwt>
<pdfrwt beam="1">  1        2 0.79714830E-01 0.47257722E+03</pdfrwt>
<pdfrwt beam="2">  1       -2 0.14293888E-01 0.47257722E+03</pdfrwt>
<totfact> 0.22330600E+03</totfact>
</mgrwt>
</event>
<event>
 4    1  0.5863356E-005  0.5577488E+03  0.7818608E-02  0.9997161E-01
         -2   -1    0    0    0  501 -0.00000000000E+00  0.00000000000E+00  0.58912404694E+02  0.58912404749E+02  0.25500000000E-02 0. -1.
          2   -1    0    0  501    0  0.00000000000E+00 -0.00000000000E+00 -0.13201111280E+04  0.13201111280E+04  0.25500000000E-02 0.  1.
    5000001    1    1    2    0    0  0.65159960039E+02 -0.53879548482E+02 -0.10848776968E+04  0.11049762183E+04  0.19200000000E+03 0.  0.
   -5000001    1    1    2    0    0 -0.65159960039E+02  0.53879548482E+02 -0.17632102652E+03  0.27404731440E+03  0.19200000000E+03 0.  0.
<mgrwt>
<rscale>  0 0.55774876E+03</rscale>
<asrwt>0</asrwt>
<pdfrwt beam="1">  1        2 0.18858729E+00 0.55774876E+03</pdfrwt>
<pdfrwt beam="2">  1       -2 0.84160587E-02 0.55774876E+03</pdfrwt>
<totfact> 0.16770844E+03</totfact>
</mgrwt>
</event>
<event>
 4    1  0.5863356E-005  0.4929743E+03  0.7818608E-02  0.1015629E+00
          2   -1    0    0  501    0  0.00000000000E+00  0.00000000000E+00  0.11819869801E+03  0.11819869804E+03  0.25500000000E-02 0.  1.
         -2   -1    0    0    0  501 -0.00000000000E+00 -0.00000000000E+00 -0.51401511895E+03  0.51401511896E+03  0.25500000000E-02 0. -1.
    5000001    1    1    2    0    0  0.17726642684E+02  0.11490933866E+03 -0.67290239491E+02  0.23432961039E+03  0.19200000000E+03 0.  0.
   -5000001    1    1    2    0    0 -0.17726642684E+02 -0.11490933866E+03 -0.32852618145E+03  0.39788420661E+03  0.19200000000E+03 0.  0.
<mgrwt>
<rscale>  0 0.49297431E+03</rscale>
<asrwt>0</asrwt>
<pdfrwt beam="1">  1        2 0.16885529E-01 0.49297431E+03</pdfrwt>
<pdfrwt beam="2">  1       -2 0.73430730E-01 0.49297431E+03</pdfrwt>
<totfact> 0.58583739E+02</totfact>
</mgrwt>
</event>
<event>
 4    1  0.5863356E-005  0.1062510E+04  0.7818608E-02  0.9242523E-01
         -2   -1    0    0    0  501 -0.00000000000E+00  0.00000000000E+00  0.17707569368E+03  0.17707569370E+03  0.25500000000E-02 0. -1.
          2   -1    0    0  501    0  0.00000000000E+00 -0.00000000000E+00 -0.15938490291E+04  0.15938490291E+04  0.25500000000E-02 0.  1.
    5000001    1    1    2    0    0  0.22273929170E+03  0.42711583737E+03 -0.51597280274E+03  0.73152762338E+03  0.19200000000E+03 0.  0.
   -5000001    1    1    2    0    0 -0.22273929170E+03 -0.42711583737E+03 -0.90080053271E+03  0.10393970994E+04  0.19200000000E+03 0.  0.
<mgrwt>
<rscale>  0 0.10625101E+04</rscale>
<asrwt>0</asrwt>
<pdfrwt beam="1">  1        2 0.22769271E+00 0.10625101E+04</pdfrwt>
<pdfrwt beam="2">  1       -2 0.25296529E-01 0.10625101E+04</pdfrwt>
<totfact> 0.18183401E+02</totfact>
</mgrwt>
</event>
<event>
 4    1  0.5863356E-005  0.6080188E+03  0.7818608E-02  0.9888908E-01
         -2   -1    0    0    0  501 -0.00000000000E+00  0.00000000000E+00  0.80627727818E+02  0.80627727858E+02  0.25500000000E-02 0. -1.
          2   -1    0    0  501    0  0.00000000000E+00 -0.00000000000E+00 -0.11462769218E+04  0.11462769218E+04  0.25500000000E-02 0.  1.
    5000001    1    1    2    0    0  0.16384033596E+03  0.12672508439E+03 -0.30582687891E+03  0.41628954175E+03  0.19200000000E+03 0.  0.
   -5000001    1    1    2    0    0 -0.16384033596E+03 -0.12672508439E+03 -0.75982231504E+03  0.81061510789E+03  0.19200000000E+03 0.  0.
<mgrwt>
<rscale>  0 0.60801876E+03</rscale>
<asrwt>0</asrwt>
<pdfrwt beam="1">  1        2 0.16375384E+00 0.60801876E+03</pdfrwt>
<pdfrwt beam="2">  1       -2 0.11518248E-01 0.60801876E+03</pdfrwt>
<totfact> 0.12585569E+03</totfact>
</mgrwt>
</event>
<event>
 4    1  0.5863356E-005  0.4258802E+03  0.7818608E-02  0.1035169E+00
          2   -1    0    0  501    0  0.00000000000E+00  0.00000000000E+00  0.29191503641E+03  0.29191503643E+03  0.25500000000E-02 0.  1.
         -2   -1    0    0    0  501 -0.00000000000E+00 -0.00000000000E+00 -0.15533113145E+03  0.15533113147E+03  0.25500000000E-02 0. -1.
    5000001    1    1    2    0    0  0.64406995717E+02  0.65401920468E+02  0.60587648335E+02  0.22127027688E+03  0.19200000000E+03 0.  0.
   -5000001    1    1    2    0    0 -0.64406995717E+02 -0.65401920468E+02  0.75996256633E+02  0.22597589102E+03  0.19200000000E+03 0.  0.
<mgrwt>
<rscale>  0 0.42588023E+03</rscale>
<asrwt>0</asrwt>
<pdfrwt beam="1">  1        2 0.41702148E-01 0.42588023E+03</pdfrwt>
<pdfrwt beam="2">  1       -2 0.22190162E-01 0.42588023E+03</pdfrwt>
<totfact> 0.21595419E+03</totfact>
</mgrwt>
</event>
<event>
 4    1  0.5863356E-005  0.6973586E+03  0.7818608E-02  0.9721760E-01
          2   -1    0    0  501    0  0.00000000000E+00  0.00000000000E+00  0.92228897821E+03  0.92228897822E+03  0.25500000000E-02 0.  1.
         -2   -1    0    0    0  501 -0.00000000000E+00 -0.00000000000E+00 -0.13182121647E+03  0.13182121650E+03  0.25500000000E-02 0. -1.
    5000001    1    1    2    0    0  0.16525350865E+03  0.19477061271E+03  0.18432201216E+03  0.36889418247E+03  0.19200000000E+03 0.  0.
   -5000001    1    1    2    0    0 -0.16525350865E+03 -0.19477061271E+03  0.60614574958E+03  0.68521601224E+03  0.19200000000E+03 0.  0.
<mgrwt>
<rscale>  0 0.69735860E+03</rscale>
<asrwt>0</asrwt>
<pdfrwt beam="1">  1        2 0.13175557E+00 0.69735860E+03</pdfrwt>
<pdfrwt beam="2">  1       -2 0.18831602E-01 0.69735860E+03</pdfrwt>
<totfact> 0.74842888E+02</totfact>
</mgrwt>
</event>
<event>
 4    1  0.5863356E-005  0.6053686E+03  0.7818608E-02  0.9894330E-01
          2   -1    0    0  501    0  0.00000000000E+00  0.00000000000E+00  0.15528109073E+04  0.15528109073E+04  0.25500000000E-02 0.  1.
         -2   -1    0    0    0  501 -0.00000000000E+00 -0.00000000000E+00 -0.59001252289E+02  0.59001252344E+02  0.25500000000E-02 0. -1.
    5000001    1    1    2    0    0 -0.21467746564E+03  0.74630006593E+02  0.89509408871E+03  0.94324624557E+03  0.19200000000E+03 0.  0.
   -5000001    1    1    2    0    0  0.21467746564E+03 -0.74630006593E+02  0.59871556634E+03  0.66856591412E+03  0.19200000000E+03 0.  0.
<mgrwt>
<rscale>  0 0.60536861E+03</rscale>
<asrwt>0</asrwt>
<pdfrwt beam="1">  1        2 0.22183014E+00 0.60536861E+03</pdfrwt>
<pdfrwt beam="2">  1       -2 0.84287500E-02 0.60536861E+03</pdfrwt>
<totfact> 0.12594544E+03</totfact>
</mgrwt>
</event>
<event>
 4    1  0.5863356E-005  0.5542419E+03  0.7818608E-02  0.1000517E+00
          2   -1    0    0  501    0  0.00000000000E+00  0.00000000000E+00  0.56349444605E+02  0.56349444662E+02  0.25500000000E-02 0.  1.
         -2   -1    0    0    0  501 -0.00000000000E+00 -0.00000000000E+00 -0.13628532243E+04  0.13628532243E+04  0.25500000000E-02 0. -1.
    5000001    1    1    2    0    0  0.23158677324E+02  0.13553633108E+03 -0.28195674603E+03  0.36779073943E+03  0.19200000000E+03 0.  0.
   -5000001    1    1    2    0    0 -0.23158677324E+02 -0.13553633108E+03 -0.10245470337E+04  0.10514119296E+04  0.19200000000E+03 0.  0.
<mgrwt>
<rscale>  0 0.55424190E+03</rscale>
<asrwt>0</asrwt>
<pdfrwt beam="1">  1        2 0.80499215E-02 0.55424190E+03</pdfrwt>
<pdfrwt beam="2">  1       -2 0.19469330E+00 0.55424190E+03</pdfrwt>
<totfact> 0.13000341E+02</totfact>
</mgrwt>
</event>
<event>
 4    1  0.5863356E-005  0.5641557E+03  0.7818608E-02  0.9982695E-01
          2   -1    0    0  501    0  0.00000000000E+00  0.00000000000E+00  0.67743132508E+03  0.67743132508E+03  0.25500000000E-02 0.  1.
         -2   -1    0    0    0  501 -0.00000000000E+00 -0.00000000000E+00 -0.11745530729E+03  0.11745530732E+03  0.25500000000E-02 0. -1.
    5000001    1    1    2    0    0  0.17522012690E+03 -0.42534443485E+02  0.13773894238E+03  0.29723271691E+03  0.19200000000E+03 0.  0.
   -5000001    1    1    2    0    0 -0.17522012690E+03  0.42534443485E+02  0.42223707540E+03  0.49765391549E+03  0.19200000000E+03 0.  0.
<mgrwt>
<rscale>  0 0.56415567E+03</rscale>
<asrwt>0</asrwt>
<pdfrwt beam="1">  1        2 0.96775905E-01 0.56415567E+03</pdfrwt>
<pdfrwt beam="2">  1       -2 0.16779329E-01 0.56415567E+03</pdfrwt>
<totfact> 0.13569557E+03</totfact>
</mgrwt>
</event>
<event>
 4    1  0.5863356E-005  0.7255254E+03  0.7818608E-02  0.9674549E-01
          2   -1    0    0  501    0  0.00000000000E+00  0.00000000000E+00  0.70237345471E+03  0.70237345471E+03  0.25500000000E-02 0.  1.
         -2   -1    0    0    0  501 -0.00000000000E+00 -0.00000000000E+00 -0.18736013547E+03  0.18736013549E+03  0.25500000000E-02 0. -1.
    5000001    1    1    2    0    0  0.15603717537E+02  0.21140078747E+03 -0.16157380527E+02  0.28645912429E+03  0.19200000000E+03 0.  0.
   -5000001    1    1    2    0    0 -0.15603717537E+02 -0.21140078747E+03  0.53117069976E+03  0.60327446592E+03  0.19200000000E+03 0.  0.
<mgrwt>
<rscale>  0 0.72552543E+03</rscale>
<asrwt>0</asrwt>
<pdfrwt beam="1">  1        2 0.10033907E+00 0.72552543E+03</pdfrwt>
<pdfrwt beam="2">  1       -2 0.26765733E-01 0.72552543E+03</pdfrwt>
<totfact> 0.56939708E+02</totfact>
</mgrwt>
</event>
<event>
 4    1  0.5863356E-005  0.5901822E+03  0.7818608E-02  0.9925987E-01
         -2   -1    0    0    0  501 -0.00000000000E+00  0.00000000000E+00  0.22841052411E+02  0.22841052553E+02  0.25500000000E-02 0. -1.
          2   -1    0    0  501    0  0.00000000000E+00 -0.00000000000E+00 -0.38123794554E+04  0.38123794554E+04  0.25500000000E-02 0.  1.
    5000001    1    1    2    0    0  0.18491861151E+03 -0.59455953051E+02 -0.11686699387E+04  0.12001597097E+04  0.19200000000E+03 0.  0.
   -5000001    1    1    2    0    0 -0.18491861151E+03  0.59455953051E+02 -0.26208684643E+04  0.26350607982E+04  0.19200000000E+03 0.  0.
<mgrwt>
<rscale>  0 0.59018221E+03</rscale>
<asrwt>0</asrwt>
<pdfrwt beam="1">  1        2 0.54462523E+00 0.59018221E+03</pdfrwt>
<pdfrwt beam="2">  1       -2 0.32630099E-02 0.59018221E+03</pdfrwt>
<totfact> 0.33423663E+02</totfact>
</mgrwt>
</event>
<event>
 4    1  0.5863356E-005  0.1005235E+04  0.7818608E-02  0.9302822E-01
          2   -1    0    0  501    0  0.00000000000E+00  0.00000000000E+00  0.99685550926E+03  0.99685550927E+03  0.25500000000E-02 0.  1.
         -2   -1    0    0    0  501 -0.00000000000E+00 -0.00000000000E+00 -0.25342110884E+03  0.25342110886E+03  0.25500000000E-02 0. -1.
    5000001    1    1    2    0    0 -0.11703215060E+03 -0.39474409969E+03  0.63917254621E+03  0.78417151972E+03  0.19200000000E+03 0.  0.
   -5000001    1    1    2    0    0  0.11703215060E+03  0.39474409969E+03  0.10426185421E+03  0.46610509840E+03  0.19200000000E+03 0.  0.
<mgrwt>
<rscale>  0 0.10052348E+04</rscale>
<asrwt>0</asrwt>
<pdfrwt beam="1">  1        2 0.14240793E+00 0.10052348E+04</pdfrwt>
<pdfrwt beam="2">  1       -2 0.36203015E-01 0.10052348E+04</pdfrwt>
<totfact> 0.20173494E+02</totfact>
</mgrwt>
</event>
<event>
 4    1  0.5863356E-005  0.4878011E+03  0.7818608E-02  0.1017013E+00
         -2   -1    0    0    0  501 -0.00000000000E+00  0.00000000000E+00  0.35771858380E+02  0.35771858471E+02  0.25500000000E-02 0. -1.
          2   -1    0    0  501    0  0.00000000000E+00 -0.00000000000E+00 -0.16629688166E+04  0.16629688166E+04  0.25500000000E-02 0.  1.
    5000001    1    1    2    0    0 -0.90334211598E+02  0.11692840762E+03 -0.71565798066E+03  0.75555467543E+03  0.19200000000E+03 0.  0.
   -5000001    1    1    2    0    0  0.90334211598E+02 -0.11692840762E+03 -0.91153897756E+03  0.94318599963E+03  0.19200000000E+03 0.  0.
<mgrwt>
<rscale>  0 0.48780113E+03</rscale>
<asrwt>0</asrwt>
<pdfrwt beam="1">  1        2 0.23756693E+00 0.48780113E+03</pdfrwt>
<pdfrwt beam="2">  1       -2 0.51102665E-02 0.48780113E+03</pdfrwt>
<totfact> 0.24374589E+03</totfact>
</mgrwt>
</event>
<event>
 4    1  0.5863356E-005  0.7324092E+03  0.7818608E-02  0.9663359E-01
          2   -1    0    0  501    0  0.00000000000E+00  0.00000000000E+00  0.20536973776E+04  0.20536973776E+04  0.25500000000E-02 0.  1.
         -2   -1    0    0    0  501 -0.00000000000E+00 -0.00000000000E+00 -0.65299699222E+02  0.65299699271E+02  0.25500000000E-02 0. -1.
    5000001    1    1    2    0    0 -0.15542119753E+03  0.23051561304E+03  0.14028314534E+04  0.14429460431E+04  0.19200000000E+03 0.  0.
   -5000001    1    1    2    0    0  0.15542119753E+03 -0.23051561304E+03  0.58556622497E+03  0.67605103382E+03  0.19200000000E+03 0.  0.
<mgrwt>
<rscale>  0 0.73240923E+03</rscale>
<asrwt>0</asrwt>
<pdfrwt beam="1">  1        2 0.29338534E+00 0.73240923E+03</pdfrwt>
<pdfrwt beam="2">  1       -2 0.93285284E-02 0.73240923E+03</pdfrwt>
<totfact> 0.59125673E+02</totfact>
</mgrwt>
</event>
<event>
 4    1  0.5863356E-005  0.5969701E+03  0.7818608E-02  0.9911712E-01
         -2   -1    0    0    0  501 -0.00000000000E+00  0.00000000000E+00  0.93086687658E+02  0.93086687693E+02  0.25500000000E-02 0. -1.
          2   -1    0    0  501    0  0.00000000000E+00 -0.00000000000E+00 -0.95710074140E+03  0.95710074141E+03  0.25500000000E-02 0.  1.
    5000001    1    1    2    0    0  0.13333814466E+03  0.17962009367E+03 -0.51427457617E+03  0.59277717446E+03  0.19200000000E+03 0.  0.
   -5000001    1    1    2    0    0 -0.13333814466E+03 -0.17962009367E+03 -0.34973947758E+03  0.45741025463E+03  0.19200000000E+03 0.  0.
<mgrwt>
<rscale>  0 0.59697014E+03</rscale>
<asrwt>0</asrwt>
<pdfrwt beam="1">  1        2 0.13672867E+00 0.59697014E+03</pdfrwt>
<pdfrwt beam="2">  1       -2 0.13298099E-01 0.59697014E+03</pdfrwt>
<totfact> 0.12869965E+03</totfact>
</mgrwt>
</event>
<event>
 4    1  0.5863356E-005  0.5339358E+03  0.7818608E-02  0.1005282E+00
          2   -1    0    0  501    0  0.00000000000E+00  0.00000000000E+00  0.45819909914E+03  0.45819909915E+03  0.25500000000E-02 0.  1.
         -2   -1    0    0    0  501 -0.00000000000E+00 -0.00000000000E+00 -0.15554777978E+03  0.15554777980E+03  0.25500000000E-02 0. -1.
    5000001    1    1    2    0    0  0.67891204109E+02  0.16869309668E+03  0.19342345697E+03  0.32763273672E+03  0.19200000000E+03 0.  0.
   -5000001    1    1    2    0    0 -0.67891204109E+02 -0.16869309668E+03  0.10922786239E+03  0.28611414223E+03  0.19200000000E+03 0.  0.
<mgrwt>
<rscale>  0 0.53393577E+03</rscale>
<asrwt>0</asrwt>
<pdfrwt beam="1">  1        2 0.65457014E-01 0.53393577E+03</pdfrwt>
<pdfrwt beam="2">  1       -2 0.22221111E-01 0.53393577E+03</pdfrwt>
<totfact> 0.13129204E+03</totfact>
</mgrwt>
</event>
<event>
 4    1  0.5863356E-005  0.4190407E+03  0.7818608E-02  0.1037379E+00
          2   -1    0    0  501    0  0.00000000000E+00  0.00000000000E+00  0.73588152644E+02  0.73588152688E+02  0.25500000000E-02 0.  1.
         -2   -1    0    0    0  501 -0.00000000000E+00 -0.00000000000E+00 -0.59654686228E+03  0.59654686228E+03  0.25500000000E-02 0. -1.
    5000001    1    1    2    0    0 -0.47703391567E+02  0.32895946358E+02 -0.35845314201E+03  0.41074373016E+03  0.19200000000E+03 0.  0.
   -5000001    1    1    2    0    0  0.47703391567E+02 -0.32895946358E+02 -0.16450556763E+03  0.25939128481E+03  0.19200000000E+03 0.  0.
<mgrwt>
<rscale>  0 0.41904072E+03</rscale>
<asrwt>0</asrwt>
<pdfrwt beam="1">  1        2 0.10512594E-01 0.41904072E+03</pdfrwt>
<pdfrwt beam="2">  1       -2 0.85220978E-01 0.41904072E+03</pdfrwt>
<totfact> 0.75012262E+02</totfact>
</mgrwt>
</event>
<event>
 4    1  0.5863356E-005  0.6192907E+03  0.7818608E-02  0.9866173E-01
          2   -1    0    0  501    0  0.00000000000E+00  0.00000000000E+00  0.25444905496E+04  0.25444905496E+04  0.25500000000E-02 0.  1.
         -2   -1    0    0    0  501 -0.00000000000E+00 -0.00000000000E+00 -0.37681502961E+02  0.37681503047E+02  0.25500000000E-02 0. -1.
    5000001    1    1    2    0    0 -0.22969686169E+03 -0.74998654533E+02  0.13581246701E+04  0.13927498218E+04  0.19200000000E+03 0.  0.
   -5000001    1    1    2    0    0  0.22969686169E+03  0.74998654533E+02  0.11486843766E+04  0.11894222309E+04  0.19200000000E+03 0.  0.
<mgrwt>
<rscale>  0 0.61929065E+03</rscale>
<asrwt>0</asrwt>
<pdfrwt beam="1">  1        2 0.36349886E+00 0.61929065E+03</pdfrwt>
<pdfrwt beam="2">  1       -2 0.53830688E-02 0.61929065E+03</pdfrwt>
<totfact> 0.80212249E+02</totfact>
</mgrwt>
</event>
<event>
 4    1  0.5863356E-005  0.6025984E+03  0.7818608E-02  0.9900030E-01
         -2   -1    0    0    0  501 -0.00000000000E+00  0.00000000000E+00  0.50144864434E+02  0.50144864499E+02  0.25500000000E-02 0. -1.
          2   -1    0    0  501    0  0.00000000000E+00 -0.00000000000E+00 -0.18103786836E+04  0.18103786836E+04  0.25500000000E-02 0.  1.
    5000001    1    1    2    0    0 -0.17459240442E+03 -0.15308338610E+03 -0.87887057923E+03  0.92908262594E+03  0.19200000000E+03 0.  0.
   -5000001    1    1    2    0    0  0.17459240442E+03  0.15308338610E+03 -0.88136323998E+03  0.93144092221E+03  0.19200000000E+03 0.  0.
<mgrwt>
<rscale>  0 0.60259835E+03</rscale>
<asrwt>0</asrwt>
<pdfrwt beam="1">  1        2 0.25862549E+00 0.60259835E+03</pdfrwt>
<pdfrwt beam="2">  1       -2 0.71635532E-02 0.60259835E+03</pdfrwt>
<totfact> 0.12057018E+03</totfact>
</mgrwt>
</event>
<event>
 4    1  0.5863356E-005  0.4400473E+03  0.7818608E-02  0.1030732E+00
          2   -1    0    0  501    0  0.00000000000E+00  0.00000000000E+00  0.50253002102E+03  0.50253002102E+03  0.25500000000E-02 0.  1.
         -2   -1    0    0    0  501 -0.00000000000E+00 -0.00000000000E+00 -0.96333343777E+02  0.96333343811E+02  0.25500000000E-02 0. -1.
    5000001    1    1    2    0    0  0.61251870483E+02 -0.46332455252E+02  0.30537399647E+03  0.36880315314E+03  0.19200000000E+03 0.  0.
   -5000001    1    1    2    0    0 -0.61251870483E+02  0.46332455252E+02  0.10082268078E+03  0.23006021170E+03  0.19200000000E+03 0.  0.
<mgrwt>
<rscale>  0 0.44004726E+03</rscale>
<asrwt>0</asrwt>
<pdfrwt beam="1">  1        2 0.71790005E-01 0.44004726E+03</pdfrwt>
<pdfrwt beam="2">  1       -2 0.13761906E-01 0.44004726E+03</pdfrwt>
<totfact> 0.26774232E+03</totfact>
</mgrwt>
</event>
<event>
 4    1  0.5863356E-005  0.1053402E+04  0.7818608E-02  0.9251839E-01
         -2   -1    0    0    0  501 -0.00000000000E+00  0.00000000000E+00  0.12610352996E+04  0.12610352996E+04  0.25500000000E-02 0. -1.
          2   -1    0    0  501    0  0.00000000000E+00 -0.00000000000E+00 -0.21998885969E+03  0.21998885971E+03  0.25500000000E-02 0.  1.
    5000001    1    1    2    0    0  0.37019244581E+03  0.18757125592E+03  0.88802187971E+03  0.99883546284E+03  0.19200000000E+03 0.  0.
   -5000001    1    1    2    0    0 -0.37019244581E+03 -0.18757125592E+03  0.15302456021E+03  0.48218869648E+03  0.19200000000E+03 0.  0.
<mgrwt>
<rscale>  0 0.10534016E+04</rscale>
<asrwt>0</asrwt>
<pdfrwt beam="1">  1        2 0.31426980E-01 0.10534016E+04</pdfrwt>
<pdfrwt beam="2">  1       -2 0.18014790E+00 0.10534016E+04</pdfrwt>
<totfact> 0.30428640E+01</totfact>
</mgrwt>
</event>
<event>
 4    1  0.5863356E-005  0.5639869E+03  0.7818608E-02  0.9983074E-01
          2   -1    0    0  501    0  0.00000000000E+00  0.00000000000E+00  0.86047707025E+03  0.86047707025E+03  0.25500000000E-02 0.  1.
         -2   -1    0    0    0  501 -0.00000000000E+00 -0.00000000000E+00 -0.92414214276E+02  0.92414214311E+02  0.25500000000E-02 0. -1.
    5000001    1    1    2    0    0 -0.19667230729E+03  0.47051878805E+02  0.31310124607E+03  0.41927349790E+03  0.19200000000E+03 0.  0.
   -5000001    1    1    2    0    0  0.19667230729E+03 -0.47051878805E+02  0.45496160990E+03  0.53361778666E+03  0.19200000000E+03 0.  0.
<mgrwt>
<rscale>  0 0.56398692E+03</rscale>
<asrwt>0</asrwt>
<pdfrwt beam="1">  1        2 0.12292529E+00 0.56398692E+03</pdfrwt>
<pdfrwt beam="2">  1       -2 0.13202031E-01 0.56398692E+03</pdfrwt>
<totfact> 0.15032046E+03</totfact>
</mgrwt>
</event>
<event>
 4    1  0.5863356E-005  0.9288948E+03  0.7818608E-02  0.9390165E-01
         -2   -1    0    0    0  501 -0.00000000000E+00  0.00000000000E+00  0.18526455007E+03  0.18526455009E+03  0.25500000000E-02 0. -1.
          2   -1    0    0  501    0  0.00000000000E+00 -0.00000000000E+00 -0.11643424489E+04  0.11643424489E+04  0.25500000000E-02 0.  1.
    5000001    1    1    2    0    0  0.27453064737E+03  0.22841343670E+03 -0.16043607831E+03  0.43605448012E+03  0.19200000000E+03 0.  0.
   -5000001    1    1    2    0    0 -0.27453064737E+03 -0.22841343670E+03 -0.81864182048E+03  0.91355251883E+03  0.19200000000E+03 0.  0.
<mgrwt>
<rscale>  0 0.92889478E+03</rscale>
<asrwt>0</asrwt>
<pdfrwt beam="1">  1        2 0.16633463E+00 0.92889478E+03</pdfrwt>
<pdfrwt beam="2">  1       -2 0.26466365E-01 0.92889478E+03</pdfrwt>
<totfact> 0.28913484E+02</totfact>
</mgrwt>
</event>
<event>
 4    1  0.5863356E-005  0.9129690E+03  0.7818608E-02  0.9409513E-01
         -2   -1    0    0    0  501 -0.00000000000E+00  0.00000000000E+00  0.34266632851E+03  0.34266632852E+03  0.25500000000E-02 0.  1.
          2   -1    0    0  501    0  0.00000000000E+00 -0.00000000000E+00 -0.60810790709E+03  0.60810790710E+03  0.25500000000E-02 0. -1.
    5000001    1    1    2    0    0  0.25188643036E+03 -0.27783323254E+03 -0.31571277071E+03  0.52647567132E+03  0.19200000000E+03 0.  0.
   -5000001    1    1    2    0    0 -0.25188643036E+03  0.27783323254E+03  0.50271192126E+02  0.42429856429E+03  0.19200000000E+03 0.  0.
<mgrwt>
<rscale>  0 0.91296901E+03</rscale>
<asrwt>0</asrwt>
<pdfrwt beam="1">  1        2 0.86872558E-01 0.91296901E+03</pdfrwt>
<pdfrwt beam="2">  1       -2 0.48952333E-01 0.91296901E+03</pdfrwt>
<totfact> 0.21144246E+02</totfact>
</mgrwt>
</event>
<event>
 4    1  0.5863356E-005  0.1019193E+04  0.7818608E-02  0.9287742E-01
          2   -1    0    0  501    0  0.00000000000E+00  0.00000000000E+00  0.61678469929E+03  0.61678469930E+03  0.25500000000E-02 0.  1.
         -2   -1    0    0    0  501 -0.00000000000E+00 -0.00000000000E+00 -0.42103572539E+03  0.42103572540E+03  0.25500000000E-02 0. -1.
    5000001    1    1    2    0    0  0.37322779333E+03 -0.27972265457E+03  0.17187068345E+03  0.53286703878E+03  0.19200000000E+03 0.  0.
   -5000001    1    1    2    0    0 -0.37322779333E+03  0.27972265457E+03  0.23878290458E+02  0.50495338592E+03  0.19200000000E+03 0.  0.
<mgrwt>
<rscale>  0 0.10191926E+04</rscale>
<asrwt>0</asrwt>
<pdfrwt beam="1">  1        2 0.88112100E-01 0.10191926E+04</pdfrwt>
<pdfrwt beam="2">  1       -2 0.60147960E-01 0.10191926E+04</pdfrwt>
<totfact> 0.13499742E+02</totfact>
</mgrwt>
</event>
<event>
 4    1  0.5863356E-005  0.7551619E+03  0.7818608E-02  0.9627287E-01
         -2   -1    0    0    0  501 -0.00000000000E+00  0.00000000000E+00  0.14226811335E+04  0.14226811335E+04  0.25500000000E-02 0. -1.
          2   -1    0    0  501    0  0.00000000000E+00 -0.00000000000E+00 -0.10021033788E+03  0.10021033791E+03  0.25500000000E-02 0.  1.
    5000001    1    1    2    0    0 -0.30842662841E+03 -0.68874626380E+02  0.81525009245E+03  0.89519127147E+03  0.19200000000E+03 0.  0.
   -5000001    1    1    2    0    0  0.30842662841E+03  0.68874626380E+02  0.50722070314E+03  0.62770019991E+03  0.19200000000E+03 0.  0.
<mgrwt>
<rscale>  0 0.75516186E+03</rscale>
<asrwt>0</asrwt>
<pdfrwt beam="1">  1        2 0.14315764E-01 0.75516186E+03</pdfrwt>
<pdfrwt beam="2">  1       -2 0.20324014E+00 0.75516186E+03</pdfrwt>
<totfact> 0.54733282E+01</totfact>
</mgrwt>
</event>
<event>
 4    1  0.5863356E-005  0.5391335E+03  0.7818608E-02  0.1004041E+00
         -2   -1    0    0    0  501 -0.00000000000E+00  0.00000000000E+00  0.86246875391E+02  0.86246875428E+02  0.25500000000E-02 0. -1.
          2   -1    0    0  501    0  0.00000000000E+00 -0.00000000000E+00 -0.84253743042E+03  0.84253743042E+03  0.25500000000E-02 0.  1.
    5000001    1    1    2    0    0  0.68736682802E+02 -0.17076688608E+03 -0.45355623469E+03  0.52579779286E+03  0.19200000000E+03 0.  0.
   -5000001    1    1    2    0    0 -0.68736682802E+02  0.17076688608E+03 -0.30273432034E+03  0.40298651299E+03  0.19200000000E+03 0.  0.
<mgrwt>
<rscale>  0 0.53913346E+03</rscale>
<asrwt>0</asrwt>
<pdfrwt beam="1">  1        2 0.12036249E+00 0.53913346E+03</pdfrwt>
<pdfrwt beam="2">  1       -2 0.12320983E-01 0.53913346E+03</pdfrwt>
<totfact> 0.17322838E+03</totfact>
</mgrwt>
</event>
<event>
 4    1  0.5863356E-005  0.6460423E+03  0.7818608E-02  0.9814234E-01
         -2   -1    0    0    0  501 -0.00000000000E+00  0.00000000000E+00  0.11313437240E+03  0.11313437243E+03  0.25500000000E-02 0.  1.
          2   -1    0    0  501    0  0.00000000000E+00 -0.00000000000E+00 -0.92228964345E+03  0.92228964346E+03  0.25500000000E-02 0. -1.
    5000001    1    1    2    0    0  0.20049720717E+03  0.73242791749E+02 -0.16731559815E+03  0.33229827867E+03  0.19200000000E+03 0.  0.
   -5000001    1    1    2    0    0 -0.20049720717E+03 -0.73242791749E+02 -0.64183967290E+03  0.70312573722E+03  0.19200000000E+03 0.  0.
<mgrwt>
<rscale>  0 0.64604229E+03</rscale>
<asrwt>0</asrwt>
<pdfrwt beam="1">  1        2 0.13175566E+00 0.64604229E+03</pdfrwt>
<pdfrwt beam="2">  1       -2 0.16162054E-01 0.64604229E+03</pdfrwt>
<totfact> 0.97427353E+02</totfact>
</mgrwt>
</event>
<event>
 4    1  0.5863356E-005  0.5254475E+03  0.7818608E-02  0.1007342E+00
          2   -1    0    0  501    0  0.00000000000E+00  0.00000000000E+00  0.54637429687E+02  0.54637429746E+02  0.25500000000E-02 0.  1.
         -2   -1    0    0    0  501 -0.00000000000E+00 -0.00000000000E+00 -0.12633053270E+04  0.12633053270E+04  0.25500000000E-02 0. -1.
    5000001    1    1    2    0    0 -0.14464265411E+03 -0.99772216265E+02 -0.51446497787E+03  0.57655373208E+03  0.19200000000E+03 0.  0.
   -5000001    1    1    2    0    0  0.14464265411E+03  0.99772216265E+02 -0.69420291942E+03  0.74138902464E+03  0.19200000000E+03 0.  0.
<mgrwt>
<rscale>  0 0.52544745E+03</rscale>
<asrwt>0</asrwt>
<pdfrwt beam="1">  1        2 0.78053479E-02 0.52544745E+03</pdfrwt>
<pdfrwt beam="2">  1       -2 0.18047217E+00 0.52544745E+03</pdfrwt>
<totfact> 0.16845549E+02</totfact>
</mgrwt>
</event>
<event>
 4    1  0.5863356E-005  0.7120225E+03  0.7818608E-02  0.9696890E-01
          2   -1    0    0  501    0  0.00000000000E+00  0.00000000000E+00  0.52302364538E+03  0.52302364539E+03  0.25500000000E-02 0.  1.
         -2   -1    0    0    0  501 -0.00000000000E+00 -0.00000000000E+00 -0.24232940239E+03  0.24232940240E+03  0.25500000000E-02 0. -1.
    5000001    1    1    2    0    0  0.43726691315E+02  0.20521194923E+03  0.37052648021E+03  0.46709510828E+03  0.19200000000E+03 0.  0.
   -5000001    1    1    2    0    0 -0.43726691315E+02 -0.20521194923E+03 -0.89832237211E+02  0.29825793952E+03  0.19200000000E+03 0.  0.
<mgrwt>
<rscale>  0 0.71202249E+03</rscale>
<asrwt>0</asrwt>
<pdfrwt beam="1">  1        2 0.74717662E-01 0.71202249E+03</pdfrwt>
<pdfrwt beam="2">  1       -2 0.34618487E-01 0.71202249E+03</pdfrwt>
<totfact> 0.50131262E+02</totfact>
</mgrwt>
</event>
<event>
 4    1  0.5863356E-005  0.4087242E+03  0.7818608E-02  0.1040800E+00
         -2   -1    0    0    0  501 -0.00000000000E+00  0.00000000000E+00  0.77155455358E+02  0.77155455400E+02  0.25500000000E-02 0.  1.
          2   -1    0    0  501    0  0.00000000000E+00 -0.00000000000E+00 -0.54129513565E+03  0.54129513566E+03  0.25500000000E-02 0. -1.
    5000001    1    1    2    0    0  0.51425471303E+02 -0.22988055050E+02 -0.16919150297E+03  0.26203586482E+03  0.19200000000E+03 0.  0.
   -5000001    1    1    2    0    0 -0.51425471303E+02  0.22988055050E+02 -0.29494817732E+03  0.35641472624E+03  0.19200000000E+03 0.  0.
<mgrwt>
<rscale>  0 0.40872422E+03</rscale>
<asrwt>0</asrwt>
<pdfrwt beam="1">  1        2 0.77327874E-01 0.40872422E+03</pdfrwt>
<pdfrwt beam="2">  1       -2 0.11022208E-01 0.40872422E+03</pdfrwt>
<totfact> 0.35366597E+03</totfact>
</mgrwt>
</event>
<event>
 4    1  0.5863356E-005  0.7537862E+03  0.7818608E-02  0.9629429E-01
         -2   -1    0    0    0  501 -0.00000000000E+00  0.00000000000E+00  0.44946781060E+02  0.44946781133E+02  0.25500000000E-02 0. -1.
          2   -1    0    0  501    0  0.00000000000E+00 -0.00000000000E+00 -0.31603686265E+04  0.31603686265E+04  0.25500000000E-02 0.  1.
    5000001    1    1    2    0    0  0.23539526669E+03  0.22266288519E+03 -0.14983759205E+04  0.15449867608E+04  0.19200000000E+03 0.  0.
   -5000001    1    1    2    0    0 -0.23539526669E+03 -0.22266288519E+03 -0.16170459250E+04  0.16603286468E+04  0.19200000000E+03 0.  0.
<mgrwt>
<rscale>  0 0.75378617E+03</rscale>
<asrwt>0</asrwt>
<pdfrwt beam="1">  1        2 0.45148109E+00 0.75378617E+03</pdfrwt>
<pdfrwt beam="2">  1       -2 0.64209707E-02 0.75378617E+03</pdfrwt>
<totfact> 0.28091392E+02</totfact>
</mgrwt>
</event>
<event>
 4    1  0.5863356E-005  0.1181450E+04  0.7818608E-02  0.9129250E-01
          2   -1    0    0  501    0  0.00000000000E+00  0.00000000000E+00  0.10360757870E+04  0.10360757870E+04  0.25500000000E-02 0.  1.
         -2   -1    0    0    0  501 -0.00000000000E+00 -0.00000000000E+00 -0.33680546243E+03  0.33680546244E+03  0.25500000000E-02 0. -1.
    5000001    1    1    2    0    0 -0.49278440039E+03  0.18275717823E+03  0.56967156340E+03  0.79851508540E+03  0.19200000000E+03 0.  0.
   -5000001    1    1    2    0    0  0.49278440039E+03 -0.18275717823E+03  0.12959876114E+03  0.57436616400E+03  0.19200000000E+03 0.  0.
<mgrwt>
<rscale>  0 0.11814499E+04</rscale>
<asrwt>0</asrwt>
<pdfrwt beam="1">  1        2 0.14801083E+00 0.11814499E+04</pdfrwt>
<pdfrwt beam="2">  1       -2 0.48115066E-01 0.11814499E+04</pdfrwt>
<totfact> 0.10787795E+02</totfact>
</mgrwt>
</event>
<event>
 4    1  0.5863356E-005  0.7095888E+03  0.7818608E-02  0.9700973E-01
         -2   -1    0    0    0  501 -0.00000000000E+00  0.00000000000E+00  0.53456185334E+03  0.53456185335E+03  0.25500000000E-02 0. -1.
          2   -1    0    0  501    0  0.00000000000E+00 -0.00000000000E+00 -0.23548083051E+03  0.23548083052E+03  0.25500000000E-02 0.  1.
    5000001    1    1    2    0    0  0.17680084358E+03 -0.18292873289E+03  0.31868352568E+03  0.45071570768E+03  0.19200000000E+03 0.  0.
   -5000001    1    1    2    0    0 -0.17680084358E+03  0.18292873289E+03 -0.19602502846E+02  0.31932697620E+03  0.19200000000E+03 0.  0.
<mgrwt>
<rscale>  0 0.70958881E+03</rscale>
<asrwt>0</asrwt>
<pdfrwt beam="1">  1        2 0.33640119E-01 0.70958881E+03</pdfrwt>
<pdfrwt beam="2">  1       -2 0.76365978E-01 0.70958881E+03</pdfrwt>
<totfact> 0.24211960E+02</totfact>
</mgrwt>
</event>
<event>
 4    1  0.5863356E-005  0.8919409E+03  0.7818608E-02  0.9435712E-01
          2   -1    0    0  501    0  0.00000000000E+00  0.00000000000E+00  0.14922234569E+04  0.14922234569E+04  0.25500000000E-02 0.  1.
         -2   -1    0    0    0  501 -0.00000000000E+00 -0.00000000000E+00 -0.13328408820E+03  0.13328408823E+03  0.25500000000E-02 0. -1.
    5000001    1    1    2    0    0 -0.33737568658E+03 -0.21951274821E+03  0.68708092405E+03  0.81911683947E+03  0.19200000000E+03 0.  0.
   -5000001    1    1    2    0    0  0.33737568658E+03  0.21951274821E+03  0.67185844461E+03  0.80639070562E+03  0.19200000000E+03 0.  0.
<mgrwt>
<rscale>  0 0.89194090E+03</rscale>
<asrwt>0</asrwt>
<pdfrwt beam="1">  1        2 0.21317478E+00 0.89194090E+03</pdfrwt>
<pdfrwt beam="2">  1       -2 0.19040584E-01 0.89194090E+03</pdfrwt>
<totfact> 0.34413992E+02</totfact>
</mgrwt>
</event>
<event>
 4    1  0.5863356E-005  0.5353436E+03  0.7818608E-02  0.1004944E+00
          2   -1    0    0  501    0  0.00000000000E+00  0.00000000000E+00  0.19736857033E+04  0.19736857033E+04  0.25500000000E-02 0.  1.
         -2   -1    0    0    0  501 -0.00000000000E+00 -0.00000000000E+00 -0.36301729924E+02  0.36301730013E+02  0.25500000000E-02 0. -1.
    5000001    1    1    2    0    0 -0.14601563306E+03 -0.76194205081E+02  0.64012741293E+03  0.68829733893E+03  0.19200000000E+03 0.  0.
   -5000001    1    1    2    0    0  0.14601563306E+03  0.76194205081E+02  0.12972565604E+04  0.13216900944E+04  0.19200000000E+03 0.  0.
<mgrwt>
<rscale>  0 0.53534365E+03</rscale>
<asrwt>0</asrwt>
<pdfrwt beam="1">  1        2 0.28195507E+00 0.53534365E+03</pdfrwt>
<pdfrwt beam="2">  1       -2 0.51859620E-02 0.53534365E+03</pdfrwt>
<totfact> 0.16606175E+03</totfact>
</mgrwt>
</event>
<event>
 4    1  0.5863356E-005  0.5577138E+03  0.7818608E-02  0.9997241E-01
          2   -1    0    0  501    0  0.00000000000E+00  0.00000000000E+00  0.19325411727E+04  0.19325411727E+04  0.25500000000E-02 0.  1.
         -2   -1    0    0    0  501 -0.00000000000E+00 -0.00000000000E+00 -0.40237786137E+02  0.40237786217E+02  0.25500000000E-02 0. -1.
    5000001    1    1    2    0    0  0.10484041366E+03 -0.15947952204E+03  0.70960580851E+03  0.75949301100E+03  0.19200000000E+03 0.  0.
   -5000001    1    1    2    0    0 -0.10484041366E+03  0.15947952204E+03  0.11826975781E+04  0.12132859480E+04  0.19200000000E+03 0.  0.
<mgrwt>
<rscale>  0 0.55771383E+03</rscale>
<asrwt>0</asrwt>
<pdfrwt beam="1">  1        2 0.27607727E+00 0.55771383E+03</pdfrwt>
<pdfrwt beam="2">  1       -2 0.57482559E-02 0.55771383E+03</pdfrwt>
<totfact> 0.14822006E+03</totfact>
</mgrwt>
</event>
<event>
 4    1  0.5863356E-005  0.8405786E+03  0.7818608E-02  0.9503070E-01
         -2   -1    0    0    0  501 -0.00000000000E+00  0.00000000000E+00  0.32336845923E+03  0.32336845924E+03  0.25500000000E-02 0. -1.
          2   -1    0    0  501    0  0.00000000000E+00 -0.00000000000E+00 -0.54625956631E+03  0.54625956631E+03  0.25500000000E-02 0.  1.
    5000001    1    1    2    0    0  0.70760751050E+02 -0.36354760995E+03 -0.16425028667E+03  0.44834819645E+03  0.19200000000E+03 0.  0.
   -5000001    1    1    2    0    0 -0.70760751050E+02  0.36354760995E+03 -0.58640820417E+02  0.42127982910E+03  0.19200000000E+03 0.  0.
<mgrwt>
<rscale>  0 0.84057864E+03</rscale>
<asrwt>0</asrwt>
<pdfrwt beam="1">  1        2 0.78037081E-01 0.84057864E+03</pdfrwt>
<pdfrwt beam="2">  1       -2 0.46195494E-01 0.84057864E+03</pdfrwt>
<totfact> 0.27048634E+02</totfact>
</mgrwt>
</event>
<event>
 4    1  0.5863356E-005  0.5846945E+03  0.7818608E-02  0.9937679E-01
         -2   -1    0    0    0  501 -0.00000000000E+00  0.00000000000E+00  0.13971577977E+03  0.13971577979E+03  0.25500000000E-02 0. -1.
          2   -1    0    0  501    0  0.00000000000E+00 -0.00000000000E+00 -0.61171992551E+03  0.61171992551E+03  0.25500000000E-02 0.  1.
    5000001    1    1    2    0    0 -0.11203969346E+02 -0.19155204603E+03 -0.96483677626E+02  0.28808126512E+03  0.19200000000E+03 0.  0.
   -5000001    1    1    2    0    0  0.11203969346E+02  0.19155204603E+03 -0.37552046811E+03  0.46335444018E+03  0.19200000000E+03 0.  0.
<mgrwt>
<rscale>  0 0.58469454E+03</rscale>
<asrwt>0</asrwt>
<pdfrwt beam="1">  1        2 0.87388560E-01 0.58469454E+03</pdfrwt>
<pdfrwt beam="2">  1       -2 0.19959397E-01 0.58469454E+03</pdfrwt>
<totfact> 0.11369583E+03</totfact>
</mgrwt>
</event>
<event>
 4    1  0.5863356E-005  0.6971274E+03  0.7818608E-02  0.9722157E-01
          2   -1    0    0  501    0  0.00000000000E+00  0.00000000000E+00  0.14752968086E+04  0.14752968086E+04  0.25500000000E-02 0.  1.
         -2   -1    0    0    0  501 -0.00000000000E+00 -0.00000000000E+00 -0.82354042719E+02  0.82354042758E+02  0.25500000000E-02 0. -1.
    5000001    1    1    2    0    0  0.25074054042E+03  0.14362961065E+03  0.77166009850E+03  0.84606358584E+03  0.19200000000E+03 0.  0.
   -5000001    1    1    2    0    0 -0.25074054042E+03 -0.14362961065E+03  0.62128266740E+03  0.71158726554E+03  0.19200000000E+03 0.  0.
<mgrwt>
<rscale>  0 0.69712741E+03</rscale>
<asrwt>0</asrwt>
<pdfrwt beam="1">  1        2 0.21075666E+00 0.69712741E+03</pdfrwt>
<pdfrwt beam="2">  1       -2 0.11764865E-01 0.69712741E+03</pdfrwt>
<totfact> 0.80140678E+02</totfact>
</mgrwt>
</event>
<event>
 4    1  0.5863356E-005  0.4934620E+03  0.7818608E-02  0.1015500E+00
         -2   -1    0    0    0  501 -0.00000000000E+00  0.00000000000E+00  0.22137234532E+03  0.22137234533E+03  0.25500000000E-02 0. -1.
          2   -1    0    0  501    0  0.00000000000E+00 -0.00000000000E+00 -0.27499455886E+03  0.27499455887E+03  0.25500000000E-02 0.  1.
    5000001    1    1    2    0    0 -0.72635969923E+02 -0.60536776772E+02 -0.15029985783E+03  0.26152386647E+03  0.19200000000E+03 0.  0.
   -5000001    1    1    2    0    0  0.72635969923E+02  0.60536776772E+02  0.96677644283E+02  0.23484303774E+03  0.19200000000E+03 0.  0.
<mgrwt>
<rscale>  0 0.49346202E+03</rscale>
<asrwt>0</asrwt>
<pdfrwt beam="1">  1        2 0.39284937E-01 0.49346202E+03</pdfrwt>
<pdfrwt beam="2">  1       -2 0.31624621E-01 0.49346202E+03</pdfrwt>
<totfact> 0.12190224E+03</totfact>
</mgrwt>
</event>
<event>
 4    1  0.5863356E-005  0.5494973E+03  0.7818608E-02  0.1001610E+00
         -2   -1    0    0    0  501 -0.00000000000E+00  0.00000000000E+00  0.36060931417E+03  0.36060931418E+03  0.25500000000E-02 0. -1.
          2   -1    0    0  501    0  0.00000000000E+00 -0.00000000000E+00 -0.20933131703E+03  0.20933131705E+03  0.25500000000E-02 0.  1.
    5000001    1    1    2    0    0 -0.17181132646E+03  0.94707832884E+02  0.63627249837E+02  0.28178206549E+03  0.19200000000E+03 0.  0.
   -5000001    1    1    2    0    0  0.17181132646E+03 -0.94707832884E+02  0.87650747301E+02  0.28815856574E+03  0.19200000000E+03 0.  0.
<mgrwt>
<rscale>  0 0.54949731E+03</rscale>
<asrwt>0</asrwt>
<pdfrwt beam="1">  1        2 0.29904474E-01 0.54949731E+03</pdfrwt>
<pdfrwt beam="2">  1       -2 0.51515616E-01 0.54949731E+03</pdfrwt>
<totfact> 0.63990586E+02</totfact>
</mgrwt>
</event>
<event>
 4    1  0.5863356E-005  0.5873572E+03  0.7818608E-02  0.9931989E-01
          2   -1    0    0  501    0  0.00000000000E+00  0.00000000000E+00  0.36531075642E+03  0.36531075643E+03  0.25500000000E-02 0.  1.
         -2   -1    0    0    0  501 -0.00000000000E+00 -0.00000000000E+00 -0.23609247800E+03  0.23609247802E+03  0.25500000000E-02 0. -1.
    5000001    1    1    2    0    0  0.60759114256E-01  0.21942318642E+03  0.28603116856E+02  0.29296531659E+03  0.19200000000E+03 0.  0.
   -5000001    1    1    2    0    0 -0.60759114256E-01 -0.21942318642E+03  0.10061516156E+03  0.30843791785E+03  0.19200000000E+03 0.  0.
<mgrwt>
<rscale>  0 0.58735721E+03</rscale>
<asrwt>0</asrwt>
<pdfrwt beam="1">  1        2 0.52187250E-01 0.58735721E+03</pdfrwt>
<pdfrwt beam="2">  1       -2 0.33727497E-01 0.58735721E+03</pdfrwt>
<totfact> 0.79033814E+02</totfact>
</mgrwt>
</event>
<event>
 4    1  0.5863356E-005  0.5454739E+03  0.7818608E-02  0.1002547E+00
          2   -1    0    0  501    0  0.00000000000E+00  0.00000000000E+00  0.15571100515E+04  0.15571100515E+04  0.25500000000E-02 0.  1.
         -2   -1    0    0    0  501 -0.00000000000E+00 -0.00000000000E+00 -0.47771483510E+02  0.47771483578E+02  0.25500000000E-02 0. -1.
    5000001    1    1    2    0    0 -0.84892033540E+02  0.16400738689E+03  0.92663895247E+03  0.96417261346E+03  0.19200000000E+03 0.  0.
   -5000001    1    1    2    0    0  0.84892033540E+02 -0.16400738689E+03  0.58269961548E+03  0.64070892158E+03  0.19200000000E+03 0.  0.
<mgrwt>
<rscale>  0 0.54547395E+03</rscale>
<asrwt>0</asrwt>
<pdfrwt beam="1">  1        2 0.22244428E+00 0.54547395E+03</pdfrwt>
<pdfrwt beam="2">  1       -2 0.68244982E-02 0.54547395E+03</pdfrwt>
<totfact> 0.17554048E+03</totfact>
</mgrwt>
</event>
<event>
 4    1  0.5863356E-005  0.8157685E+03  0.7818608E-02  0.9537469E-01
         -2   -1    0    0    0  501 -0.00000000000E+00  0.00000000000E+00  0.17724184535E+03  0.17724184537E+03  0.25500000000E-02 0. -1.
          2   -1    0    0  501    0  0.00000000000E+00 -0.00000000000E+00 -0.93865850231E+03  0.93865850231E+03  0.25500000000E-02 0.  1.
    5000001    1    1    2    0    0  0.31963788316E+03  0.11441112425E+03 -0.54398513905E+03  0.66935947980E+03  0.19200000000E+03 0.  0.
   -5000001    1    1    2    0    0 -0.31963788316E+03 -0.11441112425E+03 -0.21743151791E+03  0.44654086788E+03  0.19200000000E+03 0.  0.
<mgrwt>
<rscale>  0 0.81576851E+03</rscale>
<asrwt>0</asrwt>
<pdfrwt beam="1">  1        2 0.13409407E+00 0.81576851E+03</pdfrwt>
<pdfrwt beam="2">  1       -2 0.25320264E-01 0.81576851E+03</pdfrwt>
<totfact> 0.43083677E+02</totfact>
</mgrwt>
</event>
<event>
 4    1  0.5863356E-005  0.8290456E+03  0.7818608E-02  0.9518901E-01
         -2   -1    0    0    0  501 -0.00000000000E+00  0.00000000000E+00  0.50587071327E+03  0.50587071328E+03  0.25500000000E-02 0. -1.
          2   -1    0    0  501    0  0.00000000000E+00 -0.00000000000E+00 -0.33967007262E+03  0.33967007263E+03  0.25500000000E-02 0.  1.
    5000001    1    1    2    0    0  0.27109700855E+03 -0.24793341334E+03  0.83874652039E+02  0.42292259664E+03  0.19200000000E+03 0.  0.
   -5000001    1    1    2    0    0 -0.27109700855E+03  0.24793341334E+03  0.82325988618E+02  0.42261818926E+03  0.19200000000E+03 0.  0.
<mgrwt>
<rscale>  0 0.82904558E+03</rscale>
<asrwt>0</asrwt>
<pdfrwt beam="1">  1        2 0.48524296E-01 0.82904558E+03</pdfrwt>
<pdfrwt beam="2">  1       -2 0.72267245E-01 0.82904558E+03</pdfrwt>
<totfact> 0.18115507E+02</totfact>
</mgrwt>
</event>
<event>
 4    1  0.5863356E-005  0.5324679E+03  0.7818608E-02  0.1005635E+00
         -2   -1    0    0    0  501 -0.00000000000E+00  0.00000000000E+00  0.11047746172E+03  0.11047746175E+03  0.25500000000E-02 0. -1.
          2   -1    0    0  501    0  0.00000000000E+00 -0.00000000000E+00 -0.64158351516E+03  0.64158351516E+03  0.25500000000E-02 0.  1.
    5000001    1    1    2    0    0 -0.44661037219E+02  0.14565595097E+03 -0.41237707737E+03  0.47971774851E+03  0.19200000000E+03 0.  0.
   -5000001    1    1    2    0    0  0.44661037219E+02 -0.14565595097E+03 -0.11872897607E+03  0.27234322840E+03  0.19200000000E+03 0.  0.
<mgrwt>
<rscale>  0 0.53246791E+03</rscale>
<asrwt>0</asrwt>
<pdfrwt beam="1">  1        2 0.91654786E-01 0.53246791E+03</pdfrwt>
<pdfrwt beam="2">  1       -2 0.15782495E-01 0.53246791E+03</pdfrwt>
<totfact> 0.16071254E+03</totfact>
</mgrwt>
</event>
<event>
 4    1  0.5863356E-005  0.5576462E+03  0.7818608E-02  0.9997395E-01
         -2   -1    0    0    0  501 -0.00000000000E+00  0.00000000000E+00  0.20882200874E+03  0.20882200875E+03  0.25500000000E-02 0. -1.
          2   -1    0    0  501    0  0.00000000000E+00 -0.00000000000E+00 -0.37228984050E+03  0.37228984051E+03  0.25500000000E-02 0.  1.
    5000001    1    1    2    0    0 -0.19324159621E+03 -0.36054114591E+02 -0.32456663101E+02  0.27669414281E+03  0.19200000000E+03 0.  0.
   -5000001    1    1    2    0    0  0.19324159621E+03  0.36054114591E+02 -0.13101116866E+03  0.30441770645E+03  0.19200000000E+03 0.  0.
<mgrwt>
<rscale>  0 0.55764617E+03</rscale>
<asrwt>0</asrwt>
<pdfrwt beam="1">  1        2 0.53184263E-01 0.55764617E+03</pdfrwt>
<pdfrwt beam="2">  1       -2 0.29831716E-01 0.55764617E+03</pdfrwt>
<totfact> 0.97298857E+02</totfact>
</mgrwt>
</event>
<event>
 4    1  0.5863356E-005  0.6457531E+03  0.7818608E-02  0.9814781E-01
         -2   -1    0    0    0  501 -0.00000000000E+00  0.00000000000E+00  0.19621680401E+03  0.19621680403E+03  0.25500000000E-02 0.  1.
          2   -1    0    0  501    0  0.00000000000E+00 -0.00000000000E+00 -0.53129626609E+03  0.53129626610E+03  0.25500000000E-02 0. -1.
    5000001    1    1    2    0    0  0.18655949691E+03  0.15015984322E+03 -0.54693756794E+02  0.31178170478E+03  0.19200000000E+03 0.  0.
   -5000001    1    1    2    0    0 -0.18655949691E+03 -0.15015984322E+03 -0.28038570529E+03  0.41573136535E+03  0.19200000000E+03 0.  0.
<mgrwt>
<rscale>  0 0.64575307E+03</rscale>
<asrwt>0</asrwt>
<pdfrwt beam="1">  1        2 0.75899466E-01 0.64575307E+03</pdfrwt>
<pdfrwt beam="2">  1       -2 0.28030972E-01 0.64575307E+03</pdfrwt>
<totfact> 0.73062389E+02</totfact>
</mgrwt>
</event>
<event>
 4    1  0.5863356E-005  0.5590011E+03  0.7818608E-02  0.9994317E-01
         -2   -1    0    0    0  501 -0.00000000000E+00  0.00000000000E+00  0.34983895880E+03  0.34983895881E+03  0.25500000000E-02 0. -1.
          2   -1    0    0  501    0  0.00000000000E+00 -0.00000000000E+00 -0.22330430759E+03  0.22330430760E+03  0.25500000000E-02 0.  1.
    5000001    1    1    2    0    0 -0.10787576509E+02 -0.17333108936E+03  0.17127229301E+03  0.31041623137E+03  0.19200000000E+03 0.  0.
   -5000001    1    1    2    0    0  0.10787576509E+02  0.17333108936E+03 -0.44737641798E+02  0.26272703504E+03  0.19200000000E+03 0.  0.
<mgrwt>
<rscale>  0 0.55900106E+03</rscale>
<asrwt>0</asrwt>
<pdfrwt beam="1">  1        2 0.31900616E-01 0.55900106E+03</pdfrwt>
<pdfrwt beam="2">  1       -2 0.49976993E-01 0.55900106E+03</pdfrwt>
<totfact> 0.63298202E+02</totfact>
</mgrwt>
</event>
<event>
 4    1  0.5863356E-005  0.5820635E+03  0.7818608E-02  0.9943334E-01
          2   -1    0    0  501    0  0.00000000000E+00  0.00000000000E+00  0.69141974401E+03  0.69141974401E+03  0.25500000000E-02 0.  1.
         -2   -1    0    0    0  501 -0.00000000000E+00 -0.00000000000E+00 -0.12250080022E+03  0.12250080025E+03  0.25500000000E-02 0. -1.
    5000001    1    1    2    0    0 -0.59867275251E+02 -0.18486873304E+03  0.42481604096E+03  0.50506752792E+03  0.19200000000E+03 0.  0.
   -5000001    1    1    2    0    0  0.59867275251E+02  0.18486873304E+03  0.14410290283E+03  0.30885301634E+03  0.19200000000E+03 0.  0.
<mgrwt>
<rscale>  0 0.58206347E+03</rscale>
<asrwt>0</asrwt>
<pdfrwt beam="1">  1        2 0.98774247E-01 0.58206347E+03</pdfrwt>
<pdfrwt beam="2">  1       -2 0.17500115E-01 0.58206347E+03</pdfrwt>
<totfact> 0.12318111E+03</totfact>
</mgrwt>
</event>
<event>
 4    1  0.5863356E-005  0.4873174E+03  0.7818608E-02  0.1017143E+00
         -2   -1    0    0    0  501 -0.00000000000E+00  0.00000000000E+00  0.10247556084E+03  0.10247556087E+03  0.25500000000E-02 0. -1.
          2   -1    0    0  501    0  0.00000000000E+00 -0.00000000000E+00 -0.57935349207E+03  0.57935349207E+03  0.25500000000E-02 0.  1.
    5000001    1    1    2    0    0  0.71080531522E+01  0.14976069128E+03 -0.24568014088E+03  0.34597907552E+03  0.19200000000E+03 0.  0.
   -5000001    1    1    2    0    0 -0.71080531522E+01 -0.14976069128E+03 -0.23119779035E+03  0.33584997742E+03  0.19200000000E+03 0.  0.
<mgrwt>
<rscale>  0 0.48731745E+03</rscale>
<asrwt>0</asrwt>
<pdfrwt beam="1">  1        2 0.82764783E-01 0.48731745E+03</pdfrwt>
<pdfrwt beam="2">  1       -2 0.14639366E-01 0.48731745E+03</pdfrwt>
<totfact> 0.20551998E+03</totfact>
</mgrwt>
</event>
<event>
 4    1  0.5863356E-005  0.7029259E+03  0.7818608E-02  0.9712242E-01
         -2   -1    0    0    0  501 -0.00000000000E+00  0.00000000000E+00  0.52216365403E+02  0.52216365465E+02  0.25500000000E-02 0. -1.
          2   -1    0    0  501    0  0.00000000000E+00 -0.00000000000E+00 -0.23656603995E+04  0.23656603995E+04  0.25500000000E-02 0.  1.
    5000001    1    1    2    0    0 -0.21905507499E+03 -0.18204925476E+03 -0.90081122922E+03  0.96408087199E+03  0.19200000000E+03 0.  0.
   -5000001    1    1    2    0    0  0.21905507499E+03  0.18204925476E+03 -0.14126328049E+04  0.14537958930E+04  0.19200000000E+03 0.  0.
<mgrwt>
<rscale>  0 0.70292585E+03</rscale>
<asrwt>0</asrwt>
<pdfrwt beam="1">  1        2 0.33795142E+00 0.70292585E+03</pdfrwt>
<pdfrwt beam="2">  1       -2 0.74594823E-02 0.70292585E+03</pdfrwt>
<totfact> 0.58911266E+02</totfact>
</mgrwt>
</event>
<event>
 4    1  0.5863356E-005  0.4785705E+03  0.7818608E-02  0.1019529E+00
          2   -1    0    0  501    0  0.00000000000E+00  0.00000000000E+00  0.62730114786E+03  0.62730114787E+03  0.25500000000E-02 0.  1.
         -2   -1    0    0    0  501 -0.00000000000E+00 -0.00000000000E+00 -0.91275832600E+02  0.91275832635E+02  0.25500000000E-02 0. -1.
    5000001    1    1    2    0    0 -0.47539593854E+02  0.13462017712E+03  0.27295384856E+03  0.36297439099E+03  0.19200000000E+03 0.  0.
   -5000001    1    1    2    0    0  0.47539593854E+02 -0.13462017712E+03  0.26307146670E+03  0.35560258951E+03  0.19200000000E+03 0.  0.
<mgrwt>
<rscale>  0 0.47857052E+03</rscale>
<asrwt>0</asrwt>
<pdfrwt beam="1">  1        2 0.89614450E-01 0.47857052E+03</pdfrwt>
<pdfrwt beam="2">  1       -2 0.13039405E-01 0.47857052E+03</pdfrwt>
<totfact> 0.22695221E+03</totfact>
</mgrwt>
</event>
<event>
 4    1  0.5863356E-005  0.4835356E+03  0.7818608E-02  0.1018168E+00
          2   -1    0    0  501    0  0.00000000000E+00  0.00000000000E+00  0.35443506687E+03  0.35443506688E+03  0.25500000000E-02 0.  1.
         -2   -1    0    0    0  501 -0.00000000000E+00 -0.00000000000E+00 -0.16491503408E+03  0.16491503410E+03  0.25500000000E-02 0. -1.
    5000001    1    1    2    0    0  0.12921163214E+03 -0.19172232203E+02  0.22513869083E+02  0.23331115419E+03  0.19200000000E+03 0.  0.
   -5000001    1    1    2    0    0 -0.12921163214E+03  0.19172232203E+02  0.16700616371E+03  0.28603894680E+03  0.19200000000E+03 0.  0.
<mgrwt>
<rscale>  0 0.48353561E+03</rscale>
<asrwt>0</asrwt>
<pdfrwt beam="1">  1        2 0.50633581E-01 0.48353561E+03</pdfrwt>
<pdfrwt beam="2">  1       -2 0.23559291E-01 0.48353561E+03</pdfrwt>
<totfact> 0.15731781E+03</totfact>
</mgrwt>
</event>
<event>
 4    1  0.5863356E-005  0.9174922E+03  0.7818608E-02  0.9403976E-01
         -2   -1    0    0    0  501 -0.00000000000E+00  0.00000000000E+00  0.28059902861E+03  0.28059902862E+03  0.25500000000E-02 0. -1.
          2   -1    0    0  501    0  0.00000000000E+00 -0.00000000000E+00 -0.74999544177E+03  0.74999544178E+03  0.25500000000E-02 0.  1.
    5000001    1    1    2    0    0  0.40804530741E+03 -0.37384093047E+02 -0.31939516357E+03  0.55387346373E+03  0.19200000000E+03 0.  0.
   -5000001    1    1    2    0    0 -0.40804530741E+03  0.37384093047E+02 -0.15000124959E+03  0.47672100666E+03  0.19200000000E+03 0.  0.
<mgrwt>
<rscale>  0 0.91749222E+03</rscale>
<asrwt>0</asrwt>
<pdfrwt beam="1">  1        2 0.10714220E+00 0.91749222E+03</pdfrwt>
<pdfrwt beam="2">  1       -2 0.40085576E-01 0.91749222E+03</pdfrwt>
<totfact> 0.24330053E+02</totfact>
</mgrwt>
</event>
<event>
 4    1  0.5863356E-005  0.2048268E+04  0.7818608E-02  0.8584380E-01
         -2   -1    0    0    0  501 -0.00000000000E+00  0.00000000000E+00  0.39741915230E+03  0.39741915231E+03  0.25500000000E-02 0. -1.
          2   -1    0    0  501    0  0.00000000000E+00 -0.00000000000E+00 -0.26391545531E+04  0.26391545531E+04  0.25500000000E-02 0.  1.
    5000001    1    1    2    0    0  0.50466683435E+03 -0.86535581101E+03 -0.12572042101E+04  0.16189366013E+04  0.19200000000E+03 0.  0.
   -5000001    1    1    2    0    0 -0.50466683435E+03  0.86535581101E+03 -0.98453119074E+03  0.14176371041E+04  0.19200000000E+03 0.  0.
<mgrwt>
<rscale>  0 0.20482681E+04</rscale>
<asrwt>0</asrwt>
<pdfrwt beam="1">  1        2 0.37702207E+00 0.20482681E+04</pdfrwt>
<pdfrwt beam="2">  1       -2 0.56774166E-01 0.20482681E+04</pdfrwt>
<totfact> 0.10049324E+01</totfact>
</mgrwt>
</event>
<event>
 4    1  0.5863356E-005  0.9427808E+03  0.7818608E-02  0.9373629E-01
          2   -1    0    0  501    0  0.00000000000E+00  0.00000000000E+00  0.63433155121E+03  0.63433155122E+03  0.25500000000E-02 0.  1.
         -2   -1    0    0    0  501 -0.00000000000E+00 -0.00000000000E+00 -0.35030401589E+03  0.35030401590E+03  0.25500000000E-02 0. -1.
    5000001    1    1    2    0    0  0.69153659468E+02 -0.34268856384E+03  0.40441937098E+03  0.56801118653E+03  0.19200000000E+03 0.  0.
   -5000001    1    1    2    0    0 -0.69153659468E+02  0.34268856384E+03 -0.12039183566E+03  0.41662438059E+03  0.19200000000E+03 0.  0.
<mgrwt>
<rscale>  0 0.94278076E+03</rscale>
<asrwt>0</asrwt>
<pdfrwt beam="1">  1        2 0.90618793E-01 0.94278076E+03</pdfrwt>
<pdfrwt beam="2">  1       -2 0.50043431E-01 0.94278076E+03</pdfrwt>
<totfact> 0.19193636E+02</totfact>
</mgrwt>
</event>
<event>
 4    1  0.5863356E-005  0.5448463E+03  0.7818608E-02  0.1002694E+00
          2   -1    0    0  501    0  0.00000000000E+00  0.00000000000E+00  0.27726819806E+03  0.27726819807E+03  0.25500000000E-02 0.  1.
         -2   -1    0    0    0  501 -0.00000000000E+00 -0.00000000000E+00 -0.26766276264E+03  0.26766276265E+03  0.25500000000E-02 0. -1.
    5000001    1    1    2    0    0  0.19040316076E+03  0.30517809701E+01  0.37788062262E+02  0.27304690924E+03  0.19200000000E+03 0.  0.
   -5000001    1    1    2    0    0 -0.19040316076E+03 -0.30517809701E+01 -0.28182626836E+02  0.27188405148E+03  0.19200000000E+03 0.  0.
<mgrwt>
<rscale>  0 0.54484630E+03</rscale>
<asrwt>0</asrwt>
<pdfrwt beam="1">  1        2 0.39609743E-01 0.54484630E+03</pdfrwt>
<pdfrwt beam="2">  1       -2 0.38237537E-01 0.54484630E+03</pdfrwt>
<totfact> 0.84401272E+02</totfact>
</mgrwt>
</event>
<event>
 4    1  0.5863356E-005  0.2540347E+04  0.7818608E-02  0.8388751E-01
          2   -1    0    0  501    0  0.00000000000E+00  0.00000000000E+00  0.25945487737E+04  0.25945487737E+04  0.25500000000E-02 0.  1.
         -2   -1    0    0    0  501 -0.00000000000E+00 -0.00000000000E+00 -0.62181925537E+03  0.62181925538E+03  0.25500000000E-02 0. -1.
    5000001    1    1    2    0    0 -0.72959759659E+03 -0.74907550070E+03  0.10639324437E+03  0.10684616423E+04  0.19200000000E+03 0.  0.
   -5000001    1    1    2    0    0  0.72959759659E+03  0.74907550070E+03  0.18663362739E+04  0.21479063867E+04  0.19200000000E+03 0.  0.
<mgrwt>
<rscale>  0 0.25403467E+04</rscale>
<asrwt>0</asrwt>
<pdfrwt beam="1">  1        2 0.37064982E+00 0.25403467E+04</pdfrwt>
<pdfrwt beam="2">  1       -2 0.88831324E-01 0.25403467E+04</pdfrwt>
<totfact> 0.38231255E+00</totfact>
</mgrwt>
</event>
<event>
 4    1  0.5863356E-005  0.4817928E+03  0.7818608E-02  0.1018644E+00
          2   -1    0    0  501    0  0.00000000000E+00  0.00000000000E+00  0.31297783640E+03  0.31297783641E+03  0.25500000000E-02 0.  1.
         -2   -1    0    0    0  501 -0.00000000000E+00 -0.00000000000E+00 -0.18541593873E+03  0.18541593874E+03  0.25500000000E-02 0. -1.
    5000001    1    1    2    0    0  0.66093737314E+02 -0.11012505402E+03  0.13448187657E+03  0.26729250786E+03  0.19200000000E+03 0.  0.
   -5000001    1    1    2    0    0 -0.66093737314E+02  0.11012505402E+03 -0.69199788985E+01  0.23110126729E+03  0.19200000000E+03 0.  0.
<mgrwt>
<rscale>  0 0.48179282E+03</rscale>
<asrwt>0</asrwt>
<pdfrwt beam="1">  1        2 0.44711119E-01 0.48179282E+03</pdfrwt>
<pdfrwt beam="2">  1       -2 0.26487991E-01 0.48179282E+03</pdfrwt>
<totfact> 0.14624698E+03</totfact>
</mgrwt>
</event>
<event>
 4    1  0.5863356E-005  0.5782626E+03  0.7818608E-02  0.9951559E-01
         -2   -1    0    0    0  501 -0.00000000000E+00  0.00000000000E+00  0.51131132990E+02  0.51131133054E+02  0.25500000000E-02 0. -1.
          2   -1    0    0  501    0  0.00000000000E+00 -0.00000000000E+00 -0.16349514076E+04  0.16349514076E+04  0.25500000000E-02 0.  1.
    5000001    1    1    2    0    0  0.15613104017E+03 -0.14841731195E+03 -0.84474260093E+03  0.89266940242E+03  0.19200000000E+03 0.  0.
   -5000001    1    1    2    0    0 -0.15613104017E+03  0.14841731195E+03 -0.73907767366E+03  0.79341313821E+03  0.19200000000E+03 0.  0.
<mgrwt>
<rscale>  0 0.57826263E+03</rscale>
<asrwt>0</asrwt>
<pdfrwt beam="1">  1        2 0.23356446E+00 0.57826263E+03</pdfrwt>
<pdfrwt beam="2">  1       -2 0.73044486E-02 0.57826263E+03</pdfrwt>
<totfact> 0.14366522E+03</totfact>
</mgrwt>
</event>
<event>
 4    1  0.5863356E-005  0.7150356E+03  0.7818608E-02  0.9691859E-01
          2   -1    0    0  501    0  0.00000000000E+00  0.00000000000E+00  0.61199935382E+03  0.61199935382E+03  0.25500000000E-02 0.  1.
         -2   -1    0    0    0  501 -0.00000000000E+00 -0.00000000000E+00 -0.20885475354E+03  0.20885475356E+03  0.25500000000E-02 0. -1.
    5000001    1    1    2    0    0 -0.15632491667E+03 -0.12073083440E+03 -0.60062682241E+02  0.28193073572E+03  0.19200000000E+03 0.  0.
   -5000001    1    1    2    0    0  0.15632491667E+03  0.12073083440E+03  0.46320728252E+03  0.53892337166E+03  0.19200000000E+03 0.  0.
<mgrwt>
<rscale>  0 0.71503559E+03</rscale>
<asrwt>0</asrwt>
<pdfrwt beam="1">  1        2 0.87428479E-01 0.71503559E+03</pdfrwt>
<pdfrwt beam="2">  1       -2 0.29836393E-01 0.71503559E+03</pdfrwt>
<totfact> 0.55118426E+02</totfact>
</mgrwt>
</event>
<event>
 4    1  0.5863356E-005  0.8861688E+03  0.7818608E-02  0.9443038E-01
         -2   -1    0    0    0  501 -0.00000000000E+00  0.00000000000E+00  0.58278877581E+02  0.58278877637E+02  0.25500000000E-02 0. -1.
          2   -1    0    0  501    0  0.00000000000E+00 -0.00000000000E+00 -0.33686955881E+04  0.33686955881E+04  0.25500000000E-02 0.  1.
    5000001    1    1    2    0    0  0.31344202046E+03 -0.16662073092E+03 -0.94791147645E+03  0.10302468322E+04  0.19200000000E+03 0.  0.
   -5000001    1    1    2    0    0 -0.31344202046E+03  0.16662073092E+03 -0.23625052341E+04  0.23967276335E+04  0.19200000000E+03 0.  0.
<mgrwt>
<rscale>  0 0.88616883E+03</rscale>
<asrwt>0</asrwt>
<pdfrwt beam="1">  1        2 0.48124210E+00 0.88616883E+03</pdfrwt>
<pdfrwt beam="2">  1       -2 0.83255561E-02 0.88616883E+03</pdfrwt>
<totfact> 0.13912398E+02</totfact>
</mgrwt>
</event>
<event>
 4    1  0.5863356E-005  0.1007750E+04  0.7818608E-02  0.9300085E-01
         -2   -1    0    0    0  501 -0.00000000000E+00  0.00000000000E+00  0.32280649573E+03  0.32280649574E+03  0.25500000000E-02 0. -1.
          2   -1    0    0  501    0  0.00000000000E+00 -0.00000000000E+00 -0.78650879762E+03  0.78650879763E+03  0.25500000000E-02 0.  1.
    5000001    1    1    2    0    0  0.36541713795E+03  0.28306159669E+03 -0.16792415769E+03  0.52793567313E+03  0.19200000000E+03 0.  0.
   -5000001    1    1    2    0    0 -0.36541713795E+03 -0.28306159669E+03 -0.29577814420E+03  0.58137962023E+03  0.19200000000E+03 0.  0.
<mgrwt>
<rscale>  0 0.10077503E+04</rscale>
<asrwt>0</asrwt>
<pdfrwt beam="1">  1        2 0.11235840E+00 0.10077503E+04</pdfrwt>
<pdfrwt beam="2">  1       -2 0.46115214E-01 0.10077503E+04</pdfrwt>
<totfact> 0.17276592E+02</totfact>
</mgrwt>
</event>
<event>
 4    1  0.5863356E-005  0.4151768E+03  0.7818608E-02  0.1038648E+00
          2   -1    0    0  501    0  0.00000000000E+00  0.00000000000E+00  0.12998248759E+04  0.12998248759E+04  0.25500000000E-02 0.  1.
         -2   -1    0    0    0  501 -0.00000000000E+00 -0.00000000000E+00 -0.33152886830E+02  0.33152886928E+02  0.25500000000E-02 0. -1.
    5000001    1    1    2    0    0 -0.48942243394E+02  0.43842216254E+02  0.77370553170E+03  0.79987607346E+03  0.19200000000E+03 0.  0.
   -5000001    1    1    2    0    0  0.48942243394E+02 -0.43842216254E+02  0.49296645735E+03  0.53310168935E+03  0.19200000000E+03 0.  0.
<mgrwt>
<rscale>  0 0.41517682E+03</rscale>
<asrwt>0</asrwt>
<pdfrwt beam="1">  1        2 0.18568925E+00 0.41517682E+03</pdfrwt>
<pdfrwt beam="2">  1       -2 0.47361272E-02 0.41517682E+03</pdfrwt>
<totfact> 0.42297730E+03</totfact>
</mgrwt>
</event>
<event>
 4    1  0.5863356E-005  0.5709773E+03  0.7818608E-02  0.9967518E-01
         -2   -1    0    0    0  501 -0.00000000000E+00  0.00000000000E+00  0.93940949321E+02  0.93940949355E+02  0.25500000000E-02 0. -1.
          2   -1    0    0  501    0  0.00000000000E+00 -0.00000000000E+00 -0.86760652746E+03  0.86760652746E+03  0.25500000000E-02 0.  1.
    5000001    1    1    2    0    0  0.22398017807E+02 -0.20840334272E+03 -0.43158374371E+03  0.51678056493E+03  0.19200000000E+03 0.  0.
   -5000001    1    1    2    0    0 -0.22398017807E+02  0.20840334272E+03 -0.34208183443E+03  0.44476691188E+03  0.19200000000E+03 0.  0.
<mgrwt>
<rscale>  0 0.57097734E+03</rscale>
<asrwt>0</asrwt>
<pdfrwt beam="1">  1        2 0.12394378E+00 0.57097734E+03</pdfrwt>
<pdfrwt beam="2">  1       -2 0.13420136E-01 0.57097734E+03</pdfrwt>
<totfact> 0.14469607E+03</totfact>
</mgrwt>
</event>
<event>
 4    1  0.5863356E-005  0.4282002E+03  0.7818608E-02  0.1034430E+00
         -2   -1    0    0    0  501 -0.00000000000E+00  0.00000000000E+00  0.18315447658E+03  0.18315447659E+03  0.25500000000E-02 0. -1.
          2   -1    0    0  501    0  0.00000000000E+00 -0.00000000000E+00 -0.25027429403E+03  0.25027429405E+03  0.25500000000E-02 0.  1.
    5000001    1    1    2    0    0 -0.25876414638E+02 -0.77652832193E+02 -0.81842522122E+02  0.22419132367E+03  0.19200000000E+03 0.  0.
   -5000001    1    1    2    0    0  0.25876414638E+02  0.77652832193E+02  0.14722704665E+02  0.20923744697E+03  0.19200000000E+03 0.  0.
<mgrwt>
<rscale>  0 0.42820022E+03</rscale>
<asrwt>0</asrwt>
<pdfrwt beam="1">  1        2 0.35753470E-01 0.42820022E+03</pdfrwt>
<pdfrwt beam="2">  1       -2 0.26164926E-01 0.42820022E+03</pdfrwt>
<totfact> 0.19089243E+03</totfact>
</mgrwt>
</event>
<event>
 4    1  0.5863356E-005  0.7612092E+03  0.7818608E-02  0.9617927E-01
          2   -1    0    0  501    0  0.00000000000E+00  0.00000000000E+00  0.11322480409E+04  0.11322480409E+04  0.25500000000E-02 0.  1.
         -2   -1    0    0    0  501 -0.00000000000E+00 -0.00000000000E+00 -0.12794004354E+03  0.12794004357E+03  0.25500000000E-02 0. -1.
    5000001    1    1    2    0    0  0.26426735858E+02 -0.31580172719E+03  0.35814609496E+03  0.51532681727E+03  0.19200000000E+03 0.  0.
   -5000001    1    1    2    0    0 -0.26426735858E+02  0.31580172719E+03  0.64616190239E+03  0.74486126720E+03  0.19200000000E+03 0.  0.
<mgrwt>
<rscale>  0 0.76120921E+03</rscale>
<asrwt>0</asrwt>
<pdfrwt beam="1">  1        2 0.16174972E+00 0.76120921E+03</pdfrwt>
<pdfrwt beam="2">  1       -2 0.18277149E-01 0.76120921E+03</pdfrwt>
<totfact> 0.58650750E+02</totfact>
</mgrwt>
</event>
<event>
 4    1  0.5863356E-005  0.7142017E+03  0.7818608E-02  0.9693249E-01
          2   -1    0    0  501    0  0.00000000000E+00  0.00000000000E+00  0.14567405006E+04  0.14567405006E+04  0.25500000000E-02 0.  1.
         -2   -1    0    0    0  501 -0.00000000000E+00 -0.00000000000E+00 -0.87538590083E+02  0.87538590120E+02  0.25500000000E-02 0. -1.
    5000001    1    1    2    0    0  0.26062358711E+03 -0.10739259612E+02  0.10097800750E+04  0.10604526324E+04  0.19200000000E+03 0.  0.
   -5000001    1    1    2    0    0 -0.26062358711E+03  0.10739259612E+02  0.35942183552E+03  0.48382645825E+03  0.19200000000E+03 0.  0.
<mgrwt>
<rscale>  0 0.71420168E+03</rscale>
<asrwt>0</asrwt>
<pdfrwt beam="1">  1        2 0.20810577E+00 0.71420168E+03</pdfrwt>
<pdfrwt beam="2">  1       -2 0.12505514E-01 0.71420168E+03</pdfrwt>
<totfact> 0.74041403E+02</totfact>
</mgrwt>
</event>
<event>
 4    1  0.5863356E-005  0.6145101E+03  0.7818608E-02  0.9875751E-01
          2   -1    0    0  501    0  0.00000000000E+00  0.00000000000E+00  0.18149546333E+04  0.18149546333E+04  0.25500000000E-02 0.  1.
         -2   -1    0    0    0  501 -0.00000000000E+00 -0.00000000000E+00 -0.52015440646E+02  0.52015440709E+02  0.25500000000E-02 0. -1.
    5000001    1    1    2    0    0  0.11323241111E+03 -0.20754132839E+03  0.75818371235E+03  0.81706886098E+03  0.19200000000E+03 0.  0.
   -5000001    1    1    2    0    0 -0.11323241111E+03  0.20754132839E+03  0.10047554803E+04  0.10499012130E+04  0.19200000000E+03 0.  0.
<mgrwt>
<rscale>  0 0.61451010E+03</rscale>
<asrwt>0</asrwt>
<pdfrwt beam="1">  1        2 0.25927931E+00 0.61451010E+03</pdfrwt>
<pdfrwt beam="2">  1       -2 0.74307751E-02 0.61451010E+03</pdfrwt>
<totfact> 0.11310290E+03</totfact>
</mgrwt>
</event>
<event>
 4    1  0.5863356E-005  0.5026687E+03  0.7818608E-02  0.1013085E+00
          2   -1    0    0  501    0  0.00000000000E+00  0.00000000000E+00  0.16137549239E+04  0.16137549239E+04  0.25500000000E-02 0.  1.
         -2   -1    0    0    0  501 -0.00000000000E+00 -0.00000000000E+00 -0.39144086015E+02  0.39144086098E+02  0.25500000000E-02 0. -1.
    5000001    1    1    2    0    0  0.13686164182E+03  0.70796509066E+02  0.62087635309E+03  0.66790321195E+03  0.19200000000E+03 0.  0.
   -5000001    1    1    2    0    0 -0.13686164182E+03 -0.70796509066E+02  0.95373448475E+03  0.98499579801E+03  0.19200000000E+03 0.  0.
<mgrwt>
<rscale>  0 0.50266872E+03</rscale>
<asrwt>0</asrwt>
<pdfrwt beam="1">  1        2 0.23053645E+00 0.50266872E+03</pdfrwt>
<pdfrwt beam="2">  1       -2 0.55920116E-02 0.50266872E+03</pdfrwt>
<totfact> 0.22446893E+03</totfact>
</mgrwt>
</event>
<event>
 4    1  0.5863356E-005  0.5457516E+03  0.7818608E-02  0.1002482E+00
         -2   -1    0    0    0  501 -0.00000000000E+00  0.00000000000E+00  0.73376305122E+02  0.73376305166E+02  0.25500000000E-02 0. -1.
          2   -1    0    0  501    0  0.00000000000E+00 -0.00000000000E+00 -0.10147855493E+04  0.10147855493E+04  0.25500000000E-02 0.  1.
    5000001    1    1    2    0    0  0.67406373615E+02 -0.18179836362E+03 -0.47412916446E+03  0.54704362606E+03  0.19200000000E+03 0.  0.
   -5000001    1    1    2    0    0 -0.67406373615E+02  0.18179836362E+03 -0.46728007974E+03  0.54111822843E+03  0.19200000000E+03 0.  0.
<mgrwt>
<rscale>  0 0.54575164E+03</rscale>
<asrwt>0</asrwt>
<pdfrwt beam="1">  1        2 0.14496936E+00 0.54575164E+03</pdfrwt>
<pdfrwt beam="2">  1       -2 0.10482330E-01 0.54575164E+03</pdfrwt>
<totfact> 0.17549766E+03</totfact>
</mgrwt>
</event>
<event>
 4    1  0.5863356E-005  0.5951521E+03  0.7818608E-02  0.9915515E-01
         -2   -1    0    0    0  501 -0.00000000000E+00  0.00000000000E+00  0.26026239056E+02  0.26026239180E+02  0.25500000000E-02 0. -1.
          2   -1    0    0  501    0  0.00000000000E+00 -0.00000000000E+00 -0.34023929382E+04  0.34023929382E+04  0.25500000000E-02 0.  1.
    5000001    1    1    2    0    0 -0.20392625739E+03  0.83203616772E+02 -0.20129660793E+04  0.20340612568E+04  0.19200000000E+03 0.  0.
   -5000001    1    1    2    0    0  0.20392625739E+03 -0.83203616772E+02 -0.13634006199E+04  0.13943579206E+04  0.19200000000E+03 0.  0.
<mgrwt>
<rscale>  0 0.59515206E+03</rscale>
<asrwt>0</asrwt>
<pdfrwt beam="1">  1        2 0.48605585E+00 0.59515206E+03</pdfrwt>
<pdfrwt beam="2">  1       -2 0.37180363E-02 0.59515206E+03</pdfrwt>
<totfact> 0.48567434E+02</totfact>
</mgrwt>
</event>
<event>
 4    1  0.5863356E-005  0.7445742E+03  0.7818608E-02  0.9643901E-01
          2   -1    0    0  501    0  0.00000000000E+00  0.00000000000E+00  0.20249582597E+04  0.20249582597E+04  0.25500000000E-02 0.  1.
         -2   -1    0    0    0  501 -0.00000000000E+00 -0.00000000000E+00 -0.68444718630E+02  0.68444718677E+02  0.25500000000E-02 0. -1.
    5000001    1    1    2    0    0  0.64487899398E+02  0.30715247888E+03  0.11381039429E+04  0.11960961162E+04  0.19200000000E+03 0.  0.
   -5000001    1    1    2    0    0 -0.64487899398E+02 -0.30715247888E+03  0.81840959818E+03  0.89730686214E+03  0.19200000000E+03 0.  0.
<mgrwt>
<rscale>  0 0.74457424E+03</rscale>
<asrwt>0</asrwt>
<pdfrwt beam="1">  1        2 0.28927971E+00 0.74457424E+03</pdfrwt>
<pdfrwt beam="2">  1       -2 0.97778184E-02 0.74457424E+03</pdfrwt>
<totfact> 0.56603502E+02</totfact>
</mgrwt>
</event>
<event>
 4    1  0.5863356E-005  0.1011880E+04  0.7818608E-02  0.9295610E-01
          2   -1    0    0  501    0  0.00000000000E+00  0.00000000000E+00  0.13174148034E+04  0.13174148034E+04  0.25500000000E-02 0.  1.
         -2   -1    0    0    0  501 -0.00000000000E+00 -0.00000000000E+00 -0.19430110926E+03  0.19430110927E+03  0.25500000000E-02 0. -1.
    5000001    1    1    2    0    0  0.24039327292E+03  0.39524586232E+03  0.45483544463E+03  0.67657039474E+03  0.19200000000E+03 0.  0.
   -5000001    1    1    2    0    0 -0.24039327292E+03 -0.39524586232E+03  0.66827824948E+03  0.83514551790E+03  0.19200000000E+03 0.  0.
<mgrwt>
<rscale>  0 0.10118798E+04</rscale>
<asrwt>0</asrwt>
<pdfrwt beam="1">  1        2 0.18820212E+00 0.10118798E+04</pdfrwt>
<pdfrwt beam="2">  1       -2 0.27757301E-01 0.10118798E+04</pdfrwt>
<totfact> 0.21642086E+02</totfact>
</mgrwt>
</event>
<event>
 4    1  0.5863356E-005  0.5546695E+03  0.7818608E-02  0.1000419E+00
         -2   -1    0    0    0  501 -0.00000000000E+00  0.00000000000E+00  0.56576614920E+02  0.56576614977E+02  0.25500000000E-02 0. -1.
          2   -1    0    0  501    0  0.00000000000E+00 -0.00000000000E+00 -0.13594762006E+04  0.13594762006E+04  0.25500000000E-02 0.  1.
    5000001    1    1    2    0    0 -0.12120440126E+03  0.15909676372E+03 -0.66918775497E+03  0.72434697384E+03  0.19200000000E+03 0.  0.
   -5000001    1    1    2    0    0  0.12120440126E+03 -0.15909676372E+03 -0.63371183070E+03  0.69170584173E+03  0.19200000000E+03 0.  0.
<mgrwt>
<rscale>  0 0.55466949E+03</rscale>
<asrwt>0</asrwt>
<pdfrwt beam="1">  1        2 0.19421087E+00 0.55466949E+03</pdfrwt>
<pdfrwt beam="2">  1       -2 0.80823744E-02 0.55466949E+03</pdfrwt>
<totfact> 0.17039956E+03</totfact>
</mgrwt>
</event>
<event>
 4    1  0.5863356E-005  0.5137905E+03  0.7818608E-02  0.1010241E+00
         -2   -1    0    0    0  501 -0.00000000000E+00  0.00000000000E+00  0.68518875943E+02  0.68518875990E+02  0.25500000000E-02 0. -1.
          2   -1    0    0  501    0  0.00000000000E+00 -0.00000000000E+00 -0.96316753715E+03  0.96316753715E+03  0.25500000000E-02 0.  1.
    5000001    1    1    2    0    0 -0.16514774153E+03 -0.35210830511E+02 -0.39742352530E+03  0.47257066940E+03  0.19200000000E+03 0.  0.
   -5000001    1    1    2    0    0  0.16514774153E+03  0.35210830511E+02 -0.49722513591E+03  0.55911574374E+03  0.19200000000E+03 0.  0.
<mgrwt>
<rscale>  0 0.51379045E+03</rscale>
<asrwt>0</asrwt>
<pdfrwt beam="1">  1        2 0.13759535E+00 0.51379045E+03</pdfrwt>
<pdfrwt beam="2">  1       -2 0.97884114E-02 0.51379045E+03</pdfrwt>
<totfact> 0.21087077E+03</totfact>
</mgrwt>
</event>
<event>
 4    1  0.5863356E-005  0.7819692E+03  0.7818608E-02  0.9586489E-01
         -2   -1    0    0    0  501 -0.00000000000E+00  0.00000000000E+00  0.58938322570E+02  0.58938322626E+02  0.25500000000E-02 0. -1.
          2   -1    0    0  501    0  0.00000000000E+00 -0.00000000000E+00 -0.25937103803E+04  0.25937103803E+04  0.25500000000E-02 0.  1.
    5000001    1    1    2    0    0 -0.21179545395E+02 -0.33864259411E+03 -0.13678773110E+04  0.14223500686E+04  0.19200000000E+03 0.  0.
   -5000001    1    1    2    0    0  0.21179545395E+02  0.33864259411E+03 -0.11668947468E+04  0.12302986344E+04  0.19200000000E+03 0.  0.
<mgrwt>
<rscale>  0 0.78196915E+03</rscale>
<asrwt>0</asrwt>
<pdfrwt beam="1">  1        2 0.37052998E+00 0.78196915E+03</pdfrwt>
<pdfrwt beam="2">  1       -2 0.84197620E-02 0.78196915E+03</pdfrwt>
<totfact> 0.36792763E+02</totfact>
</mgrwt>
</event>
<event>
 4    1  0.5863356E-005  0.6573166E+03  0.7818608E-02  0.9793146E-01
          2   -1    0    0  501    0  0.00000000000E+00  0.00000000000E+00  0.88548287662E+03  0.88548287663E+03  0.25500000000E-02 0.  1.
         -2   -1    0    0    0  501 -0.00000000000E+00 -0.00000000000E+00 -0.12198575155E+03  0.12198575158E+03  0.25500000000E-02 0. -1.
    5000001    1    1    2    0    0  0.21315235976E+03 -0.39025556438E+02  0.62015778314E+03  0.68440967155E+03  0.19200000000E+03 0.  0.
   -5000001    1    1    2    0    0 -0.21315235976E+03  0.39025556438E+02  0.14333934193E+03  0.32305895665E+03  0.19200000000E+03 0.  0.
<mgrwt>
<rscale>  0 0.65731665E+03</rscale>
<asrwt>0</asrwt>
<pdfrwt beam="1">  1        2 0.12649755E+00 0.65731665E+03</pdfrwt>
<pdfrwt beam="2">  1       -2 0.17426536E-01 0.65731665E+03</pdfrwt>
<totfact> 0.90465458E+02</totfact>
</mgrwt>
</event>
<event>
 4    1  0.5863356E-005  0.5797555E+03  0.7818608E-02  0.9948320E-01
         -2   -1    0    0    0  501 -0.00000000000E+00  0.00000000000E+00  0.14423706491E+03  0.14423706494E+03  0.25500000000E-02 0. -1.
          2   -1    0    0  501    0  0.00000000000E+00 -0.00000000000E+00 -0.58257646674E+03  0.58257646674E+03  0.25500000000E-02 0.  1.
    5000001    1    1    2    0    0 -0.21631899121E+03 -0.47454424515E+01 -0.19575974283E+03  0.34928827936E+03  0.19200000000E+03 0.  0.
   -5000001    1    1    2    0    0  0.21631899121E+03  0.47454424515E+01 -0.24257965899E+03  0.37752525232E+03  0.19200000000E+03 0.  0.
<mgrwt>
<rscale>  0 0.57975553E+03</rscale>
<asrwt>0</asrwt>
<pdfrwt beam="1">  1        2 0.83225208E-01 0.57975553E+03</pdfrwt>
<pdfrwt beam="2">  1       -2 0.20605295E-01 0.57975553E+03</pdfrwt>
<totfact> 0.11390322E+03</totfact>
</mgrwt>
</event>
<event>
 4    1  0.5863356E-005  0.4595895E+03  0.7818608E-02  0.1024900E+00
         -2   -1    0    0    0  501 -0.00000000000E+00  0.00000000000E+00  0.97380661153E+03  0.97380661154E+03  0.25500000000E-02 0. -1.
          2   -1    0    0  501    0  0.00000000000E+00 -0.00000000000E+00 -0.54225997481E+02  0.54225997541E+02  0.25500000000E-02 0.  1.
    5000001    1    1    2    0    0 -0.22439308072E+02  0.11187688735E+03  0.33888296600E+03  0.40586404758E+03  0.19200000000E+03 0.  0.
   -5000001    1    1    2    0    0  0.22439308072E+02 -0.11187688735E+03  0.58069764805E+03  0.62216856150E+03  0.19200000000E+03 0.  0.
<mgrwt>
<rscale>  0 0.45958953E+03</rscale>
<asrwt>0</asrwt>
<pdfrwt beam="1">  1        2 0.77465709E-02 0.45958953E+03</pdfrwt>
<pdfrwt beam="2">  1       -2 0.13911523E+00 0.45958953E+03</pdfrwt>
<totfact> 0.34209087E+02</totfact>
</mgrwt>
</event>
<event>
 4    1  0.5863356E-005  0.7186941E+03  0.7818608E-02  0.9685786E-01
         -2   -1    0    0    0  501 -0.00000000000E+00  0.00000000000E+00  0.17079880994E+03  0.17079880996E+03  0.25500000000E-02 0. -1.
          2   -1    0    0  501    0  0.00000000000E+00 -0.00000000000E+00 -0.75603743354E+03  0.75603743354E+03  0.25500000000E-02 0.  1.
    5000001    1    1    2    0    0  0.21446908119E+03  0.18711487968E+03 -0.15579079443E+03  0.37701954408E+03  0.19200000000E+03 0.  0.
   -5000001    1    1    2    0    0 -0.21446908119E+03 -0.18711487968E+03 -0.42944782917E+03  0.54981669942E+03  0.19200000000E+03 0.  0.
<mgrwt>
<rscale>  0 0.71869408E+03</rscale>
<asrwt>0</asrwt>
<pdfrwt beam="1">  1        2 0.10800535E+00 0.71869408E+03</pdfrwt>
<pdfrwt beam="2">  1       -2 0.24399830E-01 0.71869408E+03</pdfrwt>
<totfact> 0.61418147E+02</totfact>
</mgrwt>
</event>
<event>
 4    1  0.5863356E-005  0.5688174E+03  0.7818608E-02  0.9972299E-01
          2   -1    0    0  501    0  0.00000000000E+00  0.00000000000E+00  0.24341071049E+03  0.24341071051E+03  0.25500000000E-02 0.  1.
         -2   -1    0    0    0  501 -0.00000000000E+00 -0.00000000000E+00 -0.33231199646E+03  0.33231199647E+03  0.25500000000E-02 0. -1.
    5000001    1    1    2    0    0 -0.11558430233E+03 -0.16491731919E+03  0.15144077879E+02  0.27865892451E+03  0.19200000000E+03 0.  0.
   -5000001    1    1    2    0    0  0.11558430233E+03  0.16491731919E+03 -0.10404536384E+03  0.29706378246E+03  0.19200000000E+03 0.  0.
<mgrwt>
<rscale>  0 0.56881737E+03</rscale>
<asrwt>0</asrwt>
<pdfrwt beam="1">  1        2 0.34772959E-01 0.56881737E+03</pdfrwt>
<pdfrwt beam="2">  1       -2 0.47473142E-01 0.56881737E+03</pdfrwt>
<totfact> 0.63764147E+02</totfact>
</mgrwt>
</event>
<event>
 4    1  0.5863356E-005  0.5114131E+03  0.7818608E-02  0.1010842E+00
          2   -1    0    0  501    0  0.00000000000E+00  0.00000000000E+00  0.84124155179E+03  0.84124155179E+03  0.25500000000E-02 0.  1.
         -2   -1    0    0    0  501 -0.00000000000E+00 -0.00000000000E+00 -0.77725400948E+02  0.77725400989E+02  0.25500000000E-02 0. -1.
    5000001    1    1    2    0    0  0.29742571775E+02  0.11683477110E+03  0.59427232410E+03  0.63604919582E+03  0.19200000000E+03 0.  0.
   -5000001    1    1    2    0    0 -0.29742571775E+02 -0.11683477110E+03  0.16924382674E+03  0.28291775696E+03  0.19200000000E+03 0.  0.
<mgrwt>
<rscale>  0 0.51141309E+03</rscale>
<asrwt>0</asrwt>
<pdfrwt beam="1">  1        2 0.12017736E+00 0.51141309E+03</pdfrwt>
<pdfrwt beam="2">  1       -2 0.11103629E-01 0.51141309E+03</pdfrwt>
<totfact> 0.20583404E+03</totfact>
</mgrwt>
</event>
<event>
 4    1  0.5863356E-005  0.5313831E+03  0.7818608E-02  0.1005897E+00
         -2   -1    0    0    0  501 -0.00000000000E+00  0.00000000000E+00  0.11665977181E+03  0.11665977184E+03  0.25500000000E-02 0. -1.
          2   -1    0    0  501    0  0.00000000000E+00 -0.00000000000E+00 -0.60511001008E+03  0.60511001008E+03  0.25500000000E-02 0.  1.
    5000001    1    1    2    0    0  0.15105796010E+03 -0.57258743674E+02 -0.12557189238E+03  0.28058754639E+03  0.19200000000E+03 0.  0.
   -5000001    1    1    2    0    0 -0.15105796010E+03  0.57258743674E+02 -0.36287834588E+03  0.44118223553E+03  0.19200000000E+03 0.  0.
<mgrwt>
<rscale>  0 0.53138308E+03</rscale>
<asrwt>0</asrwt>
<pdfrwt beam="1">  1        2 0.86444285E-01 0.53138308E+03</pdfrwt>
<pdfrwt beam="2">  1       -2 0.16665682E-01 0.53138308E+03</pdfrwt>
<totfact> 0.15705454E+03</totfact>
</mgrwt>
</event>
<event>
 4    1  0.5863356E-005  0.7374713E+03  0.7818608E-02  0.9655213E-01
         -2   -1    0    0    0  501 -0.00000000000E+00  0.00000000000E+00  0.49137612638E+02  0.49137612704E+02  0.25500000000E-02 0. -1.
          2   -1    0    0  501    0  0.00000000000E+00 -0.00000000000E+00 -0.27670449879E+04  0.27670449879E+04  0.25500000000E-02 0.  1.
    5000001    1    1    2    0    0 -0.31435820600E+03  0.78260393768E+01 -0.13023574574E+04  0.13534700866E+04  0.19200000000E+03 0.  0.
   -5000001    1    1    2    0    0  0.31435820600E+03 -0.78260393768E+01 -0.14155499179E+04  0.14627125140E+04  0.19200000000E+03 0.  0.
<mgrwt>
<rscale>  0 0.73747131E+03</rscale>
<asrwt>0</asrwt>
<pdfrwt beam="1">  1        2 0.39529204E+00 0.73747131E+03</pdfrwt>
<pdfrwt beam="2">  1       -2 0.70196607E-02 0.73747131E+03</pdfrwt>
<totfact> 0.40027397E+02</totfact>
</mgrwt>
</event>
<event>
 4    1  0.5863356E-005  0.4361498E+03  0.7818608E-02  0.1031935E+00
          2   -1    0    0  501    0  0.00000000000E+00  0.00000000000E+00  0.72739336722E+03  0.72739336722E+03  0.25500000000E-02 0.  1.
         -2   -1    0    0    0  501 -0.00000000000E+00 -0.00000000000E+00 -0.65379553982E+02  0.65379554031E+02  0.25500000000E-02 0. -1.
    5000001    1    1    2    0    0 -0.59949965189E+02 -0.40564367255E+02  0.19678036802E+03  0.28429910210E+03  0.19200000000E+03 0.  0.
   -5000001    1    1    2    0    0  0.59949965189E+02  0.40564367255E+02  0.46523344521E+03  0.50847381915E+03  0.19200000000E+03 0.  0.
<mgrwt>
<rscale>  0 0.43614976E+03</rscale>
<asrwt>0</asrwt>
<pdfrwt beam="1">  1        2 0.10391333E+00 0.43614976E+03</pdfrwt>
<pdfrwt beam="2">  1       -2 0.93399369E-02 0.43614976E+03</pdfrwt>
<totfact> 0.32643822E+03</totfact>
</mgrwt>
</event>
<event>
 4    1  0.5863356E-005  0.5750179E+03  0.7818608E-02  0.9958636E-01
          2   -1    0    0  501    0  0.00000000000E+00  0.00000000000E+00  0.29764216318E+03  0.29764216319E+03  0.25500000000E-02 0.  1.
         -2   -1    0    0    0  501 -0.00000000000E+00 -0.00000000000E+00 -0.27772075462E+03  0.27772075463E+03  0.25500000000E-02 0. -1.
    5000001    1    1    2    0    0  0.62020533071E+02 -0.20387846343E+03  0.29579399841E+02  0.28836073809E+03  0.19200000000E+03 0.  0.
   -5000001    1    1    2    0    0 -0.62020533071E+02  0.20387846343E+03 -0.96579912830E+01  0.28700217973E+03  0.19200000000E+03 0.  0.
<mgrwt>
<rscale>  0 0.57501793E+03</rscale>
<asrwt>0</asrwt>
<pdfrwt beam="1">  1        2 0.42520309E-01 0.57501793E+03</pdfrwt>
<pdfrwt beam="2">  1       -2 0.39674394E-01 0.57501793E+03</pdfrwt>
<totfact> 0.72676932E+02</totfact>
</mgrwt>
</event>
<event>
 4    1  0.5863356E-005  0.4304842E+03  0.7818608E-02  0.1033707E+00
          2   -1    0    0  501    0  0.00000000000E+00  0.00000000000E+00  0.89266376652E+03  0.89266376653E+03  0.25500000000E-02 0.  1.
         -2   -1    0    0    0  501 -0.00000000000E+00 -0.00000000000E+00 -0.51899912824E+02  0.51899912887E+02  0.25500000000E-02 0. -1.
    5000001    1    1    2    0    0  0.67281095707E+02  0.69530473471E+02  0.39801205558E+03  0.45237023440E+03  0.19200000000E+03 0.  0.
   -5000001    1    1    2    0    0 -0.67281095707E+02 -0.69530473471E+02  0.44275179812E+03  0.49219344502E+03  0.19200000000E+03 0.  0.
<mgrwt>
<rscale>  0 0.43048425E+03</rscale>
<asrwt>0</asrwt>
<pdfrwt beam="1">  1        2 0.12752338E+00 0.43048425E+03</pdfrwt>
<pdfrwt beam="2">  1       -2 0.74142739E-02 0.43048425E+03</pdfrwt>
<totfact> 0.36319599E+03</totfact>
</mgrwt>
</event>
<event>
 4    1  0.5863356E-005  0.8173786E+03  0.7818608E-02  0.9535197E-01
         -2   -1    0    0    0  501 -0.00000000000E+00  0.00000000000E+00  0.54383962251E+03  0.54383962251E+03  0.25500000000E-02 0. -1.
          2   -1    0    0  501    0  0.00000000000E+00 -0.00000000000E+00 -0.30712537002E+03  0.30712537003E+03  0.25500000000E-02 0.  1.
    5000001    1    1    2    0    0  0.17226265518E+03  0.16979740845E+03 -0.16033124047E+03  0.34795932083E+03  0.19200000000E+03 0.  0.
   -5000001    1    1    2    0    0 -0.17226265518E+03 -0.16979740845E+03  0.39704549296E+03  0.50300567170E+03  0.19200000000E+03 0.  0.
<mgrwt>
<rscale>  0 0.81737860E+03</rscale>
<asrwt>0</asrwt>
<pdfrwt beam="1">  1        2 0.43875053E-01 0.81737860E+03</pdfrwt>
<pdfrwt beam="2">  1       -2 0.77691374E-01 0.81737860E+03</pdfrwt>
<totfact> 0.17267141E+02</totfact>
</mgrwt>
</event>
<event>
 4    1  0.5863356E-005  0.6278893E+03  0.7818608E-02  0.9849176E-01
         -2   -1    0    0    0  501 -0.00000000000E+00  0.00000000000E+00  0.21341478024E+03  0.21341478026E+03  0.25500000000E-02 0. -1.
          2   -1    0    0  501    0  0.00000000000E+00 -0.00000000000E+00 -0.46182946537E+03  0.46182946538E+03  0.25500000000E-02 0.  1.
    5000001    1    1    2    0    0  0.13222321415E+03 -0.19252293294E+03 -0.21513705522E+03  0.37107413087E+03  0.19200000000E+03 0.  0.
   -5000001    1    1    2    0    0 -0.13222321415E+03  0.19252293294E+03 -0.33277629914E+02  0.30417011478E+03  0.19200000000E+03 0.  0.
<mgrwt>
<rscale>  0 0.62788927E+03</rscale>
<asrwt>0</asrwt>
<pdfrwt beam="1">  1        2 0.65975638E-01 0.62788927E+03</pdfrwt>
<pdfrwt beam="2">  1       -2 0.30487826E-01 0.62788927E+03</pdfrwt>
<totfact> 0.73442077E+02</totfact>
</mgrwt>
</event>
<event>
 4    1  0.5863356E-005  0.5628447E+03  0.7818608E-02  0.9985639E-01
          2   -1    0    0  501    0  0.00000000000E+00  0.00000000000E+00  0.12058665115E+03  0.12058665118E+03  0.25500000000E-02 0.  1.
         -2   -1    0    0    0  501 -0.00000000000E+00 -0.00000000000E+00 -0.65677694443E+03  0.65677694443E+03  0.25500000000E-02 0. -1.
    5000001    1    1    2    0    0 -0.27472140538E+02  0.19581869720E+03 -0.18954213895E+03  0.33449948149E+03  0.19200000000E+03 0.  0.
   -5000001    1    1    2    0    0  0.27472140538E+02 -0.19581869720E+03 -0.34664815433E+03  0.44286411412E+03  0.19200000000E+03 0.  0.
<mgrwt>
<rscale>  0 0.56284468E+03</rscale>
<asrwt>0</asrwt>
<pdfrwt beam="1">  1        2 0.17226665E-01 0.56284468E+03</pdfrwt>
<pdfrwt beam="2">  1       -2 0.93825276E-01 0.56284468E+03</pdfrwt>
<totfact> 0.32913727E+02</totfact>
</mgrwt>
</event>
<event>
 4    1  0.5863356E-005  0.7990600E+03  0.7818608E-02  0.9561379E-01
         -2   -1    0    0    0  501 -0.00000000000E+00  0.00000000000E+00  0.37047433814E+03  0.37047433815E+03  0.25500000000E-02 0. -1.
          2   -1    0    0  501    0  0.00000000000E+00 -0.00000000000E+00 -0.43086447090E+03  0.43086447091E+03  0.25500000000E-02 0.  1.
    5000001    1    1    2    0    0 -0.22340198196E+03 -0.71468033344E+02  0.23082417675E+03  0.38099859043E+03  0.19200000000E+03 0.  0.
   -5000001    1    1    2    0    0  0.22340198196E+03  0.71468033344E+02 -0.29121430951E+03  0.42034021863E+03  0.19200000000E+03 0.  0.
<mgrwt>
<rscale>  0 0.79906002E+03</rscale>
<asrwt>0</asrwt>
<pdfrwt beam="1">  1        2 0.61552068E-01 0.79906002E+03</pdfrwt>
<pdfrwt beam="2">  1       -2 0.52924905E-01 0.79906002E+03</pdfrwt>
<totfact> 0.26957895E+02</totfact>
</mgrwt>
</event>
<event>
 4    1  0.5863356E-005  0.7145580E+03  0.7818608E-02  0.9692655E-01
          2   -1    0    0  501    0  0.00000000000E+00  0.00000000000E+00  0.19735322267E+04  0.19735322267E+04  0.25500000000E-02 0.  1.
         -2   -1    0    0    0  501 -0.00000000000E+00 -0.00000000000E+00 -0.64680103633E+02  0.64680103683E+02  0.25500000000E-02 0. -1.
    5000001    1    1    2    0    0  0.13955095800E+01  0.28559692167E+03  0.68058399830E+03  0.76264416857E+03  0.19200000000E+03 0.  0.
   -5000001    1    1    2    0    0 -0.13955095800E+01 -0.28559692167E+03  0.12282681247E+04  0.12755681618E+04  0.19200000000E+03 0.  0.
<mgrwt>
<rscale>  0 0.71455796E+03</rscale>
<asrwt>0</asrwt>
<pdfrwt beam="1">  1        2 0.28193316E+00 0.71455796E+03</pdfrwt>
<pdfrwt beam="2">  1       -2 0.92400154E-02 0.71455796E+03</pdfrwt>
<totfact> 0.65987689E+02</totfact>
</mgrwt>
</event>
<event>
 4    1  0.5863356E-005  0.5910022E+03  0.7818608E-02  0.9924251E-01
         -2   -1    0    0    0  501 -0.00000000000E+00  0.00000000000E+00  0.17749740227E+03  0.17749740229E+03  0.25500000000E-02 0. -1.
          2   -1    0    0  501    0  0.00000000000E+00 -0.00000000000E+00 -0.49195591482E+03  0.49195591483E+03  0.25500000000E-02 0.  1.
    5000001    1    1    2    0    0  0.21253855085E+03  0.25204951937E+02 -0.79995054878E+02  0.29844787486E+03  0.19200000000E+03 0.  0.
   -5000001    1    1    2    0    0 -0.21253855085E+03 -0.25204951937E+02 -0.23446345767E+03  0.37100544226E+03  0.19200000000E+03 0.  0.
<mgrwt>
<rscale>  0 0.59100219E+03</rscale>
<asrwt>0</asrwt>
<pdfrwt beam="1">  1        2 0.70279416E-01 0.59100219E+03</pdfrwt>
<pdfrwt beam="2">  1       -2 0.25356772E-01 0.59100219E+03</pdfrwt>
<totfact> 0.95774249E+02</totfact>
</mgrwt>
</event>
<event>
 4    1  0.5863356E-005  0.6430583E+03  0.7818608E-02  0.9819893E-01
          2   -1    0    0  501    0  0.00000000000E+00  0.00000000000E+00  0.33509947710E+03  0.33509947711E+03  0.25500000000E-02 0.  1.
         -2   -1    0    0    0  501 -0.00000000000E+00 -0.00000000000E+00 -0.30850839407E+03  0.30850839408E+03  0.25500000000E-02 0. -1.
    5000001    1    1    2    0    0 -0.73277097699E+02  0.21591542177E+03 -0.10733961337E+03  0.31681981473E+03  0.19200000000E+03 0.  0.
   -5000001    1    1    2    0    0  0.73277097699E+02 -0.21591542177E+03  0.13393069640E+03  0.32678805646E+03  0.19200000000E+03 0.  0.
<mgrwt>
<rscale>  0 0.64305832E+03</rscale>
<asrwt>0</asrwt>
<pdfrwt beam="1">  1        2 0.47871354E-01 0.64305832E+03</pdfrwt>
<pdfrwt beam="2">  1       -2 0.44072628E-01 0.64305832E+03</pdfrwt>
<totfact> 0.51845130E+02</totfact>
</mgrwt>
</event>
<event>
 4    1  0.5863356E-005  0.4064044E+03  0.7818608E-02  0.1041584E+00
          2   -1    0    0  501    0  0.00000000000E+00  0.00000000000E+00  0.47080692742E+03  0.47080692743E+03  0.25500000000E-02 0.  1.
         -2   -1    0    0    0  501 -0.00000000000E+00 -0.00000000000E+00 -0.87702901803E+02  0.87702901840E+02  0.25500000000E-02 0. -1.
    5000001    1    1    2    0    0 -0.55424939476E+02 -0.31287811861E+01  0.14114378266E+03  0.24467791190E+03  0.19200000000E+03 0.  0.
   -5000001    1    1    2    0    0  0.55424939476E+02  0.31287811861E+01  0.24196024296E+03  0.31383191737E+03  0.19200000000E+03 0.  0.
<mgrwt>
<rscale>  0 0.40640440E+03</rscale>
<asrwt>0</asrwt>
<pdfrwt beam="1">  1        2 0.67258132E-01 0.40640440E+03</pdfrwt>
<pdfrwt beam="2">  1       -2 0.12528986E-01 0.40640440E+03</pdfrwt>
<totfact> 0.33581949E+03</totfact>
</mgrwt>
</event>
<event>
 4    1  0.5863356E-005  0.6845759E+03  0.7818608E-02  0.9743979E-01
          2   -1    0    0  501    0  0.00000000000E+00  0.00000000000E+00  0.53679668521E+03  0.53679668522E+03  0.25500000000E-02 0.  1.
         -2   -1    0    0    0  501 -0.00000000000E+00 -0.00000000000E+00 -0.21825962701E+03  0.21825962702E+03  0.25500000000E-02 0. -1.
    5000001    1    1    2    0    0 -0.22063995364E+03  0.14436961741E+03  0.27374476764E+03  0.42582246698E+03  0.19200000000E+03 0.  0.
   -5000001    1    1    2    0    0  0.22063995364E+03 -0.14436961741E+03  0.44792290567E+02  0.32923384527E+03  0.19200000000E+03 0.  0.
<mgrwt>
<rscale>  0 0.68457591E+03</rscale>
<asrwt>0</asrwt>
<pdfrwt beam="1">  1        2 0.76685242E-01 0.68457591E+03</pdfrwt>
<pdfrwt beam="2">  1       -2 0.31179946E-01 0.68457591E+03</pdfrwt>
<totfact> 0.59264715E+02</totfact>
</mgrwt>
</event>
<event>
 4    1  0.5863356E-005  0.8229110E+03  0.7818608E-02  0.9527434E-01
          2   -1    0    0  501    0  0.00000000000E+00  0.00000000000E+00  0.23183860559E+04  0.23183860559E+04  0.25500000000E-02 0.  1.
         -2   -1    0    0    0  501 -0.00000000000E+00 -0.00000000000E+00 -0.73023051955E+02  0.73023052000E+02  0.25500000000E-02 0. -1.
    5000001    1    1    2    0    0 -0.33037506116E+03 -0.14320374325E+03  0.12758114747E+04  0.13394827032E+04  0.19200000000E+03 0.  0.
   -5000001    1    1    2    0    0  0.33037506116E+03  0.14320374325E+03  0.96955152930E+03  0.10519264048E+04  0.19200000000E+03 0.  0.
<mgrwt>
<rscale>  0 0.82291099E+03</rscale>
<asrwt>0</asrwt>
<pdfrwt beam="1">  1        2 0.33119787E+00 0.82291099E+03</pdfrwt>
<pdfrwt beam="2">  1       -2 0.10431869E-01 0.82291099E+03</pdfrwt>
<totfact> 0.35940026E+02</totfact>
</mgrwt>
</event>
<event>
 4    1  0.5863356E-005  0.4860257E+03  0.7818608E-02  0.1017492E+00
          2   -1    0    0  501    0  0.00000000000E+00  0.00000000000E+00  0.72699888240E+03  0.72699888240E+03  0.25500000000E-02 0.  1.
         -2   -1    0    0    0  501 -0.00000000000E+00 -0.00000000000E+00 -0.81231543893E+02  0.81231543933E+02  0.25500000000E-02 0. -1.
    5000001    1    1    2    0    0 -0.98395407321E+02 -0.11171888540E+03  0.33175760499E+03  0.41120539151E+03  0.19200000000E+03 0.  0.
   -5000001    1    1    2    0    0  0.98395407321E+02  0.11171888540E+03  0.31400973351E+03  0.39702503482E+03  0.19200000000E+03 0.  0.
<mgrwt>
<rscale>  0 0.48602569E+03</rscale>
<asrwt>0</asrwt>
<pdfrwt beam="1">  1        2 0.10385699E+00 0.48602569E+03</pdfrwt>
<pdfrwt beam="2">  1       -2 0.11604506E-01 0.48602569E+03</pdfrwt>
<totfact> 0.23017907E+03</totfact>
</mgrwt>
</event>
<event>
 4    1  0.5863356E-005  0.8238800E+03  0.7818608E-02  0.9526081E-01
         -2   -1    0    0    0  501 -0.00000000000E+00  0.00000000000E+00  0.80183945670E+02  0.80183945710E+02  0.25500000000E-02 0. -1.
          2   -1    0    0  501    0  0.00000000000E+00 -0.00000000000E+00 -0.21163158291E+04  0.21163158291E+04  0.25500000000E-02 0.  1.
    5000001    1    1    2    0    0  0.17738640777E+03 -0.28069194644E+03 -0.61747886227E+03  0.72690993377E+03  0.19200000000E+03 0.  0.
   -5000001    1    1    2    0    0 -0.17738640777E+03  0.28069194644E+03 -0.14186530212E+04  0.14695898411E+04  0.19200000000E+03 0.  0.
<mgrwt>
<rscale>  0 0.82387998E+03</rscale>
<asrwt>0</asrwt>
<pdfrwt beam="1">  1        2 0.30233080E+00 0.82387998E+03</pdfrwt>
<pdfrwt beam="2">  1       -2 0.11454851E-01 0.82387998E+03</pdfrwt>
<totfact> 0.39061681E+02</totfact>
</mgrwt>
</event>
<event>
 4    1  0.5863356E-005  0.4669434E+03  0.7818608E-02  0.1022786E+00
         -2   -1    0    0    0  501 -0.00000000000E+00  0.00000000000E+00  0.70089178971E+02  0.70089179018E+02  0.25500000000E-02 0. -1.
          2   -1    0    0  501    0  0.00000000000E+00 -0.00000000000E+00 -0.77770966786E+03  0.77770966786E+03  0.25500000000E-02 0.  1.
    5000001    1    1    2    0    0  0.67757391448E+02 -0.33127107001E+02 -0.55234281478E+03  0.58960584661E+03  0.19200000000E+03 0.  0.
   -5000001    1    1    2    0    0 -0.67757391448E+02  0.33127107001E+02 -0.15527767411E+03  0.25819300027E+03  0.19200000000E+03 0.  0.
<mgrwt>
<rscale>  0 0.46694339E+03</rscale>
<asrwt>0</asrwt>
<pdfrwt beam="1">  1        2 0.11110138E+00 0.46694339E+03</pdfrwt>
<pdfrwt beam="2">  1       -2 0.10012740E-01 0.46694339E+03</pdfrwt>
<totfact> 0.26889522E+03</totfact>
</mgrwt>
</event>
<event>
 4    1  0.5863356E-005  0.4263427E+03  0.7818608E-02  0.1035022E+00
          2   -1    0    0  501    0  0.00000000000E+00  0.00000000000E+00  0.42699421904E+03  0.42699421905E+03  0.25500000000E-02 0.  1.
         -2   -1    0    0    0  501 -0.00000000000E+00 -0.00000000000E+00 -0.10642304650E+03  0.10642304653E+03  0.25500000000E-02 0. -1.
    5000001    1    1    2    0    0 -0.28413926767E+02  0.80387162909E+02  0.11502625705E+03  0.23950884536E+03  0.19200000000E+03 0.  0.
   -5000001    1    1    2    0    0  0.28413926767E+02 -0.80387162909E+02  0.20554491549E+03  0.29390842022E+03  0.19200000000E+03 0.  0.
<mgrwt>
<rscale>  0 0.42634271E+03</rscale>
<asrwt>0</asrwt>
<pdfrwt beam="1">  1        2 0.60999174E-01 0.42634271E+03</pdfrwt>
<pdfrwt beam="2">  1       -2 0.15203292E-01 0.42634271E+03</pdfrwt>
<totfact> 0.27188520E+03</totfact>
</mgrwt>
</event>
<event>
 4    1  0.5863356E-005  0.4967181E+03  0.7818608E-02  0.1014639E+00
          2   -1    0    0  501    0  0.00000000000E+00  0.00000000000E+00  0.22570866913E+04  0.22570866913E+04  0.25500000000E-02 0.  1.
         -2   -1    0    0    0  501 -0.00000000000E+00 -0.00000000000E+00 -0.27328248249E+02  0.27328248368E+02  0.25500000000E-02 0. -1.
    5000001    1    1    2    0    0  0.11656384922E+03 -0.75434574980E+02  0.14572116659E+04  0.14763493304E+04  0.19200000000E+03 0.  0.
   -5000001    1    1    2    0    0 -0.11656384922E+03  0.75434574980E+02  0.77254677717E+03  0.80806560932E+03  0.19200000000E+03 0.  0.
<mgrwt>
<rscale>  0 0.49671813E+03</rscale>
<asrwt>0</asrwt>
<pdfrwt beam="1">  1        2 0.32244101E+00 0.49671813E+03</pdfrwt>
<pdfrwt beam="2">  1       -2 0.39040349E-02 0.49671813E+03</pdfrwt>
<totfact> 0.18580445E+03</totfact>
</mgrwt>
</event>
<event>
 4    1  0.5863356E-005  0.5334611E+03  0.7818608E-02  0.1005396E+00
          2   -1    0    0  501    0  0.00000000000E+00  0.00000000000E+00  0.23083647771E+04  0.23083647771E+04  0.25500000000E-02 0.  1.
         -2   -1    0    0    0  501 -0.00000000000E+00 -0.00000000000E+00 -0.30820598257E+02  0.30820598363E+02  0.25500000000E-02 0. -1.
    5000001    1    1    2    0    0 -0.13079963102E+03 -0.11312502893E+03  0.84872455321E+03  0.88718835816E+03  0.19200000000E+03 0.  0.
   -5000001    1    1    2    0    0  0.13079963102E+03  0.11312502893E+03  0.14288196256E+04  0.14519970173E+04  0.19200000000E+03 0.  0.
<mgrwt>
<rscale>  0 0.53346109E+03</rscale>
<asrwt>0</asrwt>
<pdfrwt beam="1">  1        2 0.32976628E+00 0.53346109E+03</pdfrwt>
<pdfrwt beam="2">  1       -2 0.44029441E-02 0.53346109E+03</pdfrwt>
<totfact> 0.14531079E+03</totfact>
</mgrwt>
</event>
<event>
 4    1  0.5863356E-005  0.1350712E+04  0.7818608E-02  0.8990289E-01
          2   -1    0    0  501    0  0.00000000000E+00  0.00000000000E+00  0.79401143428E+03  0.79401143429E+03  0.25500000000E-02 0.  1.
         -2   -1    0    0    0  501 -0.00000000000E+00 -0.00000000000E+00 -0.57443243623E+03  0.57443243624E+03  0.25500000000E-02 0. -1.
    5000001    1    1    2    0    0  0.12253498135E+03 -0.42167098582E+03 -0.37229390728E+03  0.60686736222E+03  0.19200000000E+03 0.  0.
   -5000001    1    1    2    0    0 -0.12253498135E+03  0.42167098582E+03  0.59187290532E+03  0.76157650830E+03  0.19200000000E+03 0.  0.
<mgrwt>
<rscale>  0 0.13507123E+04</rscale>
<asrwt>0</asrwt>
<pdfrwt beam="1">  1        2 0.11343020E+00 0.13507123E+04</pdfrwt>
<pdfrwt beam="2">  1       -2 0.82061778E-01 0.13507123E+04</pdfrwt>
<totfact> 0.49011411E+01</totfact>
</mgrwt>
</event>
<event>
 4    1  0.5863356E-005  0.5213436E+03  0.7818608E-02  0.1008353E+00
         -2   -1    0    0    0  501 -0.00000000000E+00  0.00000000000E+00  0.41200308210E+02  0.41200308289E+02  0.25500000000E-02 0. -1.
          2   -1    0    0  501    0  0.00000000000E+00 -0.00000000000E+00 -0.16492540593E+04  0.16492540593E+04  0.25500000000E-02 0.  1.
    5000001    1    1    2    0    0 -0.90373162646E+02 -0.53559579586E+01 -0.31345769609E+03  0.37857063020E+03  0.19200000000E+03 0.  0.
   -5000001    1    1    2    0    0  0.90373162646E+02  0.53559579586E+01 -0.12945960550E+04  0.13118837374E+04  0.19200000000E+03 0.  0.
<mgrwt>
<rscale>  0 0.52134356E+03</rscale>
<asrwt>0</asrwt>
<pdfrwt beam="1">  1        2 0.23560768E+00 0.52134356E+03</pdfrwt>
<pdfrwt beam="2">  1       -2 0.58857594E-02 0.52134356E+03</pdfrwt>
<totfact> 0.19872571E+03</totfact>
</mgrwt>
</event>
<event>
 4    1  0.5863356E-005  0.6657939E+03  0.7818608E-02  0.9777586E-01
         -2   -1    0    0    0  501 -0.00000000000E+00  0.00000000000E+00  0.12483633081E+03  0.12483633084E+03  0.25500000000E-02 0. -1.
          2   -1    0    0  501    0  0.00000000000E+00 -0.00000000000E+00 -0.88772537923E+03  0.88772537923E+03  0.25500000000E-02 0.  1.
    5000001    1    1    2    0    0  0.45441872952E+02 -0.26812501865E+03 -0.38049515585E+03  0.50556557742E+03  0.19200000000E+03 0.  0.
   -5000001    1    1    2    0    0 -0.45441872952E+02  0.26812501865E+03 -0.38239389257E+03  0.50699613265E+03  0.19200000000E+03 0.  0.
<mgrwt>
<rscale>  0 0.66579390E+03</rscale>
<asrwt>0</asrwt>
<pdfrwt beam="1">  1        2 0.12681791E+00 0.66579390E+03</pdfrwt>
<pdfrwt beam="2">  1       -2 0.17833762E-01 0.66579390E+03</pdfrwt>
<totfact> 0.86635251E+02</totfact>
</mgrwt>
</event>
<event>
 4    1  0.5863356E-005  0.5475592E+03  0.7818608E-02  0.1002060E+00
         -2   -1    0    0    0  501 -0.00000000000E+00  0.00000000000E+00  0.37290799634E+02  0.37290799722E+02  0.25500000000E-02 0. -1.
          2   -1    0    0  501    0  0.00000000000E+00 -0.00000000000E+00 -0.20100201822E+04  0.20100201822E+04  0.25500000000E-02 0.  1.
    5000001    1    1    2    0    0  0.15747568607E+03 -0.98951998643E+02 -0.76512686819E+03  0.81047715215E+03  0.19200000000E+03 0.  0.
   -5000001    1    1    2    0    0 -0.15747568607E+03  0.98951998643E+02 -0.12076025144E+04  0.12368338298E+04  0.19200000000E+03 0.  0.
<mgrwt>
<rscale>  0 0.54755917E+03</rscale>
<asrwt>0</asrwt>
<pdfrwt beam="1">  1        2 0.28714567E+00 0.54755917E+03</pdfrwt>
<pdfrwt beam="2">  1       -2 0.53272584E-02 0.54755917E+03</pdfrwt>
<totfact> 0.15265968E+03</totfact>
</mgrwt>
</event>
<event>
 4    1  0.5863356E-005  0.6073109E+03  0.7818608E-02  0.9890353E-01
         -2   -1    0    0    0  501 -0.00000000000E+00  0.00000000000E+00  0.93213064955E+02  0.93213064990E+02  0.25500000000E-02 0. -1.
          2   -1    0    0  501    0  0.00000000000E+00 -0.00000000000E+00 -0.98920272608E+03  0.98920272608E+03  0.25500000000E-02 0.  1.
    5000001    1    1    2    0    0  0.14900728548E+03 -0.12215173270E+02 -0.12427016485E+03  0.27323882494E+03  0.19200000000E+03 0.  0.
   -5000001    1    1    2    0    0 -0.14900728548E+03  0.12215173270E+02 -0.77171949627E+03  0.80917696613E+03  0.19200000000E+03 0.  0.
<mgrwt>
<rscale>  0 0.60731085E+03</rscale>
<asrwt>0</asrwt>
<pdfrwt beam="1">  1        2 0.14131467E+00 0.60731085E+03</pdfrwt>
<pdfrwt beam="2">  1       -2 0.13316153E-01 0.60731085E+03</pdfrwt>
<totfact> 0.12264624E+03</totfact>
</mgrwt>
</event>
<event>
 4    1  0.5863356E-005  0.4684203E+03  0.7818608E-02  0.1022367E+00
          2   -1    0    0  501    0  0.00000000000E+00  0.00000000000E+00  0.55640039407E+03  0.55640039407E+03  0.25500000000E-02 0.  1.
         -2   -1    0    0    0  501 -0.00000000000E+00 -0.00000000000E+00 -0.98587985690E+02  0.98587985723E+02  0.25500000000E-02 0. -1.
    5000001    1    1    2    0    0 -0.10281706380E+03 -0.85015528521E+02  0.24825148264E+03  0.34101581683E+03  0.19200000000E+03 0.  0.
   -5000001    1    1    2    0    0  0.10281706380E+03  0.85015528521E+02  0.20956092574E+03  0.31397256296E+03  0.19200000000E+03 0.  0.
<mgrwt>
<rscale>  0 0.46842030E+03</rscale>
<asrwt>0</asrwt>
<pdfrwt beam="1">  1        2 0.79485773E-01 0.46842030E+03</pdfrwt>
<pdfrwt beam="2">  1       -2 0.14083998E-01 0.46842030E+03</pdfrwt>
<totfact> 0.22961495E+03</totfact>
</mgrwt>
</event>
<event>
 4    1  0.5863356E-005  0.4707135E+03  0.7818608E-02  0.1021719E+00
          2   -1    0    0  501    0  0.00000000000E+00  0.00000000000E+00  0.34419328753E+03  0.34419328754E+03  0.25500000000E-02 0.  1.
         -2   -1    0    0    0  501 -0.00000000000E+00 -0.00000000000E+00 -0.16093518686E+03  0.16093518688E+03  0.25500000000E-02 0. -1.
    5000001    1    1    2    0    0  0.93039215814E+02 -0.93991891401E+02  0.57054850405E+02  0.24002088926E+03  0.19200000000E+03 0.  0.
   -5000001    1    1    2    0    0 -0.93039215814E+02  0.93991891401E+02  0.12620325026E+03  0.26510758515E+03  0.19200000000E+03 0.  0.
<mgrwt>
<rscale>  0 0.47071355E+03</rscale>
<asrwt>0</asrwt>
<pdfrwt beam="1">  1        2 0.49170469E-01 0.47071355E+03</pdfrwt>
<pdfrwt beam="2">  1       -2 0.22990741E-01 0.47071355E+03</pdfrwt>
<totfact> 0.16960543E+03</totfact>
</mgrwt>
</event>
<event>
 4    1  0.5863356E-005  0.4716605E+03  0.7818608E-02  0.1021453E+00
          2   -1    0    0  501    0  0.00000000000E+00  0.00000000000E+00  0.15143938428E+04  0.15143938428E+04  0.25500000000E-02 0.  1.
         -2   -1    0    0    0  501 -0.00000000000E+00 -0.00000000000E+00 -0.36724864062E+02  0.36724864150E+02  0.25500000000E-02 0. -1.
    5000001    1    1    2    0    0  0.78772608905E+02  0.10471709280E+03  0.60806777725E+03  0.65098480410E+03  0.19200000000E+03 0.  0.
   -5000001    1    1    2    0    0 -0.78772608905E+02 -0.10471709280E+03  0.86960120154E+03  0.90013390290E+03  0.19200000000E+03 0.  0.
<mgrwt>
<rscale>  0 0.47166051E+03</rscale>
<asrwt>0</asrwt>
<pdfrwt beam="1">  1        2 0.21634198E+00 0.47166051E+03</pdfrwt>
<pdfrwt beam="2">  1       -2 0.52464091E-02 0.47166051E+03</pdfrwt>
<totfact> 0.27878910E+03</totfact>
</mgrwt>
</event>
<event>
 4    1  0.5863356E-005  0.5041644E+03  0.7818608E-02  0.1012698E+00
          2   -1    0    0  501    0  0.00000000000E+00  0.00000000000E+00  0.34953940982E+04  0.34953940982E+04  0.25500000000E-02 0.  1.
         -2   -1    0    0    0  501 -0.00000000000E+00 -0.00000000000E+00 -0.18179761310E+02  0.18179761489E+02  0.25500000000E-02 0. -1.
    5000001    1    1    2    0    0  0.27859875158E+02 -0.15384323966E+03  0.14089519378E+04  0.14305430710E+04  0.19200000000E+03 0.  0.
   -5000001    1    1    2    0    0 -0.27859875158E+02  0.15384323966E+03  0.20682623991E+04  0.20830307887E+04  0.19200000000E+03 0.  0.
<mgrwt>
<rscale>  0 0.50416438E+03</rscale>
<asrwt>0</asrwt>
<pdfrwt beam="1">  1        2 0.49934223E+00 0.50416438E+03</pdfrwt>
<pdfrwt beam="2">  1       -2 0.25971076E-02 0.50416438E+03</pdfrwt>
<totfact> 0.74672607E+02</totfact>
</mgrwt>
</event>
<event>
 4    1  0.5863356E-005  0.4588970E+03  0.7818608E-02  0.1025102E+00
         -2   -1    0    0    0  501 -0.00000000000E+00  0.00000000000E+00  0.14730410338E+02  0.14730410559E+02  0.25500000000E-02 0. -1.
          2   -1    0    0  501    0  0.00000000000E+00 -0.00000000000E+00 -0.35740089416E+04  0.35740089416E+04  0.25500000000E-02 0.  1.
    5000001    1    1    2    0    0 -0.12556458927E+03  0.37401283339E+01 -0.17911434907E+04  0.18057794602E+04  0.19200000000E+03 0.  0.
   -5000001    1    1    2    0    0  0.12556458927E+03 -0.37401283339E+01 -0.17681350405E+04  0.17829598919E+04  0.19200000000E+03 0.  0.
<mgrwt>
<rscale>  0 0.45889702E+03</rscale>
<asrwt>0</asrwt>
<pdfrwt beam="1">  1        2 0.51057215E+00 0.45889702E+03</pdfrwt>
<pdfrwt beam="2">  1       -2 0.21043466E-02 0.45889702E+03</pdfrwt>
<totfact> 0.92479878E+02</totfact>
</mgrwt>
</event>
<event>
 4    1  0.5863356E-005  0.4429862E+03  0.7818608E-02  0.1029835E+00
         -2   -1    0    0    0  501 -0.00000000000E+00  0.00000000000E+00  0.52803449900E+03  0.52803449901E+03  0.25500000000E-02 0. -1.
          2   -1    0    0  501    0  0.00000000000E+00 -0.00000000000E+00 -0.92909058072E+02  0.92909058107E+02  0.25500000000E-02 0.  1.
    5000001    1    1    2    0    0  0.79458514043E+02  0.75192081869E+02  0.23871355729E+03  0.32529320169E+03  0.19200000000E+03 0.  0.
   -5000001    1    1    2    0    0 -0.79458514043E+02 -0.75192081869E+02  0.19641188364E+03  0.29565035543E+03  0.19200000000E+03 0.  0.
<mgrwt>
<rscale>  0 0.44298618E+03</rscale>
<asrwt>0</asrwt>
<pdfrwt beam="1">  1        2 0.13272723E-01 0.44298618E+03</pdfrwt>
<pdfrwt beam="2">  1       -2 0.75433498E-01 0.44298618E+03</pdfrwt>
<totfact> 0.73797941E+02</totfact>
</mgrwt>
</event>
<event>
 4    1  0.5863356E-005  0.8486743E+03  0.7818608E-02  0.9492118E-01
         -2   -1    0    0    0  501 -0.00000000000E+00  0.00000000000E+00  0.10167565225E+03  0.10167565228E+03  0.25500000000E-02 0. -1.
          2   -1    0    0  501    0  0.00000000000E+00 -0.00000000000E+00 -0.17709452919E+04  0.17709452919E+04  0.25500000000E-02 0.  1.
    5000001    1    1    2    0    0  0.34050364508E+03  0.11650103527E+03 -0.10927397030E+04  0.11663872779E+04  0.19200000000E+03 0.  0.
   -5000001    1    1    2    0    0 -0.34050364508E+03 -0.11650103527E+03 -0.57652993659E+03  0.70623366623E+03  0.19200000000E+03 0.  0.
<mgrwt>
<rscale>  0 0.84867430E+03</rscale>
<asrwt>0</asrwt>
<pdfrwt beam="1">  1        2 0.25299217E+00 0.84867430E+03</pdfrwt>
<pdfrwt beam="2">  1       -2 0.14525094E-01 0.84867430E+03</pdfrwt>
<totfact> 0.39324854E+02</totfact>
</mgrwt>
</event>
<event>
 4    1  0.5863356E-005  0.5834939E+03  0.7818608E-02  0.9940255E-01
          2   -1    0    0  501    0  0.00000000000E+00  0.00000000000E+00  0.19379189939E+04  0.19379189939E+04  0.25500000000E-02 0.  1.
         -2   -1    0    0    0  501 -0.00000000000E+00 -0.00000000000E+00 -0.43921488679E+02  0.43921488753E+02  0.25500000000E-02 0. -1.
    5000001    1    1    2    0    0 -0.10248140477E+03  0.11448734644E+03  0.41381769106E+03  0.48137186483E+03  0.19200000000E+03 0.  0.
   -5000001    1    1    2    0    0  0.10248140477E+03 -0.11448734644E+03  0.14801798142E+04  0.15004686178E+04  0.19200000000E+03 0.  0.
<mgrwt>
<rscale>  0 0.58349392E+03</rscale>
<asrwt>0</asrwt>
<pdfrwt beam="1">  1        2 0.27684554E+00 0.58349392E+03</pdfrwt>
<pdfrwt beam="2">  1       -2 0.62744992E-02 0.58349392E+03</pdfrwt>
<totfact> 0.12827737E+03</totfact>
</mgrwt>
</event>
<event>
 4    1  0.5863356E-005  0.1050188E+04  0.7818608E-02  0.9255150E-01
          2   -1    0    0  501    0  0.00000000000E+00  0.00000000000E+00  0.12015398126E+04  0.12015398126E+04  0.25500000000E-02 0.  1.
         -2   -1    0    0    0  501 -0.00000000000E+00 -0.00000000000E+00 -0.22947544751E+03  0.22947544752E+03  0.25500000000E-02 0. -1.
    5000001    1    1    2    0    0 -0.37918626148E+02  0.48537305707E+03  0.42766050902E+03  0.67585674349E+03  0.19200000000E+03 0.  0.
   -5000001    1    1    2    0    0  0.37918626148E+02 -0.48537305707E+03  0.54440385605E+03  0.75515851662E+03  0.19200000000E+03 0.  0.
<mgrwt>
<rscale>  0 0.10501883E+04</rscale>
<asrwt>0</asrwt>
<pdfrwt beam="1">  1        2 0.17164854E+00 0.10501883E+04</pdfrwt>
<pdfrwt beam="2">  1       -2 0.32782207E-01 0.10501883E+04</pdfrwt>
<totfact> 0.18388998E+02</totfact>
</mgrwt>
</event>
<event>
 4    1  0.5863356E-005  0.9858594E+03  0.7818608E-02  0.9324191E-01
          2   -1    0    0  501    0  0.00000000000E+00  0.00000000000E+00  0.21535340747E+04  0.21535340747E+04  0.25500000000E-02 0.  1.
         -2   -1    0    0    0  501 -0.00000000000E+00 -0.00000000000E+00 -0.11282834995E+03  0.11282834998E+03  0.25500000000E-02 0. -1.
    5000001    1    1    2    0    0  0.25802384595E+03  0.37345551987E+03  0.10396367826E+04  0.11505450752E+04  0.19200000000E+03 0.  0.
   -5000001    1    1    2    0    0 -0.25802384595E+03 -0.37345551987E+03  0.10010689422E+04  0.11158173495E+04  0.19200000000E+03 0.  0.
<mgrwt>
<rscale>  0 0.98585941E+03</rscale>
<asrwt>0</asrwt>
<pdfrwt beam="1">  1        2 0.30764773E+00 0.98585941E+03</pdfrwt>
<pdfrwt beam="2">  1       -2 0.16118336E-01 0.98585941E+03</pdfrwt>
<totfact> 0.20837276E+02</totfact>
</mgrwt>
</event>
<event>
 4    1  0.5863356E-005  0.6084898E+03  0.7818608E-02  0.9887947E-01
         -2   -1    0    0    0  501 -0.00000000000E+00  0.00000000000E+00  0.26944868763E+03  0.26944868764E+03  0.25500000000E-02 0. -1.
          2   -1    0    0  501    0  0.00000000000E+00 -0.00000000000E+00 -0.34353466135E+03  0.34353466136E+03  0.25500000000E-02 0.  1.
    5000001    1    1    2    0    0  0.20710156373E+03  0.10542677104E+03  0.44326698442E+01  0.30147887208E+03  0.19200000000E+03 0.  0.
   -5000001    1    1    2    0    0 -0.20710156373E+03 -0.10542677104E+03 -0.78518643561E+02  0.31150447691E+03  0.19200000000E+03 0.  0.
<mgrwt>
<rscale>  0 0.60848981E+03</rscale>
<asrwt>0</asrwt>
<pdfrwt beam="1">  1        2 0.49076380E-01 0.60848981E+03</pdfrwt>
<pdfrwt beam="2">  1       -2 0.38492670E-01 0.60848981E+03</pdfrwt>
<totfact> 0.65746803E+02</totfact>
</mgrwt>
</event>
<event>
 4    1  0.5863356E-005  0.9804747E+03  0.7818608E-02  0.9330223E-01
          2   -1    0    0  501    0  0.00000000000E+00  0.00000000000E+00  0.82766817628E+03  0.82766817629E+03  0.25500000000E-02 0.  1.
         -2   -1    0    0    0  501 -0.00000000000E+00 -0.00000000000E+00 -0.29037317451E+03  0.29037317453E+03  0.25500000000E-02 0. -1.
    5000001    1    1    2    0    0 -0.95788330460E+02  0.36448708252E+03 -0.14006785096E+02  0.42318604373E+03  0.19200000000E+03 0.  0.
   -5000001    1    1    2    0    0  0.95788330460E+02 -0.36448708252E+03  0.55130178686E+03  0.69485530708E+03  0.19200000000E+03 0.  0.
<mgrwt>
<rscale>  0 0.98047465E+03</rscale>
<asrwt>0</asrwt>
<pdfrwt beam="1">  1        2 0.11823831E+00 0.98047465E+03</pdfrwt>
<pdfrwt beam="2">  1       -2 0.41481882E-01 0.98047465E+03</pdfrwt>
<totfact> 0.19981438E+02</totfact>
</mgrwt>
</event>
<event>
 4    1  0.5863356E-005  0.5497944E+03  0.7818608E-02  0.1001542E+00
          2   -1    0    0  501    0  0.00000000000E+00  0.00000000000E+00  0.18377392552E+04  0.18377392552E+04  0.25500000000E-02 0. -1.
         -2   -1    0    0    0  501 -0.00000000000E+00 -0.00000000000E+00 -0.41120347490E+02  0.41120347569E+02  0.25500000000E-02 0.  1.
    5000001    1    1    2    0    0 -0.16164530966E+03  0.10834279924E+03  0.99718408844E+03  0.10339765348E+04  0.19200000000E+03 0.  0.
   -5000001    1    1    2    0    0  0.16164530966E+03 -0.10834279924E+03  0.79943481932E+03  0.84488306801E+03  0.19200000000E+03 0.  0.
<mgrwt>
<rscale>  0 0.54979442E+03</rscale>
<asrwt>0</asrwt>
<pdfrwt beam="1">  1        2 0.26253420E+00 0.54979442E+03</pdfrwt>
<pdfrwt beam="2">  1       -2 0.58743349E-02 0.54979442E+03</pdfrwt>
<totfact> 0.15992986E+03</totfact>
</mgrwt>
</event>
<event>
 4    1  0.5863356E-005  0.4687317E+03  0.7818608E-02  0.1022279E+00
          2   -1    0    0  501    0  0.00000000000E+00  0.00000000000E+00  0.10544267595E+04  0.10544267595E+04  0.25500000000E-02 0.  1.
         -2   -1    0    0    0  501 -0.00000000000E+00 -0.00000000000E+00 -0.52092151399E+02  0.52092151462E+02  0.25500000000E-02 0. -1.
    5000001    1    1    2    0    0 -0.11724608202E+03  0.60170572383E+02  0.56345564574E+03  0.60968303752E+03  0.19200000000E+03 0.  0.
   -5000001    1    1    2    0    0  0.11724608202E+03 -0.60170572383E+02  0.43887896232E+03  0.49683587340E+03  0.19200000000E+03 0.  0.
<mgrwt>
<rscale>  0 0.46873173E+03</rscale>
<asrwt>0</asrwt>
<pdfrwt beam="1">  1        2 0.15063240E+00 0.46873173E+03</pdfrwt>
<pdfrwt beam="2">  1       -2 0.74417359E-02 0.46873173E+03</pdfrwt>
<totfact> 0.28760772E+03</totfact>
</mgrwt>
</event>
<event>
 4    1  0.5863356E-005  0.5034808E+03  0.7818608E-02  0.1012874E+00
          2   -1    0    0  501    0  0.00000000000E+00  0.00000000000E+00  0.78554182532E+03  0.78554182532E+03  0.25500000000E-02 0.  1.
         -2   -1    0    0    0  501 -0.00000000000E+00 -0.00000000000E+00 -0.80674542368E+02  0.80674542408E+02  0.25500000000E-02 0. -1.
    5000001    1    1    2    0    0 -0.72574395932E+02  0.14014564170E+03  0.28358567037E+03  0.37708444183E+03  0.19200000000E+03 0.  0.
   -5000001    1    1    2    0    0  0.72574395932E+02 -0.14014564170E+03  0.42128161258E+03  0.48913192590E+03  0.19200000000E+03 0.  0.
<mgrwt>
<rscale>  0 0.50348079E+03</rscale>
<asrwt>0</asrwt>
<pdfrwt beam="1">  1        2 0.11222026E+00 0.50348079E+03</pdfrwt>
<pdfrwt beam="2">  1       -2 0.11524935E-01 0.50348079E+03</pdfrwt>
<totfact> 0.21141398E+03</totfact>
</mgrwt>
</event>
<event>
 4    1  0.5863356E-005  0.4955203E+03  0.7818608E-02  0.1014955E+00
         -2   -1    0    0    0  501 -0.00000000000E+00  0.00000000000E+00  0.19143224343E+03  0.19143224345E+03  0.25500000000E-02 0. -1.
          2   -1    0    0  501    0  0.00000000000E+00 -0.00000000000E+00 -0.32066227934E+03  0.32066227935E+03  0.25500000000E-02 0.  1.
    5000001    1    1    2    0    0  0.18914535844E+02 -0.15320460307E+03 -0.37435344720E+02  0.24918831253E+03  0.19200000000E+03 0.  0.
   -5000001    1    1    2    0    0 -0.18914535844E+02  0.15320460307E+03 -0.91794691190E+02  0.26290621027E+03  0.19200000000E+03 0.  0.
<mgrwt>
<rscale>  0 0.49552033E+03</rscale>
<asrwt>0</asrwt>
<pdfrwt beam="1">  1        2 0.45808897E-01 0.49552033E+03</pdfrwt>
<pdfrwt beam="2">  1       -2 0.27347463E-01 0.49552033E+03</pdfrwt>
<totfact> 0.13443875E+03</totfact>
</mgrwt>
</event>
<event>
 4    1  0.5863356E-005  0.7458466E+03  0.7818608E-02  0.9641889E-01
          2   -1    0    0  501    0  0.00000000000E+00  0.00000000000E+00  0.28864140018E+03  0.28864140019E+03  0.25500000000E-02 0.  1.
         -2   -1    0    0    0  501 -0.00000000000E+00 -0.00000000000E+00 -0.48181507217E+03  0.48181507218E+03  0.25500000000E-02 0. -1.
    5000001    1    1    2    0    0 -0.12424178285E+03 -0.26799828041E+03 -0.22288586336E+03  0.41689471931E+03  0.19200000000E+03 0.  0.
   -5000001    1    1    2    0    0  0.12424178285E+03  0.26799828041E+03  0.29712191366E+02  0.35356175305E+03  0.19200000000E+03 0.  0.
<mgrwt>
<rscale>  0 0.74584657E+03</rscale>
<asrwt>0</asrwt>
<pdfrwt beam="1">  1        2 0.41234486E-01 0.74584657E+03</pdfrwt>
<pdfrwt beam="2">  1       -2 0.68830725E-01 0.74584657E+03</pdfrwt>
<totfact> 0.24216066E+02</totfact>
</mgrwt>
</event>
<event>
 4    1  0.5863356E-005  0.5269195E+03  0.7818608E-02  0.1006982E+00
         -2   -1    0    0    0  501 -0.00000000000E+00  0.00000000000E+00  0.15169239298E+03  0.15169239300E+03  0.25500000000E-02 0. -1.
          2   -1    0    0  501    0  0.00000000000E+00 -0.00000000000E+00 -0.45757750684E+03  0.45757750684E+03  0.25500000000E-02 0.  1.
    5000001    1    1    2    0    0  0.58533490089E+02 -0.16002412209E+03 -0.84407450790E+02  0.27022676933E+03  0.19200000000E+03 0.  0.
   -5000001    1    1    2    0    0 -0.58533490089E+02  0.16002412209E+03 -0.22147766306E+03  0.33904313052E+03  0.19200000000E+03 0.  0.
<mgrwt>
<rscale>  0 0.52691945E+03</rscale>
<asrwt>0</asrwt>
<pdfrwt beam="1">  1        2 0.65368215E-01 0.52691945E+03</pdfrwt>
<pdfrwt beam="2">  1       -2 0.21670342E-01 0.52691945E+03</pdfrwt>
<totfact> 0.13742531E+03</totfact>
</mgrwt>
</event>
<event>
 4    1  0.5863356E-005  0.6696934E+03  0.7818608E-02  0.9770512E-01
         -2   -1    0    0    0  501 -0.00000000000E+00  0.00000000000E+00  0.66325451124E+02  0.66325451173E+02  0.25500000000E-02 0. -1.
          2   -1    0    0  501    0  0.00000000000E+00 -0.00000000000E+00 -0.16904867905E+04  0.16904867905E+04  0.25500000000E-02 0.  1.
    5000001    1    1    2    0    0  0.16631411253E+03  0.84572375295E+02 -0.13396555096E+04  0.13661455835E+04  0.19200000000E+03 0.  0.
   -5000001    1    1    2    0    0 -0.16631411253E+03 -0.84572375295E+02 -0.28450582973E+03  0.39066665821E+03  0.19200000000E+03 0.  0.
<mgrwt>
<rscale>  0 0.66969336E+03</rscale>
<asrwt>0</asrwt>
<pdfrwt beam="1">  1        2 0.24149809E+00 0.66969336E+03</pdfrwt>
<pdfrwt beam="2">  1       -2 0.94750654E-02 0.66969336E+03</pdfrwt>
<totfact> 0.88400183E+02</totfact>
</mgrwt>
</event>
<event>
 4    1  0.5863356E-005  0.9222747E+03  0.7818608E-02  0.9398157E-01
         -2   -1    0    0    0  501 -0.00000000000E+00  0.00000000000E+00  0.93014067228E+02  0.93014067263E+02  0.25500000000E-02 0. -1.
          2   -1    0    0  501    0  0.00000000000E+00 -0.00000000000E+00 -0.22861880809E+04  0.22861880809E+04  0.25500000000E-02 0.  1.
    5000001    1    1    2    0    0  0.33547417874E+03  0.19542883293E+02 -0.17433633183E+04  0.17858064028E+04  0.19200000000E+03 0.  0.
   -5000001    1    1    2    0    0 -0.33547417874E+03 -0.19542883293E+02 -0.44981069540E+03  0.59339574533E+03  0.19200000000E+03 0.  0.
<mgrwt>
<rscale>  0 0.92227469E+03</rscale>
<asrwt>0</asrwt>
<pdfrwt beam="1">  1        2 0.32659826E+00 0.92227469E+03</pdfrwt>
<pdfrwt beam="2">  1       -2 0.13287725E-01 0.92227469E+03</pdfrwt>
<totfact> 0.24828734E+02</totfact>
</mgrwt>
</event>
<event>
 4    1  0.5863356E-005  0.5015327E+03  0.7818608E-02  0.1013380E+00
          2   -1    0    0  501    0  0.00000000000E+00  0.00000000000E+00  0.10873609526E+04  0.10873609526E+04  0.25500000000E-02 0.  1.
         -2   -1    0    0    0  501 -0.00000000000E+00 -0.00000000000E+00 -0.57831544709E+02  0.57831544766E+02  0.25500000000E-02 0. -1.
    5000001    1    1    2    0    0 -0.47296504634E+02  0.13850985139E+03  0.66959483029E+03  0.71178871516E+03  0.19200000000E+03 0.  0.
   -5000001    1    1    2    0    0  0.47296504634E+02 -0.13850985139E+03  0.35993457763E+03  0.43340378223E+03  0.19200000000E+03 0.  0.
<mgrwt>
<rscale>  0 0.50153271E+03</rscale>
<asrwt>0</asrwt>
<pdfrwt beam="1">  1        2 0.15533729E+00 0.50153271E+03</pdfrwt>
<pdfrwt beam="2">  1       -2 0.82616488E-02 0.50153271E+03</pdfrwt>
<totfact> 0.23316178E+03</totfact>
</mgrwt>
</event>
<event>
 4    1  0.5863356E-005  0.5503171E+03  0.7818608E-02  0.1001421E+00
          2   -1    0    0  501    0  0.00000000000E+00  0.00000000000E+00  0.27232007205E+04  0.27232007205E+04  0.25500000000E-02 0.  1.
         -2   -1    0    0    0  501 -0.00000000000E+00 -0.00000000000E+00 -0.27802659188E+02  0.27802659305E+02  0.25500000000E-02 0. -1.
    5000001    1    1    2    0    0 -0.93440782710E+02 -0.94755678214E+02  0.20744978658E+04  0.20876099285E+04  0.19200000000E+03 0.  0.
   -5000001    1    1    2    0    0  0.93440782710E+02  0.94755678214E+02  0.62090019550E+03  0.66339345128E+03  0.19200000000E+03 0.  0.
<mgrwt>
<rscale>  0 0.55031708E+03</rscale>
<asrwt>0</asrwt>
<pdfrwt beam="1">  1        2 0.38902882E+00 0.55031708E+03</pdfrwt>
<pdfrwt beam="2">  1       -2 0.39718070E-02 0.55031708E+03</pdfrwt>
<totfact> 0.10418999E+03</totfact>
</mgrwt>
</event>
<event>
 4    1  0.5863356E-005  0.4008255E+03  0.7818608E-02  0.1043494E+00
         -2   -1    0    0    0  501 -0.00000000000E+00  0.00000000000E+00  0.41755729982E+02  0.41755730060E+02  0.25500000000E-02 0. -1.
          2   -1    0    0  501    0  0.00000000000E+00 -0.00000000000E+00 -0.96191026972E+03  0.96191026972E+03  0.25500000000E-02 0.  1.
    5000001    1    1    2    0    0  0.34914330411E+01  0.52399838366E+02 -0.40171036242E+03  0.44832259417E+03  0.19200000000E+03 0.  0.
   -5000001    1    1    2    0    0 -0.34914330411E+01 -0.52399838366E+02 -0.51844417732E+03  0.55534340561E+03  0.19200000000E+03 0.  0.
<mgrwt>
<rscale>  0 0.40082548E+03</rscale>
<asrwt>0</asrwt>
<pdfrwt beam="1">  1        2 0.13741574E+00 0.40082548E+03</pdfrwt>
<pdfrwt beam="2">  1       -2 0.59651049E-02 0.40082548E+03</pdfrwt>
<totfact> 0.46122943E+03</totfact>
</mgrwt>
</event>
<event>
 4    1  0.5863356E-005  0.1281070E+04  0.7818608E-02  0.9044713E-01
         -2   -1    0    0    0  501 -0.00000000000E+00  0.00000000000E+00  0.25585516579E+03  0.25585516580E+03  0.25500000000E-02 0. -1.
          2   -1    0    0  501    0  0.00000000000E+00 -0.00000000000E+00 -0.16035834278E+04  0.16035834278E+04  0.25500000000E-02 0.  1.
    5000001    1    1    2    0    0  0.33758385701E+03 -0.50843993450E+03 -0.62919562237E+03  0.89734338952E+03  0.19200000000E+03 0.  0.
   -5000001    1    1    2    0    0 -0.33758385701E+03  0.50843993450E+03 -0.71853263968E+03  0.96209520412E+03  0.19200000000E+03 0.  0.
<mgrwt>
<rscale>  0 0.12810700E+04</rscale>
<asrwt>0</asrwt>
<pdfrwt beam="1">  1        2 0.22908334E+00 0.12810700E+04</pdfrwt>
<pdfrwt beam="2">  1       -2 0.36550739E-01 0.12810700E+04</pdfrwt>
<totfact> 0.89102355E+01</totfact>
</mgrwt>
</event>
<event>
 4    1  0.5863356E-005  0.5409844E+03  0.7818608E-02  0.1003602E+00
          2   -1    0    0  501    0  0.00000000000E+00  0.00000000000E+00  0.93782912141E+03  0.93782912141E+03  0.25500000000E-02 0.  1.
         -2   -1    0    0    0  501 -0.00000000000E+00 -0.00000000000E+00 -0.78016387361E+02  0.78016387403E+02  0.25500000000E-02 0. -1.
    5000001    1    1    2    0    0  0.13684829019E+03 -0.35608511375E+01  0.67875125088E+03  0.71854533244E+03  0.19200000000E+03 0.  0.
   -5000001    1    1    2    0    0 -0.13684829019E+03  0.35608511375E+01  0.18106148317E+03  0.29730017638E+03  0.19200000000E+03 0.  0.
<mgrwt>
<rscale>  0 0.54098444E+03</rscale>
<asrwt>0</asrwt>
<pdfrwt beam="1">  1        2 0.13397559E+00 0.54098444E+03</pdfrwt>
<pdfrwt beam="2">  1       -2 0.11145198E-01 0.54098444E+03</pdfrwt>
<totfact> 0.17712605E+03</totfact>
</mgrwt>
</event>
<event>
 4    1  0.5863356E-005  0.4900263E+03  0.7818608E-02  0.1016415E+00
         -2   -1    0    0    0  501 -0.00000000000E+00  0.00000000000E+00  0.62774211661E+02  0.62774211713E+02  0.25500000000E-02 0. -1.
          2   -1    0    0  501    0  0.00000000000E+00 -0.00000000000E+00 -0.95630729876E+03  0.95630729876E+03  0.25500000000E-02 0.  1.
    5000001    1    1    2    0    0 -0.69913588308E+02 -0.10723740587E+03 -0.61800200141E+03  0.65968041111E+03  0.19200000000E+03 0.  0.
   -5000001    1    1    2    0    0  0.69913588308E+02  0.10723740587E+03 -0.27553108569E+03  0.35940109937E+03  0.19200000000E+03 0.  0.
<mgrwt>
<rscale>  0 0.49002627E+03</rscale>
<asrwt>0</asrwt>
<pdfrwt beam="1">  1        2 0.13661532E+00 0.49002627E+03</pdfrwt>
<pdfrwt beam="2">  1       -2 0.89677451E-02 0.49002627E+03</pdfrwt>
<totfact> 0.24510782E+03</totfact>
</mgrwt>
</event>
<event>
 4    1  0.5863356E-005  0.5982803E+03  0.7818608E-02  0.9908980E-01
          2   -1    0    0  501    0  0.00000000000E+00  0.00000000000E+00  0.72300987927E+03  0.72300987928E+03  0.25500000000E-02 0.  1.
         -2   -1    0    0    0  501 -0.00000000000E+00 -0.00000000000E+00 -0.12376708648E+03  0.12376708651E+03  0.25500000000E-02 0. -1.
    5000001    1    1    2    0    0 -0.14541928572E+03  0.16754183663E+03  0.21704693361E+03  0.36495260935E+03  0.19200000000E+03 0.  0.
   -5000001    1    1    2    0    0  0.14541928572E+03 -0.16754183663E+03  0.38219585918E+03  0.48182435644E+03  0.19200000000E+03 0.  0.
<mgrwt>
<rscale>  0 0.59828029E+03</rscale>
<asrwt>0</asrwt>
<pdfrwt beam="1">  1        2 0.10328713E+00 0.59828029E+03</pdfrwt>
<pdfrwt beam="2">  1       -2 0.17681012E-01 0.59828029E+03</pdfrwt>
<totfact> 0.11455247E+03</totfact>
</mgrwt>
</event>
<event>
 4    1  0.5863356E-005  0.7666761E+03  0.7818608E-02  0.9609545E-01
          2   -1    0    0  501    0  0.00000000000E+00  0.00000000000E+00  0.34286406861E+04  0.34286406861E+04  0.25500000000E-02 0.  1.
         -2   -1    0    0    0  501 -0.00000000000E+00 -0.00000000000E+00 -0.42858983027E+02  0.42858983103E+02  0.25500000000E-02 0. -1.
    5000001    1    1    2    0    0  0.19205667129E+03 -0.20520331777E+03  0.24912802886E+04  0.25144255096E+04  0.19200000000E+03 0.  0.
   -5000001    1    1    2    0    0 -0.19205667129E+03  0.20520331777E+03  0.89450141440E+03  0.95707415960E+03  0.19200000000E+03 0.  0.
<mgrwt>
<rscale>  0 0.76667608E+03</rscale>
<asrwt>0</asrwt>
<pdfrwt beam="1">  1        2 0.48980583E+00 0.76667608E+03</pdfrwt>
<pdfrwt beam="2">  1       -2 0.61227117E-02 0.76667608E+03</pdfrwt>
<totfact> 0.21199261E+02</totfact>
</mgrwt>
</event>
<event>
 4    1  0.5863356E-005  0.5324699E+03  0.7818608E-02  0.1005635E+00
         -2   -1    0    0    0  501 -0.00000000000E+00  0.00000000000E+00  0.16138136181E+03  0.16138136183E+03  0.25500000000E-02 0. -1.
          2   -1    0    0  501    0  0.00000000000E+00 -0.00000000000E+00 -0.43921451847E+03  0.43921451847E+03  0.25500000000E-02 0.  1.
    5000001    1    1    2    0    0 -0.12079761643E+03  0.11960200651E+03 -0.58204891154E+02  0.26296104930E+03  0.19200000000E+03 0.  0.
   -5000001    1    1    2    0    0  0.12079761643E+03 -0.11960200651E+03 -0.21962826550E+03  0.33763483100E+03  0.19200000000E+03 0.  0.
<mgrwt>
<rscale>  0 0.53246986E+03</rscale>
<asrwt>0</asrwt>
<pdfrwt beam="1">  1        2 0.62744931E-01 0.53246986E+03</pdfrwt>
<pdfrwt beam="2">  1       -2 0.23054480E-01 0.53246986E+03</pdfrwt>
<totfact> 0.12898744E+03</totfact>
</mgrwt>
</event>
<event>
 4    1  0.5863356E-005  0.7256470E+03  0.7818608E-02  0.9674350E-01
          2   -1    0    0  501    0  0.00000000000E+00  0.00000000000E+00  0.76529478694E+03  0.76529478694E+03  0.25500000000E-02 0.  1.
         -2   -1    0    0    0  501 -0.00000000000E+00 -0.00000000000E+00 -0.17201331810E+03  0.17201331812E+03  0.25500000000E-02 0. -1.
    5000001    1    1    2    0    0 -0.17341611691E+03  0.19671261647E+03  0.88331010293E+02  0.33680167823E+03  0.19200000000E+03 0.  0.
   -5000001    1    1    2    0    0  0.17341611691E+03 -0.19671261647E+03  0.50495045854E+03  0.60050642683E+03  0.19200000000E+03 0.  0.
<mgrwt>
<rscale>  0 0.72564701E+03</rscale>
<asrwt>0</asrwt>
<pdfrwt beam="1">  1        2 0.10932783E+00 0.72564701E+03</pdfrwt>
<pdfrwt beam="2">  1       -2 0.24573330E-01 0.72564701E+03</pdfrwt>
<totfact> 0.59703661E+02</totfact>
</mgrwt>
</event>
<event>
 4    1  0.5863356E-005  0.5678601E+03  0.7818608E-02  0.9974425E-01
          2   -1    0    0  501    0  0.00000000000E+00  0.00000000000E+00  0.30575247839E+04  0.30575247839E+04  0.25500000000E-02 0.  1.
         -2   -1    0    0    0  501 -0.00000000000E+00 -0.00000000000E+00 -0.26366518234E+02  0.26366518358E+02  0.25500000000E-02 0. -1.
    5000001    1    1    2    0    0 -0.18931185444E+03 -0.82401115925E+02  0.13335598680E+04  0.13630388269E+04  0.19200000000E+03 0.  0.
   -5000001    1    1    2    0    0  0.18931185444E+03  0.82401115925E+02  0.16975983976E+04  0.17208524753E+04  0.19200000000E+03 0.  0.
<mgrwt>
<rscale>  0 0.56786013E+03</rscale>
<asrwt>0</asrwt>
<pdfrwt beam="1">  1        2 0.43678909E+00 0.56786013E+03</pdfrwt>
<pdfrwt beam="2">  1       -2 0.37666469E-02 0.56786013E+03</pdfrwt>
<totfact> 0.74748389E+02</totfact>
</mgrwt>
</event>
<event>
 4    1  0.5863356E-005  0.6301679E+03  0.7818608E-02  0.9844721E-01
          2   -1    0    0  501    0  0.00000000000E+00  0.00000000000E+00  0.14094811555E+04  0.14094811555E+04  0.25500000000E-02 0.  1.
         -2   -1    0    0    0  501 -0.00000000000E+00 -0.00000000000E+00 -0.70435783090E+02  0.70435783136E+02  0.25500000000E-02 0. -1.
    5000001    1    1    2    0    0 -0.23968007868E+03  0.34137800117E+02  0.52471689932E+03  0.60893657629E+03  0.19200000000E+03 0.  0.
   -5000001    1    1    2    0    0  0.23968007868E+03 -0.34137800117E+02  0.81432847307E+03  0.87098036233E+03  0.19200000000E+03 0.  0.
<mgrwt>
<rscale>  0 0.63016794E+03</rscale>
<asrwt>0</asrwt>
<pdfrwt beam="1">  1        2 0.20135442E+00 0.63016794E+03</pdfrwt>
<pdfrwt beam="2">  1       -2 0.10062256E-01 0.63016794E+03</pdfrwt>
<totfact> 0.11242425E+03</totfact>
</mgrwt>
</event>
<event>
 4    1  0.5863356E-005  0.6113843E+03  0.7818608E-02  0.9882065E-01
         -2   -1    0    0    0  501 -0.00000000000E+00  0.00000000000E+00  0.15986255789E+03  0.15986255791E+03  0.25500000000E-02 0. -1.
          2   -1    0    0  501    0  0.00000000000E+00 -0.00000000000E+00 -0.58455015757E+03  0.58455015757E+03  0.25500000000E-02 0.  1.
    5000001    1    1    2    0    0  0.67225043593E+02  0.22097116591E+03 -0.14307804246E+03  0.33269022962E+03  0.19200000000E+03 0.  0.
   -5000001    1    1    2    0    0 -0.67225043593E+02 -0.22097116591E+03 -0.28160955721E+03  0.41172248586E+03  0.19200000000E+03 0.  0.
<mgrwt>
<rscale>  0 0.61138428E+03</rscale>
<asrwt>0</asrwt>
<pdfrwt beam="1">  1        2 0.83507164E-01 0.61138428E+03</pdfrwt>
<pdfrwt beam="2">  1       -2 0.22837509E-01 0.61138428E+03</pdfrwt>
<totfact> 0.94629816E+02</totfact>
</mgrwt>
</event>
<event>
 4    1  0.5863356E-005  0.5657209E+03  0.7818608E-02  0.9979193E-01
         -2   -1    0    0    0  501 -0.00000000000E+00  0.00000000000E+00  0.16669993330E+03  0.16669993332E+03  0.25500000000E-02 0. -1.
          2   -1    0    0  501    0  0.00000000000E+00 -0.00000000000E+00 -0.47996442579E+03  0.47996442579E+03  0.25500000000E-02 0.  1.
    5000001    1    1    2    0    0  0.20133684405E+03  0.64274978463E+01 -0.21456059322E+03  0.35139448724E+03  0.19200000000E+03 0.  0.
   -5000001    1    1    2    0    0 -0.20133684405E+03 -0.64274978463E+01 -0.98703899267E+02  0.29526987187E+03  0.19200000000E+03 0.  0.
<mgrwt>
<rscale>  0 0.56572091E+03</rscale>
<asrwt>0</asrwt>
<pdfrwt beam="1">  1        2 0.68566346E-01 0.56572091E+03</pdfrwt>
<pdfrwt beam="2">  1       -2 0.23814276E-01 0.56572091E+03</pdfrwt>
<totfact> 0.11021779E+03</totfact>
</mgrwt>
</event>
<event>
 4    1  0.5863356E-005  0.4110776E+03  0.7818608E-02  0.1040010E+00
         -2   -1    0    0    0  501 -0.00000000000E+00  0.00000000000E+00  0.33035369267E+02  0.33035369366E+02  0.25500000000E-02 0. -1.
          2   -1    0    0  501    0  0.00000000000E+00 -0.00000000000E+00 -0.12788172571E+04  0.12788172571E+04  0.25500000000E-02 0.  1.
    5000001    1    1    2    0    0 -0.64400842047E+02  0.17302956510E+02 -0.52529182623E+03  0.56324272163E+03  0.19200000000E+03 0.  0.
   -5000001    1    1    2    0    0  0.64400842047E+02 -0.17302956510E+02 -0.72049006161E+03  0.74860990485E+03  0.19200000000E+03 0.  0.
<mgrwt>
<rscale>  0 0.41107761E+03</rscale>
<asrwt>0</asrwt>
<pdfrwt beam="1">  1        2 0.18268815E+00 0.41107761E+03</pdfrwt>
<pdfrwt beam="2">  1       -2 0.47193393E-02 0.41107761E+03</pdfrwt>
<totfact> 0.43646612E+03</totfact>
</mgrwt>
</event>
<event>
 4    1  0.5863356E-005  0.9307935E+03  0.7818608E-02  0.9387886E-01
          2   -1    0    0  501    0  0.00000000000E+00  0.00000000000E+00  0.21282270842E+04  0.21282270842E+04  0.25500000000E-02 0.  1.
         -2   -1    0    0    0  501 -0.00000000000E+00 -0.00000000000E+00 -0.10177209119E+03  0.10177209123E+03  0.25500000000E-02 0. -1.
    5000001    1    1    2    0    0  0.26611739442E+03  0.23879064194E+03  0.46747457824E+03  0.61906051368E+03  0.19200000000E+03 0.  0.
   -5000001    1    1    2    0    0 -0.26611739442E+03 -0.23879064194E+03  0.15589804148E+04  0.16109386617E+04  0.19200000000E+03 0.  0.
<mgrwt>
<rscale>  0 0.93079347E+03</rscale>
<asrwt>0</asrwt>
<pdfrwt beam="1">  1        2 0.30403246E+00 0.93079347E+03</pdfrwt>
<pdfrwt beam="2">  1       -2 0.14538869E-01 0.93079347E+03</pdfrwt>
<totfact> 0.25681485E+02</totfact>
</mgrwt>
</event>
<event>
 4    1  0.5863356E-005  0.5669559E+03  0.7818608E-02  0.9976438E-01
         -2   -1    0    0    0  501 -0.00000000000E+00  0.00000000000E+00  0.31905390883E+02  0.31905390985E+02  0.25500000000E-02 0. -1.
          2   -1    0    0  501    0  0.00000000000E+00 -0.00000000000E+00 -0.25186883190E+04  0.25186883190E+04  0.25500000000E-02 0.  1.
    5000001    1    1    2    0    0  0.66087825862E+02 -0.16139597597E+03 -0.72888933825E+03  0.77366654910E+03  0.19200000000E+03 0.  0.
   -5000001    1    1    2    0    0 -0.66087825862E+02  0.16139597597E+03 -0.17578935899E+04  0.17769271609E+04  0.19200000000E+03 0.  0.
<mgrwt>
<rscale>  0 0.56695586E+03</rscale>
<asrwt>0</asrwt>
<pdfrwt beam="1">  1        2 0.35981249E+00 0.56695586E+03</pdfrwt>
<pdfrwt beam="2">  1       -2 0.45579146E-02 0.56695586E+03</pdfrwt>
<totfact> 0.10746226E+03</totfact>
</mgrwt>
</event>
<event>
 4    1  0.5863356E-005  0.5722657E+03  0.7818608E-02  0.9964677E-01
          2   -1    0    0  501    0  0.00000000000E+00  0.00000000000E+00  0.45625473354E+03  0.45625473355E+03  0.25500000000E-02 0.  1.
         -2   -1    0    0    0  501 -0.00000000000E+00 -0.00000000000E+00 -0.17944362944E+03  0.17944362946E+03  0.25500000000E-02 0. -1.
    5000001    1    1    2    0    0  0.19460889262E+03  0.65416288150E+02  0.19777179895E+03  0.34369986369E+03  0.19200000000E+03 0.  0.
   -5000001    1    1    2    0    0 -0.19460889262E+03 -0.65416288150E+02  0.79039305152E+02  0.29199849932E+03  0.19200000000E+03 0.  0.
<mgrwt>
<rscale>  0 0.57226569E+03</rscale>
<asrwt>0</asrwt>
<pdfrwt beam="1">  1        2 0.65179247E-01 0.57226569E+03</pdfrwt>
<pdfrwt beam="2">  1       -2 0.25634804E-01 0.57226569E+03</pdfrwt>
<totfact> 0.10226407E+03</totfact>
</mgrwt>
</event>
<event>
 4    1  0.5863356E-005  0.6900935E+03  0.7818608E-02  0.9734325E-01
          2   -1    0    0  501    0  0.00000000000E+00  0.00000000000E+00  0.23599412318E+03  0.23599412319E+03  0.25500000000E-02 0.  1.
         -2   -1    0    0    0  501 -0.00000000000E+00 -0.00000000000E+00 -0.50449245789E+03  0.50449245790E+03  0.25500000000E-02 0. -1.
    5000001    1    1    2    0    0  0.52239816139E+02  0.24453961404E+03 -0.28471995636E+03  0.42480357199E+03  0.19200000000E+03 0.  0.
   -5000001    1    1    2    0    0 -0.52239816139E+02 -0.24453961404E+03  0.16221621644E+02  0.31568300910E+03  0.19200000000E+03 0.  0.
<mgrwt>
<rscale>  0 0.69009349E+03</rscale>
<asrwt>0</asrwt>
<pdfrwt beam="1">  1        2 0.33713446E-01 0.69009349E+03</pdfrwt>
<pdfrwt beam="2">  1       -2 0.72070351E-01 0.69009349E+03</pdfrwt>
<totfact> 0.27459835E+02</totfact>
</mgrwt>
</event>
<event>
 4    1  0.5863356E-005  0.5076632E+03  0.7818608E-02  0.1011798E+00
          2   -1    0    0  501    0  0.00000000000E+00  0.00000000000E+00  0.50627585852E+02  0.50627585916E+02  0.25500000000E-02 0.  1.
         -2   -1    0    0    0  501 -0.00000000000E+00 -0.00000000000E+00 -0.12726359846E+04  0.12726359846E+04  0.25500000000E-02 0. -1.
    5000001    1    1    2    0    0 -0.15949438164E+03  0.37222890008E+02 -0.68202979312E+03  0.72722255192E+03  0.19200000000E+03 0.  0.
   -5000001    1    1    2    0    0  0.15949438164E+03 -0.37222890008E+02 -0.53997860561E+03  0.59604101858E+03  0.19200000000E+03 0.  0.
<mgrwt>
<rscale>  0 0.50766323E+03</rscale>
<asrwt>0</asrwt>
<pdfrwt beam="1">  1        2 0.72325131E-02 0.50766323E+03</pdfrwt>
<pdfrwt beam="2">  1       -2 0.18180512E+00 0.50766323E+03</pdfrwt>
<totfact> 0.18232960E+02</totfact>
</mgrwt>
</event>
<event>
 4    1  0.5863356E-005  0.7175887E+03  0.7818608E-02  0.9687617E-01
         -2   -1    0    0    0  501 -0.00000000000E+00  0.00000000000E+00  0.12894759356E+04  0.12894759356E+04  0.25500000000E-02 0. -1.
          2   -1    0    0  501    0  0.00000000000E+00 -0.00000000000E+00 -0.99833885396E+02  0.99833885428E+02  0.25500000000E-02 0.  1.
    5000001    1    1    2    0    0 -0.11512415727E+03 -0.21165152240E+03  0.23877446018E+03  0.38977837466E+03  0.19200000000E+03 0.  0.
   -5000001    1    1    2    0    0  0.11512415727E+03  0.21165152240E+03  0.95086759007E+03  0.99953144641E+03  0.19200000000E+03 0.  0.
<mgrwt>
<rscale>  0 0.71758872E+03</rscale>
<asrwt>0</asrwt>
<pdfrwt beam="1">  1        2 0.14261985E-01 0.71758872E+03</pdfrwt>
<pdfrwt beam="2">  1       -2 0.18421083E+00 0.71758872E+03</pdfrwt>
<totfact> 0.73571851E+01</totfact>
</mgrwt>
</event>
<event>
 4    1  0.5863356E-005  0.8573574E+03  0.7818608E-02  0.9480515E-01
          2   -1    0    0  501    0  0.00000000000E+00  0.00000000000E+00  0.51951848262E+03  0.51951848263E+03  0.25500000000E-02 0.  1.
         -2   -1    0    0    0  501 -0.00000000000E+00 -0.00000000000E+00 -0.35372257772E+03  0.35372257773E+03  0.25500000000E-02 0. -1.
    5000001    1    1    2    0    0 -0.35390204359E+03  0.13283000356E+03  0.14740332896E+03  0.44886769509E+03  0.19200000000E+03 0.  0.
   -5000001    1    1    2    0    0  0.35390204359E+03 -0.13283000356E+03  0.18392575940E+02  0.42437336527E+03  0.19200000000E+03 0.  0.
<mgrwt>
<rscale>  0 0.85735737E+03</rscale>
<asrwt>0</asrwt>
<pdfrwt beam="1">  1        2 0.74216926E-01 0.85735737E+03</pdfrwt>
<pdfrwt beam="2">  1       -2 0.50531797E-01 0.85735737E+03</pdfrwt>
<totfact> 0.23897390E+02</totfact>
</mgrwt>
</event>
<event>
 4    1  0.5863356E-005  0.5733296E+03  0.7818608E-02  0.9962338E-01
          2   -1    0    0  501    0  0.00000000000E+00  0.00000000000E+00  0.10520094855E+04  0.10520094855E+04  0.25500000000E-02 0.  1.
         -2   -1    0    0    0  501 -0.00000000000E+00 -0.00000000000E+00 -0.78114029554E+02  0.78114029596E+02  0.25500000000E-02 0. -1.
    5000001    1    1    2    0    0 -0.20226473911E+03  0.62153460001E+02  0.53269486586E+03  0.60448481982E+03  0.19200000000E+03 0.  0.
   -5000001    1    1    2    0    0  0.20226473911E+03 -0.62153460001E+02  0.44120059006E+03  0.52563869526E+03  0.19200000000E+03 0.  0.
<mgrwt>
<rscale>  0 0.57332957E+03</rscale>
<asrwt>0</asrwt>
<pdfrwt beam="1">  1        2 0.15028706E+00 0.57332957E+03</pdfrwt>
<pdfrwt beam="2">  1       -2 0.11159148E-01 0.57332957E+03</pdfrwt>
<totfact> 0.15051406E+03</totfact>
</mgrwt>
</event>
<event>
 4    1  0.5863356E-005  0.5279289E+03  0.7818608E-02  0.1006736E+00
         -2   -1    0    0    0  501 -0.00000000000E+00  0.00000000000E+00  0.30565544949E+02  0.30565545056E+02  0.25500000000E-02 0. -1.
          2   -1    0    0  501    0  0.00000000000E+00 -0.00000000000E+00 -0.22796004040E+04  0.22796004040E+04  0.25500000000E-02 0.  1.
    5000001    1    1    2    0    0 -0.32072983301E+02  0.17464979808E+03 -0.96783804842E+03  0.10025496079E+04  0.19200000000E+03 0.  0.
   -5000001    1    1    2    0    0  0.32072983301E+02 -0.17464979808E+03 -0.12811968106E+04  0.13076163412E+04  0.19200000000E+03 0.  0.
<mgrwt>
<rscale>  0 0.52792889E+03</rscale>
<asrwt>0</asrwt>
<pdfrwt beam="1">  1        2 0.32565709E+00 0.52792889E+03</pdfrwt>
<pdfrwt beam="2">  1       -2 0.43665079E-02 0.52792889E+03</pdfrwt>
<totfact> 0.15222354E+03</totfact>
</mgrwt>
</event>
<event>
 4    1  0.5863356E-005  0.9003266E+03  0.7818608E-02  0.9425173E-01
         -2   -1    0    0    0  501 -0.00000000000E+00  0.00000000000E+00  0.14199483875E+03  0.14199483877E+03  0.25500000000E-02 0. -1.
          2   -1    0    0  501    0  0.00000000000E+00 -0.00000000000E+00 -0.14271432488E+04  0.14271432488E+04  0.25500000000E-02 0.  1.
    5000001    1    1    2    0    0  0.31553304916E+03 -0.10294753018E+02 -0.19443388036E+03  0.41753517323E+03  0.19200000000E+03 0.  0.
   -5000001    1    1    2    0    0 -0.31553304916E+03  0.10294753018E+02 -0.10907145297E+04  0.11516029144E+04  0.19200000000E+03 0.  0.
<mgrwt>
<rscale>  0 0.90032655E+03</rscale>
<asrwt>0</asrwt>
<pdfrwt beam="1">  1        2 0.20387760E+00 0.90032655E+03</pdfrwt>
<pdfrwt beam="2">  1       -2 0.20284978E-01 0.90032655E+03</pdfrwt>
<totfact> 0.33346357E+02</totfact>
</mgrwt>
</event>
<event>
 4    1  0.5863356E-005  0.5368743E+03  0.7818608E-02  0.1004578E+00
         -2   -1    0    0    0  501 -0.00000000000E+00  0.00000000000E+00  0.23945793114E+03  0.23945793115E+03  0.25500000000E-02 0. -1.
          2   -1    0    0  501    0  0.00000000000E+00 -0.00000000000E+00 -0.30092345848E+03  0.30092345849E+03  0.25500000000E-02 0.  1.
    5000001    1    1    2    0    0 -0.10329189697E+03  0.27930493247E+02 -0.18583408204E+03  0.28783265013E+03  0.19200000000E+03 0.  0.
   -5000001    1    1    2    0    0  0.10329189697E+03 -0.27930493247E+02  0.12436855470E+03  0.25254873952E+03  0.19200000000E+03 0.  0.
<mgrwt>
<rscale>  0 0.53687432E+03</rscale>
<asrwt>0</asrwt>
<pdfrwt beam="1">  1        2 0.42989066E-01 0.53687432E+03</pdfrwt>
<pdfrwt beam="2">  1       -2 0.34208276E-01 0.53687432E+03</pdfrwt>
<totfact> 0.95326565E+02</totfact>
</mgrwt>
</event>
<event>
 4    1  0.5863356E-005  0.1485437E+04  0.7818608E-02  0.8894195E-01
          2   -1    0    0  501    0  0.00000000000E+00  0.00000000000E+00  0.13768206532E+04  0.13768206532E+04  0.25500000000E-02 0.  1.
         -2   -1    0    0    0  501 -0.00000000000E+00 -0.00000000000E+00 -0.40065554403E+03  0.40065554404E+03  0.25500000000E-02 0. -1.
    5000001    1    1    2    0    0  0.80578157936E+00 -0.70440024912E+03  0.65121786115E+03  0.97832973119E+03  0.19200000000E+03 0.  0.
   -5000001    1    1    2    0    0 -0.80578157936E+00  0.70440024912E+03  0.32494724805E+03  0.79914646609E+03  0.19200000000E+03 0.  0.
<mgrwt>
<rscale>  0 0.14854371E+04</rscale>
<asrwt>0</asrwt>
<pdfrwt beam="1">  1        2 0.19668866E+00 0.14854371E+04</pdfrwt>
<pdfrwt beam="2">  1       -2 0.57236507E-01 0.14854371E+04</pdfrwt>
<totfact> 0.47192330E+01</totfact>
</mgrwt>
</event>
<event>
 4    1  0.5863356E-005  0.8564392E+03  0.7818608E-02  0.9481735E-01
         -2   -1    0    0    0  501 -0.00000000000E+00  0.00000000000E+00  0.27403913121E+03  0.27403913122E+03  0.25500000000E-02 0. -1.
          2   -1    0    0  501    0  0.00000000000E+00 -0.00000000000E+00 -0.66914534842E+03  0.66914534843E+03  0.25500000000E-02 0.  1.
    5000001    1    1    2    0    0  0.89277637540E+02 -0.37049216150E+03 -0.15825908064E+03  0.45513171160E+03  0.19200000000E+03 0.  0.
   -5000001    1    1    2    0    0 -0.89277637540E+02  0.37049216150E+03 -0.23684713658E+03  0.48805276805E+03  0.19200000000E+03 0.  0.
<mgrwt>
<rscale>  0 0.85643916E+03</rscale>
<asrwt>0</asrwt>
<pdfrwt beam="1">  1        2 0.95592192E-01 0.85643916E+03</pdfrwt>
<pdfrwt beam="2">  1       -2 0.39148447E-01 0.85643916E+03</pdfrwt>
<totfact> 0.29431518E+02</totfact>
</mgrwt>
</event>
<event>
 4    1  0.5863356E-005  0.9199968E+03  0.7818608E-02  0.9400924E-01
          2   -1    0    0  501    0  0.00000000000E+00  0.00000000000E+00  0.99385852497E+03  0.99385852498E+03  0.25500000000E-02 0.  1.
         -2   -1    0    0    0  501 -0.00000000000E+00 -0.00000000000E+00 -0.21290609261E+03  0.21290609262E+03  0.25500000000E-02 0. -1.
    5000001    1    1    2    0    0 -0.18191422875E+03  0.18615532199E+03  0.81952202730E+03  0.88103742472E+03  0.19200000000E+03 0.  0.
   -5000001    1    1    2    0    0  0.18191422875E+03 -0.18615532199E+03 -0.38569594930E+02  0.32572719288E+03  0.19200000000E+03 0.  0.
<mgrwt>
<rscale>  0 0.91999682E+03</rscale>
<asrwt>0</asrwt>
<pdfrwt beam="1">  1        2 0.14197979E+00 0.91999682E+03</pdfrwt>
<pdfrwt beam="2">  1       -2 0.30415156E-01 0.91999682E+03</pdfrwt>
<totfact> 0.28283740E+02</totfact>
</mgrwt>
</event>
<event>
 4    1  0.5863356E-005  0.4052565E+03  0.7818608E-02  0.1041975E+00
          2   -1    0    0  501    0  0.00000000000E+00  0.00000000000E+00  0.21053259658E+03  0.21053259659E+03  0.25500000000E-02 0.  1.
         -2   -1    0    0    0  501 -0.00000000000E+00 -0.00000000000E+00 -0.19502065342E+03  0.19502065344E+03  0.25500000000E-02 0. -1.
    5000001    1    1    2    0    0  0.21851858368E+02 -0.30417349014E+02 -0.45117231248E+02  0.20075428611E+03  0.19200000000E+03 0.  0.
   -5000001    1    1    2    0    0 -0.21851858368E+02  0.30417349014E+02  0.60629174400E+02  0.20479896392E+03  0.19200000000E+03 0.  0.
<mgrwt>
<rscale>  0 0.40525648E+03</rscale>
<asrwt>0</asrwt>
<pdfrwt beam="1">  1        2 0.30076085E-01 0.40525648E+03</pdfrwt>
<pdfrwt beam="2">  1       -2 0.27860093E-01 0.40525648E+03</pdfrwt>
<totfact> 0.20623873E+03</totfact>
</mgrwt>
</event>
<event>
 4    1  0.5863356E-005  0.5249979E+03  0.7818608E-02  0.1007452E+00
          2   -1    0    0  501    0  0.00000000000E+00  0.00000000000E+00  0.18771694434E+04  0.18771694435E+04  0.25500000000E-02 0.  1.
         -2   -1    0    0    0  501 -0.00000000000E+00 -0.00000000000E+00 -0.36707235837E+02  0.36707235925E+02  0.25500000000E-02 0. -1.
    5000001    1    1    2    0    0 -0.16497802911E+03 -0.66504522906E+02  0.84722105291E+03  0.88672888424E+03  0.19200000000E+03 0.  0.
   -5000001    1    1    2    0    0  0.16497802911E+03  0.66504522906E+02  0.99324115470E+03  0.10271477951E+04  0.19200000000E+03 0.  0.
<mgrwt>
<rscale>  0 0.52499791E+03</rscale>
<asrwt>0</asrwt>
<pdfrwt beam="1">  1        2 0.26816706E+00 0.52499791E+03</pdfrwt>
<pdfrwt beam="2">  1       -2 0.52438909E-02 0.52499791E+03</pdfrwt>
<totfact> 0.18251053E+03</totfact>
</mgrwt>
</event>
<event>
 4    1  0.5863356E-005  0.5642554E+03  0.7818608E-02  0.9982472E-01
          2   -1    0    0  501    0  0.00000000000E+00  0.00000000000E+00  0.42281016785E+03  0.42281016786E+03  0.25500000000E-02 0.  1.
         -2   -1    0    0    0  501 -0.00000000000E+00 -0.00000000000E+00 -0.18825475856E+03  0.18825475858E+03  0.25500000000E-02 0. -1.
    5000001    1    1    2    0    0  0.18151976244E+03 -0.50574982505E+02  0.20932770056E+03  0.34086557355E+03  0.19200000000E+03 0.  0.
   -5000001    1    1    2    0    0 -0.18151976244E+03  0.50574982505E+02  0.25227708726E+02  0.27019935288E+03  0.19200000000E+03 0.  0.
<mgrwt>
<rscale>  0 0.56425535E+03</rscale>
<asrwt>0</asrwt>
<pdfrwt beam="1">  1        2 0.60401452E-01 0.56425535E+03</pdfrwt>
<pdfrwt beam="2">  1       -2 0.26893537E-01 0.56425535E+03</pdfrwt>
<totfact> 0.10211800E+03</totfact>
</mgrwt>
</event>
<event>
 4    1  0.5863356E-005  0.8079162E+03  0.7818608E-02  0.9548629E-01
          2   -1    0    0  501    0  0.00000000000E+00  0.00000000000E+00  0.80334672310E+03  0.80334672310E+03  0.25500000000E-02 0.  1.
         -2   -1    0    0    0  501 -0.00000000000E+00 -0.00000000000E+00 -0.20312790623E+03  0.20312790625E+03  0.25500000000E-02 0. -1.
    5000001    1    1    2    0    0  0.45644416651E+02  0.34260943814E+03  0.40324122596E+03  0.56474076016E+03  0.19200000000E+03 0.  0.
   -5000001    1    1    2    0    0 -0.45644416651E+02 -0.34260943814E+03  0.19697759090E+03  0.44173386919E+03  0.19200000000E+03 0.  0.
<mgrwt>
<rscale>  0 0.80791618E+03</rscale>
<asrwt>0</asrwt>
<pdfrwt beam="1">  1        2 0.11476382E+00 0.80791618E+03</pdfrwt>
<pdfrwt beam="2">  1       -2 0.29018272E-01 0.80791618E+03</pdfrwt>
<totfact> 0.41334865E+02</totfact>
</mgrwt>
</event>
<event>
 4    1  0.5863356E-005  0.5252925E+03  0.7818608E-02  0.1007380E+00
          2   -1    0    0  501    0  0.00000000000E+00  0.00000000000E+00  0.25541073971E+04  0.25541073971E+04  0.25500000000E-02 0.  1.
         -2   -1    0    0    0  501 -0.00000000000E+00 -0.00000000000E+00 -0.27008671245E+02  0.27008671365E+02  0.25500000000E-02 0. -1.
    5000001    1    1    2    0    0 -0.12791412996E+03 -0.11321699128E+03  0.99716951144E+03  0.10297529540E+04  0.19200000000E+03 0.  0.
   -5000001    1    1    2    0    0  0.12791412996E+03  0.11321699128E+03  0.15299292144E+04  0.15513631144E+04  0.19200000000E+03 0.  0.
<mgrwt>
<rscale>  0 0.52529248E+03</rscale>
<asrwt>0</asrwt>
<pdfrwt beam="1">  1        2 0.36487261E+00 0.52529248E+03</pdfrwt>
<pdfrwt beam="2">  1       -2 0.38583803E-02 0.52529248E+03</pdfrwt>
<totfact> 0.13351374E+03</totfact>
</mgrwt>
</event>
<event>
 4    1  0.5863356E-005  0.6468391E+03  0.7818608E-02  0.9812728E-01
         -2   -1    0    0    0  501 -0.00000000000E+00  0.00000000000E+00  0.51581964086E+02  0.51581964149E+02  0.25500000000E-02 0. -1.
          2   -1    0    0  501    0  0.00000000000E+00 -0.00000000000E+00 -0.20278447311E+04  0.20278447311E+04  0.25500000000E-02 0.  1.
    5000001    1    1    2    0    0  0.41741846901E+02  0.18316315090E+03 -0.40907368343E+03  0.48938369416E+03  0.19200000000E+03 0.  0.
   -5000001    1    1    2    0    0 -0.41741846901E+02 -0.18316315090E+03 -0.15671890836E+04  0.15900430011E+04  0.19200000000E+03 0.  0.
<mgrwt>
<rscale>  0 0.64683913E+03</rscale>
<asrwt>0</asrwt>
<pdfrwt beam="1">  1        2 0.28969206E+00 0.64683913E+03</pdfrwt>
<pdfrwt beam="2">  1       -2 0.73688533E-02 0.64683913E+03</pdfrwt>
<totfact> 0.89380235E+02</totfact>
</mgrwt>
</event>
<event>
 4    1  0.5863356E-005  0.6135329E+03  0.7818608E-02  0.9877721E-01
         -2   -1    0    0    0  501 -0.00000000000E+00  0.00000000000E+00  0.18157399960E+03  0.18157399962E+03  0.25500000000E-02 0. -1.
          2   -1    0    0  501    0  0.00000000000E+00 -0.00000000000E+00 -0.51827714901E+03  0.51827714901E+03  0.25500000000E-02 0.  1.
    5000001    1    1    2    0    0 -0.17962491021E+03  0.14791388665E+03 -0.23184233626E+03  0.38047141169E+03  0.19200000000E+03 0.  0.
   -5000001    1    1    2    0    0  0.17962491021E+03 -0.14791388665E+03 -0.10486081315E+03  0.31937973694E+03  0.19200000000E+03 0.  0.
<mgrwt>
<rscale>  0 0.61353290E+03</rscale>
<asrwt>0</asrwt>
<pdfrwt beam="1">  1        2 0.74039592E-01 0.61353290E+03</pdfrwt>
<pdfrwt beam="2">  1       -2 0.25939143E-01 0.61353290E+03</pdfrwt>
<totfact> 0.86604463E+02</totfact>
</mgrwt>
</event>
<event>
 4    1  0.5863356E-005  0.6172156E+03  0.7818608E-02  0.9870319E-01
          2   -1    0    0  501    0  0.00000000000E+00  0.00000000000E+00  0.15843993856E+04  0.15843993856E+04  0.25500000000E-02 0.  1.
         -2   -1    0    0    0  501 -0.00000000000E+00 -0.00000000000E+00 -0.60110339827E+02  0.60110339881E+02  0.25500000000E-02 0. -1.
    5000001    1    1    2    0    0 -0.23499234465E+03  0.25397366769E+02  0.89558703895E+03  0.94594216135E+03  0.19200000000E+03 0.  0.
   -5000001    1    1    2    0    0  0.23499234465E+03 -0.25397366769E+02  0.62870200687E+03  0.69856756418E+03  0.19200000000E+03 0.  0.
<mgrwt>
<rscale>  0 0.61721564E+03</rscale>
<asrwt>0</asrwt>
<pdfrwt beam="1">  1        2 0.22634277E+00 0.61721564E+03</pdfrwt>
<pdfrwt beam="2">  1       -2 0.85871914E-02 0.61721564E+03</pdfrwt>
<totfact> 0.11768357E+03</totfact>
</mgrwt>
</event>
<event>
 4    1  0.5863356E-005  0.5430631E+03  0.7818608E-02  0.1003112E+00
         -2   -1    0    0    0  501 -0.00000000000E+00  0.00000000000E+00  0.21832206300E+03  0.21832206301E+03  0.25500000000E-02 0. -1.
          2   -1    0    0  501    0  0.00000000000E+00 -0.00000000000E+00 -0.33770920437E+03  0.33770920438E+03  0.25500000000E-02 0.  1.
    5000001    1    1    2    0    0 -0.10239200561E+03  0.15957542417E+03 -0.28689595896E+02  0.27135867726E+03  0.19200000000E+03 0.  0.
   -5000001    1    1    2    0    0  0.10239200561E+03 -0.15957542417E+03 -0.90697545473E+02  0.28467259012E+03  0.19200000000E+03 0.  0.
<mgrwt>
<rscale>  0 0.54306305E+03</rscale>
<asrwt>0</asrwt>
<pdfrwt beam="1">  1        2 0.48244172E-01 0.54306305E+03</pdfrwt>
<pdfrwt beam="2">  1       -2 0.31188866E-01 0.54306305E+03</pdfrwt>
<totfact> 0.99796606E+02</totfact>
</mgrwt>
</event>
<event>
 4    1  0.5863356E-005  0.5512654E+03  0.7818608E-02  0.1001201E+00
         -2   -1    0    0    0  501 -0.00000000000E+00  0.00000000000E+00  0.12267406650E+03  0.12267406652E+03  0.25500000000E-02 0. -1.
          2   -1    0    0  501    0  0.00000000000E+00 -0.00000000000E+00 -0.61931081725E+03  0.61931081726E+03  0.25500000000E-02 0.  1.
    5000001    1    1    2    0    0 -0.17696387350E+03  0.87189924507E+02 -0.26692394716E+03  0.38344580977E+03  0.19200000000E+03 0.  0.
   -5000001    1    1    2    0    0  0.17696387350E+03 -0.87189924507E+02 -0.22971280359E+03  0.35853907401E+03  0.19200000000E+03 0.  0.
<mgrwt>
<rscale>  0 0.55126537E+03</rscale>
<asrwt>0</asrwt>
<pdfrwt beam="1">  1        2 0.88472972E-01 0.55126537E+03</pdfrwt>
<pdfrwt beam="2">  1       -2 0.17524867E-01 0.55126537E+03</pdfrwt>
<totfact> 0.14026859E+03</totfact>
</mgrwt>
</event>
<event>
 4    1  0.5863356E-005  0.4057771E+03  0.7818608E-02  0.1041797E+00
          2   -1    0    0  501    0  0.00000000000E+00  0.00000000000E+00  0.63999491324E+03  0.63999491325E+03  0.25500000000E-02 0.  1.
         -2   -1    0    0    0  501 -0.00000000000E+00 -0.00000000000E+00 -0.64318892330E+02  0.64318892381E+02  0.25500000000E-02 0. -1.
    5000001    1    1    2    0    0  0.41322398870E+02 -0.40334684403E+02  0.34176647248E+03  0.39623572419E+03  0.19200000000E+03 0.  0.
   -5000001    1    1    2    0    0 -0.41322398870E+02  0.40334684403E+02  0.23390954844E+03  0.30807808144E+03  0.19200000000E+03 0.  0.
<mgrwt>
<rscale>  0 0.40577710E+03</rscale>
<asrwt>0</asrwt>
<pdfrwt beam="1">  1        2 0.91427847E-01 0.40577710E+03</pdfrwt>
<pdfrwt beam="2">  1       -2 0.91884130E-02 0.40577710E+03</pdfrwt>
<totfact> 0.39031982E+03</totfact>
</mgrwt>
</event>
<event>
 4    1  0.5863356E-005  0.7458933E+03  0.7818608E-02  0.9641815E-01
          2   -1    0    0  501    0  0.00000000000E+00  0.00000000000E+00  0.13036441153E+04  0.13036441153E+04  0.25500000000E-02 0.  1.
         -2   -1    0    0    0  501 -0.00000000000E+00 -0.00000000000E+00 -0.10669261019E+03  0.10669261022E+03  0.25500000000E-02 0. -1.
    5000001    1    1    2    0    0  0.23697409392E+02 -0.27861266672E+03  0.89163310066E+03  0.95397073931E+03  0.19200000000E+03 0.  0.
   -5000001    1    1    2    0    0 -0.23697409392E+02  0.27861266672E+03  0.30531840444E+03  0.45636598619E+03  0.19200000000E+03 0.  0.
<mgrwt>
<rscale>  0 0.74589327E+03</rscale>
<asrwt>0</asrwt>
<pdfrwt beam="1">  1        2 0.18623487E+00 0.74589327E+03</pdfrwt>
<pdfrwt beam="2">  1       -2 0.15241802E-01 0.74589327E+03</pdfrwt>
<totfact> 0.64141403E+02</totfact>
</mgrwt>
</event>
<event>
 4    1  0.5863356E-005  0.7290690E+03  0.7818608E-02  0.9668772E-01
          2   -1    0    0  501    0  0.00000000000E+00  0.00000000000E+00  0.56357394655E+03  0.56357394656E+03  0.25500000000E-02 0.  1.
         -2   -1    0    0    0  501 -0.00000000000E+00 -0.00000000000E+00 -0.23579056166E+03  0.23579056167E+03  0.25500000000E-02 0. -1.
    5000001    1    1    2    0    0  0.11800180986E+03 -0.20754118495E+03  0.38048255449E+03  0.48849641232E+03  0.19200000000E+03 0.  0.
   -5000001    1    1    2    0    0 -0.11800180986E+03  0.20754118495E+03 -0.52699169593E+02  0.31086809591E+03  0.19200000000E+03 0.  0.
<mgrwt>
<rscale>  0 0.72906904E+03</rscale>
<asrwt>0</asrwt>
<pdfrwt beam="1">  1        2 0.80510563E-01 0.72906904E+03</pdfrwt>
<pdfrwt beam="2">  1       -2 0.33684366E-01 0.72906904E+03</pdfrwt>
<totfact> 0.48392486E+02</totfact>
</mgrwt>
</event>
<event>
 4    1  0.5863356E-005  0.6124497E+03  0.7818608E-02  0.9879908E-01
         -2   -1    0    0    0  501 -0.00000000000E+00  0.00000000000E+00  0.39883006596E+02  0.39883006677E+02  0.25500000000E-02 0. -1.
          2   -1    0    0  501    0  0.00000000000E+00 -0.00000000000E+00 -0.23512183960E+04  0.23512183960E+04  0.25500000000E-02 0.  1.
    5000001    1    1    2    0    0 -0.78099311959E+02 -0.17354627742E+03 -0.59406758239E+03  0.65268530348E+03  0.19200000000E+03 0.  0.
   -5000001    1    1    2    0    0  0.78099311959E+02  0.17354627742E+03 -0.17172678070E+04  0.17384160992E+04  0.19200000000E+03 0.  0.
<mgrwt>
<rscale>  0 0.61244970E+03</rscale>
<asrwt>0</asrwt>
<pdfrwt beam="1">  1        2 0.33588826E+00 0.61244970E+03</pdfrwt>
<pdfrwt beam="2">  1       -2 0.56975738E-02 0.61244970E+03</pdfrwt>
<totfact> 0.92225576E+02</totfact>
</mgrwt>
</event>
<event>
 4    1  0.5863356E-005  0.5040774E+03  0.7818608E-02  0.1012720E+00
         -2   -1    0    0    0  501 -0.00000000000E+00  0.00000000000E+00  0.13034990933E+03  0.13034990936E+03  0.25500000000E-02 0.  1.
          2   -1    0    0  501    0  0.00000000000E+00 -0.00000000000E+00 -0.48733066888E+03  0.48733066889E+03  0.25500000000E-02 0. -1.
    5000001    1    1    2    0    0  0.33493168760E+01  0.16039978440E+03 -0.21566168133E+03  0.33032297764E+03  0.19200000000E+03 0.  0.
   -5000001    1    1    2    0    0 -0.33493168760E+01 -0.16039978440E+03 -0.14131907822E+03  0.28735760061E+03  0.19200000000E+03 0.  0.
<mgrwt>
<rscale>  0 0.50407741E+03</rscale>
<asrwt>0</asrwt>
<pdfrwt beam="1">  1        2 0.69618666E-01 0.50407741E+03</pdfrwt>
<pdfrwt beam="2">  1       -2 0.18621416E-01 0.50407741E+03</pdfrwt>
<totfact> 0.16660709E+03</totfact>
</mgrwt>
</event>
<event>
 4    1  0.5863356E-005  0.6453461E+03  0.7818608E-02  0.9815551E-01
         -2   -1    0    0    0  501 -0.00000000000E+00  0.00000000000E+00  0.23135765298E+03  0.23135765299E+03  0.25500000000E-02 0.  1.
          2   -1    0    0  501    0  0.00000000000E+00 -0.00000000000E+00 -0.45003003120E+03  0.45003003121E+03  0.25500000000E-02 0. -1.
    5000001    1    1    2    0    0 -0.67554005131E+02 -0.48891004735E+02  0.14993861890E+03  0.25748682178E+03  0.19200000000E+03 0.  0.
   -5000001    1    1    2    0    0  0.67554005131E+02  0.48891004735E+02 -0.36861099713E+03  0.42390086241E+03  0.19200000000E+03 0.  0.
<mgrwt>
<rscale>  0 0.64534608E+03</rscale>
<asrwt>0</asrwt>
<pdfrwt beam="1">  1        2 0.64290004E-01 0.64534608E+03</pdfrwt>
<pdfrwt beam="2">  1       -2 0.33051094E-01 0.64534608E+03</pdfrwt>
<totfact> 0.65017793E+02</totfact>
</mgrwt>
</event>
<event>
 4    1  0.5863356E-005  0.6493229E+03  0.7818608E-02  0.9808051E-01
         -2   -1    0    0    0  501 -0.00000000000E+00  0.00000000000E+00  0.86443347504E+02  0.86443347542E+02  0.25500000000E-02 0. -1.
          2   -1    0    0  501    0  0.00000000000E+00 -0.00000000000E+00 -0.12193542620E+04  0.12193542620E+04  0.25500000000E-02 0.  1.
    5000001    1    1    2    0    0 -0.58978322599E+02  0.25164356883E+03 -0.48261434958E+03  0.58015820144E+03  0.19200000000E+03 0.  0.
   -5000001    1    1    2    0    0  0.58978322599E+02 -0.25164356883E+03 -0.65029656494E+03  0.72563940813E+03  0.19200000000E+03 0.  0.
<mgrwt>
<rscale>  0 0.64932292E+03</rscale>
<asrwt>0</asrwt>
<pdfrwt beam="1">  1        2 0.17419346E+00 0.64932292E+03</pdfrwt>
<pdfrwt beam="2">  1       -2 0.12349050E-01 0.64932292E+03</pdfrwt>
<totfact> 0.10191912E+03</totfact>
</mgrwt>
</event>
<event>
 4    1  0.5863356E-005  0.1081452E+04  0.7818608E-02  0.9223461E-01
          2   -1    0    0  501    0  0.00000000000E+00  0.00000000000E+00  0.80487244011E+03  0.80487244012E+03  0.25500000000E-02 0.  1.
         -2   -1    0    0    0  501 -0.00000000000E+00 -0.00000000000E+00 -0.36326803610E+03  0.36326803611E+03  0.25500000000E-02 0. -1.
    5000001    1    1    2    0    0 -0.11034264610E+03  0.28878637078E+03 -0.21119058738E+03  0.42075947012E+03  0.19200000000E+03 0.  0.
   -5000001    1    1    2    0    0  0.11034264610E+03 -0.28878637078E+03  0.65279499140E+03  0.74738100611E+03  0.19200000000E+03 0.  0.
<mgrwt>
<rscale>  0 0.10814517E+04</rscale>
<asrwt>0</asrwt>
<pdfrwt beam="1">  1        2 0.11498178E+00 0.10814517E+04</pdfrwt>
<pdfrwt beam="2">  1       -2 0.51895433E-01 0.10814517E+04</pdfrwt>
<totfact> 0.13142997E+02</totfact>
</mgrwt>
</event>
<event>
 4    1  0.5863356E-005  0.6929639E+03  0.7818608E-02  0.9729341E-01
         -2   -1    0    0    0  501 -0.00000000000E+00  0.00000000000E+00  0.78530775916E+02  0.78530775957E+02  0.25500000000E-02 0. -1.
          2   -1    0    0  501    0  0.00000000000E+00 -0.00000000000E+00 -0.15286969582E+04  0.15286969582E+04  0.25500000000E-02 0.  1.
    5000001    1    1    2    0    0  0.20397395120E+03 -0.76631800287E+02 -0.28680551334E+03  0.40816566253E+03  0.19200000000E+03 0.  0.
   -5000001    1    1    2    0    0 -0.20397395120E+03  0.76631800287E+02 -0.11633606690E+04  0.11990620717E+04  0.19200000000E+03 0.  0.
<mgrwt>
<rscale>  0 0.69296395E+03</rscale>
<asrwt>0</asrwt>
<pdfrwt beam="1">  1        2 0.21838526E+00 0.69296395E+03</pdfrwt>
<pdfrwt beam="2">  1       -2 0.11218683E-01 0.69296395E+03</pdfrwt>
<totfact> 0.81267393E+02</totfact>
</mgrwt>
</event>
<event>
 4    1  0.5863356E-005  0.4687577E+03  0.7818608E-02  0.1022271E+00
         -2   -1    0    0    0  501 -0.00000000000E+00  0.00000000000E+00  0.63517465890E+03  0.63517465891E+03  0.25500000000E-02 0. -1.
          2   -1    0    0  501    0  0.00000000000E+00 -0.00000000000E+00 -0.86485571087E+02  0.86485571124E+02  0.25500000000E-02 0.  1.
    5000001    1    1    2    0    0  0.84971221883E+02  0.23823014021E+02  0.11823878950E+03  0.24214057051E+03  0.19200000000E+03 0.  0.
   -5000001    1    1    2    0    0 -0.84971221883E+02 -0.23823014021E+02  0.43045029831E+03  0.47951965952E+03  0.19200000000E+03 0.  0.
<mgrwt>
<rscale>  0 0.46875769E+03</rscale>
<asrwt>0</asrwt>
<pdfrwt beam="1">  1        2 0.12355082E-01 0.46875769E+03</pdfrwt>
<pdfrwt beam="2">  1       -2 0.90739232E-01 0.46875769E+03</pdfrwt>
<totfact> 0.53235120E+02</totfact>
</mgrwt>
</event>
<event>
 4    1  0.5863356E-005  0.4838818E+03  0.7818608E-02  0.1018074E+00
         -2   -1    0    0    0  501 -0.00000000000E+00  0.00000000000E+00  0.18449946071E+02  0.18449946248E+02  0.25500000000E-02 0. -1.
          2   -1    0    0  501    0  0.00000000000E+00 -0.00000000000E+00 -0.31726593674E+04  0.31726593674E+04  0.25500000000E-02 0.  1.
    5000001    1    1    2    0    0  0.10105903786E+03  0.10382923340E+03 -0.14053917563E+04  0.14258272783E+04  0.19200000000E+03 0.  0.
   -5000001    1    1    2    0    0 -0.10105903786E+03 -0.10382923340E+03 -0.17488176650E+04  0.17652820354E+04  0.19200000000E+03 0.  0.
<mgrwt>
<rscale>  0 0.48388178E+03</rscale>
<asrwt>0</asrwt>
<pdfrwt beam="1">  1        2 0.45323670E+00 0.48388178E+03</pdfrwt>
<pdfrwt beam="2">  1       -2 0.26357086E-02 0.48388178E+03</pdfrwt>
<totfact> 0.11197106E+03</totfact>
</mgrwt>
</event>
<event>
 4    1  0.5863356E-005  0.4977455E+03  0.7818608E-02  0.1014369E+00
         -2   -1    0    0    0  501 -0.00000000000E+00  0.00000000000E+00  0.75784297861E+02  0.75784297904E+02  0.25500000000E-02 0. -1.
          2   -1    0    0  501    0  0.00000000000E+00 -0.00000000000E+00 -0.81728848810E+03  0.81728848811E+03  0.25500000000E-02 0.  1.
    5000001    1    1    2    0    0 -0.27352650513E+02  0.13268310519E+03 -0.51784290090E+03  0.56866355950E+03  0.19200000000E+03 0.  0.
   -5000001    1    1    2    0    0  0.27352650513E+02 -0.13268310519E+03 -0.22366128934E+03  0.32440922651E+03  0.19200000000E+03 0.  0.
<mgrwt>
<rscale>  0 0.49774545E+03</rscale>
<asrwt>0</asrwt>
<pdfrwt beam="1">  1        2 0.11675549E+00 0.49774545E+03</pdfrwt>
<pdfrwt beam="2">  1       -2 0.10826329E-01 0.49774545E+03</pdfrwt>
<totfact> 0.22259763E+03</totfact>
</mgrwt>
</event>
<event>
 4    1  0.5863356E-005  0.6100267E+03  0.7818608E-02  0.9884819E-01
         -2   -1    0    0    0  501 -0.00000000000E+00  0.00000000000E+00  0.47988149889E+03  0.47988149890E+03  0.25500000000E-02 0. -1.
          2   -1    0    0  501    0  0.00000000000E+00 -0.00000000000E+00 -0.19386692698E+03  0.19386692700E+03  0.25500000000E-02 0.  1.
    5000001    1    1    2    0    0  0.21150488924E+03  0.70010774392E+02  0.23227944256E+03  0.37477135181E+03  0.19200000000E+03 0.  0.
   -5000001    1    1    2    0    0 -0.21150488924E+03 -0.70010774392E+02  0.53735129345E+02  0.29897707408E+03  0.19200000000E+03 0.  0.
<mgrwt>
<rscale>  0 0.61002673E+03</rscale>
<asrwt>0</asrwt>
<pdfrwt beam="1">  1        2 0.27695276E-01 0.61002673E+03</pdfrwt>
<pdfrwt beam="2">  1       -2 0.68554499E-01 0.61002673E+03</pdfrwt>
<totfact> 0.38275943E+02</totfact>
</mgrwt>
</event>
<event>
 4    1  0.5863356E-005  0.1311961E+04  0.7818608E-02  0.9020133E-01
         -2   -1    0    0    0  501 -0.00000000000E+00  0.00000000000E+00  0.44303430395E+03  0.44303430395E+03  0.25500000000E-02 0. -1.
          2   -1    0    0  501    0  0.00000000000E+00 -0.00000000000E+00 -0.97128019720E+03  0.97128019720E+03  0.25500000000E-02 0.  1.
    5000001    1    1    2    0    0 -0.20938359513E+02 -0.62182873824E+03 -0.17830686655E+03  0.67510497943E+03  0.19200000000E+03 0.  0.
   -5000001    1    1    2    0    0  0.20938359513E+02  0.62182873824E+03 -0.34993902671E+03  0.73920952172E+03  0.19200000000E+03 0.  0.
<mgrwt>
<rscale>  0 0.13119610E+04</rscale>
<asrwt>0</asrwt>
<pdfrwt beam="1">  1        2 0.13875431E+00 0.13119610E+04</pdfrwt>
<pdfrwt beam="2">  1       -2 0.63290615E-01 0.13119610E+04</pdfrwt>
<totfact> 0.66337836E+01</totfact>
</mgrwt>
</event>
<event>
 4    1  0.5863356E-005  0.1405060E+04  0.7818608E-02  0.8950164E-01
          2   -1    0    0  501    0  0.00000000000E+00  0.00000000000E+00  0.27547599118E+04  0.27547599118E+04  0.25500000000E-02 0.  1.
         -2   -1    0    0    0  501 -0.00000000000E+00 -0.00000000000E+00 -0.17916196019E+03  0.17916196021E+03  0.25500000000E-02 0. -1.
    5000001    1    1    2    0    0  0.34578874670E+02  0.66643937249E+03  0.15102299436E+04  0.16622261033E+04  0.19200000000E+03 0.  0.
   -5000001    1    1    2    0    0 -0.34578874670E+02 -0.66643937249E+03  0.10653680079E+04  0.12716957687E+04  0.19200000000E+03 0.  0.
<mgrwt>
<rscale>  0 0.14050597E+04</rscale>
<asrwt>0</asrwt>
<pdfrwt beam="1">  1        2 0.39353709E+00 0.14050597E+04</pdfrwt>
<pdfrwt beam="2">  1       -2 0.25594569E-01 0.14050597E+04</pdfrwt>
<totfact> 0.43291682E+01</totfact>
</mgrwt>
</event>
<event>
 4    1  0.5863356E-005  0.6414244E+03  0.7818608E-02  0.9823005E-01
         -2   -1    0    0    0  501 -0.00000000000E+00  0.00000000000E+00  0.11303934727E+03  0.11303934730E+03  0.25500000000E-02 0. -1.
          2   -1    0    0  501    0  0.00000000000E+00 -0.00000000000E+00 -0.90991607417E+03  0.90991607418E+03  0.25500000000E-02 0.  1.
    5000001    1    1    2    0    0  0.25097071880E+03 -0.53472283449E+02 -0.41775689491E+03  0.52652674200E+03  0.19200000000E+03 0.  0.
   -5000001    1    1    2    0    0 -0.25097071880E+03  0.53472283449E+02 -0.37911983199E+03  0.49642867948E+03  0.19200000000E+03 0.  0.
<mgrwt>
<rscale>  0 0.64142441E+03</rscale>
<asrwt>0</asrwt>
<pdfrwt beam="1">  1        2 0.12998801E+00 0.64142441E+03</pdfrwt>
<pdfrwt beam="2">  1       -2 0.16148479E-01 0.64142441E+03</pdfrwt>
<totfact> 0.99374978E+02</totfact>
</mgrwt>
</event>
<event>
 4    1  0.5863356E-005  0.4315183E+03  0.7818608E-02  0.1033381E+00
         -2   -1    0    0    0  501 -0.00000000000E+00  0.00000000000E+00  0.14071150958E+03  0.14071150960E+03  0.25500000000E-02 0. -1.
          2   -1    0    0  501    0  0.00000000000E+00 -0.00000000000E+00 -0.33083299374E+03  0.33083299375E+03  0.25500000000E-02 0.  1.
    5000001    1    1    2    0    0 -0.51896073850E+02  0.26435812635E+02 -0.18176776811E+03  0.27073155744E+03  0.19200000000E+03 0.  0.
   -5000001    1    1    2    0    0  0.51896073850E+02 -0.26435812635E+02 -0.83537160518E+01  0.20081294590E+03  0.19200000000E+03 0.  0.
<mgrwt>
<rscale>  0 0.43151830E+03</rscale>
<asrwt>0</asrwt>
<pdfrwt beam="1">  1        2 0.47261856E-01 0.43151830E+03</pdfrwt>
<pdfrwt beam="2">  1       -2 0.20101644E-01 0.43151830E+03</pdfrwt>
<totfact> 0.22377413E+03</totfact>
</mgrwt>
</event>
<event>
 4    1  0.5863356E-005  0.6244473E+03  0.7818608E-02  0.9855945E-01
         -2   -1    0    0    0  501 -0.00000000000E+00  0.00000000000E+00  0.11964322700E+03  0.11964322703E+03  0.25500000000E-02 0. -1.
          2   -1    0    0  501    0  0.00000000000E+00 -0.00000000000E+00 -0.81478584294E+03  0.81478584294E+03  0.25500000000E-02 0.  1.
    5000001    1    1    2    0    0 -0.24040924776E+03 -0.43407417700E+02 -0.39342100334E+03  0.50132314548E+03  0.19200000000E+03 0.  0.
   -5000001    1    1    2    0    0  0.24040924776E+03  0.43407417700E+02 -0.30172161260E+03  0.43310592449E+03  0.19200000000E+03 0.  0.
<mgrwt>
<rscale>  0 0.62444730E+03</rscale>
<asrwt>0</asrwt>
<pdfrwt beam="1">  1        2 0.11639797E+00 0.62444730E+03</pdfrwt>
<pdfrwt beam="2">  1       -2 0.17091890E-01 0.62444730E+03</pdfrwt>
<totfact> 0.10436706E+03</totfact>
</mgrwt>
</event>
<event>
 4    1  0.5863356E-005  0.5176645E+03  0.7818608E-02  0.1009268E+00
         -2   -1    0    0    0  501 -0.00000000000E+00  0.00000000000E+00  0.19443918321E+02  0.19443918489E+02  0.25500000000E-02 0. -1.
          2   -1    0    0  501    0  0.00000000000E+00 -0.00000000000E+00 -0.34455061383E+04  0.34455061383E+04  0.25500000000E-02 0.  1.
    5000001    1    1    2    0    0  0.12651691709E+03  0.11066118851E+03 -0.20030745056E+04  0.20192632082E+04  0.19200000000E+03 0.  0.
   -5000001    1    1    2    0    0 -0.12651691709E+03 -0.11066118851E+03 -0.14229877144E+04  0.14456868486E+04  0.19200000000E+03 0.  0.
<mgrwt>
<rscale>  0 0.51766453E+03</rscale>
<asrwt>0</asrwt>
<pdfrwt beam="1">  1        2 0.49221477E+00 0.51766453E+03</pdfrwt>
<pdfrwt beam="2">  1       -2 0.27777048E-02 0.51766453E+03</pdfrwt>
<totfact> 0.72066438E+02</totfact>
</mgrwt>
</event>
<event>
 4    1  0.5863356E-005  0.6173408E+03  0.7818608E-02  0.9870068E-01
          2   -1    0    0  501    0  0.00000000000E+00  0.00000000000E+00  0.91895777856E+03  0.91895777857E+03  0.25500000000E-02 0.  1.
         -2   -1    0    0    0  501 -0.00000000000E+00 -0.00000000000E+00 -0.10367987877E+03  0.10367987880E+03  0.25500000000E-02 0. -1.
    5000001    1    1    2    0    0  0.12914722771E+03  0.18052465474E+03  0.56605351877E+03  0.63761174981E+03  0.19200000000E+03 0.  0.
   -5000001    1    1    2    0    0 -0.12914722771E+03 -0.18052465474E+03  0.24922438103E+03  0.38502590756E+03  0.19200000000E+03 0.  0.
<mgrwt>
<rscale>  0 0.61734085E+03</rscale>
<asrwt>0</asrwt>
<pdfrwt beam="1">  1        2 0.13127969E+00 0.61734085E+03</pdfrwt>
<pdfrwt beam="2">  1       -2 0.14811411E-01 0.61734085E+03</pdfrwt>
<totfact> 0.11354837E+03</totfact>
</mgrwt>
</event>
<event>
 4    1  0.5863356E-005  0.4644297E+03  0.7818608E-02  0.1023504E+00
         -2   -1    0    0    0  501 -0.00000000000E+00  0.00000000000E+00  0.84284968746E+02  0.84284968784E+02  0.25500000000E-02 0. -1.
          2   -1    0    0  501    0  0.00000000000E+00 -0.00000000000E+00 -0.63977878542E+03  0.63977878543E+03  0.25500000000E-02 0.  1.
    5000001    1    1    2    0    0  0.12060378733E+03 -0.49910309745E+02 -0.27020167559E+03  0.35624325682E+03  0.19200000000E+03 0.  0.
   -5000001    1    1    2    0    0 -0.12060378733E+03  0.49910309745E+02 -0.28529214109E+03  0.36782049739E+03  0.19200000000E+03 0.  0.
<mgrwt>
<rscale>  0 0.46442969E+03</rscale>
<asrwt>0</asrwt>
<pdfrwt beam="1">  1        2 0.91396966E-01 0.46442969E+03</pdfrwt>
<pdfrwt beam="2">  1       -2 0.12040710E-01 0.46442969E+03</pdfrwt>
<totfact> 0.25270653E+03</totfact>
</mgrwt>
</event>
<event>
 4    1  0.5863356E-005  0.5726945E+03  0.7818608E-02  0.9963734E-01
         -2   -1    0    0    0  501 -0.00000000000E+00  0.00000000000E+00  0.43847007396E+02  0.43847007471E+02  0.25500000000E-02 0. -1.
          2   -1    0    0  501    0  0.00000000000E+00 -0.00000000000E+00 -0.18700193541E+04  0.18700193541E+04  0.25500000000E-02 0.  1.
    5000001    1    1    2    0    0 -0.10029565380E+03  0.10199687792E+03 -0.38820975500E+03  0.45610678043E+03  0.19200000000E+03 0.  0.
   -5000001    1    1    2    0    0  0.10029565380E+03 -0.10199687792E+03 -0.14379625917E+04  0.14577595811E+04  0.19200000000E+03 0.  0.
<mgrwt>
<rscale>  0 0.57269452E+03</rscale>
<asrwt>0</asrwt>
<pdfrwt beam="1">  1        2 0.26714557E+00 0.57269452E+03</pdfrwt>
<pdfrwt beam="2">  1       -2 0.62638594E-02 0.57269452E+03</pdfrwt>
<totfact> 0.13919967E+03</totfact>
</mgrwt>
</event>
<event>
 4    1  0.5863356E-005  0.7535197E+03  0.7818608E-02  0.9629845E-01
         -2   -1    0    0    0  501 -0.00000000000E+00  0.00000000000E+00  0.49604667826E+02  0.49604667892E+02  0.25500000000E-02 0. -1.
          2   -1    0    0  501    0  0.00000000000E+00 -0.00000000000E+00 -0.28615849488E+04  0.28615849488E+04  0.25500000000E-02 0.  1.
    5000001    1    1    2    0    0 -0.30374706080E+03  0.99574558610E+02 -0.11977000383E+04  0.12544029462E+04  0.19200000000E+03 0.  0.
   -5000001    1    1    2    0    0  0.30374706080E+03 -0.99574558610E+02 -0.16142802427E+04  0.16567866705E+04  0.19200000000E+03 0.  0.
<mgrwt>
<rscale>  0 0.75351966E+03</rscale>
<asrwt>0</asrwt>
<pdfrwt beam="1">  1        2 0.40879775E+00 0.75351966E+03</pdfrwt>
<pdfrwt beam="2">  1       -2 0.70863829E-02 0.75351966E+03</pdfrwt>
<totfact> 0.35054199E+02</totfact>
</mgrwt>
</event>
<event>
 4    1  0.5863356E-005  0.5414042E+03  0.7818608E-02  0.1003503E+00
         -2   -1    0    0    0  501 -0.00000000000E+00  0.00000000000E+00  0.75573010497E+02  0.75573010540E+02  0.25500000000E-02 0. -1.
          2   -1    0    0  501    0  0.00000000000E+00 -0.00000000000E+00 -0.96965342681E+03  0.96965342682E+03  0.25500000000E-02 0.  1.
    5000001    1    1    2    0    0  0.60662399228E+02  0.18091716267E+03 -0.44286273466E+03  0.51903983294E+03  0.19200000000E+03 0.  0.
   -5000001    1    1    2    0    0 -0.60662399228E+02 -0.18091716267E+03 -0.45121768165E+03  0.52618660441E+03  0.19200000000E+03 0.  0.
<mgrwt>
<rscale>  0 0.54140421E+03</rscale>
<asrwt>0</asrwt>
<pdfrwt beam="1">  1        2 0.13852191E+00 0.54140421E+03</pdfrwt>
<pdfrwt beam="2">  1       -2 0.10796145E-01 0.54140421E+03</pdfrwt>
<totfact> 0.17823244E+03</totfact>
</mgrwt>
</event>
<event>
 4    1  0.5863356E-005  0.7155315E+03  0.7818608E-02  0.9691034E-01
         -2   -1    0    0    0  501 -0.00000000000E+00  0.00000000000E+00  0.43016075237E+02  0.43016075313E+02  0.25500000000E-02 0. -1.
          2   -1    0    0  501    0  0.00000000000E+00 -0.00000000000E+00 -0.29755468896E+04  0.29755468896E+04  0.25500000000E-02 0.  1.
    5000001    1    1    2    0    0  0.17639057460E+03  0.23351472026E+03 -0.17788311601E+04  0.18129387898E+04  0.19200000000E+03 0.  0.
   -5000001    1    1    2    0    0 -0.17639057460E+03 -0.23351472026E+03 -0.11536996542E+04  0.12056241751E+04  0.19200000000E+03 0.  0.
<mgrwt>
<rscale>  0 0.71553155E+03</rscale>
<asrwt>0</asrwt>
<pdfrwt beam="1">  1        2 0.42507800E+00 0.71553155E+03</pdfrwt>
<pdfrwt beam="2">  1       -2 0.61451555E-02 0.71553155E+03</pdfrwt>
<totfact> 0.38234836E+02</totfact>
</mgrwt>
</event>
<event>
 4    1  0.5863356E-005  0.6459799E+03  0.7818608E-02  0.9814352E-01
          2   -1    0    0  501    0  0.00000000000E+00  0.00000000000E+00  0.17889436561E+04  0.17889436561E+04  0.25500000000E-02 0.  1.
         -2   -1    0    0    0  501 -0.00000000000E+00 -0.00000000000E+00 -0.58315137020E+02  0.58315137076E+02  0.25500000000E-02 0. -1.
    5000001    1    1    2    0    0  0.20321078241E+03 -0.14724270586E+03  0.10567906873E+04  0.11030165879E+04  0.19200000000E+03 0.  0.
   -5000001    1    1    2    0    0 -0.20321078241E+03  0.14724270586E+03  0.67383783181E+03  0.74424220526E+03  0.19200000000E+03 0.  0.
<mgrwt>
<rscale>  0 0.64597986E+03</rscale>
<asrwt>0</asrwt>
<pdfrwt beam="1">  1        2 0.25556339E+00 0.64597986E+03</pdfrwt>
<pdfrwt beam="2">  1       -2 0.83307335E-02 0.64597986E+03</pdfrwt>
<totfact> 0.97012057E+02</totfact>
</mgrwt>
</event>
<event>
 4    1  0.5863356E-005  0.8127471E+03  0.7818608E-02  0.9541747E-01
         -2   -1    0    0    0  501 -0.00000000000E+00  0.00000000000E+00  0.18592476537E+04  0.18592476537E+04  0.25500000000E-02 0. -1.
          2   -1    0    0  501    0  0.00000000000E+00 -0.00000000000E+00 -0.88820579782E+02  0.88820579819E+02  0.25500000000E-02 0.  1.
    5000001    1    1    2    0    0 -0.29319017151E+03  0.63945410707E+02  0.41658583235E+03  0.54813980692E+03  0.19200000000E+03 0.  0.
   -5000001    1    1    2    0    0  0.29319017151E+03 -0.63945410707E+02  0.13538412415E+04  0.13999284266E+04  0.19200000000E+03 0.  0.
<mgrwt>
<rscale>  0 0.81274708E+03</rscale>
<asrwt>0</asrwt>
<pdfrwt beam="1">  1        2 0.12688656E-01 0.81274708E+03</pdfrwt>
<pdfrwt beam="2">  1       -2 0.26560677E+00 0.81274708E+03</pdfrwt>
<totfact> 0.26077406E+01</totfact>
</mgrwt>
</event>
<event>
 4    1  0.5863356E-005  0.6730509E+03  0.7818608E-02  0.9764462E-01
         -2   -1    0    0    0  501 -0.00000000000E+00  0.00000000000E+00  0.18698585775E+03  0.18698585777E+03  0.25500000000E-02 0. -1.
          2   -1    0    0  501    0  0.00000000000E+00 -0.00000000000E+00 -0.60565740444E+03  0.60565740444E+03  0.25500000000E-02 0.  1.
    5000001    1    1    2    0    0 -0.42182634267E+02  0.27309836455E+03 -0.21501778337E+03  0.39932284999E+03  0.19200000000E+03 0.  0.
   -5000001    1    1    2    0    0  0.42182634267E+02 -0.27309836455E+03 -0.20365376332E+03  0.39332041222E+03  0.19200000000E+03 0.  0.
<mgrwt>
<rscale>  0 0.67305087E+03</rscale>
<asrwt>0</asrwt>
<pdfrwt beam="1">  1        2 0.86522485E-01 0.67305087E+03</pdfrwt>
<pdfrwt beam="2">  1       -2 0.26712266E-01 0.67305087E+03</pdfrwt>
<totfact> 0.68426777E+02</totfact>
</mgrwt>
</event>
<event>
 4    1  0.5863356E-005  0.1337812E+04  0.7818608E-02  0.9000106E-01
          2   -1    0    0  501    0  0.00000000000E+00  0.00000000000E+00  0.81572521535E+03  0.81572521535E+03  0.25500000000E-02 0.  1.
         -2   -1    0    0    0  501 -0.00000000000E+00 -0.00000000000E+00 -0.54851228264E+03  0.54851228264E+03  0.25500000000E-02 0. -1.
    5000001    1    1    2    0    0  0.26345474505E+03 -0.47998565902E+03 -0.20579913595E+03  0.61563943986E+03  0.19200000000E+03 0.  0.
   -5000001    1    1    2    0    0 -0.26345474505E+03  0.47998565902E+03  0.47301206865E+03  0.74859805814E+03  0.19200000000E+03 0.  0.
<mgrwt>
<rscale>  0 0.13378121E+04</rscale>
<asrwt>0</asrwt>
<pdfrwt beam="1">  1        2 0.11653217E+00 0.13378121E+04</pdfrwt>
<pdfrwt beam="2">  1       -2 0.78358897E-01 0.13378121E+04</pdfrwt>
<totfact> 0.52555393E+01</totfact>
</mgrwt>
</event>
<event>
 4    1  0.5863356E-005  0.6686594E+03  0.7818608E-02  0.9772383E-01
          2   -1    0    0  501    0  0.00000000000E+00  0.00000000000E+00  0.52201135011E+03  0.52201135012E+03  0.25500000000E-02 0.  1.
         -2   -1    0    0    0  501 -0.00000000000E+00 -0.00000000000E+00 -0.21412627334E+03  0.21412627336E+03  0.25500000000E-02 0. -1.
    5000001    1    1    2    0    0 -0.15969232832E+03  0.16733612883E+03 -0.71426307643E+01  0.30069592101E+03  0.19200000000E+03 0.  0.
   -5000001    1    1    2    0    0  0.15969232832E+03 -0.16733612883E+03  0.31502770754E+03  0.43544170247E+03  0.19200000000E+03 0.  0.
<mgrwt>
<rscale>  0 0.66865939E+03</rscale>
<asrwt>0</asrwt>
<pdfrwt beam="1">  1        2 0.74573050E-01 0.66865939E+03</pdfrwt>
<pdfrwt beam="2">  1       -2 0.30589468E-01 0.66865939E+03</pdfrwt>
<totfact> 0.63442227E+02</totfact>
</mgrwt>
</event>
<event>
 4    1  0.5863356E-005  0.7959780E+03  0.7818608E-02  0.9565857E-01
         -2   -1    0    0    0  501 -0.00000000000E+00  0.00000000000E+00  0.14985762631E+03  0.14985762633E+03  0.25500000000E-02 0. -1.
          2   -1    0    0  501    0  0.00000000000E+00 -0.00000000000E+00 -0.10569714808E+04  0.10569714808E+04  0.25500000000E-02 0.  1.
    5000001    1    1    2    0    0  0.23580959518E+03 -0.21242092889E+03 -0.23488065502E+03  0.43904639654E+03  0.19200000000E+03 0.  0.
   -5000001    1    1    2    0    0 -0.23580959518E+03  0.21242092889E+03 -0.67223319949E+03  0.76778271061E+03  0.19200000000E+03 0.  0.
<mgrwt>
<rscale>  0 0.79597798E+03</rscale>
<asrwt>0</asrwt>
<pdfrwt beam="1">  1        2 0.15099592E+00 0.79597798E+03</pdfrwt>
<pdfrwt beam="2">  1       -2 0.21408233E-01 0.79597798E+03</pdfrwt>
<totfact> 0.49197849E+02</totfact>
</mgrwt>
</event>
<event>
 4    1  0.5863356E-005  0.5025149E+03  0.7818608E-02  0.1013125E+00
          2   -1    0    0  501    0  0.00000000000E+00  0.00000000000E+00  0.11137543315E+04  0.11137543315E+04  0.25500000000E-02 0.  1.
         -2   -1    0    0    0  501 -0.00000000000E+00 -0.00000000000E+00 -0.56682430101E+02  0.56682430158E+02  0.25500000000E-02 0. -1.
    5000001    1    1    2    0    0  0.86657232753E+02 -0.11147052105E+03  0.34320826917E+03  0.41784096147E+03  0.19200000000E+03 0.  0.
   -5000001    1    1    2    0    0 -0.86657232753E+02  0.11147052105E+03  0.71386363218E+03  0.75259580015E+03  0.19200000000E+03 0.  0.
<mgrwt>
<rscale>  0 0.50251488E+03</rscale>
<asrwt>0</asrwt>
<pdfrwt beam="1">  1        2 0.15910774E+00 0.50251488E+03</pdfrwt>
<pdfrwt beam="2">  1       -2 0.80974909E-02 0.50251488E+03</pdfrwt>
<totfact> 0.23241410E+03</totfact>
</mgrwt>
</event>
<event>
 4    1  0.5863356E-005  0.7743797E+03  0.7818608E-02  0.9597860E-01
          2   -1    0    0  501    0  0.00000000000E+00  0.00000000000E+00  0.10811768647E+04  0.10811768647E+04  0.25500000000E-02 0.  1.
         -2   -1    0    0    0  501 -0.00000000000E+00 -0.00000000000E+00 -0.13866001255E+03  0.13866001258E+03  0.25500000000E-02 0. -1.
    5000001    1    1    2    0    0  0.29940001647E+03  0.78226925894E+02  0.26411431321E+03  0.44986686057E+03  0.19200000000E+03 0.  0.
   -5000001    1    1    2    0    0 -0.29940001647E+03 -0.78226925894E+02  0.67840253895E+03  0.76997001672E+03  0.19200000000E+03 0.  0.
<mgrwt>
<rscale>  0 0.77437975E+03</rscale>
<asrwt>0</asrwt>
<pdfrwt beam="1">  1        2 0.15445384E+00 0.77437975E+03</pdfrwt>
<pdfrwt beam="2">  1       -2 0.19808573E-01 0.77437975E+03</pdfrwt>
<totfact> 0.54598143E+02</totfact>
</mgrwt>
</event>
<event>
 4    1  0.5863356E-005  0.6056159E+03  0.7818608E-02  0.9893823E-01
         -2   -1    0    0    0  501 -0.00000000000E+00  0.00000000000E+00  0.40276399374E+03  0.40276399375E+03  0.25500000000E-02 0. -1.
          2   -1    0    0  501    0  0.00000000000E+00 -0.00000000000E+00 -0.22765853126E+03  0.22765853127E+03  0.25500000000E-02 0.  1.
    5000001    1    1    2    0    0 -0.82307983548E+02  0.50287390494E+02 -0.13455339270E+03  0.25351931146E+03  0.19200000000E+03 0.  0.
   -5000001    1    1    2    0    0  0.82307983548E+02 -0.50287390494E+02  0.30965885518E+03  0.37690321356E+03  0.19200000000E+03 0.  0.
<mgrwt>
<rscale>  0 0.60561592E+03</rscale>
<asrwt>0</asrwt>
<pdfrwt beam="1">  1        2 0.32522647E-01 0.60561592E+03</pdfrwt>
<pdfrwt beam="2">  1       -2 0.57537713E-01 0.60561592E+03</pdfrwt>
<totfact> 0.46351315E+02</totfact>
</mgrwt>
</event>
<event>
 4    1  0.5863356E-005  0.5882056E+03  0.7818608E-02  0.9930182E-01
          2   -1    0    0  501    0  0.00000000000E+00  0.00000000000E+00  0.10723666094E+04  0.10723666094E+04  0.25500000000E-02 0.  1.
         -2   -1    0    0    0  501 -0.00000000000E+00 -0.00000000000E+00 -0.80659422445E+02  0.80659422485E+02  0.25500000000E-02 0. -1.
    5000001    1    1    2    0    0 -0.29613570664E+02 -0.21819269462E+03  0.42945209020E+03  0.51940168783E+03  0.19200000000E+03 0.  0.
   -5000001    1    1    2    0    0  0.29613570664E+02  0.21819269462E+03  0.56225509680E+03  0.63362434410E+03  0.19200000000E+03 0.  0.
<mgrwt>
<rscale>  0 0.58820565E+03</rscale>
<asrwt>0</asrwt>
<pdfrwt beam="1">  1        2 0.15319523E+00 0.58820565E+03</pdfrwt>
<pdfrwt beam="2">  1       -2 0.11522775E-01 0.58820565E+03</pdfrwt>
<totfact> 0.13887865E+03</totfact>
</mgrwt>
</event>
<event>
 4    1  0.5863356E-005  0.7474371E+03  0.7818608E-02  0.9639380E-01
         -2   -1    0    0    0  501 -0.00000000000E+00  0.00000000000E+00  0.58190477347E+02  0.58190477403E+02  0.25500000000E-02 0. -1.
          2   -1    0    0  501    0  0.00000000000E+00 -0.00000000000E+00 -0.24001443209E+04  0.24001443209E+04  0.25500000000E-02 0.  1.
    5000001    1    1    2    0    0 -0.29861900208E+03  0.32495666946E+02 -0.15397618750E+04  0.15804935649E+04  0.19200000000E+03 0.  0.
   -5000001    1    1    2    0    0  0.29861900208E+03 -0.32495666946E+02 -0.80219196856E+03  0.87784123348E+03  0.19200000000E+03 0.  0.
<mgrwt>
<rscale>  0 0.74743707E+03</rscale>
<asrwt>0</asrwt>
<pdfrwt beam="1">  1        2 0.34287770E+00 0.74743707E+03</pdfrwt>
<pdfrwt beam="2">  1       -2 0.83129268E-02 0.74743707E+03</pdfrwt>
<totfact> 0.47416177E+02</totfact>
</mgrwt>
</event>
<event>
 4    1  0.5863356E-005  0.6921202E+03  0.7818608E-02  0.9730803E-01
          2   -1    0    0  501    0  0.00000000000E+00  0.00000000000E+00  0.86784634557E+03  0.86784634557E+03  0.25500000000E-02 0.  1.
         -2   -1    0    0    0  501 -0.00000000000E+00 -0.00000000000E+00 -0.13799400787E+03  0.13799400790E+03  0.25500000000E-02 0. -1.
    5000001    1    1    2    0    0 -0.25679426299E+03 -0.11698539045E+03  0.28188938488E+03  0.44266748287E+03  0.19200000000E+03 0.  0.
   -5000001    1    1    2    0    0  0.25679426299E+03  0.11698539045E+03  0.44796295282E+03  0.56317287060E+03  0.19200000000E+03 0.  0.
<mgrwt>
<rscale>  0 0.69212021E+03</rscale>
<asrwt>0</asrwt>
<pdfrwt beam="1">  1        2 0.12397805E+00 0.69212021E+03</pdfrwt>
<pdfrwt beam="2">  1       -2 0.19713429E-01 0.69212021E+03</pdfrwt>
<totfact> 0.75008284E+02</totfact>
</mgrwt>
</event>
<event>
 4    1  0.5863356E-005  0.5369589E+03  0.7818608E-02  0.1004558E+00
          2   -1    0    0  501    0  0.00000000000E+00  0.00000000000E+00  0.82697914661E+03  0.82697914661E+03  0.25500000000E-02 0.  1.
         -2   -1    0    0    0  501 -0.00000000000E+00 -0.00000000000E+00 -0.87162073586E+02  0.87162073623E+02  0.25500000000E-02 0. -1.
    5000001    1    1    2    0    0  0.68591735670E+02 -0.17467774866E+03  0.36944177592E+03  0.45669285945E+03  0.19200000000E+03 0.  0.
   -5000001    1    1    2    0    0 -0.68591735670E+02  0.17467774866E+03  0.37037529710E+03  0.45744836078E+03  0.19200000000E+03 0.  0.
<mgrwt>
<rscale>  0 0.53695891E+03</rscale>
<asrwt>0</asrwt>
<pdfrwt beam="1">  1        2 0.11813988E+00 0.53695891E+03</pdfrwt>
<pdfrwt beam="2">  1       -2 0.12451724E-01 0.53695891E+03</pdfrwt>
<totfact> 0.17439752E+03</totfact>
</mgrwt>
</event>
<event>
 4    1  0.5863356E-005  0.5569319E+03  0.7818608E-02  0.9999021E-01
          2   -1    0    0  501    0  0.00000000000E+00  0.00000000000E+00  0.18459750006E+04  0.18459750006E+04  0.25500000000E-02 0.  1.
         -2   -1    0    0    0  501 -0.00000000000E+00 -0.00000000000E+00 -0.42006684814E+02  0.42006684891E+02  0.25500000000E-02 0. -1.
    5000001    1    1    2    0    0  0.84278284475E+02 -0.17336657740E+03  0.70084470221E+03  0.75180189944E+03  0.19200000000E+03 0.  0.
   -5000001    1    1    2    0    0 -0.84278284475E+02  0.17336657740E+03  0.11031236136E+04  0.11361797861E+04  0.19200000000E+03 0.  0.
<mgrwt>
<rscale>  0 0.55693192E+03</rscale>
<asrwt>0</asrwt>
<pdfrwt beam="1">  1        2 0.26371071E+00 0.55693192E+03</pdfrwt>
<pdfrwt beam="2">  1       -2 0.60009552E-02 0.55693192E+03</pdfrwt>
<totfact> 0.15317563E+03</totfact>
</mgrwt>
</event>
<event>
 4    1  0.5863356E-005  0.5791378E+03  0.7818608E-02  0.9949659E-01
         -2   -1    0    0    0  501 -0.00000000000E+00  0.00000000000E+00  0.92599617061E+02  0.92599617097E+02  0.25500000000E-02 0. -1.
          2   -1    0    0  501    0  0.00000000000E+00 -0.00000000000E+00 -0.90551300835E+03  0.90551300835E+03  0.25500000000E-02 0.  1.
    5000001    1    1    2    0    0 -0.15337993875E+03  0.35538756142E+02 -0.66323130655E+03  0.70818653954E+03  0.19200000000E+03 0.  0.
   -5000001    1    1    2    0    0  0.15337993875E+03 -0.35538756142E+02 -0.14968208473E+03  0.28992608590E+03  0.19200000000E+03 0.  0.
<mgrwt>
<rscale>  0 0.57913783E+03</rscale>
<asrwt>0</asrwt>
<pdfrwt beam="1">  1        2 0.12935900E+00 0.57913783E+03</pdfrwt>
<pdfrwt beam="2">  1       -2 0.13228517E-01 0.57913783E+03</pdfrwt>
<totfact> 0.14000264E+03</totfact>
</mgrwt>
</event>
<event>
 4    1  0.5863356E-005  0.6524804E+03  0.7818608E-02  0.9802136E-01
         -2   -1    0    0    0  501 -0.00000000000E+00  0.00000000000E+00  0.13636094112E+03  0.13636094115E+03  0.25500000000E-02 0. -1.
          2   -1    0    0  501    0  0.00000000000E+00 -0.00000000000E+00 -0.78052176579E+03  0.78052176579E+03  0.25500000000E-02 0.  1.
    5000001    1    1    2    0    0  0.23872030759E+03  0.91214859399E+02 -0.23035080666E+03  0.39399623089E+03  0.19200000000E+03 0.  0.
   -5000001    1    1    2    0    0 -0.23872030759E+03 -0.91214859399E+02 -0.41381001800E+03  0.52288647604E+03  0.19200000000E+03 0.  0.
<mgrwt>
<rscale>  0 0.65248044E+03</rscale>
<asrwt>0</asrwt>
<pdfrwt beam="1">  1        2 0.11150311E+00 0.65248044E+03</pdfrwt>
<pdfrwt beam="2">  1       -2 0.19480135E-01 0.65248044E+03</pdfrwt>
<totfact> 0.87955093E+02</totfact>
</mgrwt>
</event>
<event>
 4    1  0.5863356E-005  0.7555132E+03  0.7818608E-02  0.9626741E-01
         -2   -1    0    0    0  501 -0.00000000000E+00  0.00000000000E+00  0.27998272942E+03  0.27998272943E+03  0.25500000000E-02 0. -1.
          2   -1    0    0  501    0  0.00000000000E+00 -0.00000000000E+00 -0.50967444820E+03  0.50967444821E+03  0.25500000000E-02 0.  1.
    5000001    1    1    2    0    0  0.27077527781E+03 -0.12709605373E+03  0.18854666701E+02  0.35593841659E+03  0.19200000000E+03 0.  0.
   -5000001    1    1    2    0    0 -0.27077527781E+03  0.12709605373E+03 -0.24854638549E+03  0.43371876105E+03  0.19200000000E+03 0.  0.
<mgrwt>
<rscale>  0 0.75551318E+03</rscale>
<asrwt>0</asrwt>
<pdfrwt beam="1">  1        2 0.72810636E-01 0.75551318E+03</pdfrwt>
<pdfrwt beam="2">  1       -2 0.39997533E-01 0.75551318E+03</pdfrwt>
<totfact> 0.39074405E+02</totfact>
</mgrwt>
</event>
<event>
 4    1  0.5863356E-005  0.4919325E+03  0.7818608E-02  0.1015906E+00
         -2   -1    0    0    0  501 -0.00000000000E+00  0.00000000000E+00  0.66216929558E+02  0.66216929607E+02  0.25500000000E-02 0. -1.
          2   -1    0    0  501    0  0.00000000000E+00 -0.00000000000E+00 -0.91365442012E+03  0.91365442013E+03  0.25500000000E-02 0.  1.
    5000001    1    1    2    0    0  0.54220016158E+02  0.51666636647E+02 -0.69115169917E+03  0.72122390612E+03  0.19200000000E+03 0.  0.
   -5000001    1    1    2    0    0 -0.54220016158E+02 -0.51666636647E+02 -0.15628579139E+03  0.25864744361E+03  0.19200000000E+03 0.  0.
<mgrwt>
<rscale>  0 0.49193248E+03</rscale>
<asrwt>0</asrwt>
<pdfrwt beam="1">  1        2 0.13052205E+00 0.49193248E+03</pdfrwt>
<pdfrwt beam="2">  1       -2 0.94595619E-02 0.49193248E+03</pdfrwt>
<totfact> 0.23929522E+03</totfact>
</mgrwt>
</event>
<event>
 4    1  0.5863356E-005  0.4351976E+03  0.7818608E-02  0.1032231E+00
         -2   -1    0    0    0  501 -0.00000000000E+00  0.00000000000E+00  0.48287911523E+03  0.48287911523E+03  0.25500000000E-02 0. -1.
          2   -1    0    0  501    0  0.00000000000E+00 -0.00000000000E+00 -0.98056077587E+02  0.98056077620E+02  0.25500000000E-02 0.  1.
    5000001    1    1    2    0    0 -0.29922412081E+02  0.86075322738E+02  0.13007233729E+03  0.24917288146E+03  0.19200000000E+03 0.  0.
   -5000001    1    1    2    0    0  0.29922412081E+02 -0.86075322738E+02  0.25475070035E+03  0.33176231139E+03  0.19200000000E+03 0.  0.
<mgrwt>
<rscale>  0 0.43519757E+03</rscale>
<asrwt>0</asrwt>
<pdfrwt beam="1">  1        2 0.14008011E-01 0.43519757E+03</pdfrwt>
<pdfrwt beam="2">  1       -2 0.68982731E-01 0.43519757E+03</pdfrwt>
<totfact> 0.83949202E+02</totfact>
</mgrwt>
</event>
<event>
 4    1  0.5863356E-005  0.8697300E+03  0.7818608E-02  0.9464232E-01
         -2   -1    0    0    0  501 -0.00000000000E+00  0.00000000000E+00  0.10804666168E+03  0.10804666171E+03  0.25500000000E-02 0. -1.
          2   -1    0    0  501    0  0.00000000000E+00 -0.00000000000E+00 -0.17502399833E+04  0.17502399833E+04  0.25500000000E-02 0.  1.
    5000001    1    1    2    0    0  0.28269364892E+03  0.10492476770E+03 -0.29201265070E+03  0.46158454717E+03  0.19200000000E+03 0.  0.
   -5000001    1    1    2    0    0 -0.28269364892E+03 -0.10492476770E+03 -0.13501806709E+04  0.13967020978E+04  0.19200000000E+03 0.  0.
<mgrwt>
<rscale>  0 0.86973004E+03</rscale>
<asrwt>0</asrwt>
<pdfrwt beam="1">  1        2 0.25003427E+00 0.86973004E+03</pdfrwt>
<pdfrwt beam="2">  1       -2 0.15435238E-01 0.86973004E+03</pdfrwt>
<totfact> 0.36308772E+02</totfact>
</mgrwt>
</event>
<event>
 4    1  0.5863356E-005  0.8240415E+03  0.7818608E-02  0.9525855E-01
          2   -1    0    0  501    0  0.00000000000E+00  0.00000000000E+00  0.86486077982E+03  0.86486077983E+03  0.25500000000E-02 0.  1.
         -2   -1    0    0    0  501 -0.00000000000E+00 -0.00000000000E+00 -0.19628721016E+03  0.19628721018E+03  0.25500000000E-02 0. -1.
    5000001    1    1    2    0    0  0.26508834812E+01  0.24232784756E+03 -0.16411048342E+02  0.30961772462E+03  0.19200000000E+03 0.  0.
   -5000001    1    1    2    0    0 -0.26508834812E+01 -0.24232784756E+03  0.68498461801E+03  0.75153026539E+03  0.19200000000E+03 0.  0.
<mgrwt>
<rscale>  0 0.82404153E+03</rscale>
<asrwt>0</asrwt>
<pdfrwt beam="1">  1        2 0.12355154E+00 0.82404153E+03</pdfrwt>
<pdfrwt beam="2">  1       -2 0.28041030E-01 0.82404153E+03</pdfrwt>
<totfact> 0.39946211E+02</totfact>
</mgrwt>
</event>
<event>
 4    1  0.5863356E-005  0.5921799E+03  0.7818608E-02  0.9921764E-01
         -2   -1    0    0    0  501 -0.00000000000E+00  0.00000000000E+00  0.32111633641E+02  0.32111633742E+02  0.25500000000E-02 0. -1.
          2   -1    0    0  501    0  0.00000000000E+00 -0.00000000000E+00 -0.27301404674E+04  0.27301404674E+04  0.25500000000E-02 0.  1.
    5000001    1    1    2    0    0  0.16871512297E+03 -0.10265369460E+03 -0.18557719895E+04  0.18761013434E+04  0.19200000000E+03 0.  0.
   -5000001    1    1    2    0    0 -0.16871512297E+03  0.10265369460E+03 -0.84225684432E+03  0.88615075779E+03  0.19200000000E+03 0.  0.
<mgrwt>
<rscale>  0 0.59217994E+03</rscale>
<asrwt>0</asrwt>
<pdfrwt beam="1">  1        2 0.39001992E+00 0.59217994E+03</pdfrwt>
<pdfrwt beam="2">  1       -2 0.45873780E-02 0.59217994E+03</pdfrwt>
<totfact> 0.82487378E+02</totfact>
</mgrwt>
</event>
<event>
 4    1  0.5863356E-005  0.4149448E+03  0.7818608E-02  0.1038724E+00
         -2   -1    0    0    0  501 -0.00000000000E+00  0.00000000000E+00  0.41515694487E+02  0.41515694565E+02  0.25500000000E-02 0. -1.
          2   -1    0    0  501    0  0.00000000000E+00 -0.00000000000E+00 -0.10368317766E+04  0.10368317766E+04  0.25500000000E-02 0.  1.
    5000001    1    1    2    0    0 -0.20284049806E+02  0.71627441195E+02 -0.43197236142E+03  0.47854577006E+03  0.19200000000E+03 0.  0.
   -5000001    1    1    2    0    0  0.20284049806E+02 -0.71627441195E+02 -0.56334372064E+03  0.59980170106E+03  0.19200000000E+03 0.  0.
<mgrwt>
<rscale>  0 0.41494477E+03</rscale>
<asrwt>0</asrwt>
<pdfrwt beam="1">  1        2 0.14811881E+00 0.41494477E+03</pdfrwt>
<pdfrwt beam="2">  1       -2 0.59308142E-02 0.41494477E+03</pdfrwt>
<totfact> 0.41973061E+03</totfact>
</mgrwt>
</event>
<event>
 4    1  0.5863356E-005  0.7805438E+03  0.7818608E-02  0.9588614E-01
          2   -1    0    0  501    0  0.00000000000E+00  0.00000000000E+00  0.21808717850E+04  0.21808717850E+04  0.25500000000E-02 0.  1.
         -2   -1    0    0    0  501 -0.00000000000E+00 -0.00000000000E+00 -0.69840033131E+02  0.69840033177E+02  0.25500000000E-02 0. -1.
    5000001    1    1    2    0    0 -0.15878806603E+03 -0.29336582125E+03  0.86928878883E+03  0.95068614872E+03  0.19200000000E+03 0.  0.
   -5000001    1    1    2    0    0  0.15878806603E+03  0.29336582125E+03  0.12417429630E+04  0.13000256694E+04  0.19200000000E+03 0.  0.
<mgrwt>
<rscale>  0 0.78054380E+03</rscale>
<asrwt>0</asrwt>
<pdfrwt beam="1">  1        2 0.31155315E+00 0.78054380E+03</pdfrwt>
<pdfrwt beam="2">  1       -2 0.99771464E-02 0.78054380E+03</pdfrwt>
<totfact> 0.45558853E+02</totfact>
</mgrwt>
</event>
<event>
 4    1  0.5863356E-005  0.4428157E+03  0.7818608E-02  0.1029886E+00
          2   -1    0    0  501    0  0.00000000000E+00  0.00000000000E+00  0.85083931275E+03  0.85083931275E+03  0.25500000000E-02 0.  1.
         -2   -1    0    0    0  501 -0.00000000000E+00 -0.00000000000E+00 -0.57615390012E+02  0.57615390069E+02  0.25500000000E-02 0. -1.
    5000001    1    1    2    0    0 -0.53025296589E+02 -0.84657970889E+02  0.49237268485E+03  0.53784153326E+03  0.19200000000E+03 0.  0.
   -5000001    1    1    2    0    0  0.53025296589E+02  0.84657970889E+02  0.30085123788E+03  0.37061316956E+03  0.19200000000E+03 0.  0.
<mgrwt>
<rscale>  0 0.44281571E+03</rscale>
<asrwt>0</asrwt>
<pdfrwt beam="1">  1        2 0.12154846E+00 0.44281571E+03</pdfrwt>
<pdfrwt beam="2">  1       -2 0.82307712E-02 0.44281571E+03</pdfrwt>
<totfact> 0.32792933E+03</totfact>
</mgrwt>
</event>
<event>
 4    1  0.5863356E-005  0.6616054E+03  0.7818608E-02  0.9785243E-01
         -2   -1    0    0    0  501 -0.00000000000E+00  0.00000000000E+00  0.70624707793E+02  0.70624707840E+02  0.25500000000E-02 0. -1.
          2   -1    0    0  501    0  0.00000000000E+00 -0.00000000000E+00 -0.15494637517E+04  0.15494637517E+04  0.25500000000E-02 0.  1.
    5000001    1    1    2    0    0 -0.26849917904E+03 -0.21636055238E+02 -0.73317806096E+03  0.80434693827E+03  0.19200000000E+03 0.  0.
   -5000001    1    1    2    0    0  0.26849917904E+03  0.21636055238E+02 -0.74566098294E+03  0.81574152127E+03  0.19200000000E+03 0.  0.
<mgrwt>
<rscale>  0 0.66160540E+03</rscale>
<asrwt>0</asrwt>
<pdfrwt beam="1">  1        2 0.22135194E+00 0.66160540E+03</pdfrwt>
<pdfrwt beam="2">  1       -2 0.10089245E-01 0.66160540E+03</pdfrwt>
<totfact> 0.94401861E+02</totfact>
</mgrwt>
</event>
<event>
 4    1  0.5863356E-005  0.8482204E+03  0.7818608E-02  0.9492729E-01
          2   -1    0    0  501    0  0.00000000000E+00  0.00000000000E+00  0.11063550752E+04  0.11063550752E+04  0.25500000000E-02 0.  1.
         -2   -1    0    0    0  501 -0.00000000000E+00 -0.00000000000E+00 -0.16257840251E+03  0.16257840253E+03  0.25500000000E-02 0. -1.
    5000001    1    1    2    0    0  0.29807047941E+03  0.43857396239E+01  0.12379951477E+03  0.37557364826E+03  0.19200000000E+03 0.  0.
   -5000001    1    1    2    0    0 -0.29807047941E+03 -0.43857396239E+01  0.81997715793E+03  0.89335982948E+03  0.19200000000E+03 0.  0.
<mgrwt>
<rscale>  0 0.84822035E+03</rscale>
<asrwt>0</asrwt>
<pdfrwt beam="1">  1        2 0.15805072E+00 0.84822035E+03</pdfrwt>
<pdfrwt beam="2">  1       -2 0.23225486E-01 0.84822035E+03</pdfrwt>
<totfact> 0.39705398E+02</totfact>
</mgrwt>
</event>
<event>
 4    1  0.5863356E-005  0.4166484E+03  0.7818608E-02  0.1038163E+00
         -2   -1    0    0    0  501 -0.00000000000E+00  0.00000000000E+00  0.83907210306E+02  0.83907210345E+02  0.25500000000E-02 0. -1.
          2   -1    0    0  501    0  0.00000000000E+00 -0.00000000000E+00 -0.51722582812E+03  0.51722582812E+03  0.25500000000E-02 0.  1.
    5000001    1    1    2    0    0 -0.50137979161E+02 -0.14750292996E+02 -0.12767824224E+03  0.23642572119E+03  0.19200000000E+03 0.  0.
   -5000001    1    1    2    0    0  0.50137979161E+02  0.14750292996E+02 -0.30564037558E+03  0.36470731728E+03  0.19200000000E+03 0.  0.
<mgrwt>
<rscale>  0 0.41664842E+03</rscale>
<asrwt>0</asrwt>
<pdfrwt beam="1">  1        2 0.73889402E-01 0.41664842E+03</pdfrwt>
<pdfrwt beam="2">  1       -2 0.11986745E-01 0.41664842E+03</pdfrwt>
<totfact> 0.32500640E+03</totfact>
</mgrwt>
</event>
<event>
 4    1  0.5863356E-005  0.1244714E+04  0.7818608E-02  0.9074594E-01
          2   -1    0    0  501    0  0.00000000000E+00  0.00000000000E+00  0.19830026260E+04  0.19830026260E+04  0.25500000000E-02 0.  1.
         -2   -1    0    0    0  501 -0.00000000000E+00 -0.00000000000E+00 -0.19532407589E+03  0.19532407591E+03  0.25500000000E-02 0. -1.
    5000001    1    1    2    0    0  0.29218539296E+03 -0.50820033794E+03  0.74926816185E+03  0.97051876113E+03  0.19200000000E+03 0.  0.
   -5000001    1    1    2    0    0 -0.29218539296E+03  0.50820033794E+03  0.10384103882E+04  0.12078079408E+04  0.19200000000E+03 0.  0.
<mgrwt>
<rscale>  0 0.12447139E+04</rscale>
<asrwt>0</asrwt>
<pdfrwt beam="1">  1        2 0.28328612E+00 0.12447139E+04</pdfrwt>
<pdfrwt beam="2">  1       -2 0.27903437E-01 0.12447139E+04</pdfrwt>
<totfact> 0.94535332E+01</totfact>
</mgrwt>
</event>
<event>
 4    1  0.5863356E-005  0.5952832E+03  0.7818608E-02  0.9915240E-01
          2   -1    0    0  501    0  0.00000000000E+00  0.00000000000E+00  0.61042307746E+03  0.61042307746E+03  0.25500000000E-02 0.  1.
         -2   -1    0    0    0  501 -0.00000000000E+00 -0.00000000000E+00 -0.14512971654E+03  0.14512971657E+03  0.25500000000E-02 0. -1.
    5000001    1    1    2    0    0  0.17108339386E+03 -0.14823405039E+03  0.26056018353E+03  0.39496641704E+03  0.19200000000E+03 0.  0.
   -5000001    1    1    2    0    0 -0.17108339386E+03  0.14823405039E+03  0.20473317738E+03  0.36058637699E+03  0.19200000000E+03 0.  0.
<mgrwt>
<rscale>  0 0.59528322E+03</rscale>
<asrwt>0</asrwt>
<pdfrwt beam="1">  1        2 0.87203297E-01 0.59528322E+03</pdfrwt>
<pdfrwt beam="2">  1       -2 0.20732817E-01 0.59528322E+03</pdfrwt>
<totfact> 0.10665318E+03</totfact>
</mgrwt>
</event>
<event>
 4    1  0.5863356E-005  0.4492771E+03  0.7818608E-02  0.1027938E+00
         -2   -1    0    0    0  501 -0.00000000000E+00  0.00000000000E+00  0.68077506770E+02  0.68077506818E+02  0.25500000000E-02 0. -1.
          2   -1    0    0  501    0  0.00000000000E+00 -0.00000000000E+00 -0.74125035555E+03  0.74125035556E+03  0.25500000000E-02 0.  1.
    5000001    1    1    2    0    0 -0.35846176923E+02  0.10260481843E+03 -0.26046199189E+03  0.34134608007E+03  0.19200000000E+03 0.  0.
   -5000001    1    1    2    0    0  0.35846176923E+02 -0.10260481843E+03 -0.41271085690E+03  0.46798178230E+03  0.19200000000E+03 0.  0.
<mgrwt>
<rscale>  0 0.44927709E+03</rscale>
<asrwt>0</asrwt>
<pdfrwt beam="1">  1        2 0.10589290E+00 0.44927709E+03</pdfrwt>
<pdfrwt beam="2">  1       -2 0.97253586E-02 0.44927709E+03</pdfrwt>
<totfact> 0.29902785E+03</totfact>
</mgrwt>
</event>
<event>
 4    1  0.5863356E-005  0.4541765E+03  0.7818608E-02  0.1026484E+00
          2   -1    0    0  501    0  0.00000000000E+00  0.00000000000E+00  0.22441616731E+03  0.22441616733E+03  0.25500000000E-02 0.  1.
         -2   -1    0    0    0  501 -0.00000000000E+00 -0.00000000000E+00 -0.22979213444E+03  0.22979213445E+03  0.25500000000E-02 0. -1.
    5000001    1    1    2    0    0  0.32434424305E+02  0.11531199485E+03  0.16187184468E+02  0.22688074616E+03  0.19200000000E+03 0.  0.
   -5000001    1    1    2    0    0 -0.32434424305E+02 -0.11531199485E+03 -0.21563151597E+02  0.22732755562E+03  0.19200000000E+03 0.  0.
<mgrwt>
<rscale>  0 0.45417649E+03</rscale>
<asrwt>0</asrwt>
<pdfrwt beam="1">  1        2 0.32059453E-01 0.45417649E+03</pdfrwt>
<pdfrwt beam="2">  1       -2 0.32827448E-01 0.45417649E+03</pdfrwt>
<totfact> 0.14229044E+03</totfact>
</mgrwt>
</event>
<event>
 4    1  0.5863356E-005  0.9154313E+03  0.7818608E-02  0.9406494E-01
          2   -1    0    0  501    0  0.00000000000E+00  0.00000000000E+00  0.74728179253E+03  0.74728179253E+03  0.25500000000E-02 0.  1.
         -2   -1    0    0    0  501 -0.00000000000E+00 -0.00000000000E+00 -0.28035425066E+03  0.28035425067E+03  0.25500000000E-02 0. -1.
    5000001    1    1    2    0    0 -0.15994437502E+03  0.30947688918E+03 -0.20746931352E+02  0.39831216803E+03  0.19200000000E+03 0.  0.
   -5000001    1    1    2    0    0  0.15994437502E+03 -0.30947688918E+03  0.48767447322E+03  0.62932387518E+03  0.19200000000E+03 0.  0.
<mgrwt>
<rscale>  0 0.91543132E+03</rscale>
<asrwt>0</asrwt>
<pdfrwt beam="1">  1        2 0.10675454E+00 0.91543132E+03</pdfrwt>
<pdfrwt beam="2">  1       -2 0.40050607E-01 0.91543132E+03</pdfrwt>
<totfact> 0.24485737E+02</totfact>
</mgrwt>
</event>
<event>
 4    1  0.5863356E-005  0.4257542E+03  0.7818608E-02  0.1035210E+00
         -2   -1    0    0    0  501 -0.00000000000E+00  0.00000000000E+00  0.15806194563E+03  0.15806194565E+03  0.25500000000E-02 0. -1.
          2   -1    0    0  501    0  0.00000000000E+00 -0.00000000000E+00 -0.28670191291E+03  0.28670191292E+03  0.25500000000E-02 0.  1.
    5000001    1    1    2    0    0  0.79153098970E+02  0.19669081080E+02 -0.19992170389E+02  0.20956090452E+03  0.19200000000E+03 0.  0.
   -5000001    1    1    2    0    0 -0.79153098970E+02 -0.19669081080E+02 -0.10864779689E+03  0.23520295405E+03  0.19200000000E+03 0.  0.
<mgrwt>
<rscale>  0 0.42575421E+03</rscale>
<asrwt>0</asrwt>
<pdfrwt beam="1">  1        2 0.40957416E-01 0.42575421E+03</pdfrwt>
<pdfrwt beam="2">  1       -2 0.22580278E-01 0.42575421E+03</pdfrwt>
<totfact> 0.21361522E+03</totfact>
</mgrwt>
</event>
<event>
 4    1  0.5863356E-005  0.7177255E+03  0.7818608E-02  0.9687390E-01
          2   -1    0    0  501    0  0.00000000000E+00  0.00000000000E+00  0.15536134876E+04  0.15536134876E+04  0.25500000000E-02 0.  1.
         -2   -1    0    0    0  501 -0.00000000000E+00 -0.00000000000E+00 -0.82892214752E+02  0.82892214791E+02  0.25500000000E-02 0. -1.
    5000001    1    1    2    0    0 -0.11874642565E+03  0.21586145768E+03  0.33247052770E+03  0.45617708656E+03  0.19200000000E+03 0.  0.
   -5000001    1    1    2    0    0  0.11874642565E+03 -0.21586145768E+03  0.11382507451E+04  0.11803286158E+04  0.19200000000E+03 0.  0.
<mgrwt>
<rscale>  0 0.71772547E+03</rscale>
<asrwt>0</asrwt>
<pdfrwt beam="1">  1        2 0.22194475E+00 0.71772547E+03</pdfrwt>
<pdfrwt beam="2">  1       -2 0.11841747E-01 0.71772547E+03</pdfrwt>
<totfact> 0.72078193E+02</totfact>
</mgrwt>
</event>
<event>
 4    1  0.5863356E-005  0.7152309E+03  0.7818608E-02  0.9691534E-01
          2   -1    0    0  501    0  0.00000000000E+00  0.00000000000E+00  0.84251853075E+03  0.84251853076E+03  0.25500000000E-02 0.  1.
         -2   -1    0    0    0  501 -0.00000000000E+00 -0.00000000000E+00 -0.15179347953E+03  0.15179347956E+03  0.25500000000E-02 0. -1.
    5000001    1    1    2    0    0  0.39137368167E+02  0.19014551044E+03  0.66642816552E+03  0.72019271624E+03  0.19200000000E+03 0.  0.
   -5000001    1    1    2    0    0 -0.39137368167E+02 -0.19014551044E+03  0.24296885695E+02  0.27411929407E+03  0.19200000000E+03 0.  0.
<mgrwt>
<rscale>  0 0.71523093E+03</rscale>
<asrwt>0</asrwt>
<pdfrwt beam="1">  1        2 0.12035980E+00 0.71523093E+03</pdfrwt>
<pdfrwt beam="2">  1       -2 0.21684782E-01 0.71523093E+03</pdfrwt>
<totfact> 0.65937915E+02</totfact>
</mgrwt>
</event>
<event>
 4    1  0.5863356E-005  0.5000550E+03  0.7818608E-02  0.1013765E+00
          2   -1    0    0  501    0  0.00000000000E+00  0.00000000000E+00  0.47342589087E+03  0.47342589088E+03  0.25500000000E-02 0.  1.
         -2   -1    0    0    0  501 -0.00000000000E+00 -0.00000000000E+00 -0.13204547409E+03  0.13204547411E+03  0.25500000000E-02 0. -1.
    5000001    1    1    2    0    0  0.15579772573E+03  0.26456961612E+02  0.20219090507E+03  0.32049659008E+03  0.19200000000E+03 0.  0.
   -5000001    1    1    2    0    0 -0.15579772573E+03 -0.26456961612E+02  0.13918951172E+03  0.28497477491E+03  0.19200000000E+03 0.  0.
<mgrwt>
<rscale>  0 0.50005498E+03</rscale>
<asrwt>0</asrwt>
<pdfrwt beam="1">  1        2 0.67632270E-01 0.50005498E+03</pdfrwt>
<pdfrwt beam="2">  1       -2 0.18863639E-01 0.50005498E+03</pdfrwt>
<totfact> 0.16833356E+03</totfact>
</mgrwt>
</event>
<event>
 4    1  0.5863356E-005  0.9631797E+03  0.7818608E-02  0.9349877E-01
         -2   -1    0    0    0  501 -0.00000000000E+00  0.00000000000E+00  0.10252531072E+03  0.10252531075E+03  0.25500000000E-02 0. -1.
          2   -1    0    0  501    0  0.00000000000E+00 -0.00000000000E+00 -0.22621610467E+04  0.22621610467E+04  0.25500000000E-02 0.  1.
    5000001    1    1    2    0    0 -0.34560871773E+03  0.27169223937E+03 -0.97557925105E+03  0.10871434743E+04  0.19200000000E+03 0.  0.
   -5000001    1    1    2    0    0  0.34560871773E+03 -0.27169223937E+03 -0.11840564849E+04  0.12775428831E+04  0.19200000000E+03 0.  0.
<mgrwt>
<rscale>  0 0.96317966E+03</rscale>
<asrwt>0</asrwt>
<pdfrwt beam="1">  1        2 0.32316583E+00 0.96317966E+03</pdfrwt>
<pdfrwt beam="2">  1       -2 0.14646474E-01 0.96317966E+03</pdfrwt>
<totfact> 0.21614779E+02</totfact>
</mgrwt>
</event>
<event>
 4    1  0.5863356E-005  0.4550008E+03  0.7818608E-02  0.1026241E+00
          2   -1    0    0  501    0  0.00000000000E+00  0.00000000000E+00  0.29967982653E+03  0.29967982654E+03  0.25500000000E-02 0.  1.
         -2   -1    0    0    0  501 -0.00000000000E+00 -0.00000000000E+00 -0.17270574760E+03  0.17270574762E+03  0.25500000000E-02 0. -1.
    5000001    1    1    2    0    0  0.11087097629E+03 -0.10427168072E+02  0.11666724723E+02  0.22226383350E+03  0.19200000000E+03 0.  0.
   -5000001    1    1    2    0    0 -0.11087097629E+03  0.10427168072E+02  0.11530735420E+03  0.25012174066E+03  0.19200000000E+03 0.  0.
<mgrwt>
<rscale>  0 0.45500078E+03</rscale>
<asrwt>0</asrwt>
<pdfrwt beam="1">  1        2 0.42811403E-01 0.45500078E+03</pdfrwt>
<pdfrwt beam="2">  1       -2 0.24672250E-01 0.45500078E+03</pdfrwt>
<totfact> 0.17411123E+03</totfact>
</mgrwt>
</event>
<event>
 4    1  0.5863356E-005  0.5902507E+03  0.7818608E-02  0.9925842E-01
         -2   -1    0    0    0  501 -0.00000000000E+00  0.00000000000E+00  0.17088430979E+03  0.17088430981E+03  0.25500000000E-02 0. -1.
          2   -1    0    0  501    0  0.00000000000E+00 -0.00000000000E+00 -0.50969557449E+03  0.50969557450E+03  0.25500000000E-02 0.  1.
    5000001    1    1    2    0    0  0.31673228626E+02  0.22149243024E+03 -0.18456646284E+03  0.34783741787E+03  0.19200000000E+03 0.  0.
   -5000001    1    1    2    0    0 -0.31673228626E+02 -0.22149243024E+03 -0.15424480186E+03  0.33274246643E+03  0.19200000000E+03 0.  0.
<mgrwt>
<rscale>  0 0.59025071E+03</rscale>
<asrwt>0</asrwt>
<pdfrwt beam="1">  1        2 0.72813653E-01 0.59025071E+03</pdfrwt>
<pdfrwt beam="2">  1       -2 0.24412044E-01 0.59025071E+03</pdfrwt>
<totfact> 0.98474595E+02</totfact>
</mgrwt>
</event>
<event>
 4    1  0.5863356E-005  0.5952163E+03  0.7818608E-02  0.9915381E-01
         -2   -1    0    0    0  501 -0.00000000000E+00  0.00000000000E+00  0.22012099785E+03  0.22012099787E+03  0.25500000000E-02 0. -1.
          2   -1    0    0  501    0  0.00000000000E+00 -0.00000000000E+00 -0.40237235533E+03  0.40237235534E+03  0.25500000000E-02 0.  1.
    5000001    1    1    2    0    0 -0.70824741111E+02  0.18390076775E+03  0.27523715342E+02  0.27650893519E+03  0.19200000000E+03 0.  0.
   -5000001    1    1    2    0    0  0.70824741111E+02 -0.18390076775E+03 -0.20977507282E+03  0.34598441802E+03  0.19200000000E+03 0.  0.
<mgrwt>
<rscale>  0 0.59521628E+03</rscale>
<asrwt>0</asrwt>
<pdfrwt beam="1">  1        2 0.57481765E-01 0.59521628E+03</pdfrwt>
<pdfrwt beam="2">  1       -2 0.31445857E-01 0.59521628E+03</pdfrwt>
<totfact> 0.80940006E+02</totfact>
</mgrwt>
</event>
<event>
 4    1  0.5863356E-005  0.5585975E+03  0.7818608E-02  0.9995233E-01
         -2   -1    0    0    0  501 -0.00000000000E+00  0.00000000000E+00  0.13551517868E+04  0.13551517868E+04  0.25500000000E-02 0.  1.
          2   -1    0    0  501    0  0.00000000000E+00 -0.00000000000E+00 -0.57563886977E+02  0.57563887034E+02  0.25500000000E-02 0. -1.
    5000001    1    1    2    0    0 -0.35420585675E+02 -0.11899959972E+03  0.10544529652E+04  0.10789580986E+04  0.19200000000E+03 0.  0.
   -5000001    1    1    2    0    0  0.35420585675E+02  0.11899959972E+03  0.24313493463E+03  0.33375757529E+03  0.19200000000E+03 0.  0.
<mgrwt>
<rscale>  0 0.55859755E+03</rscale>
<asrwt>0</asrwt>
<pdfrwt beam="1">  1        2 0.82234121E-02 0.55859755E+03</pdfrwt>
<pdfrwt beam="2">  1       -2 0.19359312E+00 0.55859755E+03</pdfrwt>
<totfact> 0.12855249E+02</totfact>
</mgrwt>
</event>
<event>
 4    1  0.5863356E-005  0.6173222E+03  0.7818608E-02  0.9870106E-01
          2   -1    0    0  501    0  0.00000000000E+00  0.00000000000E+00  0.15660557467E+03  0.15660557469E+03  0.25500000000E-02 0.  1.
         -2   -1    0    0    0  501 -0.00000000000E+00 -0.00000000000E+00 -0.60835425706E+03  0.60835425706E+03  0.25500000000E-02 0. -1.
    5000001    1    1    2    0    0 -0.23434534833E+03  0.42575645093E+02 -0.27662297814E+03  0.41244963314E+03  0.19200000000E+03 0.  0.
   -5000001    1    1    2    0    0  0.23434534833E+03 -0.42575645093E+02 -0.17512570424E+03  0.35251019861E+03  0.19200000000E+03 0.  0.
<mgrwt>
<rscale>  0 0.61732218E+03</rscale>
<asrwt>0</asrwt>
<pdfrwt beam="1">  1        2 0.22372225E-01 0.61732218E+03</pdfrwt>
<pdfrwt beam="2">  1       -2 0.86907750E-01 0.61732218E+03</pdfrwt>
<totfact> 0.28846784E+02</totfact>
</mgrwt>
</event>
<event>
 4    1  0.5863356E-005  0.5154327E+03  0.7818608E-02  0.1009827E+00
          2   -1    0    0  501    0  0.00000000000E+00  0.00000000000E+00  0.17839931674E+04  0.17839931674E+04  0.25500000000E-02 0. -1.
         -2   -1    0    0    0  501 -0.00000000000E+00 -0.00000000000E+00 -0.37229808360E+02  0.37229808447E+02  0.25500000000E-02 0.  1.
    5000001    1    1    2    0    0 -0.90521751157E+02 -0.14410203490E+03  0.78725543706E+03  0.82800646560E+03  0.19200000000E+03 0.  0.
   -5000001    1    1    2    0    0  0.90521751157E+02  0.14410203490E+03  0.95950792203E+03  0.99321651030E+03  0.19200000000E+03 0.  0.
<mgrwt>
<rscale>  0 0.51543273E+03</rscale>
<asrwt>0</asrwt>
<pdfrwt beam="1">  1        2 0.25485617E+00 0.51543273E+03</pdfrwt>
<pdfrwt beam="2">  1       -2 0.53185440E-02 0.51543273E+03</pdfrwt>
<totfact> 0.19891848E+03</totfact>
</mgrwt>
</event>
<event>
 4    1  0.5863356E-005  0.4692456E+03  0.7818608E-02  0.1022133E+00
         -2   -1    0    0    0  501 -0.00000000000E+00  0.00000000000E+00  0.16029151104E+03  0.16029151106E+03  0.25500000000E-02 0. -1.
          2   -1    0    0  501    0  0.00000000000E+00 -0.00000000000E+00 -0.34342340733E+03  0.34342340734E+03  0.25500000000E-02 0.  1.
    5000001    1    1    2    0    0 -0.13160405942E+03 -0.26112921491E+02 -0.10606134390E+03  0.25712744271E+03  0.19200000000E+03 0.  0.
   -5000001    1    1    2    0    0  0.13160405942E+03  0.26112921491E+02 -0.77070552399E+02  0.24658747570E+03  0.19200000000E+03 0.  0.
<mgrwt>
<rscale>  0 0.46924559E+03</rscale>
<asrwt>0</asrwt>
<pdfrwt beam="1">  1        2 0.49060487E-01 0.46924559E+03</pdfrwt>
<pdfrwt beam="2">  1       -2 0.22898787E-01 0.46924559E+03</pdfrwt>
<totfact> 0.17122500E+03</totfact>
</mgrwt>
</event>
<event>
 4    1  0.5863356E-005  0.1285812E+04  0.7818608E-02  0.9040893E-01
          2   -1    0    0  501    0  0.00000000000E+00  0.00000000000E+00  0.49832116639E+03  0.49832116640E+03  0.25500000000E-02 0.  1.
         -2   -1    0    0    0  501 -0.00000000000E+00 -0.00000000000E+00 -0.82944114015E+03  0.82944114016E+03  0.25500000000E-02 0. -1.
    5000001    1    1    2    0    0 -0.46817832998E+03 -0.11654411605E+03  0.22587267443E+03  0.56626490683E+03  0.19200000000E+03 0.  0.
   -5000001    1    1    2    0    0  0.46817832998E+03  0.11654411605E+03 -0.55699264819E+03  0.76149739973E+03  0.19200000000E+03 0.  0.
<mgrwt>
<rscale>  0 0.12858119E+04</rscale>
<asrwt>0</asrwt>
<pdfrwt beam="1">  1        2 0.71188738E-01 0.12858119E+04</pdfrwt>
<pdfrwt beam="2">  1       -2 0.11849159E+00 0.12858119E+04</pdfrwt>
<totfact> 0.36276291E+01</totfact>
</mgrwt>
</event>
<event>
 4    1  0.5863356E-005  0.4918788E+03  0.7818608E-02  0.1015921E+00
          2   -1    0    0  501    0  0.00000000000E+00  0.00000000000E+00  0.16388905040E+04  0.16388905040E+04  0.25500000000E-02 0.  1.
         -2   -1    0    0    0  501 -0.00000000000E+00 -0.00000000000E+00 -0.36906796676E+02  0.36906796765E+02  0.25500000000E-02 0. -1.
    5000001    1    1    2    0    0  0.10797407346E+03  0.27027704516E+02  0.43990053316E+03  0.49271226535E+03  0.19200000000E+03 0.  0.
   -5000001    1    1    2    0    0 -0.10797407346E+03 -0.27027704516E+02  0.11620831741E+04  0.11830850354E+04  0.19200000000E+03 0.  0.
<mgrwt>
<rscale>  0 0.49187884E+03</rscale>
<asrwt>0</asrwt>
<pdfrwt beam="1">  1        2 0.23412729E+00 0.49187884E+03</pdfrwt>
<pdfrwt beam="2">  1       -2 0.52723978E-02 0.49187884E+03</pdfrwt>
<totfact> 0.23884906E+03</totfact>
</mgrwt>
</event>
<event>
 4    1  0.5863356E-005  0.1283959E+04  0.7818608E-02  0.9042384E-01
          2   -1    0    0  501    0  0.00000000000E+00  0.00000000000E+00  0.26677132038E+03  0.26677132039E+03  0.25500000000E-02 0.  1.
         -2   -1    0    0    0  501 -0.00000000000E+00 -0.00000000000E+00 -0.15449087904E+04  0.15449087904E+04  0.25500000000E-02 0. -1.
    5000001    1    1    2    0    0 -0.36377626096E+03 -0.62809152315E+02 -0.13288717990E+04  0.13924950326E+04  0.19200000000E+03 0.  0.
   -5000001    1    1    2    0    0  0.36377626096E+03  0.62809152315E+02  0.50734328973E+02  0.41918507820E+03  0.19200000000E+03 0.  0.
<mgrwt>
<rscale>  0 0.12839585E+04</rscale>
<asrwt>0</asrwt>
<pdfrwt beam="1">  1        2 0.38110190E-01 0.12839585E+04</pdfrwt>
<pdfrwt beam="2">  1       -2 0.22070125E+00 0.12839585E+04</pdfrwt>
<totfact> 0.13072729E+01</totfact>
</mgrwt>
</event>
<event>
 4    1  0.5863356E-005  0.4727452E+03  0.7818608E-02  0.1021148E+00
          2   -1    0    0  501    0  0.00000000000E+00  0.00000000000E+00  0.20812497738E+04  0.20812497738E+04  0.25500000000E-02 0.  1.
         -2   -1    0    0    0  501 -0.00000000000E+00 -0.00000000000E+00 -0.26845415257E+02  0.26845415378E+02  0.25500000000E-02 0. -1.
    5000001    1    1    2    0    0 -0.10953701935E+03  0.58457665320E+02  0.12944737832E+04  0.13145120892E+04  0.19200000000E+03 0.  0.
   -5000001    1    1    2    0    0  0.10953701935E+03 -0.58457665320E+02  0.75993057533E+03  0.79358309997E+03  0.19200000000E+03 0.  0.
<mgrwt>
<rscale>  0 0.47274524E+03</rscale>
<asrwt>0</asrwt>
<pdfrwt beam="1">  1        2 0.29732146E+00 0.47274524E+03</pdfrwt>
<pdfrwt beam="2">  1       -2 0.38350585E-02 0.47274524E+03</pdfrwt>
<totfact> 0.23400822E+03</totfact>
</mgrwt>
</event>
<event>
 4    1  0.5863356E-005  0.4265170E+03  0.7818608E-02  0.1034966E+00
         -2   -1    0    0    0  501 -0.00000000000E+00  0.00000000000E+00  0.36098150520E+02  0.36098150610E+02  0.25500000000E-02 0. -1.
          2   -1    0    0  501    0  0.00000000000E+00 -0.00000000000E+00 -0.12598759706E+04  0.12598759706E+04  0.25500000000E-02 0.  1.
    5000001    1    1    2    0    0 -0.57723430189E+02  0.12891747525E+02 -0.39453487377E+03  0.44274141230E+03  0.19200000000E+03 0.  0.
   -5000001    1    1    2    0    0  0.57723430189E+02 -0.12891747525E+02 -0.82924294632E+03  0.85323270892E+03  0.19200000000E+03 0.  0.
<mgrwt>
<rscale>  0 0.42651702E+03</rscale>
<asrwt>0</asrwt>
<pdfrwt beam="1">  1        2 0.17998225E+00 0.42651702E+03</pdfrwt>
<pdfrwt beam="2">  1       -2 0.51568794E-02 0.42651702E+03</pdfrwt>
<totfact> 0.39003578E+03</totfact>
</mgrwt>
</event>
<event>
 4    1  0.5863356E-005  0.4627404E+03  0.7818608E-02  0.1023989E+00
         -2   -1    0    0    0  501 -0.00000000000E+00  0.00000000000E+00  0.17192729913E+02  0.17192730102E+02  0.25500000000E-02 0. -1.
          2   -1    0    0  501    0  0.00000000000E+00 -0.00000000000E+00 -0.31136509234E+04  0.31136509234E+04  0.25500000000E-02 0.  1.
    5000001    1    1    2    0    0  0.12244137994E+03  0.78053302590E+01 -0.18201587968E+04  0.18343649747E+04  0.19200000000E+03 0.  0.
   -5000001    1    1    2    0    0 -0.12244137994E+03 -0.78053302590E+01 -0.12762993967E+04  0.12964786788E+04  0.19200000000E+03 0.  0.
<mgrwt>
<rscale>  0 0.46274036E+03</rscale>
<asrwt>0</asrwt>
<pdfrwt beam="1">  1        2 0.44480692E+00 0.46274036E+03</pdfrwt>
<pdfrwt beam="2">  1       -2 0.24561063E-02 0.46274036E+03</pdfrwt>
<totfact> 0.13449574E+03</totfact>
</mgrwt>
</event>
<event>
 4    1  0.5863356E-005  0.1040790E+04  0.7818608E-02  0.9264905E-01
         -2   -1    0    0    0  501 -0.00000000000E+00  0.00000000000E+00  0.19761369192E+03  0.19761369193E+03  0.25500000000E-02 0. -1.
          2   -1    0    0  501    0  0.00000000000E+00 -0.00000000000E+00 -0.13704060009E+04  0.13704060009E+04  0.25500000000E-02 0.  1.
    5000001    1    1    2    0    0 -0.31245818019E+03  0.28439356783E+03 -0.94111880013E+03  0.10493228349E+04  0.19200000000E+03 0.  0.
   -5000001    1    1    2    0    0  0.31245818019E+03 -0.28439356783E+03 -0.23167350890E+03  0.51869685802E+03  0.19200000000E+03 0.  0.
<mgrwt>
<rscale>  0 0.10407901E+04</rscale>
<asrwt>0</asrwt>
<pdfrwt beam="1">  1        2 0.19577228E+00 0.10407901E+04</pdfrwt>
<pdfrwt beam="2">  1       -2 0.28230528E-01 0.10407901E+04</pdfrwt>
<totfact> 0.19592345E+02</totfact>
</mgrwt>
</event>
<event>
 4    1  0.5863356E-005  0.5084554E+03  0.7818608E-02  0.1011595E+00
         -2   -1    0    0    0  501 -0.00000000000E+00  0.00000000000E+00  0.33273806572E+02  0.33273806670E+02  0.25500000000E-02 0. -1.
          2   -1    0    0  501    0  0.00000000000E+00 -0.00000000000E+00 -0.19424202011E+04  0.19424202011E+04  0.25500000000E-02 0.  1.
    5000001    1    1    2    0    0  0.14568438451E+02 -0.13493576299E+03 -0.57888989274E+03  0.62481789943E+03  0.19200000000E+03 0.  0.
   -5000001    1    1    2    0    0 -0.14568438451E+02  0.13493576299E+03 -0.13302565017E+04  0.13508761083E+04  0.19200000000E+03 0.  0.
<mgrwt>
<rscale>  0 0.50845536E+03</rscale>
<asrwt>0</asrwt>
<pdfrwt beam="1">  1        2 0.27748853E+00 0.50845536E+03</pdfrwt>
<pdfrwt beam="2">  1       -2 0.47534022E-02 0.50845536E+03</pdfrwt>
<totfact> 0.19718675E+03</totfact>
</mgrwt>
</event>
<event>
 4    1  0.5863356E-005  0.6376608E+03  0.7818608E-02  0.9830212E-01
          2   -1    0    0  501    0  0.00000000000E+00  0.00000000000E+00  0.13063686068E+04  0.13063686068E+04  0.25500000000E-02 0.  1.
         -2   -1    0    0    0  501 -0.00000000000E+00 -0.00000000000E+00 -0.77813269086E+02  0.77813269127E+02  0.25500000000E-02 0. -1.
    5000001    1    1    2    0    0  0.24153894954E+03 -0.29433786954E+02  0.45210598047E+03  0.54815256046E+03  0.19200000000E+03 0.  0.
   -5000001    1    1    2    0    0 -0.24153894954E+03  0.29433786954E+02  0.77644935726E+03  0.83602931548E+03  0.19200000000E+03 0.  0.
<mgrwt>
<rscale>  0 0.63766076E+03</rscale>
<asrwt>0</asrwt>
<pdfrwt beam="1">  1        2 0.18662406E+00 0.63766076E+03</pdfrwt>
<pdfrwt beam="2">  1       -2 0.11116183E-01 0.63766076E+03</pdfrwt>
<totfact> 0.10854754E+03</totfact>
</mgrwt>
</event>
<event>
 4    1  0.5863356E-005  0.4850891E+03  0.7818608E-02  0.1017746E+00
          2   -1    0    0  501    0  0.00000000000E+00  0.00000000000E+00  0.23076743221E+04  0.23076743221E+04  0.25500000000E-02 0.  1.
         -2   -1    0    0    0  501 -0.00000000000E+00 -0.00000000000E+00 -0.25492275377E+02  0.25492275504E+02  0.25500000000E-02 0. -1.
    5000001    1    1    2    0    0 -0.41647855531E+02  0.14173778209E+03  0.10842366462E+04  0.11109713082E+04  0.19200000000E+03 0.  0.
   -5000001    1    1    2    0    0  0.41647855531E+02 -0.14173778209E+03  0.11979454005E+04  0.12221952894E+04  0.19200000000E+03 0.  0.
<mgrwt>
<rscale>  0 0.48508914E+03</rscale>
<asrwt>0</asrwt>
<pdfrwt beam="1">  1        2 0.32966792E+00 0.48508914E+03</pdfrwt>
<pdfrwt beam="2">  1       -2 0.36417519E-02 0.48508914E+03</pdfrwt>
<totfact> 0.19498411E+03</totfact>
</mgrwt>
</event>
<event>
 4    1  0.5863356E-005  0.5489767E+03  0.7818608E-02  0.1001731E+00
          2   -1    0    0  501    0  0.00000000000E+00  0.00000000000E+00  0.22165058331E+04  0.22165058331E+04  0.25500000000E-02 0.  1.
         -2   -1    0    0    0  501 -0.00000000000E+00 -0.00000000000E+00 -0.33992170620E+02  0.33992170715E+02  0.25500000000E-02 0. -1.
    5000001    1    1    2    0    0  0.18398357780E+03  0.52496955350E+02  0.91379514715E+03  0.95314818270E+03  0.19200000000E+03 0.  0.
   -5000001    1    1    2    0    0 -0.18398357780E+03 -0.52496955350E+02  0.12687185153E+04  0.12973498211E+04  0.19200000000E+03 0.  0.
<mgrwt>
<rscale>  0 0.54897666E+03</rscale>
<asrwt>0</asrwt>
<pdfrwt beam="1">  1        2 0.31664361E+00 0.54897666E+03</pdfrwt>
<pdfrwt beam="2">  1       -2 0.48560256E-02 0.54897666E+03</pdfrwt>
<totfact> 0.13884542E+03</totfact>
</mgrwt>
</event>
<event>
 4    1  0.5863356E-005  0.5496957E+03  0.7818608E-02  0.1001564E+00
          2   -1    0    0  501    0  0.00000000000E+00  0.00000000000E+00  0.59160657034E+03  0.59160657034E+03  0.25500000000E-02 0.  1.
         -2   -1    0    0    0  501 -0.00000000000E+00 -0.00000000000E+00 -0.12768849407E+03  0.12768849410E+03  0.25500000000E-02 0. -1.
    5000001    1    1    2    0    0 -0.11758663490E+03  0.35972818645E+02  0.43279517389E+03  0.48917923395E+03  0.19200000000E+03 0.  0.
   -5000001    1    1    2    0    0  0.11758663490E+03 -0.35972818645E+02  0.31122902377E+02  0.23011583049E+03  0.19200000000E+03 0.  0.
<mgrwt>
<rscale>  0 0.54969574E+03</rscale>
<asrwt>0</asrwt>
<pdfrwt beam="1">  1        2 0.84515223E-01 0.54969574E+03</pdfrwt>
<pdfrwt beam="2">  1       -2 0.18241214E-01 0.54969574E+03</pdfrwt>
<totfact> 0.13820020E+03</totfact>
</mgrwt>
</event>
<event>
 4    1  0.5863356E-005  0.9859322E+03  0.7818608E-02  0.9324110E-01
         -2   -1    0    0    0  501 -0.00000000000E+00  0.00000000000E+00  0.10610378992E+04  0.10610378992E+04  0.25500000000E-02 0. -1.
          2   -1    0    0  501    0  0.00000000000E+00 -0.00000000000E+00 -0.22903570862E+03  0.22903570864E+03  0.25500000000E-02 0.  1.
    5000001    1    1    2    0    0  0.39640609695E+03 -0.60797833817E+02  0.13745317195E+03  0.46539396727E+03  0.19200000000E+03 0.  0.
   -5000001    1    1    2    0    0 -0.39640609695E+03  0.60797833817E+02  0.69454901862E+03  0.82467964056E+03  0.19200000000E+03 0.  0.
<mgrwt>
<rscale>  0 0.98593218E+03</rscale>
<asrwt>0</asrwt>
<pdfrwt beam="1">  1        2 0.32719387E-01 0.98593218E+03</pdfrwt>
<pdfrwt beam="2">  1       -2 0.15157684E+00 0.98593218E+03</pdfrwt>
<totfact> 0.46977310E+01</totfact>
</mgrwt>
</event>
<event>
 4    1  0.5863356E-005  0.7696089E+03  0.7818608E-02  0.9605080E-01
         -2   -1    0    0    0  501 -0.00000000000E+00  0.00000000000E+00  0.26836892476E+03  0.26836892478E+03  0.25500000000E-02 0. -1.
          2   -1    0    0  501    0  0.00000000000E+00 -0.00000000000E+00 -0.55175713377E+03  0.55175713377E+03  0.25500000000E-02 0.  1.
    5000001    1    1    2    0    0 -0.35998733787E+01  0.16112444441E+03  0.16942245838E+03  0.30255911006E+03  0.19200000000E+03 0.  0.
   -5000001    1    1    2    0    0  0.35998733787E+01 -0.16112444441E+03 -0.45281066738E+03  0.51756694849E+03  0.19200000000E+03 0.  0.
<mgrwt>
<rscale>  0 0.76960891E+03</rscale>
<asrwt>0</asrwt>
<pdfrwt beam="1">  1        2 0.78822448E-01 0.76960891E+03</pdfrwt>
<pdfrwt beam="2">  1       -2 0.38338418E-01 0.76960891E+03</pdfrwt>
<totfact> 0.38685955E+02</totfact>
</mgrwt>
</event>
<event>
 4    1  0.5863356E-005  0.4525961E+03  0.7818608E-02  0.1026951E+00
          2   -1    0    0  501    0  0.00000000000E+00  0.00000000000E+00  0.36447865830E+03  0.36447865831E+03  0.25500000000E-02 0.  1.
         -2   -1    0    0    0  501 -0.00000000000E+00 -0.00000000000E+00 -0.14050429316E+03  0.14050429318E+03  0.25500000000E-02 0. -1.
    5000001    1    1    2    0    0  0.55012292358E+02  0.87105440537E+02  0.43815966217E+02  0.22225559380E+03  0.19200000000E+03 0.  0.
   -5000001    1    1    2    0    0 -0.55012292358E+02 -0.87105440537E+02  0.18015839892E+03  0.28272735769E+03  0.19200000000E+03 0.  0.
<mgrwt>
<rscale>  0 0.45259614E+03</rscale>
<asrwt>0</asrwt>
<pdfrwt beam="1">  1        2 0.52068379E-01 0.45259614E+03</pdfrwt>
<pdfrwt beam="2">  1       -2 0.20072042E-01 0.45259614E+03</pdfrwt>
<totfact> 0.20187928E+03</totfact>
</mgrwt>
</event>
<event>
 4    1  0.5863356E-005  0.4027977E+03  0.7818608E-02  0.1042815E+00
         -2   -1    0    0    0  501 -0.00000000000E+00  0.00000000000E+00  0.35293075478E+03  0.35293075479E+03  0.25500000000E-02 0. -1.
          2   -1    0    0  501    0  0.00000000000E+00 -0.00000000000E+00 -0.11492760672E+03  0.11492760675E+03  0.25500000000E-02 0.  1.
    5000001    1    1    2    0    0 -0.28522727492E+02 -0.47412989348E+02  0.89710266094E+02  0.21902846707E+03  0.19200000000E+03 0.  0.
   -5000001    1    1    2    0    0  0.28522727492E+02  0.47412989348E+02  0.14829288197E+03  0.24882989447E+03  0.19200000000E+03 0.  0.
<mgrwt>
<rscale>  0 0.40279765E+03</rscale>
<asrwt>0</asrwt>
<pdfrwt beam="1">  1        2 0.16418230E-01 0.40279765E+03</pdfrwt>
<pdfrwt beam="2">  1       -2 0.50418678E-01 0.40279765E+03</pdfrwt>
<totfact> 0.13323155E+03</totfact>
</mgrwt>
</event>
<event>
 4    1  0.5863356E-005  0.5501312E+03  0.7818608E-02  0.1001464E+00
         -2   -1    0    0    0  501 -0.00000000000E+00  0.00000000000E+00  0.22443644429E+02  0.22443644573E+02  0.25500000000E-02 0. -1.
          2   -1    0    0  501    0  0.00000000000E+00 -0.00000000000E+00 -0.33711587182E+04  0.33711587182E+04  0.25500000000E-02 0.  1.
    5000001    1    1    2    0    0  0.12404873728E+01  0.16172312378E+03 -0.98079044394E+03  0.10124079230E+04  0.19200000000E+03 0.  0.
   -5000001    1    1    2    0    0 -0.12404873728E+01 -0.16172312378E+03 -0.23679246298E+04  0.23811944398E+04  0.19200000000E+03 0.  0.
<mgrwt>
<rscale>  0 0.55013121E+03</rscale>
<asrwt>0</asrwt>
<pdfrwt beam="1">  1        2 0.48159378E+00 0.55013121E+03</pdfrwt>
<pdfrwt beam="2">  1       -2 0.32062371E-02 0.55013121E+03</pdfrwt>
<totfact> 0.63807416E+02</totfact>
</mgrwt>
</event>
<event>
 4    1  0.5863356E-005  0.5455167E+03  0.7818608E-02  0.1002537E+00
          2   -1    0    0  501    0  0.00000000000E+00  0.00000000000E+00  0.89000273326E+02  0.89000273363E+02  0.25500000000E-02 0.  1.
         -2   -1    0    0    0  501 -0.00000000000E+00 -0.00000000000E+00 -0.83592001661E+03  0.83592001661E+03  0.25500000000E-02 0. -1.
    5000001    1    1    2    0    0  0.35710595093E+02  0.18945681974E+03 -0.40580680740E+03  0.48858192566E+03  0.19200000000E+03 0.  0.
   -5000001    1    1    2    0    0 -0.35710595093E+02 -0.18945681974E+03 -0.34111293588E+03  0.43633836431E+03  0.19200000000E+03 0.  0.
<mgrwt>
<rscale>  0 0.54551667E+03</rscale>
<asrwt>0</asrwt>
<pdfrwt beam="1">  1        2 0.12714325E-01 0.54551667E+03</pdfrwt>
<pdfrwt beam="2">  1       -2 0.11941714E+00 0.54551667E+03</pdfrwt>
<totfact> 0.26757144E+02</totfact>
</mgrwt>
</event>
<event>
 4    1  0.5863356E-005  0.4772188E+03  0.7818608E-02  0.1019902E+00
          2   -1    0    0  501    0  0.00000000000E+00  0.00000000000E+00  0.14700021690E+04  0.14700021690E+04  0.25500000000E-02 0.  1.
         -2   -1    0    0    0  501 -0.00000000000E+00 -0.00000000000E+00 -0.38730853614E+02  0.38730853698E+02  0.25500000000E-02 0. -1.
    5000001    1    1    2    0    0 -0.19841504966E+02 -0.13320417008E+03  0.57662246067E+03  0.62249056089E+03  0.19200000000E+03 0.  0.
   -5000001    1    1    2    0    0  0.19841504966E+02  0.13320417008E+03  0.85464885471E+03  0.88624246180E+03  0.19200000000E+03 0.  0.
<mgrwt>
<rscale>  0 0.47721877E+03</rscale>
<asrwt>0</asrwt>
<pdfrwt beam="1">  1        2 0.21000033E+00 0.47721877E+03</pdfrwt>
<pdfrwt beam="2">  1       -2 0.55329786E-02 0.47721877E+03</pdfrwt>
<totfact> 0.27067236E+03</totfact>
</mgrwt>
</event>
<event>
 4    1  0.5863356E-005  0.5967287E+03  0.7818608E-02  0.9912216E-01
          2   -1    0    0  501    0  0.00000000000E+00  0.00000000000E+00  0.28061962382E+03  0.28061962383E+03  0.25500000000E-02 0.  1.
         -2   -1    0    0    0  501 -0.00000000000E+00 -0.00000000000E+00 -0.31723110938E+03  0.31723110939E+03  0.25500000000E-02 0. -1.
    5000001    1    1    2    0    0 -0.31228415037E+02  0.21068436716E+03  0.64275932966E+02  0.29386818819E+03  0.19200000000E+03 0.  0.
   -5000001    1    1    2    0    0  0.31228415037E+02 -0.21068436716E+03 -0.10088741853E+03  0.30398254504E+03  0.19200000000E+03 0.  0.
<mgrwt>
<rscale>  0 0.59672866E+03</rscale>
<asrwt>0</asrwt>
<pdfrwt beam="1">  1        2 0.40088518E-01 0.59672866E+03</pdfrwt>
<pdfrwt beam="2">  1       -2 0.45318729E-01 0.59672866E+03</pdfrwt>
<totfact> 0.59730154E+02</totfact>
</mgrwt>
</event>
<event>
 4    1  0.5863356E-005  0.5602929E+03  0.7818608E-02  0.9991392E-01
          2   -1    0    0  501    0  0.00000000000E+00  0.00000000000E+00  0.43690016787E+03  0.43690016788E+03  0.25500000000E-02 0.  1.
         -2   -1    0    0    0  501 -0.00000000000E+00 -0.00000000000E+00 -0.17963377652E+03  0.17963377654E+03  0.25500000000E-02 0. -1.
    5000001    1    1    2    0    0 -0.13906297487E+03 -0.14905014187E+03  0.13740669056E+03  0.31192796345E+03  0.19200000000E+03 0.  0.
   -5000001    1    1    2    0    0  0.13906297487E+03  0.14905014187E+03  0.11985970079E+03  0.30460598097E+03  0.19200000000E+03 0.  0.
<mgrwt>
<rscale>  0 0.56029288E+03</rscale>
<asrwt>0</asrwt>
<pdfrwt beam="1">  1        2 0.62414309E-01 0.56029288E+03</pdfrwt>
<pdfrwt beam="2">  1       -2 0.25661968E-01 0.56029288E+03</pdfrwt>
<totfact> 0.10715365E+03</totfact>
</mgrwt>
</event>
<event>
 4    1  0.5863356E-005  0.7248990E+03  0.7818608E-02  0.9675574E-01
          2   -1    0    0  501    0  0.00000000000E+00  0.00000000000E+00  0.52201226054E+03  0.52201226055E+03  0.25500000000E-02 0.  1.
         -2   -1    0    0    0  501 -0.00000000000E+00 -0.00000000000E+00 -0.25166003203E+03  0.25166003205E+03  0.25500000000E-02 0. -1.
    5000001    1    1    2    0    0 -0.79997188112E+02 -0.27516323742E+03  0.16370382651E+02  0.34532064341E+03  0.19200000000E+03 0.  0.
   -5000001    1    1    2    0    0  0.79997188112E+02  0.27516323742E+03  0.25398184586E+03  0.42835164918E+03  0.19200000000E+03 0.  0.
<mgrwt>
<rscale>  0 0.72489895E+03</rscale>
<asrwt>0</asrwt>
<pdfrwt beam="1">  1        2 0.74573180E-01 0.72489895E+03</pdfrwt>
<pdfrwt beam="2">  1       -2 0.35951433E-01 0.72489895E+03</pdfrwt>
<totfact> 0.46739851E+02</totfact>
</mgrwt>
</event>
<event>
 4    1  0.5863356E-005  0.1036018E+04  0.7818608E-02  0.9269900E-01
          2   -1    0    0  501    0  0.00000000000E+00  0.00000000000E+00  0.16947835991E+04  0.16947835991E+04  0.25500000000E-02 0.  1.
         -2   -1    0    0    0  501 -0.00000000000E+00 -0.00000000000E+00 -0.15832894199E+03  0.15832894201E+03  0.25500000000E-02 0. -1.
    5000001    1    1    2    0    0 -0.31387330638E+03 -0.30917205051E+03  0.11139834117E+04  0.12132299250E+04  0.19200000000E+03 0.  0.
   -5000001    1    1    2    0    0  0.31387330638E+03  0.30917205051E+03  0.42247124544E+03  0.63988261618E+03  0.19200000000E+03 0.  0.
<mgrwt>
<rscale>  0 0.10360179E+04</rscale>
<asrwt>0</asrwt>
<pdfrwt beam="1">  1        2 0.24211196E+00 0.10360179E+04</pdfrwt>
<pdfrwt beam="2">  1       -2 0.22618419E-01 0.10360179E+04</pdfrwt>
<totfact> 0.19737833E+02</totfact>
</mgrwt>
</event>
<event>
 4    1  0.5863356E-005  0.6024026E+03  0.7818608E-02  0.9900434E-01
         -2   -1    0    0    0  501 -0.00000000000E+00  0.00000000000E+00  0.24589867148E+03  0.24589867149E+03  0.25500000000E-02 0. -1.
          2   -1    0    0  501    0  0.00000000000E+00 -0.00000000000E+00 -0.36894151326E+03  0.36894151327E+03  0.25500000000E-02 0.  1.
    5000001    1    1    2    0    0 -0.20851207058E+02 -0.23074346631E+03 -0.75249322274E+02  0.31016734287E+03  0.19200000000E+03 0.  0.
   -5000001    1    1    2    0    0  0.20851207058E+02  0.23074346631E+03 -0.47793519512E+02  0.30467284189E+03  0.19200000000E+03 0.  0.
<mgrwt>
<rscale>  0 0.60240262E+03</rscale>
<asrwt>0</asrwt>
<pdfrwt beam="1">  1        2 0.52705931E-01 0.60240262E+03</pdfrwt>
<pdfrwt beam="2">  1       -2 0.35128382E-01 0.60240262E+03</pdfrwt>
<totfact> 0.72373764E+02</totfact>
</mgrwt>
</event>
<event>
 4    1  0.5863356E-005  0.6083342E+03  0.7818608E-02  0.9888264E-01
          2   -1    0    0  501    0  0.00000000000E+00  0.00000000000E+00  0.37132875871E+03  0.37132875872E+03  0.25500000000E-02 0. -1.
         -2   -1    0    0    0  501 -0.00000000000E+00 -0.00000000000E+00 -0.24915290081E+03  0.24915290082E+03  0.25500000000E-02 0.  1.
    5000001    1    1    2    0    0  0.11564546586E+02 -0.21235508915E+03 -0.43054857075E+02  0.28973460847E+03  0.19200000000E+03 0.  0.
   -5000001    1    1    2    0    0 -0.11564546586E+02  0.21235508915E+03  0.16523071497E+03  0.33074705108E+03  0.19200000000E+03 0.  0.
<mgrwt>
<rscale>  0 0.60833424E+03</rscale>
<asrwt>0</asrwt>
<pdfrwt beam="1">  1        2 0.53046965E-01 0.60833424E+03</pdfrwt>
<pdfrwt beam="2">  1       -2 0.35593272E-01 0.60833424E+03</pdfrwt>
<totfact> 0.70080271E+02</totfact>
</mgrwt>
</event>
<event>
 4    1  0.5863356E-005  0.5709015E+03  0.7818608E-02  0.9967686E-01
          2   -1    0    0  501    0  0.00000000000E+00  0.00000000000E+00  0.31131725432E+04  0.31131725432E+04  0.25500000000E-02 0.  1.
         -2   -1    0    0    0  501 -0.00000000000E+00 -0.00000000000E+00 -0.26173338772E+02  0.26173338896E+02  0.25500000000E-02 0. -1.
    5000001    1    1    2    0    0  0.19185890529E+03  0.80891551988E+02  0.13479327206E+04  0.13773670179E+04  0.19200000000E+03 0.  0.
   -5000001    1    1    2    0    0 -0.19185890529E+03 -0.80891551988E+02  0.17390664838E+04  0.17619788641E+04  0.19200000000E+03 0.  0.
<mgrwt>
<rscale>  0 0.57090146E+03</rscale>
<asrwt>0</asrwt>
<pdfrwt beam="1">  1        2 0.44473884E+00 0.57090146E+03</pdfrwt>
<pdfrwt beam="2">  1       -2 0.37390492E-02 0.57090146E+03</pdfrwt>
<totfact> 0.70426429E+02</totfact>
</mgrwt>
</event>
<event>
 4    1  0.5863356E-005  0.1039737E+04  0.7818608E-02  0.9266005E-01
         -2   -1    0    0    0  501 -0.00000000000E+00  0.00000000000E+00  0.38224457611E+03  0.38224457612E+03  0.25500000000E-02 0. -1.
          2   -1    0    0  501    0  0.00000000000E+00 -0.00000000000E+00 -0.70704262776E+03  0.70704262776E+03  0.25500000000E-02 0.  1.
    5000001    1    1    2    0    0  0.41793622578E+03 -0.19539530951E+03 -0.12217561456E+02  0.49986326591E+03  0.19200000000E+03 0.  0.
   -5000001    1    1    2    0    0 -0.41793622578E+03  0.19539530951E+03 -0.31258049019E+03  0.58942393797E+03  0.19200000000E+03 0.  0.
<mgrwt>
<rscale>  0 0.10397369E+04</rscale>
<asrwt>0</asrwt>
<pdfrwt beam="1">  1        2 0.10100609E+00 0.10397369E+04</pdfrwt>
<pdfrwt beam="2">  1       -2 0.54606368E-01 0.10397369E+04</pdfrwt>
<totfact> 0.13979026E+02</totfact>
</mgrwt>
</event>
<event>
 4    1  0.5863356E-005  0.4447870E+03  0.7818608E-02  0.1029288E+00
          2   -1    0    0  501    0  0.00000000000E+00  0.00000000000E+00  0.19701403415E+04  0.19701403415E+04  0.25500000000E-02 0.  1.
         -2   -1    0    0    0  501 -0.00000000000E+00 -0.00000000000E+00 -0.25104240462E+02  0.25104240592E+02  0.25500000000E-02 0. -1.
    5000001    1    1    2    0    0  0.27757617366E+02  0.10584813383E+03  0.86077065867E+03  0.88868691876E+03  0.19200000000E+03 0.  0.
   -5000001    1    1    2    0    0 -0.27757617366E+02 -0.10584813383E+03  0.10842654423E+04  0.11065576633E+04  0.19200000000E+03 0.  0.
<mgrwt>
<rscale>  0 0.44478704E+03</rscale>
<asrwt>0</asrwt>
<pdfrwt beam="1">  1        2 0.28144865E+00 0.44478704E+03</pdfrwt>
<pdfrwt beam="2">  1       -2 0.35863197E-02 0.44478704E+03</pdfrwt>
<totfact> 0.29460144E+03</totfact>
</mgrwt>
</event>
<event>
 4    1  0.5863356E-005  0.8563796E+03  0.7818608E-02  0.9481814E-01
         -2   -1    0    0    0  501 -0.00000000000E+00  0.00000000000E+00  0.49877940895E+03  0.49877940895E+03  0.25500000000E-02 0. -1.
          2   -1    0    0  501    0  0.00000000000E+00 -0.00000000000E+00 -0.36759035557E+03  0.36759035558E+03  0.25500000000E-02 0.  1.
    5000001    1    1    2    0    0 -0.18486999995E+03  0.29503025558E+03 -0.95202174342E+02  0.40883642522E+03  0.19200000000E+03 0.  0.
   -5000001    1    1    2    0    0  0.18486999995E+03 -0.29503025558E+03  0.22639122772E+03  0.45753333931E+03  0.19200000000E+03 0.  0.
<mgrwt>
<rscale>  0 0.85637959E+03</rscale>
<asrwt>0</asrwt>
<pdfrwt beam="1">  1        2 0.52512908E-01 0.85637959E+03</pdfrwt>
<pdfrwt beam="2">  1       -2 0.71254201E-01 0.85637959E+03</pdfrwt>
<totfact> 0.17092977E+02</totfact>
</mgrwt>
</event>
<event>
 4    1  0.5863356E-005  0.5781895E+03  0.7818608E-02  0.9951718E-01
          2   -1    0    0  501    0  0.00000000000E+00  0.00000000000E+00  0.59129029614E+03  0.59129029615E+03  0.25500000000E-02 0.  1.
         -2   -1    0    0    0  501 -0.00000000000E+00 -0.00000000000E+00 -0.14134476509E+03  0.14134476511E+03  0.25500000000E-02 0. -1.
    5000001    1    1    2    0    0 -0.13058800379E+02  0.14001439308E+03  0.17006020930E+02  0.23859540499E+03  0.19200000000E+03 0.  0.
   -5000001    1    1    2    0    0  0.13058800379E+02 -0.14001439308E+03  0.43293951012E+03  0.49403965626E+03  0.19200000000E+03 0.  0.
<mgrwt>
<rscale>  0 0.57818955E+03</rscale>
<asrwt>0</asrwt>
<pdfrwt beam="1">  1        2 0.84470044E-01 0.57818955E+03</pdfrwt>
<pdfrwt beam="2">  1       -2 0.20192109E-01 0.57818955E+03</pdfrwt>
<totfact> 0.11597139E+03</totfact>
</mgrwt>
</event>
<event>
 4    1  0.5863356E-005  0.5063547E+03  0.7818608E-02  0.1012133E+00
          2   -1    0    0  501    0  0.00000000000E+00  0.00000000000E+00  0.21924378954E+04  0.21924378954E+04  0.25500000000E-02 0.  1.
         -2   -1    0    0    0  501 -0.00000000000E+00 -0.00000000000E+00 -0.29236295903E+02  0.29236296014E+02  0.25500000000E-02 0. -1.
    5000001    1    1    2    0    0 -0.56885902949E+02 -0.10650065367E+03  0.15752064205E+04  0.15914514326E+04  0.19200000000E+03 0.  0.
   -5000001    1    1    2    0    0  0.56885902949E+02  0.10650065367E+03  0.58799517902E+03  0.63022275882E+03  0.19200000000E+03 0.  0.
<mgrwt>
<rscale>  0 0.50635467E+03</rscale>
<asrwt>0</asrwt>
<pdfrwt beam="1">  1        2 0.31320534E+00 0.50635467E+03</pdfrwt>
<pdfrwt beam="2">  1       -2 0.41766147E-02 0.50635467E+03</pdfrwt>
<totfact> 0.18046381E+03</totfact>
</mgrwt>
</event>
<event>
 4    1  0.5863356E-005  0.5710305E+03  0.7818608E-02  0.9967401E-01
         -2   -1    0    0    0  501 -0.00000000000E+00  0.00000000000E+00  0.39546662555E+02  0.39546662637E+02  0.25500000000E-02 0.  1.
          2   -1    0    0  501    0  0.00000000000E+00 -0.00000000000E+00 -0.20613356791E+04  0.20613356791E+04  0.25500000000E-02 0. -1.
    5000001    1    1    2    0    0  0.55064448179E+02 -0.20317343154E+03 -0.94271578889E+03  0.98482922142E+03  0.19200000000E+03 0.  0.
   -5000001    1    1    2    0    0 -0.55064448179E+02  0.20317343154E+03 -0.10790732277E+04  0.11160531204E+04  0.19200000000E+03 0.  0.
<mgrwt>
<rscale>  0 0.57103046E+03</rscale>
<asrwt>0</asrwt>
<pdfrwt beam="1">  1        2 0.29447646E+00 0.57103046E+03</pdfrwt>
<pdfrwt beam="2">  1       -2 0.56495245E-02 0.57103046E+03</pdfrwt>
<totfact> 0.13115996E+03</totfact>
</mgrwt>
</event>
<event>
 4    1  0.5863356E-005  0.8027003E+03  0.7818608E-02  0.9556117E-01
         -2   -1    0    0    0  501 -0.00000000000E+00  0.00000000000E+00  0.13560537119E+03  0.13560537121E+03  0.25500000000E-02 0. -1.
          2   -1    0    0  501    0  0.00000000000E+00 -0.00000000000E+00 -0.11878728973E+04  0.11878728973E+04  0.25500000000E-02 0.  1.
    5000001    1    1    2    0    0 -0.26084458705E+03 -0.23454775973E+03 -0.46984781846E+03  0.61698745749E+03  0.19200000000E+03 0.  0.
   -5000001    1    1    2    0    0  0.26084458705E+03  0.23454775973E+03 -0.58241970763E+03  0.70649081099E+03  0.19200000000E+03 0.  0.
<mgrwt>
<rscale>  0 0.80270031E+03</rscale>
<asrwt>0</asrwt>
<pdfrwt beam="1">  1        2 0.16969612E+00 0.80270031E+03</pdfrwt>
<pdfrwt beam="2">  1       -2 0.19372196E-01 0.80270031E+03</pdfrwt>
<totfact> 0.49173724E+02</totfact>
</mgrwt>
</event>
<event>
 4    1  0.5863356E-005  0.6126853E+03  0.7818608E-02  0.9879432E-01
         -2   -1    0    0    0  501 -0.00000000000E+00  0.00000000000E+00  0.44622059985E+02  0.44622060058E+02  0.25500000000E-02 0. -1.
          2   -1    0    0  501    0  0.00000000000E+00 -0.00000000000E+00 -0.21031263477E+04  0.21031263477E+04  0.25500000000E-02 0.  1.
    5000001    1    1    2    0    0 -0.23119770812E+03  0.47846944468E+02 -0.90580594019E+03  0.95555748735E+03  0.19200000000E+03 0.  0.
   -5000001    1    1    2    0    0  0.23119770812E+03 -0.47846944468E+02 -0.11526983475E+04  0.11921909204E+04  0.19200000000E+03 0.  0.
<mgrwt>
<rscale>  0 0.61268534E+03</rscale>
<asrwt>0</asrwt>
<pdfrwt beam="1">  1        2 0.30044656E+00 0.61268534E+03</pdfrwt>
<pdfrwt beam="2">  1       -2 0.63745813E-02 0.61268534E+03</pdfrwt>
<totfact> 0.10320372E+03</totfact>
</mgrwt>
</event>
<event>
 4    1  0.5863356E-005  0.8486388E+03  0.7818608E-02  0.9492166E-01
          2   -1    0    0  501    0  0.00000000000E+00  0.00000000000E+00  0.98736799644E+03  0.98736799644E+03  0.25500000000E-02 0.  1.
         -2   -1    0    0    0  501 -0.00000000000E+00 -0.00000000000E+00 -0.18235038294E+03  0.18235038296E+03  0.25500000000E-02 0. -1.
    5000001    1    1    2    0    0  0.32652202865E+03 -0.13383796132E+03  0.21425623564E+03  0.45530096595E+03  0.19200000000E+03 0.  0.
   -5000001    1    1    2    0    0 -0.32652202865E+03  0.13383796132E+03  0.59076137786E+03  0.71441741346E+03  0.19200000000E+03 0.  0.
<mgrwt>
<rscale>  0 0.84863875E+03</rscale>
<asrwt>0</asrwt>
<pdfrwt beam="1">  1        2 0.14105257E+00 0.84863875E+03</pdfrwt>
<pdfrwt beam="2">  1       -2 0.26050054E-01 0.84863875E+03</pdfrwt>
<totfact> 0.38084711E+02</totfact>
</mgrwt>
</event>
<event>
 4    1  0.5863356E-005  0.4671135E+03  0.7818608E-02  0.1022738E+00
         -2   -1    0    0    0  501 -0.00000000000E+00  0.00000000000E+00  0.55369034853E+03  0.55369034854E+03  0.25500000000E-02 0. -1.
          2   -1    0    0  501    0  0.00000000000E+00 -0.00000000000E+00 -0.98518504563E+02  0.98518504596E+02  0.25500000000E-02 0.  1.
    5000001    1    1    2    0    0 -0.10657992861E+03 -0.78535818637E+02  0.24511372437E+03  0.33833695315E+03  0.19200000000E+03 0.  0.
   -5000001    1    1    2    0    0  0.10657992861E+03  0.78535818637E+02  0.21005811959E+03  0.31387189998E+03  0.19200000000E+03 0.  0.
<mgrwt>
<rscale>  0 0.46711346E+03</rscale>
<asrwt>0</asrwt>
<pdfrwt beam="1">  1        2 0.14074072E-01 0.46711346E+03</pdfrwt>
<pdfrwt beam="2">  1       -2 0.79098624E-01 0.46711346E+03</pdfrwt>
<totfact> 0.61881724E+02</totfact>
</mgrwt>
</event>
<event>
 4    1  0.5863356E-005  0.5129902E+03  0.7818608E-02  0.1010443E+00
          2   -1    0    0  501    0  0.00000000000E+00  0.00000000000E+00  0.46195821576E+02  0.46195821647E+02  0.25500000000E-02 0.  1.
         -2   -1    0    0    0  501 -0.00000000000E+00 -0.00000000000E+00 -0.14241490773E+04  0.14241490773E+04  0.25500000000E-02 0. -1.
    5000001    1    1    2    0    0  0.24124505036E+02  0.14996795028E+03 -0.90826354657E+03  0.94068009859E+03  0.19200000000E+03 0.  0.
   -5000001    1    1    2    0    0 -0.24124505036E+02 -0.14996795028E+03 -0.46968970914E+03  0.52966480035E+03  0.19200000000E+03 0.  0.
<mgrwt>
<rscale>  0 0.51299020E+03</rscale>
<asrwt>0</asrwt>
<pdfrwt beam="1">  1        2 0.65994040E-02 0.51299020E+03</pdfrwt>
<pdfrwt beam="2">  1       -2 0.20344984E+00 0.51299020E+03</pdfrwt>
<totfact> 0.14824473E+02</totfact>
</mgrwt>
</event>
<event>
 4    1  0.5863356E-005  0.5864343E+03  0.7818608E-02  0.9933957E-01
          2   -1    0    0  501    0  0.00000000000E+00  0.00000000000E+00  0.91465530183E+03  0.91465530183E+03  0.25500000000E-02 0.  1.
         -2   -1    0    0    0  501 -0.00000000000E+00 -0.00000000000E+00 -0.93998580437E+02  0.93998580472E+02  0.25500000000E-02 0. -1.
    5000001    1    1    2    0    0  0.10436174867E+03  0.12328786031E+03  0.67129509938E+03  0.71665359941E+03  0.19200000000E+03 0.  0.
   -5000001    1    1    2    0    0 -0.10436174867E+03 -0.12328786031E+03  0.14936162201E+03  0.29200028290E+03  0.19200000000E+03 0.  0.
<mgrwt>
<rscale>  0 0.58643431E+03</rscale>
<asrwt>0</asrwt>
<pdfrwt beam="1">  1        2 0.13066504E+00 0.58643431E+03</pdfrwt>
<pdfrwt beam="2">  1       -2 0.13428369E-01 0.58643431E+03</pdfrwt>
<totfact> 0.13471163E+03</totfact>
</mgrwt>
</event>
<event>
 4    1  0.5863356E-005  0.6980204E+03  0.7818608E-02  0.9720623E-01
         -2   -1    0    0    0  501 -0.00000000000E+00  0.00000000000E+00  0.13060100642E+03  0.13060100645E+03  0.25500000000E-02 0. -1.
          2   -1    0    0  501    0  0.00000000000E+00 -0.00000000000E+00 -0.93267377886E+03  0.93267377886E+03  0.25500000000E-02 0.  1.
    5000001    1    1    2    0    0  0.19786318411E+03 -0.99437442304E+02 -0.68968125958E+03  0.74937432860E+03  0.19200000000E+03 0.  0.
   -5000001    1    1    2    0    0 -0.19786318411E+03  0.99437442304E+02 -0.11239151286E+03  0.31390045671E+03  0.19200000000E+03 0.  0.
<mgrwt>
<rscale>  0 0.69802044E+03</rscale>
<asrwt>0</asrwt>
<pdfrwt beam="1">  1        2 0.13323911E+00 0.69802044E+03</pdfrwt>
<pdfrwt beam="2">  1       -2 0.18657287E-01 0.69802044E+03</pdfrwt>
<totfact> 0.74905453E+02</totfact>
</mgrwt>
</event>
<event>
 4    1  0.5863356E-005  0.7502618E+03  0.7818608E-02  0.9634940E-01
         -2   -1    0    0    0  501 -0.00000000000E+00  0.00000000000E+00  0.84432639272E+02  0.84432639310E+02  0.25500000000E-02 0. -1.
          2   -1    0    0  501    0  0.00000000000E+00 -0.00000000000E+00 -0.16666917867E+04  0.16666917867E+04  0.25500000000E-02 0.  1.
    5000001    1    1    2    0    0 -0.19819584238E+03  0.10408227320E+03 -0.25003759969E+03  0.38664908223E+03  0.19200000000E+03 0.  0.
   -5000001    1    1    2    0    0  0.19819584238E+03 -0.10408227320E+03 -0.13322215478E+04  0.13644753438E+04  0.19200000000E+03 0.  0.
<mgrwt>
<rscale>  0 0.75026178E+03</rscale>
<asrwt>0</asrwt>
<pdfrwt beam="1">  1        2 0.23809881E+00 0.75026178E+03</pdfrwt>
<pdfrwt beam="2">  1       -2 0.12061807E-01 0.75026178E+03</pdfrwt>
<totfact> 0.61012178E+02</totfact>
</mgrwt>
</event>
<event>
 4    1  0.5863356E-005  0.5448963E+03  0.7818608E-02  0.1002682E+00
         -2   -1    0    0    0  501 -0.00000000000E+00  0.00000000000E+00  0.66546964459E+03  0.66546964460E+03  0.25500000000E-02 0. -1.
          2   -1    0    0  501    0  0.00000000000E+00 -0.00000000000E+00 -0.11154225590E+03  0.11154225593E+03  0.25500000000E-02 0.  1.
    5000001    1    1    2    0    0  0.16400645722E+03 -0.62571326661E+02  0.39237745076E+03  0.47078376437E+03  0.19200000000E+03 0.  0.
   -5000001    1    1    2    0    0 -0.16400645722E+03  0.62571326661E+02  0.16154993794E+03  0.30622813616E+03  0.19200000000E+03 0.  0.
<mgrwt>
<rscale>  0 0.54489627E+03</rscale>
<asrwt>0</asrwt>
<pdfrwt beam="1">  1        2 0.15934608E-01 0.54489627E+03</pdfrwt>
<pdfrwt beam="2">  1       -2 0.95067091E-01 0.54489627E+03</pdfrwt>
<totfact> 0.35054973E+02</totfact>
</mgrwt>
</event>
<event>
 4    1  0.5863356E-005  0.4583491E+03  0.7818608E-02  0.1025261E+00
         -2   -1    0    0    0  501 -0.00000000000E+00  0.00000000000E+00  0.18475079675E+02  0.18475079851E+02  0.25500000000E-02 0. -1.
          2   -1    0    0  501    0  0.00000000000E+00 -0.00000000000E+00 -0.28428014223E+04  0.28428014223E+04  0.25500000000E-02 0.  1.
    5000001    1    1    2    0    0 -0.44765119143E+02 -0.11255716567E+03 -0.16079801188E+04  0.16239264435E+04  0.19200000000E+03 0.  0.
   -5000001    1    1    2    0    0  0.44765119143E+02  0.11255716567E+03 -0.12163462237E+04  0.12373500586E+04  0.19200000000E+03 0.  0.
<mgrwt>
<rscale>  0 0.45834914E+03</rscale>
<asrwt>0</asrwt>
<pdfrwt beam="1">  1        2 0.40611421E+00 0.45834914E+03</pdfrwt>
<pdfrwt beam="2">  1       -2 0.26392989E-02 0.45834914E+03</pdfrwt>
<totfact> 0.16890656E+03</totfact>
</mgrwt>
</event>
<event>
 4    1  0.5863356E-005  0.5414271E+03  0.7818608E-02  0.1003498E+00
         -2   -1    0    0    0  501 -0.00000000000E+00  0.00000000000E+00  0.51904073734E+02  0.51904073796E+02  0.25500000000E-02 0. -1.
          2   -1    0    0  501    0  0.00000000000E+00 -0.00000000000E+00 -0.14119472899E+04  0.14119472899E+04  0.25500000000E-02 0.  1.
    5000001    1    1    2    0    0 -0.18294455391E+03  0.40457026593E+02 -0.77811512744E+03  0.82306295771E+03  0.19200000000E+03 0.  0.
   -5000001    1    1    2    0    0  0.18294455391E+03 -0.40457026593E+02 -0.58192808876E+03  0.64078840603E+03  0.19200000000E+03 0.  0.
<mgrwt>
<rscale>  0 0.54142706E+03</rscale>
<asrwt>0</asrwt>
<pdfrwt beam="1">  1        2 0.20170673E+00 0.54142706E+03</pdfrwt>
<pdfrwt beam="2">  1       -2 0.74148685E-02 0.54142706E+03</pdfrwt>
<totfact> 0.18330337E+03</totfact>
</mgrwt>
</event>
<event>
 4    1  0.5863356E-005  0.1500806E+04  0.7818608E-02  0.8883917E-01
         -2   -1    0    0    0  501 -0.00000000000E+00  0.00000000000E+00  0.31773193169E+03  0.31773193170E+03  0.25500000000E-02 0. -1.
          2   -1    0    0  501    0  0.00000000000E+00 -0.00000000000E+00 -0.17722644143E+04  0.17722644143E+04  0.25500000000E-02 0.  1.
    5000001    1    1    2    0    0 -0.36217293507E+02  0.71573953417E+03 -0.57066281714E+03  0.93601005549E+03  0.19200000000E+03 0.  0.
   -5000001    1    1    2    0    0  0.36217293507E+02 -0.71573953417E+03 -0.88386966542E+03  0.11539862905E+04  0.19200000000E+03 0.  0.
<mgrwt>
<rscale>  0 0.15008064E+04</rscale>
<asrwt>0</asrwt>
<pdfrwt beam="1">  1        2 0.25318063E+00 0.15008064E+04</pdfrwt>
<pdfrwt beam="2">  1       -2 0.45390277E-01 0.15008064E+04</pdfrwt>
<totfact> 0.46838248E+01</totfact>
</mgrwt>
</event>
<event>
 4    1  0.5863356E-005  0.5758381E+03  0.7818608E-02  0.9956842E-01
          2   -1    0    0  501    0  0.00000000000E+00  0.00000000000E+00  0.50562296439E+03  0.50562296440E+03  0.25500000000E-02 0.  1.
         -2   -1    0    0    0  501 -0.00000000000E+00 -0.00000000000E+00 -0.16395097621E+03  0.16395097623E+03  0.25500000000E-02 0. -1.
    5000001    1    1    2    0    0  0.79729097121E+02 -0.16770771524E+03  0.45866603219E+02  0.27101725400E+03  0.19200000000E+03 0.  0.
   -5000001    1    1    2    0    0 -0.79729097121E+02  0.16770771524E+03  0.29580538497E+03  0.39855668662E+03  0.19200000000E+03 0.  0.
<mgrwt>
<rscale>  0 0.57583810E+03</rscale>
<asrwt>0</asrwt>
<pdfrwt beam="1">  1        2 0.72231853E-01 0.57583810E+03</pdfrwt>
<pdfrwt beam="2">  1       -2 0.23421568E-01 0.57583810E+03</pdfrwt>
<totfact> 0.10700982E+03</totfact>
</mgrwt>
</event>
<event>
 4    1  0.5863356E-005  0.4907424E+03  0.7818608E-02  0.1016224E+00
          2   -1    0    0  501    0  0.00000000000E+00  0.00000000000E+00  0.39196299284E+04  0.39196299284E+04  0.25500000000E-02 0.  1.
         -2   -1    0    0    0  501 -0.00000000000E+00 -0.00000000000E+00 -0.15360387761E+02  0.15360387973E+02  0.25500000000E-02 0. -1.
    5000001    1    1    2    0    0  0.60026596130E+02 -0.13988843298E+03  0.18472585399E+04  0.18634377046E+04  0.19200000000E+03 0.  0.
   -5000001    1    1    2    0    0 -0.60026596130E+02  0.13988843298E+03  0.20570110008E+04  0.20715526117E+04  0.19200000000E+03 0.  0.
<mgrwt>
<rscale>  0 0.49074244E+03</rscale>
<asrwt>0</asrwt>
<pdfrwt beam="1">  1        2 0.55994688E+00 0.49074244E+03</pdfrwt>
<pdfrwt beam="2">  1       -2 0.21943421E-02 0.49074244E+03</pdfrwt>
<totfact> 0.52675343E+02</totfact>
</mgrwt>
</event>
<event>
 4    1  0.5863356E-005  0.5699556E+03  0.7818608E-02  0.9969777E-01
          2   -1    0    0  501    0  0.00000000000E+00  0.00000000000E+00  0.24670798103E+03  0.24670798104E+03  0.25500000000E-02 0.  1.
         -2   -1    0    0    0  501 -0.00000000000E+00 -0.00000000000E+00 -0.32918415930E+03  0.32918415931E+03  0.25500000000E-02 0. -1.
    5000001    1    1    2    0    0 -0.17440121511E+03  0.10652227989E+03 -0.92616306367E+02  0.29530418241E+03  0.19200000000E+03 0.  0.
   -5000001    1    1    2    0    0  0.17440121511E+03 -0.10652227989E+03  0.10140128093E+02  0.28058795794E+03  0.19200000000E+03 0.  0.
<mgrwt>
<rscale>  0 0.56995565E+03</rscale>
<asrwt>0</asrwt>
<pdfrwt beam="1">  1        2 0.35243997E-01 0.56995565E+03</pdfrwt>
<pdfrwt beam="2">  1       -2 0.47026309E-01 0.56995565E+03</pdfrwt>
<totfact> 0.64017577E+02</totfact>
</mgrwt>
</event>
<event>
 4    1  0.5863356E-005  0.4223924E+03  0.7818608E-02  0.1036290E+00
         -2   -1    0    0    0  501 -0.00000000000E+00  0.00000000000E+00  0.79195473784E+02  0.79195473825E+02  0.25500000000E-02 0. -1.
          2   -1    0    0  501    0  0.00000000000E+00 -0.00000000000E+00 -0.56321183578E+03  0.56321183578E+03  0.25500000000E-02 0.  1.
    5000001    1    1    2    0    0 -0.77263111370E+02  0.15697508900E+02 -0.18263881796E+03  0.27647230962E+03  0.19200000000E+03 0.  0.
   -5000001    1    1    2    0    0  0.77263111370E+02 -0.15697508900E+02 -0.30137754404E+03  0.36593499999E+03  0.19200000000E+03 0.  0.
<mgrwt>
<rscale>  0 0.42239237E+03</rscale>
<asrwt>0</asrwt>
<pdfrwt beam="1">  1        2 0.80458832E-01 0.42239237E+03</pdfrwt>
<pdfrwt beam="2">  1       -2 0.11313639E-01 0.42239237E+03</pdfrwt>
<totfact> 0.32413999E+03</totfact>
</mgrwt>
</event>
<event>
 4    1  0.5863356E-005  0.6030167E+03  0.7818608E-02  0.9899167E-01
         -2   -1    0    0    0  501 -0.00000000000E+00  0.00000000000E+00  0.58824698779E+02  0.58824698834E+02  0.25500000000E-02 0.  1.
          2   -1    0    0  501    0  0.00000000000E+00 -0.00000000000E+00 -0.15453928720E+04  0.15453928720E+04  0.25500000000E-02 0. -1.
    5000001    1    1    2    0    0  0.21900336532E+03 -0.23212333742E+02 -0.94133032130E+03  0.98563079307E+03  0.19200000000E+03 0.  0.
   -5000001    1    1    2    0    0 -0.21900336532E+03  0.23212333742E+02 -0.54523785196E+03  0.61858677780E+03  0.19200000000E+03 0.  0.
<mgrwt>
<rscale>  0 0.60301665E+03</rscale>
<asrwt>0</asrwt>
<pdfrwt beam="1">  1        2 0.22077038E+00 0.60301665E+03</pdfrwt>
<pdfrwt beam="2">  1       -2 0.84035294E-02 0.60301665E+03</pdfrwt>
<totfact> 0.12768580E+03</totfact>
</mgrwt>
</event>
<event>
 4    1  0.5863356E-005  0.1078357E+04  0.7818608E-02  0.9226547E-01
         -2   -1    0    0    0  501 -0.00000000000E+00  0.00000000000E+00  0.20682797104E+03  0.20682797106E+03  0.25500000000E-02 0. -1.
          2   -1    0    0  501    0  0.00000000000E+00 -0.00000000000E+00 -0.14055810499E+04  0.14055810499E+04  0.25500000000E-02 0.  1.
    5000001    1    1    2    0    0  0.20143864803E+03 -0.44428203689E+03 -0.78783341416E+03  0.94631366137E+03  0.19200000000E+03 0.  0.
   -5000001    1    1    2    0    0 -0.20143864803E+03  0.44428203689E+03 -0.41091966468E+03  0.66609535957E+03  0.19200000000E+03 0.  0.
<mgrwt>
<rscale>  0 0.10783570E+04</rscale>
<asrwt>0</asrwt>
<pdfrwt beam="1">  1        2 0.20079729E+00 0.10783570E+04</pdfrwt>
<pdfrwt beam="2">  1       -2 0.29546854E-01 0.10783570E+04</pdfrwt>
<totfact> 0.17196685E+02</totfact>
</mgrwt>
</event>
<event>
 4    1  0.5863356E-005  0.5819185E+03  0.7818608E-02  0.9943646E-01
         -2   -1    0    0    0  501 -0.00000000000E+00  0.00000000000E+00  0.26323941941E+02  0.26323942064E+02  0.25500000000E-02 0. -1.
          2   -1    0    0  501    0  0.00000000000E+00 -0.00000000000E+00 -0.32159805924E+04  0.32159805924E+04  0.25500000000E-02 0.  1.
    5000001    1    1    2    0    0 -0.11939623744E+03 -0.13636655654E+03 -0.22759047033E+04  0.22911694651E+04  0.19200000000E+03 0.  0.
   -5000001    1    1    2    0    0  0.11939623744E+03  0.13636655654E+03 -0.91375194715E+03  0.95113506937E+03  0.19200000000E+03 0.  0.
<mgrwt>
<rscale>  0 0.58191850E+03</rscale>
<asrwt>0</asrwt>
<pdfrwt beam="1">  1        2 0.45942555E+00 0.58191850E+03</pdfrwt>
<pdfrwt beam="2">  1       -2 0.37605652E-02 0.58191850E+03</pdfrwt>
<totfact> 0.61107813E+02</totfact>
</mgrwt>
</event>
<event>
 4    1  0.5863356E-005  0.5299830E+03  0.7818608E-02  0.1006236E+00
         -2   -1    0    0    0  501 -0.00000000000E+00  0.00000000000E+00  0.15606869475E+03  0.15606869477E+03  0.25500000000E-02 0. -1.
          2   -1    0    0  501    0  0.00000000000E+00 -0.00000000000E+00 -0.44993329307E+03  0.44993329308E+03  0.25500000000E-02 0.  1.
    5000001    1    1    2    0    0 -0.42798332801E+02  0.14292226270E+03 -0.26474461803E+02  0.24458815915E+03  0.19200000000E+03 0.  0.
   -5000001    1    1    2    0    0  0.42798332801E+02 -0.14292226270E+03 -0.26739013652E+03  0.36141382870E+03  0.19200000000E+03 0.  0.
<mgrwt>
<rscale>  0 0.52998303E+03</rscale>
<asrwt>0</asrwt>
<pdfrwt beam="1">  1        2 0.64276184E-01 0.52998303E+03</pdfrwt>
<pdfrwt beam="2">  1       -2 0.22295528E-01 0.52998303E+03</pdfrwt>
<totfact> 0.13320834E+03</totfact>
</mgrwt>
</event>
<event>
 4    1  0.5863356E-005  0.6317178E+03  0.7818608E-02  0.9841702E-01
         -2   -1    0    0    0  501 -0.00000000000E+00  0.00000000000E+00  0.36078344252E+02  0.36078344342E+02  0.25500000000E-02 0. -1.
          2   -1    0    0  501    0  0.00000000000E+00 -0.00000000000E+00 -0.27652832246E+04  0.27652832246E+04  0.25500000000E-02 0.  1.
    5000001    1    1    2    0    0 -0.19053701491E+03 -0.16092096821E+03 -0.12470310792E+04  0.12861377938E+04  0.19200000000E+03 0.  0.
   -5000001    1    1    2    0    0  0.19053701491E+03  0.16092096821E+03 -0.14821738012E+04  0.15152237752E+04  0.19200000000E+03 0.  0.
<mgrwt>
<rscale>  0 0.63171779E+03</rscale>
<asrwt>0</asrwt>
<pdfrwt beam="1">  1        2 0.39504033E+00 0.63171779E+03</pdfrwt>
<pdfrwt beam="2">  1       -2 0.51540509E-02 0.63171779E+03</pdfrwt>
<totfact> 0.65771107E+02</totfact>
</mgrwt>
</event>
<event>
 4    1  0.5863356E-005  0.5129641E+03  0.7818608E-02  0.1010449E+00
          2   -1    0    0  501    0  0.00000000000E+00  0.00000000000E+00  0.49860853702E+03  0.49860853703E+03  0.25500000000E-02 0.  1.
         -2   -1    0    0    0  501 -0.00000000000E+00 -0.00000000000E+00 -0.13193324046E+03  0.13193324049E+03  0.25500000000E-02 0. -1.
    5000001    1    1    2    0    0  0.89857687747E+02 -0.10432049125E+03  0.30602431288E+03  0.38661615204E+03  0.19200000000E+03 0.  0.
   -5000001    1    1    2    0    0 -0.89857687747E+02  0.10432049125E+03  0.60650983674E+02  0.24392562548E+03  0.19200000000E+03 0.  0.
<mgrwt>
<rscale>  0 0.51296409E+03</rscale>
<asrwt>0</asrwt>
<pdfrwt beam="1">  1        2 0.71229792E-01 0.51296409E+03</pdfrwt>
<pdfrwt beam="2">  1       -2 0.18847606E-01 0.51296409E+03</pdfrwt>
<totfact> 0.15902448E+03</totfact>
</mgrwt>
</event>
<event>
 4    1  0.5863356E-005  0.4864843E+03  0.7818608E-02  0.1017368E+00
         -2   -1    0    0    0  501 -0.00000000000E+00  0.00000000000E+00  0.31714553827E+03  0.31714553828E+03  0.25500000000E-02 0. -1.
          2   -1    0    0  501    0  0.00000000000E+00 -0.00000000000E+00 -0.18656026161E+03  0.18656026163E+03  0.25500000000E-02 0.  1.
    5000001    1    1    2    0    0  0.13707643258E+03  0.59010786408E+02  0.71013942769E+02  0.25333614300E+03  0.19200000000E+03 0.  0.
   -5000001    1    1    2    0    0 -0.13707643258E+03 -0.59010786408E+02  0.59571333889E+02  0.25036965692E+03  0.19200000000E+03 0.  0.
<mgrwt>
<rscale>  0 0.48648435E+03</rscale>
<asrwt>0</asrwt>
<pdfrwt beam="1">  1        2 0.26651466E-01 0.48648435E+03</pdfrwt>
<pdfrwt beam="2">  1       -2 0.45306505E-01 0.48648435E+03</pdfrwt>
<totfact> 0.94288409E+02</totfact>
</mgrwt>
</event>
<event>
 4    1  0.5863356E-005  0.5482226E+03  0.7818608E-02  0.1001906E+00
          2   -1    0    0  501    0  0.00000000000E+00  0.00000000000E+00  0.24550148065E+03  0.24550148067E+03  0.25500000000E-02 0.  1.
         -2   -1    0    0    0  501 -0.00000000000E+00 -0.00000000000E+00 -0.30605520859E+03  0.30605520861E+03  0.25500000000E-02 0. -1.
    5000001    1    1    2    0    0 -0.19187923771E+03 -0.94888875952E+01 -0.67451900113E+02  0.27985967856E+03  0.19200000000E+03 0.  0.
   -5000001    1    1    2    0    0  0.19187923771E+03  0.94888875952E+01  0.68981721717E+01  0.27169701072E+03  0.19200000000E+03 0.  0.
<mgrwt>
<rscale>  0 0.54822261E+03</rscale>
<asrwt>0</asrwt>
<pdfrwt beam="1">  1        2 0.35071640E-01 0.54822261E+03</pdfrwt>
<pdfrwt beam="2">  1       -2 0.43722172E-01 0.54822261E+03</pdfrwt>
<totfact> 0.74397107E+02</totfact>
</mgrwt>
</event>
<event>
 4    1  0.5863356E-005  0.6930415E+03  0.7818608E-02  0.9729207E-01
         -2   -1    0    0    0  501 -0.00000000000E+00  0.00000000000E+00  0.34853625647E+03  0.34853625648E+03  0.25500000000E-02 0. -1.
          2   -1    0    0  501    0  0.00000000000E+00 -0.00000000000E+00 -0.34451690824E+03  0.34451690825E+03  0.25500000000E-02 0.  1.
    5000001    1    1    2    0    0  0.53430240892E+02 -0.28099971875E+03  0.39386778169E+02  0.34674335015E+03  0.19200000000E+03 0.  0.
   -5000001    1    1    2    0    0 -0.53430240892E+02  0.28099971875E+03 -0.35367429943E+02  0.34630981458E+03  0.19200000000E+03 0.  0.
<mgrwt>
<rscale>  0 0.69304151E+03</rscale>
<asrwt>0</asrwt>
<pdfrwt beam="1">  1        2 0.49216702E-01 0.69304151E+03</pdfrwt>
<pdfrwt beam="2">  1       -2 0.49790893E-01 0.69304151E+03</pdfrwt>
<totfact> 0.39328828E+02</totfact>
</mgrwt>
</event>
<event>
 4    1  0.5863356E-005  0.4670269E+03  0.7818608E-02  0.1022763E+00
         -2   -1    0    0    0  501 -0.00000000000E+00  0.00000000000E+00  0.11695798531E+03  0.11695798534E+03  0.25500000000E-02 0. -1.
          2   -1    0    0  501    0  0.00000000000E+00 -0.00000000000E+00 -0.46622323566E+03  0.46622323566E+03  0.25500000000E-02 0.  1.
    5000001    1    1    2    0    0  0.86570932804E+02 -0.88305964917E+02 -0.11381569137E+03  0.25516755564E+03  0.19200000000E+03 0.  0.
   -5000001    1    1    2    0    0 -0.86570932804E+02  0.88305964917E+02 -0.23544955897E+03  0.32801366537E+03  0.19200000000E+03 0.  0.
<mgrwt>
<rscale>  0 0.46702690E+03</rscale>
<asrwt>0</asrwt>
<pdfrwt beam="1">  1        2 0.66603318E-01 0.46702690E+03</pdfrwt>
<pdfrwt beam="2">  1       -2 0.16708284E-01 0.46702690E+03</pdfrwt>
<totfact> 0.21057703E+03</totfact>
</mgrwt>
</event>
<event>
 4    1  0.5863356E-005  0.5306732E+03  0.7818608E-02  0.1006069E+00
          2   -1    0    0  501    0  0.00000000000E+00  0.00000000000E+00  0.42301946966E+03  0.42301946967E+03  0.25500000000E-02 0.  1.
         -2   -1    0    0    0  501 -0.00000000000E+00 -0.00000000000E+00 -0.16643091702E+03  0.16643091704E+03  0.25500000000E-02 0. -1.
    5000001    1    1    2    0    0  0.75321685879E+02 -0.33339183894E+02 -0.53391029379E+02  0.21563733342E+03  0.19200000000E+03 0.  0.
   -5000001    1    1    2    0    0 -0.75321685879E+02  0.33339183894E+02  0.30997958202E+03  0.37381305330E+03  0.19200000000E+03 0.  0.
<mgrwt>
<rscale>  0 0.53067323E+03</rscale>
<asrwt>0</asrwt>
<pdfrwt beam="1">  1        2 0.60431353E-01 0.53067323E+03</pdfrwt>
<pdfrwt beam="2">  1       -2 0.23775845E-01 0.53067323E+03</pdfrwt>
<totfact> 0.12734289E+03</totfact>
</mgrwt>
</event>
<event>
 4    1  0.5863356E-005  0.5898498E+03  0.7818608E-02  0.9926691E-01
         -2   -1    0    0    0  501 -0.00000000000E+00  0.00000000000E+00  0.38910620512E+03  0.38910620513E+03  0.25500000000E-02 0. -1.
          2   -1    0    0  501    0  0.00000000000E+00 -0.00000000000E+00 -0.22353971335E+03  0.22353971337E+03  0.25500000000E-02 0.  1.
    5000001    1    1    2    0    0  0.10082681930E+03 -0.19765975519E+03  0.11361661314E+03  0.31465562301E+03  0.19200000000E+03 0.  0.
   -5000001    1    1    2    0    0 -0.10082681930E+03  0.19765975519E+03  0.51949878629E+02  0.29799029548E+03  0.19200000000E+03 0.  0.
<mgrwt>
<rscale>  0 0.58984978E+03</rscale>
<asrwt>0</asrwt>
<pdfrwt beam="1">  1        2 0.31934245E-01 0.58984978E+03</pdfrwt>
<pdfrwt beam="2">  1       -2 0.55586600E-01 0.58984978E+03</pdfrwt>
<totfact> 0.50835825E+02</totfact>
</mgrwt>
</event>
<event>
 4    1  0.5863356E-005  0.4992555E+03  0.7818608E-02  0.1013973E+00
         -2   -1    0    0    0  501 -0.00000000000E+00  0.00000000000E+00  0.70814088106E+03  0.70814088106E+03  0.25500000000E-02 0. -1.
          2   -1    0    0  501    0  0.00000000000E+00 -0.00000000000E+00 -0.87996643786E+02  0.87996643823E+02  0.25500000000E-02 0.  1.
    5000001    1    1    2    0    0 -0.95713047508E+02  0.65627323505E+02  0.48462678373E+03  0.53403656482E+03  0.19200000000E+03 0.  0.
   -5000001    1    1    2    0    0  0.95713047508E+02 -0.65627323505E+02  0.13551745354E+03  0.26210096007E+03  0.19200000000E+03 0.  0.
<mgrwt>
<rscale>  0 0.49925553E+03</rscale>
<asrwt>0</asrwt>
<pdfrwt beam="1">  1        2 0.12570948E-01 0.49925553E+03</pdfrwt>
<pdfrwt beam="2">  1       -2 0.10116299E+00 0.49925553E+03</pdfrwt>
<totfact> 0.40468407E+02</totfact>
</mgrwt>
</event>
<event>
 4    1  0.5863356E-005  0.1189072E+04  0.7818608E-02  0.9122476E-01
          2   -1    0    0  501    0  0.00000000000E+00  0.00000000000E+00  0.66453437901E+03  0.66453437902E+03  0.25500000000E-02 0.  1.
         -2   -1    0    0    0  501 -0.00000000000E+00 -0.00000000000E+00 -0.53191074621E+03  0.53191074621E+03  0.25500000000E-02 0. -1.
    5000001    1    1    2    0    0  0.28121863134E+03  0.28573747557E+03  0.46357534856E+03  0.64225845837E+03  0.19200000000E+03 0.  0.
   -5000001    1    1    2    0    0 -0.28121863134E+03 -0.28573747557E+03 -0.33095171576E+03  0.55418666686E+03  0.19200000000E+03 0.  0.
<mgrwt>
<rscale>  0 0.11890719E+04</rscale>
<asrwt>0</asrwt>
<pdfrwt beam="1">  1        2 0.94933483E-01 0.11890719E+04</pdfrwt>
<pdfrwt beam="2">  1       -2 0.75987249E-01 0.11890719E+04</pdfrwt>
<totfact> 0.73579409E+01</totfact>
</mgrwt>
</event>
<event>
 4    1  0.5863356E-005  0.4139984E+03  0.7818608E-02  0.1039037E+00
         -2   -1    0    0    0  501 -0.00000000000E+00  0.00000000000E+00  0.15615224732E+03  0.15615224734E+03  0.25500000000E-02 0. -1.
          2   -1    0    0  501    0  0.00000000000E+00 -0.00000000000E+00 -0.27440319115E+03  0.27440319116E+03  0.25500000000E-02 0.  1.
    5000001    1    1    2    0    0  0.75485739757E+02 -0.12175943806E+02 -0.46893967388E+02  0.21191836799E+03  0.19200000000E+03 0.  0.
   -5000001    1    1    2    0    0 -0.75485739757E+02  0.12175943806E+02 -0.71356976442E+02  0.21863707051E+03  0.19200000000E+03 0.  0.
<mgrwt>
<rscale>  0 0.41399843E+03</rscale>
<asrwt>0</asrwt>
<pdfrwt beam="1">  1        2 0.39200456E-01 0.41399843E+03</pdfrwt>
<pdfrwt beam="2">  1       -2 0.22307464E-01 0.41399843E+03</pdfrwt>
<totfact> 0.22885771E+03</totfact>
</mgrwt>
</event>
<event>
 4    1  0.5863356E-005  0.6888501E+03  0.7818608E-02  0.9736492E-01
          2   -1    0    0  501    0  0.00000000000E+00  0.00000000000E+00  0.34085679224E+03  0.34085679225E+03  0.25500000000E-02 0.  1.
         -2   -1    0    0    0  501 -0.00000000000E+00 -0.00000000000E+00 -0.34803062757E+03  0.34803062758E+03  0.25500000000E-02 0. -1.
    5000001    1    1    2    0    0  0.31417779972E+02 -0.28126446939E+03 -0.44428141536E+02  0.34486901630E+03  0.19200000000E+03 0.  0.
   -5000001    1    1    2    0    0 -0.31417779972E+02  0.28126446939E+03  0.37254306206E+02  0.34401840354E+03  0.19200000000E+03 0.  0.
<mgrwt>
<rscale>  0 0.68885007E+03</rscale>
<asrwt>0</asrwt>
<pdfrwt beam="1">  1        2 0.48693827E-01 0.68885007E+03</pdfrwt>
<pdfrwt beam="2">  1       -2 0.49718661E-01 0.68885007E+03</pdfrwt>
<totfact> 0.39918978E+02</totfact>
</mgrwt>
</event>
<event>
 4    1  0.5863356E-005  0.1294435E+04  0.7818608E-02  0.9033990E-01
         -2   -1    0    0    0  501 -0.00000000000E+00  0.00000000000E+00  0.11929689446E+03  0.11929689448E+03  0.25500000000E-02 0. -1.
          2   -1    0    0  501    0  0.00000000000E+00 -0.00000000000E+00 -0.35113251476E+04  0.35113251476E+04  0.25500000000E-02 0.  1.
    5000001    1    1    2    0    0  0.48984572775E+03 -0.90229317702E+02 -0.66953612949E+03  0.85629013510E+03  0.19200000000E+03 0.  0.
   -5000001    1    1    2    0    0 -0.48984572775E+03  0.90229317702E+02 -0.27224921236E+04  0.27743319070E+04  0.19200000000E+03 0.  0.
<mgrwt>
<rscale>  0 0.12944345E+04</rscale>
<asrwt>0</asrwt>
<pdfrwt beam="1">  1        2 0.50161782E+00 0.12944345E+04</pdfrwt>
<pdfrwt beam="2">  1       -2 0.17042416E-01 0.12944345E+04</pdfrwt>
<totfact> 0.33338399E+01</totfact>
</mgrwt>
</event>
<event>
 4    1  0.5863356E-005  0.4443735E+03  0.7818608E-02  0.1029413E+00
          2   -1    0    0  501    0  0.00000000000E+00  0.00000000000E+00  0.62494046927E+03  0.62494046928E+03  0.25500000000E-02 0.  1.
         -2   -1    0    0    0  501 -0.00000000000E+00 -0.00000000000E+00 -0.78994632492E+02  0.78994632533E+02  0.25500000000E-02 0. -1.
    5000001    1    1    2    0    0 -0.87532213554E+02  0.69576381423E+02  0.27229812974E+03  0.35144420997E+03  0.19200000000E+03 0.  0.
   -5000001    1    1    2    0    0  0.87532213554E+02 -0.69576381423E+02  0.27364770703E+03  0.35249089184E+03  0.19200000000E+03 0.  0.
<mgrwt>
<rscale>  0 0.44437346E+03</rscale>
<asrwt>0</asrwt>
<pdfrwt beam="1">  1        2 0.89277209E-01 0.44437346E+03</pdfrwt>
<pdfrwt beam="2">  1       -2 0.11284948E-01 0.44437346E+03</pdfrwt>
<totfact> 0.28865553E+03</totfact>
</mgrwt>
</event>
<event>
 4    1  0.5863356E-005  0.1494803E+04  0.7818608E-02  0.8887916E-01
         -2   -1    0    0    0  501 -0.00000000000E+00  0.00000000000E+00  0.34305341273E+03  0.34305341274E+03  0.25500000000E-02 0. -1.
          2   -1    0    0  501    0  0.00000000000E+00 -0.00000000000E+00 -0.16283441110E+04  0.16283441110E+04  0.25500000000E-02 0.  1.
    5000001    1    1    2    0    0 -0.51361353821E+03  0.41074120637E+03 -0.10366167262E+04  0.12425560117E+04  0.19200000000E+03 0.  0.
   -5000001    1    1    2    0    0  0.51361353821E+03 -0.41074120637E+03 -0.24867397207E+03  0.72884151201E+03  0.19200000000E+03 0.  0.
<mgrwt>
<rscale>  0 0.14948030E+04</rscale>
<asrwt>0</asrwt>
<pdfrwt beam="1">  1        2 0.23262058E+00 0.14948030E+04</pdfrwt>
<pdfrwt beam="2">  1       -2 0.49007631E-01 0.14948030E+04</pdfrwt>
<totfact> 0.47703038E+01</totfact>
</mgrwt>
</event>
<event>
 4    1  0.5863356E-005  0.6012444E+03  0.7818608E-02  0.9902828E-01
         -2   -1    0    0    0  501 -0.00000000000E+00  0.00000000000E+00  0.85015702358E+02  0.85015702396E+02  0.25500000000E-02 0. -1.
          2   -1    0    0  501    0  0.00000000000E+00 -0.00000000000E+00 -0.10630236713E+04  0.10630236713E+04  0.25500000000E-02 0.  1.
    5000001    1    1    2    0    0 -0.10188603760E+02  0.19704648756E+03 -0.25845493777E+03  0.37761631422E+03  0.19200000000E+03 0.  0.
   -5000001    1    1    2    0    0  0.10188603760E+02 -0.19704648756E+03 -0.71955303120E+03  0.77042305951E+03  0.19200000000E+03 0.  0.
<mgrwt>
<rscale>  0 0.60124439E+03</rscale>
<asrwt>0</asrwt>
<pdfrwt beam="1">  1        2 0.15186052E+00 0.60124439E+03</pdfrwt>
<pdfrwt beam="2">  1       -2 0.12145101E-01 0.60124439E+03</pdfrwt>
<totfact> 0.12896537E+03</totfact>
</mgrwt>
</event>
<event>
 4    1  0.5863356E-005  0.8930275E+03  0.7818608E-02  0.9434340E-01
          2   -1    0    0  501    0  0.00000000000E+00  0.00000000000E+00  0.62889633834E+03  0.62889633834E+03  0.25500000000E-02 0.  1.
         -2   -1    0    0    0  501 -0.00000000000E+00 -0.00000000000E+00 -0.31702289313E+03  0.31702289314E+03  0.25500000000E-02 0. -1.
    5000001    1    1    2    0    0 -0.34235561074E+03 -0.13667781380E+03 -0.16890594982E+02  0.41597774121E+03  0.19200000000E+03 0.  0.
   -5000001    1    1    2    0    0  0.34235561074E+03  0.13667781380E+03  0.32876404019E+03  0.52994149027E+03  0.19200000000E+03 0.  0.
<mgrwt>
<rscale>  0 0.89302752E+03</rscale>
<asrwt>0</asrwt>
<pdfrwt beam="1">  1        2 0.89842335E-01 0.89302752E+03</pdfrwt>
<pdfrwt beam="2">  1       -2 0.45288984E-01 0.89302752E+03</pdfrwt>
<totfact> 0.23773764E+02</totfact>
</mgrwt>
</event>
<event>
 4    1  0.5863356E-005  0.5621928E+03  0.7818608E-02  0.9987105E-01
         -2   -1    0    0    0  501 -0.00000000000E+00  0.00000000000E+00  0.51097805805E+03  0.51097805806E+03  0.25500000000E-02 0. -1.
          2   -1    0    0  501    0  0.00000000000E+00 -0.00000000000E+00 -0.15463520025E+03  0.15463520028E+03  0.25500000000E-02 0.  1.
    5000001    1    1    2    0    0 -0.90011458627E+02  0.18271808988E+03  0.14768060458E+03  0.31648305487E+03  0.19200000000E+03 0.  0.
   -5000001    1    1    2    0    0  0.90011458627E+02 -0.18271808988E+03  0.20866225322E+03  0.34913020346E+03  0.19200000000E+03 0.  0.
<mgrwt>
<rscale>  0 0.56219283E+03</rscale>
<asrwt>0</asrwt>
<pdfrwt beam="1">  1        2 0.22090743E-01 0.56219283E+03</pdfrwt>
<pdfrwt beam="2">  1       -2 0.72996865E-01 0.56219283E+03</pdfrwt>
<totfact> 0.43278981E+02</totfact>
</mgrwt>
</event>
<event>
 4    1  0.5863356E-005  0.4432235E+03  0.7818608E-02  0.1029762E+00
          2   -1    0    0  501    0  0.00000000000E+00  0.00000000000E+00  0.80348735257E+03  0.80348735258E+03  0.25500000000E-02 0.  1.
         -2   -1    0    0    0  501 -0.00000000000E+00 -0.00000000000E+00 -0.61123248424E+02  0.61123248477E+02  0.25500000000E-02 0. -1.
    5000001    1    1    2    0    0 -0.10972430104E+03  0.14359903826E+02  0.36833638539E+03  0.42986198003E+03  0.19200000000E+03 0.  0.
   -5000001    1    1    2    0    0  0.10972430104E+03 -0.14359903826E+02  0.37402771876E+03  0.43474862102E+03  0.19200000000E+03 0.  0.
<mgrwt>
<rscale>  0 0.44322345E+03</rscale>
<asrwt>0</asrwt>
<pdfrwt beam="1">  1        2 0.11478390E+00 0.44322345E+03</pdfrwt>
<pdfrwt beam="2">  1       -2 0.87318932E-02 0.44322345E+03</pdfrwt>
<totfact> 0.32121886E+03</totfact>
</mgrwt>
</event>
<event>
 4    1  0.5863356E-005  0.5964722E+03  0.7818608E-02  0.9912752E-01
         -2   -1    0    0    0  501 -0.00000000000E+00  0.00000000000E+00  0.76005854950E+02  0.76005854993E+02  0.25500000000E-02 0. -1.
          2   -1    0    0  501    0  0.00000000000E+00 -0.00000000000E+00 -0.11702359647E+04  0.11702359647E+04  0.25500000000E-02 0.  1.
    5000001    1    1    2    0    0  0.10979677190E+03  0.11870539434E+03 -0.21064154410E+03  0.32768912382E+03  0.19200000000E+03 0.  0.
   -5000001    1    1    2    0    0 -0.10979677190E+03 -0.11870539434E+03 -0.88358856564E+03  0.91855269587E+03  0.19200000000E+03 0.  0.
<mgrwt>
<rscale>  0 0.59647225E+03</rscale>
<asrwt>0</asrwt>
<pdfrwt beam="1">  1        2 0.16717656E+00 0.59647225E+03</pdfrwt>
<pdfrwt beam="2">  1       -2 0.10857980E-01 0.59647225E+03</pdfrwt>
<totfact> 0.13437563E+03</totfact>
</mgrwt>
</event>
<event>
 4    1  0.5863356E-005  0.7012147E+03  0.7818608E-02  0.9715157E-01
         -2   -1    0    0    0  501 -0.00000000000E+00  0.00000000000E+00  0.55156344747E+02  0.55156344806E+02  0.25500000000E-02 0. -1.
          2   -1    0    0  501    0  0.00000000000E+00 -0.00000000000E+00 -0.22286738375E+04  0.22286738375E+04  0.25500000000E-02 0.  1.
    5000001    1    1    2    0    0 -0.12930555315E+03  0.25337452765E+03 -0.13203292095E+04  0.13642037234E+04  0.19200000000E+03 0.  0.
   -5000001    1    1    2    0    0  0.12930555315E+03 -0.25337452765E+03 -0.85318828321E+03  0.91962645891E+03  0.19200000000E+03 0.  0.
<mgrwt>
<rscale>  0 0.70121467E+03</rscale>
<asrwt>0</asrwt>
<pdfrwt beam="1">  1        2 0.31838192E+00 0.70121467E+03</pdfrwt>
<pdfrwt beam="2">  1       -2 0.78794792E-02 0.70121467E+03</pdfrwt>
<totfact> 0.63386870E+02</totfact>
</mgrwt>
</event>
<event>
 4    1  0.5863356E-005  0.1052042E+04  0.7818608E-02  0.9253239E-01
         -2   -1    0    0    0  501 -0.00000000000E+00  0.00000000000E+00  0.13572493082E+04  0.13572493082E+04  0.25500000000E-02 0. -1.
          2   -1    0    0  501    0  0.00000000000E+00 -0.00000000000E+00 -0.20386671401E+03  0.20386671402E+03  0.25500000000E-02 0.  1.
    5000001    1    1    2    0    0 -0.27479276283E+03  0.18003030965E+03  0.11156361539E+04  0.11787408548E+04  0.19200000000E+03 0.  0.
   -5000001    1    1    2    0    0  0.27479276283E+03 -0.18003030965E+03  0.37746440281E+02  0.38237516741E+03  0.19200000000E+03 0.  0.
<mgrwt>
<rscale>  0 0.10520417E+04</rscale>
<asrwt>0</asrwt>
<pdfrwt beam="1">  1        2 0.29123816E-01 0.10520417E+04</pdfrwt>
<pdfrwt beam="2">  1       -2 0.19389276E+00 0.10520417E+04</pdfrwt>
<totfact> 0.26788644E+01</totfact>
</mgrwt>
</event>
<event>
 4    1  0.5863356E-005  0.8304427E+03  0.7818608E-02  0.9516969E-01
          2   -1    0    0  501    0  0.00000000000E+00  0.00000000000E+00  0.36982962355E+03  0.36982962355E+03  0.25500000000E-02 0.  1.
         -2   -1    0    0    0  501 -0.00000000000E+00 -0.00000000000E+00 -0.46618427151E+03  0.46618427152E+03  0.25500000000E-02 0. -1.
    5000001    1    1    2    0    0 -0.16824329370E+03 -0.30480739128E+03 -0.16869428805E+03  0.43189711098E+03  0.19200000000E+03 0.  0.
   -5000001    1    1    2    0    0  0.16824329370E+03  0.30480739128E+03  0.72339640079E+02  0.40411678409E+03  0.19200000000E+03 0.  0.
<mgrwt>
<rscale>  0 0.83044266E+03</rscale>
<asrwt>0</asrwt>
<pdfrwt beam="1">  1        2 0.52832804E-01 0.83044266E+03</pdfrwt>
<pdfrwt beam="2">  1       -2 0.66597753E-01 0.83044266E+03</pdfrwt>
<totfact> 0.19686603E+02</totfact>
</mgrwt>
</event>
<event>
 4    1  0.5863356E-005  0.5052413E+03  0.7818608E-02  0.1012420E+00
          2   -1    0    0  501    0  0.00000000000E+00  0.00000000000E+00  0.46782991555E+03  0.46782991555E+03  0.25500000000E-02 0.  1.
         -2   -1    0    0    0  501 -0.00000000000E+00 -0.00000000000E+00 -0.13641108405E+03  0.13641108408E+03  0.25500000000E-02 0. -1.
    5000001    1    1    2    0    0  0.31183823292E+02 -0.35227559455E+02  0.35381826862E+03  0.40529591534E+03  0.19200000000E+03 0.  0.
   -5000001    1    1    2    0    0 -0.31183823292E+02  0.35227559455E+02 -0.22399437130E+02  0.19894508429E+03  0.19200000000E+03 0.  0.
<mgrwt>
<rscale>  0 0.50524127E+03</rscale>
<asrwt>0</asrwt>
<pdfrwt beam="1">  1        2 0.66832845E-01 0.50524127E+03</pdfrwt>
<pdfrwt beam="2">  1       -2 0.19487298E-01 0.50524127E+03</pdfrwt>
<totfact> 0.16128669E+03</totfact>
</mgrwt>
</event>
<event>
 4    1  0.5863356E-005  0.6106052E+03  0.7818608E-02  0.9883645E-01
          2   -1    0    0  501    0  0.00000000000E+00  0.00000000000E+00  0.15718074314E+04  0.15718074314E+04  0.25500000000E-02 0.  1.
         -2   -1    0    0    0  501 -0.00000000000E+00 -0.00000000000E+00 -0.59300958204E+02  0.59300958259E+02  0.25500000000E-02 0. -1.
    5000001    1    1    2    0    0  0.22019254674E+03  0.17043568894E+02  0.98867834030E+03  0.10310790956E+04  0.19200000000E+03 0.  0.
   -5000001    1    1    2    0    0 -0.22019254674E+03 -0.17043568894E+02  0.52382813294E+03  0.60002929407E+03  0.19200000000E+03 0.  0.
<mgrwt>
<rscale>  0 0.61060523E+03</rscale>
<asrwt>0</asrwt>
<pdfrwt beam="1">  1        2 0.22454393E+00 0.61060523E+03</pdfrwt>
<pdfrwt beam="2">  1       -2 0.84715652E-02 0.61060523E+03</pdfrwt>
<totfact> 0.12211147E+03</totfact>
</mgrwt>
</event>
<event>
 4    1  0.5863356E-005  0.4812109E+03  0.7818608E-02  0.1018803E+00
          2   -1    0    0  501    0  0.00000000000E+00  0.00000000000E+00  0.48864298252E+02  0.48864298319E+02  0.25500000000E-02 0.  1.
         -2   -1    0    0    0  501 -0.00000000000E+00 -0.00000000000E+00 -0.11847297740E+04  0.11847297740E+04  0.25500000000E-02 0. -1.
    5000001    1    1    2    0    0  0.12178402662E+03  0.77685613289E+02 -0.60041825927E+03  0.64670896833E+03  0.19200000000E+03 0.  0.
   -5000001    1    1    2    0    0 -0.12178402662E+03 -0.77685613289E+02 -0.53544721646E+03  0.58688510398E+03  0.19200000000E+03 0.  0.
<mgrwt>
<rscale>  0 0.48121093E+03</rscale>
<asrwt>0</asrwt>
<pdfrwt beam="1">  1        2 0.69806148E-02 0.48121093E+03</pdfrwt>
<pdfrwt beam="2">  1       -2 0.16924709E+00 0.48121093E+03</pdfrwt>
<totfact> 0.23325919E+02</totfact>
</mgrwt>
</event>
<event>
 4    1  0.5863356E-005  0.6346958E+03  0.7818608E-02  0.9835928E-01
          2   -1    0    0  501    0  0.00000000000E+00  0.00000000000E+00  0.65431106803E+02  0.65431106853E+02  0.25500000000E-02 0.  1.
         -2   -1    0    0    0  501 -0.00000000000E+00 -0.00000000000E+00 -0.15391711918E+04  0.15391711918E+04  0.25500000000E-02 0. -1.
    5000001    1    1    2    0    0 -0.23738184920E+03  0.63790115143E+02 -0.88485511355E+03  0.93821740183E+03  0.19200000000E+03 0.  0.
   -5000001    1    1    2    0    0  0.23738184920E+03 -0.63790115143E+02 -0.58888497142E+03  0.66638489680E+03  0.19200000000E+03 0.  0.
<mgrwt>
<rscale>  0 0.63469575E+03</rscale>
<asrwt>0</asrwt>
<pdfrwt beam="1">  1        2 0.93473019E-02 0.63469575E+03</pdfrwt>
<pdfrwt beam="2">  1       -2 0.21988158E+00 0.63469575E+03</pdfrwt>
<totfact> 0.73794214E+01</totfact>
</mgrwt>
</event>
<event>
 4    1  0.5863356E-005  0.5161377E+03  0.7818608E-02  0.1009651E+00
          2   -1    0    0  501    0  0.00000000000E+00  0.00000000000E+00  0.27499998064E+03  0.27499998065E+03  0.25500000000E-02 0. -1.
         -2   -1    0    0    0  501 -0.00000000000E+00 -0.00000000000E+00 -0.24218014403E+03  0.24218014405E+03  0.25500000000E-02 0.  1.
    5000001    1    1    2    0    0 -0.48541955132E+02 -0.11685718847E+03 -0.10097449473E+03  0.25114094149E+03  0.19200000000E+03 0.  0.
   -5000001    1    1    2    0    0  0.48541955132E+02  0.11685718847E+03  0.13379433133E+03  0.26603918321E+03  0.19200000000E+03 0.  0.
<mgrwt>
<rscale>  0 0.51613771E+03</rscale>
<asrwt>0</asrwt>
<pdfrwt beam="1">  1        2 0.39285712E-01 0.51613771E+03</pdfrwt>
<pdfrwt beam="2">  1       -2 0.34597163E-01 0.51613771E+03</pdfrwt>
<totfact> 0.10304609E+03</totfact>
</mgrwt>
</event>
<event>
 4    1  0.5863356E-005  0.6679085E+03  0.7818608E-02  0.9773744E-01
          2   -1    0    0  501    0  0.00000000000E+00  0.00000000000E+00  0.89874829797E+03  0.89874829797E+03  0.25500000000E-02 0.  1.
         -2   -1    0    0    0  501 -0.00000000000E+00 -0.00000000000E+00 -0.12408973597E+03  0.12408973600E+03  0.25500000000E-02 0. -1.
    5000001    1    1    2    0    0 -0.24753650744E+03  0.48349508430E+02  0.54830488620E+03  0.63333580802E+03  0.19200000000E+03 0.  0.
   -5000001    1    1    2    0    0  0.24753650744E+03 -0.48349508430E+02  0.22635367579E+03  0.38950222596E+03  0.19200000000E+03 0.  0.
<mgrwt>
<rscale>  0 0.66790849E+03</rscale>
<asrwt>0</asrwt>
<pdfrwt beam="1">  1        2 0.12839261E+00 0.66790849E+03</pdfrwt>
<pdfrwt beam="2">  1       -2 0.17727106E-01 0.66790849E+03</pdfrwt>
<totfact> 0.86094599E+02</totfact>
</mgrwt>
</event>
<event>
 4    1  0.5863356E-005  0.9765503E+03  0.7818608E-02  0.9334645E-01
          2   -1    0    0  501    0  0.00000000000E+00  0.00000000000E+00  0.63510163766E+03  0.63510163766E+03  0.25500000000E-02 0.  1.
         -2   -1    0    0    0  501 -0.00000000000E+00 -0.00000000000E+00 -0.37539284335E+03  0.37539284335E+03  0.25500000000E-02 0. -1.
    5000001    1    1    2    0    0 -0.21532222726E+03 -0.39268531172E+03  0.97408562812E+02  0.49690828500E+03  0.19200000000E+03 0.  0.
   -5000001    1    1    2    0    0  0.21532222726E+03  0.39268531172E+03  0.16230023150E+03  0.51358619602E+03  0.19200000000E+03 0.  0.
<mgrwt>
<rscale>  0 0.97655027E+03</rscale>
<asrwt>0</asrwt>
<pdfrwt beam="1">  1        2 0.90728805E-01 0.97655027E+03</pdfrwt>
<pdfrwt beam="2">  1       -2 0.53627550E-01 0.97655027E+03</pdfrwt>
<totfact> 0.16602496E+02</totfact>
</mgrwt>
</event>
<event>
 4    1  0.5863356E-005  0.4883850E+03  0.7818608E-02  0.1016856E+00
          2   -1    0    0  501    0  0.00000000000E+00  0.00000000000E+00  0.12666275153E+03  0.12666275155E+03  0.25500000000E-02 0.  1.
         -2   -1    0    0    0  501 -0.00000000000E+00 -0.00000000000E+00 -0.47077753021E+03  0.47077753022E+03  0.25500000000E-02 0. -1.
    5000001    1    1    2    0    0  0.48728698619E+01  0.14884515435E+03 -0.14241033173E+03  0.28164397281E+03  0.19200000000E+03 0.  0.
   -5000001    1    1    2    0    0 -0.48728698619E+01 -0.14884515435E+03 -0.20170444696E+03  0.31579630897E+03  0.19200000000E+03 0.  0.
<mgrwt>
<rscale>  0 0.48838500E+03</rscale>
<asrwt>0</asrwt>
<pdfrwt beam="1">  1        2 0.18094679E-01 0.48838500E+03</pdfrwt>
<pdfrwt beam="2">  1       -2 0.67253932E-01 0.48838500E+03</pdfrwt>
<totfact> 0.65302587E+02</totfact>
</mgrwt>
</event>
<event>
 4    1  0.5863356E-005  0.5391386E+03  0.7818608E-02  0.1004040E+00
          2   -1    0    0  501    0  0.00000000000E+00  0.00000000000E+00  0.83612294845E+03  0.83612294846E+03  0.25500000000E-02 0.  1.
         -2   -1    0    0    0  501 -0.00000000000E+00 -0.00000000000E+00 -0.86910204135E+02  0.86910204172E+02  0.25500000000E-02 0. -1.
    5000001    1    1    2    0    0  0.12384635631E+03  0.66355872310E+01  0.61926606325E+03  0.66010333136E+03  0.19200000000E+03 0.  0.
   -5000001    1    1    2    0    0 -0.12384635631E+03 -0.66355872310E+01  0.12994668107E+03  0.26292982127E+03  0.19200000000E+03 0.  0.
<mgrwt>
<rscale>  0 0.53913863E+03</rscale>
<asrwt>0</asrwt>
<pdfrwt beam="1">  1        2 0.11944613E+00 0.53913863E+03</pdfrwt>
<pdfrwt beam="2">  1       -2 0.12415744E-01 0.53913863E+03</pdfrwt>
<totfact> 0.17275872E+03</totfact>
</mgrwt>
</event>
<event>
 4    1  0.5863356E-005  0.6704775E+03  0.7818608E-02  0.9769096E-01
          2   -1    0    0  501    0  0.00000000000E+00  0.00000000000E+00  0.31061670391E+03  0.31061670392E+03  0.25500000000E-02 0.  1.
         -2   -1    0    0    0  501 -0.00000000000E+00 -0.00000000000E+00 -0.36181250656E+03  0.36181250657E+03  0.25500000000E-02 0. -1.
    5000001    1    1    2    0    0  0.24917444221E+03 -0.11344440221E+03 -0.17912116700E+01  0.33440206860E+03  0.19200000000E+03 0.  0.
   -5000001    1    1    2    0    0 -0.24917444221E+03  0.11344440221E+03 -0.49404590979E+02  0.33802714189E+03  0.19200000000E+03 0.  0.
<mgrwt>
<rscale>  0 0.67047747E+03</rscale>
<asrwt>0</asrwt>
<pdfrwt beam="1">  1        2 0.44373815E-01 0.67047747E+03</pdfrwt>
<pdfrwt beam="2">  1       -2 0.51687501E-01 0.67047747E+03</pdfrwt>
<totfact> 0.40899417E+02</totfact>
</mgrwt>
</event>
<event>
 4    1  0.5863356E-005  0.7146335E+03  0.7818608E-02  0.9692529E-01
          2   -1    0    0  501    0  0.00000000000E+00  0.00000000000E+00  0.21596108266E+04  0.21596108266E+04  0.25500000000E-02 0.  1.
         -2   -1    0    0    0  501 -0.00000000000E+00 -0.00000000000E+00 -0.59119565420E+02  0.59119565475E+02  0.25500000000E-02 0. -1.
    5000001    1    1    2    0    0 -0.27416155535E+03  0.49369946286E+02  0.69341581721E+03  0.77155132401E+03  0.19200000000E+03 0.  0.
   -5000001    1    1    2    0    0  0.27416155535E+03 -0.49369946286E+02  0.14070754440E+04  0.14471790681E+04  0.19200000000E+03 0.  0.
<mgrwt>
<rscale>  0 0.71463348E+03</rscale>
<asrwt>0</asrwt>
<pdfrwt beam="1">  1        2 0.30851584E+00 0.71463348E+03</pdfrwt>
<pdfrwt beam="2">  1       -2 0.84456520E-02 0.71463348E+03</pdfrwt>
<totfact> 0.61421538E+02</totfact>
</mgrwt>
</event>
<event>
 4    1  0.5863356E-005  0.6455165E+03  0.7818608E-02  0.9815229E-01
          2   -1    0    0  501    0  0.00000000000E+00  0.00000000000E+00  0.14726764961E+04  0.14726764961E+04  0.25500000000E-02 0.  1.
         -2   -1    0    0    0  501 -0.00000000000E+00 -0.00000000000E+00 -0.70737111005E+02  0.70737111051E+02  0.25500000000E-02 0. -1.
    5000001    1    1    2    0    0  0.12937139393E+03  0.21603754510E+03  0.85028032061E+03  0.90733114246E+03  0.19200000000E+03 0.  0.
   -5000001    1    1    2    0    0 -0.12937139393E+03 -0.21603754510E+03  0.55165906445E+03  0.63608246466E+03  0.19200000000E+03 0.  0.
<mgrwt>
<rscale>  0 0.64551648E+03</rscale>
<asrwt>0</asrwt>
<pdfrwt beam="1">  1        2 0.21038233E+00 0.64551648E+03</pdfrwt>
<pdfrwt beam="2">  1       -2 0.10105303E-01 0.64551648E+03</pdfrwt>
<totfact> 0.10333128E+03</totfact>
</mgrwt>
</event>
<event>
 4    1  0.5863356E-005  0.5783465E+03  0.7818608E-02  0.9951377E-01
         -2   -1    0    0    0  501 -0.00000000000E+00  0.00000000000E+00  0.19570031100E+03  0.19570031102E+03  0.25500000000E-02 0. -1.
          2   -1    0    0  501    0  0.00000000000E+00 -0.00000000000E+00 -0.42729188959E+03  0.42729188960E+03  0.25500000000E-02 0.  1.
    5000001    1    1    2    0    0  0.29672446649E+02  0.20897260993E+03 -0.16640277216E+03  0.33030877732E+03  0.19200000000E+03 0.  0.
   -5000001    1    1    2    0    0 -0.29672446649E+02 -0.20897260993E+03 -0.65188806430E+02  0.29268342330E+03  0.19200000000E+03 0.  0.
<mgrwt>
<rscale>  0 0.57834646E+03</rscale>
<asrwt>0</asrwt>
<pdfrwt beam="1">  1        2 0.61041699E-01 0.57834646E+03</pdfrwt>
<pdfrwt beam="2">  1       -2 0.27957187E-01 0.57834646E+03</pdfrwt>
<totfact> 0.94038823E+02</totfact>
</mgrwt>
</event>
<event>
 4    1  0.5863356E-005  0.1039012E+04  0.7818608E-02  0.9266762E-01
         -2   -1    0    0    0  501 -0.00000000000E+00  0.00000000000E+00  0.73408962630E+02  0.73408962674E+02  0.25500000000E-02 0. -1.
          2   -1    0    0  501    0  0.00000000000E+00 -0.00000000000E+00 -0.36764805096E+04  0.36764805096E+04  0.25500000000E-02 0.  1.
    5000001    1    1    2    0    0  0.46378401980E+03  0.12963069452E+03 -0.16805969576E+04  0.17587409894E+04  0.19200000000E+03 0.  0.
   -5000001    1    1    2    0    0 -0.46378401980E+03 -0.12963069452E+03 -0.19224745894E+04  0.19911484828E+04  0.19200000000E+03 0.  0.
<mgrwt>
<rscale>  0 0.10390123E+04</rscale>
<asrwt>0</asrwt>
<pdfrwt beam="1">  1        2 0.52521138E+00 0.10390123E+04</pdfrwt>
<pdfrwt beam="2">  1       -2 0.10486997E-01 0.10390123E+04</pdfrwt>
<totfact> 0.61271081E+01</totfact>
</mgrwt>
</event>
<event>
 4    1  0.5863356E-005  0.5760580E+03  0.7818608E-02  0.9956362E-01
         -2   -1    0    0    0  501 -0.00000000000E+00  0.00000000000E+00  0.90044436712E+02  0.90044436748E+02  0.25500000000E-02 0. -1.
          2   -1    0    0  501    0  0.00000000000E+00 -0.00000000000E+00 -0.92133057434E+03  0.92133057435E+03  0.25500000000E-02 0.  1.
    5000001    1    1    2    0    0 -0.10209862589E+03 -0.18774361330E+03 -0.45183308903E+03  0.53543340770E+03  0.19200000000E+03 0.  0.
   -5000001    1    1    2    0    0  0.10209862589E+03  0.18774361330E+03 -0.37945304861E+03  0.47594160339E+03  0.19200000000E+03 0.  0.
<mgrwt>
<rscale>  0 0.57605796E+03</rscale>
<asrwt>0</asrwt>
<pdfrwt beam="1">  1        2 0.13161865E+00 0.57605796E+03</pdfrwt>
<pdfrwt beam="2">  1       -2 0.12863492E-01 0.57605796E+03</pdfrwt>
<totfact> 0.14328390E+03</totfact>
</mgrwt>
</event>
<event>
 4    1  0.5863356E-005  0.6634196E+03  0.7818608E-02  0.9781919E-01
         -2   -1    0    0    0  501 -0.00000000000E+00  0.00000000000E+00  0.12725808060E+03  0.12725808063E+03  0.25500000000E-02 0. -1.
          2   -1    0    0  501    0  0.00000000000E+00 -0.00000000000E+00 -0.86463198324E+03  0.86463198325E+03  0.25500000000E-02 0.  1.
    5000001    1    1    2    0    0 -0.72102305881E+02  0.25511964750E+03 -0.28841392603E+03  0.43626983598E+03  0.19200000000E+03 0.  0.
   -5000001    1    1    2    0    0  0.72102305881E+02 -0.25511964750E+03 -0.44895997661E+03  0.55562022790E+03  0.19200000000E+03 0.  0.
<mgrwt>
<rscale>  0 0.66341965E+03</rscale>
<asrwt>0</asrwt>
<pdfrwt beam="1">  1        2 0.12351885E+00 0.66341965E+03</pdfrwt>
<pdfrwt beam="2">  1       -2 0.18179726E-01 0.66341965E+03</pdfrwt>
<totfact> 0.86806636E+02</totfact>
</mgrwt>
</event>
<event>
 4    1  0.5863356E-005  0.5723258E+03  0.7818608E-02  0.9964545E-01
         -2   -1    0    0    0  501 -0.00000000000E+00  0.00000000000E+00  0.58843315369E+03  0.58843315369E+03  0.25500000000E-02 0. -1.
          2   -1    0    0  501    0  0.00000000000E+00 -0.00000000000E+00 -0.13916485586E+03  0.13916485588E+03  0.25500000000E-02 0.  1.
    5000001    1    1    2    0    0  0.15635780544E+03 -0.61727126268E+02  0.60015663770E+02  0.26215240098E+03  0.19200000000E+03 0.  0.
   -5000001    1    1    2    0    0 -0.15635780544E+03  0.61727126268E+02  0.38925263406E+03  0.46544560860E+03  0.19200000000E+03 0.  0.
<mgrwt>
<rscale>  0 0.57232583E+03</rscale>
<asrwt>0</asrwt>
<pdfrwt beam="1">  1        2 0.19880694E-01 0.57232583E+03</pdfrwt>
<pdfrwt beam="2">  1       -2 0.84061877E-01 0.57232583E+03</pdfrwt>
<totfact> 0.35729035E+02</totfact>
</mgrwt>
</event>
<event>
 4    1  0.5863356E-005  0.5391095E+03  0.7818608E-02  0.1004047E+00
          2   -1    0    0  501    0  0.00000000000E+00  0.00000000000E+00  0.56924452375E+03  0.56924452376E+03  0.25500000000E-02 0.  1.
         -2   -1    0    0    0  501 -0.00000000000E+00 -0.00000000000E+00 -0.12764246230E+03  0.12764246232E+03  0.25500000000E-02 0. -1.
    5000001    1    1    2    0    0 -0.94367030186E+02  0.16397967553E+03  0.21932586486E+03  0.34750871265E+03  0.19200000000E+03 0.  0.
   -5000001    1    1    2    0    0  0.94367030186E+02 -0.16397967553E+03  0.22227619660E+03  0.34937827343E+03  0.19200000000E+03 0.  0.
<mgrwt>
<rscale>  0 0.53910953E+03</rscale>
<asrwt>0</asrwt>
<pdfrwt beam="1">  1        2 0.81320646E-01 0.53910953E+03</pdfrwt>
<pdfrwt beam="2">  1       -2 0.18234638E-01 0.53910953E+03</pdfrwt>
<totfact> 0.14463673E+03</totfact>
</mgrwt>
</event>
<event>
 4    1  0.5863356E-005  0.1601722E+04  0.7818608E-02  0.8819491E-01
          2   -1    0    0  501    0  0.00000000000E+00  0.00000000000E+00  0.28452191502E+04  0.28452191502E+04  0.25500000000E-02 0.  1.
         -2   -1    0    0    0  501 -0.00000000000E+00 -0.00000000000E+00 -0.22542308389E+03  0.22542308390E+03  0.25500000000E-02 0. -1.
    5000001    1    1    2    0    0 -0.71978092297E+03  0.18358684760E+03  0.17500999974E+04  0.19108905538E+04  0.19200000000E+03 0.  0.
   -5000001    1    1    2    0    0  0.71978092297E+03 -0.18358684760E+03  0.86969606889E+03  0.11597516803E+04  0.19200000000E+03 0.  0.
<mgrwt>
<rscale>  0 0.16017217E+04</rscale>
<asrwt>0</asrwt>
<pdfrwt beam="1">  1        2 0.40645987E+00 0.16017217E+04</pdfrwt>
<pdfrwt beam="2">  1       -2 0.32203298E-01 0.16017217E+04</pdfrwt>
<totfact> 0.24853647E+01</totfact>
</mgrwt>
</event>
<event>
 4    1  0.5863356E-005  0.9607201E+03  0.7818608E-02  0.9352707E-01
         -2   -1    0    0    0  501 -0.00000000000E+00  0.00000000000E+00  0.35542173501E+03  0.35542173502E+03  0.25500000000E-02 0. -1.
          2   -1    0    0  501    0  0.00000000000E+00 -0.00000000000E+00 -0.64921678900E+03  0.64921678901E+03  0.25500000000E-02 0.  1.
    5000001    1    1    2    0    0 -0.16452039443E+03 -0.34711662285E+03  0.78173694929E+02  0.43649975558E+03  0.19200000000E+03 0.  0.
   -5000001    1    1    2    0    0  0.16452039443E+03  0.34711662285E+03 -0.37196874892E+03  0.56813876845E+03  0.19200000000E+03 0.  0.
<mgrwt>
<rscale>  0 0.96072006E+03</rscale>
<asrwt>0</asrwt>
<pdfrwt beam="1">  1        2 0.92745256E-01 0.96072006E+03</pdfrwt>
<pdfrwt beam="2">  1       -2 0.50774533E-01 0.96072006E+03</pdfrwt>
<totfact> 0.18103259E+02</totfact>
</mgrwt>
</event>
<event>
 4    1  0.5863356E-005  0.5291206E+03  0.7818608E-02  0.1006446E+00
          2   -1    0    0  501    0  0.00000000000E+00  0.00000000000E+00  0.12934664597E+04  0.12934664597E+04  0.25500000000E-02 0.  1.
         -2   -1    0    0    0  501 -0.00000000000E+00 -0.00000000000E+00 -0.54112070458E+02  0.54112070518E+02  0.25500000000E-02 0. -1.
    5000001    1    1    2    0    0  0.60970099741E+02 -0.15118695477E+03  0.82584908211E+03  0.86340347160E+03  0.19200000000E+03 0.  0.
   -5000001    1    1    2    0    0 -0.60970099741E+02  0.15118695477E+03  0.41350530708E+03  0.48417505857E+03  0.19200000000E+03 0.  0.
<mgrwt>
<rscale>  0 0.52912058E+03</rscale>
<asrwt>0</asrwt>
<pdfrwt beam="1">  1        2 0.18478092E+00 0.52912058E+03</pdfrwt>
<pdfrwt beam="2">  1       -2 0.77302961E-02 0.52912058E+03</pdfrwt>
<totfact> 0.19859454E+03</totfact>
</mgrwt>
</event>
<event>
 4    1  0.5863356E-005  0.5119867E+03  0.7818608E-02  0.1010697E+00
          2   -1    0    0  501    0  0.00000000000E+00  0.00000000000E+00  0.36716932355E+03  0.36716932356E+03  0.25500000000E-02 0.  1.
         -2   -1    0    0    0  501 -0.00000000000E+00 -0.00000000000E+00 -0.17848058531E+03  0.17848058533E+03  0.25500000000E-02 0. -1.
    5000001    1    1    2    0    0 -0.99465766653E+02  0.18399972682E+02  0.23905345484E+03  0.32286615183E+03  0.19200000000E+03 0.  0.
   -5000001    1    1    2    0    0  0.99465766653E+02 -0.18399972682E+02 -0.50364716598E+02  0.22278375706E+03  0.19200000000E+03 0.  0.
<mgrwt>
<rscale>  0 0.51198670E+03</rscale>
<asrwt>0</asrwt>
<pdfrwt beam="1">  1        2 0.52452761E-01 0.51198670E+03</pdfrwt>
<pdfrwt beam="2">  1       -2 0.25497226E-01 0.51198670E+03</pdfrwt>
<totfact> 0.13145400E+03</totfact>
</mgrwt>
</event>
<event>
 4    1  0.5863356E-005  0.5764061E+03  0.7818608E-02  0.9955602E-01
          2   -1    0    0  501    0  0.00000000000E+00  0.00000000000E+00  0.31357226837E+04  0.31357226837E+04  0.25500000000E-02 0.  1.
         -2   -1    0    0    0  501 -0.00000000000E+00 -0.00000000000E+00 -0.26488625754E+02  0.26488625877E+02  0.25500000000E-02 0. -1.
    5000001    1    1    2    0    0 -0.48215674504E+02 -0.20889756141E+03  0.14706884972E+04  0.14985831969E+04  0.19200000000E+03 0.  0.
   -5000001    1    1    2    0    0  0.48215674504E+02  0.20889756141E+03  0.16385455608E+04  0.16636281126E+04  0.19200000000E+03 0.  0.
<mgrwt>
<rscale>  0 0.57640605E+03</rscale>
<asrwt>0</asrwt>
<pdfrwt beam="1">  1        2 0.44796030E+00 0.57640605E+03</pdfrwt>
<pdfrwt beam="2">  1       -2 0.37840901E-02 0.57640605E+03</pdfrwt>
<totfact> 0.67149130E+02</totfact>
</mgrwt>
</event>
<event>
 4    1  0.5863356E-005  0.5480540E+03  0.7818608E-02  0.1001945E+00
         -2   -1    0    0    0  501 -0.00000000000E+00  0.00000000000E+00  0.20293918721E+02  0.20293918882E+02  0.25500000000E-02 0. -1.
          2   -1    0    0  501    0  0.00000000000E+00 -0.00000000000E+00 -0.37001618143E+04  0.37001618143E+04  0.25500000000E-02 0.  1.
    5000001    1    1    2    0    0 -0.15842829078E+03 -0.11429476179E+03 -0.17856398528E+04  0.18065260861E+04  0.19200000000E+03 0.  0.
   -5000001    1    1    2    0    0  0.15842829078E+03  0.11429476179E+03 -0.18942280428E+04  0.19139296471E+04  0.19200000000E+03 0.  0.
<mgrwt>
<rscale>  0 0.54805395E+03</rscale>
<asrwt>0</asrwt>
<pdfrwt beam="1">  1        2 0.52859411E+00 0.54805395E+03</pdfrwt>
<pdfrwt beam="2">  1       -2 0.28991336E-02 0.54805395E+03</pdfrwt>
<totfact> 0.47307975E+02</totfact>
</mgrwt>
</event>
<event>
 4    1  0.5863356E-005  0.6453289E+03  0.7818608E-02  0.9815584E-01
          2   -1    0    0  501    0  0.00000000000E+00  0.00000000000E+00  0.16330354153E+04  0.16330354153E+04  0.25500000000E-02 0.  1.
         -2   -1    0    0    0  501 -0.00000000000E+00 -0.00000000000E+00 -0.63753884370E+02  0.63753884421E+02  0.25500000000E-02 0. -1.
    5000001    1    1    2    0    0 -0.21655531497E+03  0.72550928428E+02  0.46166497974E+03  0.54968936243E+03  0.19200000000E+03 0.  0.
   -5000001    1    1    2    0    0  0.21655531497E+03 -0.72550928428E+02  0.11076165512E+04  0.11470999373E+04  0.19200000000E+03 0.  0.
<mgrwt>
<rscale>  0 0.64532891E+03</rscale>
<asrwt>0</asrwt>
<pdfrwt beam="1">  1        2 0.23329074E+00 0.64532891E+03</pdfrwt>
<pdfrwt beam="2">  1       -2 0.91076990E-02 0.64532891E+03</pdfrwt>
<totfact> 0.10094915E+03</totfact>
</mgrwt>
</event>
<event>
 4    1  0.5863356E-005  0.6711891E+03  0.7818608E-02  0.9767812E-01
          2   -1    0    0  501    0  0.00000000000E+00  0.00000000000E+00  0.14530102822E+04  0.14530102822E+04  0.25500000000E-02 0.  1.
         -2   -1    0    0    0  501 -0.00000000000E+00 -0.00000000000E+00 -0.77510591703E+02  0.77510591745E+02  0.25500000000E-02 0. -1.
    5000001    1    1    2    0    0 -0.12896541643E+03  0.23480735623E+03  0.83184528049E+03  0.89476094229E+03  0.19200000000E+03 0.  0.
   -5000001    1    1    2    0    0  0.12896541643E+03 -0.23480735623E+03  0.54365440996E+03  0.63575993161E+03  0.19200000000E+03 0.  0.
<mgrwt>
<rscale>  0 0.67118905E+03</rscale>
<asrwt>0</asrwt>
<pdfrwt beam="1">  1        2 0.20757288E+00 0.67118905E+03</pdfrwt>
<pdfrwt beam="2">  1       -2 0.11072943E-01 0.67118905E+03</pdfrwt>
<totfact> 0.91061946E+02</totfact>
</mgrwt>
</event>
<event>
 4    1  0.5863356E-005  0.5725245E+03  0.7818608E-02  0.9964108E-01
          2   -1    0    0  501    0  0.00000000000E+00  0.00000000000E+00  0.33212000716E+04  0.33212000716E+04  0.25500000000E-02 0.  1.
         -2   -1    0    0    0  501 -0.00000000000E+00 -0.00000000000E+00 -0.24673636563E+02  0.24673636695E+02  0.25500000000E-02 0. -1.
    5000001    1    1    2    0    0  0.47386505365E+02  0.19993708046E+03  0.13356318425E+04  0.13649163841E+04  0.19200000000E+03 0.  0.
   -5000001    1    1    2    0    0 -0.47386505365E+02 -0.19993708046E+03  0.19608945926E+04  0.19809573242E+04  0.19200000000E+03 0.  0.
<mgrwt>
<rscale>  0 0.57252453E+03</rscale>
<asrwt>0</asrwt>
<pdfrwt beam="1">  1        2 0.47445754E+00 0.57252453E+03</pdfrwt>
<pdfrwt beam="2">  1       -2 0.35248024E-02 0.57252453E+03</pdfrwt>
<totfact> 0.58859222E+02</totfact>
</mgrwt>
</event>
<event>
 4    1  0.5863356E-005  0.5285313E+03  0.7818608E-02  0.1006589E+00
         -2   -1    0    0    0  501 -0.00000000000E+00  0.00000000000E+00  0.71136643060E+02  0.71136643106E+02  0.25500000000E-02 0. -1.
          2   -1    0    0  501    0  0.00000000000E+00 -0.00000000000E+00 -0.98172087836E+03  0.98172087836E+03  0.25500000000E-02 0.  1.
    5000001    1    1    2    0    0 -0.11144148055E+03  0.14094953580E+03 -0.50748034219E+03  0.57156475831E+03  0.19200000000E+03 0.  0.
   -5000001    1    1    2    0    0  0.11144148055E+03 -0.14094953580E+03 -0.40310389311E+03  0.48129276316E+03  0.19200000000E+03 0.  0.
<mgrwt>
<rscale>  0 0.52853128E+03</rscale>
<asrwt>0</asrwt>
<pdfrwt beam="1">  1        2 0.14024583E+00 0.52853128E+03</pdfrwt>
<pdfrwt beam="2">  1       -2 0.10162378E-01 0.52853128E+03</pdfrwt>
<totfact> 0.19331127E+03</totfact>
</mgrwt>
</event>
<event>
 4    1  0.5863356E-005  0.8352457E+03  0.7818608E-02  0.9510356E-01
         -2   -1    0    0    0  501 -0.00000000000E+00  0.00000000000E+00  0.62547796748E+02  0.62547796800E+02  0.25500000000E-02 0. -1.
          2   -1    0    0  501    0  0.00000000000E+00 -0.00000000000E+00 -0.27884092105E+04  0.27884092105E+04  0.25500000000E-02 0.  1.
    5000001    1    1    2    0    0  0.91135755210E+01 -0.24352736778E+03 -0.40868948479E+03  0.51310791369E+03  0.19200000000E+03 0.  0.
   -5000001    1    1    2    0    0 -0.91135755210E+01  0.24352736778E+03 -0.23171719290E+04  0.23378490936E+04  0.19200000000E+03 0.  0.
<mgrwt>
<rscale>  0 0.83524572E+03</rscale>
<asrwt>0</asrwt>
<pdfrwt beam="1">  1        2 0.39834409E+00 0.83524572E+03</pdfrwt>
<pdfrwt beam="2">  1       -2 0.89354013E-02 0.83524572E+03</pdfrwt>
<totfact> 0.26268700E+02</totfact>
</mgrwt>
</event>
<event>
 4    1  0.5863356E-005  0.5999353E+03  0.7818608E-02  0.9905540E-01
         -2   -1    0    0    0  501 -0.00000000000E+00  0.00000000000E+00  0.76270670538E+02  0.76270670580E+02  0.25500000000E-02 0. -1.
          2   -1    0    0  501    0  0.00000000000E+00 -0.00000000000E+00 -0.11797534303E+04  0.11797534303E+04  0.25500000000E-02 0.  1.
    5000001    1    1    2    0    0 -0.17132447472E+03 -0.10100969758E+03 -0.30793321559E+03  0.41381384692E+03  0.19200000000E+03 0.  0.
   -5000001    1    1    2    0    0  0.17132447472E+03  0.10100969758E+03 -0.79554954422E+03  0.84221025401E+03  0.19200000000E+03 0.  0.
<mgrwt>
<rscale>  0 0.59993528E+03</rscale>
<asrwt>0</asrwt>
<pdfrwt beam="1">  1        2 0.16853619E+00 0.59993528E+03</pdfrwt>
<pdfrwt beam="2">  1       -2 0.10895811E-01 0.59993528E+03</pdfrwt>
<totfact> 0.13195833E+03</totfact>
</mgrwt>
</event>
<event>
 4    1  0.5863356E-005  0.5216886E+03  0.7818608E-02  0.1008268E+00
         -2   -1    0    0    0  501 -0.00000000000E+00  0.00000000000E+00  0.15910433687E+03  0.15910433689E+03  0.25500000000E-02 0. -1.
          2   -1    0    0  501    0  0.00000000000E+00 -0.00000000000E+00 -0.42764231495E+03  0.42764231495E+03  0.25500000000E-02 0.  1.
    5000001    1    1    2    0    0  0.89953770635E+01 -0.14774345065E+03 -0.24253743418E+03  0.34292484745E+03  0.19200000000E+03 0.  0.
   -5000001    1    1    2    0    0 -0.89953770635E+01  0.14774345065E+03 -0.26000543894E+02  0.24382180440E+03  0.19200000000E+03 0.  0.
<mgrwt>
<rscale>  0 0.52168859E+03</rscale>
<asrwt>0</asrwt>
<pdfrwt beam="1">  1        2 0.61091759E-01 0.52168859E+03</pdfrwt>
<pdfrwt beam="2">  1       -2 0.22729191E-01 0.52168859E+03</pdfrwt>
<totfact> 0.13626173E+03</totfact>
</mgrwt>
</event>
<event>
 4    1  0.5863356E-005  0.5459361E+03  0.7818608E-02  0.1002439E+00
          2   -1    0    0  501    0  0.00000000000E+00  0.00000000000E+00  0.81313854177E+03  0.81313854177E+03  0.25500000000E-02 0.  1.
         -2   -1    0    0    0  501 -0.00000000000E+00 -0.00000000000E+00 -0.91634519631E+02  0.91634519667E+02  0.25500000000E-02 0. -1.
    5000001    1    1    2    0    0  0.12946525665E+03 -0.14105576503E+03  0.30861778998E+03  0.41081251419E+03  0.19200000000E+03 0.  0.
   -5000001    1    1    2    0    0 -0.12946525665E+03  0.14105576503E+03  0.41288623216E+03  0.49396054725E+03  0.19200000000E+03 0.  0.
<mgrwt>
<rscale>  0 0.54593611E+03</rscale>
<asrwt>0</asrwt>
<pdfrwt beam="1">  1        2 0.11616265E+00 0.54593611E+03</pdfrwt>
<pdfrwt beam="2">  1       -2 0.13090646E-01 0.54593611E+03</pdfrwt>
<totfact> 0.16406878E+03</totfact>
</mgrwt>
</event>
<event>
 4    1  0.5863356E-005  0.4665333E+03  0.7818608E-02  0.1022903E+00
          2   -1    0    0  501    0  0.00000000000E+00  0.00000000000E+00  0.10118828227E+03  0.10118828230E+03  0.25500000000E-02 0.  1.
         -2   -1    0    0    0  501 -0.00000000000E+00 -0.00000000000E+00 -0.53774340683E+03  0.53774340683E+03  0.25500000000E-02 0. -1.
    5000001    1    1    2    0    0 -0.88497389889E+01 -0.66710607578E+02 -0.37455240975E+03  0.42624186877E+03  0.19200000000E+03 0.  0.
   -5000001    1    1    2    0    0  0.88497389889E+01  0.66710607578E+02 -0.62002714809E+02  0.21268982037E+03  0.19200000000E+03 0.  0.
<mgrwt>
<rscale>  0 0.46653331E+03</rscale>
<asrwt>0</asrwt>
<pdfrwt beam="1">  1        2 0.14455469E-01 0.46653331E+03</pdfrwt>
<pdfrwt beam="2">  1       -2 0.76820485E-01 0.46653331E+03</pdfrwt>
<totfact> 0.63917558E+02</totfact>
</mgrwt>
</event>
<event>
 4    1  0.5863356E-005  0.4715343E+03  0.7818608E-02  0.1021488E+00
          2   -1    0    0  501    0  0.00000000000E+00  0.00000000000E+00  0.58454295277E+03  0.58454295278E+03  0.25500000000E-02 0.  1.
         -2   -1    0    0    0  501 -0.00000000000E+00 -0.00000000000E+00 -0.95093366570E+02  0.95093366605E+02  0.25500000000E-02 0. -1.
    5000001    1    1    2    0    0 -0.11728448157E+03 -0.68521476291E+02  0.22098373159E+03  0.32272070271E+03  0.19200000000E+03 0.  0.
   -5000001    1    1    2    0    0  0.11728448157E+03  0.68521476291E+02  0.26846585461E+03  0.35691561667E+03  0.19200000000E+03 0.  0.
<mgrwt>
<rscale>  0 0.47153434E+03</rscale>
<asrwt>0</asrwt>
<pdfrwt beam="1">  1        2 0.83506136E-01 0.47153434E+03</pdfrwt>
<pdfrwt beam="2">  1       -2 0.13584767E-01 0.47153434E+03</pdfrwt>
<totfact> 0.23030515E+03</totfact>
</mgrwt>
</event>
<event>
 4    1  0.5863356E-005  0.5046788E+03  0.7818608E-02  0.1012565E+00
          2   -1    0    0  501    0  0.00000000000E+00  0.00000000000E+00  0.45927269350E+03  0.45927269350E+03  0.25500000000E-02 0.  1.
         -2   -1    0    0    0  501 -0.00000000000E+00 -0.00000000000E+00 -0.13864348203E+03  0.13864348206E+03  0.25500000000E-02 0. -1.
    5000001    1    1    2    0    0 -0.32394308042E+02 -0.15977788079E+03  0.17839132464E+03  0.30865162739E+03  0.19200000000E+03 0.  0.
   -5000001    1    1    2    0    0  0.32394308042E+02  0.15977788079E+03  0.14223788683E+03  0.28926454818E+03  0.19200000000E+03 0.  0.
<mgrwt>
<rscale>  0 0.50467877E+03</rscale>
<asrwt>0</asrwt>
<pdfrwt beam="1">  1        2 0.65610385E-01 0.50467877E+03</pdfrwt>
<pdfrwt beam="2">  1       -2 0.19806212E-01 0.50467877E+03</pdfrwt>
<totfact> 0.16009324E+03</totfact>
</mgrwt>
</event>
<event>
 4    1  0.5863356E-005  0.1044791E+04  0.7818608E-02  0.9260738E-01
         -2   -1    0    0    0  501 -0.00000000000E+00  0.00000000000E+00  0.13861226578E+03  0.13861226580E+03  0.25500000000E-02 0. -1.
          2   -1    0    0  501    0  0.00000000000E+00 -0.00000000000E+00 -0.19687816438E+04  0.19687816438E+04  0.25500000000E-02 0.  1.
    5000001    1    1    2    0    0  0.35325034669E+03  0.32782916856E+03 -0.79114679263E+03  0.94606290419E+03  0.19200000000E+03 0.  0.
   -5000001    1    1    2    0    0 -0.35325034669E+03 -0.32782916856E+03 -0.10390225854E+04  0.11613310054E+04  0.19200000000E+03 0.  0.
<mgrwt>
<rscale>  0 0.10447914E+04</rscale>
<asrwt>0</asrwt>
<pdfrwt beam="1">  1        2 0.28125450E+00 0.10447914E+04</pdfrwt>
<pdfrwt beam="2">  1       -2 0.19801754E-01 0.10447914E+04</pdfrwt>
<totfact> 0.18054353E+02</totfact>
</mgrwt>
</event>
<event>
 4    1  0.5863356E-005  0.6518467E+03  0.7818608E-02  0.9803320E-01
          2   -1    0    0  501    0  0.00000000000E+00  0.00000000000E+00  0.13434237141E+04  0.13434237141E+04  0.25500000000E-02 0.  1.
         -2   -1    0    0    0  501 -0.00000000000E+00 -0.00000000000E+00 -0.79071135500E+02  0.79071135541E+02  0.25500000000E-02 0. -1.
    5000001    1    1    2    0    0 -0.15354052283E+03 -0.20958311313E+03  0.53800338459E+03  0.62754395487E+03  0.19200000000E+03 0.  0.
   -5000001    1    1    2    0    0  0.15354052283E+03  0.20958311313E+03  0.72634919397E+03  0.79495089474E+03  0.19200000000E+03 0.  0.
<mgrwt>
<rscale>  0 0.65184673E+03</rscale>
<asrwt>0</asrwt>
<pdfrwt beam="1">  1        2 0.19191769E+00 0.65184673E+03</pdfrwt>
<pdfrwt beam="2">  1       -2 0.11295876E-01 0.65184673E+03</pdfrwt>
<totfact> 0.10090511E+03</totfact>
</mgrwt>
</event>
<event>
 4    1  0.5863356E-005  0.4126067E+03  0.7818608E-02  0.1039500E+00
         -2   -1    0    0    0  501 -0.00000000000E+00  0.00000000000E+00  0.16840442754E+03  0.16840442756E+03  0.25500000000E-02 0. -1.
          2   -1    0    0  501    0  0.00000000000E+00 -0.00000000000E+00 -0.25273126642E+03  0.25273126644E+03  0.25500000000E-02 0.  1.
    5000001    1    1    2    0    0  0.34805640059E+02  0.22166994207E+02 -0.10666996233E+03  0.22348442692E+03  0.19200000000E+03 0.  0.
   -5000001    1    1    2    0    0 -0.34805640059E+02 -0.22166994207E+02  0.22343123451E+02  0.19765126708E+03  0.19200000000E+03 0.  0.
<mgrwt>
<rscale>  0 0.41260666E+03</rscale>
<asrwt>0</asrwt>
<pdfrwt beam="1">  1        2 0.36104467E-01 0.41260666E+03</pdfrwt>
<pdfrwt beam="2">  1       -2 0.24057775E-01 0.41260666E+03</pdfrwt>
<totfact> 0.21925048E+03</totfact>
</mgrwt>
</event>
<event>
 4    1  0.5863356E-005  0.4989994E+03  0.7818608E-02  0.1014040E+00
          2   -1    0    0  501    0  0.00000000000E+00  0.00000000000E+00  0.11366470204E+04  0.11366470204E+04  0.25500000000E-02 0.  1.
         -2   -1    0    0    0  501 -0.00000000000E+00 -0.00000000000E+00 -0.54766438550E+02  0.54766438610E+02  0.25500000000E-02 0. -1.
    5000001    1    1    2    0    0  0.74134040989E+02 -0.74938399695E+02  0.25567906828E+03  0.33667106460E+03  0.19200000000E+03 0.  0.
   -5000001    1    1    2    0    0 -0.74134040989E+02  0.74938399695E+02  0.82620151355E+03  0.85474239439E+03  0.19200000000E+03 0.  0.
<mgrwt>
<rscale>  0 0.49899944E+03</rscale>
<asrwt>0</asrwt>
<pdfrwt beam="1">  1        2 0.16237814E+00 0.49899944E+03</pdfrwt>
<pdfrwt beam="2">  1       -2 0.78237770E-02 0.49899944E+03</pdfrwt>
<totfact> 0.23816356E+03</totfact>
</mgrwt>
</event>
<event>
 4    1  0.5863356E-005  0.8305063E+03  0.7818608E-02  0.9516881E-01
         -2   -1    0    0    0  501 -0.00000000000E+00  0.00000000000E+00  0.25388802891E+03  0.25388802892E+03  0.25500000000E-02 0. -1.
          2   -1    0    0  501    0  0.00000000000E+00 -0.00000000000E+00 -0.67917812709E+03  0.67917812709E+03  0.25500000000E-02 0.  1.
    5000001    1    1    2    0    0 -0.32910019068E+03  0.21644530519E+02 -0.28736192949E+02  0.38270770830E+03  0.19200000000E+03 0.  0.
   -5000001    1    1    2    0    0  0.32910019068E+03 -0.21644530519E+02 -0.39655390523E+03  0.55035844771E+03  0.19200000000E+03 0.  0.
<mgrwt>
<rscale>  0 0.83050634E+03</rscale>
<asrwt>0</asrwt>
<pdfrwt beam="1">  1        2 0.97025446E-01 0.83050634E+03</pdfrwt>
<pdfrwt beam="2">  1       -2 0.36269719E-01 0.83050634E+03</pdfrwt>
<totfact> 0.33524721E+02</totfact>
</mgrwt>
</event>
<event>
 4    1  0.5863356E-005  0.5546842E+03  0.7818608E-02  0.1000416E+00
         -2   -1    0    0    0  501 -0.00000000000E+00  0.00000000000E+00  0.84089928233E+02  0.84089928272E+02  0.25500000000E-02 0. -1.
          2   -1    0    0  501    0  0.00000000000E+00 -0.00000000000E+00 -0.91471883522E+03  0.91471883522E+03  0.25500000000E-02 0.  1.
    5000001    1    1    2    0    0 -0.11438032420E+03  0.15338025220E+03 -0.30960547329E+03  0.41149472587E+03  0.19200000000E+03 0.  0.
   -5000001    1    1    2    0    0  0.11438032420E+03 -0.15338025220E+03 -0.52102343370E+03  0.58731403762E+03  0.19200000000E+03 0.  0.
<mgrwt>
<rscale>  0 0.55468420E+03</rscale>
<asrwt>0</asrwt>
<pdfrwt beam="1">  1        2 0.13067411E+00 0.55468420E+03</pdfrwt>
<pdfrwt beam="2">  1       -2 0.12012847E-01 0.55468420E+03</pdfrwt>
<totfact> 0.16200735E+03</totfact>
</mgrwt>
</event>
<event>
 4    1  0.5863356E-005  0.5072531E+03  0.7818608E-02  0.1011903E+00
          2   -1    0    0  501    0  0.00000000000E+00  0.00000000000E+00  0.25253055005E+04  0.25253055005E+04  0.25500000000E-02 0.  1.
         -2   -1    0    0    0  501 -0.00000000000E+00 -0.00000000000E+00 -0.25472725802E+02  0.25472725930E+02  0.25500000000E-02 0. -1.
    5000001    1    1    2    0    0 -0.61511270460E+02  0.99430560563E+02  0.18404804843E+04  0.18541581609E+04  0.19200000000E+03 0.  0.
   -5000001    1    1    2    0    0  0.61511270460E+02 -0.99430560563E+02  0.65935229045E+03  0.69662006552E+03  0.19200000000E+03 0.  0.
<mgrwt>
<rscale>  0 0.50725305E+03</rscale>
<asrwt>0</asrwt>
<pdfrwt beam="1">  1        2 0.36075801E+00 0.50725305E+03</pdfrwt>
<pdfrwt beam="2">  1       -2 0.36389600E-02 0.50725305E+03</pdfrwt>
<totfact> 0.15123233E+03</totfact>
</mgrwt>
</event>
<event>
 4    1  0.5863356E-005  0.4216907E+03  0.7818608E-02  0.1036517E+00
          2   -1    0    0  501    0  0.00000000000E+00  0.00000000000E+00  0.23034566607E+04  0.23034566607E+04  0.25500000000E-02 0.  1.
         -2   -1    0    0    0  501 -0.00000000000E+00 -0.00000000000E+00 -0.19299584759E+02  0.19299584927E+02  0.25500000000E-02 0. -1.
    5000001    1    1    2    0    0 -0.76113741019E+02 -0.18939153072E+02  0.13510828830E+04  0.13669092690E+04  0.19200000000E+03 0.  0.
   -5000001    1    1    2    0    0  0.76113741019E+02  0.18939153072E+02  0.93307419293E+03  0.95584697656E+03  0.19200000000E+03 0.  0.
<mgrwt>
<rscale>  0 0.42169068E+03</rscale>
<asrwt>0</asrwt>
<pdfrwt beam="1">  1        2 0.32906510E+00 0.42169068E+03</pdfrwt>
<pdfrwt beam="2">  1       -2 0.27570847E-02 0.42169068E+03</pdfrwt>
<totfact> 0.29941768E+03</totfact>
</mgrwt>
</event>
<event>
 4    1  0.5863356E-005  0.5013151E+03  0.7818608E-02  0.1013436E+00
          2   -1    0    0  501    0  0.00000000000E+00  0.00000000000E+00  0.84690585354E+03  0.84690585354E+03  0.25500000000E-02 0.  1.
         -2   -1    0    0    0  501 -0.00000000000E+00 -0.00000000000E+00 -0.74186771959E+02  0.74186772003E+02  0.25500000000E-02 0. -1.
    5000001    1    1    2    0    0 -0.80265163244E+02 -0.13913654051E+03  0.36284874132E+03  0.44082273355E+03  0.19200000000E+03 0.  0.
   -5000001    1    1    2    0    0  0.80265163244E+02  0.13913654051E+03  0.40987034025E+03  0.48026989199E+03  0.19200000000E+03 0.  0.
<mgrwt>
<rscale>  0 0.50131512E+03</rscale>
<asrwt>0</asrwt>
<pdfrwt beam="1">  1        2 0.12098654E+00 0.50131512E+03</pdfrwt>
<pdfrwt beam="2">  1       -2 0.10598111E-01 0.50131512E+03</pdfrwt>
<totfact> 0.22010801E+03</totfact>
</mgrwt>
</event>
<event>
 4    1  0.5863356E-005  0.5919704E+03  0.7818608E-02  0.9922206E-01
          2   -1    0    0  501    0  0.00000000000E+00  0.00000000000E+00  0.96119062371E+03  0.96119062371E+03  0.25500000000E-02 0.  1.
         -2   -1    0    0    0  501 -0.00000000000E+00 -0.00000000000E+00 -0.91144505536E+02  0.91144505572E+02  0.25500000000E-02 0. -1.
    5000001    1    1    2    0    0 -0.57082892080E+02  0.21780634461E+03  0.44697244390E+03  0.53604703704E+03  0.19200000000E+03 0.  0.
   -5000001    1    1    2    0    0  0.57082892080E+02 -0.21780634461E+03  0.42307367428E+03  0.51628809224E+03  0.19200000000E+03 0.  0.
<mgrwt>
<rscale>  0 0.59197042E+03</rscale>
<asrwt>0</asrwt>
<pdfrwt beam="1">  1        2 0.13731295E+00 0.59197042E+03</pdfrwt>
<pdfrwt beam="2">  1       -2 0.13020644E-01 0.59197042E+03</pdfrwt>
<totfact> 0.13251923E+03</totfact>
</mgrwt>
</event>
<event>
 4    1  0.5863356E-005  0.7277412E+03  0.7818608E-02  0.9670933E-01
          2   -1    0    0  501    0  0.00000000000E+00  0.00000000000E+00  0.71610438775E+03  0.71610438775E+03  0.25500000000E-02 0.  1.
         -2   -1    0    0    0  501 -0.00000000000E+00 -0.00000000000E+00 -0.18489177746E+03  0.18489177748E+03  0.25500000000E-02 0. -1.
    5000001    1    1    2    0    0  0.22535463862E+03 -0.81500406549E+01  0.52732515924E+03  0.60480324063E+03  0.19200000000E+03 0.  0.
   -5000001    1    1    2    0    0 -0.22535463862E+03  0.81500406549E+01  0.38874510472E+01  0.29619292460E+03  0.19200000000E+03 0.  0.
<mgrwt>
<rscale>  0 0.72774120E+03</rscale>
<asrwt>0</asrwt>
<pdfrwt beam="1">  1        2 0.10230062E+00 0.72774120E+03</pdfrwt>
<pdfrwt beam="2">  1       -2 0.26413112E-01 0.72774120E+03</pdfrwt>
<totfact> 0.56946112E+02</totfact>
</mgrwt>
</event>
<event>
 4    1  0.5863356E-005  0.5508799E+03  0.7818608E-02  0.1001290E+00
          2   -1    0    0  501    0  0.00000000000E+00  0.00000000000E+00  0.35255873730E+04  0.35255873730E+04  0.25500000000E-02 0.  1.
         -2   -1    0    0    0  501 -0.00000000000E+00 -0.00000000000E+00 -0.21519011563E+02  0.21519011714E+02  0.25500000000E-02 0. -1.
    5000001    1    1    2    0    0 -0.11905201570E+03  0.15574875887E+03  0.19060453786E+04  0.19256957297E+04  0.19200000000E+03 0.  0.
   -5000001    1    1    2    0    0  0.11905201570E+03 -0.15574875887E+03  0.15980229829E+04  0.16214106550E+04  0.19200000000E+03 0.  0.
<mgrwt>
<rscale>  0 0.55087986E+03</rscale>
<asrwt>0</asrwt>
<pdfrwt beam="1">  1        2 0.50365558E+00 0.55087986E+03</pdfrwt>
<pdfrwt beam="2">  1       -2 0.30741430E-02 0.55087986E+03</pdfrwt>
<totfact> 0.55214645E+02</totfact>
</mgrwt>
</event>
<event>
 4    1  0.5863356E-005  0.4337174E+03  0.7818608E-02  0.1032692E+00
          2   -1    0    0  501    0  0.00000000000E+00  0.00000000000E+00  0.57139640738E+03  0.57139640738E+03  0.25500000000E-02 0.  1.
         -2   -1    0    0    0  501 -0.00000000000E+00 -0.00000000000E+00 -0.82303092664E+02  0.82303092703E+02  0.25500000000E-02 0. -1.
    5000001    1    1    2    0    0 -0.53732547771E+02  0.68990024490E+02  0.32016074125E+03  0.38342366960E+03  0.19200000000E+03 0.  0.
   -5000001    1    1    2    0    0  0.53732547771E+02 -0.68990024490E+02  0.16893257346E+03  0.27027583048E+03  0.19200000000E+03 0.  0.
<mgrwt>
<rscale>  0 0.43371738E+03</rscale>
<asrwt>0</asrwt>
<pdfrwt beam="1">  1        2 0.81628060E-01 0.43371738E+03</pdfrwt>
<pdfrwt beam="2">  1       -2 0.11757584E-01 0.43371738E+03</pdfrwt>
<totfact> 0.29955451E+03</totfact>
</mgrwt>
</event>
<event>
 4    1  0.5863356E-005  0.8249783E+03  0.7818608E-02  0.9524549E-01
          2   -1    0    0  501    0  0.00000000000E+00  0.00000000000E+00  0.27610614828E+04  0.27610614828E+04  0.25500000000E-02 0.  1.
         -2   -1    0    0    0  501 -0.00000000000E+00 -0.00000000000E+00 -0.61623877867E+02  0.61623877919E+02  0.25500000000E-02 0. -1.
    5000001    1    1    2    0    0  0.31294811078E+03 -0.14902456703E+03  0.17419050749E+04  0.17864048062E+04  0.19200000000E+03 0.  0.
   -5000001    1    1    2    0    0 -0.31294811078E+03  0.14902456703E+03  0.95753253000E+03  0.10362805545E+04  0.19200000000E+03 0.  0.
<mgrwt>
<rscale>  0 0.82497834E+03</rscale>
<asrwt>0</asrwt>
<pdfrwt beam="1">  1        2 0.39443746E+00 0.82497834E+03</pdfrwt>
<pdfrwt beam="2">  1       -2 0.88034087E-02 0.82497834E+03</pdfrwt>
<totfact> 0.27851558E+02</totfact>
</mgrwt>
</event>
<event>
 4    1  0.5863356E-005  0.4490082E+03  0.7818608E-02  0.1028018E+00
          2   -1    0    0  501    0  0.00000000000E+00  0.00000000000E+00  0.79351588033E+03  0.79351588034E+03  0.25500000000E-02 0.  1.
         -2   -1    0    0    0  501 -0.00000000000E+00 -0.00000000000E+00 -0.63517421421E+02  0.63517421472E+02  0.25500000000E-02 0. -1.
    5000001    1    1    2    0    0  0.85587065492E+02 -0.76804081840E+02  0.33117276777E+03  0.39970415920E+03  0.19200000000E+03 0.  0.
   -5000001    1    1    2    0    0 -0.85587065492E+02  0.76804081840E+02  0.39882569114E+03  0.45732914261E+03  0.19200000000E+03 0.  0.
<mgrwt>
<rscale>  0 0.44900816E+03</rscale>
<asrwt>0</asrwt>
<pdfrwt beam="1">  1        2 0.11335941E+00 0.44900816E+03</pdfrwt>
<pdfrwt beam="2">  1       -2 0.90739176E-02 0.44900816E+03</pdfrwt>
<totfact> 0.30696169E+03</totfact>
</mgrwt>
</event>
<event>
 4    1  0.5863356E-005  0.5745070E+03  0.7818608E-02  0.9959755E-01
          2   -1    0    0  501    0  0.00000000000E+00  0.00000000000E+00  0.60506231401E+03  0.60506231402E+03  0.25500000000E-02 0.  1.
         -2   -1    0    0    0  501 -0.00000000000E+00 -0.00000000000E+00 -0.13637365633E+03  0.13637365635E+03  0.25500000000E-02 0. -1.
    5000001    1    1    2    0    0 -0.17179029968E+03 -0.16720722031E+01  0.70408310586E+02  0.26708806242E+03  0.19200000000E+03 0.  0.
   -5000001    1    1    2    0    0  0.17179029968E+03  0.16720722031E+01  0.39828034710E+03  0.47434790795E+03  0.19200000000E+03 0.  0.
<mgrwt>
<rscale>  0 0.57450695E+03</rscale>
<asrwt>0</asrwt>
<pdfrwt beam="1">  1        2 0.86437473E-01 0.57450695E+03</pdfrwt>
<pdfrwt beam="2">  1       -2 0.19481951E-01 0.57450695E+03</pdfrwt>
<totfact> 0.12013095E+03</totfact>
</mgrwt>
</event>
<event>
 4    1  0.5863356E-005  0.6638604E+03  0.7818608E-02  0.9781113E-01
          2   -1    0    0  501    0  0.00000000000E+00  0.00000000000E+00  0.38037357983E+04  0.38037357983E+04  0.25500000000E-02 0.  1.
         -2   -1    0    0    0  501 -0.00000000000E+00 -0.00000000000E+00 -0.28965643090E+02  0.28965643202E+02  0.25500000000E-02 0. -1.
    5000001    1    1    2    0    0  0.82010945005E+02  0.25735566477E+03  0.17784658087E+04  0.18090777667E+04  0.19200000000E+03 0.  0.
   -5000001    1    1    2    0    0 -0.82010945005E+02 -0.25735566477E+03  0.19963043465E+04  0.20236236748E+04  0.19200000000E+03 0.  0.
<mgrwt>
<rscale>  0 0.66386039E+03</rscale>
<asrwt>0</asrwt>
<pdfrwt beam="1">  1        2 0.54339049E+00 0.66386039E+03</pdfrwt>
<pdfrwt beam="2">  1       -2 0.41379516E-02 0.66386039E+03</pdfrwt>
<totfact> 0.23293355E+02</totfact>
</mgrwt>
</event>
<event>
 4    1  0.5863356E-005  0.5238334E+03  0.7818608E-02  0.1007739E+00
          2   -1    0    0  501    0  0.00000000000E+00  0.00000000000E+00  0.10598710887E+04  0.10598710887E+04  0.25500000000E-02 0.  1.
         -2   -1    0    0    0  501 -0.00000000000E+00 -0.00000000000E+00 -0.64725186686E+02  0.64725186736E+02  0.25500000000E-02 0. -1.
    5000001    1    1    2    0    0 -0.17687591399E+03 -0.14205434981E+02  0.46366408192E+03  0.53229246115E+03  0.19200000000E+03 0.  0.
   -5000001    1    1    2    0    0  0.17687591399E+03  0.14205434981E+02  0.53148182011E+03  0.59230381431E+03  0.19200000000E+03 0.  0.
<mgrwt>
<rscale>  0 0.52383339E+03</rscale>
<asrwt>0</asrwt>
<pdfrwt beam="1">  1        2 0.15141014E+00 0.52383339E+03</pdfrwt>
<pdfrwt beam="2">  1       -2 0.92464563E-02 0.52383339E+03</pdfrwt>
<totfact> 0.20206573E+03</totfact>
</mgrwt>
</event>
<event>
 4    1  0.5863356E-005  0.6549825E+03  0.7818608E-02  0.9797475E-01
          2   -1    0    0  501    0  0.00000000000E+00  0.00000000000E+00  0.34405226417E+03  0.34405226418E+03  0.25500000000E-02 0.  1.
         -2   -1    0    0    0  501 -0.00000000000E+00 -0.00000000000E+00 -0.31172737192E+03  0.31172737193E+03  0.25500000000E-02 0. -1.
    5000001    1    1    2    0    0  0.11425242294E+03  0.19993654767E+03 -0.11574868888E+03  0.32138761367E+03  0.19200000000E+03 0.  0.
   -5000001    1    1    2    0    0 -0.11425242294E+03 -0.19993654767E+03  0.14807358114E+03  0.33439202244E+03  0.19200000000E+03 0.  0.
<mgrwt>
<rscale>  0 0.65498247E+03</rscale>
<asrwt>0</asrwt>
<pdfrwt beam="1">  1        2 0.49150324E-01 0.65498247E+03</pdfrwt>
<pdfrwt beam="2">  1       -2 0.44532482E-01 0.65498247E+03</pdfrwt>
<totfact> 0.49316695E+02</totfact>
</mgrwt>
</event>
<event>
 4    1  0.5863356E-005  0.6560464E+03  0.7818608E-02  0.9795499E-01
          2   -1    0    0  501    0  0.00000000000E+00  0.00000000000E+00  0.59627458066E+03  0.59627458066E+03  0.25500000000E-02 0.  1.
         -2   -1    0    0    0  501 -0.00000000000E+00 -0.00000000000E+00 -0.18045246678E+03  0.18045246680E+03  0.25500000000E-02 0. -1.
    5000001    1    1    2    0    0 -0.21820920434E+03  0.15168790714E+03  0.19545191967E+03  0.38169350392E+03  0.19200000000E+03 0.  0.
   -5000001    1    1    2    0    0  0.21820920434E+03 -0.15168790714E+03  0.22037019420E+03  0.39503354354E+03  0.19200000000E+03 0.  0.
<mgrwt>
<rscale>  0 0.65604640E+03</rscale>
<asrwt>0</asrwt>
<pdfrwt beam="1">  1        2 0.85182083E-01 0.65604640E+03</pdfrwt>
<pdfrwt beam="2">  1       -2 0.25778924E-01 0.65604640E+03</pdfrwt>
<totfact> 0.74366571E+02</totfact>
</mgrwt>
</event>
<event>
 4    1  0.5863356E-005  0.4652326E+03  0.7818608E-02  0.1023274E+00
         -2   -1    0    0    0  501 -0.00000000000E+00  0.00000000000E+00  0.14888546748E+03  0.14888546750E+03  0.25500000000E-02 0.  1.
          2   -1    0    0  501    0  0.00000000000E+00 -0.00000000000E+00 -0.36343609116E+03  0.36343609117E+03  0.25500000000E-02 0. -1.
    5000001    1    1    2    0    0 -0.99643889792E+02  0.83199629307E+02 -0.12916900210E+03  0.26532944464E+03  0.19200000000E+03 0.  0.
   -5000001    1    1    2    0    0  0.99643889792E+02 -0.83199629307E+02 -0.85381621581E+02  0.24699211403E+03  0.19200000000E+03 0.  0.
<mgrwt>
<rscale>  0 0.46523264E+03</rscale>
<asrwt>0</asrwt>
<pdfrwt beam="1">  1        2 0.51919441E-01 0.46523264E+03</pdfrwt>
<pdfrwt beam="2">  1       -2 0.21269353E-01 0.46523264E+03</pdfrwt>
<totfact> 0.18315095E+03</totfact>
</mgrwt>
</event>
<event>
 4    1  0.5863356E-005  0.5298294E+03  0.7818608E-02  0.1006274E+00
          2   -1    0    0  501    0  0.00000000000E+00  0.00000000000E+00  0.75391390590E+03  0.75391390590E+03  0.25500000000E-02 0.  1.
         -2   -1    0    0    0  501 -0.00000000000E+00 -0.00000000000E+00 -0.93087290794E+02  0.93087290829E+02  0.25500000000E-02 0. -1.
    5000001    1    1    2    0    0 -0.57262089061E+02 -0.12128429896E+03  0.13249946071E+03  0.26908908396E+03  0.19200000000E+03 0.  0.
   -5000001    1    1    2    0    0  0.57262089061E+02  0.12128429896E+03  0.52832715439E+03  0.57791211277E+03  0.19200000000E+03 0.  0.
<mgrwt>
<rscale>  0 0.52982942E+03</rscale>
<asrwt>0</asrwt>
<pdfrwt beam="1">  1        2 0.10770198E+00 0.52982942E+03</pdfrwt>
<pdfrwt beam="2">  1       -2 0.13298185E-01 0.52982942E+03</pdfrwt>
<totfact> 0.17588263E+03</totfact>
</mgrwt>
</event>
<event>
 4    1  0.5863356E-005  0.7675416E+03  0.7818608E-02  0.9608225E-01
         -2   -1    0    0    0  501 -0.00000000000E+00  0.00000000000E+00  0.75247528096E+02  0.75247528139E+02  0.25500000000E-02 0. -1.
          2   -1    0    0  501    0  0.00000000000E+00 -0.00000000000E+00 -0.19572738832E+04  0.19572738832E+04  0.25500000000E-02 0.  1.
    5000001    1    1    2    0    0  0.14695099803E+03  0.29229791025E+03 -0.10950438292E+04  0.11588863844E+04  0.19200000000E+03 0.  0.
   -5000001    1    1    2    0    0 -0.14695099803E+03 -0.29229791025E+03 -0.78698252593E+03  0.87363502693E+03  0.19200000000E+03 0.  0.
<mgrwt>
<rscale>  0 0.76754159E+03</rscale>
<asrwt>0</asrwt>
<pdfrwt beam="1">  1        2 0.27961052E+00 0.76754159E+03</pdfrwt>
<pdfrwt beam="2">  1       -2 0.10749648E-01 0.76754159E+03</pdfrwt>
<totfact> 0.52399898E+02</totfact>
</mgrwt>
</event>
<event>
 4    1  0.5863356E-005  0.9862507E+03  0.7818608E-02  0.9323755E-01
          2   -1    0    0  501    0  0.00000000000E+00  0.00000000000E+00  0.23671886016E+04  0.23671886016E+04  0.25500000000E-02 0.  1.
         -2   -1    0    0    0  501 -0.00000000000E+00 -0.00000000000E+00 -0.10272634240E+03  0.10272634243E+03  0.25500000000E-02 0. -1.
    5000001    1    1    2    0    0 -0.28123407286E+03 -0.34961174316E+03  0.13090964713E+04  0.13971107851E+04  0.19200000000E+03 0.  0.
   -5000001    1    1    2    0    0  0.28123407286E+03  0.34961174316E+03  0.95536578793E+03  0.10728041589E+04  0.19200000000E+03 0.  0.
<mgrwt>
<rscale>  0 0.98625073E+03</rscale>
<asrwt>0</asrwt>
<pdfrwt beam="1">  1        2 0.33816981E+00 0.98625073E+03</pdfrwt>
<pdfrwt beam="2">  1       -2 0.14675191E-01 0.98625073E+03</pdfrwt>
<totfact> 0.18991641E+02</totfact>
</mgrwt>
</event>
<event>
 4    1  0.5863356E-005  0.4890957E+03  0.7818608E-02  0.1016665E+00
          2   -1    0    0  501    0  0.00000000000E+00  0.00000000000E+00  0.14921798909E+04  0.14921798909E+04  0.25500000000E-02 0.  1.
         -2   -1    0    0    0  501 -0.00000000000E+00 -0.00000000000E+00 -0.40078043640E+02  0.40078043721E+02  0.25500000000E-02 0. -1.
    5000001    1    1    2    0    0  0.12163792946E+03 -0.33211908906E+02  0.46317543707E+03  0.51700512790E+03  0.19200000000E+03 0.  0.
   -5000001    1    1    2    0    0 -0.12163792946E+03  0.33211908906E+02  0.98892641022E+03  0.10152528067E+04  0.19200000000E+03 0.  0.
<mgrwt>
<rscale>  0 0.48909570E+03</rscale>
<asrwt>0</asrwt>
<pdfrwt beam="1">  1        2 0.21316862E+00 0.48909570E+03</pdfrwt>
<pdfrwt beam="2">  1       -2 0.57254332E-02 0.48909570E+03</pdfrwt>
<totfact> 0.24992368E+03</totfact>
</mgrwt>
</event>
<event>
 4    1  0.5863356E-005  0.6692048E+03  0.7818608E-02  0.9771395E-01
         -2   -1    0    0    0  501 -0.00000000000E+00  0.00000000000E+00  0.30096312445E+03  0.30096312446E+03  0.25500000000E-02 0.  1.
          2   -1    0    0  501    0  0.00000000000E+00 -0.00000000000E+00 -0.37200164342E+03  0.37200164343E+03  0.25500000000E-02 0. -1.
    5000001    1    1    2    0    0  0.11798734445E+03 -0.19323309229E+03  0.11973317823E+03  0.32009385401E+03  0.19200000000E+03 0.  0.
   -5000001    1    1    2    0    0 -0.11798734445E+03  0.19323309229E+03 -0.19077169720E+03  0.35287091388E+03  0.19200000000E+03 0.  0.
<mgrwt>
<rscale>  0 0.66920483E+03</rscale>
<asrwt>0</asrwt>
<pdfrwt beam="1">  1        2 0.53143092E-01 0.66920483E+03</pdfrwt>
<pdfrwt beam="2">  1       -2 0.42994732E-01 0.66920483E+03</pdfrwt>
<totfact> 0.48462979E+02</totfact>
</mgrwt>
</event>
<event>
 4    1  0.5863356E-005  0.5750240E+03  0.7818608E-02  0.9958622E-01
         -2   -1    0    0    0  501 -0.00000000000E+00  0.00000000000E+00  0.13100634496E+03  0.13100634498E+03  0.25500000000E-02 0. -1.
          2   -1    0    0  501    0  0.00000000000E+00 -0.00000000000E+00 -0.63098581421E+03  0.63098581421E+03  0.25500000000E-02 0.  1.
    5000001    1    1    2    0    0  0.17184690581E+03  0.11625774495E+03 -0.18047406999E+03  0.33538353006E+03  0.19200000000E+03 0.  0.
   -5000001    1    1    2    0    0 -0.17184690581E+03 -0.11625774495E+03 -0.31950539926E+03  0.42660862914E+03  0.19200000000E+03 0.  0.
<mgrwt>
<rscale>  0 0.57502398E+03</rscale>
<asrwt>0</asrwt>
<pdfrwt beam="1">  1        2 0.90140829E-01 0.57502398E+03</pdfrwt>
<pdfrwt beam="2">  1       -2 0.18715192E-01 0.57502398E+03</pdfrwt>
<totfact> 0.12253831E+03</totfact>
</mgrwt>
</event>
<event>
 4    1  0.5863356E-005  0.6926474E+03  0.7818608E-02  0.9729889E-01
          2   -1    0    0  501    0  0.00000000000E+00  0.00000000000E+00  0.83502329725E+03  0.83502329726E+03  0.25500000000E-02 0.  1.
         -2   -1    0    0    0  501 -0.00000000000E+00 -0.00000000000E+00 -0.14363684521E+03  0.14363684523E+03  0.25500000000E-02 0. -1.
    5000001    1    1    2    0    0 -0.24126399172E+03 -0.14751862382E+03  0.42443844292E+03  0.54496059482E+03  0.19200000000E+03 0.  0.
   -5000001    1    1    2    0    0  0.24126399172E+03  0.14751862382E+03  0.26694800912E+03  0.43369954767E+03  0.19200000000E+03 0.  0.
<mgrwt>
<rscale>  0 0.69264742E+03</rscale>
<asrwt>0</asrwt>
<pdfrwt beam="1">  1        2 0.11928904E+00 0.69264742E+03</pdfrwt>
<pdfrwt beam="2">  1       -2 0.20519550E-01 0.69264742E+03</pdfrwt>
<totfact> 0.73568064E+02</totfact>
</mgrwt>
</event>
<event>
 4    1  0.5863356E-005  0.7290897E+03  0.7818608E-02  0.9668739E-01
          2   -1    0    0  501    0  0.00000000000E+00  0.00000000000E+00  0.70747692056E+03  0.70747692056E+03  0.25500000000E-02 0.  1.
         -2   -1    0    0    0  501 -0.00000000000E+00 -0.00000000000E+00 -0.18784069242E+03  0.18784069244E+03  0.25500000000E-02 0. -1.
    5000001    1    1    2    0    0 -0.19733813239E+03 -0.15898131135E+03  0.40795665914E+02  0.32053967338E+03  0.19200000000E+03 0.  0.
   -5000001    1    1    2    0    0  0.19733813239E+03  0.15898131135E+03  0.47884056222E+03  0.57477793963E+03  0.19200000000E+03 0.  0.
<mgrwt>
<rscale>  0 0.72908972E+03</rscale>
<asrwt>0</asrwt>
<pdfrwt beam="1">  1        2 0.10106813E+00 0.72908972E+03</pdfrwt>
<pdfrwt beam="2">  1       -2 0.26834385E-01 0.72908972E+03</pdfrwt>
<totfact> 0.56164726E+02</totfact>
</mgrwt>
</event>
<event>
 4    1  0.5863356E-005  0.8609105E+03  0.7818608E-02  0.9475809E-01
         -2   -1    0    0    0  501 -0.00000000000E+00  0.00000000000E+00  0.18437535608E+03  0.18437535610E+03  0.25500000000E-02 0. -1.
          2   -1    0    0  501    0  0.00000000000E+00 -0.00000000000E+00 -0.10049701217E+04  0.10049701217E+04  0.25500000000E-02 0.  1.
    5000001    1    1    2    0    0 -0.24049113344E+03 -0.26826060591E+03 -0.59885017647E+03  0.72476566682E+03  0.19200000000E+03 0.  0.
   -5000001    1    1    2    0    0  0.24049113344E+03  0.26826060591E+03 -0.22174458914E+03  0.46457981097E+03  0.19200000000E+03 0.  0.
<mgrwt>
<rscale>  0 0.86091050E+03</rscale>
<asrwt>0</asrwt>
<pdfrwt beam="1">  1        2 0.14356716E+00 0.86091050E+03</pdfrwt>
<pdfrwt beam="2">  1       -2 0.26339337E-01 0.86091050E+03</pdfrwt>
<totfact> 0.36385426E+02</totfact>
</mgrwt>
</event>
<event>
 4    1  0.5863356E-005  0.5198056E+03  0.7818608E-02  0.1008735E+00
          2   -1    0    0  501    0  0.00000000000E+00  0.00000000000E+00  0.76436381080E+03  0.76436381080E+03  0.25500000000E-02 0.  1.
         -2   -1    0    0    0  501 -0.00000000000E+00 -0.00000000000E+00 -0.88373441010E+02  0.88373441047E+02  0.25500000000E-02 0. -1.
    5000001    1    1    2    0    0  0.12800082344E+03 -0.29431773493E+02  0.52814392770E+03  0.57710523170E+03  0.19200000000E+03 0.  0.
   -5000001    1    1    2    0    0 -0.12800082344E+03  0.29431773493E+02  0.14784644208E+03  0.27563202014E+03  0.19200000000E+03 0.  0.
<mgrwt>
<rscale>  0 0.51980558E+03</rscale>
<asrwt>0</asrwt>
<pdfrwt beam="1">  1        2 0.10919483E+00 0.51980558E+03</pdfrwt>
<pdfrwt beam="2">  1       -2 0.12624777E-01 0.51980558E+03</pdfrwt>
<totfact> 0.18840096E+03</totfact>
</mgrwt>
</event>
<event>
 4    1  0.5863356E-005  0.7900549E+03  0.7818608E-02  0.9574525E-01
          2   -1    0    0  501    0  0.00000000000E+00  0.00000000000E+00  0.35244542100E+03  0.35244542101E+03  0.25500000000E-02 0.  1.
         -2   -1    0    0    0  501 -0.00000000000E+00 -0.00000000000E+00 -0.44275417558E+03  0.44275417559E+03  0.25500000000E-02 0. -1.
    5000001    1    1    2    0    0 -0.11271926492E+03 -0.19483775145E+03 -0.30861315178E+03  0.42752012762E+03  0.19200000000E+03 0.  0.
   -5000001    1    1    2    0    0  0.11271926492E+03  0.19483775145E+03  0.21830439720E+03  0.36767946898E+03  0.19200000000E+03 0.  0.
<mgrwt>
<rscale>  0 0.79005489E+03</rscale>
<asrwt>0</asrwt>
<pdfrwt beam="1">  1        2 0.50349346E-01 0.79005489E+03</pdfrwt>
<pdfrwt beam="2">  1       -2 0.63250596E-01 0.79005489E+03</pdfrwt>
<totfact> 0.23237705E+02</totfact>
</mgrwt>
</event>
<event>
 4    1  0.5863356E-005  0.1021414E+04  0.7818608E-02  0.9285365E-01
         -2   -1    0    0    0  501 -0.00000000000E+00  0.00000000000E+00  0.13645364888E+03  0.13645364891E+03  0.25500000000E-02 0. -1.
          2   -1    0    0  501    0  0.00000000000E+00 -0.00000000000E+00 -0.19114297895E+04  0.19114297895E+04  0.25500000000E-02 0.  1.
    5000001    1    1    2    0    0  0.41537979263E+03 -0.22096124518E+03 -0.98958953978E+03  0.11124368302E+04  0.19200000000E+03 0.  0.
   -5000001    1    1    2    0    0 -0.41537979263E+03  0.22096124518E+03 -0.78538660087E+03  0.93544660822E+03  0.19200000000E+03 0.  0.
<mgrwt>
<rscale>  0 0.10214139E+04</rscale>
<asrwt>0</asrwt>
<pdfrwt beam="1">  1        2 0.27306138E+00 0.10214139E+04</pdfrwt>
<pdfrwt beam="2">  1       -2 0.19493380E-01 0.10214139E+04</pdfrwt>
<totfact> 0.19885230E+02</totfact>
</mgrwt>
</event>
<event>
 4    1  0.5863356E-005  0.6492946E+03  0.7818608E-02  0.9808104E-01
         -2   -1    0    0    0  501 -0.00000000000E+00  0.00000000000E+00  0.45257452516E+02  0.45257452588E+02  0.25500000000E-02 0. -1.
          2   -1    0    0  501    0  0.00000000000E+00 -0.00000000000E+00 -0.23288069732E+04  0.23288069732E+04  0.25500000000E-02 0.  1.
    5000001    1    1    2    0    0  0.21460582371E+03 -0.86915804050E+02 -0.15884193801E+04  0.16166478106E+04  0.19200000000E+03 0.  0.
   -5000001    1    1    2    0    0 -0.21460582371E+03  0.86915804050E+02 -0.69513014062E+03  0.75741661519E+03  0.19200000000E+03 0.  0.
<mgrwt>
<rscale>  0 0.64929461E+03</rscale>
<asrwt>0</asrwt>
<pdfrwt beam="1">  1        2 0.33268663E+00 0.64929461E+03</pdfrwt>
<pdfrwt beam="2">  1       -2 0.64653518E-02 0.64929461E+03</pdfrwt>
<totfact> 0.77448108E+02</totfact>
</mgrwt>
</event>
<event>
 4    1  0.5863356E-005  0.6240163E+03  0.7818608E-02  0.9856796E-01
         -2   -1    0    0    0  501 -0.00000000000E+00  0.00000000000E+00  0.59721919797E+03  0.59721919797E+03  0.25500000000E-02 0. -1.
          2   -1    0    0  501    0  0.00000000000E+00 -0.00000000000E+00 -0.16300392719E+03  0.16300392721E+03  0.25500000000E-02 0.  1.
    5000001    1    1    2    0    0 -0.18904655978E+03  0.75503707728E+02  0.38523686181E+03  0.47614162950E+03  0.19200000000E+03 0.  0.
   -5000001    1    1    2    0    0  0.18904655978E+03 -0.75503707728E+02  0.48978408965E+02  0.28408149568E+03  0.19200000000E+03 0.  0.
<mgrwt>
<rscale>  0 0.62401626E+03</rscale>
<asrwt>0</asrwt>
<pdfrwt beam="1">  1        2 0.23286275E-01 0.62401626E+03</pdfrwt>
<pdfrwt beam="2">  1       -2 0.85317028E-01 0.62401626E+03</pdfrwt>
<totfact> 0.28720076E+02</totfact>
</mgrwt>
</event>
<event>
 4    1  0.5863356E-005  0.7464198E+03  0.7818608E-02  0.9640984E-01
         -2   -1    0    0    0  501 -0.00000000000E+00  0.00000000000E+00  0.24036822652E+03  0.24036822653E+03  0.25500000000E-02 0. -1.
          2   -1    0    0  501    0  0.00000000000E+00 -0.00000000000E+00 -0.57946767143E+03  0.57946767144E+03  0.25500000000E-02 0.  1.
    5000001    1    1    2    0    0 -0.19356205966E+03  0.10627983562E+03  0.84880618306E+02  0.30468080636E+03  0.19200000000E+03 0.  0.
   -5000001    1    1    2    0    0  0.19356205966E+03 -0.10627983562E+03 -0.42398006323E+03  0.51515509161E+03  0.19200000000E+03 0.  0.
<mgrwt>
<rscale>  0 0.74641977E+03</rscale>
<asrwt>0</asrwt>
<pdfrwt beam="1">  1        2 0.82781095E-01 0.74641977E+03</pdfrwt>
<pdfrwt beam="2">  1       -2 0.34338318E-01 0.74641977E+03</pdfrwt>
<totfact> 0.45143130E+02</totfact>
</mgrwt>
</event>
<event>
 4    1  0.5863356E-005  0.8824489E+03  0.7818608E-02  0.9447791E-01
         -2   -1    0    0    0  501 -0.00000000000E+00  0.00000000000E+00  0.13337785846E+03  0.13337785849E+03  0.25500000000E-02 0. -1.
          2   -1    0    0  501    0  0.00000000000E+00 -0.00000000000E+00 -0.14596053131E+04  0.14596053131E+04  0.25500000000E-02 0.  1.
    5000001    1    1    2    0    0 -0.66938991479E+02 -0.38275191436E+03 -0.51386989129E+03  0.67223963116E+03  0.19200000000E+03 0.  0.
   -5000001    1    1    2    0    0  0.66938991479E+02  0.38275191436E+03 -0.81235756340E+03  0.92074354048E+03  0.19200000000E+03 0.  0.
<mgrwt>
<rscale>  0 0.88244894E+03</rscale>
<asrwt>0</asrwt>
<pdfrwt beam="1">  1        2 0.20851504E+00 0.88244894E+03</pdfrwt>
<pdfrwt beam="2">  1       -2 0.19053981E-01 0.88244894E+03</pdfrwt>
<totfact> 0.35786587E+02</totfact>
</mgrwt>
</event>
<event>
 4    1  0.5863356E-005  0.1115871E+04  0.7818608E-02  0.9189859E-01
          2   -1    0    0  501    0  0.00000000000E+00  0.00000000000E+00  0.55590500098E+03  0.55590500098E+03  0.25500000000E-02 0.  1.
         -2   -1    0    0    0  501 -0.00000000000E+00 -0.00000000000E+00 -0.55997359432E+03  0.55997359432E+03  0.25500000000E-02 0. -1.
    5000001    1    1    2    0    0  0.75686474242E+02  0.47820026748E+03  0.19802748225E+03  0.55720985448E+03  0.19200000000E+03 0.  0.
   -5000001    1    1    2    0    0 -0.75686474242E+02 -0.47820026748E+03 -0.20209607559E+03  0.55866874082E+03  0.19200000000E+03 0.  0.
<mgrwt>
<rscale>  0 0.11158712E+04</rscale>
<asrwt>0</asrwt>
<pdfrwt beam="1">  1        2 0.79415001E-01 0.11158712E+04</pdfrwt>
<pdfrwt beam="2">  1       -2 0.79996227E-01 0.11158712E+04</pdfrwt>
<totfact> 0.81519047E+01</totfact>
</mgrwt>
</event>
<event>
 4    1  0.5863356E-005  0.7780872E+03  0.7818608E-02  0.9592288E-01
          2   -1    0    0  501    0  0.00000000000E+00  0.00000000000E+00  0.80564817178E+03  0.80564817179E+03  0.25500000000E-02 0.  1.
         -2   -1    0    0    0  501 -0.00000000000E+00 -0.00000000000E+00 -0.18786728972E+03  0.18786728974E+03  0.25500000000E-02 0. -1.
    5000001    1    1    2    0    0  0.33280015475E+03 -0.40685795373E+02  0.25066099352E+03  0.46054990025E+03  0.19200000000E+03 0.  0.
   -5000001    1    1    2    0    0 -0.33280015475E+03  0.40685795373E+02  0.36711988854E+03  0.53296556128E+03  0.19200000000E+03 0.  0.
<mgrwt>
<rscale>  0 0.77808724E+03</rscale>
<asrwt>0</asrwt>
<pdfrwt beam="1">  1        2 0.11509260E+00 0.77808724E+03</pdfrwt>
<pdfrwt beam="2">  1       -2 0.26838184E-01 0.77808724E+03</pdfrwt>
<totfact> 0.47579329E+02</totfact>
</mgrwt>
</event>
<event>
 4    1  0.5863356E-005  0.4936900E+03  0.7818608E-02  0.1015439E+00
         -2   -1    0    0    0  501 -0.00000000000E+00  0.00000000000E+00  0.61098138359E+02  0.61098138413E+02  0.25500000000E-02 0. -1.
          2   -1    0    0  501    0  0.00000000000E+00 -0.00000000000E+00 -0.99728810407E+03  0.99728810407E+03  0.25500000000E-02 0.  1.
    5000001    1    1    2    0    0 -0.10311361868E+03 -0.10118377069E+03 -0.58932787721E+03  0.63642903820E+03  0.19200000000E+03 0.  0.
   -5000001    1    1    2    0    0  0.10311361868E+03  0.10118377069E+03 -0.34686208850E+03  0.42195720429E+03  0.19200000000E+03 0.  0.
<mgrwt>
<rscale>  0 0.49368997E+03</rscale>
<asrwt>0</asrwt>
<pdfrwt beam="1">  1        2 0.14246972E+00 0.49368997E+03</pdfrwt>
<pdfrwt beam="2">  1       -2 0.87283061E-02 0.49368997E+03</pdfrwt>
<totfact> 0.24157086E+03</totfact>
</mgrwt>
</event>
<event>
 4    1  0.5863356E-005  0.4828879E+03  0.7818608E-02  0.1018345E+00
          2   -1    0    0  501    0  0.00000000000E+00  0.00000000000E+00  0.40887725142E+03  0.40887725143E+03  0.25500000000E-02 0.  1.
         -2   -1    0    0    0  501 -0.00000000000E+00 -0.00000000000E+00 -0.14257377886E+03  0.14257377888E+03  0.25500000000E-02 0. -1.
    5000001    1    1    2    0    0  0.66929839369E+02  0.10582394254E+03  0.21976865482E+03  0.31755404556E+03  0.19200000000E+03 0.  0.
   -5000001    1    1    2    0    0 -0.66929839369E+02 -0.10582394254E+03  0.46534817742E+02  0.23389698475E+03  0.19200000000E+03 0.  0.
<mgrwt>
<rscale>  0 0.48288787E+03</rscale>
<asrwt>0</asrwt>
<pdfrwt beam="1">  1        2 0.58411037E-01 0.48288787E+03</pdfrwt>
<pdfrwt beam="2">  1       -2 0.20367682E-01 0.48288787E+03</pdfrwt>
<totfact> 0.17351017E+03</totfact>
</mgrwt>
</event>
<event>
 4    1  0.5863356E-005  0.1642377E+04  0.7818608E-02  0.8794929E-01
         -2   -1    0    0    0  501 -0.00000000000E+00  0.00000000000E+00  0.10684749283E+04  0.10684749283E+04  0.25500000000E-02 0. -1.
          2   -1    0    0  501    0  0.00000000000E+00 -0.00000000000E+00 -0.63113369925E+03  0.63113369926E+03  0.25500000000E-02 0.  1.
    5000001    1    1    2    0    0 -0.66525220386E+03  0.52309577259E+02 -0.23500056069E+03  0.73306619765E+03  0.19200000000E+03 0.  0.
   -5000001    1    1    2    0    0  0.66525220386E+03 -0.52309577259E+02  0.67234178976E+03  0.96654242994E+03  0.19200000000E+03 0.  0.
<mgrwt>
<rscale>  0 0.16423770E+04</rscale>
<asrwt>0</asrwt>
<pdfrwt beam="1">  1        2 0.90161957E-01 0.16423770E+04</pdfrwt>
<pdfrwt beam="2">  1       -2 0.15263928E+00 0.16423770E+04</pdfrwt>
<totfact> 0.13989354E+01</totfact>
</mgrwt>
</event>
<event>
 4    1  0.5863356E-005  0.1088246E+04  0.7818608E-02  0.9216724E-01
         -2   -1    0    0    0  501 -0.00000000000E+00  0.00000000000E+00  0.25762883402E+03  0.25762883403E+03  0.25500000000E-02 0. -1.
          2   -1    0    0  501    0  0.00000000000E+00 -0.00000000000E+00 -0.11492117845E+04  0.11492117845E+04  0.25500000000E-02 0.  1.
    5000001    1    1    2    0    0  0.47104053071E+03 -0.18314442175E+03 -0.36625755823E+03  0.65301581891E+03  0.19200000000E+03 0.  0.
   -5000001    1    1    2    0    0 -0.47104053071E+03  0.18314442175E+03 -0.52532539227E+03  0.75382479964E+03  0.19200000000E+03 0.  0.
<mgrwt>
<rscale>  0 0.10882465E+04</rscale>
<asrwt>0</asrwt>
<pdfrwt beam="1">  1        2 0.16417311E+00 0.10882465E+04</pdfrwt>
<pdfrwt beam="2">  1       -2 0.36804120E-01 0.10882465E+04</pdfrwt>
<totfact> 0.15771001E+02</totfact>
</mgrwt>
</event>
<event>
 4    1  0.5863356E-005  0.9661766E+03  0.7818608E-02  0.9346440E-01
         -2   -1    0    0    0  501 -0.00000000000E+00  0.00000000000E+00  0.70386519393E+02  0.70386519440E+02  0.25500000000E-02 0. -1.
          2   -1    0    0  501    0  0.00000000000E+00 -0.00000000000E+00 -0.33156111243E+04  0.33156111243E+04  0.25500000000E-02 0.  1.
    5000001    1    1    2    0    0  0.31704632716E+03  0.25632152429E+03 -0.10126702641E+04  0.11084151574E+04  0.19200000000E+03 0.  0.
   -5000001    1    1    2    0    0 -0.31704632716E+03 -0.25632152429E+03 -0.22325543408E+04  0.22775824864E+04  0.19200000000E+03 0.  0.
<mgrwt>
<rscale>  0 0.96617664E+03</rscale>
<asrwt>0</asrwt>
<pdfrwt beam="1">  1        2 0.47365863E+00 0.96617664E+03</pdfrwt>
<pdfrwt beam="2">  1       -2 0.10055219E-01 0.96617664E+03</pdfrwt>
<totfact> 0.10909146E+02</totfact>
</mgrwt>
</event>
<event>
 4    1  0.5863356E-005  0.5789700E+03  0.7818608E-02  0.9950024E-01
          2   -1    0    0  501    0  0.00000000000E+00  0.00000000000E+00  0.19045349589E+04  0.19045349589E+04  0.25500000000E-02 0.  1.
         -2   -1    0    0    0  501 -0.00000000000E+00 -0.00000000000E+00 -0.44001057564E+02  0.44001057638E+02  0.25500000000E-02 0. -1.
    5000001    1    1    2    0    0 -0.85356149084E+02  0.19777999752E+03  0.85242563755E+03  0.89994225768E+03  0.19200000000E+03 0.  0.
   -5000001    1    1    2    0    0  0.85356149084E+02 -0.19777999752E+03  0.10081082638E+04  0.10485937589E+04  0.19200000000E+03 0.  0.
<mgrwt>
<rscale>  0 0.57896996E+03</rscale>
<asrwt>0</asrwt>
<pdfrwt beam="1">  1        2 0.27207642E+00 0.57896996E+03</pdfrwt>
<pdfrwt beam="2">  1       -2 0.62858653E-02 0.57896996E+03</pdfrwt>
<totfact> 0.13297727E+03</totfact>
</mgrwt>
</event>
<event>
 4    1  0.5863356E-005  0.5349512E+03  0.7818608E-02  0.1005038E+00
          2   -1    0    0  501    0  0.00000000000E+00  0.00000000000E+00  0.10937725373E+04  0.10937725373E+04  0.25500000000E-02 0.  1.
         -2   -1    0    0    0  501 -0.00000000000E+00 -0.00000000000E+00 -0.65409576670E+02  0.65409576719E+02  0.25500000000E-02 0. -1.
    5000001    1    1    2    0    0  0.53562070866E+02  0.67281070685E+02  0.87210317546E+03  0.89711960549E+03  0.19200000000E+03 0.  0.
   -5000001    1    1    2    0    0 -0.53562070866E+02 -0.67281070685E+02  0.15625978513E+03  0.26206250849E+03  0.19200000000E+03 0.  0.
<mgrwt>
<rscale>  0 0.53495121E+03</rscale>
<asrwt>0</asrwt>
<pdfrwt beam="1">  1        2 0.15625324E+00 0.53495121E+03</pdfrwt>
<pdfrwt beam="2">  1       -2 0.93442243E-02 0.53495121E+03</pdfrwt>
<totfact> 0.18978871E+03</totfact>
</mgrwt>
</event>
<event>
 4    1  0.5863356E-005  0.1276525E+04  0.7818608E-02  0.9048391E-01
          2   -1    0    0  501    0  0.00000000000E+00  0.00000000000E+00  0.31702821626E+04  0.31702821626E+04  0.25500000000E-02 0.  1.
         -2   -1    0    0    0  501 -0.00000000000E+00 -0.00000000000E+00 -0.12849930051E+03  0.12849930054E+03  0.25500000000E-02 0. -1.
    5000001    1    1    2    0    0  0.36775367264E+03 -0.39637717063E+03  0.22433439397E+04  0.23155590377E+04  0.19200000000E+03 0.  0.
   -5000001    1    1    2    0    0 -0.36775367264E+03  0.39637717063E+03  0.79843892232E+03  0.98322242541E+03  0.19200000000E+03 0.  0.
<mgrwt>
<rscale>  0 0.12765250E+04</rscale>
<asrwt>0</asrwt>
<pdfrwt beam="1">  1        2 0.45289741E+00 0.12765250E+04</pdfrwt>
<pdfrwt beam="2">  1       -2 0.18357044E-01 0.12765250E+04</pdfrwt>
<totfact> 0.46575668E+01</totfact>
</mgrwt>
</event>
<event>
 4    1  0.5863356E-005  0.7422694E+03  0.7818608E-02  0.9647557E-01
         -2   -1    0    0    0  501 -0.00000000000E+00  0.00000000000E+00  0.61242205639E+02  0.61242205692E+02  0.25500000000E-02 0. -1.
          2   -1    0    0  501    0  0.00000000000E+00 -0.00000000000E+00 -0.22491184096E+04  0.22491184096E+04  0.25500000000E-02 0.  1.
    5000001    1    1    2    0    0  0.97198014135E+02  0.29994356390E+03 -0.12130064361E+04  0.12679362008E+04  0.19200000000E+03 0.  0.
   -5000001    1    1    2    0    0 -0.97198014135E+02 -0.29994356390E+03 -0.97486976785E+03  0.10424244144E+04  0.19200000000E+03 0.  0.
<mgrwt>
<rscale>  0 0.74226942E+03</rscale>
<asrwt>0</asrwt>
<pdfrwt beam="1">  1        2 0.32130258E+00 0.74226942E+03</pdfrwt>
<pdfrwt beam="2">  1       -2 0.87488879E-02 0.74226942E+03</pdfrwt>
<totfact> 0.52176672E+02</totfact>
</mgrwt>
</event>
<event>
 4    1  0.5863356E-005  0.9032366E+03  0.7818608E-02  0.9421544E-01
          2   -1    0    0  501    0  0.00000000000E+00  0.00000000000E+00  0.19462729482E+04  0.19462729482E+04  0.25500000000E-02 0.  1.
         -2   -1    0    0    0  501 -0.00000000000E+00 -0.00000000000E+00 -0.10479470784E+03  0.10479470788E+03  0.25500000000E-02 0. -1.
    5000001    1    1    2    0    0 -0.15402024022E+03 -0.24075729394E+03  0.15843748216E+04  0.16213555700E+04  0.19200000000E+03 0.  0.
   -5000001    1    1    2    0    0  0.15402024022E+03  0.24075729394E+03  0.25710341869E+03  0.42971208604E+03  0.19200000000E+03 0.  0.
<mgrwt>
<rscale>  0 0.90323664E+03</rscale>
<asrwt>0</asrwt>
<pdfrwt beam="1">  1        2 0.27803902E+00 0.90323664E+03</pdfrwt>
<pdfrwt beam="2">  1       -2 0.14970671E-01 0.90323664E+03</pdfrwt>
<totfact> 0.30307252E+02</totfact>
</mgrwt>
</event>
<event>
 4    1  0.5863356E-005  0.5635567E+03  0.7818608E-02  0.9984039E-01
          2   -1    0    0  501    0  0.00000000000E+00  0.00000000000E+00  0.20714038846E+04  0.20714038846E+04  0.25500000000E-02 0.  1.
         -2   -1    0    0    0  501 -0.00000000000E+00 -0.00000000000E+00 -0.38331032139E+02  0.38331032224E+02  0.25500000000E-02 0. -1.
    5000001    1    1    2    0    0  0.77921725152E+02 -0.18999713882E+03  0.94507951452E+03  0.98600709773E+03  0.19200000000E+03 0.  0.
   -5000001    1    1    2    0    0 -0.77921725152E+02  0.18999713882E+03  0.10879933380E+04  0.11237278191E+04  0.19200000000E+03 0.  0.
<mgrwt>
<rscale>  0 0.56355674E+03</rscale>
<asrwt>0</asrwt>
<pdfrwt beam="1">  1        2 0.29591486E+00 0.56355674E+03</pdfrwt>
<pdfrwt beam="2">  1       -2 0.54758614E-02 0.56355674E+03</pdfrwt>
<totfact> 0.13616019E+03</totfact>
</mgrwt>
</event>
<event>
 4    1  0.5863356E-005  0.1222216E+04  0.7818608E-02  0.9093631E-01
         -2   -1    0    0    0  501 -0.00000000000E+00  0.00000000000E+00  0.16939201078E+03  0.16939201080E+03  0.25500000000E-02 0. -1.
          2   -1    0    0  501    0  0.00000000000E+00 -0.00000000000E+00 -0.22046654669E+04  0.22046654669E+04  0.25500000000E-02 0.  1.
    5000001    1    1    2    0    0  0.19853117347E+03 -0.33553892569E+03 -0.18310121236E+03  0.47158355725E+03  0.19200000000E+03 0.  0.
   -5000001    1    1    2    0    0 -0.19853117347E+03  0.33553892569E+03 -0.18521722438E+04  0.19024739205E+04  0.19200000000E+03 0.  0.
<mgrwt>
<rscale>  0 0.12222156E+04</rscale>
<asrwt>0</asrwt>
<pdfrwt beam="1">  1        2 0.31495219E+00 0.12222156E+04</pdfrwt>
<pdfrwt beam="2">  1       -2 0.24198860E-01 0.12222156E+04</pdfrwt>
<totfact> 0.94477380E+01</totfact>
</mgrwt>
</event>
<event>
 4    1  0.5863356E-005  0.5875969E+03  0.7818608E-02  0.9931478E-01
          2   -1    0    0  501    0  0.00000000000E+00  0.00000000000E+00  0.92615307800E+03  0.92615307800E+03  0.25500000000E-02 0. -1.
         -2   -1    0    0    0  501 -0.00000000000E+00 -0.00000000000E+00 -0.93200079113E+02  0.93200079148E+02  0.25500000000E-02 0.  1.
    5000001    1    1    2    0    0  0.15677178248E+03  0.13774548138E+03  0.54975402463E+03  0.61858281339E+03  0.19200000000E+03 0.  0.
   -5000001    1    1    2    0    0 -0.15677178248E+03 -0.13774548138E+03  0.28319897425E+03  0.40077034376E+03  0.19200000000E+03 0.  0.
<mgrwt>
<rscale>  0 0.58759694E+03</rscale>
<asrwt>0</asrwt>
<pdfrwt beam="1">  1        2 0.13230759E+00 0.58759694E+03</pdfrwt>
<pdfrwt beam="2">  1       -2 0.13314296E-01 0.58759694E+03</pdfrwt>
<totfact> 0.13434958E+03</totfact>
</mgrwt>
</event>
<event>
 4    1  0.5863356E-005  0.7274739E+03  0.7818608E-02  0.9671368E-01
          2   -1    0    0  501    0  0.00000000000E+00  0.00000000000E+00  0.80719053993E+03  0.80719053993E+03  0.25500000000E-02 0. -1.
         -2   -1    0    0    0  501 -0.00000000000E+00 -0.00000000000E+00 -0.16390749386E+03  0.16390749388E+03  0.25500000000E-02 0.  1.
    5000001    1    1    2    0    0 -0.87825111924E+02  0.10614961192E+03  0.69075645937E+03  0.73006128274E+03  0.19200000000E+03 0.  0.
   -5000001    1    1    2    0    0  0.87825111924E+02 -0.10614961192E+03 -0.47473413299E+02  0.24103675107E+03  0.19200000000E+03 0.  0.
<mgrwt>
<rscale>  0 0.72747393E+03</rscale>
<asrwt>0</asrwt>
<pdfrwt beam="1">  1        2 0.11531293E+00 0.72747393E+03</pdfrwt>
<pdfrwt beam="2">  1       -2 0.23415356E-01 0.72747393E+03</pdfrwt>
<totfact> 0.60806300E+02</totfact>
</mgrwt>
</event>
<event>
 4    1  0.5863356E-005  0.1178785E+04  0.7818608E-02  0.9131631E-01
         -2   -1    0    0    0  501 -0.00000000000E+00  0.00000000000E+00  0.36404651646E+03  0.36404651647E+03  0.25500000000E-02 0.  1.
          2   -1    0    0  501    0  0.00000000000E+00 -0.00000000000E+00 -0.95422903006E+03  0.95422903006E+03  0.25500000000E-02 0. -1.
    5000001    1    1    2    0    0 -0.24542395295E+03 -0.49731810796E+03 -0.35595098916E+03  0.68638423924E+03  0.19200000000E+03 0.  0.
   -5000001    1    1    2    0    0  0.24542395295E+03  0.49731810796E+03 -0.23423152444E+03  0.63189130729E+03  0.19200000000E+03 0.  0.
<mgrwt>
<rscale>  0 0.11787854E+04</rscale>
<asrwt>0</asrwt>
<pdfrwt beam="1">  1        2 0.13631843E+00 0.11787854E+04</pdfrwt>
<pdfrwt beam="2">  1       -2 0.52006645E-01 0.11787854E+04</pdfrwt>
<totfact> 0.10350537E+02</totfact>
</mgrwt>
</event>
<event>
 4    1  0.5863356E-005  0.7375321E+03  0.7818608E-02  0.9655116E-01
         -2   -1    0    0    0  501 -0.00000000000E+00  0.00000000000E+00  0.14934711665E+03  0.14934711668E+03  0.25500000000E-02 0. -1.
          2   -1    0    0  501    0  0.00000000000E+00 -0.00000000000E+00 -0.91055266659E+03  0.91055266659E+03  0.25500000000E-02 0.  1.
    5000001    1    1    2    0    0  0.24519090028E+03  0.26025390692E+01 -0.66440183070E+03  0.73377049779E+03  0.19200000000E+03 0.  0.
   -5000001    1    1    2    0    0 -0.24519090028E+03 -0.26025390692E+01 -0.96803719229E+02  0.32612928548E+03  0.19200000000E+03 0.  0.
<mgrwt>
<rscale>  0 0.73753214E+03</rscale>
<asrwt>0</asrwt>
<pdfrwt beam="1">  1        2 0.13007895E+00 0.73753214E+03</pdfrwt>
<pdfrwt beam="2">  1       -2 0.21335303E-01 0.73753214E+03</pdfrwt>
<totfact> 0.61145431E+02</totfact>
</mgrwt>
</event>
<event>
 4    1  0.5863356E-005  0.5277868E+03  0.7818608E-02  0.1006770E+00
         -2   -1    0    0    0  501 -0.00000000000E+00  0.00000000000E+00  0.36442505842E+02  0.36442505931E+02  0.25500000000E-02 0. -1.
          2   -1    0    0  501    0  0.00000000000E+00 -0.00000000000E+00 -0.19109475030E+04  0.19109475030E+04  0.25500000000E-02 0.  1.
    5000001    1    1    2    0    0 -0.14350466934E+03  0.88089890330E+02 -0.11826207609E+04  0.12098798630E+04  0.19200000000E+03 0.  0.
   -5000001    1    1    2    0    0  0.14350466934E+03 -0.88089890330E+02 -0.69188423632E+03  0.73751014594E+03  0.19200000000E+03 0.  0.
<mgrwt>
<rscale>  0 0.52778676E+03</rscale>
<asrwt>0</asrwt>
<pdfrwt beam="1">  1        2 0.27299244E+00 0.52778676E+03</pdfrwt>
<pdfrwt beam="2">  1       -2 0.52060735E-02 0.52778676E+03</pdfrwt>
<totfact> 0.17750005E+03</totfact>
</mgrwt>
</event>
<event>
 4    1  0.5863356E-005  0.4091196E+03  0.7818608E-02  0.1040667E+00
         -2   -1    0    0    0  501 -0.00000000000E+00  0.00000000000E+00  0.29073637080E+02  0.29073637192E+02  0.25500000000E-02 0. -1.
          2   -1    0    0  501    0  0.00000000000E+00 -0.00000000000E+00 -0.14392668270E+04  0.14392668270E+04  0.25500000000E-02 0.  1.
    5000001    1    1    2    0    0  0.70259610523E+02 -0.38699292192E+01 -0.68565870474E+03  0.71550209546E+03  0.19200000000E+03 0.  0.
   -5000001    1    1    2    0    0 -0.70259610523E+02  0.38699292192E+01 -0.72453448518E+03  0.75283836874E+03  0.19200000000E+03 0.  0.
<mgrwt>
<rscale>  0 0.40911965E+03</rscale>
<asrwt>0</asrwt>
<pdfrwt beam="1">  1        2 0.20560950E+00 0.40911965E+03</pdfrwt>
<pdfrwt beam="2">  1       -2 0.41533776E-02 0.40911965E+03</pdfrwt>
<totfact> 0.43647115E+03</totfact>
</mgrwt>
</event>
<event>
 4    1  0.5863356E-005  0.4283212E+03  0.7818608E-02  0.1034392E+00
         -2   -1    0    0    0  501 -0.00000000000E+00  0.00000000000E+00  0.31538164527E+02  0.31538164630E+02  0.25500000000E-02 0. -1.
          2   -1    0    0  501    0  0.00000000000E+00 -0.00000000000E+00 -0.14542623020E+04  0.14542623020E+04  0.25500000000E-02 0.  1.
    5000001    1    1    2    0    0  0.26724347237E+02 -0.66985622680E+02 -0.92518491518E+03  0.94764570999E+03  0.19200000000E+03 0.  0.
   -5000001    1    1    2    0    0 -0.26724347237E+02  0.66985622680E+02 -0.49753922232E+03  0.53815475667E+03  0.19200000000E+03 0.  0.
<mgrwt>
<rscale>  0 0.42832121E+03</rscale>
<asrwt>0</asrwt>
<pdfrwt beam="1">  1        2 0.20775171E+00 0.42832121E+03</pdfrwt>
<pdfrwt beam="2">  1       -2 0.45054530E-02 0.42832121E+03</pdfrwt>
<totfact> 0.37864367E+03</totfact>
</mgrwt>
</event>
<event>
 4    1  0.5863356E-005  0.5852567E+03  0.7818608E-02  0.9936475E-01
         -2   -1    0    0    0  501 -0.00000000000E+00  0.00000000000E+00  0.34055509494E+02  0.34055509590E+02  0.25500000000E-02 0. -1.
          2   -1    0    0  501    0  0.00000000000E+00 -0.00000000000E+00 -0.25144640432E+04  0.25144640432E+04  0.25500000000E-02 0.  1.
    5000001    1    1    2    0    0  0.16208173794E+03  0.14571647848E+03 -0.10854147215E+04  0.11236070931E+04  0.19200000000E+03 0.  0.
   -5000001    1    1    2    0    0 -0.16208173794E+03 -0.14571647848E+03 -0.13949938121E+04  0.14249124597E+04  0.19200000000E+03 0.  0.
<mgrwt>
<rscale>  0 0.58525671E+03</rscale>
<asrwt>0</asrwt>
<pdfrwt beam="1">  1        2 0.35920903E+00 0.58525671E+03</pdfrwt>
<pdfrwt beam="2">  1       -2 0.48650744E-02 0.58525671E+03</pdfrwt>
<totfact> 0.97510518E+02</totfact>
</mgrwt>
</event>
<event>
 4    1  0.5863356E-005  0.5374084E+03  0.7818608E-02  0.1004451E+00
         -2   -1    0    0    0  501 -0.00000000000E+00  0.00000000000E+00  0.47463728575E+02  0.47463728644E+02  0.25500000000E-02 0. -1.
          2   -1    0    0  501    0  0.00000000000E+00 -0.00000000000E+00 -0.15212025749E+04  0.15212025749E+04  0.25500000000E-02 0.  1.
    5000001    1    1    2    0    0 -0.19176484739E+02 -0.16756843266E+03 -0.97917764932E+03  0.10119781550E+04  0.19200000000E+03 0.  0.
   -5000001    1    1    2    0    0  0.19176484739E+02  0.16756843266E+03 -0.49456119701E+03  0.55668814859E+03  0.19200000000E+03 0.  0.
<mgrwt>
<rscale>  0 0.53740840E+03</rscale>
<asrwt>0</asrwt>
<pdfrwt beam="1">  1        2 0.21731462E+00 0.53740840E+03</pdfrwt>
<pdfrwt beam="2">  1       -2 0.67805336E-02 0.53740840E+03</pdfrwt>
<totfact> 0.18511108E+03</totfact>
</mgrwt>
</event>
<event>
 4    1  0.5863356E-005  0.1008035E+04  0.7818608E-02  0.9299776E-01
          2   -1    0    0  501    0  0.00000000000E+00  0.00000000000E+00  0.25794357339E+04  0.25794357339E+04  0.25500000000E-02 0.  1.
         -2   -1    0    0    0  501 -0.00000000000E+00 -0.00000000000E+00 -0.98484208846E+02  0.98484208879E+02  0.25500000000E-02 0. -1.
    5000001    1    1    2    0    0  0.29333855062E+03 -0.34521469380E+03  0.15308697849E+04  0.16079947103E+04  0.19200000000E+03 0.  0.
   -5000001    1    1    2    0    0 -0.29333855062E+03  0.34521469380E+03  0.95008174018E+03  0.10699252325E+04  0.19200000000E+03 0.  0.
<mgrwt>
<rscale>  0 0.10080351E+04</rscale>
<asrwt>0</asrwt>
<pdfrwt beam="1">  1        2 0.36849077E+00 0.10080351E+04</pdfrwt>
<pdfrwt beam="2">  1       -2 0.14069175E-01 0.10080351E+04</pdfrwt>
<totfact> 0.15790654E+02</totfact>
</mgrwt>
</event>
<event>
 4    1  0.5863356E-005  0.6818618E+03  0.7818608E-02  0.9748764E-01
          2   -1    0    0  501    0  0.00000000000E+00  0.00000000000E+00  0.79742419746E+03  0.79742419747E+03  0.25500000000E-02 0.  1.
         -2   -1    0    0    0  501 -0.00000000000E+00 -0.00000000000E+00 -0.14576164522E+03  0.14576164524E+03  0.25500000000E-02 0. -1.
    5000001    1    1    2    0    0  0.14673653126E+03 -0.21614495910E+03  0.47169447040E+03  0.57237219216E+03  0.19200000000E+03 0.  0.
   -5000001    1    1    2    0    0 -0.14673653126E+03  0.21614495910E+03  0.17996808184E+03  0.37081365054E+03  0.19200000000E+03 0.  0.
<mgrwt>
<rscale>  0 0.68186175E+03</rscale>
<asrwt>0</asrwt>
<pdfrwt beam="1">  1        2 0.11391774E+00 0.68186175E+03</pdfrwt>
<pdfrwt beam="2">  1       -2 0.20823092E-01 0.68186175E+03</pdfrwt>
<totfact> 0.76119969E+02</totfact>
</mgrwt>
</event>
<event>
 4    1  0.5863356E-005  0.7189012E+03  0.7818608E-02  0.9685444E-01
          2   -1    0    0  501    0  0.00000000000E+00  0.00000000000E+00  0.19802674503E+04  0.19802674504E+04  0.25500000000E-02 0.  1.
         -2   -1    0    0    0  501 -0.00000000000E+00 -0.00000000000E+00 -0.65246099282E+02  0.65246099331E+02  0.25500000000E-02 0. -1.
    5000001    1    1    2    0    0  0.22823190350E+03  0.16204576737E+03  0.12940799950E+04  0.13378548748E+04  0.19200000000E+03 0.  0.
   -5000001    1    1    2    0    0 -0.22823190350E+03 -0.16204576737E+03  0.62094135608E+03  0.70765867492E+03  0.19200000000E+03 0.  0.
<mgrwt>
<rscale>  0 0.71890118E+03</rscale>
<asrwt>0</asrwt>
<pdfrwt beam="1">  1        2 0.28289526E+00 0.71890118E+03</pdfrwt>
<pdfrwt beam="2">  1       -2 0.93208742E-02 0.71890118E+03</pdfrwt>
<totfact> 0.64539316E+02</totfact>
</mgrwt>
</event>
<event>
 4    1  0.5863356E-005  0.8400495E+03  0.7818608E-02  0.9503790E-01
          2   -1    0    0  501    0  0.00000000000E+00  0.00000000000E+00  0.45209719270E+03  0.45209719270E+03  0.25500000000E-02 0.  1.
         -2   -1    0    0    0  501 -0.00000000000E+00 -0.00000000000E+00 -0.39022755080E+03  0.39022755080E+03  0.25500000000E-02 0. -1.
    5000001    1    1    2    0    0  0.29579963397E+03  0.22688830371E+03  0.67644621732E+01  0.41938703338E+03  0.19200000000E+03 0.  0.
   -5000001    1    1    2    0    0 -0.29579963397E+03 -0.22688830371E+03  0.55105179725E+02  0.42293771013E+03  0.19200000000E+03 0.  0.
<mgrwt>
<rscale>  0 0.84004948E+03</rscale>
<asrwt>0</asrwt>
<pdfrwt beam="1">  1        2 0.64585313E-01 0.84004948E+03</pdfrwt>
<pdfrwt beam="2">  1       -2 0.55746793E-01 0.84004948E+03</pdfrwt>
<totfact> 0.22895742E+02</totfact>
</mgrwt>
</event>
<event>
 4    1  0.5863356E-005  0.6668861E+03  0.7818608E-02  0.9775599E-01
          2   -1    0    0  501    0  0.00000000000E+00  0.00000000000E+00  0.72598010016E+03  0.72598010017E+03  0.25500000000E-02 0.  1.
         -2   -1    0    0    0  501 -0.00000000000E+00 -0.00000000000E+00 -0.15315059152E+03  0.15315059155E+03  0.25500000000E-02 0. -1.
    5000001    1    1    2    0    0 -0.16800999580E+03  0.21149555676E+03  0.23775405093E+03  0.40785869851E+03  0.19200000000E+03 0.  0.
   -5000001    1    1    2    0    0  0.16800999580E+03 -0.21149555676E+03  0.33507545771E+03  0.47127199320E+03  0.19200000000E+03 0.  0.
<mgrwt>
<rscale>  0 0.66688614E+03</rscale>
<asrwt>0</asrwt>
<pdfrwt beam="1">  1        2 0.10371144E+00 0.66688614E+03</pdfrwt>
<pdfrwt beam="2">  1       -2 0.21878656E-01 0.66688614E+03</pdfrwt>
<totfact> 0.78569972E+02</totfact>
</mgrwt>
</event>
<event>
 4    1  0.5863356E-005  0.6002509E+03  0.7818608E-02  0.9904886E-01
         -2   -1    0    0    0  501 -0.00000000000E+00  0.00000000000E+00  0.76234520554E+03  0.76234520555E+03  0.25500000000E-02 0. -1.
          2   -1    0    0  501    0  0.00000000000E+00 -0.00000000000E+00 -0.11815550526E+03  0.11815550529E+03  0.25500000000E-02 0.  1.
    5000001    1    1    2    0    0  0.18768589086E+03  0.12719692738E+03  0.25975244644E+03  0.39463956390E+03  0.19200000000E+03 0.  0.
   -5000001    1    1    2    0    0 -0.18768589086E+03 -0.12719692738E+03  0.38443725384E+03  0.48586114694E+03  0.19200000000E+03 0.  0.
<mgrwt>
<rscale>  0 0.60025089E+03</rscale>
<asrwt>0</asrwt>
<pdfrwt beam="1">  1        2 0.16879358E-01 0.60025089E+03</pdfrwt>
<pdfrwt beam="2">  1       -2 0.10890646E+00 0.60025089E+03</pdfrwt>
<totfact> 0.23688810E+02</totfact>
</mgrwt>
</event>
<event>
 4    1  0.5863356E-005  0.4512576E+03  0.7818608E-02  0.1027348E+00
          2   -1    0    0  501    0  0.00000000000E+00  0.00000000000E+00  0.55285035083E+03  0.55285035083E+03  0.25500000000E-02 0.  1.
         -2   -1    0    0    0  501 -0.00000000000E+00 -0.00000000000E+00 -0.92083421292E+02  0.92083421327E+02  0.25500000000E-02 0. -1.
    5000001    1    1    2    0    0  0.38976815852E+02  0.36903850306E+02  0.38138669278E+03  0.43034973657E+03  0.19200000000E+03 0.  0.
   -5000001    1    1    2    0    0 -0.38976815852E+02 -0.36903850306E+02  0.79380236760E+02  0.21458403559E+03  0.19200000000E+03 0.  0.
<mgrwt>
<rscale>  0 0.45125758E+03</rscale>
<asrwt>0</asrwt>
<pdfrwt beam="1">  1        2 0.78978621E-01 0.45125758E+03</pdfrwt>
<pdfrwt beam="2">  1       -2 0.13154775E-01 0.45125758E+03</pdfrwt>
<totfact> 0.25891013E+03</totfact>
</mgrwt>
</event>
<event>
 4    1  0.5863356E-005  0.9315950E+03  0.7818608E-02  0.9386926E-01
          2   -1    0    0  501    0  0.00000000000E+00  0.00000000000E+00  0.20312777843E+04  0.20312777843E+04  0.25500000000E-02 0.  1.
         -2   -1    0    0    0  501 -0.00000000000E+00 -0.00000000000E+00 -0.10681322316E+03  0.10681322319E+03  0.25500000000E-02 0. -1.
    5000001    1    1    2    0    0 -0.29822410185E+03  0.27990672018E+03  0.12220735596E+04  0.13029248528E+04  0.19200000000E+03 0.  0.
   -5000001    1    1    2    0    0  0.29822410185E+03 -0.27990672018E+03  0.70239100156E+03  0.83516615473E+03  0.19200000000E+03 0.  0.
<mgrwt>
<rscale>  0 0.93159503E+03</rscale>
<asrwt>0</asrwt>
<pdfrwt beam="1">  1        2 0.29018253E+00 0.93159503E+03</pdfrwt>
<pdfrwt beam="2">  1       -2 0.15259032E-01 0.93159503E+03</pdfrwt>
<totfact> 0.26508840E+02</totfact>
</mgrwt>
</event>
<event>
 4    1  0.5863356E-005  0.1499402E+04  0.7818608E-02  0.8884851E-01
         -2   -1    0    0    0  501 -0.00000000000E+00  0.00000000000E+00  0.78776122488E+03  0.78776122489E+03  0.25500000000E-02 0. -1.
          2   -1    0    0  501    0  0.00000000000E+00 -0.00000000000E+00 -0.71347916531E+03  0.71347916532E+03  0.25500000000E-02 0.  1.
    5000001    1    1    2    0    0 -0.58494408390E+03 -0.42780937966E+03  0.39747025952E+02  0.75074914098E+03  0.19200000000E+03 0.  0.
   -5000001    1    1    2    0    0  0.58494408390E+03  0.42780937966E+03  0.34535033622E+02  0.75049124922E+03  0.19200000000E+03 0.  0.
<mgrwt>
<rscale>  0 0.14994015E+04</rscale>
<asrwt>0</asrwt>
<pdfrwt beam="1">  1        2 0.10192560E+00 0.14994015E+04</pdfrwt>
<pdfrwt beam="2">  1       -2 0.11253732E+00 0.14994015E+04</pdfrwt>
<totfact> 0.26454432E+01</totfact>
</mgrwt>
</event>
<event>
 4    1  0.5863356E-005  0.7039420E+03  0.7818608E-02  0.9710514E-01
         -2   -1    0    0    0  501 -0.00000000000E+00  0.00000000000E+00  0.17870582532E+04  0.17870582532E+04  0.25500000000E-02 0. -1.
          2   -1    0    0  501    0  0.00000000000E+00 -0.00000000000E+00 -0.69322639113E+02  0.69322639160E+02  0.25500000000E-02 0.  1.
    5000001    1    1    2    0    0  0.28094089390E+03  0.78775171425E+02  0.74433408367E+03  0.82221076471E+03  0.19200000000E+03 0.  0.
   -5000001    1    1    2    0    0 -0.28094089390E+03 -0.78775171425E+02  0.97340153038E+03  0.10341701276E+04  0.19200000000E+03 0.  0.
<mgrwt>
<rscale>  0 0.70394203E+03</rscale>
<asrwt>0</asrwt>
<pdfrwt beam="1">  1        2 0.99032348E-02 0.70394203E+03</pdfrwt>
<pdfrwt beam="2">  1       -2 0.25529402E+00 0.70394203E+03</pdfrwt>
<totfact> 0.41460284E+01</totfact>
</mgrwt>
</event>
<event>
 4    1  0.5863356E-005  0.1381361E+04  0.7818608E-02  0.8967422E-01
         -2   -1    0    0    0  501 -0.00000000000E+00  0.00000000000E+00  0.42836021150E+03  0.42836021151E+03  0.25500000000E-02 0. -1.
          2   -1    0    0  501    0  0.00000000000E+00 -0.00000000000E+00 -0.11136418987E+04  0.11136418987E+04  0.25500000000E-02 0.  1.
    5000001    1    1    2    0    0 -0.47090522234E+03  0.44909283851E+03 -0.48706918185E+03  0.83518650249E+03  0.19200000000E+03 0.  0.
   -5000001    1    1    2    0    0  0.47090522234E+03 -0.44909283851E+03 -0.19821250534E+03  0.70681560771E+03  0.19200000000E+03 0.  0.
<mgrwt>
<rscale>  0 0.13813615E+04</rscale>
<asrwt>0</asrwt>
<pdfrwt beam="1">  1        2 0.15909170E+00 0.13813615E+04</pdfrwt>
<pdfrwt beam="2">  1       -2 0.61194316E-01 0.13813615E+04</pdfrwt>
<totfact> 0.58127940E+01</totfact>
</mgrwt>
</event>
<event>
 4    1  0.5863356E-005  0.4341347E+03  0.7818608E-02  0.1032562E+00
         -2   -1    0    0    0  501 -0.00000000000E+00  0.00000000000E+00  0.28227824517E+02  0.28227824633E+02  0.25500000000E-02 0. -1.
          2   -1    0    0  501    0  0.00000000000E+00 -0.00000000000E+00 -0.16692121581E+04  0.16692121581E+04  0.25500000000E-02 0.  1.
    5000001    1    1    2    0    0 -0.53970605483E+02  0.61219530737E+02 -0.10548789179E+04  0.10753112055E+04  0.19200000000E+03 0.  0.
   -5000001    1    1    2    0    0  0.53970605483E+02 -0.61219530737E+02 -0.58610541573E+03  0.62212877730E+03  0.19200000000E+03 0.  0.
<mgrwt>
<rscale>  0 0.43413467E+03</rscale>
<asrwt>0</asrwt>
<pdfrwt beam="1">  1        2 0.23845882E+00 0.43413467E+03</pdfrwt>
<pdfrwt beam="2">  1       -2 0.40325474E-02 0.43413467E+03</pdfrwt>
<totfact> 0.34840550E+03</totfact>
</mgrwt>
</event>
<event>
 4    1  0.5863356E-005  0.6241454E+03  0.7818608E-02  0.9856541E-01
          2   -1    0    0  501    0  0.00000000000E+00  0.00000000000E+00  0.34726825030E+04  0.34726825030E+04  0.25500000000E-02 0.  1.
         -2   -1    0    0    0  501 -0.00000000000E+00 -0.00000000000E+00 -0.28044424308E+02  0.28044424424E+02  0.25500000000E-02 0. -1.
    5000001    1    1    2    0    0  0.24374615079E+03 -0.26119831659E+02  0.16058833908E+04  0.16357933538E+04  0.19200000000E+03 0.  0.
   -5000001    1    1    2    0    0 -0.24374615079E+03  0.26119831659E+02  0.18387546880E+04  0.18649335737E+04  0.19200000000E+03 0.  0.
<mgrwt>
<rscale>  0 0.62414544E+03</rscale>
<asrwt>0</asrwt>
<pdfrwt beam="1">  1        2 0.49609764E+00 0.62414544E+03</pdfrwt>
<pdfrwt beam="2">  1       -2 0.40063452E-02 0.62414544E+03</pdfrwt>
<totfact> 0.39256207E+02</totfact>
</mgrwt>
</event>
<event>
 4    1  0.5863356E-005  0.4744241E+03  0.7818608E-02  0.1020679E+00
         -2   -1    0    0    0  501 -0.00000000000E+00  0.00000000000E+00  0.15783697255E+02  0.15783697461E+02  0.25500000000E-02 0. -1.
          2   -1    0    0  501    0  0.00000000000E+00 -0.00000000000E+00 -0.35650425118E+04  0.35650425118E+04  0.25500000000E-02 0.  1.
    5000001    1    1    2    0    0 -0.75054978702E+02  0.11735259289E+03 -0.17808129774E+04  0.17965421625E+04  0.19200000000E+03 0.  0.
   -5000001    1    1    2    0    0  0.75054978702E+02 -0.11735259289E+03 -0.17684458371E+04  0.17842840468E+04  0.19200000000E+03 0.  0.
<mgrwt>
<rscale>  0 0.47442408E+03</rscale>
<asrwt>0</asrwt>
<pdfrwt beam="1">  1        2 0.50929127E+00 0.47442408E+03</pdfrwt>
<pdfrwt beam="2">  1       -2 0.22548162E-02 0.47442408E+03</pdfrwt>
<totfact> 0.84265438E+02</totfact>
</mgrwt>
</event>
<event>
 4    1  0.5863356E-005  0.1031850E+04  0.7818608E-02  0.9274286E-01
         -2   -1    0    0    0  501 -0.00000000000E+00  0.00000000000E+00  0.28088571777E+03  0.28088571778E+03  0.25500000000E-02 0. -1.
          2   -1    0    0  501    0  0.00000000000E+00 -0.00000000000E+00 -0.94764030734E+03  0.94764030735E+03  0.25500000000E-02 0.  1.
    5000001    1    1    2    0    0  0.23656383679E+03 -0.25594352978E+03  0.57614785024E+02  0.40206094409E+03  0.19200000000E+03 0.  0.
   -5000001    1    1    2    0    0 -0.23656383679E+03  0.25594352978E+03 -0.72436937460E+03  0.82646508103E+03  0.19200000000E+03 0.  0.
<mgrwt>
<rscale>  0 0.10318500E+04</rscale>
<asrwt>0</asrwt>
<pdfrwt beam="1">  1        2 0.13537719E+00 0.10318500E+04</pdfrwt>
<pdfrwt beam="2">  1       -2 0.40126531E-01 0.10318500E+04</pdfrwt>
<totfact> 0.17721721E+02</totfact>
</mgrwt>
</event>
<event>
 4    1  0.5863356E-005  0.4782183E+03  0.7818608E-02  0.1019626E+00
         -2   -1    0    0    0  501 -0.00000000000E+00  0.00000000000E+00  0.20097446341E+02  0.20097446503E+02  0.25500000000E-02 0. -1.
          2   -1    0    0  501    0  0.00000000000E+00 -0.00000000000E+00 -0.28447985185E+04  0.28447985185E+04  0.25500000000E-02 0.  1.
    5000001    1    1    2    0    0 -0.49161331263E+02  0.10014623294E+02 -0.61326045490E+03  0.64456924741E+03  0.19200000000E+03 0.  0.
   -5000001    1    1    2    0    0  0.49161331263E+02 -0.10014623294E+02 -0.22114406172E+04  0.22203267176E+04  0.19200000000E+03 0.  0.
<mgrwt>
<rscale>  0 0.47821830E+03</rscale>
<asrwt>0</asrwt>
<pdfrwt beam="1">  1        2 0.40639953E+00 0.47821830E+03</pdfrwt>
<pdfrwt beam="2">  1       -2 0.28710656E-02 0.47821830E+03</pdfrwt>
<totfact> 0.14818324E+03</totfact>
</mgrwt>
</event>
<event>
 4    1  0.5863356E-005  0.4754794E+03  0.7818608E-02  0.1020385E+00
          2   -1    0    0  501    0  0.00000000000E+00  0.00000000000E+00  0.88243833367E+03  0.88243833368E+03  0.25500000000E-02 0.  1.
         -2   -1    0    0    0  501 -0.00000000000E+00 -0.00000000000E+00 -0.64049999736E+02  0.64049999787E+02  0.25500000000E-02 0. -1.
    5000001    1    1    2    0    0 -0.96105461785E+02  0.89444680990E+02  0.31127851808E+03  0.38858065644E+03  0.19200000000E+03 0.  0.
   -5000001    1    1    2    0    0  0.96105461785E+02 -0.89444680990E+02  0.50710981586E+03  0.55790767702E+03  0.19200000000E+03 0.  0.
<mgrwt>
<rscale>  0 0.47547944E+03</rscale>
<asrwt>0</asrwt>
<pdfrwt beam="1">  1        2 0.12606261E+00 0.47547944E+03</pdfrwt>
<pdfrwt beam="2">  1       -2 0.91500006E-02 0.47547944E+03</pdfrwt>
<totfact> 0.26428939E+03</totfact>
</mgrwt>
</event>
<event>
 4    1  0.5863356E-005  0.5272711E+03  0.7818608E-02  0.1006896E+00
          2   -1    0    0  501    0  0.00000000000E+00  0.00000000000E+00  0.60553104928E+03  0.60553104929E+03  0.25500000000E-02 0.  1.
         -2   -1    0    0    0  501 -0.00000000000E+00 -0.00000000000E+00 -0.11478138752E+03  0.11478138755E+03  0.25500000000E-02 0. -1.
    5000001    1    1    2    0    0 -0.24310569423E+02  0.17900104198E+03  0.24167944255E+03  0.35763854626E+03  0.19200000000E+03 0.  0.
   -5000001    1    1    2    0    0  0.24310569423E+02 -0.17900104198E+03  0.24907021921E+03  0.36267389058E+03  0.19200000000E+03 0.  0.
<mgrwt>
<rscale>  0 0.52727107E+03</rscale>
<asrwt>0</asrwt>
<pdfrwt beam="1">  1        2 0.86504435E-01 0.52727107E+03</pdfrwt>
<pdfrwt beam="2">  1       -2 0.16397341E-01 0.52727107E+03</pdfrwt>
<totfact> 0.16130883E+03</totfact>
</mgrwt>
</event>
<event>
 4    1  0.5863356E-005  0.5284078E+03  0.7818608E-02  0.1006619E+00
         -2   -1    0    0    0  501 -0.00000000000E+00  0.00000000000E+00  0.88431229566E+02  0.88431229602E+02  0.25500000000E-02 0. -1.
          2   -1    0    0  501    0  0.00000000000E+00 -0.00000000000E+00 -0.78935577659E+03  0.78935577660E+03  0.25500000000E-02 0.  1.
    5000001    1    1    2    0    0 -0.17895134494E+03  0.30060960648E+02 -0.35632529344E+03  0.44357520214E+03  0.19200000000E+03 0.  0.
   -5000001    1    1    2    0    0  0.17895134494E+03 -0.30060960648E+02 -0.34459925359E+03  0.43421180406E+03  0.19200000000E+03 0.  0.
<mgrwt>
<rscale>  0 0.52840780E+03</rscale>
<asrwt>0</asrwt>
<pdfrwt beam="1">  1        2 0.11276511E+00 0.52840780E+03</pdfrwt>
<pdfrwt beam="2">  1       -2 0.12633033E-01 0.52840780E+03</pdfrwt>
<totfact> 0.18072724E+03</totfact>
</mgrwt>
</event>
<event>
 4    1  0.5863356E-005  0.4449209E+03  0.7818608E-02  0.1029248E+00
         -2   -1    0    0    0  501 -0.00000000000E+00  0.00000000000E+00  0.70186946294E+02  0.70186946340E+02  0.25500000000E-02 0. -1.
          2   -1    0    0  501    0  0.00000000000E+00 -0.00000000000E+00 -0.70509774829E+03  0.70509774830E+03  0.25500000000E-02 0.  1.
    5000001    1    1    2    0    0  0.94456938135E+01  0.77357880198E+02 -0.45849421328E+03  0.50314451837E+03  0.19200000000E+03 0.  0.
   -5000001    1    1    2    0    0 -0.94456938135E+01 -0.77357880198E+02 -0.17641658872E+03  0.27214017626E+03  0.19200000000E+03 0.  0.
<mgrwt>
<rscale>  0 0.44492093E+03</rscale>
<asrwt>0</asrwt>
<pdfrwt beam="1">  1        2 0.10072825E+00 0.44492093E+03</pdfrwt>
<pdfrwt beam="2">  1       -2 0.10026707E-01 0.44492093E+03</pdfrwt>
<totfact> 0.30262521E+03</totfact>
</mgrwt>
</event>
<event>
 4    1  0.5863356E-005  0.5939148E+03  0.7818608E-02  0.9918112E-01
          2   -1    0    0  501    0  0.00000000000E+00  0.00000000000E+00  0.37853129779E+04  0.37853129779E+04  0.25500000000E-02 0.  1.
         -2   -1    0    0    0  501 -0.00000000000E+00 -0.00000000000E+00 -0.23296274335E+02  0.23296274475E+02  0.25500000000E-02 0. -1.
    5000001    1    1    2    0    0 -0.13811492440E+03  0.16497415269E+03  0.14263159014E+04  0.14551746473E+04  0.19200000000E+03 0.  0.
   -5000001    1    1    2    0    0  0.13811492440E+03 -0.16497415269E+03  0.23357008021E+04  0.23534346051E+04  0.19200000000E+03 0.  0.
<mgrwt>
<rscale>  0 0.59391477E+03</rscale>
<asrwt>0</asrwt>
<pdfrwt beam="1">  1        2 0.54075855E+00 0.59391477E+03</pdfrwt>
<pdfrwt beam="2">  1       -2 0.33280419E-02 0.59391477E+03</pdfrwt>
<totfact> 0.33722697E+02</totfact>
</mgrwt>
</event>
<event>
 4    1  0.5863356E-005  0.4370098E+03  0.7818608E-02  0.1031668E+00
         -2   -1    0    0    0  501 -0.00000000000E+00  0.00000000000E+00  0.16315178934E+03  0.16315178936E+03  0.25500000000E-02 0. -1.
          2   -1    0    0  501    0  0.00000000000E+00 -0.00000000000E+00 -0.29263781436E+03  0.29263781437E+03  0.25500000000E-02 0.  1.
    5000001    1    1    2    0    0  0.71399793649E+02  0.71002926988E+02 -0.93134829441E+02  0.23596068026E+03  0.19200000000E+03 0.  0.
   -5000001    1    1    2    0    0 -0.71399793649E+02 -0.71002926988E+02 -0.36351195577E+02  0.21982892347E+03  0.19200000000E+03 0.  0.
<mgrwt>
<rscale>  0 0.43700976E+03</rscale>
<asrwt>0</asrwt>
<pdfrwt beam="1">  1        2 0.41805402E-01 0.43700976E+03</pdfrwt>
<pdfrwt beam="2">  1       -2 0.23307399E-01 0.43700976E+03</pdfrwt>
<totfact> 0.19760055E+03</totfact>
</mgrwt>
</event>
<event>
 4    1  0.5863356E-005  0.5976343E+03  0.7818608E-02  0.9910326E-01
         -2   -1    0    0    0  501 -0.00000000000E+00  0.00000000000E+00  0.72689918020E+02  0.72689918065E+02  0.25500000000E-02 0. -1.
          2   -1    0    0  501    0  0.00000000000E+00 -0.00000000000E+00 -0.12283916406E+04  0.12283916406E+04  0.25500000000E-02 0.  1.
    5000001    1    1    2    0    0  0.58562118271E+02 -0.18002177942E+03 -0.85826277139E+03  0.89962011289E+03  0.19200000000E+03 0.  0.
   -5000001    1    1    2    0    0 -0.58562118271E+02  0.18002177942E+03 -0.29743895119E+03  0.40146144578E+03  0.19200000000E+03 0.  0.
<mgrwt>
<rscale>  0 0.59763430E+03</rscale>
<asrwt>0</asrwt>
<pdfrwt beam="1">  1        2 0.17548451E+00 0.59763430E+03</pdfrwt>
<pdfrwt beam="2">  1       -2 0.10384275E-01 0.59763430E+03</pdfrwt>
<totfact> 0.13404785E+03</totfact>
</mgrwt>
</event>
<event>
 4    1  0.5863356E-005  0.4656344E+03  0.7818608E-02  0.1023160E+00
          2   -1    0    0  501    0  0.00000000000E+00  0.00000000000E+00  0.13342816228E+04  0.13342816228E+04  0.25500000000E-02 0.  1.
         -2   -1    0    0    0  501 -0.00000000000E+00 -0.00000000000E+00 -0.40623995450E+02  0.40623995530E+02  0.25500000000E-02 0. -1.
    5000001    1    1    2    0    0  0.46808487582E+02  0.10806563697E+03  0.47287568514E+03  0.52377918057E+03  0.19200000000E+03 0.  0.
   -5000001    1    1    2    0    0 -0.46808487582E+02 -0.10806563697E+03  0.82078194225E+03  0.85112643780E+03  0.19200000000E+03 0.  0.
<mgrwt>
<rscale>  0 0.46563441E+03</rscale>
<asrwt>0</asrwt>
<pdfrwt beam="1">  1        2 0.19061164E+00 0.46563441E+03</pdfrwt>
<pdfrwt beam="2">  1       -2 0.58034287E-02 0.46563441E+03</pdfrwt>
<totfact> 0.29630381E+03</totfact>
</mgrwt>
</event>
<event>
 4    1  0.5863356E-005  0.5628857E+03  0.7818608E-02  0.9985546E-01
          2   -1    0    0  501    0  0.00000000000E+00  0.00000000000E+00  0.18993476978E+04  0.18993476978E+04  0.25500000000E-02 0.  1.
         -2   -1    0    0    0  501 -0.00000000000E+00 -0.00000000000E+00 -0.41703835120E+02  0.41703835198E+02  0.25500000000E-02 0. -1.
    5000001    1    1    2    0    0  0.12358000550E+03  0.15634521026E+03  0.75196805314E+03  0.80127136194E+03  0.19200000000E+03 0.  0.
   -5000001    1    1    2    0    0 -0.12358000550E+03 -0.15634521026E+03  0.11056758095E+04  0.11397801710E+04  0.19200000000E+03 0.  0.
<mgrwt>
<rscale>  0 0.56288572E+03</rscale>
<asrwt>0</asrwt>
<pdfrwt beam="1">  1        2 0.27133538E+00 0.56288572E+03</pdfrwt>
<pdfrwt beam="2">  1       -2 0.59576908E-02 0.56288572E+03</pdfrwt>
<totfact> 0.14560722E+03</totfact>
</mgrwt>
</event>
<event>
 4    1  0.5863356E-005  0.8926911E+03  0.7818608E-02  0.9434764E-01
         -2   -1    0    0    0  501 -0.00000000000E+00  0.00000000000E+00  0.57912022699E+03  0.57912022700E+03  0.25500000000E-02 0. -1.
          2   -1    0    0  501    0  0.00000000000E+00 -0.00000000000E+00 -0.34401209569E+03  0.34401209570E+03  0.25500000000E-02 0.  1.
    5000001    1    1    2    0    0  0.16041205052E+03 -0.35396077866E+03  0.22767534814E+03  0.48961242114E+03  0.19200000000E+03 0.  0.
   -5000001    1    1    2    0    0 -0.16041205052E+03  0.35396077866E+03  0.74327831680E+01  0.43351990156E+03  0.19200000000E+03 0.  0.
<mgrwt>
<rscale>  0 0.89269113E+03</rscale>
<asrwt>0</asrwt>
<pdfrwt beam="1">  1        2 0.49144585E-01 0.89269113E+03</pdfrwt>
<pdfrwt beam="2">  1       -2 0.82731461E-01 0.89269113E+03</pdfrwt>
<totfact> 0.13172431E+02</totfact>
</mgrwt>
</event>
<event>
 4    1  0.5863356E-005  0.7263603E+03  0.7818608E-02  0.9673185E-01
         -2   -1    0    0    0  501 -0.00000000000E+00  0.00000000000E+00  0.33783105811E+03  0.33783105812E+03  0.25500000000E-02 0. -1.
          2   -1    0    0  501    0  0.00000000000E+00 -0.00000000000E+00 -0.39043126484E+03  0.39043126485E+03  0.25500000000E-02 0.  1.
    5000001    1    1    2    0    0  0.14588111976E+03  0.25111993636E+03 -0.12997922570E+03  0.37161959401E+03  0.19200000000E+03 0.  0.
   -5000001    1    1    2    0    0 -0.14588111976E+03 -0.25111993636E+03  0.77379018971E+02  0.35664272896E+03  0.19200000000E+03 0.  0.
<mgrwt>
<rscale>  0 0.72636026E+03</rscale>
<asrwt>0</asrwt>
<pdfrwt beam="1">  1        2 0.55775895E-01 0.72636026E+03</pdfrwt>
<pdfrwt beam="2">  1       -2 0.48261580E-01 0.72636026E+03</pdfrwt>
<totfact> 0.36416409E+02</totfact>
</mgrwt>
</event>
<event>
 4    1  0.5863356E-005  0.6800235E+03  0.7818608E-02  0.9752018E-01
         -2   -1    0    0    0  501 -0.00000000000E+00  0.00000000000E+00  0.15289649649E+03  0.15289649651E+03  0.25500000000E-02 0.  1.
          2   -1    0    0  501    0  0.00000000000E+00 -0.00000000000E+00 -0.75611922548E+03  0.75611922548E+03  0.25500000000E-02 0. -1.
    5000001    1    1    2    0    0  0.10839948025E+03  0.22320082606E+03 -0.12642717459E+03  0.33825565265E+03  0.19200000000E+03 0.  0.
   -5000001    1    1    2    0    0 -0.10839948025E+03 -0.22320082606E+03 -0.47679555439E+03  0.57076006935E+03  0.19200000000E+03 0.  0.
<mgrwt>
<rscale>  0 0.68002347E+03</rscale>
<asrwt>0</asrwt>
<pdfrwt beam="1">  1        2 0.10801703E+00 0.68002347E+03</pdfrwt>
<pdfrwt beam="2">  1       -2 0.21842357E-01 0.68002347E+03</pdfrwt>
<totfact> 0.74870464E+02</totfact>
</mgrwt>
</event>
<event>
 4    1  0.5863356E-005  0.5039209E+03  0.7818608E-02  0.1012761E+00
          2   -1    0    0  501    0  0.00000000000E+00  0.00000000000E+00  0.87913929690E+03  0.87913929690E+03  0.25500000000E-02 0.  1.
         -2   -1    0    0    0  501 -0.00000000000E+00 -0.00000000000E+00 -0.72211605958E+02  0.72211606003E+02  0.25500000000E-02 0. -1.
    5000001    1    1    2    0    0 -0.12757841348E+03  0.81622633950E+02  0.51801355988E+03  0.57283553851E+03  0.19200000000E+03 0.  0.
   -5000001    1    1    2    0    0  0.12757841348E+03 -0.81622633950E+02  0.28891413106E+03  0.37851536440E+03  0.19200000000E+03 0.  0.
<mgrwt>
<rscale>  0 0.50392087E+03</rscale>
<asrwt>0</asrwt>
<pdfrwt beam="1">  1        2 0.12559133E+00 0.50392087E+03</pdfrwt>
<pdfrwt beam="2">  1       -2 0.10315944E-01 0.50392087E+03</pdfrwt>
<totfact> 0.21899329E+03</totfact>
</mgrwt>
</event>
<event>
 4    1  0.5863356E-005  0.5649490E+03  0.7818608E-02  0.9980919E-01
         -2   -1    0    0    0  501 -0.00000000000E+00  0.00000000000E+00  0.95538963464E+02  0.95538963498E+02  0.25500000000E-02 0. -1.
          2   -1    0    0  501    0  0.00000000000E+00 -0.00000000000E+00 -0.83517586775E+03  0.83517586776E+03  0.25500000000E-02 0.  1.
    5000001    1    1    2    0    0 -0.15291361559E+03  0.92429495084E+02 -0.19701825192E+03  0.32803349979E+03  0.19200000000E+03 0.  0.
   -5000001    1    1    2    0    0  0.15291361559E+03 -0.92429495084E+02 -0.54261865237E+03  0.60268133146E+03  0.19200000000E+03 0.  0.
<mgrwt>
<rscale>  0 0.56494898E+03</rscale>
<asrwt>0</asrwt>
<pdfrwt beam="1">  1        2 0.11931083E+00 0.56494898E+03</pdfrwt>
<pdfrwt beam="2">  1       -2 0.13648424E-01 0.56494898E+03</pdfrwt>
<totfact> 0.14787526E+03</totfact>
</mgrwt>
</event>
<event>
 4    1  0.5863356E-005  0.9499304E+03  0.7818608E-02  0.9365232E-01
         -2   -1    0    0    0  501 -0.00000000000E+00  0.00000000000E+00  0.45678494825E+03  0.45678494825E+03  0.25500000000E-02 0. -1.
          2   -1    0    0  501    0  0.00000000000E+00 -0.00000000000E+00 -0.49386907030E+03  0.49386907030E+03  0.25500000000E-02 0.  1.
    5000001    1    1    2    0    0 -0.40271519844E+03 -0.44923384540E+02 -0.17528293326E+03  0.48144132376E+03  0.19200000000E+03 0.  0.
   -5000001    1    1    2    0    0  0.40271519844E+03  0.44923384540E+02  0.13819881121E+03  0.46921269479E+03  0.19200000000E+03 0.  0.
<mgrwt>
<rscale>  0 0.94993043E+03</rscale>
<asrwt>0</asrwt>
<pdfrwt beam="1">  1        2 0.70552724E-01 0.94993043E+03</pdfrwt>
<pdfrwt beam="2">  1       -2 0.65254993E-01 0.94993043E+03</pdfrwt>
<totfact> 0.14766179E+02</totfact>
</mgrwt>
</event>
<event>
 4    1  0.5863356E-005  0.3989801E+03  0.7818608E-02  0.1044133E+00
         -2   -1    0    0    0  501 -0.00000000000E+00  0.00000000000E+00  0.16492929107E+02  0.16492929304E+02  0.25500000000E-02 0. -1.
          2   -1    0    0  501    0  0.00000000000E+00 -0.00000000000E+00 -0.24129300155E+04  0.24129300155E+04  0.25500000000E-02 0.  1.
    5000001    1    1    2    0    0 -0.18228602763E+02  0.46057922827E+02 -0.10649984151E+04  0.10833001608E+04  0.19200000000E+03 0.  0.
   -5000001    1    1    2    0    0  0.18228602763E+02 -0.46057922827E+02 -0.13314386713E+04  0.13461227840E+04  0.19200000000E+03 0.  0.
<mgrwt>
<rscale>  0 0.39898012E+03</rscale>
<asrwt>0</asrwt>
<pdfrwt beam="1">  1        2 0.34470406E+00 0.39898012E+03</pdfrwt>
<pdfrwt beam="2">  1       -2 0.23561343E-02 0.39898012E+03</pdfrwt>
<totfact> 0.33426176E+03</totfact>
</mgrwt>
</event>
<event>
 4    1  0.5863356E-005  0.7949744E+03  0.7818608E-02  0.9567320E-01
          2   -1    0    0  501    0  0.00000000000E+00  0.00000000000E+00  0.52630126304E+03  0.52630126305E+03  0.25500000000E-02 0.  1.
         -2   -1    0    0    0  501 -0.00000000000E+00 -0.00000000000E+00 -0.30020083059E+03  0.30020083060E+03  0.25500000000E-02 0. -1.
    5000001    1    1    2    0    0 -0.75152524346E+02 -0.33369163280E+03  0.46203565737E+02  0.39496427332E+03  0.19200000000E+03 0.  0.
   -5000001    1    1    2    0    0  0.75152524346E+02  0.33369163280E+03  0.17989686672E+03  0.43153782032E+03  0.19200000000E+03 0.  0.
<mgrwt>
<rscale>  0 0.79497441E+03</rscale>
<asrwt>0</asrwt>
<pdfrwt beam="1">  1        2 0.75185894E-01 0.79497441E+03</pdfrwt>
<pdfrwt beam="2">  1       -2 0.42885833E-01 0.79497441E+03</pdfrwt>
<totfact> 0.32799120E+02</totfact>
</mgrwt>
</event>
<event>
 4    1  0.5863356E-005  0.6189728E+03  0.7818608E-02  0.9866807E-01
          2   -1    0    0  501    0  0.00000000000E+00  0.00000000000E+00  0.27110364513E+04  0.27110364513E+04  0.25500000000E-02 0.  1.
         -2   -1    0    0    0  501 -0.00000000000E+00 -0.00000000000E+00 -0.35330337327E+02  0.35330337419E+02  0.25500000000E-02 0. -1.
    5000001    1    1    2    0    0  0.21835753132E+03  0.88778109443E+02  0.10808044202E+04  0.11227483061E+04  0.19200000000E+03 0.  0.
   -5000001    1    1    2    0    0 -0.21835753132E+03 -0.88778109443E+02  0.15949016938E+04  0.16236184826E+04  0.19200000000E+03 0.  0.
<mgrwt>
<rscale>  0 0.61897280E+03</rscale>
<asrwt>0</asrwt>
<pdfrwt beam="1">  1        2 0.38729099E+00 0.61897280E+03</pdfrwt>
<pdfrwt beam="2">  1       -2 0.50471902E-02 0.61897280E+03</pdfrwt>
<totfact> 0.72642429E+02</totfact>
</mgrwt>
</event>
<event>
 4    1  0.5863356E-005  0.4793753E+03  0.7818608E-02  0.1019307E+00
          2   -1    0    0  501    0  0.00000000000E+00  0.00000000000E+00  0.75166007556E+03  0.75166007557E+03  0.25500000000E-02 0. -1.
         -2   -1    0    0    0  501 -0.00000000000E+00 -0.00000000000E+00 -0.76431047847E+02  0.76431047889E+02  0.25500000000E-02 0.  1.
    5000001    1    1    2    0    0  0.87804883236E+02  0.99174433812E+02  0.24235603268E+03  0.33637139060E+03  0.19200000000E+03 0.  0.
   -5000001    1    1    2    0    0 -0.87804883236E+02 -0.99174433812E+02  0.43287299504E+03  0.49171973285E+03  0.19200000000E+03 0.  0.
<mgrwt>
<rscale>  0 0.47937529E+03</rscale>
<asrwt>0</asrwt>
<pdfrwt beam="1">  1        2 0.10738001E+00 0.47937529E+03</pdfrwt>
<pdfrwt beam="2">  1       -2 0.10918721E-01 0.47937529E+03</pdfrwt>
<totfact> 0.24391549E+03</totfact>
</mgrwt>
</event>
<event>
 4    1  0.5863356E-005  0.5873643E+03  0.7818608E-02  0.9931973E-01
          2   -1    0    0  501    0  0.00000000000E+00  0.00000000000E+00  0.71339016752E+03  0.71339016752E+03  0.25500000000E-02 0.  1.
         -2   -1    0    0    0  501 -0.00000000000E+00 -0.00000000000E+00 -0.12090048373E+03  0.12090048376E+03  0.25500000000E-02 0. -1.
    5000001    1    1    2    0    0 -0.14844427680E+03 -0.16403690512E+03  0.26640274661E+03  0.39595231147E+03  0.19200000000E+03 0.  0.
   -5000001    1    1    2    0    0  0.14844427680E+03  0.16403690512E+03  0.32608693717E+03  0.43833833981E+03  0.19200000000E+03 0.  0.
<mgrwt>
<rscale>  0 0.58736434E+03</rscale>
<asrwt>0</asrwt>
<pdfrwt beam="1">  1        2 0.10191288E+00 0.58736434E+03</pdfrwt>
<pdfrwt beam="2">  1       -2 0.17271498E-01 0.58736434E+03</pdfrwt>
<totfact> 0.12124325E+03</totfact>
</mgrwt>
</event>
<event>
 4    1  0.5863356E-005  0.5083161E+03  0.7818608E-02  0.1011631E+00
         -2   -1    0    0    0  501 -0.00000000000E+00  0.00000000000E+00  0.36033241685E+02  0.36033241775E+02  0.25500000000E-02 0. -1.
          2   -1    0    0  501    0  0.00000000000E+00 -0.00000000000E+00 -0.17926866957E+04  0.17926866957E+04  0.25500000000E-02 0.  1.
    5000001    1    1    2    0    0 -0.62289946528E+02 -0.15416524314E+03 -0.91156388039E+03  0.94628730714E+03  0.19200000000E+03 0.  0.
   -5000001    1    1    2    0    0  0.62289946528E+02  0.15416524314E+03 -0.84508957367E+03  0.88243263038E+03  0.19200000000E+03 0.  0.
<mgrwt>
<rscale>  0 0.50831609E+03</rscale>
<asrwt>0</asrwt>
<pdfrwt beam="1">  1        2 0.25609804E+00 0.50831609E+03</pdfrwt>
<pdfrwt beam="2">  1       -2 0.51476071E-02 0.50831609E+03</pdfrwt>
<totfact> 0.20720053E+03</totfact>
</mgrwt>
</event>
<event>
 4    1  0.5863356E-005  0.7997743E+03  0.7818608E-02  0.9560344E-01
          2   -1    0    0  501    0  0.00000000000E+00  0.00000000000E+00  0.61666794120E+03  0.61666794120E+03  0.25500000000E-02 0. -1.
         -2   -1    0    0    0  501 -0.00000000000E+00 -0.00000000000E+00 -0.25931252503E+03  0.25931252504E+03  0.25500000000E-02 0.  1.
    5000001    1    1    2    0    0  0.26593011675E+03  0.17685170551E+03  0.33758976235E+03  0.50281825780E+03  0.19200000000E+03 0.  0.
   -5000001    1    1    2    0    0 -0.26593011675E+03 -0.17685170551E+03  0.19765653826E+02  0.37316220844E+03  0.19200000000E+03 0.  0.
<mgrwt>
<rscale>  0 0.79977427E+03</rscale>
<asrwt>0</asrwt>
<pdfrwt beam="1">  1        2 0.88095420E-01 0.79977427E+03</pdfrwt>
<pdfrwt beam="2">  1       -2 0.37044647E-01 0.79977427E+03</pdfrwt>
<totfact> 0.36217198E+02</totfact>
</mgrwt>
</event>
<event>
 4    1  0.5863356E-005  0.5895389E+03  0.7818608E-02  0.9927350E-01
          2   -1    0    0  501    0  0.00000000000E+00  0.00000000000E+00  0.30841783745E+03  0.30841783746E+03  0.25500000000E-02 0.  1.
         -2   -1    0    0    0  501 -0.00000000000E+00 -0.00000000000E+00 -0.28172501140E+03  0.28172501141E+03  0.25500000000E-02 0. -1.
    5000001    1    1    2    0    0 -0.21438553039E+03 -0.39579546438E+02 -0.36678003757E+02  0.29280876369E+03  0.19200000000E+03 0.  0.
   -5000001    1    1    2    0    0  0.21438553039E+03  0.39579546438E+02  0.63370829811E+02  0.29733408517E+03  0.19200000000E+03 0.  0.
<mgrwt>
<rscale>  0 0.58953887E+03</rscale>
<asrwt>0</asrwt>
<pdfrwt beam="1">  1        2 0.44059691E-01 0.58953887E+03</pdfrwt>
<pdfrwt beam="2">  1       -2 0.40246430E-01 0.58953887E+03</pdfrwt>
<totfact> 0.67957614E+02</totfact>
</mgrwt>
</event>
<event>
 4    1  0.5863356E-005  0.4612055E+03  0.7818608E-02  0.1024432E+00
         -2   -1    0    0    0  501 -0.00000000000E+00  0.00000000000E+00  0.39916161002E+03  0.39916161003E+03  0.25500000000E-02 0. -1.
          2   -1    0    0  501    0  0.00000000000E+00 -0.00000000000E+00 -0.13322331491E+03  0.13322331494E+03  0.25500000000E-02 0.  1.
    5000001    1    1    2    0    0 -0.10167236109E+03 -0.76171033451E+02  0.14821061226E+03  0.27380591836E+03  0.19200000000E+03 0.  0.
   -5000001    1    1    2    0    0  0.10167236109E+03  0.76171033451E+02  0.11772768285E+03  0.25857900660E+03  0.19200000000E+03 0.  0.
<mgrwt>
<rscale>  0 0.46120552E+03</rscale>
<asrwt>0</asrwt>
<pdfrwt beam="1">  1        2 0.19031902E-01 0.46120552E+03</pdfrwt>
<pdfrwt beam="2">  1       -2 0.57023087E-01 0.46120552E+03</pdfrwt>
<totfact> 0.87137117E+02</totfact>
</mgrwt>
</event>
<event>
 4    1  0.5863356E-005  0.6684698E+03  0.7818608E-02  0.9772726E-01
          2   -1    0    0  501    0  0.00000000000E+00  0.00000000000E+00  0.28687342333E+04  0.28687342333E+04  0.25500000000E-02 0.  1.
         -2   -1    0    0    0  501 -0.00000000000E+00 -0.00000000000E+00 -0.38941549996E+02  0.38941550079E+02  0.25500000000E-02 0. -1.
    5000001    1    1    2    0    0  0.61266989161E+02 -0.25898705669E+03  0.16907204533E+04  0.17222739593E+04  0.19200000000E+03 0.  0.
   -5000001    1    1    2    0    0 -0.61266989161E+02  0.25898705669E+03  0.11390722300E+04  0.11854018241E+04  0.19200000000E+03 0.  0.
<mgrwt>
<rscale>  0 0.66846977E+03</rscale>
<asrwt>0</asrwt>
<pdfrwt beam="1">  1        2 0.40981918E+00 0.66846977E+03</pdfrwt>
<pdfrwt beam="2">  1       -2 0.55630785E-02 0.66846977E+03</pdfrwt>
<totfact> 0.51271884E+02</totfact>
</mgrwt>
</event>
<event>
 4    1  0.5863356E-005  0.5382469E+03  0.7818608E-02  0.1004251E+00
          2   -1    0    0  501    0  0.00000000000E+00  0.00000000000E+00  0.13103000907E+04  0.13103000908E+04  0.25500000000E-02 0.  1.
         -2   -1    0    0    0  501 -0.00000000000E+00 -0.00000000000E+00 -0.55275463345E+02  0.55275463404E+02  0.25500000000E-02 0. -1.
    5000001    1    1    2    0    0 -0.14133582944E+03 -0.10868095582E+03  0.78341536864E+03  0.82606961369E+03  0.19200000000E+03 0.  0.
   -5000001    1    1    2    0    0  0.14133582944E+03  0.10868095582E+03  0.47160925876E+03  0.53950594046E+03  0.19200000000E+03 0.  0.
<mgrwt>
<rscale>  0 0.53824695E+03</rscale>
<asrwt>0</asrwt>
<pdfrwt beam="1">  1        2 0.18718571E+00 0.53824695E+03</pdfrwt>
<pdfrwt beam="2">  1       -2 0.78964954E-02 0.53824695E+03</pdfrwt>
<totfact> 0.18798231E+03</totfact>
</mgrwt>
</event>
<event>
 4    1  0.5863356E-005  0.7584232E+03  0.7818608E-02  0.9622228E-01
          2   -1    0    0  501    0  0.00000000000E+00  0.00000000000E+00  0.11349630556E+04  0.11349630556E+04  0.25500000000E-02 0.  1.
         -2   -1    0    0    0  501 -0.00000000000E+00 -0.00000000000E+00 -0.12670142750E+03  0.12670142753E+03  0.25500000000E-02 0. -1.
    5000001    1    1    2    0    0  0.19597117671E+03 -0.21220083091E+03  0.75916532171E+03  0.83464356490E+03  0.19200000000E+03 0.  0.
   -5000001    1    1    2    0    0 -0.19597117671E+03  0.21220083091E+03  0.24909630636E+03  0.42702091820E+03  0.19200000000E+03 0.  0.
<mgrwt>
<rscale>  0 0.75842320E+03</rscale>
<asrwt>0</asrwt>
<pdfrwt beam="1">  1        2 0.16213757E+00 0.75842320E+03</pdfrwt>
<pdfrwt beam="2">  1       -2 0.18100205E-01 0.75842320E+03</pdfrwt>
<totfact> 0.59436271E+02</totfact>
</mgrwt>
</event>
<event>
 4    1  0.5863356E-005  0.4610178E+03  0.7818608E-02  0.1024486E+00
          2   -1    0    0  501    0  0.00000000000E+00  0.00000000000E+00  0.57402408124E+03  0.57402408124E+03  0.25500000000E-02 0.  1.
         -2   -1    0    0    0  501 -0.00000000000E+00 -0.00000000000E+00 -0.92564682636E+02  0.92564682671E+02  0.25500000000E-02 0. -1.
    5000001    1    1    2    0    0 -0.78772938663E+02 -0.97600382121E+02  0.20715020153E+03  0.30904080062E+03  0.19200000000E+03 0.  0.
   -5000001    1    1    2    0    0  0.78772938663E+02  0.97600382121E+02  0.27430919707E+03  0.35754796329E+03  0.19200000000E+03 0.  0.
<mgrwt>
<rscale>  0 0.46101782E+03</rscale>
<asrwt>0</asrwt>
<pdfrwt beam="1">  1        2 0.82003441E-01 0.46101782E+03</pdfrwt>
<pdfrwt beam="2">  1       -2 0.13223526E-01 0.46101782E+03</pdfrwt>
<totfact> 0.24587797E+03</totfact>
</mgrwt>
</event>
<event>
 4    1  0.5863356E-005  0.1913812E+04  0.7818608E-02  0.8648011E-01
         -2   -1    0    0    0  501 -0.00000000000E+00  0.00000000000E+00  0.95136989336E+03  0.95136989337E+03  0.25500000000E-02 0. -1.
          2   -1    0    0  501    0  0.00000000000E+00 -0.00000000000E+00 -0.96247475642E+03  0.96247475642E+03  0.25500000000E-02 0.  1.
    5000001    1    1    2    0    0  0.84841914083E+03  0.22453603954E+03 -0.33506372172E+03  0.95883427619E+03  0.19200000000E+03 0.  0.
   -5000001    1    1    2    0    0 -0.84841914083E+03 -0.22453603954E+03  0.32395885867E+03  0.95501037360E+03  0.19200000000E+03 0.  0.
<mgrwt>
<rscale>  0 0.19138124E+04</rscale>
<asrwt>0</asrwt>
<pdfrwt beam="1">  1        2 0.13749639E+00 0.19138124E+04</pdfrwt>
<pdfrwt beam="2">  1       -2 0.13590999E+00 0.19138124E+04</pdfrwt>
<totfact> 0.10792346E+01</totfact>
</mgrwt>
</event>
<event>
 4    1  0.5863356E-005  0.7087409E+03  0.7818608E-02  0.9702400E-01
          2   -1    0    0  501    0  0.00000000000E+00  0.00000000000E+00  0.22428517409E+04  0.22428517409E+04  0.25500000000E-02 0.  1.
         -2   -1    0    0    0  501 -0.00000000000E+00 -0.00000000000E+00 -0.55990514653E+02  0.55990514711E+02  0.25500000000E-02 0. -1.
    5000001    1    1    2    0    0  0.12795675912E+03 -0.18660373009E+03  0.17217148985E+04  0.17471004768E+04  0.19200000000E+03 0.  0.
   -5000001    1    1    2    0    0 -0.12795675912E+03  0.18660373009E+03  0.46514632780E+03  0.55174177887E+03  0.19200000000E+03 0.  0.
<mgrwt>
<rscale>  0 0.70874092E+03</rscale>
<asrwt>0</asrwt>
<pdfrwt beam="1">  1        2 0.32040742E+00 0.70874092E+03</pdfrwt>
<pdfrwt beam="2">  1       -2 0.79986443E-02 0.70874092E+03</pdfrwt>
<totfact> 0.60836082E+02</totfact>
</mgrwt>
</event>
<event>
 4    1  0.5863356E-005  0.5123863E+03  0.7818608E-02  0.1010596E+00
         -2   -1    0    0    0  501 -0.00000000000E+00  0.00000000000E+00  0.32692963089E+03  0.32692963090E+03  0.25500000000E-02 0. -1.
          2   -1    0    0  501    0  0.00000000000E+00 -0.00000000000E+00 -0.20076162741E+03  0.20076162743E+03  0.25500000000E-02 0.  1.
    5000001    1    1    2    0    0 -0.13981657197E+03  0.87400025977E+02  0.22102338593E+02  0.25404714466E+03  0.19200000000E+03 0.  0.
   -5000001    1    1    2    0    0  0.13981657197E+03 -0.87400025977E+02  0.10406566489E+03  0.27364411367E+03  0.19200000000E+03 0.  0.
<mgrwt>
<rscale>  0 0.51238628E+03</rscale>
<asrwt>0</asrwt>
<pdfrwt beam="1">  1        2 0.28680233E-01 0.51238628E+03</pdfrwt>
<pdfrwt beam="2">  1       -2 0.46704233E-01 0.51238628E+03</pdfrwt>
<totfact> 0.81725693E+02</totfact>
</mgrwt>
</event>
<event>
 4    1  0.5863356E-005  0.4128173E+03  0.7818608E-02  0.1039430E+00
         -2   -1    0    0    0  501 -0.00000000000E+00  0.00000000000E+00  0.18825950742E+03  0.18825950744E+03  0.25500000000E-02 0. -1.
          2   -1    0    0  501    0  0.00000000000E+00 -0.00000000000E+00 -0.22630748758E+03  0.22630748760E+03  0.25500000000E-02 0.  1.
    5000001    1    1    2    0    0  0.94110263488E+00  0.48707246327E+02 -0.77297984276E+02  0.21263174714E+03  0.19200000000E+03 0.  0.
   -5000001    1    1    2    0    0 -0.94110263488E+00 -0.48707246327E+02  0.39250004111E+02  0.20193524789E+03  0.19200000000E+03 0.  0.
<mgrwt>
<rscale>  0 0.41281733E+03</rscale>
<asrwt>0</asrwt>
<pdfrwt beam="1">  1        2 0.32329641E-01 0.41281733E+03</pdfrwt>
<pdfrwt beam="2">  1       -2 0.26894215E-01 0.41281733E+03</pdfrwt>
<totfact> 0.20294070E+03</totfact>
</mgrwt>
</event>
<event>
 4    1  0.5863356E-005  0.5345779E+03  0.7818608E-02  0.1005128E+00
          2   -1    0    0  501    0  0.00000000000E+00  0.00000000000E+00  0.43272096466E+04  0.43272096466E+04  0.25500000000E-02 0.  1.
         -2   -1    0    0    0  501 -0.00000000000E+00 -0.00000000000E+00 -0.16510263636E+02  0.16510263833E+02  0.25500000000E-02 0. -1.
    5000001    1    1    2    0    0 -0.98840858247E+02 -0.14331510231E+03  0.16243463434E+04  0.16448932419E+04  0.19200000000E+03 0.  0.
   -5000001    1    1    2    0    0  0.98840858247E+02  0.14331510231E+03  0.26863530396E+04  0.26988266686E+04  0.19200000000E+03 0.  0.
<mgrwt>
<rscale>  0 0.53457786E+03</rscale>
<asrwt>0</asrwt>
<pdfrwt beam="1">  1        2 0.61817284E+00 0.53457786E+03</pdfrwt>
<pdfrwt beam="2">  1       -2 0.23586090E-02 0.53457786E+03</pdfrwt>
<totfact> 0.24615227E+02</totfact>
</mgrwt>
</event>
<event>
 4    1  0.5863356E-005  0.1063289E+04  0.7818608E-02  0.9241731E-01
          2   -1    0    0  501    0  0.00000000000E+00  0.00000000000E+00  0.62002010814E+03  0.62002010815E+03  0.25500000000E-02 0.  1.
         -2   -1    0    0    0  501 -0.00000000000E+00 -0.00000000000E+00 -0.45586543008E+03  0.45586543008E+03  0.25500000000E-02 0. -1.
    5000001    1    1    2    0    0  0.16609549147E+03  0.46458883586E+03  0.33013352026E+02  0.53045676554E+03  0.19200000000E+03 0.  0.
   -5000001    1    1    2    0    0 -0.16609549147E+03 -0.46458883586E+03  0.13114132604E+03  0.54542877270E+03  0.19200000000E+03 0.  0.
<mgrwt>
<rscale>  0 0.10632887E+04</rscale>
<asrwt>0</asrwt>
<pdfrwt beam="1">  1        2 0.88574302E-01 0.10632887E+04</pdfrwt>
<pdfrwt beam="2">  1       -2 0.65123632E-01 0.10632887E+04</pdfrwt>
<totfact> 0.11296759E+02</totfact>
</mgrwt>
</event>
<event>
 4    1  0.5863356E-005  0.6557684E+03  0.7818608E-02  0.9796015E-01
         -2   -1    0    0    0  501 -0.00000000000E+00  0.00000000000E+00  0.13459832054E+03  0.13459832057E+03  0.25500000000E-02 0.  1.
          2   -1    0    0  501    0  0.00000000000E+00 -0.00000000000E+00 -0.79873240619E+03  0.79873240619E+03  0.25500000000E-02 0. -1.
    5000001    1    1    2    0    0 -0.13204627052E+02  0.26444449683E+03 -0.29903059124E+03  0.44315747605E+03  0.19200000000E+03 0.  0.
   -5000001    1    1    2    0    0  0.13204627052E+02 -0.26444449683E+03 -0.36510349441E+03  0.49017325071E+03  0.19200000000E+03 0.  0.
<mgrwt>
<rscale>  0 0.65576838E+03</rscale>
<asrwt>0</asrwt>
<pdfrwt beam="1">  1        2 0.11410463E+00 0.65576838E+03</pdfrwt>
<pdfrwt beam="2">  1       -2 0.19228332E-01 0.65576838E+03</pdfrwt>
<totfact> 0.87351479E+02</totfact>
</mgrwt>
</event>
<event>
 4    1  0.5863356E-005  0.6131574E+03  0.7818608E-02  0.9878478E-01
         -2   -1    0    0    0  501 -0.00000000000E+00  0.00000000000E+00  0.70017016391E+02  0.70017016438E+02  0.25500000000E-02 0. -1.
          2   -1    0    0  501    0  0.00000000000E+00 -0.00000000000E+00 -0.13423951943E+04  0.13423951943E+04  0.25500000000E-02 0.  1.
    5000001    1    1    2    0    0 -0.20898654107E+03 -0.11323021619E+03 -0.57836922931E+03  0.65411881308E+03  0.19200000000E+03 0.  0.
   -5000001    1    1    2    0    0  0.20898654107E+03  0.11323021619E+03 -0.69400894862E+03  0.75829339768E+03  0.19200000000E+03 0.  0.
<mgrwt>
<rscale>  0 0.61315742E+03</rscale>
<asrwt>0</asrwt>
<pdfrwt beam="1">  1        2 0.19177073E+00 0.61315742E+03</pdfrwt>
<pdfrwt beam="2">  1       -2 0.10002432E-01 0.61315742E+03</pdfrwt>
<totfact> 0.12336163E+03</totfact>
</mgrwt>
</event>
<event>
 4    1  0.5863356E-005  0.5404089E+03  0.7818608E-02  0.1003739E+00
          2   -1    0    0  501    0  0.00000000000E+00  0.00000000000E+00  0.26476062621E+03  0.26476062622E+03  0.25500000000E-02 0.  1.
         -2   -1    0    0    0  501 -0.00000000000E+00 -0.00000000000E+00 -0.27576021745E+03  0.27576021746E+03  0.25500000000E-02 0. -1.
    5000001    1    1    2    0    0  0.51897545806E+02 -0.13424200715E+03  0.11875224488E+03  0.26773189464E+03  0.19200000000E+03 0.  0.
   -5000001    1    1    2    0    0 -0.51897545806E+02  0.13424200715E+03 -0.12975183612E+03  0.27278894904E+03  0.19200000000E+03 0.  0.
<mgrwt>
<rscale>  0 0.54040891E+03</rscale>
<asrwt>0</asrwt>
<pdfrwt beam="1">  1        2 0.37822947E-01 0.54040891E+03</pdfrwt>
<pdfrwt beam="2">  1       -2 0.39394317E-01 0.54040891E+03</pdfrwt>
<totfact> 0.83862249E+02</totfact>
</mgrwt>
</event>
<event>
 4    1  0.5863356E-005  0.6453776E+03  0.7818608E-02  0.9815492E-01
          2   -1    0    0  501    0  0.00000000000E+00  0.00000000000E+00  0.22962355050E+04  0.22962355050E+04  0.25500000000E-02 0.  1.
         -2   -1    0    0    0  501 -0.00000000000E+00 -0.00000000000E+00 -0.45347297532E+02  0.45347297604E+02  0.25500000000E-02 0. -1.
    5000001    1    1    2    0    0  0.10566372847E+03 -0.79991364368E+02  0.19343100732E+04  0.19483282324E+04  0.19200000000E+03 0.  0.
   -5000001    1    1    2    0    0 -0.10566372847E+03  0.79991364368E+02  0.31657813426E+03  0.39325457019E+03  0.19200000000E+03 0.  0.
<mgrwt>
<rscale>  0 0.64537764E+03</rscale>
<asrwt>0</asrwt>
<pdfrwt beam="1">  1        2 0.32803370E+00 0.64537764E+03</pdfrwt>
<pdfrwt beam="2">  1       -2 0.64781843E-02 0.64537764E+03</pdfrwt>
<totfact> 0.80224472E+02</totfact>
</mgrwt>
</event>
<event>
 4    1  0.5863356E-005  0.4403091E+03  0.7818608E-02  0.1030652E+00
          2   -1    0    0  501    0  0.00000000000E+00  0.00000000000E+00  0.41358237070E+04  0.41358237070E+04  0.25500000000E-02 0.  1.
         -2   -1    0    0    0  501 -0.00000000000E+00 -0.00000000000E+00 -0.11719074652E+02  0.11719074930E+02  0.25500000000E-02 0. -1.
    5000001    1    1    2    0    0  0.21935619604E+01  0.10685475622E+03  0.21888771231E+04  0.21998794991E+04  0.19200000000E+03 0.  0.
   -5000001    1    1    2    0    0 -0.21935619604E+01 -0.10685475622E+03  0.19352275093E+04  0.19476632828E+04  0.19200000000E+03 0.  0.
<mgrwt>
<rscale>  0 0.44030911E+03</rscale>
<asrwt>0</asrwt>
<pdfrwt beam="1">  1        2 0.59083318E+00 0.44030911E+03</pdfrwt>
<pdfrwt beam="2">  1       -2 0.16741501E-02 0.44030911E+03</pdfrwt>
<totfact> 0.57036351E+02</totfact>
</mgrwt>
</event>
<event>
 4    1  0.5863356E-005  0.4120732E+03  0.7818608E-02  0.1039678E+00
         -2   -1    0    0    0  501 -0.00000000000E+00  0.00000000000E+00  0.24788631011E+03  0.24788631012E+03  0.25500000000E-02 0. -1.
          2   -1    0    0  501    0  0.00000000000E+00 -0.00000000000E+00 -0.17125219815E+03  0.17125219817E+03  0.25500000000E-02 0.  1.
    5000001    1    1    2    0    0 -0.47740167634E+02  0.57423581830E+01 -0.19891571720E+02  0.19892655154E+03  0.19200000000E+03 0.  0.
   -5000001    1    1    2    0    0  0.47740167634E+02 -0.57423581830E+01  0.96525683683E+02  0.22021195675E+03  0.19200000000E+03 0.  0.
<mgrwt>
<rscale>  0 0.41207318E+03</rscale>
<asrwt>0</asrwt>
<pdfrwt beam="1">  1        2 0.24464600E-01 0.41207318E+03</pdfrwt>
<pdfrwt beam="2">  1       -2 0.35412330E-01 0.41207318E+03</pdfrwt>
<totfact> 0.16700102E+03</totfact>
</mgrwt>
</event>
<event>
 4    1  0.5863356E-005  0.6311174E+03  0.7818608E-02  0.9842871E-01
          2   -1    0    0  501    0  0.00000000000E+00  0.00000000000E+00  0.14581509282E+03  0.14581509284E+03  0.25500000000E-02 0.  1.
         -2   -1    0    0    0  501 -0.00000000000E+00 -0.00000000000E+00 -0.68290112206E+03  0.68290112206E+03  0.25500000000E-02 0. -1.
    5000001    1    1    2    0    0 -0.18225063379E+03  0.17174755786E+03 -0.26738826700E+03  0.41360972242E+03  0.19200000000E+03 0.  0.
   -5000001    1    1    2    0    0  0.18225063379E+03 -0.17174755786E+03 -0.26969776224E+03  0.41510649249E+03  0.19200000000E+03 0.  0.
<mgrwt>
<rscale>  0 0.63111739E+03</rscale>
<asrwt>0</asrwt>
<pdfrwt beam="1">  1        2 0.20830728E-01 0.63111739E+03</pdfrwt>
<pdfrwt beam="2">  1       -2 0.97557301E-01 0.63111739E+03</pdfrwt>
<totfact> 0.23985888E+02</totfact>
</mgrwt>
</event>
<event>
 4    1  0.5863356E-005  0.7181248E+03  0.7818608E-02  0.9686729E-01
         -2   -1    0    0    0  501 -0.00000000000E+00  0.00000000000E+00  0.47692585047E+02  0.47692585115E+02  0.25500000000E-02 0. -1.
          2   -1    0    0  501    0  0.00000000000E+00 -0.00000000000E+00 -0.27032670398E+04  0.27032670398E+04  0.25500000000E-02 0.  1.
    5000001    1    1    2    0    0 -0.13299589150E+03 -0.23083020472E+03 -0.77145269598E+03  0.83843530025E+03  0.19200000000E+03 0.  0.
   -5000001    1    1    2    0    0  0.13299589150E+03  0.23083020472E+03 -0.18841217588E+04  0.19125243247E+04  0.19200000000E+03 0.  0.
<mgrwt>
<rscale>  0 0.71812476E+03</rscale>
<asrwt>0</asrwt>
<pdfrwt beam="1">  1        2 0.38618091E+00 0.71812476E+03</pdfrwt>
<pdfrwt beam="2">  1       -2 0.68132282E-02 0.71812476E+03</pdfrwt>
<totfact> 0.45429023E+02</totfact>
</mgrwt>
</event>
<event>
 4    1  0.5863356E-005  0.5669281E+03  0.7818608E-02  0.9976499E-01
         -2   -1    0    0    0  501 -0.00000000000E+00  0.00000000000E+00  0.21094539897E+03  0.21094539898E+03  0.25500000000E-02 0. -1.
          2   -1    0    0  501    0  0.00000000000E+00 -0.00000000000E+00 -0.38091315358E+03  0.38091315359E+03  0.25500000000E-02 0.  1.
    5000001    1    1    2    0    0  0.20844824929E+03 -0.44434261472E+01 -0.80621550685E+02  0.29467651943E+03  0.19200000000E+03 0.  0.
   -5000001    1    1    2    0    0 -0.20844824929E+03  0.44434261472E+01 -0.89346203928E+02  0.29718203314E+03  0.19200000000E+03 0.  0.
<mgrwt>
<rscale>  0 0.56692813E+03</rscale>
<asrwt>0</asrwt>
<pdfrwt beam="1">  1        2 0.54416165E-01 0.56692813E+03</pdfrwt>
<pdfrwt beam="2">  1       -2 0.30135057E-01 0.56692813E+03</pdfrwt>
<totfact> 0.93104939E+02</totfact>
</mgrwt>
</event>
<event>
 4    1  0.5863356E-005  0.6010794E+03  0.7818608E-02  0.9903169E-01
          2   -1    0    0  501    0  0.00000000000E+00  0.00000000000E+00  0.24415552852E+04  0.24415552852E+04  0.25500000000E-02 0.  1.
         -2   -1    0    0    0  501 -0.00000000000E+00 -0.00000000000E+00 -0.36994496097E+02  0.36994496184E+02  0.25500000000E-02 0. -1.
    5000001    1    1    2    0    0  0.20558499745E+03  0.95276423588E+02  0.13920204445E+04  0.14233508724E+04  0.19200000000E+03 0.  0.
   -5000001    1    1    2    0    0 -0.20558499745E+03 -0.95276423588E+02  0.10125403446E+04  0.10551989090E+04  0.19200000000E+03 0.  0.
<mgrwt>
<rscale>  0 0.60107939E+03</rscale>
<asrwt>0</asrwt>
<pdfrwt beam="1">  1        2 0.34879365E+00 0.60107939E+03</pdfrwt>
<pdfrwt beam="2">  1       -2 0.52849274E-02 0.60107939E+03</pdfrwt>
<totfact> 0.93343338E+02</totfact>
</mgrwt>
</event>
<event>
 4    1  0.5863356E-005  0.8896777E+03  0.7818608E-02  0.9438578E-01
         -2   -1    0    0    0  501 -0.00000000000E+00  0.00000000000E+00  0.11355217157E+03  0.11355217159E+03  0.25500000000E-02 0. -1.
          2   -1    0    0  501    0  0.00000000000E+00 -0.00000000000E+00 -0.17426492541E+04  0.17426492541E+04  0.25500000000E-02 0.  1.
    5000001    1    1    2    0    0 -0.35815237867E+03 -0.71003524337E+02 -0.46728783965E+03  0.62332700238E+03  0.19200000000E+03 0.  0.
   -5000001    1    1    2    0    0  0.35815237867E+03  0.71003524337E+02 -0.11618092429E+04  0.12328744234E+04  0.19200000000E+03 0.  0.
<mgrwt>
<rscale>  0 0.88967771E+03</rscale>
<asrwt>0</asrwt>
<pdfrwt beam="1">  1        2 0.24894988E+00 0.88967771E+03</pdfrwt>
<pdfrwt beam="2">  1       -2 0.16221740E-01 0.88967771E+03</pdfrwt>
<totfact> 0.33619889E+02</totfact>
</mgrwt>
</event>
<event>
 4    1  0.5863356E-005  0.8668780E+03  0.7818608E-02  0.9467960E-01
         -2   -1    0    0    0  501 -0.00000000000E+00  0.00000000000E+00  0.83485801709E+02  0.83485801748E+02  0.25500000000E-02 0. -1.
          2   -1    0    0  501    0  0.00000000000E+00 -0.00000000000E+00 -0.22503152163E+04  0.22503152163E+04  0.25500000000E-02 0.  1.
    5000001    1    1    2    0    0 -0.27146856944E+03  0.24958186859E+03 -0.14133489994E+04  0.14732296791E+04  0.19200000000E+03 0.  0.
   -5000001    1    1    2    0    0  0.27146856944E+03 -0.24958186859E+03 -0.75348041523E+03  0.86057133897E+03  0.19200000000E+03 0.  0.
<mgrwt>
<rscale>  0 0.86687801E+03</rscale>
<asrwt>0</asrwt>
<pdfrwt beam="1">  1        2 0.32147356E+00 0.86687801E+03</pdfrwt>
<pdfrwt beam="2">  1       -2 0.11926545E-01 0.86687801E+03</pdfrwt>
<totfact> 0.31134041E+02</totfact>
</mgrwt>
</event>
<event>
 4    1  0.5863356E-005  0.5543565E+03  0.7818608E-02  0.1000491E+00
          2   -1    0    0  501    0  0.00000000000E+00  0.00000000000E+00  0.15083717626E+04  0.15083717626E+04  0.25500000000E-02 0.  1.
         -2   -1    0    0    0  501 -0.00000000000E+00 -0.00000000000E+00 -0.50934257088E+02  0.50934257151E+02  0.25500000000E-02 0. -1.
    5000001    1    1    2    0    0  0.13062622934E+03  0.15097307550E+03  0.69952580169E+03  0.75236721656E+03  0.19200000000E+03 0.  0.
   -5000001    1    1    2    0    0 -0.13062622934E+03 -0.15097307550E+03  0.75791170384E+03  0.80693880322E+03  0.19200000000E+03 0.  0.
<mgrwt>
<rscale>  0 0.55435655E+03</rscale>
<asrwt>0</asrwt>
<pdfrwt beam="1">  1        2 0.21548165E+00 0.55435655E+03</pdfrwt>
<pdfrwt beam="2">  1       -2 0.72763233E-02 0.55435655E+03</pdfrwt>
<totfact> 0.16808388E+03</totfact>
</mgrwt>
</event>
<event>
 4    1  0.5863356E-005  0.5811056E+03  0.7818608E-02  0.9945400E-01
          2   -1    0    0  501    0  0.00000000000E+00  0.00000000000E+00  0.16461431113E+04  0.16461431113E+04  0.25500000000E-02 0.  1.
         -2   -1    0    0    0  501 -0.00000000000E+00 -0.00000000000E+00 -0.51284074665E+02  0.51284074729E+02  0.25500000000E-02 0. -1.
    5000001    1    1    2    0    0 -0.15489306045E+03 -0.10449204071E+03  0.11259185888E+04  0.11573534962E+04  0.19200000000E+03 0.  0.
   -5000001    1    1    2    0    0  0.15489306045E+03  0.10449204071E+03  0.46894044786E+03  0.54007368978E+03  0.19200000000E+03 0.  0.
<mgrwt>
<rscale>  0 0.58110559E+03</rscale>
<asrwt>0</asrwt>
<pdfrwt beam="1">  1        2 0.23516332E+00 0.58110559E+03</pdfrwt>
<pdfrwt beam="2">  1       -2 0.73262958E-02 0.58110559E+03</pdfrwt>
<totfact> 0.14110162E+03</totfact>
</mgrwt>
</event>
<event>
 4    1  0.5863356E-005  0.4929925E+03  0.7818608E-02  0.1015624E+00
          2   -1    0    0  501    0  0.00000000000E+00  0.00000000000E+00  0.12157958254E+04  0.12157958254E+04  0.25500000000E-02 0.  1.
         -2   -1    0    0    0  501 -0.00000000000E+00 -0.00000000000E+00 -0.49975832947E+02  0.49975833012E+02  0.25500000000E-02 0. -1.
    5000001    1    1    2    0    0 -0.14747967481E+03 -0.24839625165E+02  0.48250860344E+03  0.54041263295E+03  0.19200000000E+03 0.  0.
   -5000001    1    1    2    0    0  0.14747967481E+03  0.24839625165E+02  0.68331138897E+03  0.72535902542E+03  0.19200000000E+03 0.  0.
<mgrwt>
<rscale>  0 0.49299253E+03</rscale>
<asrwt>0</asrwt>
<pdfrwt beam="1">  1        2 0.17368513E+00 0.49299253E+03</pdfrwt>
<pdfrwt beam="2">  1       -2 0.71394042E-02 0.49299253E+03</pdfrwt>
<totfact> 0.24847803E+03</totfact>
</mgrwt>
</event>
<event>
 4    1  0.5863356E-005  0.5754321E+03  0.7818608E-02  0.9957730E-01
         -2   -1    0    0    0  501 -0.00000000000E+00  0.00000000000E+00  0.12368555074E+03  0.12368555077E+03  0.25500000000E-02 0. -1.
          2   -1    0    0  501    0  0.00000000000E+00 -0.00000000000E+00 -0.66928212532E+03  0.66928212533E+03  0.25500000000E-02 0.  1.
    5000001    1    1    2    0    0  0.12400317318E+03 -0.14084005747E+03 -0.41536915121E+03  0.49457885167E+03  0.19200000000E+03 0.  0.
   -5000001    1    1    2    0    0 -0.12400317318E+03  0.14084005747E+03 -0.13022742337E+03  0.29838882443E+03  0.19200000000E+03 0.  0.
<mgrwt>
<rscale>  0 0.57543211E+03</rscale>
<asrwt>0</asrwt>
<pdfrwt beam="1">  1        2 0.95611730E-01 0.57543211E+03</pdfrwt>
<pdfrwt beam="2">  1       -2 0.17669365E-01 0.57543211E+03</pdfrwt>
<totfact> 0.12605215E+03</totfact>
</mgrwt>
</event>
<event>
 4    1  0.5863356E-005  0.5628515E+03  0.7818608E-02  0.9985623E-01
         -2   -1    0    0    0  501 -0.00000000000E+00  0.00000000000E+00  0.70623832074E+02  0.70623832120E+02  0.25500000000E-02 0. -1.
          2   -1    0    0  501    0  0.00000000000E+00 -0.00000000000E+00 -0.11214408610E+04  0.11214408610E+04  0.25500000000E-02 0.  1.
    5000001    1    1    2    0    0  0.17017253926E+03  0.35845108698E+02 -0.29250771257E+03  0.39072794480E+03  0.19200000000E+03 0.  0.
   -5000001    1    1    2    0    0 -0.17017253926E+03 -0.35845108698E+02 -0.75830931637E+03  0.80133674834E+03  0.19200000000E+03 0.  0.
<mgrwt>
<rscale>  0 0.56285149E+03</rscale>
<asrwt>0</asrwt>
<pdfrwt beam="1">  1        2 0.16020583E+00 0.56285149E+03</pdfrwt>
<pdfrwt beam="2">  1       -2 0.10089120E-01 0.56285149E+03</pdfrwt>
<totfact> 0.16155825E+03</totfact>
</mgrwt>
</event>
<event>
 4    1  0.5863356E-005  0.8667694E+03  0.7818608E-02  0.9468102E-01
         -2   -1    0    0    0  501 -0.00000000000E+00  0.00000000000E+00  0.78684504260E+03  0.78684504261E+03  0.25500000000E-02 0. -1.
          2   -1    0    0  501    0  0.00000000000E+00 -0.00000000000E+00 -0.23870303849E+03  0.23870303850E+03  0.25500000000E-02 0.  1.
    5000001    1    1    2    0    0 -0.24558292727E+03 -0.29655699313E+03  0.33556561949E+03  0.54564210736E+03  0.19200000000E+03 0.  0.
   -5000001    1    1    2    0    0  0.24558292727E+03  0.29655699313E+03  0.21257638462E+03  0.47990597375E+03  0.19200000000E+03 0.  0.
<mgrwt>
<rscale>  0 0.86676941E+03</rscale>
<asrwt>0</asrwt>
<pdfrwt beam="1">  1        2 0.34100433E-01 0.86676941E+03</pdfrwt>
<pdfrwt beam="2">  1       -2 0.11240644E+00 0.86676941E+03</pdfrwt>
<totfact> 0.96462910E+01</totfact>
</mgrwt>
</event>
<event>
 4    1  0.5863356E-005  0.4619917E+03  0.7818608E-02  0.1024205E+00
         -2   -1    0    0    0  501 -0.00000000000E+00  0.00000000000E+00  0.11275258806E+03  0.11275258809E+03  0.25500000000E-02 0. -1.
          2   -1    0    0  501    0  0.00000000000E+00 -0.00000000000E+00 -0.47324044998E+03  0.47324044999E+03  0.25500000000E-02 0.  1.
    5000001    1    1    2    0    0 -0.32593843928E+02 -0.12299959538E+03 -0.15813483317E+03  0.27939557009E+03  0.19200000000E+03 0.  0.
   -5000001    1    1    2    0    0  0.32593843928E+02  0.12299959538E+03 -0.20235302876E+03  0.30659746798E+03  0.19200000000E+03 0.  0.
<mgrwt>
<rscale>  0 0.46199171E+03</rscale>
<asrwt>0</asrwt>
<pdfrwt beam="1">  1        2 0.67605777E-01 0.46199171E+03</pdfrwt>
<pdfrwt beam="2">  1       -2 0.16107513E-01 0.46199171E+03</pdfrwt>
<totfact> 0.22028804E+03</totfact>
</mgrwt>
</event>
<event>
 4    1  0.5863356E-005  0.6703397E+03  0.7818608E-02  0.9769344E-01
         -2   -1    0    0    0  501 -0.00000000000E+00  0.00000000000E+00  0.20805542998E+03  0.20805543000E+03  0.25500000000E-02 0. -1.
          2   -1    0    0  501    0  0.00000000000E+00 -0.00000000000E+00 -0.53994669958E+03  0.53994669958E+03  0.25500000000E-02 0.  1.
    5000001    1    1    2    0    0 -0.25648780018E+03 -0.52136233950E+02 -0.72782316795E+02  0.33266416123E+03  0.19200000000E+03 0.  0.
   -5000001    1    1    2    0    0  0.25648780018E+03  0.52136233950E+02 -0.25910895280E+03  0.41533796835E+03  0.19200000000E+03 0.  0.
<mgrwt>
<rscale>  0 0.67033974E+03</rscale>
<asrwt>0</asrwt>
<pdfrwt beam="1">  1        2 0.77135242E-01 0.67033974E+03</pdfrwt>
<pdfrwt beam="2">  1       -2 0.29722205E-01 0.67033974E+03</pdfrwt>
<totfact> 0.64355678E+02</totfact>
</mgrwt>
</event>
<event>
 4    1  0.5863356E-005  0.6383432E+03  0.7818608E-02  0.9828902E-01
         -2   -1    0    0    0  501 -0.00000000000E+00  0.00000000000E+00  0.24709862943E+03  0.24709862944E+03  0.25500000000E-02 0. -1.
          2   -1    0    0  501    0  0.00000000000E+00 -0.00000000000E+00 -0.41226659823E+03  0.41226659824E+03  0.25500000000E-02 0.  1.
    5000001    1    1    2    0    0 -0.29935973376E+02 -0.24787179342E+03 -0.29211039898E+02  0.31631293576E+03  0.19200000000E+03 0.  0.
   -5000001    1    1    2    0    0  0.29935973376E+02  0.24787179342E+03 -0.13595692891E+03  0.34305229192E+03  0.19200000000E+03 0.  0.
<mgrwt>
<rscale>  0 0.63834320E+03</rscale>
<asrwt>0</asrwt>
<pdfrwt beam="1">  1        2 0.58895228E-01 0.63834320E+03</pdfrwt>
<pdfrwt beam="2">  1       -2 0.35299804E-01 0.63834320E+03</pdfrwt>
<totfact> 0.63343399E+02</totfact>
</mgrwt>
</event>
<event>
 4    1  0.5863356E-005  0.1102100E+04  0.7818608E-02  0.9203148E-01
         -2   -1    0    0    0  501 -0.00000000000E+00  0.00000000000E+00  0.44581950981E+03  0.44581950982E+03  0.25500000000E-02 0. -1.
          2   -1    0    0  501    0  0.00000000000E+00 -0.00000000000E+00 -0.68111888619E+03  0.68111888619E+03  0.25500000000E-02 0.  1.
    5000001    1    1    2    0    0 -0.25088547773E+03  0.41412120241E+03  0.66271201075E+02  0.52506739122E+03  0.19200000000E+03 0.  0.
   -5000001    1    1    2    0    0  0.25088547773E+03 -0.41412120241E+03 -0.30157057745E+03  0.60187100479E+03  0.19200000000E+03 0.  0.
<mgrwt>
<rscale>  0 0.11021000E+04</rscale>
<asrwt>0</asrwt>
<pdfrwt beam="1">  1        2 0.97302697E-01 0.11021000E+04</pdfrwt>
<pdfrwt beam="2">  1       -2 0.63688502E-01 0.11021000E+04</pdfrwt>
<totfact> 0.10549586E+02</totfact>
</mgrwt>
</event>
<event>
 4    1  0.5863356E-005  0.4702701E+03  0.7818608E-02  0.1021844E+00
         -2   -1    0    0    0  501 -0.00000000000E+00  0.00000000000E+00  0.78638104019E+03  0.78638104020E+03  0.25500000000E-02 0. -1.
          2   -1    0    0  501    0  0.00000000000E+00 -0.00000000000E+00 -0.70307499549E+02  0.70307499595E+02  0.25500000000E-02 0.  1.
    5000001    1    1    2    0    0  0.13222348963E+03 -0.99728483660E+01  0.30517698365E+03  0.38416077398E+03  0.19200000000E+03 0.  0.
   -5000001    1    1    2    0    0 -0.13222348963E+03  0.99728483660E+01  0.41089655699E+03  0.47252776581E+03  0.19200000000E+03 0.  0.
<mgrwt>
<rscale>  0 0.47027007E+03</rscale>
<asrwt>0</asrwt>
<pdfrwt beam="1">  1        2 0.10043929E-01 0.47027007E+03</pdfrwt>
<pdfrwt beam="2">  1       -2 0.11234014E+00 0.47027007E+03</pdfrwt>
<totfact> 0.41700756E+02</totfact>
</mgrwt>
</event>
<event>
 4    1  0.5863356E-005  0.4648268E+03  0.7818608E-02  0.1023391E+00
         -2   -1    0    0    0  501 -0.00000000000E+00  0.00000000000E+00  0.20946339982E+03  0.20946339984E+03  0.25500000000E-02 0. -1.
          2   -1    0    0  501    0  0.00000000000E+00 -0.00000000000E+00 -0.25787790927E+03  0.25787790928E+03  0.25500000000E-02 0.  1.
    5000001    1    1    2    0    0  0.72976615388E+02  0.10534758529E+03 -0.51339970563E+02  0.23648148489E+03  0.19200000000E+03 0.  0.
   -5000001    1    1    2    0    0 -0.72976615388E+02 -0.10534758529E+03  0.29254611131E+01  0.23085982423E+03  0.19200000000E+03 0.  0.
<mgrwt>
<rscale>  0 0.46482678E+03</rscale>
<asrwt>0</asrwt>
<pdfrwt beam="1">  1        2 0.36839701E-01 0.46482678E+03</pdfrwt>
<pdfrwt beam="2">  1       -2 0.29923343E-01 0.46482678E+03</pdfrwt>
<totfact> 0.14486160E+03</totfact>
</mgrwt>
</event>
<event>
 4    1  0.5863356E-005  0.7726864E+03  0.7818608E-02  0.9600416E-01
          2   -1    0    0  501    0  0.00000000000E+00  0.00000000000E+00  0.13667729733E+04  0.13667729733E+04  0.25500000000E-02 0.  1.
         -2   -1    0    0    0  501 -0.00000000000E+00 -0.00000000000E+00 -0.10920692621E+03  0.10920692624E+03  0.25500000000E-02 0. -1.
    5000001    1    1    2    0    0  0.18772225070E+03 -0.26210491158E+03  0.80446308938E+03  0.88767307623E+03  0.19200000000E+03 0.  0.
   -5000001    1    1    2    0    0 -0.18772225070E+03  0.26210491158E+03  0.45310295770E+03  0.58830682331E+03  0.19200000000E+03 0.  0.
<mgrwt>
<rscale>  0 0.77268642E+03</rscale>
<asrwt>0</asrwt>
<pdfrwt beam="1">  1        2 0.19525328E+00 0.77268642E+03</pdfrwt>
<pdfrwt beam="2">  1       -2 0.15600989E-01 0.77268642E+03</pdfrwt>
<totfact> 0.56905505E+02</totfact>
</mgrwt>
</event>
<event>
 4    1  0.5863356E-005  0.6308402E+03  0.7818608E-02  0.9843411E-01
         -2   -1    0    0    0  501 -0.00000000000E+00  0.00000000000E+00  0.66223586925E+03  0.66223586925E+03  0.25500000000E-02 0. -1.
          2   -1    0    0  501    0  0.00000000000E+00 -0.00000000000E+00 -0.15023322759E+03  0.15023322762E+03  0.25500000000E-02 0.  1.
    5000001    1    1    2    0    0 -0.23454839445E+03  0.22113840833E+02  0.36470524401E+03  0.47473770263E+03  0.19200000000E+03 0.  0.
   -5000001    1    1    2    0    0  0.23454839445E+03 -0.22113840833E+02  0.14729739765E+03  0.33773139423E+03  0.19200000000E+03 0.  0.
<mgrwt>
<rscale>  0 0.63084018E+03</rscale>
<asrwt>0</asrwt>
<pdfrwt beam="1">  1        2 0.21461889E-01 0.63084018E+03</pdfrwt>
<pdfrwt beam="2">  1       -2 0.94605128E-01 0.63084018E+03</pdfrwt>
<totfact> 0.24889189E+02</totfact>
</mgrwt>
</event>
<event>
 4    1  0.5863356E-005  0.5277734E+03  0.7818608E-02  0.1006774E+00
         -2   -1    0    0    0  501 -0.00000000000E+00  0.00000000000E+00  0.82942288987E+02  0.82942289026E+02  0.25500000000E-02 0. -1.
          2   -1    0    0  501    0  0.00000000000E+00 -0.00000000000E+00 -0.83957412260E+03  0.83957412261E+03  0.25500000000E-02 0.  1.
    5000001    1    1    2    0    0  0.48609937038E+02  0.14864483065E+03 -0.21893685427E+03  0.33053828495E+03  0.19200000000E+03 0.  0.
   -5000001    1    1    2    0    0 -0.48609937038E+02 -0.14864483065E+03 -0.53769497935E+03  0.59197812669E+03  0.19200000000E+03 0.  0.
<mgrwt>
<rscale>  0 0.52777343E+03</rscale>
<asrwt>0</asrwt>
<pdfrwt beam="1">  1        2 0.11993916E+00 0.52777343E+03</pdfrwt>
<pdfrwt beam="2">  1       -2 0.11848899E-01 0.52777343E+03</pdfrwt>
<totfact> 0.18556880E+03</totfact>
</mgrwt>
</event>
<event>
 4    1  0.5863356E-005  0.4959168E+03  0.7818608E-02  0.1014850E+00
         -2   -1    0    0    0  501 -0.00000000000E+00  0.00000000000E+00  0.46951406649E+02  0.46951406718E+02  0.25500000000E-02 0. -1.
          2   -1    0    0  501    0  0.00000000000E+00 -0.00000000000E+00 -0.13095104879E+04  0.13095104879E+04  0.25500000000E-02 0.  1.
    5000001    1    1    2    0    0 -0.13444882765E+03 -0.36989897254E+02 -0.82804009040E+03  0.86137049582E+03  0.19200000000E+03 0.  0.
   -5000001    1    1    2    0    0  0.13444882765E+03  0.36989897254E+02 -0.43451899082E+03  0.49509139877E+03  0.19200000000E+03 0.  0.
<mgrwt>
<rscale>  0 0.49591677E+03</rscale>
<asrwt>0</asrwt>
<pdfrwt beam="1">  1        2 0.18707290E+00 0.49591677E+03</pdfrwt>
<pdfrwt beam="2">  1       -2 0.67073447E-02 0.49591677E+03</pdfrwt>
<totfact> 0.24364484E+03</totfact>
</mgrwt>
</event>
<event>
 4    1  0.5863356E-005  0.6563427E+03  0.7818608E-02  0.9794950E-01
          2   -1    0    0  501    0  0.00000000000E+00  0.00000000000E+00  0.14502045028E+04  0.14502045028E+04  0.25500000000E-02 0.  1.
         -2   -1    0    0    0  501 -0.00000000000E+00 -0.00000000000E+00 -0.74262930463E+02  0.74262930507E+02  0.25500000000E-02 0. -1.
    5000001    1    1    2    0    0  0.24793759720E+03  0.34320718394E+02  0.47788182998E+03  0.57261331389E+03  0.19200000000E+03 0.  0.
   -5000001    1    1    2    0    0 -0.24793759720E+03 -0.34320718394E+02  0.89805974236E+03  0.95185411942E+03  0.19200000000E+03 0.  0.
<mgrwt>
<rscale>  0 0.65634270E+03</rscale>
<asrwt>0</asrwt>
<pdfrwt beam="1">  1        2 0.20717207E+00 0.65634270E+03</pdfrwt>
<pdfrwt beam="2">  1       -2 0.10608990E-01 0.65634270E+03</pdfrwt>
<totfact> 0.98056019E+02</totfact>
</mgrwt>
</event>
<event>
 4    1  0.5863356E-005  0.6584290E+03  0.7818608E-02  0.9791090E-01
         -2   -1    0    0    0  501 -0.00000000000E+00  0.00000000000E+00  0.53802575413E+02  0.53802575474E+02  0.25500000000E-02 0. -1.
          2   -1    0    0  501    0  0.00000000000E+00 -0.00000000000E+00 -0.20144422855E+04  0.20144422855E+04  0.25500000000E-02 0.  1.
    5000001    1    1    2    0    0 -0.56118259508E+02 -0.17518952610E+03 -0.15900453588E+04  0.16121255758E+04  0.19200000000E+03 0.  0.
   -5000001    1    1    2    0    0  0.56118259508E+02  0.17518952610E+03 -0.37059435131E+03  0.45611928520E+03  0.19200000000E+03 0.  0.
<mgrwt>
<rscale>  0 0.65842899E+03</rscale>
<asrwt>0</asrwt>
<pdfrwt beam="1">  1        2 0.28777742E+00 0.65842899E+03</pdfrwt>
<pdfrwt beam="2">  1       -2 0.76860835E-02 0.65842899E+03</pdfrwt>
<totfact> 0.84836535E+02</totfact>
</mgrwt>
</event>
<event>
 4    1  0.5863356E-005  0.7369720E+03  0.7818608E-02  0.9656014E-01
          2   -1    0    0  501    0  0.00000000000E+00  0.00000000000E+00  0.46407682811E+03  0.46407682812E+03  0.25500000000E-02 0.  1.
         -2   -1    0    0    0  501 -0.00000000000E+00 -0.00000000000E+00 -0.29258503993E+03  0.29258503995E+03  0.25500000000E-02 0. -1.
    5000001    1    1    2    0    0  0.29227493411E+03  0.54444629669E+02 -0.19606914077E+02  0.35445350314E+03  0.19200000000E+03 0.  0.
   -5000001    1    1    2    0    0 -0.29227493411E+03 -0.54444629669E+02  0.19109870226E+03  0.40220836492E+03  0.19200000000E+03 0.  0.
<mgrwt>
<rscale>  0 0.73697201E+03</rscale>
<asrwt>0</asrwt>
<pdfrwt beam="1">  1        2 0.66296690E-01 0.73697201E+03</pdfrwt>
<pdfrwt beam="2">  1       -2 0.41797863E-01 0.73697201E+03</pdfrwt>
<totfact> 0.39917720E+02</totfact>
</mgrwt>
</event>
<event>
 4    1  0.5863356E-005  0.6148485E+03  0.7818608E-02  0.9875070E-01
         -2   -1    0    0    0  501 -0.00000000000E+00  0.00000000000E+00  0.44912065651E+03  0.44912065652E+03  0.25500000000E-02 0. -1.
          2   -1    0    0  501    0  0.00000000000E+00 -0.00000000000E+00 -0.21043271976E+03  0.21043271978E+03  0.25500000000E-02 0.  1.
    5000001    1    1    2    0    0 -0.12631105231E+03  0.19876194819E+03  0.16948535279E+03  0.34792251838E+03  0.19200000000E+03 0.  0.
   -5000001    1    1    2    0    0  0.12631105231E+03 -0.19876194819E+03  0.69202583961E+02  0.31163085792E+03  0.19200000000E+03 0.  0.
<mgrwt>
<rscale>  0 0.61484854E+03</rscale>
<asrwt>0</asrwt>
<pdfrwt beam="1">  1        2 0.30061817E-01 0.61484854E+03</pdfrwt>
<pdfrwt beam="2">  1       -2 0.64160093E-01 0.61484854E+03</pdfrwt>
<totfact> 0.40227809E+02</totfact>
</mgrwt>
</event>
<event>
 4    1  0.5863356E-005  0.6183853E+03  0.7818608E-02  0.9867980E-01
         -2   -1    0    0    0  501 -0.00000000000E+00  0.00000000000E+00  0.87758158539E+02  0.87758158576E+02  0.25500000000E-02 0. -1.
          2   -1    0    0  501    0  0.00000000000E+00 -0.00000000000E+00 -0.10893583334E+04  0.10893583334E+04  0.25500000000E-02 0.  1.
    5000001    1    1    2    0    0 -0.18168216702E+03  0.15515213997E+03 -0.57825035866E+03  0.65446013907E+03  0.19200000000E+03 0.  0.
   -5000001    1    1    2    0    0  0.18168216702E+03 -0.15515213997E+03 -0.42334981619E+03  0.52265635289E+03  0.19200000000E+03 0.  0.
<mgrwt>
<rscale>  0 0.61838526E+03</rscale>
<asrwt>0</asrwt>
<pdfrwt beam="1">  1        2 0.15562261E+00 0.61838526E+03</pdfrwt>
<pdfrwt beam="2">  1       -2 0.12536880E-01 0.61838526E+03</pdfrwt>
<totfact> 0.11804273E+03</totfact>
</mgrwt>
</event>
<event>
 4    1  0.5863356E-005  0.7616503E+03  0.7818608E-02  0.9617248E-01
          2   -1    0    0  501    0  0.00000000000E+00  0.00000000000E+00  0.89996527987E+03  0.89996527987E+03  0.25500000000E-02 0.  1.
         -2   -1    0    0    0  501 -0.00000000000E+00 -0.00000000000E+00 -0.16114822435E+03  0.16114822437E+03  0.25500000000E-02 0. -1.
    5000001    1    1    2    0    0 -0.24114882673E+03 -0.18430773715E+02  0.67990682133E+03  0.74674609858E+03  0.19200000000E+03 0.  0.
   -5000001    1    1    2    0    0  0.24114882673E+03  0.18430773715E+02  0.58910234190E+02  0.31436740566E+03  0.19200000000E+03 0.  0.
<mgrwt>
<rscale>  0 0.76165033E+03</rscale>
<asrwt>0</asrwt>
<pdfrwt beam="1">  1        2 0.12856647E+00 0.76165033E+03</pdfrwt>
<pdfrwt beam="2">  1       -2 0.23021174E-01 0.76165033E+03</pdfrwt>
<totfact> 0.54239321E+02</totfact>
</mgrwt>
</event>
<event>
 4    1  0.5863356E-005  0.5915382E+03  0.7818608E-02  0.9923119E-01
         -2   -1    0    0    0  501 -0.00000000000E+00  0.00000000000E+00  0.16165783186E+03  0.16165783189E+03  0.25500000000E-02 0. -1.
          2   -1    0    0  501    0  0.00000000000E+00 -0.00000000000E+00 -0.54113897099E+03  0.54113897099E+03  0.25500000000E-02 0.  1.
    5000001    1    1    2    0    0 -0.20465354329E+03  0.81555286490E+02 -0.24393874089E+03  0.38066316717E+03  0.19200000000E+03 0.  0.
   -5000001    1    1    2    0    0  0.20465354329E+03 -0.81555286490E+02 -0.13554239824E+03  0.32213363571E+03  0.19200000000E+03 0.  0.
<mgrwt>
<rscale>  0 0.59153817E+03</rscale>
<asrwt>0</asrwt>
<pdfrwt beam="1">  1        2 0.77305567E-01 0.59153817E+03</pdfrwt>
<pdfrwt beam="2">  1       -2 0.23093976E-01 0.59153817E+03</pdfrwt>
<totfact> 0.10149915E+03</totfact>
</mgrwt>
</event>
<event>
 4    1  0.5863356E-005  0.7220109E+03  0.7818608E-02  0.9680314E-01
          2   -1    0    0  501    0  0.00000000000E+00  0.00000000000E+00  0.18466377549E+04  0.18466377549E+04  0.25500000000E-02 0.  1.
         -2   -1    0    0    0  501 -0.00000000000E+00 -0.00000000000E+00 -0.70574182994E+02  0.70574183040E+02  0.25500000000E-02 0. -1.
    5000001    1    1    2    0    0  0.27273403207E+03 -0.81487106324E+02  0.11841623886E+04  0.12329349388E+04  0.19200000000E+03 0.  0.
   -5000001    1    1    2    0    0 -0.27273403207E+03  0.81487106324E+02  0.59190118327E+03  0.68427699910E+03  0.19200000000E+03 0.  0.
<mgrwt>
<rscale>  0 0.72201094E+03</rscale>
<asrwt>0</asrwt>
<pdfrwt beam="1">  1        2 0.26380539E+00 0.72201094E+03</pdfrwt>
<pdfrwt beam="2">  1       -2 0.10082026E-01 0.72201094E+03</pdfrwt>
<totfact> 0.66379853E+02</totfact>
</mgrwt>
</event>
<event>
 4    1  0.5863356E-005  0.4170453E+03  0.7818608E-02  0.1038032E+00
         -2   -1    0    0    0  501 -0.00000000000E+00  0.00000000000E+00  0.53477341873E+02  0.53477341934E+02  0.25500000000E-02 0. -1.
          2   -1    0    0  501    0  0.00000000000E+00 -0.00000000000E+00 -0.81308635140E+03  0.81308635141E+03  0.25500000000E-02 0.  1.
    5000001    1    1    2    0    0 -0.42322280438E+02  0.69386352732E+02 -0.37258996026E+03  0.42695774949E+03  0.19200000000E+03 0.  0.
   -5000001    1    1    2    0    0  0.42322280438E+02 -0.69386352732E+02 -0.38701904927E+03  0.43960594385E+03  0.19200000000E+03 0.  0.
<mgrwt>
<rscale>  0 0.41704531E+03</rscale>
<asrwt>0</asrwt>
<pdfrwt beam="1">  1        2 0.11615519E+00 0.41704531E+03</pdfrwt>
<pdfrwt beam="2">  1       -2 0.76396207E-02 0.41704531E+03</pdfrwt>
<totfact> 0.39073953E+03</totfact>
</mgrwt>
</event>
<event>
 4    1  0.5863356E-005  0.6052615E+03  0.7818608E-02  0.9894550E-01
          2   -1    0    0  501    0  0.00000000000E+00  0.00000000000E+00  0.13039273806E+04  0.13039273806E+04  0.25500000000E-02 0.  1.
         -2   -1    0    0    0  501 -0.00000000000E+00 -0.00000000000E+00 -0.70238086323E+02  0.70238086369E+02  0.25500000000E-02 0. -1.
    5000001    1    1    2    0    0  0.17434800630E+03  0.75591627076E+02  0.92656495355E+03  0.96514140649E+03  0.19200000000E+03 0.  0.
   -5000001    1    1    2    0    0 -0.17434800630E+03 -0.75591627076E+02  0.30712434075E+03  0.40902406049E+03  0.19200000000E+03 0.  0.
<mgrwt>
<rscale>  0 0.60526148E+03</rscale>
<asrwt>0</asrwt>
<pdfrwt beam="1">  1        2 0.18627534E+00 0.60526148E+03</pdfrwt>
<pdfrwt beam="2">  1       -2 0.10034012E-01 0.60526148E+03</pdfrwt>
<totfact> 0.12878861E+03</totfact>
</mgrwt>
</event>
<event>
 4    1  0.5863356E-005  0.5083395E+03  0.7818608E-02  0.1011625E+00
         -2   -1    0    0    0  501 -0.00000000000E+00  0.00000000000E+00  0.10512458439E+03  0.10512458442E+03  0.25500000000E-02 0. -1.
          2   -1    0    0  501    0  0.00000000000E+00 -0.00000000000E+00 -0.61453050815E+03  0.61453050816E+03  0.25500000000E-02 0.  1.
    5000001    1    1    2    0    0 -0.11391362263E+03 -0.99959303769E+02 -0.35247929662E+03  0.42903826213E+03  0.19200000000E+03 0.  0.
   -5000001    1    1    2    0    0  0.11391362263E+03  0.99959303769E+02 -0.15692662715E+03  0.29061683045E+03  0.19200000000E+03 0.  0.
<mgrwt>
<rscale>  0 0.50833951E+03</rscale>
<asrwt>0</asrwt>
<pdfrwt beam="1">  1        2 0.87790071E-01 0.50833951E+03</pdfrwt>
<pdfrwt beam="2">  1       -2 0.15017798E-01 0.50833951E+03</pdfrwt>
<totfact> 0.18385377E+03</totfact>
</mgrwt>
</event>
<event>
 4    1  0.5863356E-005  0.3949150E+03  0.7818608E-02  0.1045555E+00
          2   -1    0    0  501    0  0.00000000000E+00  0.00000000000E+00  0.30302828857E+03  0.30302828858E+03  0.25500000000E-02 0.  1.
         -2   -1    0    0    0  501 -0.00000000000E+00 -0.00000000000E+00 -0.12866607036E+03  0.12866607039E+03  0.25500000000E-02 0. -1.
    5000001    1    1    2    0    0 -0.15818125112E+02 -0.34535039581E+02  0.58621739375E+02  0.20431199272E+03  0.19200000000E+03 0.  0.
   -5000001    1    1    2    0    0  0.15818125112E+02  0.34535039581E+02  0.11574047884E+03  0.22738236625E+03  0.19200000000E+03 0.  0.
<mgrwt>
<rscale>  0 0.39491497E+03</rscale>
<asrwt>0</asrwt>
<pdfrwt beam="1">  1        2 0.43289755E-01 0.39491497E+03</pdfrwt>
<pdfrwt beam="2">  1       -2 0.18380867E-01 0.39491497E+03</pdfrwt>
<totfact> 0.28682448E+03</totfact>
</mgrwt>
</event>
<event>
 4    1  0.5863356E-005  0.6466397E+03  0.7818608E-02  0.9813105E-01
          2   -1    0    0  501    0  0.00000000000E+00  0.00000000000E+00  0.39224664617E+04  0.39224664617E+04  0.25500000000E-02 0.  1.
         -2   -1    0    0    0  501 -0.00000000000E+00 -0.00000000000E+00 -0.26650505329E+02  0.26650505451E+02  0.25500000000E-02 0. -1.
    5000001    1    1    2    0    0  0.12574746948E+03  0.21614872162E+03  0.15101060078E+04  0.15426655019E+04  0.19200000000E+03 0.  0.
   -5000001    1    1    2    0    0 -0.12574746948E+03 -0.21614872162E+03  0.23857099486E+04  0.24064514653E+04  0.19200000000E+03 0.  0.
<mgrwt>
<rscale>  0 0.64663966E+03</rscale>
<asrwt>0</asrwt>
<pdfrwt beam="1">  1        2 0.56035305E+00 0.64663966E+03</pdfrwt>
<pdfrwt beam="2">  1       -2 0.38072103E-02 0.64663966E+03</pdfrwt>
<totfact> 0.22244390E+02</totfact>
</mgrwt>
</event>
<event>
 4    1  0.5863356E-005  0.1209300E+04  0.7818608E-02  0.9104755E-01
          2   -1    0    0  501    0  0.00000000000E+00  0.00000000000E+00  0.18067840226E+04  0.18067840226E+04  0.25500000000E-02 0.  1.
         -2   -1    0    0    0  501 -0.00000000000E+00 -0.00000000000E+00 -0.20234949569E+03  0.20234949571E+03  0.25500000000E-02 0. -1.
    5000001    1    1    2    0    0  0.51657745659E+03  0.14490785707E+03  0.46627183915E+03  0.73629069238E+03  0.19200000000E+03 0.  0.
   -5000001    1    1    2    0    0 -0.51657745659E+03 -0.14490785707E+03  0.11381626877E+04  0.12728428259E+04  0.19200000000E+03 0.  0.
<mgrwt>
<rscale>  0 0.12093004E+04</rscale>
<asrwt>0</asrwt>
<pdfrwt beam="1">  1        2 0.25811201E+00 0.12093004E+04</pdfrwt>
<pdfrwt beam="2">  1       -2 0.28907071E-01 0.12093004E+04</pdfrwt>
<totfact> 0.10935850E+02</totfact>
</mgrwt>
</event>
<event>
 4    1  0.5863356E-005  0.1112286E+04  0.7818608E-02  0.9193299E-01
         -2   -1    0    0    0  501 -0.00000000000E+00  0.00000000000E+00  0.36283086357E+03  0.36283086358E+03  0.25500000000E-02 0. -1.
          2   -1    0    0  501    0  0.00000000000E+00 -0.00000000000E+00 -0.85244939544E+03  0.85244939544E+03  0.25500000000E-02 0.  1.
    5000001    1    1    2    0    0  0.51722042398E+03  0.63599433761E+01 -0.32108423721E+03  0.63837019294E+03  0.19200000000E+03 0.  0.
   -5000001    1    1    2    0    0 -0.51722042398E+03 -0.63599433761E+01 -0.16853429466E+03  0.57691006607E+03  0.19200000000E+03 0.  0.
<mgrwt>
<rscale>  0 0.11122858E+04</rscale>
<asrwt>0</asrwt>
<pdfrwt beam="1">  1        2 0.12177848E+00 0.11122858E+04</pdfrwt>
<pdfrwt beam="2">  1       -2 0.51832981E-01 0.11122858E+04</pdfrwt>
<totfact> 0.12197543E+02</totfact>
</mgrwt>
</event>
<event>
 4    1  0.5863356E-005  0.4378862E+03  0.7818608E-02  0.1031397E+00
          2   -1    0    0  501    0  0.00000000000E+00  0.00000000000E+00  0.66095425146E+03  0.66095425147E+03  0.25500000000E-02 0.  1.
         -2   -1    0    0    0  501 -0.00000000000E+00 -0.00000000000E+00 -0.72525559086E+02  0.72525559131E+02  0.25500000000E-02 0. -1.
    5000001    1    1    2    0    0  0.98761850052E+02 -0.34351112192E+02  0.27452455129E+03  0.35094391460E+03  0.19200000000E+03 0.  0.
   -5000001    1    1    2    0    0 -0.98761850052E+02  0.34351112192E+02  0.31390414109E+03  0.38253589600E+03  0.19200000000E+03 0.  0.
<mgrwt>
<rscale>  0 0.43788618E+03</rscale>
<asrwt>0</asrwt>
<pdfrwt beam="1">  1        2 0.94422036E-01 0.43788618E+03</pdfrwt>
<pdfrwt beam="2">  1       -2 0.10360794E-01 0.43788618E+03</pdfrwt>
<totfact> 0.31019186E+03</totfact>
</mgrwt>
</event>
<event>
 4    1  0.5863356E-005  0.4804643E+03  0.7818608E-02  0.1019008E+00
          2   -1    0    0  501    0  0.00000000000E+00  0.00000000000E+00  0.29777244769E+04  0.29777244769E+04  0.25500000000E-02 0.  1.
         -2   -1    0    0    0  501 -0.00000000000E+00 -0.00000000000E+00 -0.19381068245E+02  0.19381068413E+02  0.25500000000E-02 0. -1.
    5000001    1    1    2    0    0  0.11817763974E+03  0.75588218589E+02  0.12659886273E+04  0.12881268329E+04  0.19200000000E+03 0.  0.
   -5000001    1    1    2    0    0 -0.11817763974E+03 -0.75588218589E+02  0.16923547814E+04  0.17089787124E+04  0.19200000000E+03 0.  0.
<mgrwt>
<rscale>  0 0.48046428E+03</rscale>
<asrwt>0</asrwt>
<pdfrwt beam="1">  1        2 0.42538941E+00 0.48046428E+03</pdfrwt>
<pdfrwt beam="2">  1       -2 0.27687228E-02 0.48046428E+03</pdfrwt>
<totfact> 0.13291869E+03</totfact>
</mgrwt>
</event>
<event>
 4    1  0.5863356E-005  0.5657952E+03  0.7818608E-02  0.9979027E-01
         -2   -1    0    0    0  501 -0.00000000000E+00  0.00000000000E+00  0.29890692931E+03  0.29890692933E+03  0.25500000000E-02 0. -1.
          2   -1    0    0  501    0  0.00000000000E+00 -0.00000000000E+00 -0.26774573979E+03  0.26774573980E+03  0.25500000000E-02 0.  1.
    5000001    1    1    2    0    0  0.13737378406E+03 -0.15452255799E+03  0.36063470472E+02  0.28445272257E+03  0.19200000000E+03 0.  0.
   -5000001    1    1    2    0    0 -0.13737378406E+03  0.15452255799E+03 -0.49022809462E+01  0.28219994655E+03  0.19200000000E+03 0.  0.
<mgrwt>
<rscale>  0 0.56579522E+03</rscale>
<asrwt>0</asrwt>
<pdfrwt beam="1">  1        2 0.38249391E-01 0.56579522E+03</pdfrwt>
<pdfrwt beam="2">  1       -2 0.42700990E-01 0.56579522E+03</pdfrwt>
<totfact> 0.70784240E+02</totfact>
</mgrwt>
</event>
<event>
 4    1  0.5863356E-005  0.1365789E+04  0.7818608E-02  0.8978961E-01
         -2   -1    0    0    0  501 -0.00000000000E+00  0.00000000000E+00  0.17669276709E+03  0.17669276711E+03  0.25500000000E-02 0. -1.
          2   -1    0    0  501    0  0.00000000000E+00 -0.00000000000E+00 -0.26392978791E+04  0.26392978791E+04  0.25500000000E-02 0.  1.
    5000001    1    1    2    0    0  0.12298011331E+03  0.57860249685E+03 -0.18129212652E+04  0.19166252820E+04  0.19200000000E+03 0.  0.
   -5000001    1    1    2    0    0 -0.12298011331E+03 -0.57860249685E+03 -0.64968384684E+03  0.89936536428E+03  0.19200000000E+03 0.  0.
<mgrwt>
<rscale>  0 0.13657889E+04</rscale>
<asrwt>0</asrwt>
<pdfrwt beam="1">  1        2 0.37704253E+00 0.13657889E+04</pdfrwt>
<pdfrwt beam="2">  1       -2 0.25241825E-01 0.13657889E+04</pdfrwt>
<totfact> 0.51350352E+01</totfact>
</mgrwt>
</event>
<event>
 4    1  0.5863356E-005  0.8274290E+03  0.7818608E-02  0.9521142E-01
          2   -1    0    0  501    0  0.00000000000E+00  0.00000000000E+00  0.14803706617E+03  0.14803706619E+03  0.25500000000E-02 0. -1.
         -2   -1    0    0    0  501 -0.00000000000E+00 -0.00000000000E+00 -0.11561947581E+04  0.11561947581E+04  0.25500000000E-02 0.  1.
    5000001    1    1    2    0    0 -0.29405824824E+03 -0.78610250973E+02 -0.18240929262E+03  0.40346867902E+03  0.19200000000E+03 0.  0.
   -5000001    1    1    2    0    0  0.29405824824E+03  0.78610250973E+02 -0.82574839927E+03  0.90076314523E+03  0.19200000000E+03 0.  0.
<mgrwt>
<rscale>  0 0.82742898E+03</rscale>
<asrwt>0</asrwt>
<pdfrwt beam="1">  1        2 0.21148153E-01 0.82742898E+03</pdfrwt>
<pdfrwt beam="2">  1       -2 0.16517067E+00 0.82742898E+03</pdfrwt>
<totfact> 0.61966452E+01</totfact>
</mgrwt>
</event>
<event>
 4    1  0.5863356E-005  0.1202132E+04  0.7818608E-02  0.9110992E-01
          2   -1    0    0  501    0  0.00000000000E+00  0.00000000000E+00  0.21725098150E+04  0.21725098150E+04  0.25500000000E-02 0.  1.
         -2   -1    0    0    0  501 -0.00000000000E+00 -0.00000000000E+00 -0.16629631045E+03  0.16629631047E+03  0.25500000000E-02 0. -1.
    5000001    1    1    2    0    0  0.14760007212E+03  0.39729468769E+03  0.26280699689E+03  0.53437848738E+03  0.19200000000E+03 0.  0.
   -5000001    1    1    2    0    0 -0.14760007212E+03 -0.39729468769E+03  0.17434065077E+04  0.18044276381E+04  0.19200000000E+03 0.  0.
<mgrwt>
<rscale>  0 0.12021321E+04</rscale>
<asrwt>0</asrwt>
<pdfrwt beam="1">  1        2 0.31035854E+00 0.12021321E+04</pdfrwt>
<pdfrwt beam="2">  1       -2 0.23756616E-01 0.12021321E+04</pdfrwt>
<totfact> 0.10161010E+02</totfact>
</mgrwt>
</event>
<event>
 4    1  0.5863356E-005  0.5038833E+03  0.7818608E-02  0.1012770E+00
          2   -1    0    0  501    0  0.00000000000E+00  0.00000000000E+00  0.10727815293E+04  0.10727815293E+04  0.25500000000E-02 0.  1.
         -2   -1    0    0    0  501 -0.00000000000E+00 -0.00000000000E+00 -0.59168244433E+02  0.59168244488E+02  0.25500000000E-02 0. -1.
    5000001    1    1    2    0    0 -0.39705731949E+02 -0.83888879363E+02  0.80817228706E+03  0.83583511221E+03  0.19200000000E+03 0.  0.
   -5000001    1    1    2    0    0  0.39705731949E+02  0.83888879363E+02  0.20544099784E+03  0.29611466162E+03  0.19200000000E+03 0.  0.
<mgrwt>
<rscale>  0 0.50388332E+03</rscale>
<asrwt>0</asrwt>
<pdfrwt beam="1">  1        2 0.15325450E+00 0.50388332E+03</pdfrwt>
<pdfrwt beam="2">  1       -2 0.84526067E-02 0.50388332E+03</pdfrwt>
<totfact> 0.22927046E+03</totfact>
</mgrwt>
</event>
<event>
 4    1  0.5863356E-005  0.7227107E+03  0.7818608E-02  0.9679163E-01
         -2   -1    0    0    0  501 -0.00000000000E+00  0.00000000000E+00  0.55662411631E+03  0.55662411632E+03  0.25500000000E-02 0. -1.
          2   -1    0    0  501    0  0.00000000000E+00 -0.00000000000E+00 -0.23458863570E+03  0.23458863571E+03  0.25500000000E-02 0.  1.
    5000001    1    1    2    0    0 -0.11740581185E+03 -0.17922712512E+03 -0.78355426522E+02  0.29817789975E+03  0.19200000000E+03 0.  0.
   -5000001    1    1    2    0    0  0.11740581185E+03  0.17922712512E+03  0.40039090714E+03  0.49303485227E+03  0.19200000000E+03 0.  0.
<mgrwt>
<rscale>  0 0.72271071E+03</rscale>
<asrwt>0</asrwt>
<pdfrwt beam="1">  1        2 0.33512663E-01 0.72271071E+03</pdfrwt>
<pdfrwt beam="2">  1       -2 0.79517730E-01 0.72271071E+03</pdfrwt>
<totfact> 0.22207755E+02</totfact>
</mgrwt>
</event>
<event>
 4    1  0.5863356E-005  0.6789755E+03  0.7818608E-02  0.9753878E-01
          2   -1    0    0  501    0  0.00000000000E+00  0.00000000000E+00  0.32044418947E+04  0.32044418947E+04  0.25500000000E-02 0. -1.
         -2   -1    0    0    0  501 -0.00000000000E+00 -0.00000000000E+00 -0.35966300287E+02  0.35966300377E+02  0.25500000000E-02 0.  1.
    5000001    1    1    2    0    0  0.24923438514E+03  0.65236411409E+02  0.10611244407E+04  0.11087031374E+04  0.19200000000E+03 0.  0.
   -5000001    1    1    2    0    0 -0.24923438514E+03 -0.65236411409E+02  0.21073511537E+04  0.21317050577E+04  0.19200000000E+03 0.  0.
<mgrwt>
<rscale>  0 0.67897546E+03</rscale>
<asrwt>0</asrwt>
<pdfrwt beam="1">  1        2 0.45777747E+00 0.67897546E+03</pdfrwt>
<pdfrwt beam="2">  1       -2 0.51380422E-02 0.67897546E+03</pdfrwt>
<totfact> 0.37922962E+02</totfact>
</mgrwt>
</event>
<event>
 4    1  0.5863356E-005  0.5184955E+03  0.7818608E-02  0.1009061E+00
          2   -1    0    0  501    0  0.00000000000E+00  0.00000000000E+00  0.79102990902E+02  0.79102990943E+02  0.25500000000E-02 0. -1.
         -2   -1    0    0    0  501 -0.00000000000E+00 -0.00000000000E+00 -0.84964406681E+03  0.84964406682E+03  0.25500000000E-02 0.  1.
    5000001    1    1    2    0    0  0.16967778046E+03  0.15636806973E+02 -0.32043061381E+03  0.41057866138E+03  0.19200000000E+03 0.  0.
   -5000001    1    1    2    0    0 -0.16967778046E+03 -0.15636806973E+02 -0.45011046210E+03  0.51816839638E+03  0.19200000000E+03 0.  0.
<mgrwt>
<rscale>  0 0.51849547E+03</rscale>
<asrwt>0</asrwt>
<pdfrwt beam="1">  1        2 0.11300428E-01 0.51849547E+03</pdfrwt>
<pdfrwt beam="2">  1       -2 0.12137772E+00 0.51849547E+03</pdfrwt>
<totfact> 0.29769022E+02</totfact>
</mgrwt>
</event>
<event>
 4    1  0.5863356E-005  0.4869361E+03  0.7818608E-02  0.1017246E+00
         -2   -1    0    0    0  501 -0.00000000000E+00  0.00000000000E+00  0.67440363467E+02  0.67440363515E+02  0.25500000000E-02 0. -1.
          2   -1    0    0  501    0  0.00000000000E+00 -0.00000000000E+00 -0.87894988403E+03  0.87894988404E+03  0.25500000000E-02 0.  1.
    5000001    1    1    2    0    0 -0.60307965966E+00 -0.14308990025E+03 -0.49130715204E+03  0.54655448118E+03  0.19200000000E+03 0.  0.
   -5000001    1    1    2    0    0  0.60307965966E+00  0.14308990025E+03 -0.32020236853E+03  0.39983576637E+03  0.19200000000E+03 0.  0.
<mgrwt>
<rscale>  0 0.48693613E+03</rscale>
<asrwt>0</asrwt>
<pdfrwt beam="1">  1        2 0.12556426E+00 0.48693613E+03</pdfrwt>
<pdfrwt beam="2">  1       -2 0.96343382E-02 0.48693613E+03</pdfrwt>
<totfact> 0.24458639E+03</totfact>
</mgrwt>
</event>
<event>
 4    1  0.5863356E-005  0.5192131E+03  0.7818608E-02  0.1008882E+00
          2   -1    0    0  501    0  0.00000000000E+00  0.00000000000E+00  0.15421110969E+04  0.15421110969E+04  0.25500000000E-02 0.  1.
         -2   -1    0    0    0  501 -0.00000000000E+00 -0.00000000000E+00 -0.43703440958E+02  0.43703441033E+02  0.25500000000E-02 0. -1.
    5000001    1    1    2    0    0  0.15841748038E+03  0.53009524764E+02  0.90570187396E+03  0.94077945997E+03  0.19200000000E+03 0.  0.
   -5000001    1    1    2    0    0 -0.15841748038E+03 -0.53009524764E+02  0.59270578195E+03  0.64503507793E+03  0.19200000000E+03 0.  0.
<mgrwt>
<rscale>  0 0.51921310E+03</rscale>
<asrwt>0</asrwt>
<pdfrwt beam="1">  1        2 0.22030157E+00 0.51921310E+03</pdfrwt>
<pdfrwt beam="2">  1       -2 0.62433493E-02 0.51921310E+03</pdfrwt>
<totfact> 0.20563166E+03</totfact>
</mgrwt>
</event>
<event>
 4    1  0.5863356E-005  0.9763875E+03  0.7818608E-02  0.9334828E-01
          2   -1    0    0  501    0  0.00000000000E+00  0.00000000000E+00  0.23930011749E+04  0.23930011749E+04  0.25500000000E-02 0.  1.
         -2   -1    0    0    0  501 -0.00000000000E+00 -0.00000000000E+00 -0.99595919305E+02  0.99595919338E+02  0.25500000000E-02 0. -1.
    5000001    1    1    2    0    0  0.39118857297E+03 -0.91131017348E+02  0.63526135958E+03  0.77572827518E+03  0.19200000000E+03 0.  0.
   -5000001    1    1    2    0    0 -0.39118857297E+03  0.91131017348E+02  0.16581438960E+04  0.17168688190E+04  0.19200000000E+03 0.  0.
<mgrwt>
<rscale>  0 0.97638753E+03</rscale>
<asrwt>0</asrwt>
<pdfrwt beam="1">  1        2 0.34185723E+00 0.97638753E+03</pdfrwt>
<pdfrwt beam="2">  1       -2 0.14227992E-01 0.97638753E+03</pdfrwt>
<totfact> 0.19422065E+02</totfact>
</mgrwt>
</event>
<event>
 4    1  0.5863356E-005  0.4462523E+03  0.7818608E-02  0.1028846E+00
         -2   -1    0    0    0  501 -0.00000000000E+00  0.00000000000E+00  0.49083311987E+02  0.49083312053E+02  0.25500000000E-02 0. -1.
          2   -1    0    0  501    0  0.00000000000E+00 -0.00000000000E+00 -0.10143013801E+04  0.10143013802E+04  0.25500000000E-02 0.  1.
    5000001    1    1    2    0    0 -0.23605230654E+02 -0.85588113593E+02 -0.65175860593E+03  0.68522683289E+03  0.19200000000E+03 0.  0.
   -5000001    1    1    2    0    0  0.23605230654E+02  0.85588113593E+02 -0.31345946223E+03  0.37815785932E+03  0.19200000000E+03 0.  0.
<mgrwt>
<rscale>  0 0.44625227E+03</rscale>
<asrwt>0</asrwt>
<pdfrwt beam="1">  1        2 0.14490019E+00 0.44625227E+03</pdfrwt>
<pdfrwt beam="2">  1       -2 0.70119023E-02 0.44625227E+03</pdfrwt>
<totfact> 0.33354374E+03</totfact>
</mgrwt>
</event>
<event>
 4    1  0.5863356E-005  0.5099853E+03  0.7818608E-02  0.1011205E+00
          2   -1    0    0  501    0  0.00000000000E+00  0.00000000000E+00  0.19950689680E+04  0.19950689680E+04  0.25500000000E-02 0.  1.
         -2   -1    0    0    0  501 -0.00000000000E+00 -0.00000000000E+00 -0.32590976972E+02  0.32590977072E+02  0.25500000000E-02 0. -1.
    5000001    1    1    2    0    0  0.13883814808E+03 -0.79310082554E+02  0.11836256047E+04  0.12097105822E+04  0.19200000000E+03 0.  0.
   -5000001    1    1    2    0    0 -0.13883814808E+03  0.79310082554E+02  0.77885238638E+03  0.81794936294E+03  0.19200000000E+03 0.  0.
<mgrwt>
<rscale>  0 0.50998528E+03</rscale>
<asrwt>0</asrwt>
<pdfrwt beam="1">  1        2 0.28500982E+00 0.50998528E+03</pdfrwt>
<pdfrwt beam="2">  1       -2 0.46558545E-02 0.50998528E+03</pdfrwt>
<totfact> 0.19161867E+03</totfact>
</mgrwt>
</event>
<event>
 4    1  0.5863356E-005  0.4198714E+03  0.7818608E-02  0.1037108E+00
         -2   -1    0    0    0  501 -0.00000000000E+00  0.00000000000E+00  0.63343293261E+02  0.63343293312E+02  0.25500000000E-02 0.  1.
          2   -1    0    0  501    0  0.00000000000E+00 -0.00000000000E+00 -0.69578000872E+03  0.69578000873E+03  0.25500000000E-02 0. -1.
    5000001    1    1    2    0    0 -0.37424698985E+02 -0.51346979571E+02 -0.41804330324E+03  0.46439350102E+03  0.19200000000E+03 0.  0.
   -5000001    1    1    2    0    0  0.37424698985E+02  0.51346979571E+02 -0.21439341222E+03  0.29472980102E+03  0.19200000000E+03 0.  0.
<mgrwt>
<rscale>  0 0.41987140E+03</rscale>
<asrwt>0</asrwt>
<pdfrwt beam="1">  1        2 0.99397140E-01 0.41987140E+03</pdfrwt>
<pdfrwt beam="2">  1       -2 0.90490423E-02 0.41987140E+03</pdfrwt>
<totfact> 0.36223487E+03</totfact>
</mgrwt>
</event>
<event>
 4    1  0.5863356E-005  0.5012292E+03  0.7818608E-02  0.1013459E+00
          2   -1    0    0  501    0  0.00000000000E+00  0.00000000000E+00  0.24750393403E+04  0.24750393403E+04  0.25500000000E-02 0.  1.
         -2   -1    0    0    0  501 -0.00000000000E+00 -0.00000000000E+00 -0.25376432402E+02  0.25376432530E+02  0.25500000000E-02 0. -1.
    5000001    1    1    2    0    0 -0.95817890337E+02  0.12788677186E+03  0.13255429881E+04  0.13488752010E+04  0.19200000000E+03 0.  0.
   -5000001    1    1    2    0    0  0.95817890337E+02 -0.12788677186E+03  0.11241199198E+04  0.11515405718E+04  0.19200000000E+03 0.  0.
<mgrwt>
<rscale>  0 0.50122916E+03</rscale>
<asrwt>0</asrwt>
<pdfrwt beam="1">  1        2 0.35357671E+00 0.50122916E+03</pdfrwt>
<pdfrwt beam="2">  1       -2 0.36252081E-02 0.50122916E+03</pdfrwt>
<totfact> 0.16142419E+03</totfact>
</mgrwt>
</event>
<event>
 4    1  0.5863356E-005  0.5530425E+03  0.7818608E-02  0.1000792E+00
         -2   -1    0    0    0  501 -0.00000000000E+00  0.00000000000E+00  0.44838946811E+03  0.44838946812E+03  0.25500000000E-02 0. -1.
          2   -1    0    0  501    0  0.00000000000E+00 -0.00000000000E+00 -0.17053035470E+03  0.17053035472E+03  0.25500000000E-02 0.  1.
    5000001    1    1    2    0    0 -0.11810929812E+03 -0.14902585024E+03  0.73277243686E+02  0.27998582961E+03  0.19200000000E+03 0.  0.
   -5000001    1    1    2    0    0  0.11810929812E+03  0.14902585024E+03  0.20458186973E+03  0.33893399322E+03  0.19200000000E+03 0.  0.
<mgrwt>
<rscale>  0 0.55304255E+03</rscale>
<asrwt>0</asrwt>
<pdfrwt beam="1">  1        2 0.24361479E-01 0.55304255E+03</pdfrwt>
<pdfrwt beam="2">  1       -2 0.64055638E-01 0.55304255E+03</pdfrwt>
<totfact> 0.51287216E+02</totfact>
</mgrwt>
</event>
<event>
 4    1  0.5863356E-005  0.7516814E+03  0.7818608E-02  0.9632716E-01
         -2   -1    0    0    0  501 -0.00000000000E+00  0.00000000000E+00  0.17640573506E+03  0.17640573507E+03  0.25500000000E-02 0. -1.
          2   -1    0    0  501    0  0.00000000000E+00 -0.00000000000E+00 -0.80074633364E+03  0.80074633365E+03  0.25500000000E-02 0.  1.
    5000001    1    1    2    0    0  0.24133264742E+03 -0.14497455128E+03 -0.51825798260E+03  0.62025349960E+03  0.19200000000E+03 0.  0.
   -5000001    1    1    2    0    0 -0.24133264742E+03  0.14497455128E+03 -0.10608261599E+03  0.35689856913E+03  0.19200000000E+03 0.  0.
<mgrwt>
<rscale>  0 0.75168144E+03</rscale>
<asrwt>0</asrwt>
<pdfrwt beam="1">  1        2 0.11439233E+00 0.75168144E+03</pdfrwt>
<pdfrwt beam="2">  1       -2 0.25200820E-01 0.75168144E+03</pdfrwt>
<totfact> 0.53803661E+02</totfact>
</mgrwt>
</event>
<event>
 4    1  0.5863356E-005  0.4985858E+03  0.7818608E-02  0.1014149E+00
         -2   -1    0    0    0  501 -0.00000000000E+00  0.00000000000E+00  0.53880406367E+02  0.53880406427E+02  0.25500000000E-02 0. -1.
          2   -1    0    0  501    0  0.00000000000E+00 -0.00000000000E+00 -0.11534238946E+04  0.11534238946E+04  0.25500000000E-02 0.  1.
    5000001    1    1    2    0    0  0.15743068892E+03  0.18051143179E+02 -0.51795167268E+03  0.57467225513E+03  0.19200000000E+03 0.  0.
   -5000001    1    1    2    0    0 -0.15743068892E+03 -0.18051143179E+02 -0.58159181555E+03  0.63263204590E+03  0.19200000000E+03 0.  0.
<mgrwt>
<rscale>  0 0.49858579E+03</rscale>
<asrwt>0</asrwt>
<pdfrwt beam="1">  1        2 0.16477483E+00 0.49858579E+03</pdfrwt>
<pdfrwt beam="2">  1       -2 0.76972016E-02 0.49858579E+03</pdfrwt>
<totfact> 0.23909749E+03</totfact>
</mgrwt>
</event>
<event>
 4    1  0.5863356E-005  0.4601203E+03  0.7818608E-02  0.1024746E+00
          2   -1    0    0  501    0  0.00000000000E+00  0.00000000000E+00  0.74187219753E+02  0.74187219797E+02  0.25500000000E-02 0.  1.
         -2   -1    0    0    0  501 -0.00000000000E+00 -0.00000000000E+00 -0.71343369247E+03  0.71343369248E+03  0.25500000000E-02 0. -1.
    5000001    1    1    2    0    0  0.86373114959E+02 -0.92705498034E+02 -0.32476932144E+03  0.39798710595E+03  0.19200000000E+03 0.  0.
   -5000001    1    1    2    0    0 -0.86373114959E+02  0.92705498034E+02 -0.31447715128E+03  0.38963380632E+03  0.19200000000E+03 0.  0.
<mgrwt>
<rscale>  0 0.46012025E+03</rscale>
<asrwt>0</asrwt>
<pdfrwt beam="1">  1        2 0.10598175E-01 0.46012025E+03</pdfrwt>
<pdfrwt beam="2">  1       -2 0.10191909E+00 0.46012025E+03</pdfrwt>
<totfact> 0.49172747E+02</totfact>
</mgrwt>
</event>
<event>
 4    1  0.5863356E-005  0.5206006E+03  0.7818608E-02  0.1008537E+00
         -2   -1    0    0    0  501 -0.00000000000E+00  0.00000000000E+00  0.10153955881E+03  0.10153955885E+03  0.25500000000E-02 0. -1.
          2   -1    0    0  501    0  0.00000000000E+00 -0.00000000000E+00 -0.66728909132E+03  0.66728909133E+03  0.25500000000E-02 0.  1.
    5000001    1    1    2    0    0 -0.11281392819E+03  0.97292408862E+02 -0.42061812898E+03  0.48577402735E+03  0.19200000000E+03 0.  0.
   -5000001    1    1    2    0    0  0.11281392819E+03 -0.97292408862E+02 -0.14513140353E+03  0.28305462283E+03  0.19200000000E+03 0.  0.
<mgrwt>
<rscale>  0 0.52060058E+03</rscale>
<asrwt>0</asrwt>
<pdfrwt beam="1">  1        2 0.95327010E-01 0.52060058E+03</pdfrwt>
<pdfrwt beam="2">  1       -2 0.14505652E-01 0.52060058E+03</pdfrwt>
<totfact> 0.17668934E+03</totfact>
</mgrwt>
</event>
<event>
 4    1  0.5863356E-005  0.5428660E+03  0.7818608E-02  0.1003159E+00
          2   -1    0    0  501    0  0.00000000000E+00  0.00000000000E+00  0.10425325334E+04  0.10425325334E+04  0.25500000000E-02 0.  1.
         -2   -1    0    0    0  501 -0.00000000000E+00 -0.00000000000E+00 -0.70670088346E+02  0.70670088392E+02  0.25500000000E-02 0. -1.
    5000001    1    1    2    0    0 -0.92763249894E+02  0.64435645837E+02  0.16789007144E+03  0.27894094191E+03  0.19200000000E+03 0.  0.
   -5000001    1    1    2    0    0  0.92763249894E+02 -0.64435645837E+02  0.80397237357E+03  0.83426167984E+03  0.19200000000E+03 0.  0.
<mgrwt>
<rscale>  0 0.54286597E+03</rscale>
<asrwt>0</asrwt>
<pdfrwt beam="1">  1        2 0.14893322E+00 0.54286597E+03</pdfrwt>
<pdfrwt beam="2">  1       -2 0.10095727E-01 0.54286597E+03</pdfrwt>
<totfact> 0.17952868E+03</totfact>
</mgrwt>
</event>
<event>
 4    1  0.5863356E-005  0.6120230E+03  0.7818608E-02  0.9880771E-01
          2   -1    0    0  501    0  0.00000000000E+00  0.00000000000E+00  0.47516246561E+03  0.47516246562E+03  0.25500000000E-02 0.  1.
         -2   -1    0    0    0  501 -0.00000000000E+00 -0.00000000000E+00 -0.19707586300E+03  0.19707586302E+03  0.25500000000E-02 0. -1.
    5000001    1    1    2    0    0 -0.29858191747E+02  0.13965375860E+03 -0.70470635395E+02  0.24944898147E+03  0.19200000000E+03 0.  0.
   -5000001    1    1    2    0    0  0.29858191747E+02 -0.13965375860E+03  0.34855723801E+03  0.42278934716E+03  0.19200000000E+03 0.  0.
<mgrwt>
<rscale>  0 0.61202305E+03</rscale>
<asrwt>0</asrwt>
<pdfrwt beam="1">  1        2 0.67880352E-01 0.61202305E+03</pdfrwt>
<pdfrwt beam="2">  1       -2 0.28153695E-01 0.61202305E+03</pdfrwt>
<totfact> 0.82375424E+02</totfact>
</mgrwt>
</event>
<event>
 4    1  0.5863356E-005  0.4746300E+03  0.7818608E-02  0.1020622E+00
         -2   -1    0    0    0  501 -0.00000000000E+00  0.00000000000E+00  0.27386123763E+02  0.27386123882E+02  0.25500000000E-02 0. -1.
          2   -1    0    0  501    0  0.00000000000E+00 -0.00000000000E+00 -0.20564578887E+04  0.20564578887E+04  0.25500000000E-02 0.  1.
    5000001    1    1    2    0    0  0.21114326600E+02  0.12535589795E+03 -0.76253363954E+03  0.79654344977E+03  0.19200000000E+03 0.  0.
   -5000001    1    1    2    0    0 -0.21114326600E+02 -0.12535589795E+03 -0.12665381254E+04  0.12873005628E+04  0.19200000000E+03 0.  0.
<mgrwt>
<rscale>  0 0.47463000E+03</rscale>
<asrwt>0</asrwt>
<pdfrwt beam="1">  1        2 0.29377960E+00 0.47463000E+03</pdfrwt>
<pdfrwt beam="2">  1       -2 0.39123047E-02 0.47463000E+03</pdfrwt>
<totfact> 0.23352524E+03</totfact>
</mgrwt>
</event>
<event>
 4    1  0.5863356E-005  0.1647052E+04  0.7818608E-02  0.8792153E-01
         -2   -1    0    0    0  501 -0.00000000000E+00  0.00000000000E+00  0.27845074679E+03  0.27845074680E+03  0.25500000000E-02 0. -1.
          2   -1    0    0  501    0  0.00000000000E+00 -0.00000000000E+00 -0.24356001602E+04  0.24356001602E+04  0.25500000000E-02 0.  1.
    5000001    1    1    2    0    0 -0.21999336252E+03 -0.76819372307E+03 -0.11659561196E+04  0.14264769008E+04  0.19200000000E+03 0.  0.
   -5000001    1    1    2    0    0  0.21999336252E+03  0.76819372307E+03 -0.99119329380E+03  0.12875740062E+04  0.19200000000E+03 0.  0.
<mgrwt>
<rscale>  0 0.16470515E+04</rscale>
<asrwt>0</asrwt>
<pdfrwt beam="1">  1        2 0.34794287E+00 0.16470515E+04</pdfrwt>
<pdfrwt beam="2">  1       -2 0.39778679E-01 0.16470515E+04</pdfrwt>
<totfact> 0.27305581E+01</totfact>
</mgrwt>
</event>
<event>
 4    1  0.5863356E-005  0.1289990E+04  0.7818608E-02  0.9037541E-01
          2   -1    0    0  501    0  0.00000000000E+00  0.00000000000E+00  0.19183841612E+04  0.19183841612E+04  0.25500000000E-02 0.  1.
         -2   -1    0    0    0  501 -0.00000000000E+00 -0.00000000000E+00 -0.21685870490E+03  0.21685870491E+03  0.25500000000E-02 0. -1.
    5000001    1    1    2    0    0  0.17636691203E+03 -0.41139446826E+03  0.15506840175E+04  0.16253724553E+04  0.19200000000E+03 0.  0.
   -5000001    1    1    2    0    0 -0.17636691203E+03  0.41139446826E+03  0.15084143875E+03  0.50987041081E+03  0.19200000000E+03 0.  0.
<mgrwt>
<rscale>  0 0.12899896E+04</rscale>
<asrwt>0</asrwt>
<pdfrwt beam="1">  1        2 0.27405487E+00 0.12899896E+04</pdfrwt>
<pdfrwt beam="2">  1       -2 0.30979816E-01 0.12899896E+04</pdfrwt>
<totfact> 0.83745962E+01</totfact>
</mgrwt>
</event>
<event>
 4    1  0.5863356E-005  0.1068690E+04  0.7818608E-02  0.9236258E-01
         -2   -1    0    0    0  501 -0.00000000000E+00  0.00000000000E+00  0.24302784507E+03  0.24302784508E+03  0.25500000000E-02 0. -1.
          2   -1    0    0  501    0  0.00000000000E+00 -0.00000000000E+00 -0.11748629053E+04  0.11748629053E+04  0.25500000000E-02 0.  1.
    5000001    1    1    2    0    0 -0.23791800849E+03 -0.42466742913E+03 -0.60950784823E+03  0.80331265469E+03  0.19200000000E+03 0.  0.
   -5000001    1    1    2    0    0  0.23791800849E+03  0.42466742913E+03 -0.32232721200E+03  0.61457809570E+03  0.19200000000E+03 0.  0.
<mgrwt>
<rscale>  0 0.10686897E+04</rscale>
<asrwt>0</asrwt>
<pdfrwt beam="1">  1        2 0.16783755E+00 0.10686897E+04</pdfrwt>
<pdfrwt beam="2">  1       -2 0.34718264E-01 0.10686897E+04</pdfrwt>
<totfact> 0.17064134E+02</totfact>
</mgrwt>
</event>
<event>
 4    1  0.5863356E-005  0.5620112E+03  0.7818608E-02  0.9987514E-01
          2   -1    0    0  501    0  0.00000000000E+00  0.00000000000E+00  0.11601801574E+04  0.11601801574E+04  0.25500000000E-02 0.  1.
         -2   -1    0    0    0  501 -0.00000000000E+00 -0.00000000000E+00 -0.68061968907E+02  0.68061968955E+02  0.25500000000E-02 0. -1.
    5000001    1    1    2    0    0  0.16683218229E+02  0.78011305093E+02  0.95919439941E+03  0.98146930128E+03  0.19200000000E+03 0.  0.
   -5000001    1    1    2    0    0 -0.16683218229E+02 -0.78011305093E+02  0.13292378908E+03  0.24677282508E+03  0.19200000000E+03 0.  0.
<mgrwt>
<rscale>  0 0.56201120E+03</rscale>
<asrwt>0</asrwt>
<pdfrwt beam="1">  1        2 0.16574002E+00 0.56201120E+03</pdfrwt>
<pdfrwt beam="2">  1       -2 0.97231387E-02 0.56201120E+03</pdfrwt>
<totfact> 0.16299205E+03</totfact>
</mgrwt>
</event>
<event>
 4    1  0.5863356E-005  0.8669082E+03  0.7818608E-02  0.9467920E-01
         -2   -1    0    0    0  501 -0.00000000000E+00  0.00000000000E+00  0.28670860631E+03  0.28670860633E+03  0.25500000000E-02 0. -1.
          2   -1    0    0  501    0  0.00000000000E+00 -0.00000000000E+00 -0.65530799309E+03  0.65530799310E+03  0.25500000000E-02 0.  1.
    5000001    1    1    2    0    0  0.36750040178E+03 -0.64923361734E+01 -0.47194620113E+02  0.41736078865E+03  0.19200000000E+03 0.  0.
   -5000001    1    1    2    0    0 -0.36750040178E+03  0.64923361734E+01 -0.32140476667E+03  0.52465581077E+03  0.19200000000E+03 0.  0.
<mgrwt>
<rscale>  0 0.86690816E+03</rscale>
<asrwt>0</asrwt>
<pdfrwt beam="1">  1        2 0.93615427E-01 0.86690816E+03</pdfrwt>
<pdfrwt beam="2">  1       -2 0.40958372E-01 0.86690816E+03</pdfrwt>
<totfact> 0.27629122E+02</totfact>
</mgrwt>
</event>
<event>
 4    1  0.5863356E-005  0.6613300E+03  0.7818608E-02  0.9785748E-01
         -2   -1    0    0    0  501 -0.00000000000E+00  0.00000000000E+00  0.13704370482E+03  0.13704370484E+03  0.25500000000E-02 0. -1.
          2   -1    0    0  501    0  0.00000000000E+00 -0.00000000000E+00 -0.79784286764E+03  0.79784286765E+03  0.25500000000E-02 0.  1.
    5000001    1    1    2    0    0  0.15678538656E+02  0.25503564459E+03 -0.21056152542E+03  0.38273901365E+03  0.19200000000E+03 0.  0.
   -5000001    1    1    2    0    0 -0.15678538656E+02 -0.25503564459E+03 -0.45023763741E+03  0.55214755883E+03  0.19200000000E+03 0.  0.
<mgrwt>
<rscale>  0 0.66133000E+03</rscale>
<asrwt>0</asrwt>
<pdfrwt beam="1">  1        2 0.11397755E+00 0.66133000E+03</pdfrwt>
<pdfrwt beam="2">  1       -2 0.19577673E-01 0.66133000E+03</pdfrwt>
<totfact> 0.84769702E+02</totfact>
</mgrwt>
</event>
<event>
 4    1  0.5863356E-005  0.1034015E+04  0.7818608E-02  0.9272004E-01
         -2   -1    0    0    0  501 -0.00000000000E+00  0.00000000000E+00  0.16296892459E+03  0.16296892461E+03  0.25500000000E-02 0. -1.
          2   -1    0    0  501    0  0.00000000000E+00 -0.00000000000E+00 -0.16401715100E+04  0.16401715100E+04  0.25500000000E-02 0.  1.
    5000001    1    1    2    0    0  0.47292926089E+03  0.80739470333E+02 -0.71091679572E+03  0.87889000354E+03  0.19200000000E+03 0.  0.
   -5000001    1    1    2    0    0 -0.47292926089E+03 -0.80739470333E+02 -0.76628578971E+03  0.92425043110E+03  0.19200000000E+03 0.  0.
<mgrwt>
<rscale>  0 0.10340154E+04</rscale>
<asrwt>0</asrwt>
<pdfrwt beam="1">  1        2 0.23431021E+00 0.10340154E+04</pdfrwt>
<pdfrwt beam="2">  1       -2 0.23281276E-01 0.10340154E+04</pdfrwt>
<totfact> 0.20010586E+02</totfact>
</mgrwt>
</event>
<event>
 4    1  0.5863356E-005  0.1197083E+04  0.7818608E-02  0.9115414E-01
         -2   -1    0    0    0  501 -0.00000000000E+00  0.00000000000E+00  0.13610013855E+03  0.13610013857E+03  0.25500000000E-02 0. -1.
          2   -1    0    0  501    0  0.00000000000E+00 -0.00000000000E+00 -0.26322665144E+04  0.26322665144E+04  0.25500000000E-02 0.  1.
    5000001    1    1    2    0    0  0.39723555872E+03  0.32420499904E+03 -0.18073431476E+04  0.18884539242E+04  0.19200000000E+03 0.  0.
   -5000001    1    1    2    0    0 -0.39723555872E+03 -0.32420499904E+03 -0.68882322822E+03  0.87991272877E+03  0.19200000000E+03 0.  0.
<mgrwt>
<rscale>  0 0.11970828E+04</rscale>
<asrwt>0</asrwt>
<pdfrwt beam="1">  1        2 0.37603804E+00 0.11970828E+04</pdfrwt>
<pdfrwt beam="2">  1       -2 0.19442879E-01 0.11970828E+04</pdfrwt>
<totfact> 0.83645607E+01</totfact>
</mgrwt>
</event>
<event>
 4    1  0.5863356E-005  0.4419745E+03  0.7818608E-02  0.1030143E+00
          2   -1    0    0  501    0  0.00000000000E+00  0.00000000000E+00  0.71519193304E+03  0.71519193304E+03  0.25500000000E-02 0.  1.
         -2   -1    0    0    0  501 -0.00000000000E+00 -0.00000000000E+00 -0.68282871476E+02  0.68282871524E+02  0.25500000000E-02 0. -1.
    5000001    1    1    2    0    0  0.10100185208E+03 -0.42031518792E+02  0.32669234492E+03  0.39441084027E+03  0.19200000000E+03 0.  0.
   -5000001    1    1    2    0    0 -0.10100185208E+03  0.42031518792E+02  0.32021671664E+03  0.38906396429E+03  0.19200000000E+03 0.  0.
<mgrwt>
<rscale>  0 0.44197447E+03</rscale>
<asrwt>0</asrwt>
<pdfrwt beam="1">  1        2 0.10217028E+00 0.44197447E+03</pdfrwt>
<pdfrwt beam="2">  1       -2 0.97546957E-02 0.44197447E+03</pdfrwt>
<totfact> 0.31087022E+03</totfact>
</mgrwt>
</event>
<event>
 4    1  0.5863356E-005  0.1826134E+04  0.7818608E-02  0.8692524E-01
         -2   -1    0    0    0  501 -0.00000000000E+00  0.00000000000E+00  0.36363076565E+03  0.36363076566E+03  0.25500000000E-02 0. -1.
          2   -1    0    0  501    0  0.00000000000E+00 -0.00000000000E+00 -0.22926862479E+04  0.22926862479E+04  0.25500000000E-02 0.  1.
    5000001    1    1    2    0    0 -0.76720030063E+03  0.30507251015E+03 -0.47089796066E+03  0.96967748612E+03  0.19200000000E+03 0.  0.
   -5000001    1    1    2    0    0  0.76720030063E+03 -0.30507251015E+03 -0.14581575216E+04  0.16866395274E+04  0.19200000000E+03 0.  0.
<mgrwt>
<rscale>  0 0.18261339E+04</rscale>
<asrwt>0</asrwt>
<pdfrwt beam="1">  1        2 0.32752660E+00 0.18261339E+04</pdfrwt>
<pdfrwt beam="2">  1       -2 0.51947253E-01 0.18261339E+04</pdfrwt>
<totfact> 0.18717740E+01</totfact>
</mgrwt>
</event>
<event>
 4    1  0.5863356E-005  0.4772793E+03  0.7818608E-02  0.1019886E+00
          2   -1    0    0  501    0  0.00000000000E+00  0.00000000000E+00  0.10525891937E+04  0.10525891937E+04  0.25500000000E-02 0.  1.
         -2   -1    0    0    0  501 -0.00000000000E+00 -0.00000000000E+00 -0.54103625096E+02  0.54103625156E+02  0.25500000000E-02 0. -1.
    5000001    1    1    2    0    0 -0.13700080414E+03  0.27940659668E+01  0.41538647300E+03  0.47768917624E+03  0.19200000000E+03 0.  0.
   -5000001    1    1    2    0    0  0.13700080414E+03 -0.27940659668E+01  0.58309909559E+03  0.62900364261E+03  0.19200000000E+03 0.  0.
<mgrwt>
<rscale>  0 0.47727934E+03</rscale>
<asrwt>0</asrwt>
<pdfrwt beam="1">  1        2 0.15036987E+00 0.47727934E+03</pdfrwt>
<pdfrwt beam="2">  1       -2 0.77290901E-02 0.47727934E+03</pdfrwt>
<totfact> 0.27158695E+03</totfact>
</mgrwt>
</event>
<event>
 4    1  0.5863356E-005  0.7009588E+03  0.7818608E-02  0.9715594E-01
          2   -1    0    0  501    0  0.00000000000E+00  0.00000000000E+00  0.12435300925E+04  0.12435300925E+04  0.25500000000E-02 0.  1.
         -2   -1    0    0    0  501 -0.00000000000E+00 -0.00000000000E+00 -0.98779922030E+02  0.98779922063E+02  0.25500000000E-02 0. -1.
    5000001    1    1    2    0    0  0.21921883090E+03 -0.18464925088E+03  0.45402536453E+03  0.57022387999E+03  0.19200000000E+03 0.  0.
   -5000001    1    1    2    0    0 -0.21921883090E+03  0.18464925088E+03  0.69072480599E+03  0.77208613462E+03  0.19200000000E+03 0.  0.
<mgrwt>
<rscale>  0 0.70095879E+03</rscale>
<asrwt>0</asrwt>
<pdfrwt beam="1">  1        2 0.17764715E+00 0.70095879E+03</pdfrwt>
<pdfrwt beam="2">  1       -2 0.14111418E-01 0.70095879E+03</pdfrwt>
<totfact> 0.78976220E+02</totfact>
</mgrwt>
</event>
<event>
 4    1  0.5863356E-005  0.5353252E+03  0.7818608E-02  0.1004949E+00
         -2   -1    0    0    0  501 -0.00000000000E+00  0.00000000000E+00  0.86770236728E+02  0.86770236765E+02  0.25500000000E-02 0. -1.
          2   -1    0    0  501    0  0.00000000000E+00 -0.00000000000E+00 -0.82566652724E+03  0.82566652724E+03  0.25500000000E-02 0.  1.
    5000001    1    1    2    0    0 -0.64272186402E+02 -0.16990512466E+03 -0.29752477524E+03  0.39797444291E+03  0.19200000000E+03 0.  0.
   -5000001    1    1    2    0    0  0.64272186402E+02  0.16990512466E+03 -0.44137151528E+03  0.51446232110E+03  0.19200000000E+03 0.  0.
<mgrwt>
<rscale>  0 0.53532525E+03</rscale>
<asrwt>0</asrwt>
<pdfrwt beam="1">  1        2 0.11795236E+00 0.53532525E+03</pdfrwt>
<pdfrwt beam="2">  1       -2 0.12395749E-01 0.53532525E+03</pdfrwt>
<totfact> 0.17605804E+03</totfact>
</mgrwt>
</event>
<event>
 4    1  0.5863356E-005  0.5517753E+03  0.7818608E-02  0.1001084E+00
         -2   -1    0    0    0  501 -0.00000000000E+00  0.00000000000E+00  0.26893316394E+03  0.26893316396E+03  0.25500000000E-02 0. -1.
          2   -1    0    0  501    0  0.00000000000E+00 -0.00000000000E+00 -0.28302197970E+03  0.28302197971E+03  0.25500000000E-02 0.  1.
    5000001    1    1    2    0    0  0.39258355561E+01 -0.19731397483E+03  0.10333059552E+02  0.27553400692E+03  0.19200000000E+03 0.  0.
   -5000001    1    1    2    0    0 -0.39258355561E+01  0.19731397483E+03 -0.24421875305E+02  0.27642113675E+03  0.19200000000E+03 0.  0.
<mgrwt>
<rscale>  0 0.55177530E+03</rscale>
<asrwt>0</asrwt>
<pdfrwt beam="1">  1        2 0.40431711E-01 0.55177530E+03</pdfrwt>
<pdfrwt beam="2">  1       -2 0.38419024E-01 0.55177530E+03</pdfrwt>
<totfact> 0.81760566E+02</totfact>
</mgrwt>
</event>
<event>
 4    1  0.5863356E-005  0.4972306E+03  0.7818608E-02  0.1014504E+00
         -2   -1    0    0    0  501 -0.00000000000E+00  0.00000000000E+00  0.12318187057E+02  0.12318187321E+02  0.25500000000E-02 0. -1.
          2   -1    0    0  501    0  0.00000000000E+00 -0.00000000000E+00 -0.50177493241E+04  0.50177493241E+04  0.25500000000E-02 0.  1.
    5000001    1    1    2    0    0 -0.99966468187E+02 -0.10355107795E+03 -0.18448182154E+04  0.18603586666E+04  0.19200000000E+03 0.  0.
   -5000001    1    1    2    0    0  0.99966468187E+02  0.10355107795E+03 -0.31606129216E+04  0.31697088448E+04  0.19200000000E+03 0.  0.
<mgrwt>
<rscale>  0 0.49723063E+03</rscale>
<asrwt>0</asrwt>
<pdfrwt beam="1">  1        2 0.71682002E+00 0.49723063E+03</pdfrwt>
<pdfrwt beam="2">  1       -2 0.17597442E-02 0.49723063E+03</pdfrwt>
<totfact> 0.10353828E+02</totfact>
</mgrwt>
</event>
<event>
 4    1  0.5863356E-005  0.4220377E+03  0.7818608E-02  0.1036405E+00
          2   -1    0    0  501    0  0.00000000000E+00  0.00000000000E+00  0.12707826489E+03  0.12707826491E+03  0.25500000000E-02 0.  1.
         -2   -1    0    0    0  501 -0.00000000000E+00 -0.00000000000E+00 -0.35040567468E+03  0.35040567469E+03  0.25500000000E-02 0. -1.
    5000001    1    1    2    0    0  0.60508889540E+02  0.42905844273E+02 -0.16427833351E+03  0.26335073200E+03  0.19200000000E+03 0.  0.
   -5000001    1    1    2    0    0 -0.60508889540E+02 -0.42905844273E+02 -0.59049076283E+02  0.21413320760E+03  0.19200000000E+03 0.  0.
<mgrwt>
<rscale>  0 0.42203765E+03</rscale>
<asrwt>0</asrwt>
<pdfrwt beam="1">  1        2 0.18154038E-01 0.42203765E+03</pdfrwt>
<pdfrwt beam="2">  1       -2 0.50057953E-01 0.42203765E+03</pdfrwt>
<totfact> 0.12010629E+03</totfact>
</mgrwt>
</event>
<event>
 4    1  0.5863356E-005  0.5317615E+03  0.7818608E-02  0.1005806E+00
          2   -1    0    0  501    0  0.00000000000E+00  0.00000000000E+00  0.20618109532E+04  0.20618109532E+04  0.25500000000E-02 0.  1.
         -2   -1    0    0    0  501 -0.00000000000E+00 -0.00000000000E+00 -0.34286636837E+02  0.34286636932E+02  0.25500000000E-02 0. -1.
    5000001    1    1    2    0    0 -0.17912406155E+02  0.13212282793E+03  0.15131630394E+04  0.15311119096E+04  0.19200000000E+03 0.  0.
   -5000001    1    1    2    0    0  0.17912406155E+02 -0.13212282793E+03  0.51436127697E+03  0.56498568053E+03  0.19200000000E+03 0.  0.
<mgrwt>
<rscale>  0 0.53176146E+03</rscale>
<asrwt>0</asrwt>
<pdfrwt beam="1">  1        2 0.29454443E+00 0.53176146E+03</pdfrwt>
<pdfrwt beam="2">  1       -2 0.48980909E-02 0.53176146E+03</pdfrwt>
<totfact> 0.16393278E+03</totfact>
</mgrwt>
</event>
<event>
 4    1  0.5863356E-005  0.6392760E+03  0.7818608E-02  0.9827113E-01
         -2   -1    0    0    0  501 -0.00000000000E+00  0.00000000000E+00  0.56576825662E+03  0.56576825662E+03  0.25500000000E-02 0.  1.
          2   -1    0    0  501    0  0.00000000000E+00 -0.00000000000E+00 -0.18058359199E+03  0.18058359201E+03  0.25500000000E-02 0. -1.
    5000001    1    1    2    0    0  0.16730386269E+03  0.35355000689E+02  0.41430553889E+03  0.48759987500E+03  0.19200000000E+03 0.  0.
   -5000001    1    1    2    0    0 -0.16730386269E+03 -0.35355000689E+02 -0.29120874258E+02  0.25875197364E+03  0.19200000000E+03 0.  0.
<mgrwt>
<rscale>  0 0.63927604E+03</rscale>
<asrwt>0</asrwt>
<pdfrwt beam="1">  1        2 0.25797656E-01 0.63927604E+03</pdfrwt>
<pdfrwt beam="2">  1       -2 0.80824037E-01 0.63927604E+03</pdfrwt>
<totfact> 0.28842909E+02</totfact>
</mgrwt>
</event>
<event>
 4    1  0.5863356E-005  0.5636051E+03  0.7818608E-02  0.9983930E-01
         -2   -1    0    0    0  501 -0.00000000000E+00  0.00000000000E+00  0.12784621544E+03  0.12784621546E+03  0.25500000000E-02 0. -1.
          2   -1    0    0  501    0  0.00000000000E+00 -0.00000000000E+00 -0.62115779917E+03  0.62115779917E+03  0.25500000000E-02 0.  1.
    5000001    1    1    2    0    0  0.16405211186E+03  0.11592902967E+03 -0.30893301152E+03  0.41551924255E+03  0.19200000000E+03 0.  0.
   -5000001    1    1    2    0    0 -0.16405211186E+03 -0.11592902967E+03 -0.18437857221E+03  0.33348477209E+03  0.19200000000E+03 0.  0.
<mgrwt>
<rscale>  0 0.56360509E+03</rscale>
<asrwt>0</asrwt>
<pdfrwt beam="1">  1        2 0.88736827E-01 0.56360509E+03</pdfrwt>
<pdfrwt beam="2">  1       -2 0.18263745E-01 0.56360509E+03</pdfrwt>
<totfact> 0.13021315E+03</totfact>
</mgrwt>
</event>
<event>
 4    1  0.5863356E-005  0.5837500E+03  0.7818608E-02  0.9939705E-01
          2   -1    0    0  501    0  0.00000000000E+00  0.00000000000E+00  0.15696490317E+04  0.15696490317E+04  0.25500000000E-02 0.  1.
         -2   -1    0    0    0  501 -0.00000000000E+00 -0.00000000000E+00 -0.54273921860E+02  0.54273921920E+02  0.25500000000E-02 0. -1.
    5000001    1    1    2    0    0  0.19632879663E+03  0.93075247200E+02  0.66462912819E+03  0.72512335231E+03  0.19200000000E+03 0.  0.
   -5000001    1    1    2    0    0 -0.19632879663E+03 -0.93075247200E+02  0.85074598169E+03  0.89879960135E+03  0.19200000000E+03 0.  0.
<mgrwt>
<rscale>  0 0.58374998E+03</rscale>
<asrwt>0</asrwt>
<pdfrwt beam="1">  1        2 0.22423557E+00 0.58374998E+03</pdfrwt>
<pdfrwt beam="2">  1       -2 0.77534177E-02 0.58374998E+03</pdfrwt>
<totfact> 0.14115000E+03</totfact>
</mgrwt>
</event>
<event>
 4    1  0.5863356E-005  0.4969846E+03  0.7818608E-02  0.1014569E+00
         -2   -1    0    0    0  501 -0.00000000000E+00  0.00000000000E+00  0.15201887822E+03  0.15201887824E+03  0.25500000000E-02 0. -1.
          2   -1    0    0  501    0  0.00000000000E+00 -0.00000000000E+00 -0.40618920893E+03  0.40618920894E+03  0.25500000000E-02 0.  1.
    5000001    1    1    2    0    0  0.12091228773E+03  0.45006191400E+02 -0.25133862250E+02  0.23268229331E+03  0.19200000000E+03 0.  0.
   -5000001    1    1    2    0    0 -0.12091228773E+03 -0.45006191400E+02 -0.22903646847E+03  0.32552579387E+03  0.19200000000E+03 0.  0.
<mgrwt>
<rscale>  0 0.49698462E+03</rscale>
<asrwt>0</asrwt>
<pdfrwt beam="1">  1        2 0.58027029E-01 0.49698462E+03</pdfrwt>
<pdfrwt beam="2">  1       -2 0.21716983E-01 0.49698462E+03</pdfrwt>
<totfact> 0.15629044E+03</totfact>
</mgrwt>
</event>
<event>
 4    1  0.5863356E-005  0.8182064E+03  0.7818608E-02  0.9534032E-01
         -2   -1    0    0    0  501 -0.00000000000E+00  0.00000000000E+00  0.69303589686E+02  0.69303589733E+02  0.25500000000E-02 0. -1.
          2   -1    0    0  501    0  0.00000000000E+00 -0.00000000000E+00 -0.24149606043E+04  0.24149606043E+04  0.25500000000E-02 0.  1.
    5000001    1    1    2    0    0  0.18734851136E+02 -0.35492982549E+03 -0.97663852693E+03  0.10568883517E+04  0.19200000000E+03 0.  0.
   -5000001    1    1    2    0    0 -0.18734851136E+02  0.35492982549E+03 -0.13690184877E+04  0.14273758423E+04  0.19200000000E+03 0.  0.
<mgrwt>
<rscale>  0 0.81820643E+03</rscale>
<asrwt>0</asrwt>
<pdfrwt beam="1">  1        2 0.34499432E+00 0.81820643E+03</pdfrwt>
<pdfrwt beam="2">  1       -2 0.99005143E-02 0.81820643E+03</pdfrwt>
<totfact> 0.34933845E+02</totfact>
</mgrwt>
</event>
<event>
 4    1  0.5863356E-005  0.4086618E+03  0.7818608E-02  0.1040821E+00
         -2   -1    0    0    0  501 -0.00000000000E+00  0.00000000000E+00  0.25233958640E+02  0.25233958769E+02  0.25500000000E-02 0. -1.
          2   -1    0    0  501    0  0.00000000000E+00 -0.00000000000E+00 -0.16545610099E+04  0.16545610099E+04  0.25500000000E-02 0.  1.
    5000001    1    1    2    0    0  0.51701880939E+00 -0.63521888240E+02 -0.93463218180E+03  0.95626179096E+03  0.19200000000E+03 0.  0.
   -5000001    1    1    2    0    0 -0.51701880939E+00  0.63521888240E+02 -0.69469486943E+03  0.72353317768E+03  0.19200000000E+03 0.  0.
<mgrwt>
<rscale>  0 0.40866184E+03</rscale>
<asrwt>0</asrwt>
<pdfrwt beam="1">  1        2 0.23636579E+00 0.40866184E+03</pdfrwt>
<pdfrwt beam="2">  1       -2 0.36048523E-02 0.40866184E+03</pdfrwt>
<totfact> 0.42028052E+03</totfact>
</mgrwt>
</event>
<event>
 4    1  0.5863356E-005  0.5896360E+03  0.7818608E-02  0.9927145E-01
          2   -1    0    0  501    0  0.00000000000E+00  0.00000000000E+00  0.25515200347E+03  0.25515200348E+03  0.25500000000E-02 0.  1.
         -2   -1    0    0    0  501 -0.00000000000E+00 -0.00000000000E+00 -0.34065042977E+03  0.34065042978E+03  0.25500000000E-02 0. -1.
    5000001    1    1    2    0    0  0.18579834699E+03  0.41947917642E+02  0.75836499960E+02  0.28088401212E+03  0.19200000000E+03 0.  0.
   -5000001    1    1    2    0    0 -0.18579834699E+03 -0.41947917642E+02 -0.16133492627E+03  0.31491842114E+03  0.19200000000E+03 0.  0.
<mgrwt>
<rscale>  0 0.58963595E+03</rscale>
<asrwt>0</asrwt>
<pdfrwt beam="1">  1        2 0.36450286E-01 0.58963595E+03</pdfrwt>
<pdfrwt beam="2">  1       -2 0.48664347E-01 0.58963595E+03</pdfrwt>
<totfact> 0.57559698E+02</totfact>
</mgrwt>
</event>
<event>
 4    1  0.5863356E-005  0.4805437E+03  0.7818608E-02  0.1018986E+00
         -2   -1    0    0    0  501 -0.00000000000E+00  0.00000000000E+00  0.23989185899E+02  0.23989186034E+02  0.25500000000E-02 0. -1.
          2   -1    0    0  501    0  0.00000000000E+00 -0.00000000000E+00 -0.24065247754E+04  0.24065247754E+04  0.25500000000E-02 0.  1.
    5000001    1    1    2    0    0  0.63885172861E+02 -0.11472083428E+03 -0.14957643452E+04  0.15137427659E+04  0.19200000000E+03 0.  0.
   -5000001    1    1    2    0    0 -0.63885172861E+02  0.11472083428E+03 -0.88677124428E+03  0.91677119545E+03  0.19200000000E+03 0.  0.
<mgrwt>
<rscale>  0 0.48054374E+03</rscale>
<asrwt>0</asrwt>
<pdfrwt beam="1">  1        2 0.34378910E+00 0.48054374E+03</pdfrwt>
<pdfrwt beam="2">  1       -2 0.34270281E-02 0.48054374E+03</pdfrwt>
<totfact> 0.19073572E+03</totfact>
</mgrwt>
</event>
<event>
 4    1  0.5863356E-005  0.7285420E+03  0.7818608E-02  0.9669629E-01
         -2   -1    0    0    0  501 -0.00000000000E+00  0.00000000000E+00  0.13573237004E+03  0.13573237006E+03  0.25500000000E-02 0. -1.
          2   -1    0    0  501    0  0.00000000000E+00 -0.00000000000E+00 -0.97761018974E+03  0.97761018974E+03  0.25500000000E-02 0.  1.
    5000001    1    1    2    0    0 -0.20987208754E+03  0.16765691397E+03 -0.65607106531E+03  0.73447149479E+03  0.19200000000E+03 0.  0.
   -5000001    1    1    2    0    0  0.20987208754E+03 -0.16765691397E+03 -0.18580675439E+03  0.37887106501E+03  0.19200000000E+03 0.  0.
<mgrwt>
<rscale>  0 0.72854196E+03</rscale>
<asrwt>0</asrwt>
<pdfrwt beam="1">  1        2 0.13965859E+00 0.72854196E+03</pdfrwt>
<pdfrwt beam="2">  1       -2 0.19390339E-01 0.72854196E+03</pdfrwt>
<totfact> 0.65583726E+02</totfact>
</mgrwt>
</event>
<event>
 4    1  0.5863356E-005  0.5439085E+03  0.7818608E-02  0.1002914E+00
         -2   -1    0    0    0  501 -0.00000000000E+00  0.00000000000E+00  0.71420848472E+02  0.71420848518E+02  0.25500000000E-02 0. -1.
          2   -1    0    0  501    0  0.00000000000E+00 -0.00000000000E+00 -0.10355396276E+04  0.10355396276E+04  0.25500000000E-02 0.  1.
    5000001    1    1    2    0    0  0.54171556770E+01  0.18857226152E+03 -0.56104690543E+03  0.62227523933E+03  0.19200000000E+03 0.  0.
   -5000001    1    1    2    0    0 -0.54171556770E+01 -0.18857226152E+03 -0.40307187365E+03  0.48468523675E+03  0.19200000000E+03 0.  0.
<mgrwt>
<rscale>  0 0.54390852E+03</rscale>
<asrwt>0</asrwt>
<pdfrwt beam="1">  1        2 0.14793422E+00 0.54390852E+03</pdfrwt>
<pdfrwt beam="2">  1       -2 0.10202979E-01 0.54390852E+03</pdfrwt>
<totfact> 0.17818109E+03</totfact>
</mgrwt>
</event>
<event>
 4    1  0.5863356E-005  0.5735090E+03  0.7818608E-02  0.9961944E-01
          2   -1    0    0  501    0  0.00000000000E+00  0.00000000000E+00  0.34128258274E+04  0.34128258274E+04  0.25500000000E-02 0.  1.
         -2   -1    0    0    0  501 -0.00000000000E+00 -0.00000000000E+00 -0.24093861474E+02  0.24093861608E+02  0.25500000000E-02 0. -1.
    5000001    1    1    2    0    0  0.20520457339E+03 -0.24351776859E+02  0.13851573143E+04  0.14135864711E+04  0.19200000000E+03 0.  0.
   -5000001    1    1    2    0    0 -0.20520457339E+03  0.24351776859E+02  0.20035746516E+04  0.20233332179E+04  0.19200000000E+03 0.  0.
<mgrwt>
<rscale>  0 0.57350903E+03</rscale>
<asrwt>0</asrwt>
<pdfrwt beam="1">  1        2 0.48754668E+00 0.57350903E+03</pdfrwt>
<pdfrwt beam="2">  1       -2 0.34419792E-02 0.57350903E+03</pdfrwt>
<totfact> 0.54024037E+02</totfact>
</mgrwt>
</event>
<event>
 4    1  0.5863356E-005  0.4900259E+03  0.7818608E-02  0.1016416E+00
         -2   -1    0    0    0  501 -0.00000000000E+00  0.00000000000E+00  0.55216234965E+02  0.55216235024E+02  0.25500000000E-02 0. -1.
          2   -1    0    0  501    0  0.00000000000E+00 -0.00000000000E+00 -0.10872046882E+04  0.10872046882E+04  0.25500000000E-02 0.  1.
    5000001    1    1    2    0    0 -0.18827934689E+02  0.14140926126E+03 -0.63971566431E+03  0.68297232847E+03  0.19200000000E+03 0.  0.
   -5000001    1    1    2    0    0  0.18827934689E+02 -0.14140926126E+03 -0.39227278893E+03  0.45944859477E+03  0.19200000000E+03 0.  0.
<mgrwt>
<rscale>  0 0.49002592E+03</rscale>
<asrwt>0</asrwt>
<pdfrwt beam="1">  1        2 0.15531494E+00 0.49002592E+03</pdfrwt>
<pdfrwt beam="2">  1       -2 0.78880343E-02 0.49002592E+03</pdfrwt>
<totfact> 0.25100392E+03</totfact>
</mgrwt>
</event>
<event>
 4    1  0.5863356E-005  0.4354664E+03  0.7818608E-02  0.1032147E+00
          2   -1    0    0  501    0  0.00000000000E+00  0.00000000000E+00  0.67318853023E+02  0.67318853071E+02  0.25500000000E-02 0.  1.
         -2   -1    0    0    0  501 -0.00000000000E+00 -0.00000000000E+00 -0.70422691744E+03  0.70422691745E+03  0.25500000000E-02 0. -1.
    5000001    1    1    2    0    0 -0.82333561196E+02  0.61164632327E+02 -0.32710142968E+03  0.39291127859E+03  0.19200000000E+03 0.  0.
   -5000001    1    1    2    0    0  0.82333561196E+02 -0.61164632327E+02 -0.30980663474E+03  0.37863449193E+03  0.19200000000E+03 0.  0.
<mgrwt>
<rscale>  0 0.43546641E+03</rscale>
<asrwt>0</asrwt>
<pdfrwt beam="1">  1        2 0.96169794E-02 0.43546641E+03</pdfrwt>
<pdfrwt beam="2">  1       -2 0.10060384E+00 0.43546641E+03</pdfrwt>
<totfact> 0.57298772E+02</totfact>
</mgrwt>
</event>
<event>
 4    1  0.5863356E-005  0.1215060E+04  0.7818608E-02  0.9099776E-01
          2   -1    0    0  501    0  0.00000000000E+00  0.00000000000E+00  0.73566673169E+03  0.73566673169E+03  0.25500000000E-02 0.  1.
         -2   -1    0    0    0  501 -0.00000000000E+00 -0.00000000000E+00 -0.50171163535E+03  0.50171163535E+03  0.25500000000E-02 0. -1.
    5000001    1    1    2    0    0 -0.19295358660E+03 -0.54038764329E+03  0.61397888086E+02  0.60818055894E+03  0.19200000000E+03 0.  0.
   -5000001    1    1    2    0    0  0.19295358660E+03  0.54038764329E+03  0.17255720826E+03  0.62919780811E+03  0.19200000000E+03 0.  0.
<mgrwt>
<rscale>  0 0.12150598E+04</rscale>
<asrwt>0</asrwt>
<pdfrwt beam="1">  1        2 0.10509525E+00 0.12150598E+04</pdfrwt>
<pdfrwt beam="2">  1       -2 0.71673091E-01 0.12150598E+04</pdfrwt>
<totfact> 0.73697357E+01</totfact>
</mgrwt>
</event>
<event>
 4    1  0.5863356E-005  0.1611810E+04  0.7818608E-02  0.8813325E-01
          2   -1    0    0  501    0  0.00000000000E+00  0.00000000000E+00  0.16457952044E+04  0.16457952044E+04  0.25500000000E-02 0.  1.
         -2   -1    0    0    0  501 -0.00000000000E+00 -0.00000000000E+00 -0.39463165971E+03  0.39463165971E+03  0.25500000000E-02 0. -1.
    5000001    1    1    2    0    0 -0.74276008875E+03  0.39914426839E+02  0.93394032557E+03  0.12092949362E+04  0.19200000000E+03 0.  0.
   -5000001    1    1    2    0    0  0.74276008875E+03 -0.39914426839E+02  0.31722321912E+03  0.83113192795E+03  0.19200000000E+03 0.  0.
<mgrwt>
<rscale>  0 0.16118100E+04</rscale>
<asrwt>0</asrwt>
<pdfrwt beam="1">  1        2 0.23511360E+00 0.16118100E+04</pdfrwt>
<pdfrwt beam="2">  1       -2 0.56375950E-01 0.16118100E+04</pdfrwt>
<totfact> 0.34701687E+01</totfact>
</mgrwt>
</event>
<event>
 4    1  0.5863356E-005  0.5778416E+03  0.7818608E-02  0.9952475E-01
         -2   -1    0    0    0  501 -0.00000000000E+00  0.00000000000E+00  0.36298642830E+03  0.36298642831E+03  0.25500000000E-02 0. -1.
          2   -1    0    0  501    0  0.00000000000E+00 -0.00000000000E+00 -0.22996790998E+03  0.22996791000E+03  0.25500000000E-02 0.  1.
    5000001    1    1    2    0    0 -0.15417440783E+03  0.15097980220E+03  0.59505688447E+02  0.29490604548E+03  0.19200000000E+03 0.  0.
   -5000001    1    1    2    0    0  0.15417440783E+03 -0.15097980220E+03  0.73512829874E+02  0.29804829283E+03  0.19200000000E+03 0.  0.
<mgrwt>
<rscale>  0 0.57784161E+03</rscale>
<asrwt>0</asrwt>
<pdfrwt beam="1">  1        2 0.32852559E-01 0.57784161E+03</pdfrwt>
<pdfrwt beam="2">  1       -2 0.51855204E-01 0.57784161E+03</pdfrwt>
<totfact> 0.56818839E+02</totfact>
</mgrwt>
</event>
<event>
 4    1  0.5863356E-005  0.6391728E+03  0.7818608E-02  0.9827311E-01
          2   -1    0    0  501    0  0.00000000000E+00  0.00000000000E+00  0.46057873691E+03  0.46057873692E+03  0.25500000000E-02 0.  1.
         -2   -1    0    0    0  501 -0.00000000000E+00 -0.00000000000E+00 -0.22175460616E+03  0.22175460617E+03  0.25500000000E-02 0. -1.
    5000001    1    1    2    0    0  0.29066453436E+02 -0.18889357965E+03  0.30040667109E+03  0.40451676255E+03  0.19200000000E+03 0.  0.
   -5000001    1    1    2    0    0 -0.29066453436E+02  0.18889357965E+03 -0.61582540332E+02  0.27781658054E+03  0.19200000000E+03 0.  0.
<mgrwt>
<rscale>  0 0.63917277E+03</rscale>
<asrwt>0</asrwt>
<pdfrwt beam="1">  1        2 0.65796962E-01 0.63917277E+03</pdfrwt>
<pdfrwt beam="2">  1       -2 0.31679229E-01 0.63917277E+03</pdfrwt>
<totfact> 0.68584307E+02</totfact>
</mgrwt>
</event>
<event>
 4    1  0.5863356E-005  0.1700067E+04  0.7818608E-02  0.8761326E-01
         -2   -1    0    0    0  501 -0.00000000000E+00  0.00000000000E+00  0.12918349503E+04  0.12918349503E+04  0.25500000000E-02 0. -1.
          2   -1    0    0  501    0  0.00000000000E+00 -0.00000000000E+00 -0.55932627142E+03  0.55932627143E+03  0.25500000000E-02 0.  1.
    5000001    1    1    2    0    0  0.72016896247E+03  0.33961752767E+03  0.61386233480E+03  0.10235596542E+04  0.19200000000E+03 0.  0.
   -5000001    1    1    2    0    0 -0.72016896247E+03 -0.33961752767E+03  0.11864634407E+03  0.82760156753E+03  0.19200000000E+03 0.  0.
<mgrwt>
<rscale>  0 0.17000673E+04</rscale>
<asrwt>0</asrwt>
<pdfrwt beam="1">  1        2 0.79903754E-01 0.17000673E+04</pdfrwt>
<pdfrwt beam="2">  1       -2 0.18454785E+00 0.17000673E+04</pdfrwt>
<totfact> 0.94819725E+00</totfact>
</mgrwt>
</event>
<event>
 4    1  0.5863356E-005  0.5090449E+03  0.7818608E-02  0.1011445E+00
          2   -1    0    0  501    0  0.00000000000E+00  0.00000000000E+00  0.30139405574E+03  0.30139405576E+03  0.25500000000E-02 0.  1.
         -2   -1    0    0    0  501 -0.00000000000E+00 -0.00000000000E+00 -0.21494009686E+03  0.21494009687E+03  0.25500000000E-02 0. -1.
    5000001    1    1    2    0    0 -0.44738102802E+02 -0.15375606579E+03 -0.51555518698E+01  0.25006600194E+03  0.19200000000E+03 0.  0.
   -5000001    1    1    2    0    0  0.44738102802E+02  0.15375606579E+03  0.91609510756E+02  0.26626815069E+03  0.19200000000E+03 0.  0.
<mgrwt>
<rscale>  0 0.50904486E+03</rscale>
<asrwt>0</asrwt>
<pdfrwt beam="1">  1        2 0.43056293E-01 0.50904486E+03</pdfrwt>
<pdfrwt beam="2">  1       -2 0.30705728E-01 0.50904486E+03</pdfrwt>
<totfact> 0.11641417E+03</totfact>
</mgrwt>
</event>
<event>
 4    1  0.5863356E-005  0.4672694E+03  0.7818608E-02  0.1022694E+00
          2   -1    0    0  501    0  0.00000000000E+00  0.00000000000E+00  0.34607792303E+03  0.34607792304E+03  0.25500000000E-02 0.  1.
         -2   -1    0    0    0  501 -0.00000000000E+00 -0.00000000000E+00 -0.15772512326E+03  0.15772512328E+03  0.25500000000E-02 0. -1.
    5000001    1    1    2    0    0 -0.82792683057E+02  0.84806804434E+02  0.15953222431E+03  0.27633558048E+03  0.19200000000E+03 0.  0.
   -5000001    1    1    2    0    0  0.82792683057E+02 -0.84806804434E+02  0.28820575455E+02  0.22746746584E+03  0.19200000000E+03 0.  0.
<mgrwt>
<rscale>  0 0.46726944E+03</rscale>
<asrwt>0</asrwt>
<pdfrwt beam="1">  1        2 0.49439703E-01 0.46726944E+03</pdfrwt>
<pdfrwt beam="2">  1       -2 0.22532161E-01 0.46726944E+03</pdfrwt>
<totfact> 0.17467755E+03</totfact>
</mgrwt>
</event>
<event>
 4    1  0.5863356E-005  0.5172538E+03  0.7818608E-02  0.1009371E+00
         -2   -1    0    0    0  501 -0.00000000000E+00  0.00000000000E+00  0.16871161530E+04  0.16871161530E+04  0.25500000000E-02 0. -1.
          2   -1    0    0  501    0  0.00000000000E+00 -0.00000000000E+00 -0.39646270600E+02  0.39646270682E+02  0.25500000000E-02 0.  1.
    5000001    1    1    2    0    0 -0.10837471780E+03 -0.12360254454E+03  0.64085079971E+03  0.68889506891E+03  0.19200000000E+03 0.  0.
   -5000001    1    1    2    0    0  0.10837471780E+03  0.12360254454E+03  0.10066190826E+04  0.10378673547E+04  0.19200000000E+03 0.  0.
<mgrwt>
<rscale>  0 0.51725376E+03</rscale>
<asrwt>0</asrwt>
<pdfrwt beam="1">  1        2 0.56637532E-02 0.51725376E+03</pdfrwt>
<pdfrwt beam="2">  1       -2 0.24101658E+00 0.51725376E+03</pdfrwt>
<totfact> 0.10630522E+02</totfact>
</mgrwt>
</event>
<event>
 4    1  0.5863356E-005  0.4645930E+03  0.7818608E-02  0.1023457E+00
          2   -1    0    0  501    0  0.00000000000E+00  0.00000000000E+00  0.90017423932E+02  0.90017423968E+02  0.25500000000E-02 0.  1.
         -2   -1    0    0    0  501 -0.00000000000E+00 -0.00000000000E+00 -0.59945800403E+03  0.59945800404E+03  0.25500000000E-02 0. -1.
    5000001    1    1    2    0    0  0.97911004114E+02 -0.55823481699E+02 -0.35310273994E+03  0.41743067783E+03  0.19200000000E+03 0.  0.
   -5000001    1    1    2    0    0 -0.97911004114E+02  0.55823481699E+02 -0.15633784016E+03  0.27204475018E+03  0.19200000000E+03 0.  0.
<mgrwt>
<rscale>  0 0.46459301E+03</rscale>
<asrwt>0</asrwt>
<pdfrwt beam="1">  1        2 0.12859632E-01 0.46459301E+03</pdfrwt>
<pdfrwt beam="2">  1       -2 0.85636856E-01 0.46459301E+03</pdfrwt>
<totfact> 0.57813951E+02</totfact>
</mgrwt>
</event>
<event>
 4    1  0.5863356E-005  0.7278472E+03  0.7818608E-02  0.9670760E-01
         -2   -1    0    0    0  501 -0.00000000000E+00  0.00000000000E+00  0.13390046985E+03  0.13390046987E+03  0.25500000000E-02 0. -1.
          2   -1    0    0  501    0  0.00000000000E+00 -0.00000000000E+00 -0.98909568237E+03  0.98909568237E+03  0.25500000000E-02 0.  1.
    5000001    1    1    2    0    0  0.29599702815E+03 -0.73028146804E+02 -0.34848685920E+03  0.50125287225E+03  0.19200000000E+03 0.  0.
   -5000001    1    1    2    0    0 -0.29599702815E+03  0.73028146804E+02 -0.50670835332E+03  0.62174328000E+03  0.19200000000E+03 0.  0.
<mgrwt>
<rscale>  0 0.72784717E+03</rscale>
<asrwt>0</asrwt>
<pdfrwt beam="1">  1        2 0.14129938E+00 0.72784717E+03</pdfrwt>
<pdfrwt beam="2">  1       -2 0.19128639E-01 0.72784717E+03</pdfrwt>
<totfact> 0.66064111E+02</totfact>
</mgrwt>
</event>
<event>
 4    1  0.5863356E-005  0.1111546E+04  0.7818608E-02  0.9194011E-01
         -2   -1    0    0    0  501 -0.00000000000E+00  0.00000000000E+00  0.25986620466E+03  0.25986620467E+03  0.25500000000E-02 0. -1.
          2   -1    0    0  501    0  0.00000000000E+00 -0.00000000000E+00 -0.11886263766E+04  0.11886263766E+04  0.25500000000E-02 0.  1.
    5000001    1    1    2    0    0  0.46219763473E+03 -0.17729865287E+03 -0.25041868864E+03  0.58705620300E+03  0.19200000000E+03 0.  0.
   -5000001    1    1    2    0    0 -0.46219763473E+03  0.17729865287E+03 -0.67834148334E+03  0.86143637831E+03  0.19200000000E+03 0.  0.
<mgrwt>
<rscale>  0 0.11115464E+04</rscale>
<asrwt>0</asrwt>
<pdfrwt beam="1">  1        2 0.16980377E+00 0.11115464E+04</pdfrwt>
<pdfrwt beam="2">  1       -2 0.37123744E-01 0.11115464E+04</pdfrwt>
<totfact> 0.14700073E+02</totfact>
</mgrwt>
</event>
<event>
 4    1  0.5863356E-005  0.4790711E+03  0.7818608E-02  0.1019391E+00
         -2   -1    0    0    0  501 -0.00000000000E+00  0.00000000000E+00  0.29714294639E+03  0.29714294640E+03  0.25500000000E-02 0. -1.
          2   -1    0    0  501    0  0.00000000000E+00 -0.00000000000E+00 -0.19309653874E+03  0.19309653876E+03  0.25500000000E-02 0.  1.
    5000001    1    1    2    0    0  0.13873650609E+03 -0.31557156911E+02  0.35220853141E+02  0.24155368093E+03  0.19200000000E+03 0.  0.
   -5000001    1    1    2    0    0 -0.13873650609E+03  0.31557156911E+02  0.68825554508E+02  0.24868580423E+03  0.19200000000E+03 0.  0.
<mgrwt>
<rscale>  0 0.47907108E+03</rscale>
<asrwt>0</asrwt>
<pdfrwt beam="1">  1        2 0.27585220E-01 0.47907108E+03</pdfrwt>
<pdfrwt beam="2">  1       -2 0.42448993E-01 0.47907108E+03</pdfrwt>
<totfact> 0.10309148E+03</totfact>
</mgrwt>
</event>
<event>
 4    1  0.5863356E-005  0.5523643E+03  0.7818608E-02  0.1000948E+00
         -2   -1    0    0    0  501 -0.00000000000E+00  0.00000000000E+00  0.10711295978E+03  0.10711295981E+03  0.25500000000E-02 0. -1.
          2   -1    0    0  501    0  0.00000000000E+00 -0.00000000000E+00 -0.71211335393E+03  0.71211335394E+03  0.25500000000E-02 0.  1.
    5000001    1    1    2    0    0 -0.14682541171E+03 -0.11574275338E+01 -0.10432908525E+03  0.26326336470E+03  0.19200000000E+03 0.  0.
   -5000001    1    1    2    0    0  0.14682541171E+03  0.11574275338E+01 -0.50067130890E+03  0.55596294905E+03  0.19200000000E+03 0.  0.
<mgrwt>
<rscale>  0 0.55236426E+03</rscale>
<asrwt>0</asrwt>
<pdfrwt beam="1">  1        2 0.10173048E+00 0.55236426E+03</pdfrwt>
<pdfrwt beam="2">  1       -2 0.15301852E-01 0.55236426E+03</pdfrwt>
<totfact> 0.14926428E+03</totfact>
</mgrwt>
</event>
<event>
 4    1  0.5863356E-005  0.4625818E+03  0.7818608E-02  0.1024035E+00
          2   -1    0    0  501    0  0.00000000000E+00  0.00000000000E+00  0.62147049657E+03  0.62147049658E+03  0.25500000000E-02 0.  1.
         -2   -1    0    0    0  501 -0.00000000000E+00 -0.00000000000E+00 -0.86078872646E+02  0.86078872684E+02  0.25500000000E-02 0. -1.
    5000001    1    1    2    0    0 -0.77019830724E+02  0.99606678993E+02  0.22503394648E+03  0.32149311329E+03  0.19200000000E+03 0.  0.
   -5000001    1    1    2    0    0  0.77019830724E+02 -0.99606678993E+02  0.31035767745E+03  0.38605625597E+03  0.19200000000E+03 0.  0.
<mgrwt>
<rscale>  0 0.46258180E+03</rscale>
<asrwt>0</asrwt>
<pdfrwt beam="1">  1        2 0.88781502E-01 0.46258180E+03</pdfrwt>
<pdfrwt beam="2">  1       -2 0.12296981E-01 0.46258180E+03</pdfrwt>
<totfact> 0.25263024E+03</totfact>
</mgrwt>
</event>
<event>
 4    1  0.5863356E-005  0.8847157E+03  0.7818608E-02  0.9444892E-01
         -2   -1    0    0    0  501 -0.00000000000E+00  0.00000000000E+00  0.49055031457E+02  0.49055031524E+02  0.25500000000E-02 0. -1.
          2   -1    0    0  501    0  0.00000000000E+00 -0.00000000000E+00 -0.39889991868E+04  0.39889991868E+04  0.25500000000E-02 0.  1.
    5000001    1    1    2    0    0 -0.33758696211E+03  0.18794032673E+03 -0.15244041987E+04  0.15842849127E+04  0.19200000000E+03 0.  0.
   -5000001    1    1    2    0    0  0.33758696211E+03 -0.18794032673E+03 -0.24155399566E+04  0.24537693057E+04  0.19200000000E+03 0.  0.
<mgrwt>
<rscale>  0 0.88471573E+03</rscale>
<asrwt>0</asrwt>
<pdfrwt beam="1">  1        2 0.56985682E+00 0.88471573E+03</pdfrwt>
<pdfrwt beam="2">  1       -2 0.70078642E-02 0.88471573E+03</pdfrwt>
<totfact> 0.75084038E+01</totfact>
</mgrwt>
</event>
<event>
 4    1  0.5863356E-005  0.5905632E+03  0.7818608E-02  0.9925180E-01
          2   -1    0    0  501    0  0.00000000000E+00  0.00000000000E+00  0.13683763307E+04  0.13683763307E+04  0.25500000000E-02 0.  1.
         -2   -1    0    0    0  501 -0.00000000000E+00 -0.00000000000E+00 -0.63718752253E+02  0.63718752304E+02  0.25500000000E-02 0. -1.
    5000001    1    1    2    0    0 -0.16163633765E+03 -0.11263194645E+03  0.91254651811E+03  0.95310933724E+03  0.19200000000E+03 0.  0.
   -5000001    1    1    2    0    0  0.16163633765E+03  0.11263194645E+03  0.39211106032E+03  0.47898574575E+03  0.19200000000E+03 0.  0.
<mgrwt>
<rscale>  0 0.59056323E+03</rscale>
<asrwt>0</asrwt>
<pdfrwt beam="1">  1        2 0.19548235E+00 0.59056323E+03</pdfrwt>
<pdfrwt beam="2">  1       -2 0.91026779E-02 0.59056323E+03</pdfrwt>
<totfact> 0.13920942E+03</totfact>
</mgrwt>
</event>
<event>
 4    1  0.5863356E-005  0.8672788E+03  0.7818608E-02  0.9467435E-01
         -2   -1    0    0    0  501 -0.00000000000E+00  0.00000000000E+00  0.19435265422E+03  0.19435265423E+03  0.25500000000E-02 0. -1.
          2   -1    0    0  501    0  0.00000000000E+00 -0.00000000000E+00 -0.96753567977E+03  0.96753567977E+03  0.25500000000E-02 0.  1.
    5000001    1    1    2    0    0 -0.11983016901E+03  0.34730003446E+03 -0.21606289627E+03  0.46746524842E+03  0.19200000000E+03 0.  0.
   -5000001    1    1    2    0    0  0.11983016901E+03 -0.34730003446E+03 -0.55712012928E+03  0.69442308559E+03  0.19200000000E+03 0.  0.
<mgrwt>
<rscale>  0 0.86727880E+03</rscale>
<asrwt>0</asrwt>
<pdfrwt beam="1">  1        2 0.13821938E+00 0.86727880E+03</pdfrwt>
<pdfrwt beam="2">  1       -2 0.27764665E-01 0.86727880E+03</pdfrwt>
<totfact> 0.34851575E+02</totfact>
</mgrwt>
</event>
<event>
 4    1  0.5863356E-005  0.6085821E+03  0.7818608E-02  0.9887759E-01
         -2   -1    0    0    0  501 -0.00000000000E+00  0.00000000000E+00  0.49424029456E+02  0.49424029522E+02  0.25500000000E-02 0. -1.
          2   -1    0    0  501    0  0.00000000000E+00 -0.00000000000E+00 -0.18734415972E+04  0.18734415972E+04  0.25500000000E-02 0.  1.
    5000001    1    1    2    0    0  0.22798016438E+03 -0.12378180028E+02 -0.11016063627E+04  0.11412838179E+04  0.19200000000E+03 0.  0.
   -5000001    1    1    2    0    0 -0.22798016438E+03  0.12378180028E+02 -0.72241120509E+03  0.78158180885E+03  0.19200000000E+03 0.  0.
<mgrwt>
<rscale>  0 0.60858207E+03</rscale>
<asrwt>0</asrwt>
<pdfrwt beam="1">  1        2 0.26763447E+00 0.60858207E+03</pdfrwt>
<pdfrwt beam="2">  1       -2 0.70605768E-02 0.60858207E+03</pdfrwt>
<totfact> 0.11462147E+03</totfact>
</mgrwt>
</event>
<event>
 4    1  0.5863356E-005  0.7594059E+03  0.7818608E-02  0.9620708E-01
         -2   -1    0    0    0  501 -0.00000000000E+00  0.00000000000E+00  0.57478302100E+03  0.57478302101E+03  0.25500000000E-02 0. -1.
          2   -1    0    0  501    0  0.00000000000E+00 -0.00000000000E+00 -0.25083262021E+03  0.25083262022E+03  0.25500000000E-02 0.  1.
    5000001    1    1    2    0    0  0.99798771423E+02  0.30423691966E+03  0.86727828561E+02  0.38328268198E+03  0.19200000000E+03 0.  0.
   -5000001    1    1    2    0    0 -0.99798771423E+02 -0.30423691966E+03  0.23722257223E+03  0.44233295925E+03  0.19200000000E+03 0.  0.
<mgrwt>
<rscale>  0 0.75940590E+03</rscale>
<asrwt>0</asrwt>
<pdfrwt beam="1">  1        2 0.35833232E-01 0.75940590E+03</pdfrwt>
<pdfrwt beam="2">  1       -2 0.82111860E-01 0.75940590E+03</pdfrwt>
<totfact> 0.19144941E+02</totfact>
</mgrwt>
</event>
<event>
 4    1  0.5863356E-005  0.4256235E+03  0.7818608E-02  0.1035251E+00
         -2   -1    0    0    0  501 -0.00000000000E+00  0.00000000000E+00  0.26534198590E+03  0.26534198592E+03  0.25500000000E-02 0. -1.
          2   -1    0    0  501    0  0.00000000000E+00 -0.00000000000E+00 -0.17068100146E+03  0.17068100148E+03  0.25500000000E-02 0.  1.
    5000001    1    1    2    0    0 -0.89099517938E+02  0.16598435275E+02  0.32463714364E+02  0.21478390280E+03  0.19200000000E+03 0.  0.
   -5000001    1    1    2    0    0  0.89099517938E+02 -0.16598435275E+02  0.62197270075E+02  0.22123908460E+03  0.19200000000E+03 0.  0.
<mgrwt>
<rscale>  0 0.42562348E+03</rscale>
<asrwt>0</asrwt>
<pdfrwt beam="1">  1        2 0.24383000E-01 0.42562348E+03</pdfrwt>
<pdfrwt beam="2">  1       -2 0.37905998E-01 0.42562348E+03</pdfrwt>
<totfact> 0.14738198E+03</totfact>
</mgrwt>
</event>
<event>
 4    1  0.5863356E-005  0.1045539E+04  0.7818608E-02  0.9259962E-01
          2   -1    0    0  501    0  0.00000000000E+00  0.00000000000E+00  0.25380325368E+04  0.25380325368E+04  0.25500000000E-02 0.  1.
         -2   -1    0    0    0  501 -0.00000000000E+00 -0.00000000000E+00 -0.10767699466E+03  0.10767699469E+03  0.25500000000E-02 0. -1.
    5000001    1    1    2    0    0  0.39467887949E+03  0.11974810462E+03  0.18668068132E+04  0.19214428704E+04  0.19200000000E+03 0.  0.
   -5000001    1    1    2    0    0 -0.39467887949E+03 -0.11974810462E+03  0.56354872899E+03  0.72426666113E+03  0.19200000000E+03 0.  0.
<mgrwt>
<rscale>  0 0.10455386E+04</rscale>
<asrwt>0</asrwt>
<pdfrwt beam="1">  1        2 0.36257613E+00 0.10455386E+04</pdfrwt>
<pdfrwt beam="2">  1       -2 0.15382426E-01 0.10455386E+04</pdfrwt>
<totfact> 0.14225774E+02</totfact>
</mgrwt>
</event>
<event>
 4    1  0.5863356E-005  0.5832313E+03  0.7818608E-02  0.9940820E-01
          2   -1    0    0  501    0  0.00000000000E+00  0.00000000000E+00  0.17705196950E+03  0.17705196952E+03  0.25500000000E-02 0.  1.
         -2   -1    0    0    0  501 -0.00000000000E+00 -0.00000000000E+00 -0.48030916997E+03  0.48030916998E+03  0.25500000000E-02 0. -1.
    5000001    1    1    2    0    0  0.10863908277E+03  0.18988440266E+03 -0.13155644118E+03  0.31942077875E+03  0.19200000000E+03 0.  0.
   -5000001    1    1    2    0    0 -0.10863908277E+03 -0.18988440266E+03 -0.17170075929E+03  0.33794036074E+03  0.19200000000E+03 0.  0.
<mgrwt>
<rscale>  0 0.58323129E+03</rscale>
<asrwt>0</asrwt>
<pdfrwt beam="1">  1        2 0.25293139E-01 0.58323129E+03</pdfrwt>
<pdfrwt beam="2">  1       -2 0.68615596E-01 0.58323129E+03</pdfrwt>
<totfact> 0.42375034E+02</totfact>
</mgrwt>
</event>
<event>
 4    1  0.5863356E-005  0.5059159E+03  0.7818608E-02  0.1012246E+00
         -2   -1    0    0    0  501 -0.00000000000E+00  0.00000000000E+00  0.99345419933E+03  0.99345419933E+03  0.25500000000E-02 0. -1.
          2   -1    0    0  501    0  0.00000000000E+00 -0.00000000000E+00 -0.64409329818E+02  0.64409329869E+02  0.25500000000E-02 0.  1.
    5000001    1    1    2    0    0  0.16353336712E+03  0.28667481156E+01  0.50487029282E+03  0.56436636415E+03  0.19200000000E+03 0.  0.
   -5000001    1    1    2    0    0 -0.16353336712E+03 -0.28667481156E+01  0.42417457668E+03  0.49349716505E+03  0.19200000000E+03 0.  0.
<mgrwt>
<rscale>  0 0.50591588E+03</rscale>
<asrwt>0</asrwt>
<pdfrwt beam="1">  1        2 0.92013338E-02 0.50591588E+03</pdfrwt>
<pdfrwt beam="2">  1       -2 0.14192201E+00 0.50591588E+03</pdfrwt>
<totfact> 0.26027195E+02</totfact>
</mgrwt>
</event>
<event>
 4    1  0.5863356E-005  0.5711720E+03  0.7818608E-02  0.9967088E-01
          2   -1    0    0  501    0  0.00000000000E+00  0.00000000000E+00  0.58314196011E+03  0.58314196012E+03  0.25500000000E-02 0. -1.
         -2   -1    0    0    0  501 -0.00000000000E+00 -0.00000000000E+00 -0.13986194358E+03  0.13986194360E+03  0.25500000000E-02 0.  1.
    5000001    1    1    2    0    0 -0.27811605809E+02  0.14933385126E+03  0.35510832009E+02  0.24738452607E+03  0.19200000000E+03 0.  0.
   -5000001    1    1    2    0    0  0.27811605809E+02 -0.14933385126E+03  0.40776918452E+03  0.47561937765E+03  0.19200000000E+03 0.  0.
<mgrwt>
<rscale>  0 0.57117202E+03</rscale>
<asrwt>0</asrwt>
<pdfrwt beam="1">  1        2 0.83305993E-01 0.57117202E+03</pdfrwt>
<pdfrwt beam="2">  1       -2 0.19980278E-01 0.57117202E+03</pdfrwt>
<totfact> 0.12005959E+03</totfact>
</mgrwt>
</event>
<event>
 4    1  0.5863356E-005  0.8177393E+03  0.7818608E-02  0.9534689E-01
          2   -1    0    0  501    0  0.00000000000E+00  0.00000000000E+00  0.19651184189E+04  0.19651184189E+04  0.25500000000E-02 0.  1.
         -2   -1    0    0    0  501 -0.00000000000E+00 -0.00000000000E+00 -0.85070901537E+02  0.85070901575E+02  0.25500000000E-02 0. -1.
    5000001    1    1    2    0    0 -0.33395731878E+03 -0.13429521551E+03  0.10085793289E+04  0.10879609177E+04  0.19200000000E+03 0.  0.
   -5000001    1    1    2    0    0  0.33395731878E+03  0.13429521551E+03  0.87146818840E+03  0.96222840275E+03  0.19200000000E+03 0.  0.
<mgrwt>
<rscale>  0 0.81773931E+03</rscale>
<asrwt>0</asrwt>
<pdfrwt beam="1">  1        2 0.28073121E+00 0.81773931E+03</pdfrwt>
<pdfrwt beam="2">  1       -2 0.12152986E-01 0.81773931E+03</pdfrwt>
<totfact> 0.42282982E+02</totfact>
</mgrwt>
</event>
<event>
 4    1  0.5863356E-005  0.6728631E+03  0.7818608E-02  0.9764799E-01
         -2   -1    0    0    0  501 -0.00000000000E+00  0.00000000000E+00  0.64662683052E+02  0.64662683103E+02  0.25500000000E-02 0. -1.
          2   -1    0    0  501    0  0.00000000000E+00 -0.00000000000E+00 -0.17504098327E+04  0.17504098327E+04  0.25500000000E-02 0.  1.
    5000001    1    1    2    0    0 -0.18355786145E+03 -0.19840206999E+03 -0.68872818093E+03  0.76437384642E+03  0.19200000000E+03 0.  0.
   -5000001    1    1    2    0    0  0.18355786145E+03  0.19840206999E+03 -0.99701896870E+03  0.10506986694E+04  0.19200000000E+03 0.  0.
<mgrwt>
<rscale>  0 0.67286313E+03</rscale>
<asrwt>0</asrwt>
<pdfrwt beam="1">  1        2 0.25005852E+00 0.67286313E+03</pdfrwt>
<pdfrwt beam="2">  1       -2 0.92375272E-02 0.67286313E+03</pdfrwt>
<totfact> 0.85833600E+02</totfact>
</mgrwt>
</event>
<event>
 4    1  0.5863356E-005  0.7687267E+03  0.7818608E-02  0.9606421E-01
         -2   -1    0    0    0  501 -0.00000000000E+00  0.00000000000E+00  0.95893936089E+02  0.95893936123E+02  0.25500000000E-02 0. -1.
          2   -1    0    0  501    0  0.00000000000E+00 -0.00000000000E+00 -0.15406101675E+04  0.15406101675E+04  0.25500000000E-02 0.  1.
    5000001    1    1    2    0    0  0.28305934942E+02 -0.27604862460E+03 -0.11141308255E+04  0.11641114918E+04  0.19200000000E+03 0.  0.
   -5000001    1    1    2    0    0 -0.28305934942E+02  0.27604862460E+03 -0.33058540600E+03  0.47239261187E+03  0.19200000000E+03 0.  0.
<mgrwt>
<rscale>  0 0.76872667E+03</rscale>
<asrwt>0</asrwt>
<pdfrwt beam="1">  1        2 0.22008715E+00 0.76872667E+03</pdfrwt>
<pdfrwt beam="2">  1       -2 0.13699135E-01 0.76872667E+03</pdfrwt>
<totfact> 0.57317526E+02</totfact>
</mgrwt>
</event>
<event>
 4    1  0.5863356E-005  0.7776864E+03  0.7818608E-02  0.9592889E-01
          2   -1    0    0  501    0  0.00000000000E+00  0.00000000000E+00  0.21020335028E+04  0.21020335028E+04  0.25500000000E-02 0.  1.
         -2   -1    0    0    0  501 -0.00000000000E+00 -0.00000000000E+00 -0.71929895915E+02  0.71929895960E+02  0.25500000000E-02 0. -1.
    5000001    1    1    2    0    0 -0.30780564917E+03 -0.10167201293E+03  0.12839584526E+04  0.13380937276E+04  0.19200000000E+03 0.  0.
   -5000001    1    1    2    0    0  0.30780564917E+03  0.10167201293E+03  0.74614515425E+03  0.83586967111E+03  0.19200000000E+03 0.  0.
<mgrwt>
<rscale>  0 0.77768644E+03</rscale>
<asrwt>0</asrwt>
<pdfrwt beam="1">  1        2 0.30029050E+00 0.77768644E+03</pdfrwt>
<pdfrwt beam="2">  1       -2 0.10275699E-01 0.77768644E+03</pdfrwt>
<totfact> 0.47617091E+02</totfact>
</mgrwt>
</event>
<event>
 4    1  0.5863356E-005  0.9588484E+03  0.7818608E-02  0.9354868E-01
          2   -1    0    0  501    0  0.00000000000E+00  0.00000000000E+00  0.11198625787E+04  0.11198625787E+04  0.25500000000E-02 0.  1.
         -2   -1    0    0    0  501 -0.00000000000E+00 -0.00000000000E+00 -0.20524620369E+03  0.20524620370E+03  0.25500000000E-02 0. -1.
    5000001    1    1    2    0    0  0.38128706486E+03  0.20100228435E+03  0.57458768482E+03  0.74350302736E+03  0.19200000000E+03 0.  0.
   -5000001    1    1    2    0    0 -0.38128706486E+03 -0.20100228435E+03  0.34002869016E+03  0.58160575502E+03  0.19200000000E+03 0.  0.
<mgrwt>
<rscale>  0 0.95884836E+03</rscale>
<asrwt>0</asrwt>
<pdfrwt beam="1">  1        2 0.15998038E+00 0.95884836E+03</pdfrwt>
<pdfrwt beam="2">  1       -2 0.29320885E-01 0.95884836E+03</pdfrwt>
<totfact> 0.25379691E+02</totfact>
</mgrwt>
</event>
<event>
 4    1  0.5863356E-005  0.5478710E+03  0.7818608E-02  0.1001988E+00
         -2   -1    0    0    0  501 -0.00000000000E+00  0.00000000000E+00  0.21758364497E+02  0.21758364647E+02  0.25500000000E-02 0. -1.
          2   -1    0    0  501    0  0.00000000000E+00 -0.00000000000E+00 -0.34488193543E+04  0.34488193543E+04  0.25500000000E-02 0.  1.
    5000001    1    1    2    0    0 -0.15254593788E+03  0.12130601526E+03 -0.18011359931E+04  0.18217958937E+04  0.19200000000E+03 0.  0.
   -5000001    1    1    2    0    0  0.15254593788E+03 -0.12130601526E+03 -0.16259249966E+04  0.16487818252E+04  0.19200000000E+03 0.  0.
<mgrwt>
<rscale>  0 0.54787104E+03</rscale>
<asrwt>0</asrwt>
<pdfrwt beam="1">  1        2 0.49268813E+00 0.54787104E+03</pdfrwt>
<pdfrwt beam="2">  1       -2 0.31083400E-02 0.54787104E+03</pdfrwt>
<totfact> 0.60293220E+02</totfact>
</mgrwt>
</event>
<event>
 4    1  0.5863356E-005  0.8313757E+03  0.7818608E-02  0.9515680E-01
         -2   -1    0    0    0  501 -0.00000000000E+00  0.00000000000E+00  0.22024158324E+03  0.22024158325E+03  0.25500000000E-02 0. -1.
          2   -1    0    0  501    0  0.00000000000E+00 -0.00000000000E+00 -0.78457661396E+03  0.78457661397E+03  0.25500000000E-02 0.  1.
    5000001    1    1    2    0    0 -0.14409550729E+03 -0.31507772565E+03 -0.43454442269E+03  0.58798838740E+03  0.19200000000E+03 0.  0.
   -5000001    1    1    2    0    0  0.14409550729E+03  0.31507772565E+03 -0.12979060803E+03  0.41682980982E+03  0.19200000000E+03 0.  0.
<mgrwt>
<rscale>  0 0.83137572E+03</rscale>
<asrwt>0</asrwt>
<pdfrwt beam="1">  1        2 0.11208237E+00 0.83137572E+03</pdfrwt>
<pdfrwt beam="2">  1       -2 0.31463084E-01 0.83137572E+03</pdfrwt>
<totfact> 0.36629742E+02</totfact>
</mgrwt>
</event>
<event>
 4    1  0.5863356E-005  0.7899301E+03  0.7818608E-02  0.9574708E-01
          2   -1    0    0  501    0  0.00000000000E+00  0.00000000000E+00  0.24177639734E+04  0.24177639734E+04  0.25500000000E-02 0.  1.
         -2   -1    0    0    0  501 -0.00000000000E+00 -0.00000000000E+00 -0.64521355042E+02  0.64521355093E+02  0.25500000000E-02 0. -1.
    5000001    1    1    2    0    0 -0.31167215417E+03 -0.36024757606E+02  0.16286928804E+04  0.16697130932E+04  0.19200000000E+03 0.  0.
   -5000001    1    1    2    0    0  0.31167215417E+03  0.36024757606E+02  0.72454973798E+03  0.81257223534E+03  0.19200000000E+03 0.  0.
<mgrwt>
<rscale>  0 0.78993014E+03</rscale>
<asrwt>0</asrwt>
<pdfrwt beam="1">  1        2 0.34539483E+00 0.78993014E+03</pdfrwt>
<pdfrwt beam="2">  1       -2 0.92173371E-02 0.78993014E+03</pdfrwt>
<totfact> 0.39190692E+02</totfact>
</mgrwt>
</event>
<event>
 4    1  0.5863356E-005  0.6578398E+03  0.7818608E-02  0.9792178E-01
          2   -1    0    0  501    0  0.00000000000E+00  0.00000000000E+00  0.81248142641E+03  0.81248142641E+03  0.25500000000E-02 0.  1.
         -2   -1    0    0    0  501 -0.00000000000E+00 -0.00000000000E+00 -0.13315788960E+03  0.13315788963E+03  0.25500000000E-02 0. -1.
    5000001    1    1    2    0    0  0.10641257440E+03 -0.21236683995E+03  0.16418764577E+03  0.34676345500E+03  0.19200000000E+03 0.  0.
   -5000001    1    1    2    0    0 -0.10641257440E+03  0.21236683995E+03  0.51513589104E+03  0.59887586104E+03  0.19200000000E+03 0.  0.
<mgrwt>
<rscale>  0 0.65783983E+03</rscale>
<asrwt>0</asrwt>
<pdfrwt beam="1">  1        2 0.11606877E+00 0.65783983E+03</pdfrwt>
<pdfrwt beam="2">  1       -2 0.19022556E-01 0.65783983E+03</pdfrwt>
<totfact> 0.87063055E+02</totfact>
</mgrwt>
</event>
<event>
 4    1  0.5863356E-005  0.4280604E+03  0.7818608E-02  0.1034474E+00
         -2   -1    0    0    0  501 -0.00000000000E+00  0.00000000000E+00  0.16955991655E+02  0.16955991847E+02  0.25500000000E-02 0. -1.
          2   -1    0    0  501    0  0.00000000000E+00 -0.00000000000E+00 -0.27016366631E+04  0.27016366631E+04  0.25500000000E-02 0.  1.
    5000001    1    1    2    0    0 -0.80429774333E+02  0.49677230559E+02 -0.13242060041E+04  0.13413882052E+04  0.19200000000E+03 0.  0.
   -5000001    1    1    2    0    0  0.80429774333E+02 -0.49677230559E+02 -0.13604746673E+04  0.13772044497E+04  0.19200000000E+03 0.  0.
<mgrwt>
<rscale>  0 0.42806041E+03</rscale>
<asrwt>0</asrwt>
<pdfrwt beam="1">  1        2 0.38594782E+00 0.42806041E+03</pdfrwt>
<pdfrwt beam="2">  1       -2 0.24222863E-02 0.42806041E+03</pdfrwt>
<totfact> 0.22819452E+03</totfact>
</mgrwt>
</event>
<event>
 4    1  0.5863356E-005  0.5130546E+03  0.7818608E-02  0.1010427E+00
         -2   -1    0    0    0  501 -0.00000000000E+00  0.00000000000E+00  0.30601405285E+03  0.30601405286E+03  0.25500000000E-02 0. -1.
          2   -1    0    0  501    0  0.00000000000E+00 -0.00000000000E+00 -0.21504327673E+03  0.21504327675E+03  0.25500000000E-02 0.  1.
    5000001    1    1    2    0    0  0.11789938727E+03  0.10093174980E+03 -0.25277690175E+02  0.24817422359E+03  0.19200000000E+03 0.  0.
   -5000001    1    1    2    0    0 -0.11789938727E+03 -0.10093174980E+03  0.11624846629E+03  0.27288310602E+03  0.19200000000E+03 0.  0.
<mgrwt>
<rscale>  0 0.51305464E+03</rscale>
<asrwt>0</asrwt>
<pdfrwt beam="1">  1        2 0.30720468E-01 0.51305464E+03</pdfrwt>
<pdfrwt beam="2">  1       -2 0.43716293E-01 0.51305464E+03</pdfrwt>
<totfact> 0.86256675E+02</totfact>
</mgrwt>
</event>
<event>
 4    1  0.5863356E-005  0.5239328E+03  0.7818608E-02  0.1007714E+00
          2   -1    0    0  501    0  0.00000000000E+00  0.00000000000E+00  0.26174037022E+04  0.26174037022E+04  0.25500000000E-02 0.  1.
         -2   -1    0    0    0  501 -0.00000000000E+00 -0.00000000000E+00 -0.26219258281E+02  0.26219258405E+02  0.25500000000E-02 0. -1.
    5000001    1    1    2    0    0  0.14263958536E+03  0.10107089533E+03  0.11207297269E+04  0.11504175320E+04  0.19200000000E+03 0.  0.
   -5000001    1    1    2    0    0 -0.14263958536E+03 -0.10107089533E+03  0.14704547170E+04  0.14932054286E+04  0.19200000000E+03 0.  0.
<mgrwt>
<rscale>  0 0.52393276E+03</rscale>
<asrwt>0</asrwt>
<pdfrwt beam="1">  1        2 0.37391484E+00 0.52393276E+03</pdfrwt>
<pdfrwt beam="2">  1       -2 0.37456081E-02 0.52393276E+03</pdfrwt>
<totfact> 0.12961827E+03</totfact>
</mgrwt>
</event>
<event>
 4    1  0.5863356E-005  0.4205227E+03  0.7818608E-02  0.1036896E+00
          2   -1    0    0  501    0  0.00000000000E+00  0.00000000000E+00  0.12992159621E+04  0.12992159621E+04  0.25500000000E-02 0.  1.
         -2   -1    0    0    0  501 -0.00000000000E+00 -0.00000000000E+00 -0.34028084504E+02  0.34028084600E+02  0.25500000000E-02 0. -1.
    5000001    1    1    2    0    0  0.71078385227E+02 -0.33596153336E+02  0.52438036263E+03  0.56393226816E+03  0.19200000000E+03 0.  0.
   -5000001    1    1    2    0    0 -0.71078385227E+02  0.33596153336E+02  0.74080751493E+03  0.76931177850E+03  0.19200000000E+03 0.  0.
<mgrwt>
<rscale>  0 0.42052268E+03</rscale>
<asrwt>0</asrwt>
<pdfrwt beam="1">  1        2 0.18560226E+00 0.42052268E+03</pdfrwt>
<pdfrwt beam="2">  1       -2 0.48611554E-02 0.42052268E+03</pdfrwt>
<totfact> 0.40672752E+03</totfact>
</mgrwt>
</event>
<event>
 4    1  0.5863356E-005  0.1082859E+04  0.7818608E-02  0.9222062E-01
         -2   -1    0    0    0  501 -0.00000000000E+00  0.00000000000E+00  0.18179428188E+03  0.18179428190E+03  0.25500000000E-02 0. -1.
          2   -1    0    0  501    0  0.00000000000E+00 -0.00000000000E+00 -0.16125138844E+04  0.16125138844E+04  0.25500000000E-02 0.  1.
    5000001    1    1    2    0    0 -0.22958774582E+03 -0.30600349610E+03 -0.16595873770E+03  0.45908057602E+03  0.19200000000E+03 0.  0.
   -5000001    1    1    2    0    0  0.22958774582E+03  0.30600349610E+03 -0.12647608648E+04  0.13352275903E+04  0.19200000000E+03 0.  0.
<mgrwt>
<rscale>  0 0.10828588E+04</rscale>
<asrwt>0</asrwt>
<pdfrwt beam="1">  1        2 0.23035912E+00 0.10828588E+04</pdfrwt>
<pdfrwt beam="2">  1       -2 0.25970613E-01 0.10828588E+04</pdfrwt>
<totfact> 0.16928221E+02</totfact>
</mgrwt>
</event>
<event>
 4    1  0.5863356E-005  0.6704272E+03  0.7818608E-02  0.9769186E-01
         -2   -1    0    0    0  501 -0.00000000000E+00  0.00000000000E+00  0.26669368835E+02  0.26669368957E+02  0.25500000000E-02 0. -1.
          2   -1    0    0  501    0  0.00000000000E+00 -0.00000000000E+00 -0.42133784009E+04  0.42133784009E+04  0.25500000000E-02 0.  1.
    5000001    1    1    2    0    0  0.17255747506E+03 -0.15286588337E+03 -0.11476491532E+04  0.11862152584E+04  0.19200000000E+03 0.  0.
   -5000001    1    1    2    0    0 -0.17255747506E+03  0.15286588337E+03 -0.30390598789E+04  0.30538325115E+04  0.19200000000E+03 0.  0.
<mgrwt>
<rscale>  0 0.67042716E+03</rscale>
<asrwt>0</asrwt>
<pdfrwt beam="1">  1        2 0.60191078E+00 0.67042716E+03</pdfrwt>
<pdfrwt beam="2">  1       -2 0.38099125E-02 0.67042716E+03</pdfrwt>
<totfact> 0.14029578E+02</totfact>
</mgrwt>
</event>
<event>
 4    1  0.5863356E-005  0.8410093E+03  0.7818608E-02  0.9502484E-01
          2   -1    0    0  501    0  0.00000000000E+00  0.00000000000E+00  0.18008547399E+03  0.18008547401E+03  0.25500000000E-02 0.  1.
         -2   -1    0    0    0  501 -0.00000000000E+00 -0.00000000000E+00 -0.98189022386E+03  0.98189022386E+03  0.25500000000E-02 0. -1.
    5000001    1    1    2    0    0  0.56152996202E+01  0.29031976928E+03 -0.74989312426E+02  0.35609619066E+03  0.19200000000E+03 0.  0.
   -5000001    1    1    2    0    0 -0.56152996202E+01 -0.29031976928E+03 -0.72681543745E+03  0.80587950721E+03  0.19200000000E+03 0.  0.
<mgrwt>
<rscale>  0 0.84100931E+03</rscale>
<asrwt>0</asrwt>
<pdfrwt beam="1">  1        2 0.25726497E-01 0.84100931E+03</pdfrwt>
<pdfrwt beam="2">  1       -2 0.14027003E+00 0.84100931E+03</pdfrwt>
<totfact> 0.76255980E+01</totfact>
</mgrwt>
</event>
<event>
 4    1  0.5863356E-005  0.6050639E+03  0.7818608E-02  0.9894955E-01
         -2   -1    0    0    0  501 -0.00000000000E+00  0.00000000000E+00  0.20186614920E+03  0.20186614921E+03  0.25500000000E-02 0. -1.
          2   -1    0    0  501    0  0.00000000000E+00 -0.00000000000E+00 -0.45339743214E+03  0.45339743215E+03  0.25500000000E-02 0.  1.
    5000001    1    1    2    0    0 -0.66779320178E+01 -0.21995842421E+03 -0.21128080002E+03  0.36045787495E+03  0.19200000000E+03 0.  0.
   -5000001    1    1    2    0    0  0.66779320178E+01  0.21995842421E+03 -0.40250482925E+02  0.29480570641E+03  0.19200000000E+03 0.  0.
<mgrwt>
<rscale>  0 0.60506394E+03</rscale>
<asrwt>0</asrwt>
<pdfrwt beam="1">  1        2 0.64771061E-01 0.60506394E+03</pdfrwt>
<pdfrwt beam="2">  1       -2 0.28838022E-01 0.60506394E+03</pdfrwt>
<totfact> 0.83115366E+02</totfact>
</mgrwt>
</event>
<event>
 4    1  0.5863356E-005  0.6845915E+03  0.7818608E-02  0.9743952E-01
         -2   -1    0    0    0  501 -0.00000000000E+00  0.00000000000E+00  0.61789082923E+03  0.61789082924E+03  0.25500000000E-02 0. -1.
          2   -1    0    0  501    0  0.00000000000E+00 -0.00000000000E+00 -0.18962308864E+03  0.18962308866E+03  0.25500000000E-02 0.  1.
    5000001    1    1    2    0    0  0.38176245386E+02 -0.25864744766E+03  0.34305906134E+03  0.47213287056E+03  0.19200000000E+03 0.  0.
   -5000001    1    1    2    0    0 -0.38176245386E+02  0.25864744766E+03  0.85208679246E+02  0.33538104733E+03  0.19200000000E+03 0.  0.
<mgrwt>
<rscale>  0 0.68459146E+03</rscale>
<asrwt>0</asrwt>
<pdfrwt beam="1">  1        2 0.27089013E-01 0.68459146E+03</pdfrwt>
<pdfrwt beam="2">  1       -2 0.88270119E-01 0.68459146E+03</pdfrwt>
<totfact> 0.22309987E+02</totfact>
</mgrwt>
</event>
<event>
 4    1  0.5863356E-005  0.4477641E+03  0.7818608E-02  0.1028391E+00
         -2   -1    0    0    0  501 -0.00000000000E+00  0.00000000000E+00  0.33384502442E+02  0.33384502540E+02  0.25500000000E-02 0. -1.
          2   -1    0    0  501    0  0.00000000000E+00 -0.00000000000E+00 -0.15013904069E+04  0.15013904069E+04  0.25500000000E-02 0.  1.
    5000001    1    1    2    0    0 -0.11169613696E+03 -0.12797079095E+02 -0.64869807773E+03  0.68579369223E+03  0.19200000000E+03 0.  0.
   -5000001    1    1    2    0    0  0.11169613696E+03  0.12797079095E+02 -0.81930782669E+03  0.84898121718E+03  0.19200000000E+03 0.  0.
<mgrwt>
<rscale>  0 0.44776410E+03</rscale>
<asrwt>0</asrwt>
<pdfrwt beam="1">  1        2 0.21448430E+00 0.44776410E+03</pdfrwt>
<pdfrwt beam="2">  1       -2 0.47692156E-02 0.44776410E+03</pdfrwt>
<totfact> 0.32804469E+03</totfact>
</mgrwt>
</event>
<event>
 4    1  0.5863356E-005  0.6195058E+03  0.7818608E-02  0.9865744E-01
          2   -1    0    0  501    0  0.00000000000E+00  0.00000000000E+00  0.24275593793E+03  0.24275593795E+03  0.25500000000E-02 0.  1.
         -2   -1    0    0    0  501 -0.00000000000E+00 -0.00000000000E+00 -0.39524003844E+03  0.39524003845E+03  0.25500000000E-02 0. -1.
    5000001    1    1    2    0    0 -0.21335384561E+03  0.34428597503E+02  0.38333532652E+02  0.29161387396E+03  0.19200000000E+03 0.  0.
   -5000001    1    1    2    0    0  0.21335384561E+03 -0.34428597503E+02 -0.19081763316E+03  0.34638210243E+03  0.19200000000E+03 0.  0.
<mgrwt>
<rscale>  0 0.61950582E+03</rscale>
<asrwt>0</asrwt>
<pdfrwt beam="1">  1        2 0.34679420E-01 0.61950582E+03</pdfrwt>
<pdfrwt beam="2">  1       -2 0.56462862E-01 0.61950582E+03</pdfrwt>
<totfact> 0.44861255E+02</totfact>
</mgrwt>
</event>
<event>
 4    1  0.5863356E-005  0.8152502E+03  0.7818608E-02  0.9538202E-01
          2   -1    0    0  501    0  0.00000000000E+00  0.00000000000E+00  0.19591642577E+04  0.19591642577E+04  0.25500000000E-02 0.  1.
         -2   -1    0    0    0  501 -0.00000000000E+00 -0.00000000000E+00 -0.84810768609E+02  0.84810768647E+02  0.25500000000E-02 0. -1.
    5000001    1    1    2    0    0  0.67073736699E+02 -0.31314004863E+03  0.13471489428E+04  0.13979377133E+04  0.19200000000E+03 0.  0.
   -5000001    1    1    2    0    0 -0.67073736699E+02  0.31314004863E+03  0.52720454632E+03  0.64603731306E+03  0.19200000000E+03 0.  0.
<mgrwt>
<rscale>  0 0.81525021E+03</rscale>
<asrwt>0</asrwt>
<pdfrwt beam="1">  1        2 0.27988062E+00 0.81525021E+03</pdfrwt>
<pdfrwt beam="2">  1       -2 0.12115824E-01 0.81525021E+03</pdfrwt>
<totfact> 0.42801663E+02</totfact>
</mgrwt>
</event>
<event>
 4    1  0.5863356E-005  0.5295275E+03  0.7818608E-02  0.1006347E+00
         -2   -1    0    0    0  501 -0.00000000000E+00  0.00000000000E+00  0.11935793089E+04  0.11935793089E+04  0.25500000000E-02 0. -1.
          2   -1    0    0  501    0  0.00000000000E+00 -0.00000000000E+00 -0.58730778825E+02  0.58730778880E+02  0.25500000000E-02 0.  1.
    5000001    1    1    2    0    0  0.13061044097E+03 -0.10923582983E+03  0.72149700911E+03  0.76577639554E+03  0.19200000000E+03 0.  0.
   -5000001    1    1    2    0    0 -0.13061044097E+03  0.10923582983E+03  0.41335152098E+03  0.48653369226E+03  0.19200000000E+03 0.  0.
<mgrwt>
<rscale>  0 0.52952750E+03</rscale>
<asrwt>0</asrwt>
<pdfrwt beam="1">  1        2 0.83901117E-02 0.52952750E+03</pdfrwt>
<pdfrwt beam="2">  1       -2 0.17051132E+00 0.52952750E+03</pdfrwt>
<totfact> 0.17969702E+02</totfact>
</mgrwt>
</event>
<event>
 4    1  0.5863356E-005  0.6357863E+03  0.7818608E-02  0.9833822E-01
          2   -1    0    0  501    0  0.00000000000E+00  0.00000000000E+00  0.90008100428E+03  0.90008100428E+03  0.25500000000E-02 0.  1.
         -2   -1    0    0    0  501 -0.00000000000E+00 -0.00000000000E+00 -0.11227438416E+03  0.11227438418E+03  0.25500000000E-02 0. -1.
    5000001    1    1    2    0    0  0.22676287765E+02 -0.25036827312E+03  0.34371325671E+03  0.46712020835E+03  0.19200000000E+03 0.  0.
   -5000001    1    1    2    0    0 -0.22676287765E+02  0.25036827312E+03  0.44409336341E+03  0.54523518011E+03  0.19200000000E+03 0.  0.
<mgrwt>
<rscale>  0 0.63578625E+03</rscale>
<asrwt>0</asrwt>
<pdfrwt beam="1">  1        2 0.12858300E+00 0.63578625E+03</pdfrwt>
<pdfrwt beam="2">  1       -2 0.16039197E-01 0.63578625E+03</pdfrwt>
<totfact> 0.10202031E+03</totfact>
</mgrwt>
</event>
<event>
 4    1  0.5863356E-005  0.4304449E+03  0.7818608E-02  0.1033720E+00
          2   -1    0    0  501    0  0.00000000000E+00  0.00000000000E+00  0.14168638347E+03  0.14168638349E+03  0.25500000000E-02 0.  1.
         -2   -1    0    0    0  501 -0.00000000000E+00 -0.00000000000E+00 -0.32692418141E+03  0.32692418142E+03  0.25500000000E-02 0. -1.
    5000001    1    1    2    0    0 -0.35004548721E+02  0.76907004370E+02 -0.40219135918E+02  0.21359209875E+03  0.19200000000E+03 0.  0.
   -5000001    1    1    2    0    0  0.35004548721E+02 -0.76907004370E+02 -0.14501866202E+03  0.25501846617E+03  0.19200000000E+03 0.  0.
<mgrwt>
<rscale>  0 0.43044491E+03</rscale>
<asrwt>0</asrwt>
<pdfrwt beam="1">  1        2 0.20240912E-01 0.43044491E+03</pdfrwt>
<pdfrwt beam="2">  1       -2 0.46703454E-01 0.43044491E+03</pdfrwt>
<totfact> 0.12154997E+03</totfact>
</mgrwt>
</event>
<event>
 4    1  0.5863356E-005  0.7129245E+03  0.7818608E-02  0.9695381E-01
          2   -1    0    0  501    0  0.00000000000E+00  0.00000000000E+00  0.64034734950E+03  0.64034734950E+03  0.25500000000E-02 0.  1.
         -2   -1    0    0    0  501 -0.00000000000E+00 -0.00000000000E+00 -0.19843188032E+03  0.19843188034E+03  0.25500000000E-02 0. -1.
    5000001    1    1    2    0    0  0.16058305351E+03  0.20292137407E+03  0.40030602016E+03  0.51388024958E+03  0.19200000000E+03 0.  0.
   -5000001    1    1    2    0    0 -0.16058305351E+03 -0.20292137407E+03  0.41609449012E+02  0.32489898026E+03  0.19200000000E+03 0.  0.
<mgrwt>
<rscale>  0 0.71292448E+03</rscale>
<asrwt>0</asrwt>
<pdfrwt beam="1">  1        2 0.91478192E-01 0.71292448E+03</pdfrwt>
<pdfrwt beam="2">  1       -2 0.28347412E-01 0.71292448E+03</pdfrwt>
<totfact> 0.57388342E+02</totfact>
</mgrwt>
</event>
<event>
 4    1  0.5863356E-005  0.6491657E+03  0.7818608E-02  0.9808346E-01
          2   -1    0    0  501    0  0.00000000000E+00  0.00000000000E+00  0.13149502006E+04  0.13149502006E+04  0.25500000000E-02 0.  1.
         -2   -1    0    0    0  501 -0.00000000000E+00 -0.00000000000E+00 -0.80120153210E+02  0.80120153251E+02  0.25500000000E-02 0. -1.
    5000001    1    1    2    0    0  0.25818202518E+03  0.14722300165E+02  0.70378606500E+03  0.77398548406E+03  0.19200000000E+03 0.  0.
   -5000001    1    1    2    0    0 -0.25818202518E+03 -0.14722300165E+02  0.53104398236E+03  0.62108486977E+03  0.19200000000E+03 0.  0.
<mgrwt>
<rscale>  0 0.64916565E+03</rscale>
<asrwt>0</asrwt>
<pdfrwt beam="1">  1        2 0.18785004E+00 0.64916565E+03</pdfrwt>
<pdfrwt beam="2">  1       -2 0.11445735E-01 0.64916565E+03</pdfrwt>
<totfact> 0.10232392E+03</totfact>
</mgrwt>
</event>
<event>
 4    1  0.5863356E-005  0.5207588E+03  0.7818608E-02  0.1008498E+00
          2   -1    0    0  501    0  0.00000000000E+00  0.00000000000E+00  0.29973084614E+04  0.29973084614E+04  0.25500000000E-02 0.  1.
         -2   -1    0    0    0  501 -0.00000000000E+00 -0.00000000000E+00 -0.22619440985E+02  0.22619441129E+02  0.25500000000E-02 0. -1.
    5000001    1    1    2    0    0  0.14735161602E+03  0.50579419248E+02  0.10139928162E+04  0.10437031224E+04  0.19200000000E+03 0.  0.
   -5000001    1    1    2    0    0 -0.14735161602E+03 -0.50579419248E+02  0.19606962041E+04  0.19762247800E+04  0.19200000000E+03 0.  0.
<mgrwt>
<rscale>  0 0.52075884E+03</rscale>
<asrwt>0</asrwt>
<pdfrwt beam="1">  1        2 0.42818662E+00 0.52075884E+03</pdfrwt>
<pdfrwt beam="2">  1       -2 0.32313510E-02 0.52075884E+03</pdfrwt>
<totfact> 0.10229467E+03</totfact>
</mgrwt>
</event>
<event>
 4    1  0.5863356E-005  0.9447356E+03  0.7818608E-02  0.9371325E-01
         -2   -1    0    0    0  501 -0.00000000000E+00  0.00000000000E+00  0.15188058237E+03  0.15188058239E+03  0.25500000000E-02 0. -1.
          2   -1    0    0  501    0  0.00000000000E+00 -0.00000000000E+00 -0.14691235767E+04  0.14691235767E+04  0.25500000000E-02 0.  1.
    5000001    1    1    2    0    0  0.44579460274E+02 -0.41944179722E+03 -0.81539784248E+03  0.93789998990E+03  0.19200000000E+03 0.  0.
   -5000001    1    1    2    0    0 -0.44579460274E+02  0.41944179722E+03 -0.50184515183E+03  0.68310416918E+03  0.19200000000E+03 0.  0.
<mgrwt>
<rscale>  0 0.94473561E+03</rscale>
<asrwt>0</asrwt>
<pdfrwt beam="1">  1        2 0.20987479E+00 0.94473561E+03</pdfrwt>
<pdfrwt beam="2">  1       -2 0.21697227E-01 0.94473561E+03</pdfrwt>
<totfact> 0.28054493E+02</totfact>
</mgrwt>
</event>
<event>
 4    1  0.5863356E-005  0.9774667E+03  0.7818608E-02  0.9333610E-01
         -2   -1    0    0    0  501 -0.00000000000E+00  0.00000000000E+00  0.87475446936E+02  0.87475446973E+02  0.25500000000E-02 0. -1.
          2   -1    0    0  501    0  0.00000000000E+00 -0.00000000000E+00 -0.27305982519E+04  0.27305982519E+04  0.25500000000E-02 0.  1.
    5000001    1    1    2    0    0  0.31360607744E+03  0.26718816623E+03 -0.18393699067E+04  0.18946989053E+04  0.19200000000E+03 0.  0.
   -5000001    1    1    2    0    0 -0.31360607744E+03 -0.26718816623E+03 -0.80375289821E+03  0.92337479355E+03  0.19200000000E+03 0.  0.
<mgrwt>
<rscale>  0 0.97746673E+03</rscale>
<asrwt>0</asrwt>
<pdfrwt beam="1">  1        2 0.39008541E+00 0.97746673E+03</pdfrwt>
<pdfrwt beam="2">  1       -2 0.12496494E-01 0.97746673E+03</pdfrwt>
<totfact> 0.16066459E+02</totfact>
</mgrwt>
</event>
<event>
 4    1  0.5863356E-005  0.7496761E+03  0.7818608E-02  0.9635859E-01
         -2   -1    0    0    0  501 -0.00000000000E+00  0.00000000000E+00  0.28525076849E+03  0.28525076850E+03  0.25500000000E-02 0. -1.
          2   -1    0    0  501    0  0.00000000000E+00 -0.00000000000E+00 -0.49256149961E+03  0.49256149962E+03  0.25500000000E-02 0.  1.
    5000001    1    1    2    0    0  0.26430808869E+03  0.15810880765E+03 -0.20088695794E+03  0.41482132379E+03  0.19200000000E+03 0.  0.
   -5000001    1    1    2    0    0 -0.26430808869E+03 -0.15810880765E+03 -0.64237731761E+01  0.36299094433E+03  0.19200000000E+03 0.  0.
<mgrwt>
<rscale>  0 0.74967605E+03</rscale>
<asrwt>0</asrwt>
<pdfrwt beam="1">  1        2 0.70365928E-01 0.74967605E+03</pdfrwt>
<pdfrwt beam="2">  1       -2 0.40750110E-01 0.74967605E+03</pdfrwt>
<totfact> 0.39189068E+02</totfact>
</mgrwt>
</event>
<event>
 4    1  0.5863356E-005  0.1284993E+04  0.7818608E-02  0.9041552E-01
         -2   -1    0    0    0  501 -0.00000000000E+00  0.00000000000E+00  0.33182499809E+03  0.33182499810E+03  0.25500000000E-02 0. -1.
          2   -1    0    0  501    0  0.00000000000E+00 -0.00000000000E+00 -0.12440336445E+04  0.12440336445E+04  0.25500000000E-02 0.  1.
    5000001    1    1    2    0    0  0.37178340086E+03 -0.47191809953E+03 -0.30586756419E+03  0.70096259290E+03  0.19200000000E+03 0.  0.
   -5000001    1    1    2    0    0 -0.37178340086E+03  0.47191809953E+03 -0.60634108224E+03  0.87489604973E+03  0.19200000000E+03 0.  0.
<mgrwt>
<rscale>  0 0.12849925E+04</rscale>
<asrwt>0</asrwt>
<pdfrwt beam="1">  1        2 0.17771909E+00 0.12849925E+04</pdfrwt>
<pdfrwt beam="2">  1       -2 0.47403572E-01 0.12849925E+04</pdfrwt>
<totfact> 0.83506047E+01</totfact>
</mgrwt>
</event>
<event>
 4    1  0.5863356E-005  0.5405143E+03  0.7818608E-02  0.1003714E+00
          2   -1    0    0  501    0  0.00000000000E+00  0.00000000000E+00  0.89690206324E+03  0.89690206324E+03  0.25500000000E-02 0.  1.
         -2   -1    0    0    0  501 -0.00000000000E+00 -0.00000000000E+00 -0.81434682949E+02  0.81434682989E+02  0.25500000000E-02 0. -1.
    5000001    1    1    2    0    0  0.17567848019E+03  0.35057162666E+02  0.29207694757E+03  0.39276567614E+03  0.19200000000E+03 0.  0.
   -5000001    1    1    2    0    0 -0.17567848019E+03 -0.35057162666E+02  0.52339043272E+03  0.58557107009E+03  0.19200000000E+03 0.  0.
<mgrwt>
<rscale>  0 0.54051433E+03</rscale>
<asrwt>0</asrwt>
<pdfrwt beam="1">  1        2 0.12812886E+00 0.54051433E+03</pdfrwt>
<pdfrwt beam="2">  1       -2 0.11633527E-01 0.54051433E+03</pdfrwt>
<totfact> 0.17533804E+03</totfact>
</mgrwt>
</event>
<event>
 4    1  0.5863356E-005  0.5228235E+03  0.7818608E-02  0.1007988E+00
         -2   -1    0    0    0  501 -0.00000000000E+00  0.00000000000E+00  0.78767236472E+02  0.78767236513E+02  0.25500000000E-02 0. -1.
          2   -1    0    0  501    0  0.00000000000E+00 -0.00000000000E+00 -0.86757000987E+03  0.86757000987E+03  0.25500000000E-02 0.  1.
    5000001    1    1    2    0    0  0.94264747160E+02 -0.11846486469E+03 -0.56179272322E+03  0.61269472870E+03  0.19200000000E+03 0.  0.
   -5000001    1    1    2    0    0 -0.94264747160E+02  0.11846486469E+03 -0.22701005018E+03  0.33364251768E+03  0.19200000000E+03 0.  0.
<mgrwt>
<rscale>  0 0.52282346E+03</rscale>
<asrwt>0</asrwt>
<pdfrwt beam="1">  1        2 0.12393857E+00 0.52282346E+03</pdfrwt>
<pdfrwt beam="2">  1       -2 0.11252463E-01 0.52282346E+03</pdfrwt>
<totfact> 0.19348259E+03</totfact>
</mgrwt>
</event>
<event>
 4    1  0.5863356E-005  0.5034980E+03  0.7818608E-02  0.1012870E+00
         -2   -1    0    0    0  501 -0.00000000000E+00  0.00000000000E+00  0.65512246681E+02  0.65512246731E+02  0.25500000000E-02 0. -1.
          2   -1    0    0  501    0  0.00000000000E+00 -0.00000000000E+00 -0.96741526723E+03  0.96741526723E+03  0.25500000000E-02 0.  1.
    5000001    1    1    2    0    0 -0.66855751066E+02  0.90229081760E+02 -0.69284248508E+03  0.72767141470E+03  0.19200000000E+03 0.  0.
   -5000001    1    1    2    0    0  0.66855751066E+02 -0.90229081760E+02 -0.20906053547E+03  0.30525609927E+03  0.19200000000E+03 0.  0.
<mgrwt>
<rscale>  0 0.50349795E+03</rscale>
<asrwt>0</asrwt>
<pdfrwt beam="1">  1        2 0.13820217E+00 0.50349795E+03</pdfrwt>
<pdfrwt beam="2">  1       -2 0.93588930E-02 0.50349795E+03</pdfrwt>
<totfact> 0.22530616E+03</totfact>
</mgrwt>
</event>
<event>
 4    1  0.5863356E-005  0.4677798E+03  0.7818608E-02  0.1022549E+00
         -2   -1    0    0    0  501 -0.00000000000E+00  0.00000000000E+00  0.24423867908E+03  0.24423867909E+03  0.25500000000E-02 0. -1.
          2   -1    0    0  501    0  0.00000000000E+00 -0.00000000000E+00 -0.22397957951E+03  0.22397957953E+03  0.25500000000E-02 0.  1.
    5000001    1    1    2    0    0  0.47271009453E+02  0.10627343244E+03  0.75856055583E+02  0.23695301632E+03  0.19200000000E+03 0.  0.
   -5000001    1    1    2    0    0 -0.47271009453E+02 -0.10627343244E+03 -0.55596956019E+02  0.23126524230E+03  0.19200000000E+03 0.  0.
<mgrwt>
<rscale>  0 0.46777976E+03</rscale>
<asrwt>0</asrwt>
<pdfrwt beam="1">  1        2 0.31997083E-01 0.46777976E+03</pdfrwt>
<pdfrwt beam="2">  1       -2 0.34891240E-01 0.46777976E+03</pdfrwt>
<totfact> 0.12722154E+03</totfact>
</mgrwt>
</event>
<event>
 4    1  0.5863356E-005  0.1070141E+04  0.7818608E-02  0.9234793E-01
          2   -1    0    0  501    0  0.00000000000E+00  0.00000000000E+00  0.18968995948E+04  0.18968995948E+04  0.25500000000E-02 0.  1.
         -2   -1    0    0    0  501 -0.00000000000E+00 -0.00000000000E+00 -0.15093085678E+03  0.15093085680E+03  0.25500000000E-02 0. -1.
    5000001    1    1    2    0    0  0.35907110811E+03  0.25472798833E+03  0.42168829258E+03  0.63914272648E+03  0.19200000000E+03 0.  0.
   -5000001    1    1    2    0    0 -0.35907110811E+03 -0.25472798833E+03  0.13242804454E+04  0.14086877251E+04  0.19200000000E+03 0.  0.
<mgrwt>
<rscale>  0 0.10701415E+04</rscale>
<asrwt>0</asrwt>
<pdfrwt beam="1">  1        2 0.27098566E+00 0.10701415E+04</pdfrwt>
<pdfrwt beam="2">  1       -2 0.21561551E-01 0.10701415E+04</pdfrwt>
<totfact> 0.16879683E+02</totfact>
</mgrwt>
</event>
<event>
 4    1  0.5863356E-005  0.4282416E+03  0.7818608E-02  0.1034417E+00
          2   -1    0    0  501    0  0.00000000000E+00  0.00000000000E+00  0.33389490166E+03  0.33389490167E+03  0.25500000000E-02 0.  1.
         -2   -1    0    0    0  501 -0.00000000000E+00 -0.00000000000E+00 -0.13731184872E+03  0.13731184875E+03  0.25500000000E-02 0. -1.
    5000001    1    1    2    0    0  0.38314971595E+02  0.39740819308E+02  0.18306941434E+03  0.27097191780E+03  0.19200000000E+03 0.  0.
   -5000001    1    1    2    0    0 -0.38314971595E+02 -0.39740819308E+02  0.13513638595E+02  0.20023483262E+03  0.19200000000E+03 0.  0.
<mgrwt>
<rscale>  0 0.42824164E+03</rscale>
<asrwt>0</asrwt>
<pdfrwt beam="1">  1        2 0.47699272E-01 0.42824164E+03</pdfrwt>
<pdfrwt beam="2">  1       -2 0.19615978E-01 0.42824164E+03</pdfrwt>
<totfact> 0.23107114E+03</totfact>
</mgrwt>
</event>
<event>
 4    1  0.5863356E-005  0.6878274E+03  0.7818608E-02  0.9738278E-01
         -2   -1    0    0    0  501 -0.00000000000E+00  0.00000000000E+00  0.12167731837E+03  0.12167731839E+03  0.25500000000E-02 0. -1.
          2   -1    0    0  501    0  0.00000000000E+00 -0.00000000000E+00 -0.97205147674E+03  0.97205147674E+03  0.25500000000E-02 0.  1.
    5000001    1    1    2    0    0 -0.15422587632E+03  0.13754453107E+03 -0.11233909309E+03  0.30362508261E+03  0.19200000000E+03 0.  0.
   -5000001    1    1    2    0    0  0.15422587632E+03 -0.13754453107E+03 -0.73803506528E+03  0.79010371252E+03  0.19200000000E+03 0.  0.
<mgrwt>
<rscale>  0 0.68782735E+03</rscale>
<asrwt>0</asrwt>
<pdfrwt beam="1">  1        2 0.13886449E+00 0.68782735E+03</pdfrwt>
<pdfrwt beam="2">  1       -2 0.17382475E-01 0.68782735E+03</pdfrwt>
<totfact> 0.79957668E+02</totfact>
</mgrwt>
</event>
<event>
 4    1  0.5863356E-005  0.6305722E+03  0.7818608E-02  0.9843933E-01
          2   -1    0    0  501    0  0.00000000000E+00  0.00000000000E+00  0.16096119854E+04  0.16096119854E+04  0.25500000000E-02 0.  1.
         -2   -1    0    0    0  501 -0.00000000000E+00 -0.00000000000E+00 -0.61757315344E+02  0.61757315397E+02  0.25500000000E-02 0. -1.
    5000001    1    1    2    0    0 -0.16337891524E+03  0.95974233043E+02  0.12065259263E+04  0.12363140920E+04  0.19200000000E+03 0.  0.
   -5000001    1    1    2    0    0  0.16337891524E+03 -0.95974233043E+02  0.34132874379E+03  0.43505520878E+03  0.19200000000E+03 0.  0.
<mgrwt>
<rscale>  0 0.63057217E+03</rscale>
<asrwt>0</asrwt>
<pdfrwt beam="1">  1        2 0.22994456E+00 0.63057217E+03</pdfrwt>
<pdfrwt beam="2">  1       -2 0.88224742E-02 0.63057217E+03</pdfrwt>
<totfact> 0.10930886E+03</totfact>
</mgrwt>
</event>
<event>
 4    1  0.5863356E-005  0.5078477E+03  0.7818608E-02  0.1011751E+00
         -2   -1    0    0    0  501 -0.00000000000E+00  0.00000000000E+00  0.57181895642E+03  0.57181895643E+03  0.25500000000E-02 0.  1.
          2   -1    0    0  501    0  0.00000000000E+00 -0.00000000000E+00 -0.11275828249E+03  0.11275828251E+03  0.25500000000E-02 0. -1.
    5000001    1    1    2    0    0 -0.68124319642E+02  0.14940691708E+03  0.19516371634E+03  0.31924320819E+03  0.19200000000E+03 0.  0.
   -5000001    1    1    2    0    0  0.68124319642E+02 -0.14940691708E+03  0.26389695760E+03  0.36533403076E+03  0.19200000000E+03 0.  0.
<mgrwt>
<rscale>  0 0.50784771E+03</rscale>
<asrwt>0</asrwt>
<pdfrwt beam="1">  1        2 0.16108326E-01 0.50784771E+03</pdfrwt>
<pdfrwt beam="2">  1       -2 0.81688422E-01 0.50784771E+03</pdfrwt>
<totfact> 0.48931926E+02</totfact>
</mgrwt>
</event>
<event>
 4    1  0.5863356E-005  0.8801374E+03  0.7818608E-02  0.9450757E-01
         -2   -1    0    0    0  501 -0.00000000000E+00  0.00000000000E+00  0.73145645512E+03  0.73145645512E+03  0.25500000000E-02 0. -1.
          2   -1    0    0  501    0  0.00000000000E+00 -0.00000000000E+00 -0.26476004704E+03  0.26476004706E+03  0.25500000000E-02 0.  1.
    5000001    1    1    2    0    0 -0.24296473194E+02 -0.38544816132E+03  0.33225627540E+03  0.54444360242E+03  0.19200000000E+03 0.  0.
   -5000001    1    1    2    0    0  0.24296473194E+02  0.38544816132E+03  0.13444013268E+03  0.45177289975E+03  0.19200000000E+03 0.  0.
<mgrwt>
<rscale>  0 0.88013737E+03</rscale>
<asrwt>0</asrwt>
<pdfrwt beam="1">  1        2 0.37822864E-01 0.88013737E+03</pdfrwt>
<pdfrwt beam="2">  1       -2 0.10449378E+00 0.88013737E+03</pdfrwt>
<totfact> 0.10240486E+02</totfact>
</mgrwt>
</event>
<event>
 4    1  0.5863356E-005  0.6918769E+03  0.7818608E-02  0.9731226E-01
         -2   -1    0    0    0  501 -0.00000000000E+00  0.00000000000E+00  0.49931036981E+02  0.49931037047E+02  0.25500000000E-02 0. -1.
          2   -1    0    0  501    0  0.00000000000E+00 -0.00000000000E+00 -0.23967737499E+04  0.23967737499E+04  0.25500000000E-02 0.  1.
    5000001    1    1    2    0    0  0.24037240258E+03 -0.14429547403E+03 -0.14028559463E+04  0.14434226276E+04  0.19200000000E+03 0.  0.
   -5000001    1    1    2    0    0 -0.24037240258E+03  0.14429547403E+03 -0.94398676660E+03  0.10032821593E+04  0.19200000000E+03 0.  0.
<mgrwt>
<rscale>  0 0.69187686E+03</rscale>
<asrwt>0</asrwt>
<pdfrwt beam="1">  1        2 0.34239618E+00 0.69187686E+03</pdfrwt>
<pdfrwt beam="2">  1       -2 0.71330068E-02 0.69187686E+03</pdfrwt>
<totfact> 0.61030134E+02</totfact>
</mgrwt>
</event>
<event>
 4    1  0.5863356E-005  0.5003150E+03  0.7818608E-02  0.1013697E+00
          2   -1    0    0  501    0  0.00000000000E+00  0.00000000000E+00  0.48183734194E+03  0.48183734194E+03  0.25500000000E-02 0.  1.
         -2   -1    0    0    0  501 -0.00000000000E+00 -0.00000000000E+00 -0.12987528938E+03  0.12987528940E+03  0.25500000000E-02 0. -1.
    5000001    1    1    2    0    0  0.15915136597E+03 -0.17364876989E+02  0.18719137896E+03  0.31230643381E+03  0.19200000000E+03 0.  0.
   -5000001    1    1    2    0    0 -0.15915136597E+03  0.17364876989E+02  0.16477067360E+03  0.29940619754E+03  0.19200000000E+03 0.  0.
<mgrwt>
<rscale>  0 0.50031496E+03</rscale>
<asrwt>0</asrwt>
<pdfrwt beam="1">  1        2 0.68833906E-01 0.50031496E+03</pdfrwt>
<pdfrwt beam="2">  1       -2 0.18553613E-01 0.50031496E+03</pdfrwt>
<totfact> 0.16980547E+03</totfact>
</mgrwt>
</event>
<event>
 4    1  0.5863356E-005  0.6622028E+03  0.7818608E-02  0.9784147E-01
         -2   -1    0    0    0  501 -0.00000000000E+00  0.00000000000E+00  0.53948615271E+03  0.53948615272E+03  0.25500000000E-02 0. -1.
          2   -1    0    0  501    0  0.00000000000E+00 -0.00000000000E+00 -0.20320840879E+03  0.20320840881E+03  0.25500000000E-02 0.  1.
    5000001    1    1    2    0    0 -0.20568647759E+03 -0.14132392000E+03  0.53297545364E+02  0.31934934754E+03  0.19200000000E+03 0.  0.
   -5000001    1    1    2    0    0  0.20568647759E+03  0.14132392000E+03  0.28298019856E+03  0.42334521399E+03  0.19200000000E+03 0.  0.
<mgrwt>
<rscale>  0 0.66220276E+03</rscale>
<asrwt>0</asrwt>
<pdfrwt beam="1">  1        2 0.29029772E-01 0.66220276E+03</pdfrwt>
<pdfrwt beam="2">  1       -2 0.77069452E-01 0.66220276E+03</pdfrwt>
<totfact> 0.28037230E+02</totfact>
</mgrwt>
</event>
<event>
 4    1  0.5863356E-005  0.5302329E+03  0.7818608E-02  0.1006176E+00
          2   -1    0    0  501    0  0.00000000000E+00  0.00000000000E+00  0.33216353704E+03  0.33216353705E+03  0.25500000000E-02 0.  1.
         -2   -1    0    0    0  501 -0.00000000000E+00 -0.00000000000E+00 -0.21160277230E+03  0.21160277232E+03  0.25500000000E-02 0. -1.
    5000001    1    1    2    0    0  0.18080746894E+03  0.16386689698E+02  0.38217061401E+02  0.26699140100E+03  0.19200000000E+03 0.  0.
   -5000001    1    1    2    0    0 -0.18080746894E+03 -0.16386689698E+02  0.82343703337E+02  0.27677490837E+03  0.19200000000E+03 0.  0.
<mgrwt>
<rscale>  0 0.53023287E+03</rscale>
<asrwt>0</asrwt>
<pdfrwt beam="1">  1        2 0.47451933E-01 0.53023287E+03</pdfrwt>
<pdfrwt beam="2">  1       -2 0.30228968E-01 0.53023287E+03</pdfrwt>
<totfact> 0.10768670E+03</totfact>
</mgrwt>
</event>
<event>
 4    1  0.5863356E-005  0.5342625E+03  0.7818608E-02  0.1005204E+00
         -2   -1    0    0    0  501 -0.00000000000E+00  0.00000000000E+00  0.26363192830E+03  0.26363192831E+03  0.25500000000E-02 0. -1.
          2   -1    0    0  501    0  0.00000000000E+00 -0.00000000000E+00 -0.27067705580E+03  0.27067705581E+03  0.25500000000E-02 0.  1.
    5000001    1    1    2    0    0 -0.84261020663E+02 -0.13308360631E+03 -0.10193817337E+03  0.26845215042E+03  0.19200000000E+03 0.  0.
   -5000001    1    1    2    0    0  0.84261020663E+02  0.13308360631E+03  0.94893045880E+02  0.26585683371E+03  0.19200000000E+03 0.  0.
<mgrwt>
<rscale>  0 0.53426254E+03</rscale>
<asrwt>0</asrwt>
<pdfrwt beam="1">  1        2 0.38668151E-01 0.53426254E+03</pdfrwt>
<pdfrwt beam="2">  1       -2 0.37661704E-01 0.53426254E+03</pdfrwt>
<totfact> 0.89237800E+02</totfact>
</mgrwt>
</event>
<event>
 4    1  0.5863356E-005  0.4312950E+03  0.7818608E-02  0.1033452E+00
         -2   -1    0    0    0  501 -0.00000000000E+00  0.00000000000E+00  0.29855997536E+02  0.29855997645E+02  0.25500000000E-02 0. -1.
          2   -1    0    0  501    0  0.00000000000E+00 -0.00000000000E+00 -0.15576045997E+04  0.15576045997E+04  0.25500000000E-02 0.  1.
    5000001    1    1    2    0    0  0.41753662445E+02 -0.82701605205E+02 -0.64421439524E+03  0.67857137492E+03  0.19200000000E+03 0.  0.
   -5000001    1    1    2    0    0 -0.41753662445E+02  0.82701605205E+02 -0.88353420691E+03  0.90888922241E+03  0.19200000000E+03 0.  0.
<mgrwt>
<rscale>  0 0.43129498E+03</rscale>
<asrwt>0</asrwt>
<pdfrwt beam="1">  1        2 0.22251489E+00 0.43129498E+03</pdfrwt>
<pdfrwt beam="2">  1       -2 0.42651435E-02 0.43129498E+03</pdfrwt>
<totfact> 0.36433351E+03</totfact>
</mgrwt>
</event>
<event>
 4    1  0.5863356E-005  0.5016144E+03  0.7818608E-02  0.1013358E+00
          2   -1    0    0  501    0  0.00000000000E+00  0.00000000000E+00  0.13412493289E+04  0.13412493289E+04  0.25500000000E-02 0.  1.
         -2   -1    0    0    0  501 -0.00000000000E+00 -0.00000000000E+00 -0.46899742325E+02  0.46899742395E+02  0.25500000000E-02 0. -1.
    5000001    1    1    2    0    0  0.12908048741E+03  0.95453402185E+02  0.60194523207E+03  0.65190120926E+03  0.19200000000E+03 0.  0.
   -5000001    1    1    2    0    0 -0.12908048741E+03 -0.95453402185E+02  0.69240435448E+03  0.73624786202E+03  0.19200000000E+03 0.  0.
<mgrwt>
<rscale>  0 0.50161439E+03</rscale>
<asrwt>0</asrwt>
<pdfrwt beam="1">  1        2 0.19160701E+00 0.50161439E+03</pdfrwt>
<pdfrwt beam="2">  1       -2 0.66999643E-02 0.50161439E+03</pdfrwt>
<totfact> 0.23466247E+03</totfact>
</mgrwt>
</event>
<event>
 4    1  0.5863356E-005  0.5319502E+03  0.7818608E-02  0.1005760E+00
          2   -1    0    0  501    0  0.00000000000E+00  0.00000000000E+00  0.12500191800E+04  0.12500191800E+04  0.25500000000E-02 0.  1.
         -2   -1    0    0    0  501 -0.00000000000E+00 -0.00000000000E+00 -0.56593325258E+02  0.56593325316E+02  0.25500000000E-02 0. -1.
    5000001    1    1    2    0    0 -0.11734217775E+02  0.15700350886E+03  0.36251639166E+03  0.43939723245E+03  0.19200000000E+03 0.  0.
   -5000001    1    1    2    0    0  0.11734217775E+02 -0.15700350886E+03  0.83090946306E+03  0.86721527285E+03  0.19200000000E+03 0.  0.
<mgrwt>
<rscale>  0 0.53195016E+03</rscale>
<asrwt>0</asrwt>
<pdfrwt beam="1">  1        2 0.17857416E+00 0.53195016E+03</pdfrwt>
<pdfrwt beam="2">  1       -2 0.80847611E-02 0.53195016E+03</pdfrwt>
<totfact> 0.19531161E+03</totfact>
</mgrwt>
</event>
<event>
 4    1  0.5863356E-005  0.9219744E+03  0.7818608E-02  0.9398522E-01
         -2   -1    0    0    0  501 -0.00000000000E+00  0.00000000000E+00  0.11331359134E+03  0.11331359137E+03  0.25500000000E-02 0. -1.
          2   -1    0    0  501    0  0.00000000000E+00 -0.00000000000E+00 -0.18754076810E+04  0.18754076810E+04  0.25500000000E-02 0.  1.
    5000001    1    1    2    0    0 -0.19080264893E+03 -0.16299139359E+03 -0.15700189354E+03  0.35282494215E+03  0.19200000000E+03 0.  0.
   -5000001    1    1    2    0    0  0.19080264893E+03  0.16299139359E+03 -0.16050921961E+04  0.16358963303E+04  0.19200000000E+03 0.  0.
<mgrwt>
<rscale>  0 0.92197436E+03</rscale>
<asrwt>0</asrwt>
<pdfrwt beam="1">  1        2 0.26791536E+00 0.92197436E+03</pdfrwt>
<pdfrwt beam="2">  1       -2 0.16187657E-01 0.92197436E+03</pdfrwt>
<totfact> 0.28797266E+02</totfact>
</mgrwt>
</event>
<event>
 4    1  0.5863356E-005  0.4252933E+03  0.7818608E-02  0.1035357E+00
         -2   -1    0    0    0  501 -0.00000000000E+00  0.00000000000E+00  0.39638983814E+02  0.39638983896E+02  0.25500000000E-02 0. -1.
          2   -1    0    0  501    0  0.00000000000E+00 -0.00000000000E+00 -0.11407605794E+04  0.11407605794E+04  0.25500000000E-02 0.  1.
    5000001    1    1    2    0    0  0.84430784433E+02  0.21608863078E+02 -0.62703010104E+03  0.66153325535E+03  0.19200000000E+03 0.  0.
   -5000001    1    1    2    0    0 -0.84430784433E+02 -0.21608863078E+02 -0.47409149455E+03  0.51886630795E+03  0.19200000000E+03 0.  0.
<mgrwt>
<rscale>  0 0.42529326E+03</rscale>
<asrwt>0</asrwt>
<pdfrwt beam="1">  1        2 0.16296578E+00 0.42529326E+03</pdfrwt>
<pdfrwt beam="2">  1       -2 0.56627127E-02 0.42529326E+03</pdfrwt>
<totfact> 0.39286168E+03</totfact>
</mgrwt>
</event>
<event>
 4    1  0.5863356E-005  0.5706297E+03  0.7818608E-02  0.9968286E-01
         -2   -1    0    0    0  501 -0.00000000000E+00  0.00000000000E+00  0.27858080221E+03  0.27858080223E+03  0.25500000000E-02 0. -1.
          2   -1    0    0  501    0  0.00000000000E+00 -0.00000000000E+00 -0.29221167222E+03  0.29221167223E+03  0.25500000000E-02 0.  1.
    5000001    1    1    2    0    0  0.20442408317E+03 -0.48465336292E+02 -0.26882749711E+02  0.28587545686E+03  0.19200000000E+03 0.  0.
   -5000001    1    1    2    0    0 -0.20442408317E+03  0.48465336292E+02  0.13251879702E+02  0.28491701760E+03  0.19200000000E+03 0.  0.
<mgrwt>
<rscale>  0 0.57062969E+03</rscale>
<asrwt>0</asrwt>
<pdfrwt beam="1">  1        2 0.41744525E-01 0.57062969E+03</pdfrwt>
<pdfrwt beam="2">  1       -2 0.39797258E-01 0.57062969E+03</pdfrwt>
<totfact> 0.73727608E+02</totfact>
</mgrwt>
</event>
<event>
 4    1  0.5863356E-005  0.6429562E+03  0.7818608E-02  0.9820087E-01
          2   -1    0    0  501    0  0.00000000000E+00  0.00000000000E+00  0.10510590995E+04  0.10510590995E+04  0.25500000000E-02 0.  1.
         -2   -1    0    0    0  501 -0.00000000000E+00 -0.00000000000E+00 -0.98327657737E+02  0.98327657770E+02  0.25500000000E-02 0. -1.
    5000001    1    1    2    0    0 -0.93064509950E+02  0.23980670275E+03  0.50813991332E+03  0.60103113830E+03  0.19200000000E+03 0.  0.
   -5000001    1    1    2    0    0  0.93064509950E+02 -0.23980670275E+03  0.44459152844E+03  0.54835561897E+03  0.19200000000E+03 0.  0.
<mgrwt>
<rscale>  0 0.64295623E+03</rscale>
<asrwt>0</asrwt>
<pdfrwt beam="1">  1        2 0.15015129E+00 0.64295623E+03</pdfrwt>
<pdfrwt beam="2">  1       -2 0.14046809E-01 0.64295623E+03</pdfrwt>
<totfact> 0.10284251E+03</totfact>
</mgrwt>
</event>
<event>
 4    1  0.5863356E-005  0.4848999E+03  0.7818608E-02  0.1017797E+00
          2   -1    0    0  501    0  0.00000000000E+00  0.00000000000E+00  0.19687332291E+04  0.19687332291E+04  0.25500000000E-02 0.  1.
         -2   -1    0    0    0  501 -0.00000000000E+00 -0.00000000000E+00 -0.29857773157E+02  0.29857773266E+02  0.25500000000E-02 0. -1.
    5000001    1    1    2    0    0 -0.14736060775E+03  0.49862703374E+01  0.91445126834E+03  0.94595197224E+03  0.19200000000E+03 0.  0.
   -5000001    1    1    2    0    0  0.14736060775E+03 -0.49862703374E+01  0.10244241876E+04  0.10526390301E+04  0.19200000000E+03 0.  0.
<mgrwt>
<rscale>  0 0.48489995E+03</rscale>
<asrwt>0</asrwt>
<pdfrwt beam="1">  1        2 0.28124765E+00 0.48489995E+03</pdfrwt>
<pdfrwt beam="2">  1       -2 0.42653955E-02 0.48489995E+03</pdfrwt>
<totfact> 0.22618778E+03</totfact>
</mgrwt>
</event>
<event>
 4    1  0.5863356E-005  0.7541336E+03  0.7818608E-02  0.9628888E-01
         -2   -1    0    0    0  501 -0.00000000000E+00  0.00000000000E+00  0.17813604133E+03  0.17813604135E+03  0.25500000000E-02 0. -1.
          2   -1    0    0  501    0  0.00000000000E+00 -0.00000000000E+00 -0.79815056350E+03  0.79815056350E+03  0.25500000000E-02 0.  1.
    5000001    1    1    2    0    0  0.21815150234E+03 -0.12894450912E+02  0.58153379075E+00  0.29089634412E+03  0.19200000000E+03 0.  0.
   -5000001    1    1    2    0    0 -0.21815150234E+03  0.12894450912E+02 -0.62059605596E+03  0.68539026074E+03  0.19200000000E+03 0.  0.
<mgrwt>
<rscale>  0 0.75413363E+03</rscale>
<asrwt>0</asrwt>
<pdfrwt beam="1">  1        2 0.11402151E+00 0.75413363E+03</pdfrwt>
<pdfrwt beam="2">  1       -2 0.25448006E-01 0.75413363E+03</pdfrwt>
<totfact> 0.53080409E+02</totfact>
</mgrwt>
</event>
<event>
 4    1  0.5863356E-005  0.1135889E+04  0.7818608E-02  0.9170901E-01
          2   -1    0    0  501    0  0.00000000000E+00  0.00000000000E+00  0.13775314804E+04  0.13775314804E+04  0.25500000000E-02 0.  1.
         -2   -1    0    0    0  501 -0.00000000000E+00 -0.00000000000E+00 -0.23415880710E+03  0.23415880712E+03  0.25500000000E-02 0. -1.
    5000001    1    1    2    0    0 -0.16128322997E+03  0.50407501927E+03  0.67780130303E+03  0.88112570710E+03  0.19200000000E+03 0.  0.
   -5000001    1    1    2    0    0  0.16128322997E+03 -0.50407501927E+03  0.46557137022E+03  0.73056458037E+03  0.19200000000E+03 0.  0.
<mgrwt>
<rscale>  0 0.11358893E+04</rscale>
<asrwt>0</asrwt>
<pdfrwt beam="1">  1        2 0.19679021E+00 0.11358893E+04</pdfrwt>
<pdfrwt beam="2">  1       -2 0.33451258E-01 0.11358893E+04</pdfrwt>
<totfact> 0.14060318E+02</totfact>
</mgrwt>
</event>
<event>
 4    1  0.5863356E-005  0.7017127E+03  0.7818608E-02  0.9714308E-01
          2   -1    0    0  501    0  0.00000000000E+00  0.00000000000E+00  0.97258398491E+03  0.97258398491E+03  0.25500000000E-02 0.  1.
         -2   -1    0    0    0  501 -0.00000000000E+00 -0.00000000000E+00 -0.12657023694E+03  0.12657023696E+03  0.25500000000E-02 0. -1.
    5000001    1    1    2    0    0  0.21184669762E+02  0.25284134288E+03  0.19142159125E+03  0.37132702635E+03  0.19200000000E+03 0.  0.
   -5000001    1    1    2    0    0 -0.21184669762E+02 -0.25284134288E+03  0.65459215672E+03  0.72782719552E+03  0.19200000000E+03 0.  0.
<mgrwt>
<rscale>  0 0.70171272E+03</rscale>
<asrwt>0</asrwt>
<pdfrwt beam="1">  1        2 0.13894057E+00 0.70171272E+03</pdfrwt>
<pdfrwt beam="2">  1       -2 0.18081463E-01 0.70171272E+03</pdfrwt>
<totfact> 0.74626532E+02</totfact>
</mgrwt>
</event>
<event>
 4    1  0.5863356E-005  0.4943522E+03  0.7818608E-02  0.1015264E+00
          2   -1    0    0  501    0  0.00000000000E+00  0.00000000000E+00  0.19773535982E+04  0.19773535982E+04  0.25500000000E-02 0.  1.
         -2   -1    0    0    0  501 -0.00000000000E+00 -0.00000000000E+00 -0.30897868881E+02  0.30897868986E+02  0.25500000000E-02 0. -1.
    5000001    1    1    2    0    0 -0.13479877586E+03 -0.71965616156E+02  0.10938919699E+04  0.11210768938E+04  0.19200000000E+03 0.  0.
   -5000001    1    1    2    0    0  0.13479877586E+03  0.71965616156E+02  0.85256375935E+03  0.88717457337E+03  0.19200000000E+03 0.  0.
<mgrwt>
<rscale>  0 0.49435215E+03</rscale>
<asrwt>0</asrwt>
<pdfrwt beam="1">  1        2 0.28247909E+00 0.49435215E+03</pdfrwt>
<pdfrwt beam="2">  1       -2 0.44139811E-02 0.49435215E+03</pdfrwt>
<totfact> 0.21241890E+03</totfact>
</mgrwt>
</event>
<event>
 4    1  0.5863356E-005  0.2096641E+04  0.7818608E-02  0.8562725E-01
          2   -1    0    0  501    0  0.00000000000E+00  0.00000000000E+00  0.12894857190E+04  0.12894857190E+04  0.25500000000E-02 0.  1.
         -2   -1    0    0    0  501 -0.00000000000E+00 -0.00000000000E+00 -0.85225899880E+03  0.85225899881E+03  0.25500000000E-02 0. -1.
    5000001    1    1    2    0    0 -0.42516860187E+03 -0.89044785421E+03  0.52240999147E+03  0.11328909569E+04  0.19200000000E+03 0.  0.
   -5000001    1    1    2    0    0  0.42516860187E+03  0.89044785421E+03 -0.85183271300E+02  0.10088537609E+04  0.19200000000E+03 0.  0.
<mgrwt>
<rscale>  0 0.20966409E+04</rscale>
<asrwt>0</asrwt>
<pdfrwt beam="1">  1        2 0.18421225E+00 0.20966409E+04</pdfrwt>
<pdfrwt beam="2">  1       -2 0.12175128E+00 0.20966409E+04</pdfrwt>
<totfact> 0.90242935E+00</totfact>
</mgrwt>
</event>
<event>
 4    1  0.5863356E-005  0.7078947E+03  0.7818608E-02  0.9703826E-01
          2   -1    0    0  501    0  0.00000000000E+00  0.00000000000E+00  0.51838450314E+02  0.51838450377E+02  0.25500000000E-02 0.  1.
         -2   -1    0    0    0  501 -0.00000000000E+00 -0.00000000000E+00 -0.24167143620E+04  0.24167143620E+04  0.25500000000E-02 0. -1.
    5000001    1    1    2    0    0  0.22317535480E+03  0.15120431672E+03 -0.16200019215E+04  0.16534630960E+04  0.19200000000E+03 0.  0.
   -5000001    1    1    2    0    0 -0.22317535480E+03 -0.15120431672E+03 -0.74487399022E+03  0.81508971634E+03  0.19200000000E+03 0.  0.
<mgrwt>
<rscale>  0 0.70789470E+03</rscale>
<asrwt>0</asrwt>
<pdfrwt beam="1">  1        2 0.74054944E-02 0.70789470E+03</pdfrwt>
<pdfrwt beam="2">  1       -2 0.34524484E+00 0.70789470E+03</pdfrwt>
<totfact> 0.17298201E+01</totfact>
</mgrwt>
</event>
<event>
 4    1  0.5863356E-005  0.6292403E+03  0.7818608E-02  0.9846532E-01
          2   -1    0    0  501    0  0.00000000000E+00  0.00000000000E+00  0.12807699789E+04  0.12807699789E+04  0.25500000000E-02 0.  1.
         -2   -1    0    0    0  501 -0.00000000000E+00 -0.00000000000E+00 -0.77286204759E+02  0.77286204801E+02  0.25500000000E-02 0. -1.
    5000001    1    1    2    0    0 -0.11344047293E+03  0.74068431333E+02  0.15022452056E+03  0.27890191824E+03  0.19200000000E+03 0.  0.
   -5000001    1    1    2    0    0  0.11344047293E+03 -0.74068431333E+02  0.10532592536E+04  0.10791542655E+04  0.19200000000E+03 0.  0.
<mgrwt>
<rscale>  0 0.62924034E+03</rscale>
<asrwt>0</asrwt>
<pdfrwt beam="1">  1        2 0.18296713E+00 0.62924034E+03</pdfrwt>
<pdfrwt beam="2">  1       -2 0.11040887E-01 0.62924034E+03</pdfrwt>
<totfact> 0.11338264E+03</totfact>
</mgrwt>
</event>
<event>
 4    1  0.5863356E-005  0.5837205E+03  0.7818608E-02  0.9939768E-01
         -2   -1    0    0    0  501 -0.00000000000E+00  0.00000000000E+00  0.14568916634E+03  0.14568916636E+03  0.25500000000E-02 0. -1.
          2   -1    0    0  501    0  0.00000000000E+00 -0.00000000000E+00 -0.58468601805E+03  0.58468601806E+03  0.25500000000E-02 0.  1.
    5000001    1    1    2    0    0 -0.18764589324E+03 -0.10311541000E+03 -0.28174248114E+03  0.40259979472E+03  0.19200000000E+03 0.  0.
   -5000001    1    1    2    0    0  0.18764589324E+03  0.10311541000E+03 -0.15725437058E+03  0.32777538970E+03  0.19200000000E+03 0.  0.
<mgrwt>
<rscale>  0 0.58372054E+03</rscale>
<asrwt>0</asrwt>
<pdfrwt beam="1">  1        2 0.83526572E-01 0.58372054E+03</pdfrwt>
<pdfrwt beam="2">  1       -2 0.20812738E-01 0.58372054E+03</pdfrwt>
<totfact> 0.11144997E+03</totfact>
</mgrwt>
</event>
<event>
 4    1  0.5863356E-005  0.1589827E+04  0.7818608E-02  0.8826822E-01
          2   -1    0    0  501    0  0.00000000000E+00  0.00000000000E+00  0.15013876695E+04  0.15013876695E+04  0.25500000000E-02 0.  1.
         -2   -1    0    0    0  501 -0.00000000000E+00 -0.00000000000E+00 -0.42086879547E+03  0.42086879548E+03  0.25500000000E-02 0. -1.
    5000001    1    1    2    0    0  0.59557199246E+03  0.74883060560E+02 -0.45510546140E+02  0.63186128285E+03  0.19200000000E+03 0.  0.
   -5000001    1    1    2    0    0 -0.59557199246E+03 -0.74883060560E+02  0.11260294202E+04  0.12903951821E+04  0.19200000000E+03 0.  0.
<mgrwt>
<rscale>  0 0.15898267E+04</rscale>
<asrwt>0</asrwt>
<pdfrwt beam="1">  1        2 0.21448395E+00 0.15898267E+04</pdfrwt>
<pdfrwt beam="2">  1       -2 0.60124113E-01 0.15898267E+04</pdfrwt>
<totfact> 0.36182706E+01</totfact>
</mgrwt>
</event>
<event>
 4    1  0.5863356E-005  0.4668788E+03  0.7818608E-02  0.1022805E+00
         -2   -1    0    0    0  501 -0.00000000000E+00  0.00000000000E+00  0.86939237347E+02  0.86939237385E+02  0.25500000000E-02 0. -1.
          2   -1    0    0  501    0  0.00000000000E+00 -0.00000000000E+00 -0.62680514588E+03  0.62680514588E+03  0.25500000000E-02 0.  1.
    5000001    1    1    2    0    0 -0.57276869744E+02 -0.10278577002E+03 -0.17588758005E+03  0.28573763340E+03  0.19200000000E+03 0.  0.
   -5000001    1    1    2    0    0  0.57276869744E+02  0.10278577002E+03 -0.36397832848E+03  0.42800674987E+03  0.19200000000E+03 0.  0.
<mgrwt>
<rscale>  0 0.46687883E+03</rscale>
<asrwt>0</asrwt>
<pdfrwt beam="1">  1        2 0.89543590E-01 0.46687883E+03</pdfrwt>
<pdfrwt beam="2">  1       -2 0.12419891E-01 0.46687883E+03</pdfrwt>
<totfact> 0.24607284E+03</totfact>
</mgrwt>
</event>
<event>
 4    1  0.5863356E-005  0.6209318E+03  0.7818608E-02  0.9862906E-01
         -2   -1    0    0    0  501 -0.00000000000E+00  0.00000000000E+00  0.20721311452E+03  0.20721311454E+03  0.25500000000E-02 0.  1.
          2   -1    0    0  501    0  0.00000000000E+00 -0.00000000000E+00 -0.46516876779E+03  0.46516876779E+03  0.25500000000E-02 0. -1.
    5000001    1    1    2    0    0  0.13678709162E+03  0.15071026095E+03 -0.27466480452E+03  0.39208295810E+03  0.19200000000E+03 0.  0.
   -5000001    1    1    2    0    0 -0.13678709162E+03 -0.15071026095E+03  0.16709151260E+02  0.28029892423E+03  0.19200000000E+03 0.  0.
<mgrwt>
<rscale>  0 0.62093178E+03</rscale>
<asrwt>0</asrwt>
<pdfrwt beam="1">  1        2 0.66452681E-01 0.62093178E+03</pdfrwt>
<pdfrwt beam="2">  1       -2 0.29601874E-01 0.62093178E+03</pdfrwt>
<totfact> 0.76939208E+02</totfact>
</mgrwt>
</event>
<event>
 4    1  0.5863356E-005  0.6063184E+03  0.7818608E-02  0.9892383E-01
         -2   -1    0    0    0  501 -0.00000000000E+00  0.00000000000E+00  0.11071137738E+03  0.11071137741E+03  0.25500000000E-02 0. -1.
          2   -1    0    0  501    0  0.00000000000E+00 -0.00000000000E+00 -0.83013590412E+03  0.83013590413E+03  0.25500000000E-02 0.  1.
    5000001    1    1    2    0    0 -0.15192266944E+01 -0.22912753024E+03 -0.43791364541E+03  0.53022079740E+03  0.19200000000E+03 0.  0.
   -5000001    1    1    2    0    0  0.15192266944E+01  0.22912753024E+03 -0.28151088133E+03  0.41062648413E+03  0.19200000000E+03 0.  0.
<mgrwt>
<rscale>  0 0.60631836E+03</rscale>
<asrwt>0</asrwt>
<pdfrwt beam="1">  1        2 0.11859084E+00 0.60631836E+03</pdfrwt>
<pdfrwt beam="2">  1       -2 0.15815911E-01 0.60631836E+03</pdfrwt>
<totfact> 0.11629765E+03</totfact>
</mgrwt>
</event>
<event>
 4    1  0.5863356E-005  0.5455914E+03  0.7818608E-02  0.1002520E+00
         -2   -1    0    0    0  501 -0.00000000000E+00  0.00000000000E+00  0.60796859105E+02  0.60796859159E+02  0.25500000000E-02 0. -1.
          2   -1    0    0  501    0  0.00000000000E+00 -0.00000000000E+00 -0.12240349760E+04  0.12240349760E+04  0.25500000000E-02 0.  1.
    5000001    1    1    2    0    0  0.16986371662E+03  0.29738132634E+02 -0.78980702094E+03  0.83090141959E+03  0.19200000000E+03 0.  0.
   -5000001    1    1    2    0    0 -0.16986371662E+03 -0.29738132634E+02 -0.37343109600E+03  0.45393041561E+03  0.19200000000E+03 0.  0.
<mgrwt>
<rscale>  0 0.54559136E+03</rscale>
<asrwt>0</asrwt>
<pdfrwt beam="1">  1        2 0.17486213E+00 0.54559136E+03</pdfrwt>
<pdfrwt beam="2">  1       -2 0.86852663E-02 0.54559136E+03</pdfrwt>
<totfact> 0.18001967E+03</totfact>
</mgrwt>
</event>
<event>
 4    1  0.5863356E-005  0.6821987E+03  0.7818608E-02  0.9748169E-01
          2   -1    0    0  501    0  0.00000000000E+00  0.00000000000E+00  0.17954194593E+04  0.17954194593E+04  0.25500000000E-02 0.  1.
         -2   -1    0    0    0  501 -0.00000000000E+00 -0.00000000000E+00 -0.64803105118E+02  0.64803105168E+02  0.25500000000E-02 0. -1.
    5000001    1    1    2    0    0 -0.21599977400E+03  0.10426455122E+03  0.46124616001E+03  0.55420124425E+03  0.19200000000E+03 0.  0.
   -5000001    1    1    2    0    0  0.21599977400E+03 -0.10426455122E+03  0.12693701942E+04  0.13060213203E+04  0.19200000000E+03 0.  0.
<mgrwt>
<rscale>  0 0.68219867E+03</rscale>
<asrwt>0</asrwt>
<pdfrwt beam="1">  1        2 0.25648853E+00 0.68219867E+03</pdfrwt>
<pdfrwt beam="2">  1       -2 0.92575852E-02 0.68219867E+03</pdfrwt>
<totfact> 0.81106991E+02</totfact>
</mgrwt>
</event>
<event>
 4    1  0.5863356E-005  0.5574447E+03  0.7818608E-02  0.9997853E-01
          2   -1    0    0  501    0  0.00000000000E+00  0.00000000000E+00  0.11178176143E+04  0.11178176143E+04  0.25500000000E-02 0.  1.
         -2   -1    0    0    0  501 -0.00000000000E+00 -0.00000000000E+00 -0.69498063305E+02  0.69498063351E+02  0.25500000000E-02 0. -1.
    5000001    1    1    2    0    0 -0.10471950702E+03  0.11829066103E+02  0.15699587462E+03  0.26947691293E+03  0.19200000000E+03 0.  0.
   -5000001    1    1    2    0    0  0.10471950702E+03 -0.11829066103E+02  0.89132367640E+03  0.91783876475E+03  0.19200000000E+03 0.  0.
<mgrwt>
<rscale>  0 0.55744474E+03</rscale>
<asrwt>0</asrwt>
<pdfrwt beam="1">  1        2 0.15968822E+00 0.55744474E+03</pdfrwt>
<pdfrwt beam="2">  1       -2 0.99282956E-02 0.55744474E+03</pdfrwt>
<totfact> 0.16662939E+03</totfact>
</mgrwt>
</event>
<event>
 4    1  0.5863356E-005  0.8352212E+03  0.7818608E-02  0.9510390E-01
          2   -1    0    0  501    0  0.00000000000E+00  0.00000000000E+00  0.23673416348E+03  0.23673416350E+03  0.25500000000E-02 0. -1.
         -2   -1    0    0    0  501 -0.00000000000E+00 -0.00000000000E+00 -0.73668552131E+03  0.73668552131E+03  0.25500000000E-02 0.  1.
    5000001    1    1    2    0    0  0.27327723013E+03  0.14772434182E+03 -0.48605523245E+03  0.60796103055E+03  0.19200000000E+03 0.  0.
   -5000001    1    1    2    0    0 -0.27327723013E+03 -0.14772434182E+03 -0.13896125381E+02  0.36545865426E+03  0.19200000000E+03 0.  0.
<mgrwt>
<rscale>  0 0.83522124E+03</rscale>
<asrwt>0</asrwt>
<pdfrwt beam="1">  1        2 0.33819167E-01 0.83522124E+03</pdfrwt>
<pdfrwt beam="2">  1       -2 0.10524079E+00 0.83522124E+03</pdfrwt>
<totfact> 0.11432699E+02</totfact>
</mgrwt>
</event>
<event>
 4    1  0.5863356E-005  0.4913007E+03  0.7818608E-02  0.1016075E+00
         -2   -1    0    0    0  501 -0.00000000000E+00  0.00000000000E+00  0.15977688011E+04  0.15977688011E+04  0.25500000000E-02 0. -1.
          2   -1    0    0  501    0  0.00000000000E+00 -0.00000000000E+00 -0.37767721747E+02  0.37767721833E+02  0.25500000000E-02 0.  1.
    5000001    1    1    2    0    0  0.79684291447E+02 -0.73393770439E+02  0.11407604267E+04  0.11618668525E+04  0.19200000000E+03 0.  0.
   -5000001    1    1    2    0    0 -0.79684291447E+02  0.73393770439E+02  0.41924065267E+03  0.47366967044E+03  0.19200000000E+03 0.  0.
<mgrwt>
<rscale>  0 0.49130067E+03</rscale>
<asrwt>0</asrwt>
<pdfrwt beam="1">  1        2 0.53953883E-02 0.49130067E+03</pdfrwt>
<pdfrwt beam="2">  1       -2 0.22825271E+00 0.49130067E+03</pdfrwt>
<totfact> 0.13579563E+02</totfact>
</mgrwt>
</event>
<event>
 4    1  0.5863356E-005  0.4288044E+03  0.7818608E-02  0.1034238E+00
          2   -1    0    0  501    0  0.00000000000E+00  0.00000000000E+00  0.77394990129E+02  0.77394990171E+02  0.25500000000E-02 0.  1.
         -2   -1    0    0    0  501 -0.00000000000E+00 -0.00000000000E+00 -0.59394414855E+03  0.59394414856E+03  0.25500000000E-02 0. -1.
    5000001    1    1    2    0    0  0.43876243975E+02 -0.82865990764E+02 -0.28594662438E+03  0.35696129931E+03  0.19200000000E+03 0.  0.
   -5000001    1    1    2    0    0 -0.43876243975E+02  0.82865990764E+02 -0.23060253404E+03  0.31437783942E+03  0.19200000000E+03 0.  0.
<mgrwt>
<rscale>  0 0.42880439E+03</rscale>
<asrwt>0</asrwt>
<pdfrwt beam="1">  1        2 0.11056428E-01 0.42880439E+03</pdfrwt>
<pdfrwt beam="2">  1       -2 0.84849161E-01 0.42880439E+03</pdfrwt>
<totfact> 0.71139536E+02</totfact>
</mgrwt>
</event>
<event>
 4    1  0.5863356E-005  0.7501394E+03  0.7818608E-02  0.9635132E-01
         -2   -1    0    0    0  501 -0.00000000000E+00  0.00000000000E+00  0.10544730827E+03  0.10544730830E+03  0.25500000000E-02 0. -1.
          2   -1    0    0  501    0  0.00000000000E+00 -0.00000000000E+00 -0.13341003338E+04  0.13341003338E+04  0.25500000000E-02 0.  1.
    5000001    1    1    2    0    0 -0.14683203053E+03  0.28062733054E+03 -0.72789000360E+03  0.81670019051E+03  0.19200000000E+03 0.  0.
   -5000001    1    1    2    0    0  0.14683203053E+03 -0.28062733054E+03 -0.50076302197E+03  0.62284745163E+03  0.19200000000E+03 0.  0.
<mgrwt>
<rscale>  0 0.75013942E+03</rscale>
<asrwt>0</asrwt>
<pdfrwt beam="1">  1        2 0.19058575E+00 0.75013942E+03</pdfrwt>
<pdfrwt beam="2">  1       -2 0.15063902E-01 0.75013942E+03</pdfrwt>
<totfact> 0.62961716E+02</totfact>
</mgrwt>
</event>
<event>
 4    1  0.5863356E-005  0.5142619E+03  0.7818608E-02  0.1010122E+00
         -2   -1    0    0    0  501 -0.00000000000E+00  0.00000000000E+00  0.40490566591E+02  0.40490566671E+02  0.25500000000E-02 0. -1.
          2   -1    0    0  501    0  0.00000000000E+00 -0.00000000000E+00 -0.16328823983E+04  0.16328823983E+04  0.25500000000E-02 0.  1.
    5000001    1    1    2    0    0 -0.12055241216E+03 -0.11916492212E+03 -0.87033778094E+03  0.90724032961E+03  0.19200000000E+03 0.  0.
   -5000001    1    1    2    0    0  0.12055241216E+03  0.11916492212E+03 -0.72205405080E+03  0.76613263539E+03  0.19200000000E+03 0.  0.
<mgrwt>
<rscale>  0 0.51426193E+03</rscale>
<asrwt>0</asrwt>
<pdfrwt beam="1">  1        2 0.23326887E+00 0.51426193E+03</pdfrwt>
<pdfrwt beam="2">  1       -2 0.57843677E-02 0.51426193E+03</pdfrwt>
<totfact> 0.20817682E+03</totfact>
</mgrwt>
</event>
<event>
 4    1  0.5863356E-005  0.6638579E+03  0.7818608E-02  0.9781118E-01
         -2   -1    0    0    0  501 -0.00000000000E+00  0.00000000000E+00  0.21126718177E+03  0.21126718178E+03  0.25500000000E-02 0.  1.
          2   -1    0    0  501    0  0.00000000000E+00 -0.00000000000E+00 -0.52150465477E+03  0.52150465477E+03  0.25500000000E-02 0. -1.
    5000001    1    1    2    0    0  0.17978806800E+03 -0.11668034560E+03  0.27509896883E+02  0.28906547160E+03  0.19200000000E+03 0.  0.
   -5000001    1    1    2    0    0 -0.17978806800E+03  0.11668034560E+03 -0.33774736988E+03  0.44370636496E+03  0.19200000000E+03 0.  0.
<mgrwt>
<rscale>  0 0.66385787E+03</rscale>
<asrwt>0</asrwt>
<pdfrwt beam="1">  1        2 0.74500664E-01 0.66385787E+03</pdfrwt>
<pdfrwt beam="2">  1       -2 0.30181026E-01 0.66385787E+03</pdfrwt>
<totfact> 0.65123070E+02</totfact>
</mgrwt>
</event>
<event>
 4    1  0.5863356E-005  0.6303449E+03  0.7818608E-02  0.9844376E-01
         -2   -1    0    0    0  501 -0.00000000000E+00  0.00000000000E+00  0.12770833954E+03  0.12770833957E+03  0.25500000000E-02 0.  1.
          2   -1    0    0  501    0  0.00000000000E+00 -0.00000000000E+00 -0.77781657251E+03  0.77781657251E+03  0.25500000000E-02 0. -1.
    5000001    1    1    2    0    0  0.14646749729E+03  0.17720140697E+03 -0.46592877627E+03  0.55390133684E+03  0.19200000000E+03 0.  0.
   -5000001    1    1    2    0    0 -0.14646749729E+03 -0.17720140697E+03 -0.18417945670E+03  0.35162357524E+03  0.19200000000E+03 0.  0.
<mgrwt>
<rscale>  0 0.63034487E+03</rscale>
<asrwt>0</asrwt>
<pdfrwt beam="1">  1        2 0.11111665E+00 0.63034487E+03</pdfrwt>
<pdfrwt beam="2">  1       -2 0.18244049E-01 0.63034487E+03</pdfrwt>
<totfact> 0.99005140E+02</totfact>
</mgrwt>
</event>
<event>
 4    1  0.5863356E-005  0.4277591E+03  0.7818608E-02  0.1034570E+00
         -2   -1    0    0    0  501 -0.00000000000E+00  0.00000000000E+00  0.16482645241E+03  0.16482645243E+03  0.25500000000E-02 0. -1.
          2   -1    0    0  501    0  0.00000000000E+00 -0.00000000000E+00 -0.27753107946E+03  0.27753107947E+03  0.25500000000E-02 0.  1.
    5000001    1    1    2    0    0  0.39962863254E+02  0.80266122450E+02 -0.86338136492E+02  0.22881860647E+03  0.19200000000E+03 0.  0.
   -5000001    1    1    2    0    0 -0.39962863254E+02 -0.80266122450E+02 -0.26366490552E+02  0.21353892544E+03  0.19200000000E+03 0.  0.
<mgrwt>
<rscale>  0 0.42775911E+03</rscale>
<asrwt>0</asrwt>
<pdfrwt beam="1">  1        2 0.39647297E-01 0.42775911E+03</pdfrwt>
<pdfrwt beam="2">  1       -2 0.23546636E-01 0.42775911E+03</pdfrwt>
<totfact> 0.20560331E+03</totfact>
</mgrwt>
</event>
<event>
 4    1  0.5863356E-005  0.1158483E+04  0.7818608E-02  0.9149993E-01
         -2   -1    0    0    0  501 -0.00000000000E+00  0.00000000000E+00  0.43173586947E+03  0.43173586948E+03  0.25500000000E-02 0.  1.
          2   -1    0    0  501    0  0.00000000000E+00 -0.00000000000E+00 -0.77714314148E+03  0.77714314148E+03  0.25500000000E-02 0. -1.
    5000001    1    1    2    0    0  0.19830029321E+02  0.54535887024E+03 -0.14233356120E+03  0.59576200790E+03  0.19200000000E+03 0.  0.
   -5000001    1    1    2    0    0 -0.19830029321E+02 -0.54535887024E+03 -0.20307371081E+03  0.61311700306E+03  0.19200000000E+03 0.  0.
<mgrwt>
<rscale>  0 0.11584827E+04</rscale>
<asrwt>0</asrwt>
<pdfrwt beam="1">  1        2 0.11102045E+00 0.11584827E+04</pdfrwt>
<pdfrwt beam="2">  1       -2 0.61676553E-01 0.11584827E+04</pdfrwt>
<totfact> 0.95430176E+01</totfact>
</mgrwt>
</event>
<event>
 4    1  0.5863356E-005  0.4970751E+03  0.7818608E-02  0.1014545E+00
          2   -1    0    0  501    0  0.00000000000E+00  0.00000000000E+00  0.19695021153E+04  0.19695021153E+04  0.25500000000E-02 0.  1.
         -2   -1    0    0    0  501 -0.00000000000E+00 -0.00000000000E+00 -0.31363723989E+02  0.31363724092E+02  0.25500000000E-02 0. -1.
    5000001    1    1    2    0    0 -0.10598126839E+03  0.43490283034E+02  0.14060203062E+04  0.14236855465E+04  0.19200000000E+03 0.  0.
   -5000001    1    1    2    0    0  0.10598126839E+03 -0.43490283034E+02  0.53211808519E+03  0.57718029294E+03  0.19200000000E+03 0.  0.
<mgrwt>
<rscale>  0 0.49707513E+03</rscale>
<asrwt>0</asrwt>
<pdfrwt beam="1">  1        2 0.28135741E+00 0.49707513E+03</pdfrwt>
<pdfrwt beam="2">  1       -2 0.44805326E-02 0.49707513E+03</pdfrwt>
<totfact> 0.20944919E+03</totfact>
</mgrwt>
</event>
<event>
 4    1  0.5863356E-005  0.6859017E+03  0.7818608E-02  0.9741651E-01
          2   -1    0    0  501    0  0.00000000000E+00  0.00000000000E+00  0.10462190603E+04  0.10462190603E+04  0.25500000000E-02 0.  1.
         -2   -1    0    0    0  501 -0.00000000000E+00 -0.00000000000E+00 -0.11241936302E+03  0.11241936305E+03  0.25500000000E-02 0. -1.
    5000001    1    1    2    0    0 -0.33020564929E+02  0.24876343099E+03  0.24167122887E+03  0.39779716586E+03  0.19200000000E+03 0.  0.
   -5000001    1    1    2    0    0  0.33020564929E+02 -0.24876343099E+03  0.69212846839E+03  0.76084125746E+03  0.19200000000E+03 0.  0.
<mgrwt>
<rscale>  0 0.68590168E+03</rscale>
<asrwt>0</asrwt>
<pdfrwt beam="1">  1        2 0.14945986E+00 0.68590168E+03</pdfrwt>
<pdfrwt beam="2">  1       -2 0.16059910E-01 0.68590168E+03</pdfrwt>
<totfact> 0.82484328E+02</totfact>
</mgrwt>
</event>
<event>
 4    1  0.5863356E-005  0.4208120E+03  0.7818608E-02  0.1036802E+00
         -2   -1    0    0    0  501 -0.00000000000E+00  0.00000000000E+00  0.13657835823E+03  0.13657835826E+03  0.25500000000E-02 0. -1.
          2   -1    0    0  501    0  0.00000000000E+00 -0.00000000000E+00 -0.32414134571E+03  0.32414134572E+03  0.25500000000E-02 0.  1.
    5000001    1    1    2    0    0  0.66456320524E+02 -0.38583199069E+02 -0.51356294659E+02  0.21308818548E+03  0.19200000000E+03 0.  0.
   -5000001    1    1    2    0    0 -0.66456320524E+02  0.38583199069E+02 -0.13620669282E+03  0.24763151850E+03  0.19200000000E+03 0.  0.
<mgrwt>
<rscale>  0 0.42081204E+03</rscale>
<asrwt>0</asrwt>
<pdfrwt beam="1">  1        2 0.46305906E-01 0.42081204E+03</pdfrwt>
<pdfrwt beam="2">  1       -2 0.19511194E-01 0.42081204E+03</pdfrwt>
<totfact> 0.24083497E+03</totfact>
</mgrwt>
</event>
<event>
 4    1  0.5863356E-005  0.4454830E+03  0.7818608E-02  0.1029078E+00
         -2   -1    0    0    0  501 -0.00000000000E+00  0.00000000000E+00  0.19825171854E+02  0.19825172018E+02  0.25500000000E-02 0. -1.
          2   -1    0    0  501    0  0.00000000000E+00 -0.00000000000E+00 -0.25025646528E+04  0.25025646528E+04  0.25500000000E-02 0.  1.
    5000001    1    1    2    0    0 -0.99424112933E+02 -0.24606498745E+02 -0.15104939070E+04  0.15260886203E+04  0.19200000000E+03 0.  0.
   -5000001    1    1    2    0    0  0.99424112933E+02  0.24606498745E+02 -0.97224557400E+03  0.99630120454E+03  0.19200000000E+03 0.  0.
<mgrwt>
<rscale>  0 0.44548299E+03</rscale>
<asrwt>0</asrwt>
<pdfrwt beam="1">  1        2 0.35750903E+00 0.44548299E+03</pdfrwt>
<pdfrwt beam="2">  1       -2 0.28321690E-02 0.44548299E+03</pdfrwt>
<totfact> 0.22798535E+03</totfact>
</mgrwt>
</event>
<event>
 4    1  0.5863356E-005  0.7237821E+03  0.7818608E-02  0.9677404E-01
          2   -1    0    0  501    0  0.00000000000E+00  0.00000000000E+00  0.14814924882E+04  0.14814924882E+04  0.25500000000E-02 0.  1.
         -2   -1    0    0    0  501 -0.00000000000E+00 -0.00000000000E+00 -0.88400805569E+02  0.88400805606E+02  0.25500000000E-02 0. -1.
    5000001    1    1    2    0    0 -0.30609735270E+03 -0.73641781196E+01  0.65589150016E+03  0.74887080356E+03  0.19200000000E+03 0.  0.
   -5000001    1    1    2    0    0  0.30609735270E+03  0.73641781196E+01  0.73720018245E+03  0.82102249022E+03  0.19200000000E+03 0.  0.
<mgrwt>
<rscale>  0 0.72378209E+03</rscale>
<asrwt>0</asrwt>
<pdfrwt beam="1">  1        2 0.21164177E+00 0.72378209E+03</pdfrwt>
<pdfrwt beam="2">  1       -2 0.12628688E-01 0.72378209E+03</pdfrwt>
<totfact> 0.70659253E+02</totfact>
</mgrwt>
</event>
<event>
 4    1  0.5863356E-005  0.5262334E+03  0.7818608E-02  0.1007150E+00
         -2   -1    0    0    0  501 -0.00000000000E+00  0.00000000000E+00  0.34588878459E+02  0.34588878553E+02  0.25500000000E-02 0. -1.
          2   -1    0    0  501    0  0.00000000000E+00 -0.00000000000E+00 -0.20015218917E+04  0.20015218917E+04  0.25500000000E-02 0.  1.
    5000001    1    1    2    0    0  0.63032254225E+02 -0.10908550113E+03 -0.14803812162E+04  0.14980871994E+04  0.19200000000E+03 0.  0.
   -5000001    1    1    2    0    0 -0.63032254225E+02  0.10908550113E+03 -0.48655179707E+03  0.53802357091E+03  0.19200000000E+03 0.  0.
<mgrwt>
<rscale>  0 0.52623340E+03</rscale>
<asrwt>0</asrwt>
<pdfrwt beam="1">  1        2 0.28593163E+00 0.52623340E+03</pdfrwt>
<pdfrwt beam="2">  1       -2 0.49412696E-02 0.52623340E+03</pdfrwt>
<totfact> 0.17339109E+03</totfact>
</mgrwt>
</event>
<event>
 4    1  0.5863356E-005  0.5066808E+03  0.7818608E-02  0.1012050E+00
          2   -1    0    0  501    0  0.00000000000E+00  0.00000000000E+00  0.18078950148E+04  0.18078950148E+04  0.25500000000E-02 0.  1.
         -2   -1    0    0    0  501 -0.00000000000E+00 -0.00000000000E+00 -0.35500606977E+02  0.35500607069E+02  0.25500000000E-02 0. -1.
    5000001    1    1    2    0    0  0.14605567893E+03 -0.68193390629E+02  0.10191162995E+04  0.10494973234E+04  0.19200000000E+03 0.  0.
   -5000001    1    1    2    0    0 -0.14605567893E+03  0.68193390629E+02  0.75327810839E+03  0.79389829855E+03  0.19200000000E+03 0.  0.
<mgrwt>
<rscale>  0 0.50668085E+03</rscale>
<asrwt>0</asrwt>
<pdfrwt beam="1">  1        2 0.25827080E+00 0.50668085E+03</pdfrwt>
<pdfrwt beam="2">  1       -2 0.50715137E-02 0.50668085E+03</pdfrwt>
<totfact> 0.20834628E+03</totfact>
</mgrwt>
</event>
<event>
 4    1  0.5863356E-005  0.1014547E+04  0.7818608E-02  0.9292732E-01
         -2   -1    0    0    0  501 -0.00000000000E+00  0.00000000000E+00  0.19733972172E+03  0.19733972174E+03  0.25500000000E-02 0. -1.
          2   -1    0    0  501    0  0.00000000000E+00 -0.00000000000E+00 -0.13039770171E+04  0.13039770171E+04  0.25500000000E-02 0.  1.
    5000001    1    1    2    0    0  0.28440536692E+03 -0.36243222885E+03 -0.68747390813E+03  0.84954570660E+03  0.19200000000E+03 0.  0.
   -5000001    1    1    2    0    0 -0.28440536692E+03  0.36243222885E+03 -0.41916338722E+03  0.65177103221E+03  0.19200000000E+03 0.  0.
<mgrwt>
<rscale>  0 0.10145471E+04</rscale>
<asrwt>0</asrwt>
<pdfrwt beam="1">  1        2 0.18628243E+00 0.10145471E+04</pdfrwt>
<pdfrwt beam="2">  1       -2 0.28191389E-01 0.10145471E+04</pdfrwt>
<totfact> 0.21391197E+02</totfact>
</mgrwt>
</event>
<event>
 4    1  0.5863356E-005  0.5403221E+03  0.7818608E-02  0.1003759E+00
         -2   -1    0    0    0  501 -0.00000000000E+00  0.00000000000E+00  0.58593464247E+03  0.58593464247E+03  0.25500000000E-02 0. -1.
          2   -1    0    0  501    0  0.00000000000E+00 -0.00000000000E+00 -0.12456509498E+03  0.12456509501E+03  0.25500000000E-02 0.  1.
    5000001    1    1    2    0    0  0.29313739208E+02 -0.18300340662E+03  0.17530870361E+03  0.31929090764E+03  0.19200000000E+03 0.  0.
   -5000001    1    1    2    0    0 -0.29313739208E+02  0.18300340662E+03  0.28606084387E+03  0.39120882983E+03  0.19200000000E+03 0.  0.
<mgrwt>
<rscale>  0 0.54032214E+03</rscale>
<asrwt>0</asrwt>
<pdfrwt beam="1">  1        2 0.17795013E-01 0.54032214E+03</pdfrwt>
<pdfrwt beam="2">  1       -2 0.83704949E-01 0.54032214E+03</pdfrwt>
<totfact> 0.41124537E+02</totfact>
</mgrwt>
</event>
<event>
 4    1  0.5863356E-005  0.5852085E+03  0.7818608E-02  0.9936578E-01
         -2   -1    0    0    0  501 -0.00000000000E+00  0.00000000000E+00  0.11102881879E+04  0.11102881879E+04  0.25500000000E-02 0. -1.
          2   -1    0    0  501    0  0.00000000000E+00 -0.00000000000E+00 -0.77112629550E+02  0.77112629592E+02  0.25500000000E-02 0.  1.
    5000001    1    1    2    0    0 -0.16276780875E+03 -0.14293925073E+03  0.60334484470E+03  0.66918905444E+03  0.19200000000E+03 0.  0.
   -5000001    1    1    2    0    0  0.16276780875E+03  0.14293925073E+03  0.42983071364E+03  0.51821176304E+03  0.19200000000E+03 0.  0.
<mgrwt>
<rscale>  0 0.58520848E+03</rscale>
<asrwt>0</asrwt>
<pdfrwt beam="1">  1        2 0.11016090E-01 0.58520848E+03</pdfrwt>
<pdfrwt beam="2">  1       -2 0.15861260E+00 0.58520848E+03</pdfrwt>
<totfact> 0.15435421E+02</totfact>
</mgrwt>
</event>
<event>
 4    1  0.5863356E-005  0.7025277E+03  0.7818608E-02  0.9712919E-01
          2   -1    0    0  501    0  0.00000000000E+00  0.00000000000E+00  0.19082297296E+04  0.19082297296E+04  0.25500000000E-02 0.  1.
         -2   -1    0    0    0  501 -0.00000000000E+00 -0.00000000000E+00 -0.64660086078E+02  0.64660086128E+02  0.25500000000E-02 0. -1.
    5000001    1    1    2    0    0  0.18460594533E+03 -0.17299267923E+03  0.50038962353E+03  0.59267157638E+03  0.19200000000E+03 0.  0.
   -5000001    1    1    2    0    0 -0.18460594533E+03  0.17299267923E+03  0.13431800200E+04  0.13802182394E+04  0.19200000000E+03 0.  0.
<mgrwt>
<rscale>  0 0.70252772E+03</rscale>
<asrwt>0</asrwt>
<pdfrwt beam="1">  1        2 0.27260426E+00 0.70252772E+03</pdfrwt>
<pdfrwt beam="2">  1       -2 0.92371549E-02 0.70252772E+03</pdfrwt>
<totfact> 0.71284220E+02</totfact>
</mgrwt>
</event>
<event>
 4    1  0.5863356E-005  0.5085785E+03  0.7818608E-02  0.1011564E+00
         -2   -1    0    0    0  501 -0.00000000000E+00  0.00000000000E+00  0.47238206912E+02  0.47238206981E+02  0.25500000000E-02 0. -1.
          2   -1    0    0  501    0  0.00000000000E+00 -0.00000000000E+00 -0.13688713775E+04  0.13688713775E+04  0.25500000000E-02 0.  1.
    5000001    1    1    2    0    0 -0.11120442084E+03 -0.41502409411E+02 -0.98684844747E+03  0.10123352861E+04  0.19200000000E+03 0.  0.
   -5000001    1    1    2    0    0  0.11120442084E+03  0.41502409411E+02 -0.33478472308E+03  0.40377429835E+03  0.19200000000E+03 0.  0.
<mgrwt>
<rscale>  0 0.50857853E+03</rscale>
<asrwt>0</asrwt>
<pdfrwt beam="1">  1        2 0.19555303E+00 0.50857853E+03</pdfrwt>
<pdfrwt beam="2">  1       -2 0.67483161E-02 0.50857853E+03</pdfrwt>
<totfact> 0.22426989E+03</totfact>
</mgrwt>
</event>
<event>
 4    1  0.5863356E-005  0.5004674E+03  0.7818608E-02  0.1013657E+00
         -2   -1    0    0    0  501 -0.00000000000E+00  0.00000000000E+00  0.28720602356E+02  0.28720602470E+02  0.25500000000E-02 0.  1.
          2   -1    0    0  501    0  0.00000000000E+00 -0.00000000000E+00 -0.21802084760E+04  0.21802084760E+04  0.25500000000E-02 0. -1.
    5000001    1    1    2    0    0 -0.11986289358E+02  0.15786718515E+03 -0.96004170551E+03  0.99177103991E+03  0.19200000000E+03 0.  0.
   -5000001    1    1    2    0    0  0.11986289358E+02 -0.15786718515E+03 -0.11914461681E+04  0.12171580386E+04  0.19200000000E+03 0.  0.
<mgrwt>
<rscale>  0 0.50046738E+03</rscale>
<asrwt>0</asrwt>
<pdfrwt beam="1">  1        2 0.31145825E+00 0.50046738E+03</pdfrwt>
<pdfrwt beam="2">  1       -2 0.41029446E-02 0.50046738E+03</pdfrwt>
<totfact> 0.18813913E+03</totfact>
</mgrwt>
</event>
<event>
 4    1  0.5863356E-005  0.5117626E+03  0.7818608E-02  0.1010754E+00
         -2   -1    0    0    0  501 -0.00000000000E+00  0.00000000000E+00  0.47462514570E+03  0.47462514571E+03  0.25500000000E-02 0. -1.
          2   -1    0    0  501    0  0.00000000000E+00 -0.00000000000E+00 -0.13795145527E+03  0.13795145530E+03  0.25500000000E-02 0.  1.
    5000001    1    1    2    0    0 -0.41304019850E+02  0.12164022104E+03  0.36619309671E+02  0.23389600097E+03  0.19200000000E+03 0.  0.
   -5000001    1    1    2    0    0  0.41304019850E+02 -0.12164022104E+03  0.30005438075E+03  0.37868060003E+03  0.19200000000E+03 0.  0.
<mgrwt>
<rscale>  0 0.51176256E+03</rscale>
<asrwt>0</asrwt>
<pdfrwt beam="1">  1        2 0.19707351E-01 0.51176256E+03</pdfrwt>
<pdfrwt beam="2">  1       -2 0.67803593E-01 0.51176256E+03</pdfrwt>
<totfact> 0.58044726E+02</totfact>
</mgrwt>
</event>
<event>
 4    1  0.5863356E-005  0.7352834E+03  0.7818608E-02  0.9658725E-01
          2   -1    0    0  501    0  0.00000000000E+00  0.00000000000E+00  0.29160704633E+04  0.29160704633E+04  0.25500000000E-02 0.  1.
         -2   -1    0    0    0  501 -0.00000000000E+00 -0.00000000000E+00 -0.46350189701E+02  0.46350189771E+02  0.25500000000E-02 0. -1.
    5000001    1    1    2    0    0  0.26647868943E+03  0.16069722577E+03  0.12808124782E+04  0.13319831435E+04  0.19200000000E+03 0.  0.
   -5000001    1    1    2    0    0 -0.26647868943E+03 -0.16069722577E+03  0.15889077954E+04  0.16304375095E+04  0.19200000000E+03 0.  0.
<mgrwt>
<rscale>  0 0.73528340E+03</rscale>
<asrwt>0</asrwt>
<pdfrwt beam="1">  1        2 0.41658161E+00 0.73528340E+03</pdfrwt>
<pdfrwt beam="2">  1       -2 0.66214539E-02 0.73528340E+03</pdfrwt>
<totfact> 0.36542599E+02</totfact>
</mgrwt>
</event>
<event>
 4    1  0.5863356E-005  0.9416057E+03  0.7818608E-02  0.9375016E-01
         -2   -1    0    0    0  501 -0.00000000000E+00  0.00000000000E+00  0.30607211658E+03  0.30607211659E+03  0.25500000000E-02 0. -1.
          2   -1    0    0  501    0  0.00000000000E+00 -0.00000000000E+00 -0.72419307620E+03  0.72419307620E+03  0.25500000000E-02 0.  1.
    5000001    1    1    2    0    0 -0.30105577392E+03  0.29589294144E+03 -0.12014310167E+03  0.47904652872E+03  0.19200000000E+03 0.  0.
   -5000001    1    1    2    0    0  0.30105577392E+03 -0.29589294144E+03 -0.29797785794E+03  0.55121866407E+03  0.19200000000E+03 0.  0.
<mgrwt>
<rscale>  0 0.94160567E+03</rscale>
<asrwt>0</asrwt>
<pdfrwt beam="1">  1        2 0.10345615E+00 0.94160567E+03</pdfrwt>
<pdfrwt beam="2">  1       -2 0.43724588E-01 0.94160567E+03</pdfrwt>
<totfact> 0.21402970E+02</totfact>
</mgrwt>
</event>
<event>
 4    1  0.5863356E-005  0.5565045E+03  0.7818608E-02  0.9999995E-01
          2   -1    0    0  501    0  0.00000000000E+00  0.00000000000E+00  0.18350173532E+04  0.18350173532E+04  0.25500000000E-02 0.  1.
         -2   -1    0    0    0  501 -0.00000000000E+00 -0.00000000000E+00 -0.42192692400E+02  0.42192692477E+02  0.25500000000E-02 0. -1.
    5000001    1    1    2    0    0 -0.11102661179E+03 -0.41519057504E+02  0.14456313991E+04  0.14631352920E+04  0.19200000000E+03 0.  0.
   -5000001    1    1    2    0    0  0.11102661179E+03  0.41519057504E+02  0.34719326175E+03  0.41407475372E+03  0.19200000000E+03 0.  0.
<mgrwt>
<rscale>  0 0.55650453E+03</rscale>
<asrwt>0</asrwt>
<pdfrwt beam="1">  1        2 0.26214534E+00 0.55650453E+03</pdfrwt>
<pdfrwt beam="2">  1       -2 0.60275274E-02 0.55650453E+03</pdfrwt>
<totfact> 0.15406586E+03</totfact>
</mgrwt>
</event>
<event>
 4    1  0.5863356E-005  0.6442049E+03  0.7818608E-02  0.9817714E-01
         -2   -1    0    0    0  501 -0.00000000000E+00  0.00000000000E+00  0.63491670555E+02  0.63491670607E+02  0.25500000000E-02 0.  1.
          2   -1    0    0  501    0  0.00000000000E+00 -0.00000000000E+00 -0.16340726500E+04  0.16340726500E+04  0.25500000000E-02 0. -1.
    5000001    1    1    2    0    0  0.13964614503E+03  0.21457286358E+03 -0.68870502489E+03  0.75942160288E+03  0.19200000000E+03 0.  0.
   -5000001    1    1    2    0    0 -0.13964614503E+03 -0.21457286358E+03 -0.88187595456E+03  0.93814271773E+03  0.19200000000E+03 0.  0.
<mgrwt>
<rscale>  0 0.64420494E+03</rscale>
<asrwt>0</asrwt>
<pdfrwt beam="1">  1        2 0.23343892E+00 0.64420494E+03</pdfrwt>
<pdfrwt beam="2">  1       -2 0.90702397E-02 0.64420494E+03</pdfrwt>
<totfact> 0.10150247E+03</totfact>
</mgrwt>
</event>
<event>
 4    1  0.5863356E-005  0.6918394E+03  0.7818608E-02  0.9731291E-01
          2   -1    0    0  501    0  0.00000000000E+00  0.00000000000E+00  0.10022659052E+04  0.10022659052E+04  0.25500000000E-02 0.  1.
         -2   -1    0    0    0  501 -0.00000000000E+00 -0.00000000000E+00 -0.11938991266E+03  0.11938991269E+03  0.25500000000E-02 0. -1.
    5000001    1    1    2    0    0  0.15089015196E+03 -0.22849235270E+03  0.29806960443E+03  0.44798000210E+03  0.19200000000E+03 0.  0.
   -5000001    1    1    2    0    0 -0.15089015196E+03  0.22849235270E+03  0.58480638809E+03  0.67367581577E+03  0.19200000000E+03 0.  0.
<mgrwt>
<rscale>  0 0.69183940E+03</rscale>
<asrwt>0</asrwt>
<pdfrwt beam="1">  1        2 0.14318084E+00 0.69183940E+03</pdfrwt>
<pdfrwt beam="2">  1       -2 0.17055703E-01 0.69183940E+03</pdfrwt>
<totfact> 0.79123328E+02</totfact>
</mgrwt>
</event>
<event>
 4    1  0.5863356E-005  0.5769112E+03  0.7818608E-02  0.9954501E-01
          2   -1    0    0  501    0  0.00000000000E+00  0.00000000000E+00  0.14736391808E+04  0.14736391808E+04  0.25500000000E-02 0.  1.
         -2   -1    0    0    0  501 -0.00000000000E+00 -0.00000000000E+00 -0.56463371244E+02  0.56463371302E+02  0.25500000000E-02 0. -1.
    5000001    1    1    2    0    0  0.35232352664E+01  0.19896901423E+03  0.49082114844E+03  0.56335644273E+03  0.19200000000E+03 0.  0.
   -5000001    1    1    2    0    0 -0.35232352664E+01 -0.19896901423E+03  0.92635466111E+03  0.96674610936E+03  0.19200000000E+03 0.  0.
<mgrwt>
<rscale>  0 0.57691121E+03</rscale>
<asrwt>0</asrwt>
<pdfrwt beam="1">  1        2 0.21051988E+00 0.57691121E+03</pdfrwt>
<pdfrwt beam="2">  1       -2 0.80661962E-02 0.57691121E+03</pdfrwt>
<totfact> 0.14868640E+03</totfact>
</mgrwt>
</event>
<event>
 4    1  0.5863356E-005  0.6309678E+03  0.7818608E-02  0.9843162E-01
         -2   -1    0    0    0  501 -0.00000000000E+00  0.00000000000E+00  0.97396588349E+02  0.97396588382E+02  0.25500000000E-02 0. -1.
          2   -1    0    0  501    0  0.00000000000E+00 -0.00000000000E+00 -0.10219052699E+04  0.10219052699E+04  0.25500000000E-02 0.  1.
    5000001    1    1    2    0    0  0.23462125896E+03  0.64307367097E+02 -0.35755382131E+03  0.47317154157E+03  0.19200000000E+03 0.  0.
   -5000001    1    1    2    0    0 -0.23462125896E+03 -0.64307367097E+02 -0.56695486022E+03  0.64613031669E+03  0.19200000000E+03 0.  0.
<mgrwt>
<rscale>  0 0.63096779E+03</rscale>
<asrwt>0</asrwt>
<pdfrwt beam="1">  1        2 0.14598646E+00 0.63096779E+03</pdfrwt>
<pdfrwt beam="2">  1       -2 0.13913799E-01 0.63096779E+03</pdfrwt>
<totfact> 0.10882069E+03</totfact>
</mgrwt>
</event>
<event>
 4    1  0.5863356E-005  0.5304110E+03  0.7818608E-02  0.1006132E+00
          2   -1    0    0  501    0  0.00000000000E+00  0.00000000000E+00  0.15647800989E+04  0.15647800989E+04  0.25500000000E-02 0.  1.
         -2   -1    0    0    0  501 -0.00000000000E+00 -0.00000000000E+00 -0.44948147633E+02  0.44948147705E+02  0.25500000000E-02 0. -1.
    5000001    1    1    2    0    0  0.93509169994E+02  0.62125439739E+02  0.11983094774E+04  0.12187752618E+04  0.19200000000E+03 0.  0.
   -5000001    1    1    2    0    0 -0.93509169994E+02 -0.62125439739E+02  0.32152247389E+03  0.39095298484E+03  0.19200000000E+03 0.  0.
<mgrwt>
<rscale>  0 0.53041104E+03</rscale>
<asrwt>0</asrwt>
<pdfrwt beam="1">  1        2 0.22354003E+00 0.53041104E+03</pdfrwt>
<pdfrwt beam="2">  1       -2 0.64211636E-02 0.53041104E+03</pdfrwt>
<totfact> 0.19151067E+03</totfact>
</mgrwt>
</event>
<event>
 4    1  0.5863356E-005  0.5215571E+03  0.7818608E-02  0.1008300E+00
          2   -1    0    0  501    0  0.00000000000E+00  0.00000000000E+00  0.38052701866E+02  0.38052701952E+02  0.25500000000E-02 0.  1.
         -2   -1    0    0    0  501 -0.00000000000E+00 -0.00000000000E+00 -0.17871389309E+04  0.17871389309E+04  0.25500000000E-02 0. -1.
    5000001    1    1    2    0    0  0.12108171838E+02 -0.92646214028E+02 -0.35065037529E+03  0.41054794421E+03  0.19200000000E+03 0.  0.
   -5000001    1    1    2    0    0 -0.12108171838E+02  0.92646214028E+02 -0.13984358537E+04  0.14146436886E+04  0.19200000000E+03 0.  0.
<mgrwt>
<rscale>  0 0.52155715E+03</rscale>
<asrwt>0</asrwt>
<pdfrwt beam="1">  1        2 0.54361014E-02 0.52155715E+03</pdfrwt>
<pdfrwt beam="2">  1       -2 0.25530551E+00 0.52155715E+03</pdfrwt>
<totfact> 0.92147563E+01</totfact>
</mgrwt>
</event>
<event>
 4    1  0.5863356E-005  0.8790294E+03  0.7818608E-02  0.9452182E-01
         -2   -1    0    0    0  501 -0.00000000000E+00  0.00000000000E+00  0.42678317267E+03  0.42678317268E+03  0.25500000000E-02 0. -1.
          2   -1    0    0  501    0  0.00000000000E+00 -0.00000000000E+00 -0.45262598477E+03  0.45262598477E+03  0.25500000000E-02 0.  1.
    5000001    1    1    2    0    0 -0.39387327221E+03  0.27974036231E+02  0.68470038971E+01  0.43912365311E+03  0.19200000000E+03 0.  0.
   -5000001    1    1    2    0    0  0.39387327221E+03 -0.27974036231E+02 -0.32689815990E+02  0.44028550434E+03  0.19200000000E+03 0.  0.
<mgrwt>
<rscale>  0 0.87902936E+03</rscale>
<asrwt>0</asrwt>
<pdfrwt beam="1">  1        2 0.64660856E-01 0.87902936E+03</pdfrwt>
<pdfrwt beam="2">  1       -2 0.60969024E-01 0.87902936E+03</pdfrwt>
<totfact> 0.18916009E+02</totfact>
</mgrwt>
</event>
<event>
 4    1  0.5863356E-005  0.1213097E+04  0.7818608E-02  0.9101469E-01
          2   -1    0    0  501    0  0.00000000000E+00  0.00000000000E+00  0.16902518253E+04  0.16902518253E+04  0.25500000000E-02 0.  1.
         -2   -1    0    0    0  501 -0.00000000000E+00 -0.00000000000E+00 -0.21766047899E+03  0.21766047901E+03  0.25500000000E-02 0. -1.
    5000001    1    1    2    0    0 -0.42384018758E+03  0.38384821548E+03  0.83647287291E+03  0.10312763084E+04  0.19200000000E+03 0.  0.
   -5000001    1    1    2    0    0  0.42384018758E+03 -0.38384821548E+03  0.63611847339E+03  0.87663599591E+03  0.19200000000E+03 0.  0.
<mgrwt>
<rscale>  0 0.12130969E+04</rscale>
<asrwt>0</asrwt>
<pdfrwt beam="1">  1        2 0.24146454E+00 0.12130969E+04</pdfrwt>
<pdfrwt beam="2">  1       -2 0.31094355E-01 0.12130969E+04</pdfrwt>
<totfact> 0.10964648E+02</totfact>
</mgrwt>
</event>
<event>
 4    1  0.5863356E-005  0.4716924E+03  0.7818608E-02  0.1021444E+00
         -2   -1    0    0    0  501 -0.00000000000E+00  0.00000000000E+00  0.36120967562E+02  0.36120967652E+02  0.25500000000E-02 0. -1.
          2   -1    0    0  501    0  0.00000000000E+00 -0.00000000000E+00 -0.15399209289E+04  0.15399209289E+04  0.25500000000E-02 0.  1.
    5000001    1    1    2    0    0 -0.12989080606E+03  0.39139220336E+02 -0.68886326813E+03  0.72787368564E+03  0.19200000000E+03 0.  0.
   -5000001    1    1    2    0    0  0.12989080606E+03 -0.39139220336E+02 -0.81493669316E+03  0.84816821087E+03  0.19200000000E+03 0.  0.
<mgrwt>
<rscale>  0 0.47169242E+03</rscale>
<asrwt>0</asrwt>
<pdfrwt beam="1">  1        2 0.21998866E+00 0.47169242E+03</pdfrwt>
<pdfrwt beam="2">  1       -2 0.51601392E-02 0.47169242E+03</pdfrwt>
<totfact> 0.27750742E+03</totfact>
</mgrwt>
</event>
<event>
 4    1  0.5863356E-005  0.9132851E+03  0.7818608E-02  0.9409125E-01
          2   -1    0    0  501    0  0.00000000000E+00  0.00000000000E+00  0.12994208387E+04  0.12994208387E+04  0.25500000000E-02 0. -1.
         -2   -1    0    0    0  501 -0.00000000000E+00 -0.00000000000E+00 -0.16047334700E+03  0.16047334702E+03  0.25500000000E-02 0.  1.
    5000001    1    1    2    0    0 -0.93843462811E+02  0.39971650274E+03  0.65816625195E+03  0.79914122237E+03  0.19200000000E+03 0.  0.
   -5000001    1    1    2    0    0  0.93843462811E+02 -0.39971650274E+03  0.48078123970E+03  0.66075296331E+03  0.19200000000E+03 0.  0.
<mgrwt>
<rscale>  0 0.91328508E+03</rscale>
<asrwt>0</asrwt>
<pdfrwt beam="1">  1        2 0.18563155E+00 0.91328508E+03</pdfrwt>
<pdfrwt beam="2">  1       -2 0.22924763E-01 0.91328508E+03</pdfrwt>
<totfact> 0.31476803E+02</totfact>
</mgrwt>
</event>
<event>
 4    1  0.5863356E-005  0.8881295E+03  0.7818608E-02  0.9440543E-01
          2   -1    0    0  501    0  0.00000000000E+00  0.00000000000E+00  0.84107727234E+03  0.84107727234E+03  0.25500000000E-02 0.  1.
         -2   -1    0    0    0  501 -0.00000000000E+00 -0.00000000000E+00 -0.23445348600E+03  0.23445348601E+03  0.25500000000E-02 0. -1.
    5000001    1    1    2    0    0  0.60282763449E+02  0.37962932470E+03  0.16750051467E+03  0.46116467575E+03  0.19200000000E+03 0.  0.
   -5000001    1    1    2    0    0 -0.60282763449E+02 -0.37962932470E+03  0.43912327166E+03  0.61436608261E+03  0.19200000000E+03 0.  0.
<mgrwt>
<rscale>  0 0.88812949E+03</rscale>
<asrwt>0</asrwt>
<pdfrwt beam="1">  1        2 0.12015390E+00 0.88812949E+03</pdfrwt>
<pdfrwt beam="2">  1       -2 0.33493354E-01 0.88812949E+03</pdfrwt>
<totfact> 0.29681639E+02</totfact>
</mgrwt>
</event>
<event>
 4    1  0.5863356E-005  0.5456786E+03  0.7818608E-02  0.1002499E+00
          2   -1    0    0  501    0  0.00000000000E+00  0.00000000000E+00  0.20329331767E+03  0.20329331769E+03  0.25500000000E-02 0.  1.
         -2   -1    0    0    0  501 -0.00000000000E+00 -0.00000000000E+00 -0.36617667120E+03  0.36617667121E+03  0.25500000000E-02 0. -1.
    5000001    1    1    2    0    0 -0.19103260030E+03  0.18733132527E+02 -0.10969386475E+03  0.29281586124E+03  0.19200000000E+03 0.  0.
   -5000001    1    1    2    0    0  0.19103260030E+03 -0.18733132527E+02 -0.53189488775E+02  0.27665412765E+03  0.19200000000E+03 0.  0.
<mgrwt>
<rscale>  0 0.54567855E+03</rscale>
<asrwt>0</asrwt>
<pdfrwt beam="1">  1        2 0.29041903E-01 0.54567855E+03</pdfrwt>
<pdfrwt beam="2">  1       -2 0.52310952E-01 0.54567855E+03</pdfrwt>
<totfact> 0.64097648E+02</totfact>
</mgrwt>
</event>
<event>
 4    1  0.5863356E-005  0.7545695E+03  0.7818608E-02  0.9628209E-01
          2   -1    0    0  501    0  0.00000000000E+00  0.00000000000E+00  0.47283030983E+03  0.47283030983E+03  0.25500000000E-02 0.  1.
         -2   -1    0    0    0  501 -0.00000000000E+00 -0.00000000000E+00 -0.30104625339E+03  0.30104625340E+03  0.25500000000E-02 0. -1.
    5000001    1    1    2    0    0  0.35220988012E+02 -0.20458129423E+03 -0.17027026274E+03  0.33007572816E+03  0.19200000000E+03 0.  0.
   -5000001    1    1    2    0    0 -0.35220988012E+02  0.20458129423E+03  0.34205431917E+03  0.44380083508E+03  0.19200000000E+03 0.  0.
<mgrwt>
<rscale>  0 0.75456953E+03</rscale>
<asrwt>0</asrwt>
<pdfrwt beam="1">  1        2 0.67547187E-01 0.75456953E+03</pdfrwt>
<pdfrwt beam="2">  1       -2 0.43006607E-01 0.75456953E+03</pdfrwt>
<totfact> 0.36926899E+02</totfact>
</mgrwt>
</event>
<event>
 4    1  0.5863356E-005  0.6258183E+03  0.7818608E-02  0.9853243E-01
          2   -1    0    0  501    0  0.00000000000E+00  0.00000000000E+00  0.13976937607E+04  0.13976937607E+04  0.25500000000E-02 0.  1.
         -2   -1    0    0    0  501 -0.00000000000E+00 -0.00000000000E+00 -0.70052646870E+02  0.70052646916E+02  0.25500000000E-02 0. -1.
    5000001    1    1    2    0    0 -0.11076416986E+03 -0.10479334736E+03  0.20785083303E+03  0.32142855468E+03  0.19200000000E+03 0.  0.
   -5000001    1    1    2    0    0  0.11076416986E+03  0.10479334736E+03  0.11197902808E+04  0.11463178529E+04  0.19200000000E+03 0.  0.
<mgrwt>
<rscale>  0 0.62581834E+03</rscale>
<asrwt>0</asrwt>
<pdfrwt beam="1">  1        2 0.19967054E+00 0.62581834E+03</pdfrwt>
<pdfrwt beam="2">  1       -2 0.10007521E-01 0.62581834E+03</pdfrwt>
<totfact> 0.11509010E+03</totfact>
</mgrwt>
</event>
<event>
 4    1  0.5863356E-005  0.7763184E+03  0.7818608E-02  0.9594942E-01
         -2   -1    0    0    0  501 -0.00000000000E+00  0.00000000000E+00  0.51232422329E+02  0.51232422392E+02  0.25500000000E-02 0. -1.
          2   -1    0    0  501    0  0.00000000000E+00 -0.00000000000E+00 -0.29408634117E+04  0.29408634117E+04  0.25500000000E-02 0.  1.
    5000001    1    1    2    0    0 -0.21919508848E+03  0.16897287052E+03 -0.21882413799E+04  0.22140150529E+04  0.19200000000E+03 0.  0.
   -5000001    1    1    2    0    0  0.21919508848E+03 -0.16897287052E+03 -0.70138960951E+03  0.77808078123E+03  0.19200000000E+03 0.  0.
<mgrwt>
<rscale>  0 0.77631838E+03</rscale>
<asrwt>0</asrwt>
<pdfrwt beam="1">  1        2 0.42012324E+00 0.77631838E+03</pdfrwt>
<pdfrwt beam="2">  1       -2 0.73189193E-02 0.77631838E+03</pdfrwt>
<totfact> 0.30108470E+02</totfact>
</mgrwt>
</event>
<event>
 4    1  0.5863356E-005  0.6448086E+03  0.7818608E-02  0.9816569E-01
         -2   -1    0    0    0  501 -0.00000000000E+00  0.00000000000E+00  0.56432386735E+02  0.56432386793E+02  0.25500000000E-02 0. -1.
          2   -1    0    0  501    0  0.00000000000E+00 -0.00000000000E+00 -0.18419305888E+04  0.18419305888E+04  0.25500000000E-02 0.  1.
    5000001    1    1    2    0    0 -0.37381406546E+02 -0.24231477457E+03 -0.64701660423E+03  0.71805870629E+03  0.19200000000E+03 0.  0.
   -5000001    1    1    2    0    0  0.37381406546E+02  0.24231477457E+03 -0.11384815979E+04  0.11803042693E+04  0.19200000000E+03 0.  0.
<mgrwt>
<rscale>  0 0.64480862E+03</rscale>
<asrwt>0</asrwt>
<pdfrwt beam="1">  1        2 0.26313290E+00 0.64480862E+03</pdfrwt>
<pdfrwt beam="2">  1       -2 0.80617707E-02 0.64480862E+03</pdfrwt>
<totfact> 0.96124199E+02</totfact>
</mgrwt>
</event>
<event>
 4    1  0.5863356E-005  0.5995426E+03  0.7818608E-02  0.9906356E-01
         -2   -1    0    0    0  501 -0.00000000000E+00  0.00000000000E+00  0.26091895247E+03  0.26091895249E+03  0.25500000000E-02 0. -1.
          2   -1    0    0  501    0  0.00000000000E+00 -0.00000000000E+00 -0.34440894087E+03  0.34440894088E+03  0.25500000000E-02 0.  1.
    5000001    1    1    2    0    0 -0.11569792448E+03  0.14576040356E+03 -0.17857659691E+03  0.32153647684E+03  0.19200000000E+03 0.  0.
   -5000001    1    1    2    0    0  0.11569792448E+03 -0.14576040356E+03  0.95086608517E+02  0.28379141653E+03  0.19200000000E+03 0.  0.
<mgrwt>
<rscale>  0 0.59954256E+03</rscale>
<asrwt>0</asrwt>
<pdfrwt beam="1">  1        2 0.49201277E-01 0.59954256E+03</pdfrwt>
<pdfrwt beam="2">  1       -2 0.37274136E-01 0.59954256E+03</pdfrwt>
<totfact> 0.69753614E+02</totfact>
</mgrwt>
</event>
<event>
 4    1  0.5863356E-005  0.5273578E+03  0.7818608E-02  0.1006875E+00
         -2   -1    0    0    0  501 -0.00000000000E+00  0.00000000000E+00  0.95979638977E+02  0.95979639011E+02  0.25500000000E-02 0. -1.
          2   -1    0    0  501    0  0.00000000000E+00 -0.00000000000E+00 -0.72438859265E+03  0.72438859265E+03  0.25500000000E-02 0.  1.
    5000001    1    1    2    0    0  0.11248424891E+03  0.13865650658E+03 -0.27064093885E+03  0.37681407995E+03  0.19200000000E+03 0.  0.
   -5000001    1    1    2    0    0 -0.11248424891E+03 -0.13865650658E+03 -0.35776801482E+03  0.44355415171E+03  0.19200000000E+03 0.  0.
<mgrwt>
<rscale>  0 0.52735777E+03</rscale>
<asrwt>0</asrwt>
<pdfrwt beam="1">  1        2 0.10348408E+00 0.52735777E+03</pdfrwt>
<pdfrwt beam="2">  1       -2 0.13711377E-01 0.52735777E+03</pdfrwt>
<totfact> 0.17564824E+03</totfact>
</mgrwt>
</event>
<event>
 4    1  0.5863356E-005  0.5471704E+03  0.7818608E-02  0.1002151E+00
         -2   -1    0    0    0  501 -0.00000000000E+00  0.00000000000E+00  0.75262767447E+02  0.75262767490E+02  0.25500000000E-02 0. -1.
          2   -1    0    0  501    0  0.00000000000E+00 -0.00000000000E+00 -0.99450045806E+03  0.99450045807E+03  0.25500000000E-02 0.  1.
    5000001    1    1    2    0    0  0.12429142905E+03 -0.13016503385E+03 -0.31339800136E+03  0.40923538780E+03  0.19200000000E+03 0.  0.
   -5000001    1    1    2    0    0 -0.12429142905E+03  0.13016503385E+03 -0.60583968926E+03  0.66052783776E+03  0.19200000000E+03 0.  0.
<mgrwt>
<rscale>  0 0.54717038E+03</rscale>
<asrwt>0</asrwt>
<pdfrwt beam="1">  1        2 0.14207149E+00 0.54717038E+03</pdfrwt>
<pdfrwt beam="2">  1       -2 0.10751825E-01 0.54717038E+03</pdfrwt>
<totfact> 0.17323479E+03</totfact>
</mgrwt>
</event>
<event>
 4    1  0.5863356E-005  0.4899796E+03  0.7818608E-02  0.1016428E+00
          2   -1    0    0  501    0  0.00000000000E+00  0.00000000000E+00  0.14073420264E+04  0.14073420264E+04  0.25500000000E-02 0.  1.
         -2   -1    0    0    0  501 -0.00000000000E+00 -0.00000000000E+00 -0.42647769102E+02  0.42647769178E+02  0.25500000000E-02 0. -1.
    5000001    1    1    2    0    0 -0.98975610185E+02  0.11086145416E+03  0.77912820216E+03  0.81608283209E+03  0.19200000000E+03 0.  0.
   -5000001    1    1    2    0    0  0.98975610185E+02 -0.11086145416E+03  0.58556605513E+03  0.63390696348E+03  0.19200000000E+03 0.  0.
<mgrwt>
<rscale>  0 0.48997958E+03</rscale>
<asrwt>0</asrwt>
<pdfrwt beam="1">  1        2 0.20104889E+00 0.48997958E+03</pdfrwt>
<pdfrwt beam="2">  1       -2 0.60925376E-02 0.48997958E+03</pdfrwt>
<totfact> 0.25122104E+03</totfact>
</mgrwt>
</event>
<event>
 4    1  0.5863356E-005  0.6112581E+03  0.7818608E-02  0.9882321E-01
         -2   -1    0    0    0  501 -0.00000000000E+00  0.00000000000E+00  0.11029693037E+03  0.11029693040E+03  0.25500000000E-02 0. -1.
          2   -1    0    0  501    0  0.00000000000E+00 -0.00000000000E+00 -0.84688767073E+03  0.84688767073E+03  0.25500000000E-02 0.  1.
    5000001    1    1    2    0    0 -0.13391737856E+03  0.18584757137E+03 -0.26837108522E+03  0.40169668090E+03  0.19200000000E+03 0.  0.
   -5000001    1    1    2    0    0  0.13391737856E+03 -0.18584757137E+03 -0.46821965514E+03  0.55548792023E+03  0.19200000000E+03 0.  0.
<mgrwt>
<rscale>  0 0.61125808E+03</rscale>
<asrwt>0</asrwt>
<pdfrwt beam="1">  1        2 0.12098395E+00 0.61125808E+03</pdfrwt>
<pdfrwt beam="2">  1       -2 0.15756705E-01 0.61125808E+03</pdfrwt>
<totfact> 0.11402508E+03</totfact>
</mgrwt>
</event>
<event>
 4    1  0.5863356E-005  0.7607422E+03  0.7818608E-02  0.9618647E-01
         -2   -1    0    0    0  501 -0.00000000000E+00  0.00000000000E+00  0.50072111481E+03  0.50072111482E+03  0.25500000000E-02 0. -1.
          2   -1    0    0  501    0  0.00000000000E+00 -0.00000000000E+00 -0.28894758428E+03  0.28894758429E+03  0.25500000000E-02 0.  1.
    5000001    1    1    2    0    0 -0.14583515612E+03 -0.28838891133E+03  0.16625391031E+03  0.41102362418E+03  0.19200000000E+03 0.  0.
   -5000001    1    1    2    0    0  0.14583515612E+03  0.28838891133E+03  0.45519620220E+02  0.37864507492E+03  0.19200000000E+03 0.  0.
<mgrwt>
<rscale>  0 0.76074215E+03</rscale>
<asrwt>0</asrwt>
<pdfrwt beam="1">  1        2 0.41278226E-01 0.76074215E+03</pdfrwt>
<pdfrwt beam="2">  1       -2 0.71531588E-01 0.76074215E+03</pdfrwt>
<totfact> 0.22228355E+02</totfact>
</mgrwt>
</event>
<event>
 4    1  0.5863356E-005  0.4093534E+03  0.7818608E-02  0.1040588E+00
         -2   -1    0    0    0  501 -0.00000000000E+00  0.00000000000E+00  0.99325047210E+01  0.99325050483E+01  0.25500000000E-02 0. -1.
          2   -1    0    0  501    0  0.00000000000E+00 -0.00000000000E+00 -0.42177234494E+04  0.42177234494E+04  0.25500000000E-02 0.  1.
    5000001    1    1    2    0    0  0.25879080737E+02 -0.65229799167E+02 -0.19986217599E+04  0.20090489274E+04  0.19200000000E+03 0.  0.
   -5000001    1    1    2    0    0 -0.25879080737E+02  0.65229799167E+02 -0.22091691848E+04  0.22186070271E+04  0.19200000000E+03 0.  0.
<mgrwt>
<rscale>  0 0.40935344E+03</rscale>
<asrwt>0</asrwt>
<pdfrwt beam="1">  1        2 0.60253077E+00 0.40935344E+03</pdfrwt>
<pdfrwt beam="2">  1       -2 0.14189320E-02 0.40935344E+03</pdfrwt>
<totfact> 0.64272354E+02</totfact>
</mgrwt>
</event>
<event>
 4    1  0.5863356E-005  0.5824147E+03  0.7818608E-02  0.9942577E-01
         -2   -1    0    0    0  501 -0.00000000000E+00  0.00000000000E+00  0.56724527521E+03  0.56724527521E+03  0.25500000000E-02 0. -1.
          2   -1    0    0  501    0  0.00000000000E+00 -0.00000000000E+00 -0.14949744943E+03  0.14949744946E+03  0.25500000000E-02 0.  1.
    5000001    1    1    2    0    0  0.20961945249E+03 -0.62193996251E+02  0.22286828582E+03  0.36652787187E+03  0.19200000000E+03 0.  0.
   -5000001    1    1    2    0    0 -0.20961945249E+03  0.62193996251E+02  0.19487953995E+03  0.35021485280E+03  0.19200000000E+03 0.  0.
<mgrwt>
<rscale>  0 0.58241470E+03</rscale>
<asrwt>0</asrwt>
<pdfrwt beam="1">  1        2 0.21356779E-01 0.58241470E+03</pdfrwt>
<pdfrwt beam="2">  1       -2 0.81035039E-01 0.58241470E+03</pdfrwt>
<totfact> 0.35689171E+02</totfact>
</mgrwt>
</event>
<event>
 4    1  0.5863356E-005  0.7241590E+03  0.7818608E-02  0.9676786E-01
          2   -1    0    0  501    0  0.00000000000E+00  0.00000000000E+00  0.15591711074E+04  0.15591711074E+04  0.25500000000E-02 0.  1.
         -2   -1    0    0    0  501 -0.00000000000E+00 -0.00000000000E+00 -0.84084144491E+02  0.84084144530E+02  0.25500000000E-02 0. -1.
    5000001    1    1    2    0    0  0.42697377340E+02 -0.91480646585E+02  0.13953968174E+04  0.14121572337E+04  0.19200000000E+03 0.  0.
   -5000001    1    1    2    0    0 -0.42697377340E+02  0.91480646585E+02  0.79690145508E+02  0.23109801821E+03  0.19200000000E+03 0.  0.
<mgrwt>
<rscale>  0 0.72415901E+03</rscale>
<asrwt>0</asrwt>
<pdfrwt beam="1">  1        2 0.22273873E+00 0.72415901E+03</pdfrwt>
<pdfrwt beam="2">  1       -2 0.12012021E-01 0.72415901E+03</pdfrwt>
<totfact> 0.69910052E+02</totfact>
</mgrwt>
</event>
<event>
 4    1  0.5863356E-005  0.5094668E+03  0.7818608E-02  0.1011337E+00
         -2   -1    0    0    0  501 -0.00000000000E+00  0.00000000000E+00  0.30698717180E+02  0.30698717286E+02  0.25500000000E-02 0. -1.
          2   -1    0    0  501    0  0.00000000000E+00 -0.00000000000E+00 -0.21137399663E+04  0.21137399663E+04  0.25500000000E-02 0.  1.
    5000001    1    1    2    0    0 -0.57272383760E+01  0.13777991330E+03 -0.64200291872E+03  0.68414022935E+03  0.19200000000E+03 0.  0.
   -5000001    1    1    2    0    0  0.57272383760E+01 -0.13777991330E+03 -0.14410383304E+04  0.14602984543E+04  0.19200000000E+03 0.  0.
<mgrwt>
<rscale>  0 0.50946680E+03</rscale>
<asrwt>0</asrwt>
<pdfrwt beam="1">  1        2 0.30196276E+00 0.50946680E+03</pdfrwt>
<pdfrwt beam="2">  1       -2 0.43855324E-02 0.50946680E+03</pdfrwt>
<totfact> 0.18329607E+03</totfact>
</mgrwt>
</event>
<event>
 4    1  0.5863356E-005  0.7587792E+03  0.7818608E-02  0.9621677E-01
         -2   -1    0    0    0  501 -0.00000000000E+00  0.00000000000E+00  0.58101070465E+03  0.58101070466E+03  0.25500000000E-02 0.  1.
          2   -1    0    0  501    0  0.00000000000E+00 -0.00000000000E+00 -0.24773464496E+03  0.24773464498E+03  0.25500000000E-02 0. -1.
    5000001    1    1    2    0    0  0.22889494779E+03 -0.22005062711E+03  0.80240896648E+02  0.37962847247E+03  0.19200000000E+03 0.  0.
   -5000001    1    1    2    0    0 -0.22889494779E+03  0.22005062711E+03  0.25303516304E+03  0.44911687716E+03  0.19200000000E+03 0.  0.
<mgrwt>
<rscale>  0 0.75877923E+03</rscale>
<asrwt>0</asrwt>
<pdfrwt beam="1">  1        2 0.35390664E-01 0.75877923E+03</pdfrwt>
<pdfrwt beam="2">  1       -2 0.83001529E-01 0.75877923E+03</pdfrwt>
<totfact> 0.18945608E+02</totfact>
</mgrwt>
</event>
<event>
 4    1  0.5863356E-005  0.4791437E+03  0.7818608E-02  0.1019371E+00
         -2   -1    0    0    0  501 -0.00000000000E+00  0.00000000000E+00  0.95179793371E+02  0.95179793405E+02  0.25500000000E-02 0. -1.
          2   -1    0    0  501    0  0.00000000000E+00 -0.00000000000E+00 -0.60301312451E+03  0.60301312452E+03  0.25500000000E-02 0.  1.
    5000001    1    1    2    0    0  0.13493704124E+03 -0.83557300038E+01 -0.32307984990E+03  0.39940256976E+03  0.19200000000E+03 0.  0.
   -5000001    1    1    2    0    0 -0.13493704124E+03  0.83557300038E+01 -0.18475348124E+03  0.29879034816E+03  0.19200000000E+03 0.  0.
<mgrwt>
<rscale>  0 0.47914367E+03</rscale>
<asrwt>0</asrwt>
<pdfrwt beam="1">  1        2 0.86144730E-01 0.47914367E+03</pdfrwt>
<pdfrwt beam="2">  1       -2 0.13597114E-01 0.47914367E+03</pdfrwt>
<totfact> 0.22180475E+03</totfact>
</mgrwt>
</event>
<event>
 4    1  0.5863356E-005  0.8070100E+03  0.7818608E-02  0.9549926E-01
          2   -1    0    0  501    0  0.00000000000E+00  0.00000000000E+00  0.87506962524E+03  0.87506962524E+03  0.25500000000E-02 0.  1.
         -2   -1    0    0    0  501 -0.00000000000E+00 -0.00000000000E+00 -0.18606093775E+03  0.18606093777E+03  0.25500000000E-02 0. -1.
    5000001    1    1    2    0    0  0.29872699085E+03  0.16140814205E+03  0.48027522800E+03  0.61872344226E+03  0.19200000000E+03 0.  0.
   -5000001    1    1    2    0    0 -0.29872699085E+03 -0.16140814205E+03  0.20873345949E+03  0.44240712075E+03  0.19200000000E+03 0.  0.
<mgrwt>
<rscale>  0 0.80700998E+03</rscale>
<asrwt>0</asrwt>
<pdfrwt beam="1">  1        2 0.12500995E+00 0.80700998E+03</pdfrwt>
<pdfrwt beam="2">  1       -2 0.26580134E-01 0.80700998E+03</pdfrwt>
<totfact> 0.43398727E+02</totfact>
</mgrwt>
</event>
<event>
 4    1  0.5863356E-005  0.6960861E+03  0.7818608E-02  0.9723949E-01
          2   -1    0    0  501    0  0.00000000000E+00  0.00000000000E+00  0.60033211349E+03  0.60033211350E+03  0.25500000000E-02 0.  1.
         -2   -1    0    0    0  501 -0.00000000000E+00 -0.00000000000E+00 -0.20177823260E+03  0.20177823262E+03  0.25500000000E-02 0. -1.
    5000001    1    1    2    0    0  0.38137771104E+02 -0.23808215612E+03  0.12999435343E+02  0.30849730625E+03  0.19200000000E+03 0.  0.
   -5000001    1    1    2    0    0 -0.38137771104E+02  0.23808215612E+03  0.38555444555E+03  0.49361303987E+03  0.19200000000E+03 0.  0.
<mgrwt>
<rscale>  0 0.69608607E+03</rscale>
<asrwt>0</asrwt>
<pdfrwt beam="1">  1        2 0.85761730E-01 0.69608607E+03</pdfrwt>
<pdfrwt beam="2">  1       -2 0.28825462E-01 0.69608607E+03</pdfrwt>
<totfact> 0.60124364E+02</totfact>
</mgrwt>
</event>
<event>
 4    1  0.5863356E-005  0.1008431E+04  0.7818608E-02  0.9299345E-01
         -2   -1    0    0    0  501 -0.00000000000E+00  0.00000000000E+00  0.15480834078E+03  0.15480834080E+03  0.25500000000E-02 0. -1.
          2   -1    0    0  501    0  0.00000000000E+00 -0.00000000000E+00 -0.16422469048E+04  0.16422469048E+04  0.25500000000E-02 0.  1.
    5000001    1    1    2    0    0 -0.39128271074E+03 -0.25350427930E+03 -0.74677439003E+03  0.90105636280E+03  0.19200000000E+03 0.  0.
   -5000001    1    1    2    0    0  0.39128271074E+03  0.25350427930E+03 -0.74066417404E+03  0.89599888284E+03  0.19200000000E+03 0.  0.
<mgrwt>
<rscale>  0 0.10084315E+04</rscale>
<asrwt>0</asrwt>
<pdfrwt beam="1">  1        2 0.23460669E+00 0.10084315E+04</pdfrwt>
<pdfrwt beam="2">  1       -2 0.22115478E-01 0.10084315E+04</pdfrwt>
<totfact> 0.21913145E+02</totfact>
</mgrwt>
</event>
<event>
 4    1  0.5863356E-005  0.8533256E+03  0.7818608E-02  0.9485884E-01
          2   -1    0    0  501    0  0.00000000000E+00  0.00000000000E+00  0.14811801948E+04  0.14811801948E+04  0.25500000000E-02 0.  1.
         -2   -1    0    0    0  501 -0.00000000000E+00 -0.00000000000E+00 -0.12290276465E+03  0.12290276468E+03  0.25500000000E-02 0. -1.
    5000001    1    1    2    0    0  0.36280431614E+03 -0.85055644540E+02  0.52974820068E+03  0.67554318189E+03  0.19200000000E+03 0.  0.
   -5000001    1    1    2    0    0 -0.36280431614E+03  0.85055644540E+02  0.82852922946E+03  0.92853977758E+03  0.19200000000E+03 0.  0.
<mgrwt>
<rscale>  0 0.85332559E+03</rscale>
<asrwt>0</asrwt>
<pdfrwt beam="1">  1        2 0.21159717E+00 0.85332559E+03</pdfrwt>
<pdfrwt beam="2">  1       -2 0.17557538E-01 0.85332559E+03</pdfrwt>
<totfact> 0.40226049E+02</totfact>
</mgrwt>
</event>
<event>
 4    1  0.5863356E-005  0.6895840E+03  0.7818608E-02  0.9735213E-01
          2   -1    0    0  501    0  0.00000000000E+00  0.00000000000E+00  0.47796786423E+03  0.47796786424E+03  0.25500000000E-02 0.  1.
         -2   -1    0    0    0  501 -0.00000000000E+00 -0.00000000000E+00 -0.24872286357E+03  0.24872286358E+03  0.25500000000E-02 0. -1.
    5000001    1    1    2    0    0  0.27560195014E+03 -0.51269793173E+02  0.52882265159E+02  0.34386852223E+03  0.19200000000E+03 0.  0.
   -5000001    1    1    2    0    0 -0.27560195014E+03  0.51269793173E+02  0.17636273551E+03  0.38282220559E+03  0.19200000000E+03 0.  0.
<mgrwt>
<rscale>  0 0.68958404E+03</rscale>
<asrwt>0</asrwt>
<pdfrwt beam="1">  1        2 0.68281124E-01 0.68958404E+03</pdfrwt>
<pdfrwt beam="2">  1       -2 0.35531837E-01 0.68958404E+03</pdfrwt>
<totfact> 0.52915706E+02</totfact>
</mgrwt>
</event>
<event>
 4    1  0.5863356E-005  0.7499278E+03  0.7818608E-02  0.9635464E-01
         -2   -1    0    0    0  501 -0.00000000000E+00  0.00000000000E+00  0.32081015155E+03  0.32081015156E+03  0.25500000000E-02 0. -1.
          2   -1    0    0  501    0  0.00000000000E+00 -0.00000000000E+00 -0.43825897626E+03  0.43825897627E+03  0.25500000000E-02 0.  1.
    5000001    1    1    2    0    0  0.26951986119E+03 -0.13983032752E+03 -0.16746039690E+03  0.39635900469E+03  0.19200000000E+03 0.  0.
   -5000001    1    1    2    0    0 -0.26951986119E+03  0.13983032752E+03  0.50011572188E+02  0.36271012313E+03  0.19200000000E+03 0.  0.
<mgrwt>
<rscale>  0 0.74992781E+03</rscale>
<asrwt>0</asrwt>
<pdfrwt beam="1">  1        2 0.62608425E-01 0.74992781E+03</pdfrwt>
<pdfrwt beam="2">  1       -2 0.45830022E-01 0.74992781E+03</pdfrwt>
<totfact> 0.35468556E+02</totfact>
</mgrwt>
</event>
<event>
 4    1  0.5863356E-005  0.5729846E+03  0.7818608E-02  0.9963096E-01
         -2   -1    0    0    0  501 -0.00000000000E+00  0.00000000000E+00  0.28124967993E+03  0.28124967994E+03  0.25500000000E-02 0. -1.
          2   -1    0    0  501    0  0.00000000000E+00 -0.00000000000E+00 -0.29183266931E+03  0.29183266932E+03  0.25500000000E-02 0.  1.
    5000001    1    1    2    0    0 -0.14224976836E+03  0.11273998333E+03 -0.11607384743E+03  0.28858696869E+03  0.19200000000E+03 0.  0.
   -5000001    1    1    2    0    0  0.14224976836E+03 -0.11273998333E+03  0.10549085804E+03  0.28449538058E+03  0.19200000000E+03 0.  0.
<mgrwt>
<rscale>  0 0.57298462E+03</rscale>
<asrwt>0</asrwt>
<pdfrwt beam="1">  1        2 0.41690381E-01 0.57298462E+03</pdfrwt>
<pdfrwt beam="2">  1       -2 0.40178526E-01 0.57298462E+03</pdfrwt>
<totfact> 0.72478868E+02</totfact>
</mgrwt>
</event>
<event>
 4    1  0.5863356E-005  0.5728783E+03  0.7818608E-02  0.9963329E-01
         -2   -1    0    0    0  501 -0.00000000000E+00  0.00000000000E+00  0.95607926458E+02  0.95607926492E+02  0.25500000000E-02 0. -1.
          2   -1    0    0  501    0  0.00000000000E+00 -0.00000000000E+00 -0.85816516306E+03  0.85816516306E+03  0.25500000000E-02 0.  1.
    5000001    1    1    2    0    0  0.17999705105E+03  0.10848287054E+03 -0.32821309107E+03  0.43445978494E+03  0.19200000000E+03 0.  0.
   -5000001    1    1    2    0    0 -0.17999705105E+03 -0.10848287054E+03 -0.43434414554E+03  0.51931330461E+03  0.19200000000E+03 0.  0.
<mgrwt>
<rscale>  0 0.57287832E+03</rscale>
<asrwt>0</asrwt>
<pdfrwt beam="1">  1        2 0.12259502E+00 0.57287832E+03</pdfrwt>
<pdfrwt beam="2">  1       -2 0.13658276E-01 0.57287832E+03</pdfrwt>
<totfact> 0.14255148E+03</totfact>
</mgrwt>
</event>
<event>
 4    1  0.5863356E-005  0.5576285E+03  0.7818608E-02  0.9997435E-01
         -2   -1    0    0    0  501 -0.00000000000E+00  0.00000000000E+00  0.15015874824E+03  0.15015874826E+03  0.25500000000E-02 0. -1.
          2   -1    0    0  501    0  0.00000000000E+00 -0.00000000000E+00 -0.51770142606E+03  0.51770142607E+03  0.25500000000E-02 0.  1.
    5000001    1    1    2    0    0  0.19909145342E+03 -0.31607883359E+02 -0.16533590684E+03  0.32378453824E+03  0.19200000000E+03 0.  0.
   -5000001    1    1    2    0    0 -0.19909145342E+03  0.31607883359E+02 -0.20220677098E+03  0.34407563608E+03  0.19200000000E+03 0.  0.
<mgrwt>
<rscale>  0 0.55762854E+03</rscale>
<asrwt>0</asrwt>
<pdfrwt beam="1">  1        2 0.73957346E-01 0.55762854E+03</pdfrwt>
<pdfrwt beam="2">  1       -2 0.21451250E-01 0.55762854E+03</pdfrwt>
<totfact> 0.12167063E+03</totfact>
</mgrwt>
</event>
<event>
 4    1  0.5863356E-005  0.4863762E+03  0.7818608E-02  0.1017397E+00
         -2   -1    0    0    0  501 -0.00000000000E+00  0.00000000000E+00  0.11589203963E+03  0.11589203966E+03  0.25500000000E-02 0. -1.
          2   -1    0    0  501    0  0.00000000000E+00 -0.00000000000E+00 -0.51030631629E+03  0.51030631629E+03  0.25500000000E-02 0.  1.
    5000001    1    1    2    0    0 -0.10388015070E+03  0.96779936984E+02 -0.13794123359E+03  0.27577024103E+03  0.19200000000E+03 0.  0.
   -5000001    1    1    2    0    0  0.10388015070E+03 -0.96779936984E+02 -0.25647304307E+03  0.35042811493E+03  0.19200000000E+03 0.  0.
<mgrwt>
<rscale>  0 0.48637615E+03</rscale>
<asrwt>0</asrwt>
<pdfrwt beam="1">  1        2 0.72900901E-01 0.48637615E+03</pdfrwt>
<pdfrwt beam="2">  1       -2 0.16556006E-01 0.48637615E+03</pdfrwt>
<totfact> 0.19324838E+03</totfact>
</mgrwt>
</event>
<event>
 4    1  0.5863356E-005  0.5948980E+03  0.7818608E-02  0.9916048E-01
          2   -1    0    0  501    0  0.00000000000E+00  0.00000000000E+00  0.15818087906E+04  0.15818087906E+04  0.25500000000E-02 0.  1.
         -2   -1    0    0    0  501 -0.00000000000E+00 -0.00000000000E+00 -0.55933383638E+02  0.55933383696E+02  0.25500000000E-02 0. -1.
    5000001    1    1    2    0    0 -0.62650451761E+02 -0.12535069620E+03  0.12552058879E+04  0.12775146563E+04  0.19200000000E+03 0.  0.
   -5000001    1    1    2    0    0  0.62650451761E+02  0.12535069620E+03  0.27066951905E+03  0.36022751794E+03  0.19200000000E+03 0.  0.
<mgrwt>
<rscale>  0 0.59489803E+03</rscale>
<asrwt>0</asrwt>
<pdfrwt beam="1">  1        2 0.22597267E+00 0.59489803E+03</pdfrwt>
<pdfrwt beam="2">  1       -2 0.79904838E-02 0.59489803E+03</pdfrwt>
<totfact> 0.13256166E+03</totfact>
</mgrwt>
</event>
<event>
 4    1  0.5863356E-005  0.4931246E+03  0.7818608E-02  0.1015589E+00
          2   -1    0    0  501    0  0.00000000000E+00  0.00000000000E+00  0.24821373806E+04  0.24821373806E+04  0.25500000000E-02 0.  1.
         -2   -1    0    0    0  501 -0.00000000000E+00 -0.00000000000E+00 -0.24492181667E+02  0.24492181800E+02  0.25500000000E-02 0. -1.
    5000001    1    1    2    0    0  0.75027488231E+02 -0.13451186008E+03  0.13018495972E+04  0.13249146909E+04  0.19200000000E+03 0.  0.
   -5000001    1    1    2    0    0 -0.75027488231E+02  0.13451186008E+03  0.11557956017E+04  0.11817148715E+04  0.19200000000E+03 0.  0.
<mgrwt>
<rscale>  0 0.49312457E+03</rscale>
<asrwt>0</asrwt>
<pdfrwt beam="1">  1        2 0.35459104E+00 0.49312457E+03</pdfrwt>
<pdfrwt beam="2">  1       -2 0.34988832E-02 0.49312457E+03</pdfrwt>
<totfact> 0.16905557E+03</totfact>
</mgrwt>
</event>
<event>
 4    1  0.5863356E-005  0.5520633E+03  0.7818608E-02  0.1001017E+00
         -2   -1    0    0    0  501 -0.00000000000E+00  0.00000000000E+00  0.81316782931E+02  0.81316782971E+02  0.25500000000E-02 0. -1.
          2   -1    0    0  501    0  0.00000000000E+00 -0.00000000000E+00 -0.93699572751E+03  0.93699572751E+03  0.25500000000E-02 0.  1.
    5000001    1    1    2    0    0 -0.49966688634E+02  0.16291984241E+03 -0.24072884221E+03  0.35192885715E+03  0.19200000000E+03 0.  0.
   -5000001    1    1    2    0    0  0.49966688634E+02 -0.16291984241E+03 -0.61495010237E+03  0.66638365333E+03  0.19200000000E+03 0.  0.
<mgrwt>
<rscale>  0 0.55206332E+03</rscale>
<asrwt>0</asrwt>
<pdfrwt beam="1">  1        2 0.13385653E+00 0.55206332E+03</pdfrwt>
<pdfrwt beam="2">  1       -2 0.11616684E-01 0.55206332E+03</pdfrwt>
<totfact> 0.16570516E+03</totfact>
</mgrwt>
</event>
<event>
 4    1  0.5863356E-005  0.4465912E+03  0.7818608E-02  0.1028743E+00
         -2   -1    0    0    0  501 -0.00000000000E+00  0.00000000000E+00  0.50192124658E+02  0.50192124723E+02  0.25500000000E-02 0. -1.
          2   -1    0    0  501    0  0.00000000000E+00 -0.00000000000E+00 -0.99340141841E+03  0.99340141842E+03  0.25500000000E-02 0.  1.
    5000001    1    1    2    0    0 -0.52499352741E+02 -0.10043564281E+03 -0.50054959548E+03  0.54795747821E+03  0.19200000000E+03 0.  0.
   -5000001    1    1    2    0    0  0.52499352741E+02  0.10043564281E+03 -0.44265969827E+03  0.49563606493E+03  0.19200000000E+03 0.  0.
<mgrwt>
<rscale>  0 0.44659121E+03</rscale>
<asrwt>0</asrwt>
<pdfrwt beam="1">  1        2 0.14191448E+00 0.44659121E+03</pdfrwt>
<pdfrwt beam="2">  1       -2 0.71703041E-02 0.44659121E+03</pdfrwt>
<totfact> 0.33150316E+03</totfact>
</mgrwt>
</event>
<event>
 4    1  0.5863356E-005  0.4216854E+03  0.7818608E-02  0.1036519E+00
         -2   -1    0    0    0  501 -0.00000000000E+00  0.00000000000E+00  0.28218599263E+02  0.28218599378E+02  0.25500000000E-02 0. -1.
          2   -1    0    0  501    0  0.00000000000E+00 -0.00000000000E+00 -0.15753667876E+04  0.15753667876E+04  0.25500000000E-02 0.  1.
    5000001    1    1    2    0    0  0.45232826284E+02 -0.68494871934E+02 -0.66250314839E+03  0.69463082114E+03  0.19200000000E+03 0.  0.
   -5000001    1    1    2    0    0 -0.45232826284E+02  0.68494871934E+02 -0.88464503999E+03  0.90895456588E+03  0.19200000000E+03 0.  0.
<mgrwt>
<rscale>  0 0.42168540E+03</rscale>
<asrwt>0</asrwt>
<pdfrwt beam="1">  1        2 0.22505234E+00 0.42168540E+03</pdfrwt>
<pdfrwt beam="2">  1       -2 0.40312295E-02 0.42168540E+03</pdfrwt>
<totfact> 0.38889578E+03</totfact>
</mgrwt>
</event>
<event>
 4    1  0.5863356E-005  0.7254812E+03  0.7818608E-02  0.9674622E-01
          2   -1    0    0  501    0  0.00000000000E+00  0.00000000000E+00  0.21425920439E+04  0.21425920439E+04  0.25500000000E-02 0.  1.
         -2   -1    0    0    0  501 -0.00000000000E+00 -0.00000000000E+00 -0.61411952103E+02  0.61411952156E+02  0.25500000000E-02 0. -1.
    5000001    1    1    2    0    0  0.86525543430E+02  0.13158964384E+03  0.18438739352E+04  0.18605207854E+04  0.19200000000E+03 0.  0.
   -5000001    1    1    2    0    0 -0.86525543430E+02 -0.13158964384E+03  0.23730615656E+03  0.34348321061E+03  0.19200000000E+03 0.  0.
<mgrwt>
<rscale>  0 0.72548125E+03</rscale>
<asrwt>0</asrwt>
<pdfrwt beam="1">  1        2 0.30608455E+00 0.72548125E+03</pdfrwt>
<pdfrwt beam="2">  1       -2 0.87731369E-02 0.72548125E+03</pdfrwt>
<totfact> 0.58891769E+02</totfact>
</mgrwt>
</event>
<event>
 4    1  0.5863356E-005  0.4490323E+03  0.7818608E-02  0.1028011E+00
          2   -1    0    0  501    0  0.00000000000E+00  0.00000000000E+00  0.16089071390E+03  0.16089071392E+03  0.25500000000E-02 0.  1.
         -2   -1    0    0    0  501 -0.00000000000E+00 -0.00000000000E+00 -0.31330270680E+03  0.31330270681E+03  0.25500000000E-02 0. -1.
    5000001    1    1    2    0    0 -0.11335520276E+03 -0.24214863895E+02 -0.87167129668E+02  0.24061976253E+03  0.19200000000E+03 0.  0.
   -5000001    1    1    2    0    0  0.11335520276E+03  0.24214863895E+02 -0.65244863225E+02  0.23357365820E+03  0.19200000000E+03 0.  0.
<mgrwt>
<rscale>  0 0.44903228E+03</rscale>
<asrwt>0</asrwt>
<pdfrwt beam="1">  1        2 0.22984388E-01 0.44903228E+03</pdfrwt>
<pdfrwt beam="2">  1       -2 0.44757529E-01 0.44903228E+03</pdfrwt>
<totfact> 0.11425576E+03</totfact>
</mgrwt>
</event>
<event>
 4    1  0.5863356E-005  0.5589796E+03  0.7818608E-02  0.9994366E-01
          2   -1    0    0  501    0  0.00000000000E+00  0.00000000000E+00  0.12948571138E+04  0.12948571138E+04  0.25500000000E-02 0.  1.
         -2   -1    0    0    0  501 -0.00000000000E+00 -0.00000000000E+00 -0.60326778718E+02  0.60326778772E+02  0.25500000000E-02 0. -1.
    5000001    1    1    2    0    0 -0.14281844932E+03  0.14437404115E+03  0.60975919211E+03  0.67075423635E+03  0.19200000000E+03 0.  0.
   -5000001    1    1    2    0    0  0.14281844932E+03 -0.14437404115E+03  0.62477114300E+03  0.68442965625E+03  0.19200000000E+03 0.  0.
<mgrwt>
<rscale>  0 0.55897964E+03</rscale>
<asrwt>0</asrwt>
<pdfrwt beam="1">  1        2 0.18497958E+00 0.55897964E+03</pdfrwt>
<pdfrwt beam="2">  1       -2 0.86181118E-02 0.55897964E+03</pdfrwt>
<totfact> 0.16662753E+03</totfact>
</mgrwt>
</event>
<event>
 4    1  0.5863356E-005  0.7548937E+03  0.7818608E-02  0.9627704E-01
         -2   -1    0    0    0  501 -0.00000000000E+00  0.00000000000E+00  0.16863145290E+03  0.16863145292E+03  0.25500000000E-02 0. -1.
          2   -1    0    0  501    0  0.00000000000E+00 -0.00000000000E+00 -0.84483721482E+03  0.84483721482E+03  0.25500000000E-02 0.  1.
    5000001    1    1    2    0    0 -0.21901978607E+02 -0.31133330922E+03 -0.21657595127E+03  0.42564923208E+03  0.19200000000E+03 0.  0.
   -5000001    1    1    2    0    0  0.21901978607E+02  0.31133330922E+03 -0.45962981065E+03  0.58781943566E+03  0.19200000000E+03 0.  0.
<mgrwt>
<rscale>  0 0.75489371E+03</rscale>
<asrwt>0</asrwt>
<pdfrwt beam="1">  1        2 0.12069103E+00 0.75489371E+03</pdfrwt>
<pdfrwt beam="2">  1       -2 0.24090208E-01 0.75489371E+03</pdfrwt>
<totfact> 0.54413873E+02</totfact>
</mgrwt>
</event>
<event>
 4    1  0.5863356E-005  0.9081297E+03  0.7818608E-02  0.9415476E-01
         -2   -1    0    0    0  501 -0.00000000000E+00  0.00000000000E+00  0.22401231457E+03  0.22401231458E+03  0.25500000000E-02 0. -1.
          2   -1    0    0  501    0  0.00000000000E+00 -0.00000000000E+00 -0.92037294311E+03  0.92037294311E+03  0.25500000000E-02 0.  1.
    5000001    1    1    2    0    0  0.37367466813E+03 -0.64037457759E+02 -0.54971597629E+03  0.69482746649E+03  0.19200000000E+03 0.  0.
   -5000001    1    1    2    0    0 -0.37367466813E+03  0.64037457759E+02 -0.14664465225E+03  0.44955779121E+03  0.19200000000E+03 0.  0.
<mgrwt>
<rscale>  0 0.90812967E+03</rscale>
<asrwt>0</asrwt>
<pdfrwt beam="1">  1        2 0.13148185E+00 0.90812967E+03</pdfrwt>
<pdfrwt beam="2">  1       -2 0.32001760E-01 0.90812967E+03</pdfrwt>
<totfact> 0.28635216E+02</totfact>
</mgrwt>
</event>
<event>
 4    1  0.5863356E-005  0.1234310E+04  0.7818608E-02  0.9083344E-01
          2   -1    0    0  501    0  0.00000000000E+00  0.00000000000E+00  0.20583370908E+04  0.20583370908E+04  0.25500000000E-02 0.  1.
         -2   -1    0    0    0  501 -0.00000000000E+00 -0.00000000000E+00 -0.18504283011E+03  0.18504283013E+03  0.25500000000E-02 0. -1.
    5000001    1    1    2    0    0 -0.41574876540E+03  0.41085252309E+03  0.10251228542E+04  0.11955700305E+04  0.19200000000E+03 0.  0.
   -5000001    1    1    2    0    0  0.41574876540E+03 -0.41085252309E+03  0.84817140644E+03  0.10478098904E+04  0.19200000000E+03 0.  0.
<mgrwt>
<rscale>  0 0.12343104E+04</rscale>
<asrwt>0</asrwt>
<pdfrwt beam="1">  1        2 0.29404816E+00 0.12343104E+04</pdfrwt>
<pdfrwt beam="2">  1       -2 0.26434690E-01 0.12343104E+04</pdfrwt>
<totfact> 0.95583786E+01</totfact>
</mgrwt>
</event>
<event>
 4    1  0.5863356E-005  0.8357565E+03  0.7818608E-02  0.9509656E-01
         -2   -1    0    0    0  501 -0.00000000000E+00  0.00000000000E+00  0.28042645067E+03  0.28042645068E+03  0.25500000000E-02 0. -1.
          2   -1    0    0  501    0  0.00000000000E+00 -0.00000000000E+00 -0.62270235701E+03  0.62270235702E+03  0.25500000000E-02 0.  1.
    5000001    1    1    2    0    0 -0.21400297611E+03 -0.25764428294E+03 -0.34396961115E+03  0.51706570541E+03  0.19200000000E+03 0.  0.
   -5000001    1    1    2    0    0  0.21400297611E+03  0.25764428294E+03  0.16937048036E+01  0.38606310229E+03  0.19200000000E+03 0.  0.
<mgrwt>
<rscale>  0 0.83575645E+03</rscale>
<asrwt>0</asrwt>
<pdfrwt beam="1">  1        2 0.88957479E-01 0.83575645E+03</pdfrwt>
<pdfrwt beam="2">  1       -2 0.40060922E-01 0.83575645E+03</pdfrwt>
<totfact> 0.30721250E+02</totfact>
</mgrwt>
</event>
<event>
 4    1  0.5863356E-005  0.5296296E+03  0.7818608E-02  0.1006322E+00
          2   -1    0    0  501    0  0.00000000000E+00  0.00000000000E+00  0.33729291441E+03  0.33729291442E+03  0.25500000000E-02 0. -1.
         -2   -1    0    0    0  501 -0.00000000000E+00 -0.00000000000E+00 -0.20791094327E+03  0.20791094328E+03  0.25500000000E-02 0.  1.
    5000001    1    1    2    0    0  0.14087490466E+03  0.52220014237E+02 -0.41742907869E+02  0.24734417116E+03  0.19200000000E+03 0.  0.
   -5000001    1    1    2    0    0 -0.14087490466E+03 -0.52220014237E+02  0.17112487901E+03  0.29785968654E+03  0.19200000000E+03 0.  0.
<mgrwt>
<rscale>  0 0.52962964E+03</rscale>
<asrwt>0</asrwt>
<pdfrwt beam="1">  1        2 0.48184703E-01 0.52962964E+03</pdfrwt>
<pdfrwt beam="2">  1       -2 0.29701563E-01 0.52962964E+03</pdfrwt>
<totfact> 0.10937640E+03</totfact>
</mgrwt>
</event>
<event>
 4    1  0.5863356E-005  0.6579881E+03  0.7818608E-02  0.9791904E-01
          2   -1    0    0  501    0  0.00000000000E+00  0.00000000000E+00  0.39788783661E+03  0.39788783662E+03  0.25500000000E-02 0.  1.
         -2   -1    0    0    0  501 -0.00000000000E+00 -0.00000000000E+00 -0.27202913602E+03  0.27202913603E+03  0.25500000000E-02 0. -1.
    5000001    1    1    2    0    0 -0.40875408895E+02 -0.14637801067E+03 -0.16077143962E+03  0.29293135178E+03  0.19200000000E+03 0.  0.
   -5000001    1    1    2    0    0  0.40875408895E+02  0.14637801067E+03  0.28663014021E+03  0.37698562087E+03  0.19200000000E+03 0.  0.
<mgrwt>
<rscale>  0 0.65798810E+03</rscale>
<asrwt>0</asrwt>
<pdfrwt beam="1">  1        2 0.56841119E-01 0.65798810E+03</pdfrwt>
<pdfrwt beam="2">  1       -2 0.38861306E-01 0.65798810E+03</pdfrwt>
<totfact> 0.54789819E+02</totfact>
</mgrwt>
</event>
<event>
 4    1  0.5863356E-005  0.6072674E+03  0.7818608E-02  0.9890442E-01
         -2   -1    0    0    0  501 -0.00000000000E+00  0.00000000000E+00  0.15651181607E+03  0.15651181609E+03  0.25500000000E-02 0. -1.
          2   -1    0    0  501    0  0.00000000000E+00 -0.00000000000E+00 -0.58905084206E+03  0.58905084206E+03  0.25500000000E-02 0.  1.
    5000001    1    1    2    0    0  0.13485304515E+03  0.18582829616E+03 -0.15352381805E+03  0.33637934263E+03  0.19200000000E+03 0.  0.
   -5000001    1    1    2    0    0 -0.13485304515E+03 -0.18582829616E+03 -0.27901520794E+03  0.40918331552E+03  0.19200000000E+03 0.  0.
<mgrwt>
<rscale>  0 0.60726738E+03</rscale>
<asrwt>0</asrwt>
<pdfrwt beam="1">  1        2 0.84150119E-01 0.60726738E+03</pdfrwt>
<pdfrwt beam="2">  1       -2 0.22358831E-01 0.60726738E+03</pdfrwt>
<totfact> 0.97373798E+02</totfact>
</mgrwt>
</event>
<event>
 4    1  0.5863356E-005  0.4600088E+03  0.7818608E-02  0.1024779E+00
         -2   -1    0    0    0  501 -0.00000000000E+00  0.00000000000E+00  0.37501920017E+02  0.37501920103E+02  0.25500000000E-02 0. -1.
          2   -1    0    0  501    0  0.00000000000E+00 -0.00000000000E+00 -0.14106486621E+04  0.14106486621E+04  0.25500000000E-02 0.  1.
    5000001    1    1    2    0    0  0.96870558080E+01  0.12407541522E+03 -0.61277857745E+03  0.65410253990E+03  0.19200000000E+03 0.  0.
   -5000001    1    1    2    0    0 -0.96870558080E+01 -0.12407541522E+03 -0.76036816464E+03  0.79404804232E+03  0.19200000000E+03 0.  0.
<mgrwt>
<rscale>  0 0.46000884E+03</rscale>
<asrwt>0</asrwt>
<pdfrwt beam="1">  1        2 0.20152120E+00 0.46000884E+03</pdfrwt>
<pdfrwt beam="2">  1       -2 0.53574180E-02 0.46000884E+03</pdfrwt>
<totfact> 0.30562148E+03</totfact>
</mgrwt>
</event>
<event>
 4    1  0.5863356E-005  0.6240100E+03  0.7818608E-02  0.9856808E-01
          2   -1    0    0  501    0  0.00000000000E+00  0.00000000000E+00  0.81964897300E+03  0.81964897301E+03  0.25500000000E-02 0.  1.
         -2   -1    0    0    0  501 -0.00000000000E+00 -0.00000000000E+00 -0.11876683201E+03  0.11876683204E+03  0.25500000000E-02 0. -1.
    5000001    1    1    2    0    0  0.24292317173E+03  0.15458100111E+02  0.29764570754E+03  0.42977620622E+03  0.19200000000E+03 0.  0.
   -5000001    1    1    2    0    0 -0.24292317173E+03 -0.15458100111E+02  0.40323643346E+03  0.50863959882E+03  0.19200000000E+03 0.  0.
<mgrwt>
<rscale>  0 0.62400997E+03</rscale>
<asrwt>0</asrwt>
<pdfrwt beam="1">  1        2 0.11709271E+00 0.62400997E+03</pdfrwt>
<pdfrwt beam="2">  1       -2 0.16966691E-01 0.62400997E+03</pdfrwt>
<totfact> 0.10487949E+03</totfact>
</mgrwt>
</event>
<event>
 4    1  0.5863356E-005  0.5357924E+03  0.7818608E-02  0.1004837E+00
         -2   -1    0    0    0  501 -0.00000000000E+00  0.00000000000E+00  0.19384517376E+03  0.19384517377E+03  0.25500000000E-02 0. -1.
          2   -1    0    0  501    0  0.00000000000E+00 -0.00000000000E+00 -0.37023561473E+03  0.37023561473E+03  0.25500000000E-02 0.  1.
    5000001    1    1    2    0    0 -0.17101438314E+03 -0.34024975110E+02 -0.15882503685E+03  0.30412663564E+03  0.19200000000E+03 0.  0.
   -5000001    1    1    2    0    0  0.17101438314E+03  0.34024975110E+02 -0.17565404118E+02  0.25995415287E+03  0.19200000000E+03 0.  0.
<mgrwt>
<rscale>  0 0.53579245E+03</rscale>
<asrwt>0</asrwt>
<pdfrwt beam="1">  1        2 0.52890802E-01 0.53579245E+03</pdfrwt>
<pdfrwt beam="2">  1       -2 0.27692168E-01 0.53579245E+03</pdfrwt>
<totfact> 0.11219908E+03</totfact>
</mgrwt>
</event>
<event>
 4    1  0.5863356E-005  0.8630457E+03  0.7818608E-02  0.9472993E-01
          2   -1    0    0  501    0  0.00000000000E+00  0.00000000000E+00  0.19437429233E+04  0.19437429233E+04  0.25500000000E-02 0.  1.
         -2   -1    0    0    0  501 -0.00000000000E+00 -0.00000000000E+00 -0.95800725655E+02  0.95800725689E+02  0.25500000000E-02 0. -1.
    5000001    1    1    2    0    0 -0.33036986016E+03 -0.11316727848E+03  0.13151270568E+04  0.13741813028E+04  0.19200000000E+03 0.  0.
   -5000001    1    1    2    0    0  0.33036986016E+03  0.11316727848E+03  0.53281514083E+03  0.66536234618E+03  0.19200000000E+03 0.  0.
<mgrwt>
<rscale>  0 0.86304573E+03</rscale>
<asrwt>0</asrwt>
<pdfrwt beam="1">  1        2 0.27767756E+00 0.86304573E+03</pdfrwt>
<pdfrwt beam="2">  1       -2 0.13685818E-01 0.86304573E+03</pdfrwt>
<totfact> 0.35457020E+02</totfact>
</mgrwt>
</event>
<event>
 4    1  0.5863356E-005  0.6923303E+03  0.7818608E-02  0.9730439E-01
          2   -1    0    0  501    0  0.00000000000E+00  0.00000000000E+00  0.24774461491E+03  0.24774461492E+03  0.25500000000E-02 0.  1.
         -2   -1    0    0    0  501 -0.00000000000E+00 -0.00000000000E+00 -0.48368478060E+03  0.48368478061E+03  0.25500000000E-02 0. -1.
    5000001    1    1    2    0    0 -0.84510507235E+02 -0.74276949372E+02  0.16215952921E+03  0.27535214536E+03  0.19200000000E+03 0.  0.
   -5000001    1    1    2    0    0  0.84510507235E+02  0.74276949372E+02 -0.39809969491E+03  0.45607725017E+03  0.19200000000E+03 0.  0.
<mgrwt>
<rscale>  0 0.69233027E+03</rscale>
<asrwt>0</asrwt>
<pdfrwt beam="1">  1        2 0.35392088E-01 0.69233027E+03</pdfrwt>
<pdfrwt beam="2">  1       -2 0.69097825E-01 0.69233027E+03</pdfrwt>
<totfact> 0.28510434E+02</totfact>
</mgrwt>
</event>
<event>
 4    1  0.5863356E-005  0.5341116E+03  0.7818608E-02  0.1005240E+00
         -2   -1    0    0    0  501 -0.00000000000E+00  0.00000000000E+00  0.18303761323E+03  0.18303761325E+03  0.25500000000E-02 0. -1.
          2   -1    0    0  501    0  0.00000000000E+00 -0.00000000000E+00 -0.38964008383E+03  0.38964008384E+03  0.25500000000E-02 0.  1.
    5000001    1    1    2    0    0  0.23187024846E+02 -0.18416086450E+03 -0.10181212886E+03  0.28580163001E+03  0.19200000000E+03 0.  0.
   -5000001    1    1    2    0    0 -0.23187024846E+02  0.18416086450E+03 -0.10479034174E+03  0.28687606707E+03  0.19200000000E+03 0.  0.
<mgrwt>
<rscale>  0 0.53411157E+03</rscale>
<asrwt>0</asrwt>
<pdfrwt beam="1">  1        2 0.55662869E-01 0.53411157E+03</pdfrwt>
<pdfrwt beam="2">  1       -2 0.26148231E-01 0.53411157E+03</pdfrwt>
<totfact> 0.11765074E+03</totfact>
</mgrwt>
</event>
<event>
 4    1  0.5863356E-005  0.6897913E+03  0.7818608E-02  0.9734851E-01
          2   -1    0    0  501    0  0.00000000000E+00  0.00000000000E+00  0.89151016108E+03  0.89151016108E+03  0.25500000000E-02 0.  1.
         -2   -1    0    0    0  501 -0.00000000000E+00 -0.00000000000E+00 -0.13342867896E+03  0.13342867899E+03  0.25500000000E-02 0. -1.
    5000001    1    1    2    0    0 -0.16811680302E+03  0.79114953366E+02  0.54976424452E+02  0.27277984264E+03  0.19200000000E+03 0.  0.
   -5000001    1    1    2    0    0  0.16811680302E+03 -0.79114953366E+02  0.70310505766E+03  0.75215899743E+03  0.19200000000E+03 0.  0.
<mgrwt>
<rscale>  0 0.68979134E+03</rscale>
<asrwt>0</asrwt>
<pdfrwt beam="1">  1        2 0.12735860E+00 0.68979134E+03</pdfrwt>
<pdfrwt beam="2">  1       -2 0.19061240E-01 0.68979134E+03</pdfrwt>
<totfact> 0.76735738E+02</totfact>
</mgrwt>
</event>
<event>
 4    1  0.5863356E-005  0.6271693E+03  0.7818608E-02  0.9850588E-01
          2   -1    0    0  501    0  0.00000000000E+00  0.00000000000E+00  0.19487455238E+04  0.19487455238E+04  0.25500000000E-02 0.  1.
         -2   -1    0    0    0  501 -0.00000000000E+00 -0.00000000000E+00 -0.50460841421E+02  0.50460841486E+02  0.25500000000E-02 0. -1.
    5000001    1    1    2    0    0  0.92661834363E+02  0.22577613724E+03  0.10884641078E+04  0.11318918649E+04  0.19200000000E+03 0.  0.
   -5000001    1    1    2    0    0 -0.92661834363E+02 -0.22577613724E+03  0.80982057453E+03  0.86731450041E+03  0.19200000000E+03 0.  0.
<mgrwt>
<rscale>  0 0.62716932E+03</rscale>
<asrwt>0</asrwt>
<pdfrwt beam="1">  1        2 0.27839221E+00 0.62716932E+03</pdfrwt>
<pdfrwt beam="2">  1       -2 0.72086920E-02 0.62716932E+03</pdfrwt>
<totfact> 0.10154708E+03</totfact>
</mgrwt>
</event>
<event>
 4    1  0.5863356E-005  0.7369135E+03  0.7818608E-02  0.9656108E-01
         -2   -1    0    0    0  501 -0.00000000000E+00  0.00000000000E+00  0.37639712201E+03  0.37639712202E+03  0.25500000000E-02 0. -1.
          2   -1    0    0  501    0  0.00000000000E+00 -0.00000000000E+00 -0.36068387331E+03  0.36068387331E+03  0.25500000000E-02 0.  1.
    5000001    1    1    2    0    0 -0.12806378385E+03  0.28099020152E+03  0.67372635495E+02  0.36980927259E+03  0.19200000000E+03 0.  0.
   -5000001    1    1    2    0    0  0.12806378385E+03 -0.28099020152E+03 -0.51659386787E+02  0.36727172274E+03  0.19200000000E+03 0.  0.
<mgrwt>
<rscale>  0 0.73691349E+03</rscale>
<asrwt>0</asrwt>
<pdfrwt beam="1">  1        2 0.51526268E-01 0.73691349E+03</pdfrwt>
<pdfrwt beam="2">  1       -2 0.53771017E-01 0.73691349E+03</pdfrwt>
<totfact> 0.31895556E+02</totfact>
</mgrwt>
</event>
<event>
 4    1  0.5863356E-005  0.1063203E+04  0.7818608E-02  0.9241818E-01
         -2   -1    0    0    0  501 -0.00000000000E+00  0.00000000000E+00  0.46247864158E+03  0.46247864159E+03  0.25500000000E-02 0. -1.
          2   -1    0    0  501    0  0.00000000000E+00 -0.00000000000E+00 -0.61105589575E+03  0.61105589575E+03  0.25500000000E-02 0.  1.
    5000001    1    1    2    0    0  0.22127938247E+03  0.44269058588E+03 -0.45787035555E+02  0.53282264644E+03  0.19200000000E+03 0.  0.
   -5000001    1    1    2    0    0 -0.22127938247E+03 -0.44269058588E+03 -0.10279021861E+03  0.54071189091E+03  0.19200000000E+03 0.  0.
<mgrwt>
<rscale>  0 0.10632033E+04</rscale>
<asrwt>0</asrwt>
<pdfrwt beam="1">  1        2 0.87293699E-01 0.10632033E+04</pdfrwt>
<pdfrwt beam="2">  1       -2 0.66068378E-01 0.10632033E+04</pdfrwt>
<totfact> 0.11144245E+02</totfact>
</mgrwt>
</event>
<event>
 4    1  0.5863356E-005  0.7621567E+03  0.7818608E-02  0.9616469E-01
         -2   -1    0    0    0  501 -0.00000000000E+00  0.00000000000E+00  0.60410479162E+02  0.60410479215E+02  0.25500000000E-02 0. -1.
          2   -1    0    0  501    0  0.00000000000E+00 -0.00000000000E+00 -0.24038994896E+04  0.24038994896E+04  0.25500000000E-02 0.  1.
    5000001    1    1    2    0    0 -0.13029439713E+02  0.28199229159E+03 -0.62429451723E+03  0.71154554532E+03  0.19200000000E+03 0.  0.
   -5000001    1    1    2    0    0  0.13029439713E+02 -0.28199229159E+03 -0.17191944932E+04  0.17527644235E+04  0.19200000000E+03 0.  0.
<mgrwt>
<rscale>  0 0.76215673E+03</rscale>
<asrwt>0</asrwt>
<pdfrwt beam="1">  1        2 0.34341415E+00 0.76215673E+03</pdfrwt>
<pdfrwt beam="2">  1       -2 0.86300700E-02 0.76215673E+03</pdfrwt>
<totfact> 0.44400026E+02</totfact>
</mgrwt>
</event>
<event>
 4    1  0.5863356E-005  0.4666734E+03  0.7818608E-02  0.1022863E+00
          2   -1    0    0  501    0  0.00000000000E+00  0.00000000000E+00  0.96911334813E+02  0.96911334846E+02  0.25500000000E-02 0.  1.
         -2   -1    0    0    0  501 -0.00000000000E+00 -0.00000000000E+00 -0.56181263666E+03  0.56181263667E+03  0.25500000000E-02 0. -1.
    5000001    1    1    2    0    0  0.55965585679E+02  0.53619686448E+02 -0.80589360197E+02  0.22218429857E+03  0.19200000000E+03 0.  0.
   -5000001    1    1    2    0    0 -0.55965585679E+02 -0.53619686448E+02 -0.38431194165E+03  0.43653967294E+03  0.19200000000E+03 0.  0.
<mgrwt>
<rscale>  0 0.46667339E+03</rscale>
<asrwt>0</asrwt>
<pdfrwt beam="1">  1        2 0.13844477E-01 0.46667339E+03</pdfrwt>
<pdfrwt beam="2">  1       -2 0.80258947E-01 0.46667339E+03</pdfrwt>
<totfact> 0.61115847E+02</totfact>
</mgrwt>
</event>
<event>
 4    1  0.5863356E-005  0.7629224E+03  0.7818608E-02  0.9615292E-01
         -2   -1    0    0    0  501 -0.00000000000E+00  0.00000000000E+00  0.35563638910E+03  0.35563638911E+03  0.25500000000E-02 0. -1.
          2   -1    0    0  501    0  0.00000000000E+00 -0.00000000000E+00 -0.40916129376E+03  0.40916129377E+03  0.25500000000E-02 0.  1.
    5000001    1    1    2    0    0  0.26847802157E+03  0.99052276891E+02 -0.19073971755E+03  0.39387490587E+03  0.19200000000E+03 0.  0.
   -5000001    1    1    2    0    0 -0.26847802157E+03 -0.99052276891E+02  0.13721481289E+03  0.37092277700E+03  0.19200000000E+03 0.  0.
<mgrwt>
<rscale>  0 0.76292239E+03</rscale>
<asrwt>0</asrwt>
<pdfrwt beam="1">  1        2 0.58451614E-01 0.76292239E+03</pdfrwt>
<pdfrwt beam="2">  1       -2 0.50805198E-01 0.76292239E+03</pdfrwt>
<totfact> 0.31102203E+02</totfact>
</mgrwt>
</event>
<event>
 4    1  0.5863356E-005  0.4144642E+03  0.7818608E-02  0.1038883E+00
         -2   -1    0    0    0  501 -0.00000000000E+00  0.00000000000E+00  0.13389076737E+02  0.13389076980E+02  0.25500000000E-02 0. -1.
          2   -1    0    0  501    0  0.00000000000E+00 -0.00000000000E+00 -0.32074762700E+04  0.32074762700E+04  0.25500000000E-02 0.  1.
    5000001    1    1    2    0    0  0.30312513513E+02  0.57478335577E+02 -0.19320640655E+04  0.19426677948E+04  0.19200000000E+03 0.  0.
   -5000001    1    1    2    0    0 -0.30312513513E+02 -0.57478335577E+02 -0.12620231278E+04  0.12781975522E+04  0.19200000000E+03 0.  0.
<mgrwt>
<rscale>  0 0.41446421E+03</rscale>
<asrwt>0</asrwt>
<pdfrwt beam="1">  1        2 0.45821041E+00 0.41446421E+03</pdfrwt>
<pdfrwt beam="2">  1       -2 0.19127273E-02 0.41446421E+03</pdfrwt>
<totfact> 0.17424723E+03</totfact>
</mgrwt>
</event>
<event>
 4    1  0.5863356E-005  0.7608467E+03  0.7818608E-02  0.9618486E-01
         -2   -1    0    0    0  501 -0.00000000000E+00  0.00000000000E+00  0.15252025684E+03  0.15252025686E+03  0.25500000000E-02 0. -1.
          2   -1    0    0  501    0  0.00000000000E+00 -0.00000000000E+00 -0.94887029082E+03  0.94887029082E+03  0.25500000000E-02 0.  1.
    5000001    1    1    2    0    0  0.32463966083E+03  0.49374773071E+02 -0.39035767142E+03  0.54504301595E+03  0.19200000000E+03 0.  0.
   -5000001    1    1    2    0    0 -0.32463966083E+03 -0.49374773071E+02 -0.40599236256E+03  0.55634753172E+03  0.19200000000E+03 0.  0.
<mgrwt>
<rscale>  0 0.76084674E+03</rscale>
<asrwt>0</asrwt>
<pdfrwt beam="1">  1        2 0.13555290E+00 0.76084674E+03</pdfrwt>
<pdfrwt beam="2">  1       -2 0.21788609E-01 0.76084674E+03</pdfrwt>
<totfact> 0.55643518E+02</totfact>
</mgrwt>
</event>
<event>
 4    1  0.5863356E-005  0.5927346E+03  0.7818608E-02  0.9920595E-01
          2   -1    0    0  501    0  0.00000000000E+00  0.00000000000E+00  0.44948200462E+03  0.44948200463E+03  0.25500000000E-02 0.  1.
         -2   -1    0    0    0  501 -0.00000000000E+00 -0.00000000000E+00 -0.19541066429E+03  0.19541066431E+03  0.25500000000E-02 0. -1.
    5000001    1    1    2    0    0 -0.14916811584E+03  0.16819630544E+03  0.14955621222E+03  0.33131885633E+03  0.19200000000E+03 0.  0.
   -5000001    1    1    2    0    0  0.14916811584E+03 -0.16819630544E+03  0.10451512811E+03  0.31357381260E+03  0.19200000000E+03 0.  0.
<mgrwt>
<rscale>  0 0.59273460E+03</rscale>
<asrwt>0</asrwt>
<pdfrwt beam="1">  1        2 0.64211714E-01 0.59273460E+03</pdfrwt>
<pdfrwt beam="2">  1       -2 0.27915810E-01 0.59273460E+03</pdfrwt>
<totfact> 0.89089046E+02</totfact>
</mgrwt>
</event>
<event>
 4    1  0.5863356E-005  0.1025582E+04  0.7818608E-02  0.9280923E-01
         -2   -1    0    0    0  501 -0.00000000000E+00  0.00000000000E+00  0.28048691733E+03  0.28048691734E+03  0.25500000000E-02 0. -1.
          2   -1    0    0  501    0  0.00000000000E+00 -0.00000000000E+00 -0.93749368902E+03  0.93749368902E+03  0.25500000000E-02 0.  1.
    5000001    1    1    2    0    0  0.35347740287E+03 -0.21547012062E+03 -0.50703985566E+02  0.45913891294E+03  0.19200000000E+03 0.  0.
   -5000001    1    1    2    0    0 -0.35347740287E+03  0.21547012062E+03 -0.60630278613E+03  0.75884169343E+03  0.19200000000E+03 0.  0.
<mgrwt>
<rscale>  0 0.10255822E+04</rscale>
<asrwt>0</asrwt>
<pdfrwt beam="1">  1        2 0.13392767E+00 0.10255822E+04</pdfrwt>
<pdfrwt beam="2">  1       -2 0.40069560E-01 0.10255822E+04</pdfrwt>
<totfact> 0.18043980E+02</totfact>
</mgrwt>
</event>
<event>
 4    1  0.5863356E-005  0.6326878E+03  0.7818608E-02  0.9839818E-01
         -2   -1    0    0    0  501 -0.00000000000E+00  0.00000000000E+00  0.17488954372E+03  0.17488954374E+03  0.25500000000E-02 0. -1.
          2   -1    0    0  501    0  0.00000000000E+00 -0.00000000000E+00 -0.57220952425E+03  0.57220952426E+03  0.25500000000E-02 0.  1.
    5000001    1    1    2    0    0 -0.15316243735E+03  0.95526634332E+02  0.79872298660E+01  0.26365103057E+03  0.19200000000E+03 0.  0.
   -5000001    1    1    2    0    0  0.15316243735E+03 -0.95526634332E+02 -0.40530721040E+03  0.48344803742E+03  0.19200000000E+03 0.  0.
<mgrwt>
<rscale>  0 0.63268780E+03</rscale>
<asrwt>0</asrwt>
<pdfrwt beam="1">  1        2 0.81744217E-01 0.63268780E+03</pdfrwt>
<pdfrwt beam="2">  1       -2 0.24984221E-01 0.63268780E+03</pdfrwt>
<totfact> 0.82614521E+02</totfact>
</mgrwt>
</event>
<event>
 4    1  0.5863356E-005  0.8768527E+03  0.7818608E-02  0.9454988E-01
         -2   -1    0    0    0  501 -0.00000000000E+00  0.00000000000E+00  0.11208364797E+03  0.11208364800E+03  0.25500000000E-02 0. -1.
          2   -1    0    0  501    0  0.00000000000E+00 -0.00000000000E+00 -0.17149481433E+04  0.17149481433E+04  0.25500000000E-02 0.  1.
    5000001    1    1    2    0    0  0.28175816218E+03 -0.26683388006E+03 -0.65759176698E+03  0.78732389364E+03  0.19200000000E+03 0.  0.
   -5000001    1    1    2    0    0 -0.28175816218E+03  0.26683388006E+03 -0.94527272840E+03  0.10397078977E+04  0.19200000000E+03 0.  0.
<mgrwt>
<rscale>  0 0.87685265E+03</rscale>
<asrwt>0</asrwt>
<pdfrwt beam="1">  1        2 0.24499258E+00 0.87685265E+03</pdfrwt>
<pdfrwt beam="2">  1       -2 0.16011951E-01 0.87685265E+03</pdfrwt>
<totfact> 0.35548491E+02</totfact>
</mgrwt>
</event>
<event>
 4    1  0.5863356E-005  0.1169695E+04  0.7818608E-02  0.9139804E-01
         -2   -1    0    0    0  501 -0.00000000000E+00  0.00000000000E+00  0.44686003836E+03  0.44686003836E+03  0.25500000000E-02 0. -1.
          2   -1    0    0  501    0  0.00000000000E+00 -0.00000000000E+00 -0.76544417662E+03  0.76544417663E+03  0.25500000000E-02 0.  1.
    5000001    1    1    2    0    0 -0.53949695658E+03  0.42087868659E+02 -0.44094334379E+02  0.57587903692E+03  0.19200000000E+03 0.  0.
   -5000001    1    1    2    0    0  0.53949695658E+03 -0.42087868659E+02 -0.27448980389E+03  0.63642517807E+03  0.19200000000E+03 0.  0.
<mgrwt>
<rscale>  0 0.11696947E+04</rscale>
<asrwt>0</asrwt>
<pdfrwt beam="1">  1        2 0.10934917E+00 0.11696947E+04</pdfrwt>
<pdfrwt beam="2">  1       -2 0.63837149E-01 0.11696947E+04</pdfrwt>
<totfact> 0.90344088E+01</totfact>
</mgrwt>
</event>
<event>
 4    1  0.5863356E-005  0.4463997E+03  0.7818608E-02  0.1028801E+00
         -2   -1    0    0    0  501 -0.00000000000E+00  0.00000000000E+00  0.88624644292E+02  0.88624644329E+02  0.25500000000E-02 0. -1.
          2   -1    0    0  501    0  0.00000000000E+00 -0.00000000000E+00 -0.56212546899E+03  0.56212546900E+03  0.25500000000E-02 0.  1.
    5000001    1    1    2    0    0  0.91418893983E+02  0.60842772185E+02 -0.28035987099E+03  0.35710630681E+03  0.19200000000E+03 0.  0.
   -5000001    1    1    2    0    0 -0.91418893983E+02 -0.60842772185E+02 -0.19314095372E+03  0.29364380652E+03  0.19200000000E+03 0.  0.
<mgrwt>
<rscale>  0 0.44639969E+03</rscale>
<asrwt>0</asrwt>
<pdfrwt beam="1">  1        2 0.80303636E-01 0.44639969E+03</pdfrwt>
<pdfrwt beam="2">  1       -2 0.12660664E-01 0.44639969E+03</pdfrwt>
<totfact> 0.27051207E+03</totfact>
</mgrwt>
</event>
<event>
 4    1  0.5863356E-005  0.6979007E+03  0.7818608E-02  0.9720829E-01
          2   -1    0    0  501    0  0.00000000000E+00  0.00000000000E+00  0.37461477524E+03  0.37461477524E+03  0.25500000000E-02 0.  1.
         -2   -1    0    0    0  501 -0.00000000000E+00 -0.00000000000E+00 -0.32504419661E+03  0.32504419662E+03  0.25500000000E-02 0. -1.
    5000001    1    1    2    0    0  0.23605587107E+03 -0.17051309204E+03  0.35071246964E+02  0.35055824222E+03  0.19200000000E+03 0.  0.
   -5000001    1    1    2    0    0 -0.23605587107E+03  0.17051309204E+03  0.14499331658E+02  0.34910072965E+03  0.19200000000E+03 0.  0.
<mgrwt>
<rscale>  0 0.69790073E+03</rscale>
<asrwt>0</asrwt>
<pdfrwt beam="1">  1        2 0.53516397E-01 0.69790073E+03</pdfrwt>
<pdfrwt beam="2">  1       -2 0.46434885E-01 0.69790073E+03</pdfrwt>
<totfact> 0.41241070E+02</totfact>
</mgrwt>
</event>
<event>
 4    1  0.5863356E-005  0.5256484E+03  0.7818608E-02  0.1007293E+00
          2   -1    0    0  501    0  0.00000000000E+00  0.00000000000E+00  0.64055171816E+03  0.64055171816E+03  0.25500000000E-02 0.  1.
         -2   -1    0    0    0  501 -0.00000000000E+00 -0.00000000000E+00 -0.10783915662E+03  0.10783915665E+03  0.25500000000E-02 0. -1.
    5000001    1    1    2    0    0  0.97549888034E+02  0.48743695258E+02  0.63400364751E+02  0.22972926399E+03  0.19200000000E+03 0.  0.
   -5000001    1    1    2    0    0 -0.97549888034E+02 -0.48743695258E+02  0.46931219679E+03  0.51866161082E+03  0.19200000000E+03 0.  0.
<mgrwt>
<rscale>  0 0.52564839E+03</rscale>
<asrwt>0</asrwt>
<pdfrwt beam="1">  1        2 0.91507387E-01 0.52564839E+03</pdfrwt>
<pdfrwt beam="2">  1       -2 0.15405594E-01 0.52564839E+03</pdfrwt>
<totfact> 0.16771814E+03</totfact>
</mgrwt>
</event>
<event>
 4    1  0.5863356E-005  0.6391582E+03  0.7818608E-02  0.9827338E-01
          2   -1    0    0  501    0  0.00000000000E+00  0.00000000000E+00  0.15574325656E+04  0.15574325656E+04  0.25500000000E-02 0.  1.
         -2   -1    0    0    0  501 -0.00000000000E+00 -0.00000000000E+00 -0.65576387850E+02  0.65576387900E+02  0.25500000000E-02 0. -1.
    5000001    1    1    2    0    0 -0.34881949799E+02 -0.25207089544E+03  0.80329108514E+03  0.86423206040E+03  0.19200000000E+03 0.  0.
   -5000001    1    1    2    0    0  0.34881949799E+02  0.25207089544E+03  0.68856509257E+03  0.75877689306E+03  0.19200000000E+03 0.  0.
<mgrwt>
<rscale>  0 0.63915820E+03</rscale>
<asrwt>0</asrwt>
<pdfrwt beam="1">  1        2 0.22249036E+00 0.63915820E+03</pdfrwt>
<pdfrwt beam="2">  1       -2 0.93680557E-02 0.63915820E+03</pdfrwt>
<totfact> 0.10554723E+03</totfact>
</mgrwt>
</event>
<event>
 4    1  0.5863356E-005  0.8148318E+03  0.7818608E-02  0.9538793E-01
         -2   -1    0    0    0  501 -0.00000000000E+00  0.00000000000E+00  0.13493137162E+03  0.13493137164E+03  0.25500000000E-02 0. -1.
          2   -1    0    0  501    0  0.00000000000E+00 -0.00000000000E+00 -0.12301640837E+04  0.12301640837E+04  0.25500000000E-02 0.  1.
    5000001    1    1    2    0    0 -0.34846492998E+03 -0.75300612270E+02 -0.62301900809E+03  0.74304419389E+03  0.19200000000E+03 0.  0.
   -5000001    1    1    2    0    0  0.34846492998E+03  0.75300612270E+02 -0.47221370400E+03  0.62205126146E+03  0.19200000000E+03 0.  0.
<mgrwt>
<rscale>  0 0.81483183E+03</rscale>
<asrwt>0</asrwt>
<pdfrwt beam="1">  1        2 0.17573772E+00 0.81483183E+03</pdfrwt>
<pdfrwt beam="2">  1       -2 0.19275911E-01 0.81483183E+03</pdfrwt>
<totfact> 0.46924389E+02</totfact>
</mgrwt>
</event>
<event>
 4    1  0.5863356E-005  0.6375963E+03  0.7818608E-02  0.9830336E-01
          2   -1    0    0  501    0  0.00000000000E+00  0.00000000000E+00  0.10382280244E+04  0.10382280244E+04  0.25500000000E-02 0.  1.
         -2   -1    0    0    0  501 -0.00000000000E+00 -0.00000000000E+00 -0.97890107877E+02  0.97890107910E+02  0.25500000000E-02 0. -1.
    5000001    1    1    2    0    0  0.50303576736E+02  0.23859358099E+03  0.60002496701E+03  0.67553779151E+03  0.19200000000E+03 0.  0.
   -5000001    1    1    2    0    0 -0.50303576736E+02 -0.23859358099E+03  0.34031294949E+03  0.46058034078E+03  0.19200000000E+03 0.  0.
<mgrwt>
<rscale>  0 0.63759628E+03</rscale>
<asrwt>0</asrwt>
<pdfrwt beam="1">  1        2 0.14831830E+00 0.63759628E+03</pdfrwt>
<pdfrwt beam="2">  1       -2 0.13984300E-01 0.63759628E+03</pdfrwt>
<totfact> 0.10547404E+03</totfact>
</mgrwt>
</event>
<event>
 4    1  0.5863356E-005  0.1122927E+04  0.7818608E-02  0.9183129E-01
          2   -1    0    0  501    0  0.00000000000E+00  0.00000000000E+00  0.70663217640E+03  0.70663217641E+03  0.25500000000E-02 0.  1.
         -2   -1    0    0    0  501 -0.00000000000E+00 -0.00000000000E+00 -0.44611821525E+03  0.44611821526E+03  0.25500000000E-02 0. -1.
    5000001    1    1    2    0    0 -0.46918943779E+03 -0.11670678361E+03 -0.86583334448E+02  0.52737071939E+03  0.19200000000E+03 0.  0.
   -5000001    1    1    2    0    0  0.46918943779E+03  0.11670678361E+03  0.34709729560E+03  0.62537967227E+03  0.19200000000E+03 0.  0.
<mgrwt>
<rscale>  0 0.11229274E+04</rscale>
<asrwt>0</asrwt>
<pdfrwt beam="1">  1        2 0.10094745E+00 0.11229274E+04</pdfrwt>
<pdfrwt beam="2">  1       -2 0.63731175E-01 0.11229274E+04</pdfrwt>
<totfact> 0.10054296E+02</totfact>
</mgrwt>
</event>
<event>
 4    1  0.5863356E-005  0.4614372E+03  0.7818608E-02  0.1024365E+00
         -2   -1    0    0    0  501 -0.00000000000E+00  0.00000000000E+00  0.38335579141E+03  0.38335579142E+03  0.25500000000E-02 0. -1.
          2   -1    0    0  501    0  0.00000000000E+00 -0.00000000000E+00 -0.13885551810E+03  0.13885551812E+03  0.25500000000E-02 0.  1.
    5000001    1    1    2    0    0  0.36646520993E+02 -0.12197157155E+03  0.10852728220E+03  0.25468058966E+03  0.19200000000E+03 0.  0.
   -5000001    1    1    2    0    0 -0.36646520993E+02  0.12197157155E+03  0.13597299112E+03  0.26753071988E+03  0.19200000000E+03 0.  0.
<mgrwt>
<rscale>  0 0.46143718E+03</rscale>
<asrwt>0</asrwt>
<pdfrwt beam="1">  1        2 0.19836503E-01 0.46143718E+03</pdfrwt>
<pdfrwt beam="2">  1       -2 0.54765113E-01 0.46143718E+03</pdfrwt>
<totfact> 0.90243190E+02</totfact>
</mgrwt>
</event>
<event>
 4    1  0.5863356E-005  0.4619433E+03  0.7818608E-02  0.1024219E+00
          2   -1    0    0  501    0  0.00000000000E+00  0.00000000000E+00  0.45776204230E+03  0.45776204231E+03  0.25500000000E-02 0.  1.
         -2   -1    0    0    0  501 -0.00000000000E+00 -0.00000000000E+00 -0.11654066933E+03  0.11654066936E+03  0.25500000000E-02 0. -1.
    5000001    1    1    2    0    0 -0.83836467857E+02  0.95293972758E+02  0.14655486015E+03  0.27285861104E+03  0.19200000000E+03 0.  0.
   -5000001    1    1    2    0    0  0.83836467857E+02 -0.95293972758E+02  0.19466651282E+03  0.30144410062E+03  0.19200000000E+03 0.  0.
<mgrwt>
<rscale>  0 0.46194326E+03</rscale>
<asrwt>0</asrwt>
<pdfrwt beam="1">  1        2 0.65394577E-01 0.46194326E+03</pdfrwt>
<pdfrwt beam="2">  1       -2 0.16648667E-01 0.46194326E+03</pdfrwt>
<totfact> 0.21621171E+03</totfact>
</mgrwt>
</event>
<event>
 4    1  0.5863356E-005  0.5878300E+03  0.7818608E-02  0.9930982E-01
         -2   -1    0    0    0  501 -0.00000000000E+00  0.00000000000E+00  0.10208825639E+03  0.10208825642E+03  0.25500000000E-02 0. -1.
          2   -1    0    0  501    0  0.00000000000E+00 -0.00000000000E+00 -0.84618972783E+03  0.84618972783E+03  0.25500000000E-02 0.  1.
    5000001    1    1    2    0    0  0.97085507617E+02 -0.15652225333E+03 -0.17058205811E+03  0.31604912613E+03  0.19200000000E+03 0.  0.
   -5000001    1    1    2    0    0 -0.97085507617E+02  0.15652225333E+03 -0.57351941333E+03  0.63222885813E+03  0.19200000000E+03 0.  0.
<mgrwt>
<rscale>  0 0.58783002E+03</rscale>
<asrwt>0</asrwt>
<pdfrwt beam="1">  1        2 0.12088424E+00 0.58783002E+03</pdfrwt>
<pdfrwt beam="2">  1       -2 0.14584037E-01 0.58783002E+03</pdfrwt>
<totfact> 0.13009128E+03</totfact>
</mgrwt>
</event>
<event>
 4    1  0.5863356E-005  0.6687994E+03  0.7818608E-02  0.9772129E-01
          2   -1    0    0  501    0  0.00000000000E+00  0.00000000000E+00  0.85126084368E+03  0.85126084368E+03  0.25500000000E-02 0.  1.
         -2   -1    0    0    0  501 -0.00000000000E+00 -0.00000000000E+00 -0.13136180572E+03  0.13136180575E+03  0.25500000000E-02 0. -1.
    5000001    1    1    2    0    0 -0.17304176779E+03  0.14883764506E+03  0.13779349021E+03  0.32855310671E+03  0.19200000000E+03 0.  0.
   -5000001    1    1    2    0    0  0.17304176779E+03 -0.14883764506E+03  0.58210554774E+03  0.65406954271E+03  0.19200000000E+03 0.  0.
<mgrwt>
<rscale>  0 0.66879941E+03</rscale>
<asrwt>0</asrwt>
<pdfrwt beam="1">  1        2 0.12160869E+00 0.66879941E+03</pdfrwt>
<pdfrwt beam="2">  1       -2 0.18765972E-01 0.66879941E+03</pdfrwt>
<totfact> 0.83868367E+02</totfact>
</mgrwt>
</event>
<event>
 4    1  0.5863356E-005  0.4267858E+03  0.7818608E-02  0.1034880E+00
         -2   -1    0    0    0  501 -0.00000000000E+00  0.00000000000E+00  0.40645270826E+02  0.40645270906E+02  0.25500000000E-02 0. -1.
          2   -1    0    0  501    0  0.00000000000E+00 -0.00000000000E+00 -0.11203399429E+04  0.11203399430E+04  0.25500000000E-02 0.  1.
    5000001    1    1    2    0    0  0.87832101777E+02  0.30262172875E+02 -0.52216680255E+03  0.56405003935E+03  0.19200000000E+03 0.  0.
   -5000001    1    1    2    0    0 -0.87832101777E+02 -0.30262172875E+02 -0.55752786957E+03  0.59693517450E+03  0.19200000000E+03 0.  0.
<mgrwt>
<rscale>  0 0.42678576E+03</rscale>
<asrwt>0</asrwt>
<pdfrwt beam="1">  1        2 0.16004854E+00 0.42678576E+03</pdfrwt>
<pdfrwt beam="2">  1       -2 0.58064680E-02 0.42678576E+03</pdfrwt>
<totfact> 0.38811903E+03</totfact>
</mgrwt>
</event>
<event>
 4    1  0.5863356E-005  0.7341693E+03  0.7818608E-02  0.9660519E-01
         -2   -1    0    0    0  501 -0.00000000000E+00  0.00000000000E+00  0.61059156007E+02  0.61059156060E+02  0.25500000000E-02 0. -1.
          2   -1    0    0  501    0  0.00000000000E+00 -0.00000000000E+00 -0.22068948201E+04  0.22068948201E+04  0.25500000000E-02 0.  1.
    5000001    1    1    2    0    0  0.10529894381E+02 -0.24997305472E+03 -0.16532306766E+04  0.16830428030E+04  0.19200000000E+03 0.  0.
   -5000001    1    1    2    0    0 -0.10529894381E+02  0.24997305472E+03 -0.49260498751E+03  0.58491117315E+03  0.19200000000E+03 0.  0.
<mgrwt>
<rscale>  0 0.73416929E+03</rscale>
<asrwt>0</asrwt>
<pdfrwt beam="1">  1        2 0.31527064E+00 0.73416929E+03</pdfrwt>
<pdfrwt beam="2">  1       -2 0.87227379E-02 0.73416929E+03</pdfrwt>
<totfact> 0.55112833E+02</totfact>
</mgrwt>
</event>
<event>
 4    1  0.5863356E-005  0.4345149E+03  0.7818608E-02  0.1032443E+00
          2   -1    0    0  501    0  0.00000000000E+00  0.00000000000E+00  0.57294328783E+03  0.57294328783E+03  0.25500000000E-02 0.  1.
         -2   -1    0    0    0  501 -0.00000000000E+00 -0.00000000000E+00 -0.82383011548E+02  0.82383011587E+02  0.25500000000E-02 0. -1.
    5000001    1    1    2    0    0  0.71121820772E+02  0.60925683319E+02  0.18558707473E+03  0.28297847018E+03  0.19200000000E+03 0.  0.
   -5000001    1    1    2    0    0 -0.71121820772E+02 -0.60925683319E+02  0.30497320155E+03  0.37234782924E+03  0.19200000000E+03 0.  0.
<mgrwt>
<rscale>  0 0.43451487E+03</rscale>
<asrwt>0</asrwt>
<pdfrwt beam="1">  1        2 0.81849038E-01 0.43451487E+03</pdfrwt>
<pdfrwt beam="2">  1       -2 0.11769002E-01 0.43451487E+03</pdfrwt>
<totfact> 0.29815740E+03</totfact>
</mgrwt>
</event>
<event>
 4    1  0.5863356E-005  0.6562339E+03  0.7818608E-02  0.9795151E-01
          2   -1    0    0  501    0  0.00000000000E+00  0.00000000000E+00  0.31569341759E+04  0.31569341759E+04  0.25500000000E-02 0.  1.
         -2   -1    0    0    0  501 -0.00000000000E+00 -0.00000000000E+00 -0.34102941222E+02  0.34102941317E+02  0.25500000000E-02 0. -1.
    5000001    1    1    2    0    0  0.63797480825E+02  0.10587308284E+03  0.41567007033E+03  0.47426241217E+03  0.19200000000E+03 0.  0.
   -5000001    1    1    2    0    0 -0.63797480825E+02 -0.10587308284E+03  0.27071611644E+04  0.27167747051E+04  0.19200000000E+03 0.  0.
<mgrwt>
<rscale>  0 0.65623392E+03</rscale>
<asrwt>0</asrwt>
<pdfrwt beam="1">  1        2 0.45099064E+00 0.65623392E+03</pdfrwt>
<pdfrwt beam="2">  1       -2 0.48718483E-02 0.65623392E+03</pdfrwt>
<totfact> 0.43906327E+02</totfact>
</mgrwt>
</event>
<event>
 4    1  0.5863356E-005  0.1324044E+04  0.7818608E-02  0.9010712E-01
         -2   -1    0    0    0  501 -0.00000000000E+00  0.00000000000E+00  0.12308415298E+03  0.12308415300E+03  0.25500000000E-02 0. -1.
          2   -1    0    0  501    0  0.00000000000E+00 -0.00000000000E+00 -0.35607593618E+04  0.35607593618E+04  0.25500000000E-02 0.  1.
    5000001    1    1    2    0    0 -0.22855885405E+03 -0.58521303413E+03 -0.19465012607E+04  0.20543720702E+04  0.19200000000E+03 0.  0.
   -5000001    1    1    2    0    0  0.22855885405E+03  0.58521303413E+03 -0.14911739482E+04  0.16294714446E+04  0.19200000000E+03 0.  0.
<mgrwt>
<rscale>  0 0.13240439E+04</rscale>
<asrwt>0</asrwt>
<pdfrwt beam="1">  1        2 0.50867985E+00 0.13240439E+04</pdfrwt>
<pdfrwt beam="2">  1       -2 0.17583453E-01 0.13240439E+04</pdfrwt>
<totfact> 0.29380931E+01</totfact>
</mgrwt>
</event>
<event>
 4    1  0.5863356E-005  0.6282055E+03  0.7818608E-02  0.9848557E-01
          2   -1    0    0  501    0  0.00000000000E+00  0.00000000000E+00  0.13389454652E+03  0.13389454654E+03  0.25500000000E-02 0.  1.
         -2   -1    0    0    0  501 -0.00000000000E+00 -0.00000000000E+00 -0.73685264688E+03  0.73685264688E+03  0.25500000000E-02 0. -1.
    5000001    1    1    2    0    0  0.93026582057E+02 -0.23052673544E+03 -0.30172030954E+03  0.43554065931E+03  0.19200000000E+03 0.  0.
   -5000001    1    1    2    0    0 -0.93026582057E+02  0.23052673544E+03 -0.30123779082E+03  0.43520653412E+03  0.19200000000E+03 0.  0.
<mgrwt>
<rscale>  0 0.62820554E+03</rscale>
<asrwt>0</asrwt>
<pdfrwt beam="1">  1        2 0.19127793E-01 0.62820554E+03</pdfrwt>
<pdfrwt beam="2">  1       -2 0.10526466E+00 0.62820554E+03</pdfrwt>
<totfact> 0.22139498E+02</totfact>
</mgrwt>
</event>
<event>
 4    1  0.5863356E-005  0.7447281E+03  0.7818608E-02  0.9643658E-01
          2   -1    0    0  501    0  0.00000000000E+00  0.00000000000E+00  0.26439248904E+03  0.26439248905E+03  0.25500000000E-02 0.  1.
         -2   -1    0    0    0  501 -0.00000000000E+00 -0.00000000000E+00 -0.52442857350E+03  0.52442857351E+03  0.25500000000E-02 0. -1.
    5000001    1    1    2    0    0 -0.15566846839E+03 -0.27301502347E+03 -0.18823685969E+03  0.41360245458E+03  0.19200000000E+03 0.  0.
   -5000001    1    1    2    0    0  0.15566846839E+03  0.27301502347E+03 -0.71799224778E+02  0.37521860798E+03  0.19200000000E+03 0.  0.
<mgrwt>
<rscale>  0 0.74472807E+03</rscale>
<asrwt>0</asrwt>
<pdfrwt beam="1">  1        2 0.37770356E-01 0.74472807E+03</pdfrwt>
<pdfrwt beam="2">  1       -2 0.74918367E-01 0.74472807E+03</pdfrwt>
<totfact> 0.22171770E+02</totfact>
</mgrwt>
</event>
<event>
 4    1  0.5863356E-005  0.8557669E+03  0.7818608E-02  0.9482629E-01
         -2   -1    0    0    0  501 -0.00000000000E+00  0.00000000000E+00  0.10583396358E+03  0.10583396361E+03  0.25500000000E-02 0. -1.
          2   -1    0    0  501    0  0.00000000000E+00 -0.00000000000E+00 -0.17299197340E+04  0.17299197340E+04  0.25500000000E-02 0.  1.
    5000001    1    1    2    0    0 -0.35524064822E+03 -0.78234404369E+02 -0.55909884787E+03  0.69409802036E+03  0.19200000000E+03 0.  0.
   -5000001    1    1    2    0    0  0.35524064822E+03  0.78234404369E+02 -0.10649869225E+04  0.11416556772E+04  0.19200000000E+03 0.  0.
<mgrwt>
<rscale>  0 0.85576694E+03</rscale>
<asrwt>0</asrwt>
<pdfrwt beam="1">  1        2 0.24713137E+00 0.85576694E+03</pdfrwt>
<pdfrwt beam="2">  1       -2 0.15119139E-01 0.85576694E+03</pdfrwt>
<totfact> 0.38552908E+02</totfact>
</mgrwt>
</event>
<event>
 4    1  0.5863356E-005  0.4504679E+03  0.7818608E-02  0.1027583E+00
         -2   -1    0    0    0  501 -0.00000000000E+00  0.00000000000E+00  0.76354768150E+02  0.76354768192E+02  0.25500000000E-02 0. -1.
          2   -1    0    0  501    0  0.00000000000E+00 -0.00000000000E+00 -0.66440279547E+03  0.66440279548E+03  0.25500000000E-02 0.  1.
    5000001    1    1    2    0    0  0.81646856090E+02  0.64730995560E+02 -0.38424265850E+03  0.44199856505E+03  0.19200000000E+03 0.  0.
   -5000001    1    1    2    0    0 -0.81646856090E+02 -0.64730995560E+02 -0.20380536883E+03  0.29875899862E+03  0.19200000000E+03 0.  0.
<mgrwt>
<rscale>  0 0.45046785E+03</rscale>
<asrwt>0</asrwt>
<pdfrwt beam="1">  1        2 0.94914681E-01 0.45046785E+03</pdfrwt>
<pdfrwt beam="2">  1       -2 0.10907824E-01 0.45046785E+03</pdfrwt>
<totfact> 0.28373965E+03</totfact>
</mgrwt>
</event>
<event>
 4    1  0.5863356E-005  0.3984147E+03  0.7818608E-02  0.1044330E+00
         -2   -1    0    0    0  501 -0.00000000000E+00  0.00000000000E+00  0.66762004544E+02  0.66762004593E+02  0.25500000000E-02 0. -1.
          2   -1    0    0  501    0  0.00000000000E+00 -0.00000000000E+00 -0.59440361260E+03  0.59440361260E+03  0.25500000000E-02 0.  1.
    5000001    1    1    2    0    0  0.97060298059E+00  0.51281988831E+02 -0.24101911872E+03  0.31238597926E+03  0.19200000000E+03 0.  0.
   -5000001    1    1    2    0    0 -0.97060298059E+00 -0.51281988831E+02 -0.28662248934E+03  0.34877963794E+03  0.19200000000E+03 0.  0.
<mgrwt>
<rscale>  0 0.39841474E+03</rscale>
<asrwt>0</asrwt>
<pdfrwt beam="1">  1        2 0.84914799E-01 0.39841474E+03</pdfrwt>
<pdfrwt beam="2">  1       -2 0.95374295E-02 0.39841474E+03</pdfrwt>
<totfact> 0.40074805E+03</totfact>
</mgrwt>
</event>
<event>
 4    1  0.5863356E-005  0.1206740E+04  0.7818608E-02  0.9106977E-01
         -2   -1    0    0    0  501 -0.00000000000E+00  0.00000000000E+00  0.52227426769E+03  0.52227426769E+03  0.25500000000E-02 0. -1.
          2   -1    0    0  501    0  0.00000000000E+00 -0.00000000000E+00 -0.69705793799E+03  0.69705793800E+03  0.25500000000E-02 0.  1.
    5000001    1    1    2    0    0  0.38699582063E+03  0.16818645679E+03 -0.47760675680E+03  0.66560097924E+03  0.19200000000E+03 0.  0.
   -5000001    1    1    2    0    0 -0.38699582063E+03 -0.16818645679E+03  0.30282308649E+03  0.55373122645E+03  0.19200000000E+03 0.  0.
<mgrwt>
<rscale>  0 0.12067401E+04</rscale>
<asrwt>0</asrwt>
<pdfrwt beam="1">  1        2 0.99579704E-01 0.12067401E+04</pdfrwt>
<pdfrwt beam="2">  1       -2 0.74610610E-01 0.12067401E+04</pdfrwt>
<totfact> 0.72178599E+01</totfact>
</mgrwt>
</event>
<event>
 4    1  0.5863356E-005  0.4108370E+03  0.7818608E-02  0.1040091E+00
         -2   -1    0    0    0  501 -0.00000000000E+00  0.00000000000E+00  0.11839658789E+03  0.11839658792E+03  0.25500000000E-02 0. -1.
          2   -1    0    0  501    0  0.00000000000E+00 -0.00000000000E+00 -0.35640180429E+03  0.35640180430E+03  0.25500000000E-02 0.  1.
    5000001    1    1    2    0    0  0.63639344623E+02  0.31020794969E+02 -0.13969233895E+03  0.24777046932E+03  0.19200000000E+03 0.  0.
   -5000001    1    1    2    0    0 -0.63639344623E+02 -0.31020794969E+02 -0.98312877455E+02  0.22702792290E+03  0.19200000000E+03 0.  0.
<mgrwt>
<rscale>  0 0.41083699E+03</rscale>
<asrwt>0</asrwt>
<pdfrwt beam="1">  1        2 0.50914543E-01 0.41083699E+03</pdfrwt>
<pdfrwt beam="2">  1       -2 0.16913798E-01 0.41083699E+03</pdfrwt>
<totfact> 0.27698101E+03</totfact>
</mgrwt>
</event>
<event>
 4    1  0.5863356E-005  0.8566795E+03  0.7818608E-02  0.9481416E-01
         -2   -1    0    0    0  501 -0.00000000000E+00  0.00000000000E+00  0.37261556276E+03  0.37261556277E+03  0.25500000000E-02 0. -1.
          2   -1    0    0  501    0  0.00000000000E+00 -0.00000000000E+00 -0.49239743177E+03  0.49239743178E+03  0.25500000000E-02 0.  1.
    5000001    1    1    2    0    0 -0.23977386641E+01 -0.38151958876E+03 -0.27203188616E+02  0.42798009210E+03  0.19200000000E+03 0.  0.
   -5000001    1    1    2    0    0  0.23977386641E+01  0.38151958876E+03 -0.92578680398E+02  0.43703290245E+03  0.19200000000E+03 0.  0.
<mgrwt>
<rscale>  0 0.85667951E+03</rscale>
<asrwt>0</asrwt>
<pdfrwt beam="1">  1        2 0.70342490E-01 0.85667951E+03</pdfrwt>
<pdfrwt beam="2">  1       -2 0.53230795E-01 0.85667951E+03</pdfrwt>
<totfact> 0.22845116E+02</totfact>
</mgrwt>
</event>
<event>
 4    1  0.5863356E-005  0.1076376E+04  0.7818608E-02  0.9228528E-01
         -2   -1    0    0    0  501 -0.00000000000E+00  0.00000000000E+00  0.11819878346E+03  0.11819878348E+03  0.25500000000E-02 0. -1.
          2   -1    0    0  501    0  0.00000000000E+00 -0.00000000000E+00 -0.24505036536E+04  0.24505036536E+04  0.25500000000E-02 0.  1.
    5000001    1    1    2    0    0 -0.45409410993E+03  0.60829662386E+02 -0.67197686144E+03  0.83565460018E+03  0.19200000000E+03 0.  0.
   -5000001    1    1    2    0    0  0.45409410993E+03 -0.60829662386E+02 -0.16603280087E+04  0.17330478369E+04  0.19200000000E+03 0.  0.
<mgrwt>
<rscale>  0 0.10763764E+04</rscale>
<asrwt>0</asrwt>
<pdfrwt beam="1">  1        2 0.35007192E+00 0.10763764E+04</pdfrwt>
<pdfrwt beam="2">  1       -2 0.16885542E-01 0.10763764E+04</pdfrwt>
<totfact> 0.13438652E+02</totfact>
</mgrwt>
</event>
<event>
 4    1  0.5863356E-005  0.5397225E+03  0.7818608E-02  0.1003901E+00
         -2   -1    0    0    0  501 -0.00000000000E+00  0.00000000000E+00  0.60388002258E+02  0.60388002312E+02  0.25500000000E-02 0. -1.
          2   -1    0    0  501    0  0.00000000000E+00 -0.00000000000E+00 -0.12059532439E+04  0.12059532439E+04  0.25500000000E-02 0.  1.
    5000001    1    1    2    0    0  0.17001260550E+03  0.39076366405E+02 -0.39830601183E+03  0.47533454272E+03  0.19200000000E+03 0.  0.
   -5000001    1    1    2    0    0 -0.17001260550E+03 -0.39076366405E+02 -0.74725922980E+03  0.79100670349E+03  0.19200000000E+03 0.  0.
<mgrwt>
<rscale>  0 0.53972255E+03</rscale>
<asrwt>0</asrwt>
<pdfrwt beam="1">  1        2 0.17227902E+00 0.53972255E+03</pdfrwt>
<pdfrwt beam="2">  1       -2 0.86268582E-02 0.53972255E+03</pdfrwt>
<totfact> 0.18625055E+03</totfact>
</mgrwt>
</event>
<event>
 4    1  0.5863356E-005  0.5426402E+03  0.7818608E-02  0.1003212E+00
          2   -1    0    0  501    0  0.00000000000E+00  0.00000000000E+00  0.69634858720E+02  0.69634858766E+02  0.25500000000E-02 0.  1.
         -2   -1    0    0    0  501 -0.00000000000E+00 -0.00000000000E+00 -0.10571516324E+04  0.10571516324E+04  0.25500000000E-02 0. -1.
    5000001    1    1    2    0    0  0.19115531837E+03  0.11160778947E+02 -0.47453702133E+03  0.54654762221E+03  0.19200000000E+03 0.  0.
   -5000001    1    1    2    0    0 -0.19115531837E+03 -0.11160778947E+02 -0.51297975232E+03  0.58023886893E+03  0.19200000000E+03 0.  0.
<mgrwt>
<rscale>  0 0.54264023E+03</rscale>
<asrwt>0</asrwt>
<pdfrwt beam="1">  1        2 0.99478376E-02 0.54264023E+03</pdfrwt>
<pdfrwt beam="2">  1       -2 0.15102165E+00 0.54264023E+03</pdfrwt>
<totfact> 0.20027400E+02</totfact>
</mgrwt>
</event>
<event>
 4    1  0.5863356E-005  0.6028510E+03  0.7818608E-02  0.9899509E-01
          2   -1    0    0  501    0  0.00000000000E+00  0.00000000000E+00  0.11527671180E+04  0.11527671180E+04  0.25500000000E-02 0.  1.
         -2   -1    0    0    0  501 -0.00000000000E+00 -0.00000000000E+00 -0.78816723575E+02  0.78816723616E+02  0.25500000000E-02 0. -1.
    5000001    1    1    2    0    0  0.66384036335E+02 -0.21248610406E+03  0.40090696023E+03  0.49713939238E+03  0.19200000000E+03 0.  0.
   -5000001    1    1    2    0    0 -0.66384036335E+02  0.21248610406E+03  0.67304343423E+03  0.73444444927E+03  0.19200000000E+03 0.  0.
<mgrwt>
<rscale>  0 0.60285098E+03</rscale>
<asrwt>0</asrwt>
<pdfrwt beam="1">  1        2 0.16468101E+00 0.60285098E+03</pdfrwt>
<pdfrwt beam="2">  1       -2 0.11259532E-01 0.60285098E+03</pdfrwt>
<totfact> 0.12953769E+03</totfact>
</mgrwt>
</event>
<event>
 4    1  0.5863356E-005  0.1367217E+04  0.7818608E-02  0.8977897E-01
          2   -1    0    0  501    0  0.00000000000E+00  0.00000000000E+00  0.28807232325E+04  0.28807232325E+04  0.25500000000E-02 0.  1.
         -2   -1    0    0    0  501 -0.00000000000E+00 -0.00000000000E+00 -0.16222324485E+03  0.16222324487E+03  0.25500000000E-02 0. -1.
    5000001    1    1    2    0    0 -0.42235263700E+03 -0.33208401125E+03  0.21973330356E+04  0.22701977909E+04  0.19200000000E+03 0.  0.
   -5000001    1    1    2    0    0  0.42235263700E+03  0.33208401125E+03  0.52116695206E+03  0.77274868646E+03  0.19200000000E+03 0.  0.
<mgrwt>
<rscale>  0 0.13672165E+04</rscale>
<asrwt>0</asrwt>
<pdfrwt beam="1">  1        2 0.41153187E+00 0.13672165E+04</pdfrwt>
<pdfrwt beam="2">  1       -2 0.23174750E-01 0.13672165E+04</pdfrwt>
<totfact> 0.44399995E+01</totfact>
</mgrwt>
</event>
<event>
 4    1  0.5863356E-005  0.6062391E+03  0.7818608E-02  0.9892546E-01
          2   -1    0    0  501    0  0.00000000000E+00  0.00000000000E+00  0.84310443119E+03  0.84310443119E+03  0.25500000000E-02 0.  1.
         -2   -1    0    0    0  501 -0.00000000000E+00 -0.00000000000E+00 -0.10897993395E+03  0.10897993398E+03  0.25500000000E-02 0. -1.
    5000001    1    1    2    0    0 -0.55588372808E+02 -0.18350226190E+03  0.15487744036E+03  0.31243266290E+03  0.19200000000E+03 0.  0.
   -5000001    1    1    2    0    0  0.55588372808E+02  0.18350226190E+03  0.57924705688E+03  0.63965170227E+03  0.19200000000E+03 0.  0.
<mgrwt>
<rscale>  0 0.60623911E+03</rscale>
<asrwt>0</asrwt>
<pdfrwt beam="1">  1        2 0.12044348E+00 0.60623911E+03</pdfrwt>
<pdfrwt beam="2">  1       -2 0.15568563E-01 0.60623911E+03</pdfrwt>
<totfact> 0.11705896E+03</totfact>
</mgrwt>
</event>
<event>
 4    1  0.5863356E-005  0.5937038E+03  0.7818608E-02  0.9918555E-01
         -2   -1    0    0    0  501 -0.00000000000E+00  0.00000000000E+00  0.94923508713E+02  0.94923508747E+02  0.25500000000E-02 0. -1.
          2   -1    0    0  501    0  0.00000000000E+00 -0.00000000000E+00 -0.92833744637E+03  0.92833744637E+03  0.25500000000E-02 0.  1.
    5000001    1    1    2    0    0 -0.93373089489E+02  0.12779308336E+03 -0.69572283208E+03  0.73888014256E+03  0.19200000000E+03 0.  0.
   -5000001    1    1    2    0    0  0.93373089489E+02 -0.12779308336E+03 -0.13769110558E+03  0.28438081256E+03  0.19200000000E+03 0.  0.
<mgrwt>
<rscale>  0 0.59370379E+03</rscale>
<asrwt>0</asrwt>
<pdfrwt beam="1">  1        2 0.13261963E+00 0.59370379E+03</pdfrwt>
<pdfrwt beam="2">  1       -2 0.13560502E-01 0.59370379E+03</pdfrwt>
<totfact> 0.12988660E+03</totfact>
</mgrwt>
</event>
<event>
 4    1  0.5863356E-005  0.5547944E+03  0.7818608E-02  0.1000390E+00
         -2   -1    0    0    0  501 -0.00000000000E+00  0.00000000000E+00  0.38676364455E+02  0.38676364539E+02  0.25500000000E-02 0.  1.
          2   -1    0    0  501    0  0.00000000000E+00 -0.00000000000E+00 -0.19895668042E+04  0.19895668042E+04  0.25500000000E-02 0. -1.
    5000001    1    1    2    0    0 -0.17209048210E+02  0.14157857083E+03 -0.14891478123E+04  0.15082326909E+04  0.19200000000E+03 0.  0.
   -5000001    1    1    2    0    0  0.17209048210E+02 -0.14157857083E+03 -0.46174262750E+03  0.52001047789E+03  0.19200000000E+03 0.  0.
<mgrwt>
<rscale>  0 0.55479442E+03</rscale>
<asrwt>0</asrwt>
<pdfrwt beam="1">  1        2 0.28422376E+00 0.55479442E+03</pdfrwt>
<pdfrwt beam="2">  1       -2 0.55251962E-02 0.55479442E+03</pdfrwt>
<totfact> 0.14763098E+03</totfact>
</mgrwt>
</event>
<event>
 4    1  0.5863356E-005  0.4551082E+03  0.7818608E-02  0.1026210E+00
          2   -1    0    0  501    0  0.00000000000E+00  0.00000000000E+00  0.88212873686E+03  0.88212873686E+03  0.25500000000E-02 0.  1.
         -2   -1    0    0    0  501 -0.00000000000E+00 -0.00000000000E+00 -0.58699898668E+02  0.58699898724E+02  0.25500000000E-02 0. -1.
    5000001    1    1    2    0    0 -0.11817731570E+03 -0.29472633935E+02  0.39295425515E+03  0.45399511092E+03  0.19200000000E+03 0.  0.
   -5000001    1    1    2    0    0  0.11817731570E+03  0.29472633935E+02  0.43047458304E+03  0.48683352467E+03  0.19200000000E+03 0.  0.
<mgrwt>
<rscale>  0 0.45510820E+03</rscale>
<asrwt>0</asrwt>
<pdfrwt beam="1">  1        2 0.12601838E+00 0.45510820E+03</pdfrwt>
<pdfrwt beam="2">  1       -2 0.83857005E-02 0.45510820E+03</pdfrwt>
<totfact> 0.30379848E+03</totfact>
</mgrwt>
</event>
<event>
 4    1  0.5863356E-005  0.5242621E+03  0.7818608E-02  0.1007633E+00
         -2   -1    0    0    0  501 -0.00000000000E+00  0.00000000000E+00  0.13962870477E+03  0.13962870480E+03  0.25500000000E-02 0. -1.
          2   -1    0    0  501    0  0.00000000000E+00 -0.00000000000E+00 -0.49211007369E+03  0.49211007369E+03  0.25500000000E-02 0.  1.
    5000001    1    1    2    0    0  0.64300718960E+02  0.14527221599E+03 -0.78270744156E+02  0.26120663963E+03  0.19200000000E+03 0.  0.
   -5000001    1    1    2    0    0 -0.64300718960E+02 -0.14527221599E+03 -0.27421062476E+03  0.37053213886E+03  0.19200000000E+03 0.  0.
<mgrwt>
<rscale>  0 0.52426212E+03</rscale>
<asrwt>0</asrwt>
<pdfrwt beam="1">  1        2 0.70301438E-01 0.52426212E+03</pdfrwt>
<pdfrwt beam="2">  1       -2 0.19946958E-01 0.52426212E+03</pdfrwt>
<totfact> 0.14633176E+03</totfact>
</mgrwt>
</event>
<event>
 4    1  0.5863356E-005  0.8822779E+03  0.7818608E-02  0.9448010E-01
         -2   -1    0    0    0  501 -0.00000000000E+00  0.00000000000E+00  0.85476034971E+02  0.85476035009E+02  0.25500000000E-02 0. -1.
          2   -1    0    0  501    0  0.00000000000E+00 -0.00000000000E+00 -0.22767033731E+04  0.22767033731E+04  0.25500000000E-02 0.  1.
    5000001    1    1    2    0    0  0.24409549529E+03  0.30570476779E+03 -0.91203233301E+03  0.10107942384E+04  0.19200000000E+03 0.  0.
   -5000001    1    1    2    0    0 -0.24409549529E+03 -0.30570476779E+03 -0.12791950051E+04  0.13513851697E+04  0.19200000000E+03 0.  0.
<mgrwt>
<rscale>  0 0.88227791E+03</rscale>
<asrwt>0</asrwt>
<pdfrwt beam="1">  1        2 0.32524330E+00 0.88227791E+03</pdfrwt>
<pdfrwt beam="2">  1       -2 0.12210864E-01 0.88227791E+03</pdfrwt>
<totfact> 0.28993106E+02</totfact>
</mgrwt>
</event>
<event>
 4    1  0.5863356E-005  0.6238115E+03  0.7818608E-02  0.9857200E-01
          2   -1    0    0  501    0  0.00000000000E+00  0.00000000000E+00  0.15795122795E+04  0.15795122795E+04  0.25500000000E-02 0.  1.
         -2   -1    0    0    0  501 -0.00000000000E+00 -0.00000000000E+00 -0.61591922858E+02  0.61591922910E+02  0.25500000000E-02 0. -1.
    5000001    1    1    2    0    0  0.23233698366E+03  0.75552022845E+02  0.83016691641E+03  0.88641395027E+03  0.19200000000E+03 0.  0.
   -5000001    1    1    2    0    0 -0.23233698366E+03 -0.75552022845E+02  0.68775344028E+03  0.75469025219E+03  0.19200000000E+03 0.  0.
<mgrwt>
<rscale>  0 0.62381151E+03</rscale>
<asrwt>0</asrwt>
<pdfrwt beam="1">  1        2 0.22564462E+00 0.62381151E+03</pdfrwt>
<pdfrwt beam="2">  1       -2 0.87988458E-02 0.62381151E+03</pdfrwt>
<totfact> 0.11380310E+03</totfact>
</mgrwt>
</event>
<event>
 4    1  0.5863356E-005  0.6033746E+03  0.7818608E-02  0.9898430E-01
         -2   -1    0    0    0  501 -0.00000000000E+00  0.00000000000E+00  0.30953155604E+02  0.30953155709E+02  0.25500000000E-02 0. -1.
          2   -1    0    0  501    0  0.00000000000E+00 -0.00000000000E+00 -0.29404179944E+04  0.29404179944E+04  0.25500000000E-02 0.  1.
    5000001    1    1    2    0    0 -0.19636179327E+03 -0.82540494336E+02 -0.19161831045E+04  0.19375222778E+04  0.19200000000E+03 0.  0.
   -5000001    1    1    2    0    0  0.19636179327E+03  0.82540494336E+02 -0.99328173432E+03  0.10338488723E+04  0.19200000000E+03 0.  0.
<mgrwt>
<rscale>  0 0.60337456E+03</rscale>
<asrwt>0</asrwt>
<pdfrwt beam="1">  1        2 0.42005954E+00 0.60337456E+03</pdfrwt>
<pdfrwt beam="2">  1       -2 0.44218812E-02 0.60337456E+03</pdfrwt>
<totfact> 0.67413358E+02</totfact>
</mgrwt>
</event>
<event>
 4    1  0.5863356E-005  0.6495762E+03  0.7818608E-02  0.9807575E-01
          2   -1    0    0  501    0  0.00000000000E+00  0.00000000000E+00  0.22509111522E+04  0.22509111522E+04  0.25500000000E-02 0.  1.
         -2   -1    0    0    0  501 -0.00000000000E+00 -0.00000000000E+00 -0.46864276005E+02  0.46864276074E+02  0.25500000000E-02 0. -1.
    5000001    1    1    2    0    0  0.43507058510E+02 -0.17505103955E+03  0.43004335900E+03  0.50431837286E+03  0.19200000000E+03 0.  0.
   -5000001    1    1    2    0    0 -0.43507058510E+02  0.17505103955E+03  0.17740035172E+04  0.17934570554E+04  0.19200000000E+03 0.  0.
<mgrwt>
<rscale>  0 0.64957624E+03</rscale>
<asrwt>0</asrwt>
<pdfrwt beam="1">  1        2 0.32155874E+00 0.64957624E+03</pdfrwt>
<pdfrwt beam="2">  1       -2 0.66948964E-02 0.64957624E+03</pdfrwt>
<totfact> 0.80280363E+02</totfact>
</mgrwt>
</event>
<event>
 4    1  0.5863356E-005  0.1025317E+04  0.7818608E-02  0.9281205E-01
          2   -1    0    0  501    0  0.00000000000E+00  0.00000000000E+00  0.79811841702E+03  0.79811841703E+03  0.25500000000E-02 0.  1.
         -2   -1    0    0    0  501 -0.00000000000E+00 -0.00000000000E+00 -0.32929811134E+03  0.32929811135E+03  0.25500000000E-02 0. -1.
    5000001    1    1    2    0    0  0.13092402203E+03  0.44152719210E+03  0.36389698826E+03  0.61755354341E+03  0.19200000000E+03 0.  0.
   -5000001    1    1    2    0    0 -0.13092402203E+03 -0.44152719210E+03  0.10492331742E+03  0.50986298497E+03  0.19200000000E+03 0.  0.
<mgrwt>
<rscale>  0 0.10253173E+04</rscale>
<asrwt>0</asrwt>
<pdfrwt beam="1">  1        2 0.11401692E+00 0.10253173E+04</pdfrwt>
<pdfrwt beam="2">  1       -2 0.47042587E-01 0.10253173E+04</pdfrwt>
<totfact> 0.16273139E+02</totfact>
</mgrwt>
</event>
<event>
 4    1  0.5863356E-005  0.8839239E+03  0.7818608E-02  0.9445903E-01
         -2   -1    0    0    0  501 -0.00000000000E+00  0.00000000000E+00  0.15048846625E+04  0.15048846625E+04  0.25500000000E-02 0. -1.
          2   -1    0    0  501    0  0.00000000000E+00 -0.00000000000E+00 -0.12979755928E+03  0.12979755930E+03  0.25500000000E-02 0.  1.
    5000001    1    1    2    0    0  0.25046667813E+03  0.48498877260E+02  0.12526716984E+04  0.12927242868E+04  0.19200000000E+03 0.  0.
   -5000001    1    1    2    0    0 -0.25046667813E+03 -0.48498877260E+02  0.12241540491E+03  0.34195793500E+03  0.19200000000E+03 0.  0.
<mgrwt>
<rscale>  0 0.88392388E+03</rscale>
<asrwt>0</asrwt>
<pdfrwt beam="1">  1        2 0.18542510E-01 0.88392388E+03</pdfrwt>
<pdfrwt beam="2">  1       -2 0.21498350E+00 0.88392388E+03</pdfrwt>
<totfact> 0.33423412E+01</totfact>
</mgrwt>
</event>
<event>
 4    1  0.5863356E-005  0.8384104E+03  0.7818608E-02  0.9506025E-01
          2   -1    0    0  501    0  0.00000000000E+00  0.00000000000E+00  0.31554687150E+03  0.31554687151E+03  0.25500000000E-02 0.  1.
         -2   -1    0    0    0  501 -0.00000000000E+00 -0.00000000000E+00 -0.55691570372E+03  0.55691570373E+03  0.25500000000E-02 0. -1.
    5000001    1    1    2    0    0 -0.19153887196E+03 -0.28019720341E+03  0.39419543445E+02  0.39193814904E+03  0.19200000000E+03 0.  0.
   -5000001    1    1    2    0    0  0.19153887196E+03  0.28019720341E+03 -0.28078837567E+03  0.48052442620E+03  0.19200000000E+03 0.  0.
<mgrwt>
<rscale>  0 0.83841042E+03</rscale>
<asrwt>0</asrwt>
<pdfrwt beam="1">  1        2 0.45078125E-01 0.83841042E+03</pdfrwt>
<pdfrwt beam="2">  1       -2 0.79559386E-01 0.83841042E+03</pdfrwt>
<totfact> 0.15874396E+02</totfact>
</mgrwt>
</event>
<event>
 4    1  0.5863356E-005  0.6783620E+03  0.7818608E-02  0.9754969E-01
         -2   -1    0    0    0  501 -0.00000000000E+00  0.00000000000E+00  0.89065733668E+02  0.89065733704E+02  0.25500000000E-02 0. -1.
          2   -1    0    0  501    0  0.00000000000E+00 -0.00000000000E+00 -0.12916725425E+04  0.12916725425E+04  0.25500000000E-02 0.  1.
    5000001    1    1    2    0    0  0.90374122816E+02  0.18400371970E+03 -0.98832347052E+03  0.10274590665E+04  0.19200000000E+03 0.  0.
   -5000001    1    1    2    0    0 -0.90374122816E+02 -0.18400371970E+03 -0.21428333832E+03  0.35327920972E+03  0.19200000000E+03 0.  0.
<mgrwt>
<rscale>  0 0.67836204E+03</rscale>
<asrwt>0</asrwt>
<pdfrwt beam="1">  1        2 0.18452464E+00 0.67836204E+03</pdfrwt>
<pdfrwt beam="2">  1       -2 0.12723677E-01 0.67836204E+03</pdfrwt>
<totfact> 0.88377004E+02</totfact>
</mgrwt>
</event>
<event>
 4    1  0.5863356E-005  0.6983289E+03  0.7818608E-02  0.9720094E-01
          2   -1    0    0  501    0  0.00000000000E+00  0.00000000000E+00  0.19641798913E+04  0.19641798913E+04  0.25500000000E-02 0.  1.
         -2   -1    0    0    0  501 -0.00000000000E+00 -0.00000000000E+00 -0.62069571996E+02  0.62069572049E+02  0.25500000000E-02 0. -1.
    5000001    1    1    2    0    0 -0.65509567919E+02 -0.26557907972E+03  0.65760833060E+03  0.73765606318E+03  0.19200000000E+03 0.  0.
   -5000001    1    1    2    0    0  0.65509567919E+02  0.26557907972E+03  0.12445019887E+04  0.12885934002E+04  0.19200000000E+03 0.  0.
<mgrwt>
<rscale>  0 0.69832888E+03</rscale>
<asrwt>0</asrwt>
<pdfrwt beam="1">  1        2 0.28059719E+00 0.69832888E+03</pdfrwt>
<pdfrwt beam="2">  1       -2 0.88670796E-02 0.69832888E+03</pdfrwt>
<totfact> 0.71365302E+02</totfact>
</mgrwt>
</event>
<event>
 4    1  0.5863356E-005  0.4888157E+03  0.7818608E-02  0.1016740E+00
         -2   -1    0    0    0  501 -0.00000000000E+00  0.00000000000E+00  0.45854212410E+02  0.45854212481E+02  0.25500000000E-02 0. -1.
          2   -1    0    0  501    0  0.00000000000E+00 -0.00000000000E+00 -0.13027201174E+04  0.13027201174E+04  0.25500000000E-02 0.  1.
    5000001    1    1    2    0    0  0.47801797415E+02 -0.81113830993E+02 -0.30192163363E+03  0.36997991604E+03  0.19200000000E+03 0.  0.
   -5000001    1    1    2    0    0 -0.47801797415E+02  0.81113830993E+02 -0.95494427136E+03  0.97859441385E+03  0.19200000000E+03 0.  0.
<mgrwt>
<rscale>  0 0.48881573E+03</rscale>
<asrwt>0</asrwt>
<pdfrwt beam="1">  1        2 0.18610285E+00 0.48881573E+03</pdfrwt>
<pdfrwt beam="2">  1       -2 0.65506026E-02 0.48881573E+03</pdfrwt>
<totfact> 0.25500614E+03</totfact>
</mgrwt>
</event>
<event>
 4    1  0.5863356E-005  0.6087850E+03  0.7818608E-02  0.9887346E-01
         -2   -1    0    0    0  501 -0.00000000000E+00  0.00000000000E+00  0.16547569836E+03  0.16547569838E+03  0.25500000000E-02 0. -1.
          2   -1    0    0  501    0  0.00000000000E+00 -0.00000000000E+00 -0.55992998534E+03  0.55992998534E+03  0.25500000000E-02 0.  1.
    5000001    1    1    2    0    0  0.17744063640E+03  0.15578561391E+03 -0.19003140394E+03  0.35879001021E+03  0.19200000000E+03 0.  0.
   -5000001    1    1    2    0    0 -0.17744063640E+03 -0.15578561391E+03 -0.20442288304E+03  0.36661567350E+03  0.19200000000E+03 0.  0.
<mgrwt>
<rscale>  0 0.60878504E+03</rscale>
<asrwt>0</asrwt>
<pdfrwt beam="1">  1        2 0.79989997E-01 0.60878504E+03</pdfrwt>
<pdfrwt beam="2">  1       -2 0.23639386E-01 0.60878504E+03</pdfrwt>
<totfact> 0.93581743E+02</totfact>
</mgrwt>
</event>
<event>
 4    1  0.5863356E-005  0.6071593E+03  0.7818608E-02  0.9890663E-01
         -2   -1    0    0    0  501 -0.00000000000E+00  0.00000000000E+00  0.51340398371E+02  0.51340398435E+02  0.25500000000E-02 0. -1.
          2   -1    0    0  501    0  0.00000000000E+00 -0.00000000000E+00 -0.17950891763E+04  0.17950891763E+04  0.25500000000E-02 0.  1.
    5000001    1    1    2    0    0  0.37925415721E+02 -0.23178038579E+03 -0.90735357848E+03  0.95672096286E+03  0.19200000000E+03 0.  0.
   -5000001    1    1    2    0    0 -0.37925415721E+02  0.23178038579E+03 -0.83639519950E+03  0.88970861193E+03  0.19200000000E+03 0.  0.
<mgrwt>
<rscale>  0 0.60715927E+03</rscale>
<asrwt>0</asrwt>
<pdfrwt beam="1">  1        2 0.25644127E+00 0.60715927E+03</pdfrwt>
<pdfrwt beam="2">  1       -2 0.73343437E-02 0.60715927E+03</pdfrwt>
<totfact> 0.11821197E+03</totfact>
</mgrwt>
</event>
<event>
 4    1  0.5863356E-005  0.5436470E+03  0.7818608E-02  0.1002975E+00
          2   -1    0    0  501    0  0.00000000000E+00  0.00000000000E+00  0.27838167819E+04  0.27838167819E+04  0.25500000000E-02 0.  1.
         -2   -1    0    0    0  501 -0.00000000000E+00 -0.00000000000E+00 -0.26541986843E+02  0.26541986966E+02  0.25500000000E-02 0. -1.
    5000001    1    1    2    0    0 -0.10656699018E+03 -0.39798844223E+02  0.57639604105E+03  0.61809131003E+03  0.19200000000E+03 0.  0.
   -5000001    1    1    2    0    0  0.10656699018E+03  0.39798844223E+02  0.21808787540E+04  0.21922674589E+04  0.19200000000E+03 0.  0.
<mgrwt>
<rscale>  0 0.54364705E+03</rscale>
<asrwt>0</asrwt>
<pdfrwt beam="1">  1        2 0.39768802E+00 0.54364705E+03</pdfrwt>
<pdfrwt beam="2">  1       -2 0.37917133E-02 0.54364705E+03</pdfrwt>
<totfact> 0.10401517E+03</totfact>
</mgrwt>
</event>
<event>
 4    1  0.5863356E-005  0.8043016E+03  0.7818608E-02  0.9553812E-01
          2   -1    0    0  501    0  0.00000000000E+00  0.00000000000E+00  0.17581415548E+04  0.17581415548E+04  0.25500000000E-02 0.  1.
         -2   -1    0    0    0  501 -0.00000000000E+00 -0.00000000000E+00 -0.91986483663E+02  0.91986483698E+02  0.25500000000E-02 0. -1.
    5000001    1    1    2    0    0  0.16716610800E+03 -0.29893021508E+03  0.10330505140E+04  0.11051520916E+04  0.19200000000E+03 0.  0.
   -5000001    1    1    2    0    0 -0.16716610800E+03  0.29893021508E+03  0.63310455716E+03  0.74497594689E+03  0.19200000000E+03 0.  0.
<mgrwt>
<rscale>  0 0.80430158E+03</rscale>
<asrwt>0</asrwt>
<pdfrwt beam="1">  1        2 0.25116307E+00 0.80430158E+03</pdfrwt>
<pdfrwt beam="2">  1       -2 0.13140927E-01 0.80430158E+03</pdfrwt>
<totfact> 0.47357480E+02</totfact>
</mgrwt>
</event>
<event>
 4    1  0.5863356E-005  0.4797366E+03  0.7818608E-02  0.1019208E+00
          2   -1    0    0  501    0  0.00000000000E+00  0.00000000000E+00  0.23774966452E+03  0.23774966453E+03  0.25500000000E-02 0.  1.
         -2   -1    0    0    0  501 -0.00000000000E+00 -0.00000000000E+00 -0.24200581713E+03  0.24200581715E+03  0.25500000000E-02 0. -1.
    5000001    1    1    2    0    0  0.13770486253E+03 -0.30371136397E+02  0.25940211058E+02  0.23962873292E+03  0.19200000000E+03 0.  0.
   -5000001    1    1    2    0    0 -0.13770486253E+03  0.30371136397E+02 -0.30196363672E+02  0.24012674876E+03  0.19200000000E+03 0.  0.
<mgrwt>
<rscale>  0 0.47973660E+03</rscale>
<asrwt>0</asrwt>
<pdfrwt beam="1">  1        2 0.33964238E-01 0.47973660E+03</pdfrwt>
<pdfrwt beam="2">  1       -2 0.34572260E-01 0.47973660E+03</pdfrwt>
<totfact> 0.12116869E+03</totfact>
</mgrwt>
</event>
<event>
 4    1  0.5863356E-005  0.5122312E+03  0.7818608E-02  0.1010635E+00
         -2   -1    0    0    0  501 -0.00000000000E+00  0.00000000000E+00  0.28644993820E+02  0.28644993934E+02  0.25500000000E-02 0. -1.
          2   -1    0    0  501    0  0.00000000000E+00 -0.00000000000E+00 -0.22899359482E+04  0.22899359482E+04  0.25500000000E-02 0.  1.
    5000001    1    1    2    0    0 -0.14424690075E+03 -0.83505105911E+02 -0.99106311754E+03  0.10231570623E+04  0.19200000000E+03 0.  0.
   -5000001    1    1    2    0    0  0.14424690075E+03  0.83505105911E+02 -0.12702278368E+04  0.12954238799E+04  0.19200000000E+03 0.  0.
<mgrwt>
<rscale>  0 0.51223120E+03</rscale>
<asrwt>0</asrwt>
<pdfrwt beam="1">  1        2 0.32713359E+00 0.51223120E+03</pdfrwt>
<pdfrwt beam="2">  1       -2 0.40921434E-02 0.51223120E+03</pdfrwt>
<totfact> 0.16631177E+03</totfact>
</mgrwt>
</event>
<event>
 4    1  0.5863356E-005  0.4371472E+03  0.7818608E-02  0.1031626E+00
         -2   -1    0    0    0  501 -0.00000000000E+00  0.00000000000E+00  0.27377761332E+02  0.27377761450E+02  0.25500000000E-02 0.  1.
          2   -1    0    0  501    0  0.00000000000E+00 -0.00000000000E+00 -0.17450084448E+04  0.17450084448E+04  0.25500000000E-02 0. -1.
    5000001    1    1    2    0    0  0.10285900330E+03 -0.13780896815E+02 -0.90688003858E+03  0.93277290487E+03  0.19200000000E+03 0.  0.
   -5000001    1    1    2    0    0 -0.10285900330E+03  0.13780896815E+02 -0.81075064484E+03  0.83961330134E+03  0.19200000000E+03 0.  0.
<mgrwt>
<rscale>  0 0.43714723E+03</rscale>
<asrwt>0</asrwt>
<pdfrwt beam="1">  1        2 0.24928685E+00 0.43714723E+03</pdfrwt>
<pdfrwt beam="2">  1       -2 0.39111099E-02 0.43714723E+03</pdfrwt>
<totfact> 0.33437152E+03</totfact>
</mgrwt>
</event>
<event>
 4    1  0.5863356E-005  0.5978884E+03  0.7818608E-02  0.9909797E-01
          2   -1    0    0  501    0  0.00000000000E+00  0.00000000000E+00  0.19864292811E+04  0.19864292811E+04  0.25500000000E-02 0.  1.
         -2   -1    0    0    0  501 -0.00000000000E+00 -0.00000000000E+00 -0.44989090929E+02  0.44989091001E+02  0.25500000000E-02 0. -1.
    5000001    1    1    2    0    0 -0.15318891965E+03 -0.11025181735E+03  0.52926893100E+03  0.59381134180E+03  0.19200000000E+03 0.  0.
   -5000001    1    1    2    0    0  0.15318891965E+03  0.11025181735E+03  0.14121712592E+04  0.14376070303E+04  0.19200000000E+03 0.  0.
<mgrwt>
<rscale>  0 0.59788844E+03</rscale>
<asrwt>0</asrwt>
<pdfrwt beam="1">  1        2 0.28377572E+00 0.59788844E+03</pdfrwt>
<pdfrwt beam="2">  1       -2 0.64270104E-02 0.59788844E+03</pdfrwt>
<totfact> 0.11670364E+03</totfact>
</mgrwt>
</event>
<event>
 4    1  0.5863356E-005  0.8046917E+03  0.7818608E-02  0.9553251E-01
          2   -1    0    0  501    0  0.00000000000E+00  0.00000000000E+00  0.52415341760E+03  0.52415341761E+03  0.25500000000E-02 0.  1.
         -2   -1    0    0    0  501 -0.00000000000E+00 -0.00000000000E+00 -0.30884500173E+03  0.30884500174E+03  0.25500000000E-02 0. -1.
    5000001    1    1    2    0    0  0.19683010708E+03 -0.13214358757E+03  0.37920654154E+03  0.48668842182E+03  0.19200000000E+03 0.  0.
   -5000001    1    1    2    0    0 -0.19683010708E+03  0.13214358757E+03 -0.16389812567E+03  0.34630999753E+03  0.19200000000E+03 0.  0.
<mgrwt>
<rscale>  0 0.80469165E+03</rscale>
<asrwt>0</asrwt>
<pdfrwt beam="1">  1        2 0.74879060E-01 0.80469165E+03</pdfrwt>
<pdfrwt beam="2">  1       -2 0.44120715E-01 0.80469165E+03</pdfrwt>
<totfact> 0.31142348E+02</totfact>
</mgrwt>
</event>
<event>
 4    1  0.5863356E-005  0.5115886E+03  0.7818608E-02  0.1010798E+00
         -2   -1    0    0    0  501 -0.00000000000E+00  0.00000000000E+00  0.37273553388E+02  0.37273553475E+02  0.25500000000E-02 0. -1.
          2   -1    0    0  501    0  0.00000000000E+00 -0.00000000000E+00 -0.17554194039E+04  0.17554194039E+04  0.25500000000E-02 0.  1.
    5000001    1    1    2    0    0  0.58938382374E+02  0.15607643757E+03 -0.95395322742E+03  0.98728129091E+03  0.19200000000E+03 0.  0.
   -5000001    1    1    2    0    0 -0.58938382374E+02 -0.15607643757E+03 -0.76419262305E+03  0.80541166642E+03  0.19200000000E+03 0.  0.
<mgrwt>
<rscale>  0 0.51158858E+03</rscale>
<asrwt>0</asrwt>
<pdfrwt beam="1">  1        2 0.25077415E+00 0.51158858E+03</pdfrwt>
<pdfrwt beam="2">  1       -2 0.53247945E-02 0.51158858E+03</pdfrwt>
<totfact> 0.20526588E+03</totfact>
</mgrwt>
</event>
<event>
 4    1  0.5863356E-005  0.4409902E+03  0.7818608E-02  0.1030443E+00
         -2   -1    0    0    0  501 -0.00000000000E+00  0.00000000000E+00  0.17579359240E+02  0.17579359425E+02  0.25500000000E-02 0. -1.
          2   -1    0    0  501    0  0.00000000000E+00 -0.00000000000E+00 -0.27656352745E+04  0.27656352745E+04  0.25500000000E-02 0.  1.
    5000001    1    1    2    0    0 -0.43130886536E+02 -0.70969573006E+02 -0.18138815633E+04  0.18259045099E+04  0.19200000000E+03 0.  0.
   -5000001    1    1    2    0    0  0.43130886536E+02  0.70969573006E+02 -0.93417435198E+03  0.95731012403E+03  0.19200000000E+03 0.  0.
<mgrwt>
<rscale>  0 0.44099023E+03</rscale>
<asrwt>0</asrwt>
<pdfrwt beam="1">  1        2 0.39509047E+00 0.44099023E+03</pdfrwt>
<pdfrwt beam="2">  1       -2 0.25113388E-02 0.44099023E+03</pdfrwt>
<totfact> 0.20005384E+03</totfact>
</mgrwt>
</event>
<event>
 4    1  0.5863356E-005  0.8975097E+03  0.7818608E-02  0.9428700E-01
          2   -1    0    0  501    0  0.00000000000E+00  0.00000000000E+00  0.73125186748E+03  0.73125186748E+03  0.25500000000E-02 0.  1.
         -2   -1    0    0    0  501 -0.00000000000E+00 -0.00000000000E+00 -0.27539202148E+03  0.27539202149E+03  0.25500000000E-02 0. -1.
    5000001    1    1    2    0    0  0.10127004237E+03  0.20208233472E+03 -0.14980683442E+03  0.33226341828E+03  0.19200000000E+03 0.  0.
   -5000001    1    1    2    0    0 -0.10127004237E+03 -0.20208233472E+03  0.60566668042E+03  0.67438047070E+03  0.19200000000E+03 0.  0.
<mgrwt>
<rscale>  0 0.89750973E+03</rscale>
<asrwt>0</asrwt>
<pdfrwt beam="1">  1        2 0.10446455E+00 0.89750973E+03</pdfrwt>
<pdfrwt beam="2">  1       -2 0.39341717E-01 0.89750973E+03</pdfrwt>
<totfact> 0.26075359E+02</totfact>
</mgrwt>
</event>
<event>
 4    1  0.5863356E-005  0.4600982E+03  0.7818608E-02  0.1024753E+00
         -2   -1    0    0    0  501 -0.00000000000E+00  0.00000000000E+00  0.26292004755E+03  0.26292004756E+03  0.25500000000E-02 0. -1.
          2   -1    0    0  501    0  0.00000000000E+00 -0.00000000000E+00 -0.20128775705E+03  0.20128775707E+03  0.25500000000E-02 0.  1.
    5000001    1    1    2    0    0 -0.59590097516E+02  0.83083233823E+02  0.10634994279E+03  0.24213243028E+03  0.19200000000E+03 0.  0.
   -5000001    1    1    2    0    0  0.59590097516E+02 -0.83083233823E+02 -0.44717652292E+02  0.22207537435E+03  0.19200000000E+03 0.  0.
<mgrwt>
<rscale>  0 0.46009819E+03</rscale>
<asrwt>0</asrwt>
<pdfrwt beam="1">  1        2 0.28755394E-01 0.46009819E+03</pdfrwt>
<pdfrwt beam="2">  1       -2 0.37560007E-01 0.46009819E+03</pdfrwt>
<totfact> 0.12460380E+03</totfact>
</mgrwt>
</event>
<event>
 4    1  0.5863356E-005  0.5988976E+03  0.7818608E-02  0.9907696E-01
          2   -1    0    0  501    0  0.00000000000E+00  0.00000000000E+00  0.23301062677E+04  0.23301062677E+04  0.25500000000E-02 0.  1.
         -2   -1    0    0    0  501 -0.00000000000E+00 -0.00000000000E+00 -0.38483038920E+02  0.38483039005E+02  0.25500000000E-02 0. -1.
    5000001    1    1    2    0    0 -0.19470577547E+03 -0.12054010547E+03  0.10702205366E+04  0.11111598683E+04  0.19200000000E+03 0.  0.
   -5000001    1    1    2    0    0  0.19470577547E+03  0.12054010547E+03  0.12214026922E+04  0.12574294384E+04  0.19200000000E+03 0.  0.
<mgrwt>
<rscale>  0 0.59889755E+03</rscale>
<asrwt>0</asrwt>
<pdfrwt beam="1">  1        2 0.33287248E+00 0.59889755E+03</pdfrwt>
<pdfrwt beam="2">  1       -2 0.54975744E-02 0.59889755E+03</pdfrwt>
<totfact> 0.10003967E+03</totfact>
</mgrwt>
</event>
<event>
 4    1  0.5863356E-005  0.7607742E+03  0.7818608E-02  0.9618597E-01
          2   -1    0    0  501    0  0.00000000000E+00  0.00000000000E+00  0.10340569957E+04  0.10340569957E+04  0.25500000000E-02 0.  1.
         -2   -1    0    0    0  501 -0.00000000000E+00 -0.00000000000E+00 -0.13992880405E+03  0.13992880407E+03  0.25500000000E-02 0. -1.
    5000001    1    1    2    0    0  0.10897077855E+03  0.30359716417E+03  0.54199568117E+03  0.65929446159E+03  0.19200000000E+03 0.  0.
   -5000001    1    1    2    0    0 -0.10897077855E+03 -0.30359716417E+03  0.35213251049E+03  0.51469133819E+03  0.19200000000E+03 0.  0.
<mgrwt>
<rscale>  0 0.76077423E+03</rscale>
<asrwt>0</asrwt>
<pdfrwt beam="1">  1        2 0.14772243E+00 0.76077423E+03</pdfrwt>
<pdfrwt beam="2">  1       -2 0.19989829E-01 0.76077423E+03</pdfrwt>
<totfact> 0.57365729E+02</totfact>
</mgrwt>
</event>
<event>
 4    1  0.5863356E-005  0.5484676E+03  0.7818608E-02  0.1001849E+00
         -2   -1    0    0    0  501 -0.00000000000E+00  0.00000000000E+00  0.24364272449E+03  0.24364272450E+03  0.25500000000E-02 0. -1.
          2   -1    0    0  501    0  0.00000000000E+00 -0.00000000000E+00 -0.30866582727E+03  0.30866582728E+03  0.25500000000E-02 0.  1.
    5000001    1    1    2    0    0  0.88322215696E+02  0.13254617448E+03 -0.14719889927E+03  0.28965637935E+03  0.19200000000E+03 0.  0.
   -5000001    1    1    2    0    0 -0.88322215696E+02 -0.13254617448E+03  0.82175796487E+02  0.26265217243E+03  0.19200000000E+03 0.  0.
<mgrwt>
<rscale>  0 0.54846762E+03</rscale>
<asrwt>0</asrwt>
<pdfrwt beam="1">  1        2 0.44095118E-01 0.54846762E+03</pdfrwt>
<pdfrwt beam="2">  1       -2 0.34806104E-01 0.54846762E+03</pdfrwt>
<totfact> 0.89712640E+02</totfact>
</mgrwt>
</event>
<event>
 4    1  0.5863356E-005  0.7581338E+03  0.7818608E-02  0.9622675E-01
         -2   -1    0    0    0  501 -0.00000000000E+00  0.00000000000E+00  0.16644850692E+03  0.16644850694E+03  0.25500000000E-02 0. -1.
          2   -1    0    0  501    0  0.00000000000E+00 -0.00000000000E+00 -0.86328021838E+03  0.86328021838E+03  0.25500000000E-02 0.  1.
    5000001    1    1    2    0    0 -0.14814074219E+03 -0.28022514243E+03 -0.24013160630E+03  0.44158690910E+03  0.19200000000E+03 0.  0.
   -5000001    1    1    2    0    0  0.14814074219E+03  0.28022514243E+03 -0.45670010516E+03  0.58814181622E+03  0.19200000000E+03 0.  0.
<mgrwt>
<rscale>  0 0.75813377E+03</rscale>
<asrwt>0</asrwt>
<pdfrwt beam="1">  1        2 0.12332574E+00 0.75813377E+03</pdfrwt>
<pdfrwt beam="2">  1       -2 0.23778359E-01 0.75813377E+03</pdfrwt>
<totfact> 0.54128241E+02</totfact>
</mgrwt>
</event>
<event>
 4    1  0.5863356E-005  0.4569811E+03  0.7818608E-02  0.1025660E+00
          2   -1    0    0  501    0  0.00000000000E+00  0.00000000000E+00  0.84977186974E+03  0.84977186974E+03  0.25500000000E-02 0.  1.
         -2   -1    0    0    0  501 -0.00000000000E+00 -0.00000000000E+00 -0.61437573582E+02  0.61437573635E+02  0.25500000000E-02 0. -1.
    5000001    1    1    2    0    0  0.11989333285E+03  0.22209444754E+02  0.35065224599E+03  0.41795773509E+03  0.19200000000E+03 0.  0.
   -5000001    1    1    2    0    0 -0.11989333285E+03 -0.22209444754E+02  0.43768205016E+03  0.49325170829E+03  0.19200000000E+03 0.  0.
<mgrwt>
<rscale>  0 0.45698106E+03</rscale>
<asrwt>0</asrwt>
<pdfrwt beam="1">  1        2 0.12139597E+00 0.45698106E+03</pdfrwt>
<pdfrwt beam="2">  1       -2 0.87767971E-02 0.45698106E+03</pdfrwt>
<totfact> 0.29665093E+03</totfact>
</mgrwt>
</event>
<event>
 4    1  0.5863356E-005  0.1230973E+04  0.7818608E-02  0.9086169E-01
          2   -1    0    0  501    0  0.00000000000E+00  0.00000000000E+00  0.72007101716E+03  0.72007101717E+03  0.25500000000E-02 0.  1.
         -2   -1    0    0    0  501 -0.00000000000E+00 -0.00000000000E+00 -0.52609243416E+03  0.52609243417E+03  0.25500000000E-02 0. -1.
    5000001    1    1    2    0    0 -0.18707872618E+03  0.37808446723E+03  0.50697267113E+03  0.68689999521E+03  0.19200000000E+03 0.  0.
   -5000001    1    1    2    0    0  0.18707872618E+03 -0.37808446723E+03 -0.31299408813E+03  0.55926345612E+03  0.19200000000E+03 0.  0.
<mgrwt>
<rscale>  0 0.12309735E+04</rscale>
<asrwt>0</asrwt>
<pdfrwt beam="1">  1        2 0.10286729E+00 0.12309735E+04</pdfrwt>
<pdfrwt beam="2">  1       -2 0.75156061E-01 0.12309735E+04</pdfrwt>
<totfact> 0.68106187E+01</totfact>
</mgrwt>
</event>
<event>
 4    1  0.5863356E-005  0.5094369E+03  0.7818608E-02  0.1011345E+00
          2   -1    0    0  501    0  0.00000000000E+00  0.00000000000E+00  0.29917601235E+04  0.29917601235E+04  0.25500000000E-02 0.  1.
         -2   -1    0    0    0  501 -0.00000000000E+00 -0.00000000000E+00 -0.21686732063E+02  0.21686732213E+02  0.25500000000E-02 0. -1.
    5000001    1    1    2    0    0 -0.81496676097E+02  0.14580717570E+02  0.62451125503E+03  0.65858379360E+03  0.19200000000E+03 0.  0.
   -5000001    1    1    2    0    0  0.81496676097E+02 -0.14580717570E+02  0.23455621364E+04  0.23548630621E+04  0.19200000000E+03 0.  0.
<mgrwt>
<rscale>  0 0.50943695E+03</rscale>
<asrwt>0</asrwt>
<pdfrwt beam="1">  1        2 0.42739431E+00 0.50943695E+03</pdfrwt>
<pdfrwt beam="2">  1       -2 0.30981045E-02 0.50943695E+03</pdfrwt>
<totfact> 0.10991431E+03</totfact>
</mgrwt>
</event>
<event>
 4    1  0.5863356E-005  0.4536060E+03  0.7818608E-02  0.1026652E+00
          2   -1    0    0  501    0  0.00000000000E+00  0.00000000000E+00  0.26278110736E+04  0.26278110736E+04  0.25500000000E-02 0.  1.
         -2   -1    0    0    0  501 -0.00000000000E+00 -0.00000000000E+00 -0.19575076006E+02  0.19575076172E+02  0.25500000000E-02 0. -1.
    5000001    1    1    2    0    0  0.73595976780E+02  0.88111382899E+02  0.15221507818E+04  0.15385015392E+04  0.19200000000E+03 0.  0.
   -5000001    1    1    2    0    0 -0.73595976780E+02 -0.88111382899E+02  0.10860852158E+04  0.11088846106E+04  0.19200000000E+03 0.  0.
<mgrwt>
<rscale>  0 0.45360600E+03</rscale>
<asrwt>0</asrwt>
<pdfrwt beam="1">  1        2 0.37540167E+00 0.45360600E+03</pdfrwt>
<pdfrwt beam="2">  1       -2 0.27964388E-02 0.45360600E+03</pdfrwt>
<totfact> 0.20043124E+03</totfact>
</mgrwt>
</event>
<event>
 4    1  0.5863356E-005  0.8454960E+03  0.7818608E-02  0.9496402E-01
         -2   -1    0    0    0  501 -0.00000000000E+00  0.00000000000E+00  0.21742906366E+03  0.21742906367E+03  0.25500000000E-02 0. -1.
          2   -1    0    0  501    0  0.00000000000E+00 -0.00000000000E+00 -0.82195022856E+03  0.82195022856E+03  0.25500000000E-02 0.  1.
    5000001    1    1    2    0    0  0.32805296184E+03  0.17735585382E+03 -0.36705394169E+03  0.55737459645E+03  0.19200000000E+03 0.  0.
   -5000001    1    1    2    0    0 -0.32805296184E+03 -0.17735585382E+03 -0.23746722321E+03  0.48200469578E+03  0.19200000000E+03 0.  0.
<mgrwt>
<rscale>  0 0.84549599E+03</rscale>
<asrwt>0</asrwt>
<pdfrwt beam="1">  1        2 0.11742146E+00 0.84549599E+03</pdfrwt>
<pdfrwt beam="2">  1       -2 0.31061295E-01 0.84549599E+03</pdfrwt>
<totfact> 0.35310689E+02</totfact>
</mgrwt>
</event>
<event>
 4    1  0.5863356E-005  0.6415884E+03  0.7818608E-02  0.9822692E-01
         -2   -1    0    0    0  501 -0.00000000000E+00  0.00000000000E+00  0.48507144345E+02  0.48507144412E+02  0.25500000000E-02 0. -1.
          2   -1    0    0  501    0  0.00000000000E+00 -0.00000000000E+00 -0.21215207154E+04  0.21215207154E+04  0.25500000000E-02 0.  1.
    5000001    1    1    2    0    0  0.84000681456E+02 -0.22086273133E+03 -0.13782412239E+04  0.14114706273E+04  0.19200000000E+03 0.  0.
   -5000001    1    1    2    0    0 -0.84000681456E+02  0.22086273133E+03 -0.69477234718E+03  0.75855723250E+03  0.19200000000E+03 0.  0.
<mgrwt>
<rscale>  0 0.64158838E+03</rscale>
<asrwt>0</asrwt>
<pdfrwt beam="1">  1        2 0.30307433E+00 0.64158838E+03</pdfrwt>
<pdfrwt beam="2">  1       -2 0.69295934E-02 0.64158838E+03</pdfrwt>
<totfact> 0.88411684E+02</totfact>
</mgrwt>
</event>
<event>
 4    1  0.5863356E-005  0.4747448E+03  0.7818608E-02  0.1020590E+00
          2   -1    0    0  501    0  0.00000000000E+00  0.00000000000E+00  0.21900208092E+04  0.21900208092E+04  0.25500000000E-02 0.  1.
         -2   -1    0    0    0  501 -0.00000000000E+00 -0.00000000000E+00 -0.25728364226E+02  0.25728364352E+02  0.25500000000E-02 0. -1.
    5000001    1    1    2    0    0  0.76601968092E+02  0.33115439441E+02  0.16043178635E+04  0.16179197449E+04  0.19200000000E+03 0.  0.
   -5000001    1    1    2    0    0 -0.76601968092E+02 -0.33115439441E+02  0.55997458144E+03  0.59782942860E+03  0.19200000000E+03 0.  0.
<mgrwt>
<rscale>  0 0.47474479E+03</rscale>
<asrwt>0</asrwt>
<pdfrwt beam="1">  1        2 0.31286008E+00 0.47474479E+03</pdfrwt>
<pdfrwt beam="2">  1       -2 0.36754810E-02 0.47474479E+03</pdfrwt>
<totfact> 0.22032981E+03</totfact>
</mgrwt>
</event>
<event>
 4    1  0.5863356E-005  0.6313951E+03  0.7818608E-02  0.9842330E-01
         -2   -1    0    0    0  501 -0.00000000000E+00  0.00000000000E+00  0.54760620881E+02  0.54760620941E+02  0.25500000000E-02 0. -1.
          2   -1    0    0  501    0  0.00000000000E+00 -0.00000000000E+00 -0.18200111131E+04  0.18200111131E+04  0.25500000000E-02 0.  1.
    5000001    1    1    2    0    0  0.21886913509E+03  0.10505923500E+03 -0.69815367021E+03  0.76369083298E+03  0.19200000000E+03 0.  0.
   -5000001    1    1    2    0    0 -0.21886913509E+03 -0.10505923500E+03 -0.10670968220E+04  0.11110809011E+04  0.19200000000E+03 0.  0.
<mgrwt>
<rscale>  0 0.63139509E+03</rscale>
<asrwt>0</asrwt>
<pdfrwt beam="1">  1        2 0.26000155E+00 0.63139509E+03</pdfrwt>
<pdfrwt beam="2">  1       -2 0.78229470E-02 0.63139509E+03</pdfrwt>
<totfact> 0.10352394E+03</totfact>
</mgrwt>
</event>
<event>
 4    1  0.5863356E-005  0.4377074E+03  0.7818608E-02  0.1031453E+00
          2   -1    0    0  501    0  0.00000000000E+00  0.00000000000E+00  0.10972751946E+04  0.10972751946E+04  0.25500000000E-02 0.  1.
         -2   -1    0    0    0  501 -0.00000000000E+00 -0.00000000000E+00 -0.43650796318E+02  0.43650796393E+02  0.25500000000E-02 0. -1.
    5000001    1    1    2    0    0 -0.10412585556E+03  0.11834010254E+02  0.50825249451E+03  0.55332344589E+03  0.19200000000E+03 0.  0.
   -5000001    1    1    2    0    0  0.10412585556E+03 -0.11834010254E+02  0.54537190379E+03  0.58760254512E+03  0.19200000000E+03 0.  0.
<mgrwt>
<rscale>  0 0.43770737E+03</rscale>
<asrwt>0</asrwt>
<pdfrwt beam="1">  1        2 0.15675361E+00 0.43770737E+03</pdfrwt>
<pdfrwt beam="2">  1       -2 0.62358275E-02 0.43770737E+03</pdfrwt>
<totfact> 0.35817489E+03</totfact>
</mgrwt>
</event>
<event>
 4    1  0.5863356E-005  0.5126587E+03  0.7818608E-02  0.1010527E+00
         -2   -1    0    0    0  501 -0.00000000000E+00  0.00000000000E+00  0.27872425262E+03  0.27872425264E+03  0.25500000000E-02 0. -1.
          2   -1    0    0  501    0  0.00000000000E+00 -0.00000000000E+00 -0.23573380333E+03  0.23573380335E+03  0.25500000000E-02 0.  1.
    5000001    1    1    2    0    0 -0.34095132118E+01 -0.14334925851E+03 -0.69819178486E+02  0.24959838217E+03  0.19200000000E+03 0.  0.
   -5000001    1    1    2    0    0  0.34095132118E+01  0.14334925851E+03  0.11280962778E+03  0.26485967382E+03  0.19200000000E+03 0.  0.
<mgrwt>
<rscale>  0 0.51265867E+03</rscale>
<asrwt>0</asrwt>
<pdfrwt beam="1">  1        2 0.33676257E-01 0.51265867E+03</pdfrwt>
<pdfrwt beam="2">  1       -2 0.39817751E-01 0.51265867E+03</pdfrwt>
<totfact> 0.93432425E+02</totfact>
</mgrwt>
</event>
