<event>
 8    2  0.2588871E-009  0.1557377E+04  0.7818608E-02  0.8847170E-01
          2   -1    0    0  501    0  0.00000000000E+00  0.00000000000E+00  0.67142418914E+03  0.67142418914E+03  0.25500000000E-02 0.  1.
         -2   -1    0    0    0  501 -0.00000000000E+00 -0.00000000000E+00 -0.90308850636E+03  0.90308850636E+03  0.25500000000E-02 0. -1.
    -200001    2    1    2    0    0  0.19545460694E+03 -0.11104790264E+03 -0.38485986187E+03  0.82351135399E+03  0.69247360731E+03 0.  0.
   -5000001    2    3    3    0    0  0.58269379757E+02  0.50711953904E+02 -0.58275038910E+02  0.18975770759E+03  0.16323291501E+03 0.  0.
     200001    1    1    2    0    0 -0.19545460694E+03  0.11104790264E+03  0.15319554465E+03  0.75100134151E+03  0.70000000000E+03 0.  1.
         11    1    4    4    0    0  0.42884080404E+02 -0.29431247195E+02  0.34651849624E+02  0.62497946736E+02  0.51100000000E-03 0.  1.
    -200002    1    4    4    0    0  0.15385299353E+02  0.80143201099E+02 -0.92926888535E+02  0.12725976085E+03  0.30000000000E+02 0.  1.
    -200000    1    3    3    0    0  0.13718522718E+03 -0.16175985654E+03 -0.32658482296E+03  0.63375364641E+03  0.50000000000E+03 0. -1.
<mgrwt>
<rscale>  0 0.15573766E+04</rscale>
<asrwt>0</asrwt>
<pdfrwt beam="1">  1        2 0.95917742E-01 0.15573766E+04</pdfrwt>
<pdfrwt beam="2">  1       -2 0.12901264E+00 0.15573766E+04</pdfrwt>
<totfact> 0.20220995E+01</totfact>
</mgrwt>
</event>
<event>
 8    2  0.2588871E-009  0.1756770E+04  0.7818608E-02  0.8729633E-01
         -2   -1    0    0    0  501 -0.00000000000E+00  0.00000000000E+00  0.25307061470E+03  0.25307061472E+03  0.25500000000E-02 0. -1.
          2   -1    0    0  501    0  0.00000000000E+00 -0.00000000000E+00 -0.30487930793E+04  0.30487930793E+04  0.25500000000E-02 0.  1.
    -200001    2    1    2    0    0 -0.39143707856E+03  0.24436473528E+03 -0.93006533575E+03  0.12564753121E+04  0.70765215390E+03 0.  0.
   -5000001    2    3    3    0    0 -0.35000879204E+02 -0.80945725188E+02 -0.15842611623E+03  0.21806270387E+03  0.12114139072E+03 0.  0.
     200001    1    1    2    0    0  0.39143707856E+03 -0.24436473528E+03 -0.18656571289E+04  0.20453883819E+04  0.70000000000E+03 0.  1.
         11    1    4    4    0    0 -0.19140147823E+02 -0.10346222444E+03 -0.13472285125E+03  0.17094158006E+03  0.51100000000E-03 0.  1.
    -200002    1    4    4    0    0 -0.15860731381E+02  0.22516499249E+02 -0.23703264975E+02  0.47121123808E+02  0.30000000000E+02 0.  1.
    -200000    1    3    3    0    0 -0.35643619936E+03  0.32531046047E+03 -0.77163921953E+03  0.10384126083E+04  0.50000000000E+03 0. -1.
<mgrwt>
<rscale>  0 0.17567697E+04</rscale>
<asrwt>0</asrwt>
<pdfrwt beam="1">  1        2 0.43554185E+00 0.17567697E+04</pdfrwt>
<pdfrwt beam="2">  1       -2 0.36152947E-01 0.17567697E+04</pdfrwt>
<totfact> 0.15177709E+01</totfact>
</mgrwt>
</event>
<event>
 8    2  0.2588871E-009  0.1582718E+04  0.7818608E-02  0.8831236E-01
         -2   -1    0    0    0  501 -0.00000000000E+00  0.00000000000E+00  0.32902669021E+03  0.32902669022E+03  0.25500000000E-02 0. -1.
          2   -1    0    0  501    0  0.00000000000E+00 -0.00000000000E+00 -0.19033373778E+04  0.19033373778E+04  0.25500000000E-02 0.  1.
    -200001    2    1    2    0    0 -0.82951152974E+02  0.33259534938E+03 -0.59266204320E+03  0.97891497802E+03  0.69966111550E+03 0.  0.
   -5000001    2    3    3    0    0 -0.72908642054E+02  0.10186229468E+03 -0.23045027515E+02  0.18657531657E+03  0.13633663593E+03 0.  0.
     200001    1    1    2    0    0  0.82951152974E+02 -0.33259534938E+03 -0.98164864443E+03  0.12534490900E+04  0.70000000000E+03 0.  1.
         11    1    4    4    0    0 -0.92951706125E+02  0.31619589324E+02  0.14308034922E+02  0.99219645052E+02  0.51100000000E-03 0.  1.
    -200002    1    4    4    0    0  0.20043064072E+02  0.70242705351E+02 -0.37353062437E+02  0.87355671515E+02  0.30000000000E+02 0.  1.
    -200000    1    3    3    0    0 -0.10042510921E+02  0.23073305470E+03 -0.56961701569E+03  0.79233966146E+03  0.50000000000E+03 0. -1.
<mgrwt>
<rscale>  0 0.15827177E+04</rscale>
<asrwt>0</asrwt>
<pdfrwt beam="1">  1        2 0.27190533E+00 0.15827177E+04</pdfrwt>
<pdfrwt beam="2">  1       -2 0.47003814E-01 0.15827177E+04</pdfrwt>
<totfact> 0.37135955E+01</totfact>
</mgrwt>
</event>
<event>
 8    2  0.2588871E-009  0.1674528E+04  0.7818608E-02  0.8776027E-01
         -2   -1    0    0    0  501 -0.00000000000E+00  0.00000000000E+00  0.62419629154E+03  0.62419629155E+03  0.25500000000E-02 0. -1.
          2   -1    0    0  501    0  0.00000000000E+00 -0.00000000000E+00 -0.11230611279E+04  0.11230611279E+04  0.25500000000E-02 0.  1.
    -200001    2    1    2    0    0  0.51700665677E+02  0.42200000216E+03 -0.43112906456E+03  0.92546359165E+03  0.69989544113E+03 0.  0.
   -5000001    2    3    3    0    0  0.44352195551E+02  0.11283309654E+03 -0.20116805240E+03  0.29417899446E+03  0.17712783675E+03 0.  0.
     200001    1    1    2    0    0 -0.51700665677E+02 -0.42200000216E+03 -0.67735771812E+02  0.82179382781E+03  0.70000000000E+03 0.  1.
         11    1    4    4    0    0 -0.64512468942E+02  0.63502081052E+02 -0.72060396465E+02  0.11570252238E+03  0.51100000000E-03 0.  1.
    -200002    1    4    4    0    0  0.10886466449E+03  0.49331015484E+02 -0.12910765593E+03  0.17847647207E+03  0.30000000000E+02 0.  1.
    -200000    1    3    3    0    0  0.73484701268E+01  0.30916690562E+03 -0.22996101216E+03  0.63128459720E+03  0.50000000000E+03 0.  1.
<mgrwt>
<rscale>  0 0.16745275E+04</rscale>
<asrwt>0</asrwt>
<pdfrwt beam="1">  1        2 0.16043730E+00 0.16745275E+04</pdfrwt>
<pdfrwt beam="2">  1       -2 0.89170899E-01 0.16745275E+04</pdfrwt>
<totfact> 0.24441368E+01</totfact>
</mgrwt>
</event>
<event>
 8    2  0.2588871E-009  0.2324753E+04  0.7818608E-02  0.8468225E-01
         -2   -1    0    0    0  501 -0.00000000000E+00  0.00000000000E+00  0.20987668858E+04  0.20987668858E+04  0.25500000000E-02 0. -1.
          2   -1    0    0  501    0  0.00000000000E+00 -0.00000000000E+00 -0.64376797566E+03  0.64376797566E+03  0.25500000000E-02 0.  1.
    -200001    2    1    2    0    0 -0.43852744285E+03  0.25166207079E+03 -0.19019345845E+03  0.88449878924E+03  0.70037450020E+03 0.  0.
   -5000001    2    3    3    0    0 -0.14759077276E+03 -0.37659735956E+02 -0.74537148816E+02  0.22743894735E+03  0.15156317595E+03 0.  0.
     200001    1    1    2    0    0  0.43852744285E+03 -0.25166207079E+03  0.16451923685E+04  0.18580360722E+04  0.70000000000E+03 0. -1.
         11    1    4    4    0    0 -0.81904329869E+02 -0.51816416448E+02  0.28317300319E+02  0.10097093524E+03  0.51100000000E-03 0.  1.
    -200002    1    4    4    0    0 -0.65686442892E+02  0.14156680492E+02 -0.10285444914E+03  0.12646801212E+03  0.30000000000E+02 0.  1.
    -200000    1    3    3    0    0 -0.29093667008E+03  0.28932180675E+03 -0.11565630963E+03  0.65705984188E+03  0.50000000000E+03 0.  1.
<mgrwt>
<rscale>  0 0.23247528E+04</rscale>
<asrwt>0</asrwt>
<pdfrwt beam="1">  1        2 0.91966853E-01 0.23247528E+04</pdfrwt>
<pdfrwt beam="2">  1       -2 0.29982384E+00 0.23247528E+04</pdfrwt>
<totfact> 0.14442471E+00</totfact>
</mgrwt>
</event>
<event>
 8    2  0.2588871E-009  0.1638414E+04  0.7818608E-02  0.8797290E-01
          2   -1    0    0  501    0  0.00000000000E+00  0.00000000000E+00  0.29071203186E+04  0.29071203186E+04  0.25500000000E-02 0.  1.
         -2   -1    0    0    0  501 -0.00000000000E+00 -0.00000000000E+00 -0.23084705536E+03  0.23084705537E+03  0.25500000000E-02 0. -1.
    -200001    2    1    2    0    0  0.44932671056E+02  0.12513511433E+03  0.21128277103E+04  0.22295904517E+04  0.69953906772E+03 0.  0.
   -5000001    2    3    3    0    0 -0.37392175328E+02  0.12433639676E+02  0.58549938105E+03  0.61645349907E+03  0.18881901686E+03 0.  0.
     200001    1    1    2    0    0 -0.44932671056E+02 -0.12513511433E+03  0.56344555301E+03  0.90837692230E+03  0.70000000000E+03 0. -1.
         11    1    4    4    0    0 -0.87045560631E+01  0.49664140064E+02  0.54551396060E+03  0.54783918928E+03  0.51100000000E-03 0.  1.
    -200002    1    4    4    0    0 -0.28687619265E+02 -0.37230500388E+02  0.39985420452E+02  0.68614309783E+02  0.30000000000E+02 0.  1.
    -200000    1    3    3    0    0  0.82324846384E+02  0.11270147466E+03  0.15273283292E+04  0.16131369526E+04  0.50000000000E+03 0.  1.
<mgrwt>
<rscale>  0 0.16384141E+04</rscale>
<asrwt>0</asrwt>
<pdfrwt beam="1">  1        2 0.41530293E+00 0.16384141E+04</pdfrwt>
<pdfrwt beam="2">  1       -2 0.32978149E-01 0.16384141E+04</pdfrwt>
<totfact> 0.21907808E+01</totfact>
</mgrwt>
</event>
<event>
 8    2  0.2588871E-009  0.2245731E+04  0.7818608E-02  0.8499631E-01
          2   -1    0    0  501    0  0.00000000000E+00  0.00000000000E+00  0.29168701614E+04  0.29168701614E+04  0.25500000000E-02 0.  1.
         -2   -1    0    0    0  501 -0.00000000000E+00 -0.00000000000E+00 -0.43225343828E+03  0.43225343829E+03  0.25500000000E-02 0. -1.
    -200001    2    1    2    0    0  0.95927202986E+02 -0.35802295571E+03  0.24290182468E+04  0.25550998874E+04  0.70073056617E+03 0.  0.
   -5000001    2    3    3    0    0  0.60595585827E+02 -0.57157925755E+02  0.81717649950E+03  0.84051483332E+03  0.17818221068E+03 0.  0.
     200001    1    1    2    0    0 -0.95927202986E+02  0.35802295571E+03  0.55598476334E+02  0.79402371228E+03  0.70000000000E+03 0. -1.
         11    1    4    4    0    0 -0.58476483516E+02 -0.30586548971E+02  0.19759428857E+03  0.20832315996E+03  0.51100000000E-03 0.  1.
    -200002    1    4    4    0    0  0.11907206934E+03 -0.26571376784E+02  0.61958221093E+03  0.63219167336E+03  0.30000000000E+02 0.  1.
    -200000    1    3    3    0    0  0.35331617159E+02 -0.30086502996E+03  0.16118417473E+04  0.17145850541E+04  0.50000000000E+03 0.  1.
<mgrwt>
<rscale>  0 0.22457312E+04</rscale>
<asrwt>0</asrwt>
<pdfrwt beam="1">  1        2 0.41669574E+00 0.22457312E+04</pdfrwt>
<pdfrwt beam="2">  1       -2 0.61750491E-01 0.22457312E+04</pdfrwt>
<totfact> 0.58495936E+00</totfact>
</mgrwt>
</event>
<event>
 8    2  0.2588871E-009  0.2089988E+04  0.7818608E-02  0.8565667E-01
          2   -1    0    0  501    0  0.00000000000E+00  0.00000000000E+00  0.27350335787E+04  0.27350335787E+04  0.25500000000E-02 0.  1.
         -2   -1    0    0    0  501 -0.00000000000E+00 -0.00000000000E+00 -0.39926835794E+03  0.39926835795E+03  0.25500000000E-02 0. -1.
    -200001    2    1    2    0    0 -0.22324091346E+03 -0.29633357485E+03  0.14892639276E+03  0.80837972113E+03  0.70260131657E+03 0.  0.
   -5000001    2    3    3    0    0 -0.68294714479E+02 -0.66475817302E+02  0.28951567380E+00  0.21767181149E+03  0.19569806178E+03 0.  0.
     200001    1    1    2    0    0  0.22324091346E+03  0.29633357485E+03  0.21868388280E+04  0.23259222155E+04  0.70000000000E+03 0.  1.
         11    1    4    4    0    0 -0.57565328349E+02 -0.13242937417E+03  0.17727127039E+01  0.14441069449E+03  0.51100000000E-03 0.  1.
    -200002    1    4    4    0    0 -0.10729386130E+02  0.65953556871E+02 -0.14831970301E+01  0.73261117000E+02  0.30000000000E+02 0.  1.
    -200000    1    3    3    0    0 -0.15494619898E+03 -0.22985775754E+03  0.14863687708E+03  0.59070790964E+03  0.50000000000E+03 0. -1.
<mgrwt>
<rscale>  0 0.20899879E+04</rscale>
<asrwt>0</asrwt>
<pdfrwt beam="1">  1        2 0.39071907E+00 0.20899879E+04</pdfrwt>
<pdfrwt beam="2">  1       -2 0.57038338E-01 0.20899879E+04</pdfrwt>
<totfact> 0.88083178E+00</totfact>
</mgrwt>
</event>
<event>
 8    2  0.2588871E-009  0.4496222E+04  0.7818608E-02  0.7911299E-01
          2   -1    0    0  501    0  0.00000000000E+00  0.00000000000E+00  0.24035612109E+04  0.24035612109E+04  0.25500000000E-02 0. -1.
         -2   -1    0    0    0  501 -0.00000000000E+00 -0.00000000000E+00 -0.21027145492E+04  0.21027145492E+04  0.25500000000E-02 0.  1.
    -200001    2    1    2    0    0 -0.11639630863E+04  0.17741552932E+04  0.39852364983E+03  0.22697655623E+04  0.70041240556E+03 0.  0.
   -5000001    2    3    3    0    0 -0.33428718053E+03  0.35563863836E+03  0.10693799863E+03  0.52747574700E+03  0.16902120565E+03 0.  0.
     200001    1    1    2    0    0  0.11639630863E+04 -0.17741552932E+04 -0.97676988069E+02  0.22365101977E+04  0.70000000000E+03 0. -1.
         11    1    4    4    0    0 -0.31333606852E+03  0.32528494603E+03  0.51709597004E+02  0.45460276107E+03  0.51100000000E-03 0.  1.
    -200002    1    4    4    0    0 -0.20951112013E+02  0.30353692332E+02  0.55228401622E+02  0.72872985931E+02  0.30000000000E+02 0.  1.
    -200000    1    3    3    0    0 -0.82967590577E+03  0.14185166548E+04  0.29158565120E+03  0.17422898153E+04  0.50000000000E+03 0.  1.
<mgrwt>
<rscale>  0 0.44962220E+04</rscale>
<asrwt>0</asrwt>
<pdfrwt beam="1">  1        2 0.34336589E+00 0.44962220E+04</pdfrwt>
<pdfrwt beam="2">  1       -2 0.30038779E+00 0.44962220E+04</pdfrwt>
<totfact> 0.12024442E-01</totfact>
</mgrwt>
</event>
<event>
 8    2  0.2588871E-009  0.1592412E+04  0.7818608E-02  0.8825223E-01
         -2   -1    0    0    0  501 -0.00000000000E+00  0.00000000000E+00  0.37187898678E+03  0.37187898678E+03  0.25500000000E-02 0. -1.
          2   -1    0    0  501    0  0.00000000000E+00 -0.00000000000E+00 -0.17047043109E+04  0.17047043109E+04  0.25500000000E-02 0.  1.
    -200001    2    1    2    0    0  0.16254103397E+03  0.27441834307E+03 -0.93412568140E+03  0.12101616798E+04  0.70012533732E+03 0.  0.
   -5000001    2    3    3    0    0 -0.36174133704E+02  0.58676807977E+02 -0.18997321440E+03  0.26687221103E+03  0.17429692793E+03 0.  0.
     200001    1    1    2    0    0 -0.16254103397E+03 -0.27441834307E+03 -0.39869964269E+03  0.86642161782E+03  0.70000000000E+03 0. -1.
         11    1    4    4    0    0 -0.27005251018E+02 -0.48618375236E+02 -0.12682227641E+03  0.13848075601E+03  0.51100000000E-03 0.  1.
    -200002    1    4    4    0    0 -0.91688826859E+01  0.10729518321E+03 -0.63150937995E+02  0.12839145501E+03  0.30000000000E+02 0.  1.
    -200000    1    3    3    0    0  0.19871516767E+03  0.21574153509E+03 -0.74415246700E+03  0.94328946881E+03  0.50000000000E+03 0.  1.
<mgrwt>
<rscale>  0 0.15924116E+04</rscale>
<asrwt>0</asrwt>
<pdfrwt beam="1">  1        2 0.24352918E+00 0.15924116E+04</pdfrwt>
<pdfrwt beam="2">  1       -2 0.53125571E-01 0.15924116E+04</pdfrwt>
<totfact> 0.36626278E+01</totfact>
</mgrwt>
</event>
<event>
 8    2  0.2741827E-009  0.1787984E+04  0.7818608E-02  0.8712716E-01
          2   -1    0    0  501    0  0.00000000000E+00  0.00000000000E+00  0.19299309929E+04  0.19299309929E+04  0.25500000000E-02 0.  1.
         -2   -1    0    0    0  501 -0.00000000000E+00 -0.00000000000E+00 -0.41411928110E+03  0.41411928111E+03  0.25500000000E-02 0. -1.
    -200001    2    1    2    0    0  0.26374486891E+03  0.10027367555E+02  0.11583980694E+03  0.75673076038E+03  0.69968612881E+03 0.  0.
   -5000001    2    3    3    0    0  0.91479106469E+02 -0.13666468786E+02  0.10445780190E+03  0.22723435734E+03  0.17935668789E+03 0.  0.
     200001    1    1    2    0    0 -0.26374486891E+03 -0.10027367555E+02  0.13999719048E+04  0.15873195136E+04  0.70000000000E+03 0.  1.
         11    1    4    4    0    0 -0.43481704173E+01  0.55819785343E+01 -0.45330067776E+02  0.45878972472E+02  0.51100000000E-03 0.  1.
    -200002    1    4    4    0    0  0.95827276886E+02 -0.19248447320E+02  0.14978786967E+03  0.18135538487E+03  0.30000000000E+02 0.  1.
    -200000    1    3    3    0    0  0.17226576244E+03  0.23693836341E+02  0.11382005043E+02  0.52949640304E+03  0.50000000000E+03 0. -1.
<mgrwt>
<rscale>  0 0.17879839E+04</rscale>
<asrwt>0</asrwt>
<pdfrwt beam="1">  1        2 0.27570443E+00 0.17879839E+04</pdfrwt>
<pdfrwt beam="2">  1       -2 0.59159897E-01 0.17879839E+04</pdfrwt>
<totfact> 0.22045127E+01</totfact>
</mgrwt>
</event>
<event>
 8    2  0.2588871E-009  0.1841145E+04  0.7818608E-02  0.8684720E-01
         -2   -1    0    0    0  501 -0.00000000000E+00  0.00000000000E+00  0.31634673298E+03  0.31634673299E+03  0.25500000000E-02 0. -1.
          2   -1    0    0  501    0  0.00000000000E+00 -0.00000000000E+00 -0.26788762691E+04  0.26788762691E+04  0.25500000000E-02 0.  1.
    -200001    2    1    2    0    0 -0.20905995890E+03 -0.55736998338E+03 -0.10897334132E+04  0.14253894646E+04  0.69989202687E+03 0.  0.
   -5000001    2    3    3    0    0  0.31842808170E+02 -0.13098999280E+03 -0.20518340340E+03  0.29744320733E+03  0.16792822845E+03 0.  0.
     200001    1    1    2    0    0  0.20905995890E+03  0.55736998338E+03 -0.12727961230E+04  0.15698335375E+04  0.70000000000E+03 0.  1.
         11    1    4    4    0    0 -0.57982273727E+01  0.11644641616E+02 -0.12727938202E+03  0.12794240191E+03  0.51100000000E-03 0.  1.
    -200002    1    4    4    0    0  0.37641035543E+02 -0.14263463441E+03 -0.77904021381E+02  0.16950080542E+03  0.30000000000E+02 0.  1.
    -200000    1    3    3    0    0 -0.24090276707E+03 -0.42637999058E+03 -0.88455000979E+03  0.11279462573E+04  0.50000000000E+03 0. -1.
<mgrwt>
<rscale>  0 0.18411450E+04</rscale>
<asrwt>0</asrwt>
<pdfrwt beam="1">  1        2 0.38269660E+00 0.18411450E+04</pdfrwt>
<pdfrwt beam="2">  1       -2 0.45192392E-01 0.18411450E+04</pdfrwt>
<totfact> 0.15521163E+01</totfact>
</mgrwt>
</event>
<event>
 8    2  0.2588871E-009  0.1573530E+04  0.7818608E-02  0.8836976E-01
         -2   -1    0    0    0  501 -0.00000000000E+00  0.00000000000E+00  0.55575914475E+03  0.55575914476E+03  0.25500000000E-02 0. -1.
          2   -1    0    0  501    0  0.00000000000E+00 -0.00000000000E+00 -0.11137907682E+04  0.11137907682E+04  0.25500000000E-02 0.  1.
    -200001    2    1    2    0    0 -0.32653905903E+03 -0.43007106681E+02 -0.42963758592E+03  0.88535453094E+03  0.70056179023E+03 0.  0.
   -5000001    2    3    3    0    0 -0.32291916031E+02 -0.33761881648E+02 -0.38770907354E+02  0.18575206113E+03  0.17555059802E+03 0.  0.
     200001    1    1    2    0    0  0.32653905903E+03  0.43007106681E+02 -0.12839403751E+03  0.78419538201E+03  0.70000000000E+03 0. -1.
         11    1    4    4    0    0  0.19736900608E+02 -0.36998882207E+02  0.58145600398E+02  0.71689423042E+02  0.51100000000E-03 0.  1.
    -200002    1    4    4    0    0 -0.52028816639E+02  0.32370005589E+01 -0.96916507752E+02  0.11406263809E+03  0.30000000000E+02 0.  1.
    -200000    1    3    3    0    0 -0.29424714300E+03 -0.92452250328E+01 -0.39086667857E+03  0.69960246981E+03  0.50000000000E+03 0.  1.
<mgrwt>
<rscale>  0 0.15735303E+04</rscale>
<asrwt>0</asrwt>
<pdfrwt beam="1">  1        2 0.15911297E+00 0.15735303E+04</pdfrwt>
<pdfrwt beam="2">  1       -2 0.79394164E-01 0.15735303E+04</pdfrwt>
<totfact> 0.32471070E+01</totfact>
</mgrwt>
</event>
<event>
 8    2  0.2588871E-009  0.1462478E+04  0.7818608E-02  0.8909795E-01
          2   -1    0    0  501    0  0.00000000000E+00  0.00000000000E+00  0.24654853046E+04  0.24654853046E+04  0.25500000000E-02 0.  1.
         -2   -1    0    0    0  501 -0.00000000000E+00 -0.00000000000E+00 -0.21687846297E+03  0.21687846298E+03  0.25500000000E-02 0. -1.
    -200001    2    1    2    0    0  0.27297297577E+02 -0.18549272313E+03  0.93893626728E+03  0.11855706269E+04  0.69915928405E+03 0.  0.
   -5000001    2    3    3    0    0 -0.43989173444E+02 -0.71334074869E+02  0.28539941387E+03  0.35176946550E+03  0.18779066484E+03 0.  0.
     200001    1    1    2    0    0 -0.27297297577E+02  0.18549272313E+03  0.13096705743E+04  0.14967931407E+04  0.70000000000E+03 0.  1.
         11    1    4    4    0    0  0.12034925031E+02 -0.17885478387E+02  0.26550757367E+03  0.26638130834E+03  0.51100000000E-03 0.  1.
    -200002    1    4    4    0    0 -0.56024098475E+02 -0.53448596482E+02  0.19891840197E+02  0.85388157154E+02  0.30000000000E+02 0.  1.
    -200000    1    3    3    0    0  0.71286471021E+02 -0.11415864827E+03  0.65353685341E+03  0.83380116136E+03  0.50000000000E+03 0.  1.
<mgrwt>
<rscale>  0 0.14624783E+04</rscale>
<asrwt>0</asrwt>
<pdfrwt beam="1">  1        2 0.35221217E+00 0.14624783E+04</pdfrwt>
<pdfrwt beam="2">  1       -2 0.30982639E-01 0.14624783E+04</pdfrwt>
<totfact> 0.43120414E+01</totfact>
</mgrwt>
</event>
<event>
 8    2  0.2588871E-009  0.1868437E+04  0.7818608E-02  0.8670729E-01
         -2   -1    0    0    0  501 -0.00000000000E+00  0.00000000000E+00  0.45341706163E+03  0.45341706163E+03  0.25500000000E-02 0. -1.
          2   -1    0    0  501    0  0.00000000000E+00 -0.00000000000E+00 -0.19248596548E+04  0.19248596548E+04  0.25500000000E-02 0.  1.
    -200001    2    1    2    0    0 -0.41863655907E+03 -0.41972991214E+03 -0.51572460004E+03  0.10535780148E+04  0.70187249726E+03 0.  0.
   -5000001    2    3    3    0    0 -0.84293139123E+02 -0.97482177455E+02 -0.22275683865E+03  0.31097500227E+03  0.17457587076E+03 0.  0.
     200001    1    1    2    0    0  0.41863655907E+03  0.41972991214E+03 -0.95571799309E+03  0.13246987016E+04  0.70000000000E+03 0.  1.
         11    1    4    4    0    0 -0.69411002822E+01 -0.38883853549E+01 -0.17793634730E+03  0.17811412663E+03  0.51100000000E-03 0.  1.
    -200002    1    4    4    0    0 -0.77352038841E+02 -0.93593792100E+02 -0.44820491346E+02  0.13286087564E+03  0.30000000000E+02 0.  1.
    -200000    1    3    3    0    0 -0.33434341995E+03 -0.32224773469E+03 -0.29296776140E+03  0.74260301251E+03  0.50000000000E+03 0. -1.
<mgrwt>
<rscale>  0 0.18684370E+04</rscale>
<asrwt>0</asrwt>
<pdfrwt beam="1">  1        2 0.27497995E+00 0.18684370E+04</pdfrwt>
<pdfrwt beam="2">  1       -2 0.64773867E-01 0.18684370E+04</pdfrwt>
<totfact> 0.18172506E+01</totfact>
</mgrwt>
</event>
<event>
 8    2  0.2588871E-009  0.1470242E+04  0.7818608E-02  0.8904486E-01
         -2   -1    0    0    0  501 -0.00000000000E+00  0.00000000000E+00  0.28458609892E+03  0.28458609893E+03  0.25500000000E-02 0. -1.
          2   -1    0    0  501    0  0.00000000000E+00 -0.00000000000E+00 -0.18989090444E+04  0.18989090444E+04  0.25500000000E-02 0.  1.
    -200001    2    1    2    0    0  0.92822125085E+02 -0.14308220019E+03 -0.60991107039E+03  0.94739980811E+03  0.70461792463E+03 0.  0.
   -5000001    2    3    3    0    0 -0.37273511093E+01  0.72018928796E+02 -0.12696661441E+03  0.21335236782E+03  0.15555736057E+03 0.  0.
     200001    1    1    2    0    0 -0.92822125085E+02  0.14308220019E+03 -0.10044118751E+04  0.12360953352E+04  0.70000000000E+03 0.  1.
         11    1    4    4    0    0 -0.61937371962E+02  0.14131063770E+02 -0.55813335903E+01  0.63773633217E+02  0.51100000000E-03 0.  1.
    -200002    1    4    4    0    0  0.58210020853E+02  0.57887865026E+02 -0.12138528082E+03  0.14957873460E+03  0.30000000000E+02 0.  1.
    -200000    1    3    3    0    0  0.96549476194E+02 -0.21510112898E+03 -0.48294445597E+03  0.73404744029E+03  0.50000000000E+03 0.  1.
<mgrwt>
<rscale>  0 0.14702423E+04</rscale>
<asrwt>0</asrwt>
<pdfrwt beam="1">  1        2 0.27127271E+00 0.14702423E+04</pdfrwt>
<pdfrwt beam="2">  1       -2 0.40655158E-01 0.14702423E+04</pdfrwt>
<totfact> 0.50240963E+01</totfact>
</mgrwt>
</event>
<event>
 8    2  0.2588871E-009  0.1751583E+04  0.7818608E-02  0.8732479E-01
         -2   -1    0    0    0  501 -0.00000000000E+00  0.00000000000E+00  0.41676836016E+03  0.41676836017E+03  0.25500000000E-02 0. -1.
          2   -1    0    0  501    0  0.00000000000E+00 -0.00000000000E+00 -0.18403766444E+04  0.18403766444E+04  0.25500000000E-02 0.  1.
    -200001    2    1    2    0    0 -0.30138913944E+02  0.17088783845E+03 -0.71056796442E+02  0.72433499201E+03  0.69964355558E+03 0.  0.
   -5000001    2    3    3    0    0 -0.31882819607E+02  0.30616204987E+02 -0.82203064803E+02  0.20490895140E+03  0.18241838808E+03 0.  0.
     200001    1    1    2    0    0  0.30138913944E+02 -0.17088783845E+03 -0.13525514877E+04  0.15328100125E+04  0.70000000000E+03 0.  1.
         11    1    4    4    0    0 -0.75758689161E+02 -0.49380638285E+02 -0.28216398318E+02  0.94731154090E+02  0.51100000000E-03 0.  1.
    -200002    1    4    4    0    0  0.43875869554E+02  0.79996843272E+02 -0.53986666485E+02  0.11017779731E+03  0.30000000000E+02 0.  1.
    -200000    1    3    3    0    0  0.17439056630E+01  0.14027163346E+03  0.11146268360E+02  0.51942604060E+03  0.50000000000E+03 0. -1.
<mgrwt>
<rscale>  0 0.17515830E+04</rscale>
<asrwt>0</asrwt>
<pdfrwt beam="1">  1        2 0.26291094E+00 0.17515830E+04</pdfrwt>
<pdfrwt beam="2">  1       -2 0.59538338E-01 0.17515830E+04</pdfrwt>
<totfact> 0.24260592E+01</totfact>
</mgrwt>
</event>
<event>
 8    2  0.2588871E-009  0.2585901E+04  0.7818608E-02  0.8373006E-01
          2   -1    0    0  501    0  0.00000000000E+00  0.00000000000E+00  0.19856612785E+04  0.19856612785E+04  0.25500000000E-02 0.  1.
         -2   -1    0    0    0  501 -0.00000000000E+00 -0.00000000000E+00 -0.84189622677E+03  0.84189622677E+03  0.25500000000E-02 0. -1.
    -200001    2    1    2    0    0 -0.87206685602E+03 -0.63119431814E+03  0.40719708556E+03  0.13472064532E+04  0.70017775773E+03 0.  0.
   -5000001    2    3    3    0    0 -0.22211258911E+03 -0.33982742092E+02  0.53979835713E+02  0.27302553676E+03  0.14539701530E+03 0.  0.
     200001    1    1    2    0    0  0.87206685602E+03  0.63119431814E+03  0.73656796618E+03  0.14803510521E+04  0.70000000000E+03 0. -1.
         11    1    4    4    0    0 -0.33006300007E+02 -0.33865810170E+02 -0.37945029400E+02  0.60631132227E+02  0.51100000000E-03 0.  1.
    -200002    1    4    4    0    0 -0.18910628910E+03 -0.11693192212E+00  0.91924865114E+02  0.21239440453E+03  0.30000000000E+02 0.  1.
    -200000    1    3    3    0    0 -0.64995426692E+03 -0.59721157604E+03  0.35321724985E+03  0.10741809164E+04  0.50000000000E+03 0.  1.
<mgrwt>
<rscale>  0 0.25859008E+04</rscale>
<asrwt>0</asrwt>
<pdfrwt beam="1">  1        2 0.28366589E+00 0.25859008E+04</pdfrwt>
<pdfrwt beam="2">  1       -2 0.12027089E+00 0.25859008E+04</pdfrwt>
<totfact> 0.38407966E+00</totfact>
</mgrwt>
</event>
<event>
 8    2  0.2588871E-009  0.1592729E+04  0.7818608E-02  0.8825028E-01
         -2   -1    0    0    0  501 -0.00000000000E+00  0.00000000000E+00  0.42535272973E+03  0.42535272974E+03  0.25500000000E-02 0.  1.
          2   -1    0    0  501    0  0.00000000000E+00 -0.00000000000E+00 -0.14909886455E+04  0.14909886455E+04  0.25500000000E-02 0. -1.
    -200001    2    1    2    0    0  0.61808511444E+02  0.22584201003E+03 -0.17422171852E+03  0.75899778900E+03  0.70064222747E+03 0.  0.
   -5000001    2    3    3    0    0 -0.13394261464E+02  0.74254637478E+02 -0.36473405455E+02  0.21346246812E+03  0.19632309738E+03 0.  0.
     200001    1    1    2    0    0 -0.61808511444E+02 -0.22584201003E+03 -0.89141419728E+03  0.11573435863E+04  0.70000000000E+03 0. -1.
         11    1    4    4    0    0  0.81793291611E+02 -0.49213268240E+01 -0.42297632736E+01  0.82050307177E+02  0.51100000000E-03 0.  1.
    -200002    1    4    4    0    0 -0.95187553074E+02  0.79175964302E+02 -0.32243642181E+02  0.13141216095E+03  0.30000000000E+02 0.  1.
    -200000    1    3    3    0    0  0.75202772908E+02  0.15158737256E+03 -0.13774831307E+03  0.54553532088E+03  0.50000000000E+03 0.  1.
<mgrwt>
<rscale>  0 0.15927286E+04</rscale>
<asrwt>0</asrwt>
<pdfrwt beam="1">  1        2 0.21299838E+00 0.15927286E+04</pdfrwt>
<pdfrwt beam="2">  1       -2 0.60764676E-01 0.15927286E+04</pdfrwt>
<totfact> 0.35826688E+01</totfact>
</mgrwt>
</event>
<event>
 8    2  0.2588871E-009  0.2020187E+04  0.7818608E-02  0.8597240E-01
         -2   -1    0    0    0  501 -0.00000000000E+00  0.00000000000E+00  0.36348530643E+03  0.36348530644E+03  0.25500000000E-02 0. -1.
          2   -1    0    0  501    0  0.00000000000E+00 -0.00000000000E+00 -0.28069606287E+04  0.28069606287E+04  0.25500000000E-02 0.  1.
    -200001    2    1    2    0    0  0.70897214126E+03  0.17900568650E+03 -0.11967571723E+04  0.15645223135E+04  0.69341027345E+03 0.  0.
   -5000001    2    3    3    0    0  0.21962226948E+03  0.65549847072E+02 -0.28495032607E+03  0.40965121715E+03  0.18462585866E+03 0.  0.
     200001    1    1    2    0    0 -0.70897214126E+03 -0.17900568650E+03 -0.12467181500E+04  0.16059236216E+04  0.70000000000E+03 0. -1.
         11    1    4    4    0    0  0.51778602364E+02 -0.62105919791E+02 -0.88756237686E+02  0.12006597630E+03  0.51100000000E-03 0.  1.
    -200002    1    4    4    0    0  0.16784366712E+03  0.12765576686E+03 -0.19619408838E+03  0.28958524086E+03  0.30000000000E+02 0.  1.
    -200000    1    3    3    0    0  0.48934987177E+03  0.11345583943E+03 -0.91180684619E+03  0.11548710964E+04  0.50000000000E+03 0.  1.
<mgrwt>
<rscale>  0 0.20201871E+04</rscale>
<asrwt>0</asrwt>
<pdfrwt beam="1">  1        2 0.40099436E+00 0.20201871E+04</pdfrwt>
<pdfrwt beam="2">  1       -2 0.51926474E-01 0.20201871E+04</pdfrwt>
<totfact> 0.98392178E+00</totfact>
</mgrwt>
</event>
<event>
 8    2  0.2588871E-009  0.1415786E+04  0.7818608E-02  0.8942470E-01
         -2   -1    0    0    0  501 -0.00000000000E+00  0.00000000000E+00  0.71491825537E+03  0.71491825538E+03  0.25500000000E-02 0. -1.
          2   -1    0    0  501    0  0.00000000000E+00 -0.00000000000E+00 -0.70093724765E+03  0.70093724765E+03  0.25500000000E-02 0.  1.
    -200001    2    1    2    0    0 -0.50125636655E+02 -0.60141640752E+02 -0.63883469459E+02  0.70720010496E+03  0.69994377945E+03 0.  0.
   -5000001    2    3    3    0    0  0.55373994394E+02 -0.98337408800E+02 -0.60289512303E+02  0.19475302928E+03  0.14682435730E+03 0.  0.
     200001    1    1    2    0    0  0.50125636655E+02  0.60141640752E+02  0.77864477183E+02  0.70865539807E+03  0.70000000000E+03 0. -1.
         11    1    4    4    0    0  0.94118580475E+02 -0.33716974641E+02 -0.12848994399E+02  0.10079800706E+03  0.51100000000E-03 0.  1.
    -200002    1    4    4    0    0 -0.38744586082E+02 -0.64620434159E+02 -0.47440517904E+02  0.93955022221E+02  0.30000000000E+02 0.  1.
    -200000    1    3    3    0    0 -0.10549963105E+03  0.38195768048E+02 -0.35939571560E+01  0.51244707568E+03  0.50000000000E+03 0.  1.
<mgrwt>
<rscale>  0 0.14157865E+04</rscale>
<asrwt>0</asrwt>
<pdfrwt beam="1">  1        2 0.10013389E+00 0.14157865E+04</pdfrwt>
<pdfrwt beam="2">  1       -2 0.10213118E+00 0.14157865E+04</pdfrwt>
<totfact> 0.34380501E+01</totfact>
</mgrwt>
</event>
<event>
 8    2  0.2588871E-009  0.1970464E+04  0.7818608E-02  0.8620555E-01
          2   -1    0    0  501    0  0.00000000000E+00  0.00000000000E+00  0.11154245672E+04  0.11154245672E+04  0.25500000000E-02 0.  1.
         -2   -1    0    0    0  501 -0.00000000000E+00 -0.00000000000E+00 -0.87023592570E+03  0.87023592570E+03  0.25500000000E-02 0. -1.
    -200001    2    1    2    0    0 -0.46375616680E+03  0.29702590100E+03 -0.30268998440E+03  0.93997164969E+03  0.69902167882E+03 0.  0.
   -5000001    2    3    3    0    0 -0.10815556543E+03 -0.39646112937E+02 -0.11160847442E+03  0.21449802776E+03  0.14242019430E+03 0.  0.
     200001    1    1    2    0    0  0.46375616680E+03 -0.29702590100E+03  0.54787862588E+03  0.10456888432E+04  0.70000000000E+03 0. -1.
         11    1    4    4    0    0 -0.11027154425E+03  0.22176439380E+02 -0.84124626046E+02  0.14045839470E+03  0.51100000000E-03 0.  1.
    -200002    1    4    4    0    0  0.21159788188E+01 -0.61822552318E+02 -0.27483848377E+02  0.74039633056E+02  0.30000000000E+02 0.  1.
    -200000    1    3    3    0    0 -0.35560060137E+03  0.33667201394E+03 -0.19108150997E+03  0.72547362193E+03  0.50000000000E+03 0.  1.
<mgrwt>
<rscale>  0 0.19704644E+04</rscale>
<asrwt>0</asrwt>
<pdfrwt beam="1">  1        2 0.15934637E+00 0.19704644E+04</pdfrwt>
<pdfrwt beam="2">  1       -2 0.12431942E+00 0.19704644E+04</pdfrwt>
<totfact> 0.10873282E+01</totfact>
</mgrwt>
</event>
<event>
 8    2  0.2588871E-009  0.1535087E+04  0.7818608E-02  0.8861450E-01
         -2   -1    0    0    0  501 -0.00000000000E+00  0.00000000000E+00  0.75506470475E+03  0.75506470475E+03  0.25500000000E-02 0. -1.
          2   -1    0    0  501    0  0.00000000000E+00 -0.00000000000E+00 -0.78022886845E+03  0.78022886846E+03  0.25500000000E-02 0.  1.
    -200001    2    1    2    0    0 -0.49415831716E+02  0.20397930541E+03 -0.24524586760E+03  0.77208623713E+03  0.70137161372E+03 0.  0.
   -5000001    2    3    3    0    0  0.79534238263E+01 -0.21294967317E+02 -0.81558586079E+02  0.19690517384E+03  0.17777264114E+03 0.  0.
     200001    1    1    2    0    0  0.49415831716E+02 -0.20397930541E+03  0.22008170390E+03  0.76320733608E+03  0.70000000000E+03 0. -1.
         11    1    4    4    0    0  0.64213946284E+01  0.12885365371E+02 -0.12979577060E+03  0.13059176474E+03  0.51100000000E-03 0.  1.
    -200002    1    4    4    0    0  0.15320291979E+01 -0.34180332688E+02  0.48237184525E+02  0.66313409104E+02  0.30000000000E+02 0.  1.
    -200000    1    3    3    0    0 -0.57369255543E+02  0.22527427273E+03 -0.16368728152E+03  0.57518106329E+03  0.50000000000E+03 0.  1.
<mgrwt>
<rscale>  0 0.15350873E+04</rscale>
<asrwt>0</asrwt>
<pdfrwt beam="1">  1        2 0.11146127E+00 0.15350873E+04</pdfrwt>
<pdfrwt beam="2">  1       -2 0.10786639E+00 0.15350873E+04</pdfrwt>
<totfact> 0.26119672E+01</totfact>
</mgrwt>
</event>
<event>
 8    2  0.2588871E-009  0.1675800E+04  0.7818608E-02  0.8775288E-01
          2   -1    0    0  501    0  0.00000000000E+00  0.00000000000E+00  0.61972715264E+03  0.61972715264E+03  0.25500000000E-02 0.  1.
         -2   -1    0    0    0  501 -0.00000000000E+00 -0.00000000000E+00 -0.11328804519E+04  0.11328804519E+04  0.25500000000E-02 0. -1.
    -200001    2    1    2    0    0  0.34213563918E+01 -0.10415132508E+03  0.21124591226E+03  0.73988186583E+03  0.70138515507E+03 0.  0.
   -5000001    2    3    3    0    0 -0.71473191181E+02 -0.78049448651E+02  0.45364530675E+02  0.20714634612E+03  0.17219620952E+03 0.  0.
     200001    1    1    2    0    0 -0.34213563918E+01  0.10415132508E+03 -0.72439921154E+03  0.10127257387E+04  0.70000000000E+03 0. -1.
         11    1    4    4    0    0 -0.44480075402E+02 -0.10959335499E+03  0.82217639364E+02  0.14404485686E+03  0.51100000000E-03 0.  1.
    -200002    1    4    4    0    0 -0.26993115779E+02  0.31543906336E+02 -0.36853108690E+02  0.63101489258E+02  0.30000000000E+02 0.  1.
    -200000    1    3    3    0    0  0.74894547573E+02 -0.26101876433E+02  0.16588138159E+03  0.53273551972E+03  0.50000000000E+03 0.  1.
<mgrwt>
<rscale>  0 0.16758004E+04</rscale>
<asrwt>0</asrwt>
<pdfrwt beam="1">  1        2 0.88532451E-01 0.16758004E+04</pdfrwt>
<pdfrwt beam="2">  1       -2 0.16184006E+00 0.16758004E+04</pdfrwt>
<totfact> 0.12173893E+01</totfact>
</mgrwt>
</event>
<event>
 8    2  0.2588871E-009  0.1496670E+04  0.7818608E-02  0.8886670E-01
         -2   -1    0    0    0  501 -0.00000000000E+00  0.00000000000E+00  0.32809429399E+03  0.32809429400E+03  0.25500000000E-02 0. -1.
          2   -1    0    0  501    0  0.00000000000E+00 -0.00000000000E+00 -0.17068429397E+04  0.17068429397E+04  0.25500000000E-02 0.  1.
    -200001    2    1    2    0    0 -0.10129790914E+03  0.14114474220E+03 -0.41986303491E+03  0.83508527648E+03  0.70064209570E+03 0.  0.
   -5000001    2    3    3    0    0  0.33437644120E+02  0.11450821517E+03 -0.10762448020E+03  0.22981171111E+03  0.16431733457E+03 0.  0.
     200001    1    1    2    0    0  0.10129790914E+03 -0.14114474220E+03 -0.95888561077E+03  0.11998519572E+04  0.70000000000E+03 0.  1.
         11    1    4    4    0    0  0.46301989608E+02  0.40996678174E+02  0.31277262463E+02  0.69302734509E+02  0.51100000000E-03 0.  1.
    -200002    1    4    4    0    0 -0.12864345488E+02  0.73511536992E+02 -0.13890174266E+03  0.16050897660E+03  0.30000000000E+02 0.  1.
    -200000    1    3    3    0    0 -0.13473555326E+03  0.26636527036E+02 -0.31223855471E+03  0.60527356537E+03  0.50000000000E+03 0. -1.
<mgrwt>
<rscale>  0 0.14966702E+04</rscale>
<asrwt>0</asrwt>
<pdfrwt beam="1">  1        2 0.24383470E+00 0.14966702E+04</pdfrwt>
<pdfrwt beam="2">  1       -2 0.46870614E-01 0.14966702E+04</pdfrwt>
<totfact> 0.47499379E+01</totfact>
</mgrwt>
</event>
<event>
 8    2  0.2588871E-009  0.1581914E+04  0.7818608E-02  0.8831737E-01
          2   -1    0    0  501    0  0.00000000000E+00  0.00000000000E+00  0.48863043660E+04  0.48863043660E+04  0.25500000000E-02 0.  1.
         -2   -1    0    0    0  501 -0.00000000000E+00 -0.00000000000E+00 -0.12803399693E+03  0.12803399695E+03  0.25500000000E-02 0. -1.
    -200001    2    1    2    0    0  0.84233578866E+01 -0.22647759025E+03  0.32965786017E+04  0.33779075289E+04  0.70104617871E+03 0.  0.
   -5000001    2    3    3    0    0  0.42263077046E+02 -0.73340863170E+02  0.99827445460E+03  0.10206213909E+04  0.19481038720E+03 0.  0.
     200001    1    1    2    0    0 -0.84233578866E+01  0.22647759025E+03  0.14616917673E+04  0.16364308340E+04  0.70000000000E+03 0.  1.
         11    1    4    4    0    0 -0.20181367077E+02  0.90493928197E+01  0.74616240351E+03  0.74649012820E+03  0.51100000000E-03 0.  1.
    -200002    1    4    4    0    0  0.62444444123E+02 -0.82390255990E+02  0.25211205108E+03  0.27413126269E+03  0.30000000000E+02 0.  1.
    -200000    1    3    3    0    0 -0.33839719159E+02 -0.15313672708E+03  0.22983041471E+04  0.23572861380E+04  0.50000000000E+03 0.  1.
<mgrwt>
<rscale>  0 0.15819141E+04</rscale>
<asrwt>0</asrwt>
<pdfrwt beam="1">  1        2 0.69804345E+00 0.15819141E+04</pdfrwt>
<pdfrwt beam="2">  1       -2 0.18290572E-01 0.15819141E+04</pdfrwt>
<totfact> 0.28079892E+00</totfact>
</mgrwt>
</event>
<event>
 8    2  0.2588871E-009  0.1981229E+04  0.7818608E-02  0.8615447E-01
          2   -1    0    0  501    0  0.00000000000E+00  0.00000000000E+00  0.10329760899E+04  0.10329760899E+04  0.25500000000E-02 0.  1.
         -2   -1    0    0    0  501 -0.00000000000E+00 -0.00000000000E+00 -0.94999013851E+03  0.94999013851E+03  0.25500000000E-02 0. -1.
    -200001    2    1    2    0    0  0.92307674093E+02 -0.60913902384E+03 -0.29524322974E+03  0.97667185275E+03  0.69796008925E+03 0.  0.
   -5000001    2    3    3    0    0 -0.46212811977E+02 -0.24535149448E+02 -0.52467375381E+02  0.15820393617E+03  0.13977861921E+03 0.  0.
     200001    1    1    2    0    0 -0.92307674093E+02  0.60913902384E+03  0.37822918114E+03  0.10062943757E+04  0.70000000000E+03 0.  1.
         11    1    4    4    0    0 -0.11656765819E+02  0.54991415529E+02 -0.30096885221E+02  0.63763300350E+02  0.51100000000E-03 0.  1.
    -200002    1    4    4    0    0 -0.34556046159E+02 -0.79526564978E+02 -0.22370490160E+02  0.94440635816E+02  0.30000000000E+02 0.  1.
    -200000    1    3    3    0    0  0.13852048607E+03 -0.58460387439E+03 -0.24277585435E+03  0.81846791658E+03  0.50000000000E+03 0. -1.
<mgrwt>
<rscale>  0 0.19812290E+04</rscale>
<asrwt>0</asrwt>
<pdfrwt beam="1">  1        2 0.14756801E+00 0.19812290E+04</pdfrwt>
<pdfrwt beam="2">  1       -2 0.13571288E+00 0.19812290E+04</pdfrwt>
<totfact> 0.97451451E+00</totfact>
</mgrwt>
</event>
<event>
 8    2  0.2588871E-009  0.1715007E+04  0.7818608E-02  0.8752851E-01
          2   -1    0    0  501    0  0.00000000000E+00  0.00000000000E+00  0.19500827766E+04  0.19500827766E+04  0.25500000000E-02 0.  1.
         -2   -1    0    0    0  501 -0.00000000000E+00 -0.00000000000E+00 -0.37706734536E+03  0.37706734536E+03  0.25500000000E-02 0. -1.
    -200001    2    1    2    0    0  0.33896303460E+03  0.15397916903E+03  0.12295486820E+04  0.14631044454E+04  0.70019935271E+03 0.  0.
   -5000001    2    3    3    0    0 -0.39784069858E+02 -0.27497953950E+02  0.36669186620E+03  0.38102071491E+03  0.91514757100E+02 0.  0.
     200001    1    1    2    0    0 -0.33896303460E+03 -0.15397916903E+03  0.34346674927E+03  0.86404567656E+03  0.70000000000E+03 0. -1.
         11    1    4    4    0    0 -0.24911625565E+00  0.17744366315E+02  0.20731485449E+03  0.20807300038E+03  0.51100000000E-03 0.  1.
    -200002    1    4    4    0    0 -0.39534953603E+02 -0.45242320265E+02  0.15937701171E+03  0.17294771453E+03  0.30000000000E+02 0.  1.
    -200000    1    3    3    0    0  0.37874710445E+03  0.18147712298E+03  0.86285681578E+03  0.10820837305E+04  0.50000000000E+03 0. -1.
<mgrwt>
<rscale>  0 0.17150073E+04</rscale>
<asrwt>0</asrwt>
<pdfrwt beam="1">  1        2 0.27858325E+00 0.17150073E+04</pdfrwt>
<pdfrwt beam="2">  1       -2 0.53866764E-01 0.17150073E+04</pdfrwt>
<totfact> 0.26328867E+01</totfact>
</mgrwt>
</event>
<event>
 8    2  0.2588871E-009  0.1413570E+04  0.7818608E-02  0.8944054E-01
          2   -1    0    0  501    0  0.00000000000E+00  0.00000000000E+00  0.19169934982E+04  0.19169934982E+04  0.25500000000E-02 0.  1.
         -2   -1    0    0    0  501 -0.00000000000E+00 -0.00000000000E+00 -0.26058789649E+03  0.26058789650E+03  0.25500000000E-02 0. -1.
    -200001    2    1    2    0    0 -0.56820179915E+02 -0.23547232231E+02  0.94560337232E+03  0.11780701070E+04  0.69992887798E+03 0.  0.
   -5000001    2    3    3    0    0  0.19184125678E+00 -0.13663283489E+03  0.30746942152E+03  0.35754974572E+03  0.12097853990E+03 0.  0.
     200001    1    1    2    0    0  0.56820179915E+02  0.23547232231E+02  0.71080222942E+03  0.99951128775E+03  0.70000000000E+03 0. -1.
         11    1    4    4    0    0  0.20549104639E+02 -0.13366154600E+03  0.28316951920E+03  0.31380352322E+03  0.51100000000E-03 0.  1.
    -200002    1    4    4    0    0 -0.20357263382E+02 -0.29712888980E+01  0.24299902323E+02  0.43746222500E+02  0.30000000000E+02 0.  1.
    -200000    1    3    3    0    0 -0.57012021172E+02  0.11308560266E+03  0.63813395080E+03  0.82052036126E+03  0.50000000000E+03 0.  1.
<mgrwt>
<rscale>  0 0.14135704E+04</rscale>
<asrwt>0</asrwt>
<pdfrwt beam="1">  1        2 0.27385621E+00 0.14135704E+04</pdfrwt>
<pdfrwt beam="2">  1       -2 0.37226842E-01 0.14135704E+04</pdfrwt>
<totfact> 0.58621676E+01</totfact>
</mgrwt>
</event>
<event>
 8    2  0.2588871E-009  0.2007383E+04  0.7818608E-02  0.8603177E-01
         -2   -1    0    0    0  501 -0.00000000000E+00  0.00000000000E+00  0.48080106064E+03  0.48080106064E+03  0.25500000000E-02 0. -1.
          2   -1    0    0  501    0  0.00000000000E+00 -0.00000000000E+00 -0.20952467117E+04  0.20952467117E+04  0.25500000000E-02 0.  1.
    -200001    2    1    2    0    0  0.47145835521E+03 -0.82393564510E+02 -0.14966115105E+04  0.17199247877E+04  0.69945234415E+03 0.  0.
   -5000001    2    3    3    0    0  0.13703088923E+03  0.59020116806E+02 -0.22466899864E+03  0.30582531708E+03  0.14419475311E+03 0.  0.
     200001    1    1    2    0    0 -0.47145835521E+03  0.82393564510E+02 -0.11783414055E+03  0.85612298465E+03  0.70000000000E+03 0. -1.
         11    1    4    4    0    0  0.76909682539E+02  0.40844955508E+02 -0.21936548519E+03  0.23601827419E+03  0.51100000000E-03 0.  1.
    -200002    1    4    4    0    0  0.60121206693E+02  0.18175161298E+02 -0.53035134511E+01  0.69807042892E+02  0.30000000000E+02 0.  1.
    -200000    1    3    3    0    0  0.33442746598E+03 -0.14141368132E+03 -0.12719425119E+04  0.14140994706E+04  0.50000000000E+03 0.  1.
<mgrwt>
<rscale>  0 0.20073832E+04</rscale>
<asrwt>0</asrwt>
<pdfrwt beam="1">  1        2 0.29932095E+00 0.20073832E+04</pdfrwt>
<pdfrwt beam="2">  1       -2 0.68685867E-01 0.20073832E+04</pdfrwt>
<totfact> 0.12935905E+01</totfact>
</mgrwt>
</event>
<event>
 8    2  0.2588871E-009  0.1433993E+04  0.7818608E-02  0.8929574E-01
          2   -1    0    0  501    0  0.00000000000E+00  0.00000000000E+00  0.10146328326E+04  0.10146328326E+04  0.25500000000E-02 0.  1.
         -2   -1    0    0    0  501 -0.00000000000E+00 -0.00000000000E+00 -0.50666962361E+03  0.50666962362E+03  0.25500000000E-02 0. -1.
    -200001    2    1    2    0    0  0.12802151865E+03 -0.89147189422E+02  0.24466460932E+03  0.75732412984E+03  0.69953008225E+03 0.  0.
   -5000001    2    3    3    0    0 -0.61686524054E+02 -0.48235699416E+01  0.78224949376E+02  0.19093047286E+03  0.16280911733E+03 0.  0.
     200001    1    1    2    0    0 -0.12802151865E+03  0.89147189422E+02  0.26329859969E+03  0.76397832641E+03  0.70000000000E+03 0. -1.
         11    1    4    4    0    0  0.21623863647E+02  0.49158276004E+02  0.68106907033E+02  0.86733375148E+02  0.51100000000E-03 0.  1.
    -200002    1    4    4    0    0 -0.83310387701E+02 -0.53981845945E+02  0.10118042343E+02  0.10419709771E+03  0.30000000000E+02 0.  1.
    -200000    1    3    3    0    0  0.18970804270E+03 -0.84323619481E+02  0.16643965995E+03  0.56639365698E+03  0.50000000000E+03 0.  1.
<mgrwt>
<rscale>  0 0.14339925E+04</rscale>
<asrwt>0</asrwt>
<pdfrwt beam="1">  1        2 0.14494755E+00 0.14339925E+04</pdfrwt>
<pdfrwt beam="2">  1       -2 0.72381375E-01 0.14339925E+04</pdfrwt>
<totfact> 0.46212082E+01</totfact>
</mgrwt>
</event>
<event>
 8    2  0.2588871E-009  0.1614299E+04  0.7818608E-02  0.8811812E-01
         -2   -1    0    0    0  501 -0.00000000000E+00  0.00000000000E+00  0.16933400968E+03  0.16933400970E+03  0.25500000000E-02 0. -1.
          2   -1    0    0  501    0  0.00000000000E+00 -0.00000000000E+00 -0.38473663636E+04  0.38473663636E+04  0.25500000000E-02 0.  1.
    -200001    2    1    2    0    0  0.18409656512E+02 -0.38853520343E+03 -0.20971253499E+04  0.22445363078E+04  0.69907795272E+03 0.  0.
   -5000001    2    3    3    0    0  0.63656922897E+02 -0.24734081181E+03 -0.76881405896E+03  0.81751351294E+03  0.10965220276E+03 0.  0.
     200001    1    1    2    0    0 -0.18409656512E+02  0.38853520343E+03 -0.15809070040E+04  0.17721640655E+04  0.70000000000E+03 0. -1.
         11    1    4    4    0    0  0.41757006368E+02 -0.19012292447E+03 -0.43154299954E+03  0.47341285834E+03  0.51100000000E-03 0.  1.
    -200002    1    4    4    0    0  0.21899916529E+02 -0.57217887341E+02 -0.33727105942E+03  0.34410065460E+03  0.30000000000E+02 0.  1.
    -200000    1    3    3    0    0 -0.45247266385E+02 -0.14119439162E+03 -0.13283112910E+04  0.14270227949E+04  0.50000000000E+03 0. -1.
<mgrwt>
<rscale>  0 0.16142986E+04</rscale>
<asrwt>0</asrwt>
<pdfrwt beam="1">  1        2 0.54962371E+00 0.16142986E+04</pdfrwt>
<pdfrwt beam="2">  1       -2 0.24190575E-01 0.16142986E+04</pdfrwt>
<totfact> 0.10686633E+01</totfact>
</mgrwt>
</event>
<event>
 8    2  0.2588871E-009  0.1830332E+04  0.7818608E-02  0.8690333E-01
         -2   -1    0    0    0  501 -0.00000000000E+00  0.00000000000E+00  0.88877895490E+03  0.88877895490E+03  0.25500000000E-02 0. -1.
          2   -1    0    0  501    0  0.00000000000E+00 -0.00000000000E+00 -0.94233667963E+03  0.94233667963E+03  0.25500000000E-02 0.  1.
    -200001    2    1    2    0    0  0.33506027168E+03 -0.48226522641E+03 -0.80557488005E+02  0.91701819910E+03  0.69970546256E+03 0.  0.
   -5000001    2    3    3    0    0  0.16851497185E+03 -0.23478165473E+03 -0.58258256018E+02  0.33436675021E+03  0.15775733933E+03 0.  0.
     200001    1    1    2    0    0 -0.33506027168E+03  0.48226522641E+03  0.26999763276E+02  0.91409743544E+03  0.70000000000E+03 0. -1.
         11    1    4    4    0    0  0.56695609860E+02 -0.15333792137E+03  0.31865807416E+02  0.16656031937E+03  0.51100000000E-03 0.  1.
    -200002    1    4    4    0    0  0.11181936199E+03 -0.81443733366E+02 -0.90124063434E+02  0.16780643084E+03  0.30000000000E+02 0.  1.
    -200000    1    3    3    0    0  0.16654529983E+03 -0.24748357168E+03 -0.22299231987E+02  0.58265144889E+03  0.50000000000E+03 0.  1.
<mgrwt>
<rscale>  0 0.18303322E+04</rscale>
<asrwt>0</asrwt>
<pdfrwt beam="1">  1        2 0.13461953E+00 0.18303322E+04</pdfrwt>
<pdfrwt beam="2">  1       -2 0.12696842E+00 0.18303322E+04</pdfrwt>
<totfact> 0.13298137E+01</totfact>
</mgrwt>
</event>
<event>
 8    2  0.2588871E-009  0.1628860E+04  0.7818608E-02  0.8803012E-01
         -2   -1    0    0    0  501 -0.00000000000E+00  0.00000000000E+00  0.38430407110E+03  0.38430407111E+03  0.25500000000E-02 0. -1.
          2   -1    0    0  501    0  0.00000000000E+00 -0.00000000000E+00 -0.17259668372E+04  0.17259668372E+04  0.25500000000E-02 0.  1.
    -200001    2    1    2    0    0 -0.17129770054E+02 -0.23627509021E+03 -0.11129273407E+04  0.13366823600E+04  0.70142221134E+03 0.  0.
   -5000001    2    3    3    0    0  0.42209390706E+02  0.67637279145E+02 -0.14838975723E+03  0.20698478357E+03  0.12027778841E+03 0.  0.
     200001    1    1    2    0    0  0.17129770054E+02  0.23627509021E+03 -0.22873542541E+03  0.77358854833E+03  0.70000000000E+03 0. -1.
         11    1    4    4    0    0  0.55125057768E+02  0.15232091240E+02 -0.13691695058E+02  0.58806896800E+02  0.51100000000E-03 0.  1.
    -200002    1    4    4    0    0 -0.12915667061E+02  0.52405187906E+02 -0.13469806217E+03  0.14817788677E+03  0.30000000000E+02 0. -1.
    -200000    1    3    3    0    0 -0.59339160760E+02 -0.30391236936E+03 -0.96453758350E+03  0.11296975764E+04  0.50000000000E+03 0.  1.
<mgrwt>
<rscale>  0 0.16288598E+04</rscale>
<asrwt>0</asrwt>
<pdfrwt beam="1">  1        2 0.24656669E+00 0.16288598E+04</pdfrwt>
<pdfrwt beam="2">  1       -2 0.54900582E-01 0.16288598E+04</pdfrwt>
<totfact> 0.33265161E+01</totfact>
</mgrwt>
</event>
<event>
 8    2  0.2588871E-009  0.2095511E+04  0.7818608E-02  0.8563224E-01
         -2   -1    0    0    0  501 -0.00000000000E+00  0.00000000000E+00  0.54944453851E+03  0.54944453852E+03  0.25500000000E-02 0. -1.
          2   -1    0    0  501    0  0.00000000000E+00 -0.00000000000E+00 -0.19980018123E+04  0.19980018123E+04  0.25500000000E-02 0.  1.
    -200001    2    1    2    0    0 -0.22018600839E+03  0.69979260178E+03 -0.40372224523E+03  0.10914683974E+04  0.70008574297E+03 0.  0.
   -5000001    2    3    3    0    0 -0.13365963189E+03  0.19325467985E+03 -0.16198385581E+03  0.33482784268E+03  0.17509610564E+03 0.  0.
     200001    1    1    2    0    0  0.22018600839E+03 -0.69979260178E+03 -0.10448350285E+04  0.14559779533E+04  0.70000000000E+03 0.  1.
         11    1    4    4    0    0 -0.73997517354E+02  0.67598119646E+01  0.67538425454E+01  0.74611942890E+02  0.51100000000E-03 0.  1.
    -200002    1    4    4    0    0 -0.59662114533E+02  0.18649486788E+03 -0.16873769835E+03  0.26021589979E+03  0.30000000000E+02 0.  1.
    -200000    1    3    3    0    0 -0.86526376504E+02  0.50653792193E+03 -0.24173838942E+03  0.75664055476E+03  0.50000000000E+03 0. -1.
<mgrwt>
<rscale>  0 0.20955106E+04</rscale>
<asrwt>0</asrwt>
<pdfrwt beam="1">  1        2 0.28542883E+00 0.20955106E+04</pdfrwt>
<pdfrwt beam="2">  1       -2 0.78492078E-01 0.20955106E+04</pdfrwt>
<totfact> 0.10740193E+01</totfact>
</mgrwt>
</event>
<event>
 8    2  0.2588871E-009  0.1680276E+04  0.7818608E-02  0.8772694E-01
         -2   -1    0    0    0  501 -0.00000000000E+00  0.00000000000E+00  0.61830627933E+03  0.61830627934E+03  0.25500000000E-02 0. -1.
          2   -1    0    0  501    0  0.00000000000E+00 -0.00000000000E+00 -0.11415573842E+04  0.11415573842E+04  0.25500000000E-02 0.  1.
    -200001    2    1    2    0    0 -0.23519124384E+03 -0.50733657141E+02 -0.67724550396E+03  0.10038192865E+04  0.70078731595E+03 0.  0.
   -5000001    2    3    3    0    0 -0.92798597170E+02  0.57346253106E+02 -0.54927114315E+02  0.18575015073E+03  0.13994984183E+03 0.  0.
     200001    1    1    2    0    0  0.23519124384E+03  0.50733657141E+02  0.15399439906E+03  0.75604437706E+03  0.70000000000E+03 0. -1.
         11    1    4    4    0    0 -0.11953683985E+03  0.18046534590E+02 -0.32077858631E+02  0.12507486761E+03  0.51100000000E-03 0.  1.
    -200002    1    4    4    0    0  0.26738242680E+02  0.39299718516E+02 -0.22849255683E+02  0.60675283125E+02  0.30000000000E+02 0.  1.
    -200000    1    3    3    0    0 -0.14239264667E+03 -0.10807991025E+03 -0.62231838965E+03  0.81806913578E+03  0.50000000000E+03 0.  1.
<mgrwt>
<rscale>  0 0.16802763E+04</rscale>
<asrwt>0</asrwt>
<pdfrwt beam="1">  1        2 0.16307963E+00 0.16802763E+04</pdfrwt>
<pdfrwt beam="2">  1       -2 0.88329468E-01 0.16802763E+04</pdfrwt>
<totfact> 0.24355608E+01</totfact>
</mgrwt>
</event>
<event>
 8    2  0.2588871E-009  0.1767299E+04  0.7818608E-02  0.8723885E-01
          2   -1    0    0  501    0  0.00000000000E+00  0.00000000000E+00  0.21255403332E+04  0.21255403333E+04  0.25500000000E-02 0.  1.
         -2   -1    0    0    0  501 -0.00000000000E+00 -0.00000000000E+00 -0.36735904026E+03  0.36735904027E+03  0.25500000000E-02 0. -1.
    -200001    2    1    2    0    0  0.18323882079E+03  0.56382113719E+02  0.16721798426E+03  0.74420853238E+03  0.69937763563E+03 0.  0.
   -5000001    2    3    3    0    0 -0.28026289353E+02  0.65935256880E+02  0.86438874865E+02  0.19534655172E+03  0.15986139367E+03 0.  0.
     200001    1    1    2    0    0 -0.18323882079E+03 -0.56382113719E+02  0.15909633087E+04  0.17486908411E+04  0.70000000000E+03 0.  1.
         11    1    4    4    0    0 -0.72273432562E+02  0.89344893421E+02  0.70617131693E+02  0.13488045938E+03  0.51100000000E-03 0.  1.
    -200002    1    4    4    0    0  0.44247143209E+02 -0.23409636542E+02  0.15821743171E+02  0.60466092334E+02  0.30000000000E+02 0.  1.
    -200000    1    3    3    0    0  0.21126511014E+03 -0.95531431607E+01  0.80779109399E+02  0.54886198067E+03  0.50000000000E+03 0. -1.
<mgrwt>
<rscale>  0 0.17672990E+04</rscale>
<asrwt>0</asrwt>
<pdfrwt beam="1">  1        2 0.30364862E+00 0.17672990E+04</pdfrwt>
<pdfrwt beam="2">  1       -2 0.52479862E-01 0.17672990E+04</pdfrwt>
<totfact> 0.22472631E+01</totfact>
</mgrwt>
</event>
<event>
 8    2  0.2588871E-009  0.1678089E+04  0.7818608E-02  0.8773960E-01
         -2   -1    0    0    0  501 -0.00000000000E+00  0.00000000000E+00  0.50378203539E+03  0.50378203540E+03  0.25500000000E-02 0. -1.
          2   -1    0    0  501    0  0.00000000000E+00 -0.00000000000E+00 -0.13974214637E+04  0.13974214637E+04  0.25500000000E-02 0.  1.
    -200001    2    1    2    0    0 -0.23775020689E+03  0.30955248286E+03 -0.72792451234E+03  0.10827846980E+04  0.70014334685E+03 0.  0.
   -5000001    2    3    3    0    0 -0.83429842905E+02  0.89400682699E+02 -0.23303563727E+03  0.32966014758E+03  0.19853761333E+03 0.  0.
     200001    1    1    2    0    0  0.23775020689E+03 -0.30955248286E+03 -0.16571491594E+03  0.81841880103E+03  0.70000000000E+03 0. -1.
         11    1    4    4    0    0  0.10371796056E+02 -0.55185232304E+02 -0.76606859978E+02  0.94982077329E+02  0.51100000000E-03 0.  1.
    -200002    1    4    4    0    0 -0.93801638961E+02  0.14458591500E+03 -0.15642877730E+03  0.23467807025E+03  0.30000000000E+02 0.  1.
    -200000    1    3    3    0    0 -0.15432036398E+03  0.22015180016E+03 -0.49488887507E+03  0.75312455047E+03  0.50000000000E+03 0. -1.
<mgrwt>
<rscale>  0 0.16780892E+04</rscale>
<asrwt>0</asrwt>
<pdfrwt beam="1">  1        2 0.19963164E+00 0.16780892E+04</pdfrwt>
<pdfrwt beam="2">  1       -2 0.71968863E-01 0.16780892E+04</pdfrwt>
<totfact> 0.27744959E+01</totfact>
</mgrwt>
</event>
<event>
 8    2  0.2588871E-009  0.1721925E+04  0.7818608E-02  0.8748958E-01
         -2   -1    0    0    0  501 -0.00000000000E+00  0.00000000000E+00  0.11693780334E+04  0.11693780334E+04  0.25500000000E-02 0. -1.
          2   -1    0    0  501    0  0.00000000000E+00 -0.00000000000E+00 -0.63388928464E+03  0.63388928465E+03  0.25500000000E-02 0.  1.
    -200001    2    1    2    0    0 -0.74952242848E+02  0.32420655471E+03 -0.12797200732E+03  0.78301837606E+03  0.69714647942E+03 0.  0.
   -5000001    2    3    3    0    0 -0.99959674031E+02  0.15710158354E+03 -0.76385895274E+02  0.25272546647E+03  0.15284800431E+03 0.  0.
     200001    1    1    2    0    0  0.74952242848E+02 -0.32420655471E+03  0.66346075612E+03  0.10202489420E+04  0.70000000000E+03 0. -1.
         11    1    4    4    0    0 -0.92769432914E+02  0.59373908756E+02  0.20110229667E+02  0.11196361044E+03  0.51100000000E-03 0.  1.
    -200002    1    4    4    0    0 -0.71902411168E+01  0.97727674780E+02 -0.96496124940E+02  0.14076185603E+03  0.30000000000E+02 0.  1.
    -200000    1    3    3    0    0  0.25007431183E+02  0.16710497117E+03 -0.51586112043E+02  0.53029290959E+03  0.50000000000E+03 0.  1.
<mgrwt>
<rscale>  0 0.17219247E+04</rscale>
<asrwt>0</asrwt>
<pdfrwt beam="1">  1        2 0.90555613E-01 0.17219247E+04</pdfrwt>
<pdfrwt beam="2">  1       -2 0.16705400E+00 0.17219247E+04</pdfrwt>
<totfact> 0.10819897E+01</totfact>
</mgrwt>
</event>
<event>
 8    2  0.2588871E-009  0.1628992E+04  0.7818608E-02  0.8802933E-01
          2   -1    0    0  501    0  0.00000000000E+00  0.00000000000E+00  0.10503269362E+04  0.10503269362E+04  0.25500000000E-02 0.  1.
         -2   -1    0    0    0  501 -0.00000000000E+00 -0.00000000000E+00 -0.63161628040E+03  0.63161628041E+03  0.25500000000E-02 0. -1.
    -200001    2    1    2    0    0  0.24041142215E+02 -0.38175348982E+03  0.38045599102E+02  0.79807694342E+03  0.69940377215E+03 0.  0.
   -5000001    2    3    3    0    0  0.25038445764E+02  0.58761194984E+02 -0.36563134603E+02  0.12753936410E+03  0.10416153215E+03 0.  0.
     200001    1    1    2    0    0 -0.24041142215E+02  0.38175348982E+03  0.38066505672E+03  0.88386627321E+03  0.70000000000E+03 0.  1.
         11    1    4    4    0    0  0.32713236602E+02  0.26454297906E+02 -0.62855759760E+02  0.75636183550E+02  0.51100000000E-03 0.  1.
    -200002    1    4    4    0    0 -0.76747908387E+01  0.32306897078E+02  0.26292625157E+02  0.51903180547E+02  0.30000000000E+02 0.  1.
    -200000    1    3    3    0    0 -0.99730354860E+00 -0.44051468481E+03  0.74608733705E+02  0.67053757933E+03  0.50000000000E+03 0. -1.
<mgrwt>
<rscale>  0 0.16289918E+04</rscale>
<asrwt>0</asrwt>
<pdfrwt beam="1">  1        2 0.15004670E+00 0.16289918E+04</pdfrwt>
<pdfrwt beam="2">  1       -2 0.90230898E-01 0.16289918E+04</pdfrwt>
<totfact> 0.26366987E+01</totfact>
</mgrwt>
</event>
<event>
 8    2  0.2588871E-009  0.1735698E+04  0.7818608E-02  0.8741262E-01
          2   -1    0    0  501    0  0.00000000000E+00  0.00000000000E+00  0.18611071304E+04  0.18611071304E+04  0.25500000000E-02 0.  1.
         -2   -1    0    0    0  501 -0.00000000000E+00 -0.00000000000E+00 -0.40468484121E+03  0.40468484122E+03  0.25500000000E-02 0. -1.
    -200001    2    1    2    0    0 -0.33407877264E+03 -0.24093056115E+03  0.11279374120E+04  0.13896878248E+04  0.69952361174E+03 0.  0.
   -5000001    2    3    3    0    0 -0.52220342395E+02 -0.49834353725E+02  0.20475061802E+03  0.28595063155E+03  0.18610352262E+03 0.  0.
     200001    1    1    2    0    0  0.33407877264E+03  0.24093056115E+03  0.32848487727E+03  0.87610414690E+03  0.70000000000E+03 0. -1.
         11    1    4    4    0    0  0.25344159586E+02  0.58037116252E+02  0.68657024754E+02  0.93404605541E+02  0.51100000000E-03 0.  1.
    -200002    1    4    4    0    0 -0.77564501981E+02 -0.10787146998E+03  0.13609359327E+03  0.19254602601E+03  0.30000000000E+02 0.  1.
    -200000    1    3    3    0    0 -0.28185843025E+03 -0.19109620742E+03  0.92318679393E+03  0.11037371932E+04  0.50000000000E+03 0.  1.
<mgrwt>
<rscale>  0 0.17356980E+04</rscale>
<asrwt>0</asrwt>
<pdfrwt beam="1">  1        2 0.26587245E+00 0.17356980E+04</pdfrwt>
<pdfrwt beam="2">  1       -2 0.57812119E-01 0.17356980E+04</pdfrwt>
<totfact> 0.25212789E+01</totfact>
</mgrwt>
</event>
<event>
 8    2  0.2588871E-009  0.1872984E+04  0.7818608E-02  0.8668422E-01
         -2   -1    0    0    0  501 -0.00000000000E+00  0.00000000000E+00  0.34521175219E+03  0.34521175220E+03  0.25500000000E-02 0. -1.
          2   -1    0    0  501    0  0.00000000000E+00 -0.00000000000E+00 -0.25405193836E+04  0.25405193836E+04  0.25500000000E-02 0.  1.
    -200001    2    1    2    0    0 -0.33640744484E+03 -0.39771159127E+03 -0.16216500953E+04  0.18414957947E+04  0.70000946554E+03 0.  0.
   -5000001    2    3    3    0    0 -0.73660617243E+02  0.56022158580E+02 -0.32144617137E+03  0.35306022178E+03  0.11295800252E+03 0.  0.
     200001    1    1    2    0    0  0.33640744484E+03  0.39771159127E+03 -0.57365753620E+03  0.10442353411E+04  0.70000000000E+03 0.  1.
         11    1    4    4    0    0 -0.95420999614E+02  0.27787888262E+02 -0.21443657558E+03  0.23634800369E+03  0.51100000000E-03 0.  1.
    -200002    1    4    4    0    0  0.21760382370E+02  0.28234270318E+02 -0.10700959579E+03  0.11671221810E+03  0.30000000000E+02 0.  1.
    -200000    1    3    3    0    0 -0.26274682759E+03 -0.45373374985E+03 -0.13002039239E+04  0.14884355730E+04  0.50000000000E+03 0.  1.
<mgrwt>
<rscale>  0 0.18729839E+04</rscale>
<asrwt>0</asrwt>
<pdfrwt beam="1">  1        2 0.36293133E+00 0.18729839E+04</pdfrwt>
<pdfrwt beam="2">  1       -2 0.49315966E-01 0.18729839E+04</pdfrwt>
<totfact> 0.15380239E+01</totfact>
</mgrwt>
</event>
<event>
 8    2  0.2588871E-009  0.1844352E+04  0.7818608E-02  0.8683063E-01
          2   -1    0    0  501    0  0.00000000000E+00  0.00000000000E+00  0.23641466342E+04  0.23641466342E+04  0.25500000000E-02 0.  1.
         -2   -1    0    0    0  501 -0.00000000000E+00 -0.00000000000E+00 -0.35971055376E+03  0.35971055377E+03  0.25500000000E-02 0. -1.
    -200001    2    1    2    0    0 -0.37313479600E+03 -0.46910648460E+03  0.10374691737E+04  0.13880744704E+04  0.70079810150E+03 0.  0.
   -5000001    2    3    3    0    0 -0.31480770645E+02 -0.11884837340E+03  0.15273822432E+03  0.26017506427E+03  0.17101498216E+03 0.  0.
     200001    1    1    2    0    0  0.37313479600E+03  0.46910648460E+03  0.96696690668E+03  0.13357827176E+04  0.70000000000E+03 0.  1.
         11    1    4    4    0    0 -0.50194861820E+02 -0.66104608635E+02 -0.11774350403E+02  0.83833041002E+02  0.51100000000E-03 0.  1.
    -200002    1    4    4    0    0  0.18714091176E+02 -0.52743764764E+02  0.16451257472E+03  0.17634202327E+03  0.30000000000E+02 0.  1.
    -200000    1    3    3    0    0 -0.34165402536E+03 -0.35025811120E+03  0.88473094943E+03  0.11278994061E+04  0.50000000000E+03 0. -1.
<mgrwt>
<rscale>  0 0.18443519E+04</rscale>
<asrwt>0</asrwt>
<pdfrwt beam="1">  1        2 0.33773522E+00 0.18443519E+04</pdfrwt>
<pdfrwt beam="2">  1       -2 0.51387224E-01 0.18443519E+04</pdfrwt>
<totfact> 0.17542222E+01</totfact>
</mgrwt>
</event>
<event>
 8    2  0.2588871E-009  0.2280549E+04  0.7818608E-02  0.8485630E-01
          2   -1    0    0  501    0  0.00000000000E+00  0.00000000000E+00  0.48051001629E+03  0.48051001630E+03  0.25500000000E-02 0.  1.
         -2   -1    0    0    0  501 -0.00000000000E+00 -0.00000000000E+00 -0.27059281344E+04  0.27059281344E+04  0.25500000000E-02 0. -1.
    -200001    2    1    2    0    0  0.56542918232E+03  0.69491370520E+03 -0.12349812591E+04  0.16785985075E+04  0.69992786853E+03 0.  0.
   -5000001    2    3    3    0    0  0.21459470962E+03  0.23700503318E+03 -0.45700459456E+03  0.58863847625E+03  0.18820143762E+03 0.  0.
     200001    1    1    2    0    0 -0.56542918232E+03 -0.69491370520E+03 -0.99043685899E+03  0.15078396432E+04  0.70000000000E+03 0.  1.
         11    1    4    4    0    0  0.60467548659E+02 -0.25092960203E+02 -0.81114201612E+02  0.10423768415E+03  0.51100000000E-03 0.  1.
    -200002    1    4    4    0    0  0.15412716096E+03  0.26209799338E+03 -0.37589039295E+03  0.48440079210E+03  0.30000000000E+02 0.  1.
    -200000    1    3    3    0    0  0.35083447271E+03  0.45790867202E+03 -0.77797666452E+03  0.10899600312E+04  0.50000000000E+03 0. -1.
<mgrwt>
<rscale>  0 0.22805487E+04</rscale>
<asrwt>0</asrwt>
<pdfrwt beam="1">  1        2 0.68644289E-01 0.22805487E+04</pdfrwt>
<pdfrwt beam="2">  1       -2 0.38656115E+00 0.22805487E+04</pdfrwt>
<totfact> 0.58238702E-01</totfact>
</mgrwt>
</event>
<event>
 8    2  0.2588871E-009  0.1504761E+04  0.7818608E-02  0.8881293E-01
          2   -1    0    0  501    0  0.00000000000E+00  0.00000000000E+00  0.71528912937E+03  0.71528912937E+03  0.25500000000E-02 0.  1.
         -2   -1    0    0    0  501 -0.00000000000E+00 -0.00000000000E+00 -0.79139537597E+03  0.79139537597E+03  0.25500000000E-02 0. -1.
    -200001    2    1    2    0    0 -0.70825726335E+01 -0.32819548758E+02 -0.30408584602E+03  0.76972997258E+03  0.70632056696E+03 0.  0.
   -5000001    2    3    3    0    0  0.21782668273E+02  0.62513242545E+02 -0.19584156697E+03  0.24854059512E+03  0.13797143884E+03 0.  0.
     200001    1    1    2    0    0  0.70825726335E+01  0.32819548758E+02  0.22797959942E+03  0.73695453277E+03  0.70000000000E+03 0.  1.
         11    1    4    4    0    0  0.55610558447E+02 -0.10670880852E+02 -0.12453780479E+03  0.13680667649E+03  0.51100000000E-03 0.  1.
    -200002    1    4    4    0    0 -0.33827890174E+02  0.73184123397E+02 -0.71303762182E+02  0.11173391863E+03  0.30000000000E+02 0.  1.
    -200000    1    3    3    0    0 -0.28865240907E+02 -0.95332791302E+02 -0.10824427905E+03  0.52118937746E+03  0.50000000000E+03 0. -1.
<mgrwt>
<rscale>  0 0.15047611E+04</rscale>
<asrwt>0</asrwt>
<pdfrwt beam="1">  1        2 0.10218416E+00 0.15047611E+04</pdfrwt>
<pdfrwt beam="2">  1       -2 0.11305648E+00 0.15047611E+04</pdfrwt>
<totfact> 0.26066980E+01</totfact>
</mgrwt>
</event>
<event>
 8    2  0.2588871E-009  0.2186702E+04  0.7818608E-02  0.8523984E-01
         -2   -1    0    0    0  501 -0.00000000000E+00  0.00000000000E+00  0.77489878110E+03  0.77489878111E+03  0.25500000000E-02 0. -1.
          2   -1    0    0  501    0  0.00000000000E+00 -0.00000000000E+00 -0.15426738968E+04  0.15426738968E+04  0.25500000000E-02 0.  1.
    -200001    2    1    2    0    0 -0.42722573082E+03 -0.30315293936E+03 -0.10792334265E+04  0.13894402471E+04  0.70098208362E+03 0.  0.
   -5000001    2    3    3    0    0 -0.81517404587E+02  0.65327986966E+02 -0.11262536241E+03  0.18959709503E+03  0.11112944279E+03 0.  0.
     200001    1    1    2    0    0  0.42722573082E+03  0.30315293936E+03  0.31145831085E+03  0.92813243081E+03  0.70000000000E+03 0. -1.
         11    1    4    4    0    0 -0.10738851122E+02  0.20713461435E+02 -0.96479054227E+02  0.99260154709E+02  0.51100000000E-03 0.  1.
    -200002    1    4    4    0    0 -0.70778553465E+02  0.44614525531E+02 -0.16146308178E+02  0.90336940322E+02  0.30000000000E+02 0.  1.
    -200000    1    3    3    0    0 -0.34570832624E+03 -0.36848092633E+03 -0.96660806410E+03  0.11998431520E+04  0.50000000000E+03 0.  1.
<mgrwt>
<rscale>  0 0.21867017E+04</rscale>
<asrwt>0</asrwt>
<pdfrwt beam="1">  1        2 0.22038198E+00 0.21867017E+04</pdfrwt>
<pdfrwt beam="2">  1       -2 0.11069983E+00 0.21867017E+04</pdfrwt>
<totfact> 0.82548681E+00</totfact>
</mgrwt>
</event>
<event>
 8    2  0.2588871E-009  0.2155419E+04  0.7818608E-02  0.8537216E-01
          2   -1    0    0  501    0  0.00000000000E+00  0.00000000000E+00  0.93825740086E+03  0.93825740086E+03  0.25500000000E-02 0.  1.
         -2   -1    0    0    0  501 -0.00000000000E+00 -0.00000000000E+00 -0.12378880571E+04  0.12378880571E+04  0.25500000000E-02 0. -1.
    -200001    2    1    2    0    0  0.27276737337E+03 -0.75570956508E+02  0.62692243730E+03  0.98089918851E+03  0.69929855297E+03 0.  0.
   -5000001    2    3    3    0    0  0.18156459560E+02 -0.85317988681E+02  0.22155762935E+03  0.28862586851E+03  0.16312048502E+03 0.  0.
     200001    1    1    2    0    0 -0.27276737337E+03  0.75570956508E+02 -0.92655309350E+03  0.11952462694E+04  0.70000000000E+03 0. -1.
         11    1    4    4    0    0  0.68982351985E+02 -0.63891688063E+02  0.51190657858E+02  0.10705697614E+03  0.51100000000E-03 0.  1.
    -200002    1    4    4    0    0 -0.50825892425E+02 -0.21426300618E+02  0.17036697149E+03  0.18156889236E+03  0.30000000000E+02 0.  1.
    -200000    1    3    3    0    0  0.25461091381E+03  0.97470321733E+01  0.40536480796E+03  0.69227332001E+03  0.50000000000E+03 0.  1.
<mgrwt>
<rscale>  0 0.21554189E+04</rscale>
<asrwt>0</asrwt>
<pdfrwt beam="1">  1        2 0.13403677E+00 0.21554189E+04</pdfrwt>
<pdfrwt beam="2">  1       -2 0.17684115E+00 0.21554189E+04</pdfrwt>
<totfact> 0.53960244E+00</totfact>
</mgrwt>
</event>
<event>
 8    2  0.2588871E-009  0.1533687E+04  0.7818608E-02  0.8862355E-01
          2   -1    0    0  501    0  0.00000000000E+00  0.00000000000E+00  0.22270554231E+04  0.22270554231E+04  0.25500000000E-02 0.  1.
         -2   -1    0    0    0  501 -0.00000000000E+00 -0.00000000000E+00 -0.26404779104E+03  0.26404779105E+03  0.25500000000E-02 0. -1.
    -200001    2    1    2    0    0  0.21613083325E+03 -0.19186054094E+03  0.82036553491E+03  0.11202808455E+04  0.70604996824E+03 0.  0.
   -5000001    2    3    3    0    0  0.43616739299E+02 -0.60193225510E+02  0.23876367764E+03  0.32318730334E+03  0.20473469401E+03 0.  0.
     200001    1    1    2    0    0 -0.21613083325E+03  0.19186054094E+03  0.11426420972E+04  0.13708223687E+04  0.70000000000E+03 0. -1.
         11    1    4    4    0    0 -0.22821423556E+02  0.46457478527E+02  0.16820847796E+03  0.17599206443E+03  0.51100000000E-03 0.  1.
    -200002    1    4    4    0    0  0.66438162855E+02 -0.10665070404E+03  0.70555199689E+02  0.14719523891E+03  0.30000000000E+02 0.  1.
    -200000    1    3    3    0    0  0.17251409395E+03 -0.13166731543E+03  0.58160185726E+03  0.79709354215E+03  0.50000000000E+03 0.  1.
<mgrwt>
<rscale>  0 0.15336871E+04</rscale>
<asrwt>0</asrwt>
<pdfrwt beam="1">  1        2 0.31815079E+00 0.15336871E+04</pdfrwt>
<pdfrwt beam="2">  1       -2 0.37721111E-01 0.15336871E+04</pdfrwt>
<totfact> 0.39211812E+01</totfact>
</mgrwt>
</event>
<event>
 8    2  0.2588871E-009  0.1743486E+04  0.7818608E-02  0.8736944E-01
          2   -1    0    0  501    0  0.00000000000E+00  0.00000000000E+00  0.83850257243E+03  0.83850257243E+03  0.25500000000E-02 0.  1.
         -2   -1    0    0    0  501 -0.00000000000E+00 -0.00000000000E+00 -0.90630114888E+03  0.90630114889E+03  0.25500000000E-02 0. -1.
    -200001    2    1    2    0    0 -0.50379953076E+03  0.10433484584E+02  0.93285758468E+02  0.86738079721E+03  0.69980310790E+03 0.  0.
   -5000001    2    3    3    0    0 -0.24326811795E+03  0.46051533321E+02  0.69788877858E+02  0.30196292885E+03  0.15814867054E+03 0.  0.
     200001    1    1    2    0    0  0.50379953076E+03 -0.10433484584E+02 -0.16108433492E+03  0.87742292411E+03  0.70000000000E+03 0. -1.
         11    1    4    4    0    0 -0.20621821947E+02 -0.43967439969E+02  0.28896886663E+02  0.56510400608E+02  0.51100000000E-03 0.  1.
    -200002    1    4    4    0    0 -0.22264629600E+03  0.90018973290E+02  0.40891991195E+02  0.24545252824E+03  0.30000000000E+02 0.  1.
    -200000    1    3    3    0    0 -0.26053141281E+03 -0.35618048737E+02  0.23496880610E+02  0.56541786836E+03  0.50000000000E+03 0. -1.
<mgrwt>
<rscale>  0 0.17434860E+04</rscale>
<asrwt>0</asrwt>
<pdfrwt beam="1">  1        2 0.11978608E+00 0.17434860E+04</pdfrwt>
<pdfrwt beam="2">  1       -2 0.12947159E+00 0.17434860E+04</pdfrwt>
<totfact> 0.14916604E+01</totfact>
</mgrwt>
</event>
<event>
 8    2  0.2588871E-009  0.1559044E+04  0.7818608E-02  0.8846112E-01
          2   -1    0    0  501    0  0.00000000000E+00  0.00000000000E+00  0.43372996901E+04  0.43372996901E+04  0.25500000000E-02 0.  1.
         -2   -1    0    0    0  501 -0.00000000000E+00 -0.00000000000E+00 -0.14009972926E+03  0.14009972928E+03  0.25500000000E-02 0. -1.
    -200001    2    1    2    0    0 -0.10938861282E+03 -0.11633483167E+03  0.29697094051E+04  0.30553471257E+04  0.70033738000E+03 0.  0.
   -5000001    2    3    3    0    0 -0.28502650909E+01  0.39135354775E+02  0.38767199455E+03  0.41859939637E+03  0.15295809647E+03 0.  0.
     200001    1    1    2    0    0  0.10938861282E+03  0.11633483167E+03  0.12274905557E+04  0.14220522937E+04  0.70000000000E+03 0. -1.
         11    1    4    4    0    0 -0.15302445172E+02 -0.55129594085E+02  0.11943866436E+03  0.13243500865E+03  0.51100000000E-03 0.  1.
    -200002    1    4    4    0    0  0.12452180081E+02  0.94264948860E+02  0.26823333019E+03  0.28616438772E+03  0.30000000000E+02 0.  1.
    -200000    1    3    3    0    0 -0.10653834773E+03 -0.15547018645E+03  0.25820374106E+04  0.26367477293E+04  0.50000000000E+03 0.  1.
<mgrwt>
<rscale>  0 0.15590440E+04</rscale>
<asrwt>0</asrwt>
<pdfrwt beam="1">  1        2 0.61961419E+00 0.15590440E+04</pdfrwt>
<pdfrwt beam="2">  1       -2 0.20014249E-01 0.15590440E+04</pdfrwt>
<totfact> 0.68330746E+00</totfact>
</mgrwt>
</event>
<event>
 8    2  0.2588871E-009  0.1781444E+04  0.7818608E-02  0.8716230E-01
          2   -1    0    0  501    0  0.00000000000E+00  0.00000000000E+00  0.24044325933E+04  0.24044325933E+04  0.25500000000E-02 0.  1.
         -2   -1    0    0    0  501 -0.00000000000E+00 -0.00000000000E+00 -0.32996785260E+03  0.32996785261E+03  0.25500000000E-02 0. -1.
    -200001    2    1    2    0    0 -0.52130526186E+01  0.36662853255E+03  0.40567016638E+03  0.88796631818E+03  0.69962292811E+03 0.  0.
   -5000001    2    3    3    0    0  0.13781013181E+02  0.18971495162E+03 -0.19839938492E+01  0.21875700563E+03  0.10802320162E+03 0.  0.
     200001    1    1    2    0    0  0.52130526186E+01 -0.36662853255E+03  0.16687945743E+04  0.18464341277E+04  0.70000000000E+03 0.  1.
         11    1    4    4    0    0 -0.16856183209E+02 -0.25661194483E+00 -0.16340542348E+02  0.23477863756E+02  0.51100000000E-03 0.  1.
    -200002    1    4    4    0    0  0.30637196390E+02  0.18997156356E+03  0.14356548499E+02  0.19527914187E+03  0.30000000000E+02 0.  1.
    -200000    1    3    3    0    0 -0.18994065799E+02  0.17691358093E+03  0.40765416023E+03  0.66920931255E+03  0.50000000000E+03 0. -1.
<mgrwt>
<rscale>  0 0.17814438E+04</rscale>
<asrwt>0</asrwt>
<pdfrwt beam="1">  1        2 0.34349038E+00 0.17814438E+04</pdfrwt>
<pdfrwt beam="2">  1       -2 0.47138264E-01 0.17814438E+04</pdfrwt>
<totfact> 0.20020858E+01</totfact>
</mgrwt>
</event>
<event>
 8    2  0.2588871E-009  0.1533076E+04  0.7818608E-02  0.8862751E-01
          2   -1    0    0  501    0  0.00000000000E+00  0.00000000000E+00  0.58002952858E+03  0.58002952859E+03  0.25500000000E-02 0.  1.
         -2   -1    0    0    0  501 -0.00000000000E+00 -0.00000000000E+00 -0.10130178037E+04  0.10130178037E+04  0.25500000000E-02 0. -1.
    -200001    2    1    2    0    0 -0.20457045009E+03 -0.12477934757E+03 -0.42546948876E+03  0.85313146760E+03  0.69956419328E+03 0.  0.
   -5000001    2    3    3    0    0  0.83983059921E+01 -0.19158524287E+02 -0.13119782841E+03  0.22614880479E+03  0.18301046728E+03 0.  0.
     200001    1    1    2    0    0  0.20457045009E+03  0.12477934757E+03 -0.75187863310E+01  0.73991586466E+03  0.70000000000E+03 0.  1.
         11    1    4    4    0    0  0.45098056166E+02 -0.63227670151E+02  0.23986415084E+01  0.77700234388E+02  0.51100000000E-03 0.  1.
    -200002    1    4    4    0    0 -0.36699750174E+02  0.44069145863E+02 -0.13359646992E+03  0.14844857041E+03  0.30000000000E+02 0.  1.
    -200000    1    3    3    0    0 -0.21296875608E+03 -0.10562082328E+03 -0.29427166035E+03  0.62698266281E+03  0.50000000000E+03 0. -1.
<mgrwt>
<rscale>  0 0.15330757E+04</rscale>
<asrwt>0</asrwt>
<pdfrwt beam="1">  1        2 0.82861362E-01 0.15330757E+04</pdfrwt>
<pdfrwt beam="2">  1       -2 0.14471683E+00 0.15330757E+04</pdfrwt>
<totfact> 0.17957375E+01</totfact>
</mgrwt>
</event>
<event>
 8    2  0.2588871E-009  0.1977696E+04  0.7818608E-02  0.8617120E-01
         -2   -1    0    0    0  501 -0.00000000000E+00  0.00000000000E+00  0.70008395295E+03  0.70008395296E+03  0.25500000000E-02 0. -1.
          2   -1    0    0  501    0  0.00000000000E+00 -0.00000000000E+00 -0.13967191739E+04  0.13967191739E+04  0.25500000000E-02 0.  1.
    -200001    2    1    2    0    0 -0.44260006874E+03  0.49214539827E+03 -0.58299626960E+03  0.11267434766E+04  0.70111646516E+03 0.  0.
   -5000001    2    3    3    0    0 -0.15587420417E+02  0.95046122415E+02 -0.28289577890E+02  0.17925883260E+03  0.14851496822E+03 0.  0.
     200001    1    1    2    0    0  0.44260006874E+03 -0.49214539827E+03 -0.11363895136E+03  0.97005965031E+03  0.70000000000E+03 0.  1.
         11    1    4    4    0    0  0.51244330307E+02  0.14874252549E+01 -0.31894819927E+02  0.60377755514E+02  0.51100000000E-03 0.  1.
    -200002    1    4    4    0    0 -0.66831750724E+02  0.93558697160E+02  0.36052420368E+01  0.11888107709E+03  0.30000000000E+02 0.  1.
    -200000    1    3    3    0    0 -0.42701264833E+03  0.39709927586E+03 -0.55470669171E+03  0.94748464396E+03  0.50000000000E+03 0.  1.
<mgrwt>
<rscale>  0 0.19776963E+04</rscale>
<asrwt>0</asrwt>
<pdfrwt beam="1">  1        2 0.19953131E+00 0.19776963E+04</pdfrwt>
<pdfrwt beam="2">  1       -2 0.10001199E+00 0.19776963E+04</pdfrwt>
<totfact> 0.12820786E+01</totfact>
</mgrwt>
</event>
<event>
 8    2  0.2588871E-009  0.1562102E+04  0.7818608E-02  0.8844174E-01
         -2   -1    0    0    0  501 -0.00000000000E+00  0.00000000000E+00  0.11841998094E+04  0.11841998094E+04  0.25500000000E-02 0. -1.
          2   -1    0    0  501    0  0.00000000000E+00 -0.00000000000E+00 -0.51515018605E+03  0.51515018605E+03  0.25500000000E-02 0.  1.
    -200001    2    1    2    0    0  0.64051735745E+02 -0.29738847642E+03  0.14791035518E+03  0.77515917772E+03  0.69746092856E+03 0.  0.
   -5000001    2    3    3    0    0 -0.57799419842E+01 -0.15744376819E+03 -0.17101160480E+02  0.22589623078E+03  0.16098046316E+03 0.  0.
     200001    1    1    2    0    0 -0.64051735745E+02  0.29738847642E+03  0.52113926817E+03  0.92419081774E+03  0.70000000000E+03 0. -1.
         11    1    4    4    0    0 -0.52791059625E+02 -0.26213942327E+02 -0.52552520393E+02  0.78967297969E+02  0.51100000000E-03 0.  1.
    -200002    1    4    4    0    0  0.47011117640E+02 -0.13122982586E+03  0.35451359913E+02  0.14692893281E+03  0.30000000000E+02 0.  1.
    -200000    1    3    3    0    0  0.69831677729E+02 -0.13994470823E+03  0.16501151566E+03  0.54926294694E+03  0.50000000000E+03 0.  1.
<mgrwt>
<rscale>  0 0.15621021E+04</rscale>
<asrwt>0</asrwt>
<pdfrwt beam="1">  1        2 0.73592883E-01 0.15621021E+04</pdfrwt>
<pdfrwt beam="2">  1       -2 0.16917140E+00 0.15621021E+04</pdfrwt>
<totfact> 0.13495851E+01</totfact>
</mgrwt>
</event>
<event>
 8    2  0.2588871E-009  0.1495533E+04  0.7818608E-02  0.8887429E-01
          2   -1    0    0  501    0  0.00000000000E+00  0.00000000000E+00  0.84030835609E+03  0.84030835609E+03  0.25500000000E-02 0.  1.
         -2   -1    0    0    0  501 -0.00000000000E+00 -0.00000000000E+00 -0.66541625392E+03  0.66541625393E+03  0.25500000000E-02 0. -1.
    -200001    2    1    2    0    0  0.25321429163E+02 -0.68802758732E+02 -0.16788405447E+03  0.72286415762E+03  0.69926571504E+03 0.  0.
   -5000001    2    3    3    0    0 -0.57252645449E+02 -0.61663856693E+02 -0.23505545498E+02  0.19587782423E+03  0.17531490160E+03 0.  0.
     200001    1    1    2    0    0 -0.25321429163E+02  0.68802758732E+02  0.34277615663E+03  0.78286045241E+03  0.70000000000E+03 0.  1.
         11    1    4    4    0    0  0.18365933633E+02  0.51719391182E+02 -0.50931129457E+01  0.55119349980E+02  0.51100000000E-03 0.  1.
    -200002    1    4    4    0    0 -0.75618579081E+02 -0.11338324788E+03 -0.18412432552E+02  0.14075847425E+03  0.30000000000E+02 0.  1.
    -200000    1    3    3    0    0  0.82574074612E+02 -0.71389020384E+01 -0.14437850897E+03  0.52698633338E+03  0.50000000000E+03 0. -1.
<mgrwt>
<rscale>  0 0.14955331E+04</rscale>
<asrwt>0</asrwt>
<pdfrwt beam="1">  1        2 0.12004405E+00 0.14955331E+04</pdfrwt>
<pdfrwt beam="2">  1       -2 0.95059465E-01 0.14955331E+04</pdfrwt>
<totfact> 0.32132823E+01</totfact>
</mgrwt>
</event>
<event>
 8    2  0.2588871E-009  0.1442293E+04  0.7818608E-02  0.8923761E-01
         -2   -1    0    0    0  501 -0.00000000000E+00  0.00000000000E+00  0.30955560131E+03  0.30955560132E+03  0.25500000000E-02 0.  1.
          2   -1    0    0  501    0  0.00000000000E+00 -0.00000000000E+00 -0.16799967854E+04  0.16799967854E+04  0.25500000000E-02 0. -1.
    -200001    2    1    2    0    0 -0.51551025146E+02  0.14679686423E+03 -0.78714810415E+03  0.10651944232E+04  0.70059274469E+03 0.  0.
   -5000001    2    3    3    0    0  0.72232503055E+02 -0.19270754847E+02 -0.24310287460E+03  0.29780532523E+03  0.15491968115E+03 0.  0.
     200001    1    1    2    0    0  0.51551025146E+02 -0.14679686423E+03 -0.58329307997E+03  0.92435796350E+03  0.70000000000E+03 0. -1.
         11    1    4    4    0    0  0.75698953396E+02 -0.48128127471E+02 -0.23965501115E+03  0.25589289277E+03  0.51100000000E-03 0.  1.
    -200002    1    4    4    0    0 -0.34664503414E+01  0.28857372624E+02 -0.34478634470E+01  0.41912432464E+02  0.30000000000E+02 0.  1.
    -200000    1    3    3    0    0 -0.12378352820E+03  0.16606761907E+03 -0.54404522955E+03  0.76738909802E+03  0.50000000000E+03 0.  1.
<mgrwt>
<rscale>  0 0.14422932E+04</rscale>
<asrwt>0</asrwt>
<pdfrwt beam="1">  1        2 0.23999953E+00 0.14422932E+04</pdfrwt>
<pdfrwt beam="2">  1       -2 0.44222230E-01 0.14422932E+04</pdfrwt>
<totfact> 0.55334744E+01</totfact>
</mgrwt>
</event>
<event>
 8    2  0.2588871E-009  0.1633170E+04  0.7818608E-02  0.8800426E-01
         -2   -1    0    0    0  501 -0.00000000000E+00  0.00000000000E+00  0.10257244307E+04  0.10257244307E+04  0.25500000000E-02 0. -1.
          2   -1    0    0  501    0  0.00000000000E+00 -0.00000000000E+00 -0.65008772912E+03  0.65008772912E+03  0.25500000000E-02 0.  1.
    -200001    2    1    2    0    0 -0.14993104422E+03 -0.25871818737E+03  0.48935183616E+03  0.90617227634E+03  0.70161852624E+03 0.  0.
   -5000001    2    3    3    0    0 -0.47163149688E+02 -0.73530220865E+02  0.75227691883E+02  0.22327065095E+03  0.19120544417E+03 0.  0.
     200001    1    1    2    0    0  0.14993104422E+03  0.25871818737E+03 -0.11371513454E+03  0.76963988353E+03  0.70000000000E+03 0.  1.
         11    1    4    4    0    0 -0.80330040383E+02 -0.11225487289E+03  0.86706556845E+02  0.16300950548E+03  0.51100000000E-03 0.  1.
    -200002    1    4    4    0    0  0.33166890695E+02  0.38724652028E+02 -0.11478864962E+02  0.60261145474E+02  0.30000000000E+02 0.  1.
    -200000    1    3    3    0    0 -0.10276789453E+03 -0.18518796651E+03  0.41412414428E+03  0.68290162539E+03  0.50000000000E+03 0. -1.
<mgrwt>
<rscale>  0 0.16331698E+04</rscale>
<asrwt>0</asrwt>
<pdfrwt beam="1">  1        2 0.92869675E-01 0.16331698E+04</pdfrwt>
<pdfrwt beam="2">  1       -2 0.14653206E+00 0.16331698E+04</pdfrwt>
<totfact> 0.15053253E+01</totfact>
</mgrwt>
</event>
<event>
 8    2  0.2588871E-009  0.3652274E+04  0.7818608E-02  0.8078622E-01
          2   -1    0    0  501    0  0.00000000000E+00  0.00000000000E+00  0.26346677320E+04  0.26346677320E+04  0.25500000000E-02 0.  1.
         -2   -1    0    0    0  501 -0.00000000000E+00 -0.00000000000E+00 -0.12657291890E+04  0.12657291890E+04  0.25500000000E-02 0. -1.
    -200001    2    1    2    0    0  0.53910041609E+03  0.21380195886E+03  0.23754449594E+04  0.25441536897E+04  0.70259426775E+03 0.  0.
   -5000001    2    3    3    0    0  0.16671719983E+03  0.28402622050E+02  0.41190850397E+03  0.47569591011E+03  0.16738174810E+03 0.  0.
     200001    1    1    2    0    0 -0.53910041609E+03 -0.21380195886E+03 -0.10065064164E+04  0.13562432313E+04  0.70000000000E+03 0. -1.
         11    1    4    4    0    0  0.51422836280E+02 -0.27951160921E+02  0.29105965295E+03  0.29688600011E+03  0.51100000000E-03 0.  1.
    -200002    1    4    4    0    0  0.11529436355E+03  0.56353782971E+02  0.12084885102E+03  0.17880991000E+03  0.30000000000E+02 0.  1.
    -200000    1    3    3    0    0  0.37238321626E+03  0.18539933681E+03  0.19635364555E+04  0.20684577795E+04  0.50000000000E+03 0. -1.
<mgrwt>
<rscale>  0 0.36522737E+04</rscale>
<asrwt>0</asrwt>
<pdfrwt beam="1">  1        2 0.37638111E+00 0.36522737E+04</pdfrwt>
<pdfrwt beam="2">  1       -2 0.18081845E+00 0.36522737E+04</pdfrwt>
<totfact> 0.54844723E-01</totfact>
</mgrwt>
</event>
<event>
 8    2  0.2588871E-009  0.1454630E+04  0.7818608E-02  0.8915197E-01
          2   -1    0    0  501    0  0.00000000000E+00  0.00000000000E+00  0.10883515425E+04  0.10883515425E+04  0.25500000000E-02 0.  1.
         -2   -1    0    0    0  501 -0.00000000000E+00 -0.00000000000E+00 -0.48604423485E+03  0.48604423485E+03  0.25500000000E-02 0. -1.
    -200001    2    1    2    0    0  0.33239148857E+02 -0.18915406606E+03  0.34226036365E+03  0.80335199469E+03  0.70096231648E+03 0.  0.
   -5000001    2    3    3    0    0  0.28542686761E+02 -0.13297196093E+03  0.20106670900E+02  0.20588945407E+03  0.15326435241E+03 0.  0.
     200001    1    1    2    0    0 -0.33239148857E+02  0.18915406606E+03  0.26004694402E+03  0.77104378269E+03  0.70000000000E+03 0. -1.
         11    1    4    4    0    0  0.59294677211E+02 -0.14660534950E+03  0.45506549427E+01  0.15820776122E+03  0.51100000000E-03 0.  1.
    -200002    1    4    4    0    0 -0.30751990450E+02  0.13633388575E+02  0.15556015957E+02  0.47681692851E+02  0.30000000000E+02 0.  1.
    -200000    1    3    3    0    0  0.46964620955E+01 -0.56182105136E+02  0.32215369275E+03  0.59746254062E+03  0.50000000000E+03 0.  1.
<mgrwt>
<rscale>  0 0.14546298E+04</rscale>
<asrwt>0</asrwt>
<pdfrwt beam="1">  1        2 0.15547879E+00 0.14546298E+04</pdfrwt>
<pdfrwt beam="2">  1       -2 0.69434891E-01 0.14546298E+04</pdfrwt>
<totfact> 0.45612880E+01</totfact>
</mgrwt>
</event>
<event>
 8    2  0.2588871E-009  0.1662771E+04  0.7818608E-02  0.8782887E-01
         -2   -1    0    0    0  501 -0.00000000000E+00  0.00000000000E+00  0.29543257553E+03  0.29543257554E+03  0.25500000000E-02 0. -1.
          2   -1    0    0  501    0  0.00000000000E+00 -0.00000000000E+00 -0.23396268761E+04  0.23396268761E+04  0.25500000000E-02 0.  1.
    -200001    2    1    2    0    0  0.22751748886E+03 -0.10194936856E+03 -0.43115620963E+03  0.85909499132E+03  0.69999331820E+03 0.  0.
   -5000001    2    3    3    0    0  0.55995279237E+02 -0.32119994106E+02 -0.67525461862E+02  0.21370880410E+03  0.19220978027E+03 0.  0.
     200001    1    1    2    0    0 -0.22751748886E+03  0.10194936856E+03 -0.16130380910E+04  0.17759644603E+04  0.70000000000E+03 0.  1.
         11    1    4    4    0    0 -0.25357840500E+02 -0.85091111028E+02  0.49092107928E+01  0.88924786206E+02  0.51100000000E-03 0.  1.
    -200002    1    4    4    0    0  0.81353119737E+02  0.52971116923E+02 -0.72434672655E+02  0.12478401789E+03  0.30000000000E+02 0.  1.
    -200000    1    3    3    0    0  0.17152220963E+03 -0.69829374453E+02 -0.36363074777E+03  0.64538618722E+03  0.50000000000E+03 0. -1.
<mgrwt>
<rscale>  0 0.16627712E+04</rscale>
<asrwt>0</asrwt>
<pdfrwt beam="1">  1        2 0.33423240E+00 0.16627712E+04</pdfrwt>
<pdfrwt beam="2">  1       -2 0.42204655E-01 0.16627712E+04</pdfrwt>
<totfact> 0.27243435E+01</totfact>
</mgrwt>
</event>
<event>
 8    2  0.2588871E-009  0.1706039E+04  0.7818608E-02  0.8757927E-01
         -2   -1    0    0    0  501 -0.00000000000E+00  0.00000000000E+00  0.33563646150E+03  0.33563646151E+03  0.25500000000E-02 0. -1.
          2   -1    0    0  501    0  0.00000000000E+00 -0.00000000000E+00 -0.21679488456E+04  0.21679488456E+04  0.25500000000E-02 0.  1.
    -200001    2    1    2    0    0 -0.48866123343E+02 -0.48369322558E+03 -0.10184891053E+04  0.13251730857E+04  0.69456217498E+03 0.  0.
   -5000001    2    3    3    0    0  0.64480062618E+02 -0.93268596482E+02 -0.17134952062E+03  0.26078395345E+03  0.16059546256E+03 0.  0.
     200001    1    1    2    0    0  0.48866123343E+02  0.48369322558E+03 -0.81382327881E+03  0.11784122214E+04  0.70000000000E+03 0. -1.
         11    1    4    4    0    0  0.75782412455E+02 -0.69341121170E+02 -0.19050321100E+03  0.21643160242E+03  0.51100000000E-03 0.  1.
    -200002    1    4    4    0    0 -0.11302349837E+02 -0.23927475312E+02  0.19153690384E+02  0.44352351031E+02  0.30000000000E+02 0.  1.
    -200000    1    3    3    0    0 -0.11334618596E+03 -0.39042462910E+03 -0.84713958465E+03  0.10643891322E+04  0.50000000000E+03 0.  1.
<mgrwt>
<rscale>  0 0.17060395E+04</rscale>
<asrwt>0</asrwt>
<pdfrwt beam="1">  1        2 0.30970697E+00 0.17060395E+04</pdfrwt>
<pdfrwt beam="2">  1       -2 0.47948067E-01 0.17060395E+04</pdfrwt>
<totfact> 0.25818201E+01</totfact>
</mgrwt>
</event>
<event>
 8    2  0.2588871E-009  0.1798117E+04  0.7818608E-02  0.8707302E-01
         -2   -1    0    0    0  501 -0.00000000000E+00  0.00000000000E+00  0.10302540676E+04  0.10302540676E+04  0.25500000000E-02 0. -1.
          2   -1    0    0  501    0  0.00000000000E+00 -0.00000000000E+00 -0.78456932829E+03  0.78456932830E+03  0.25500000000E-02 0.  1.
    -200001    2    1    2    0    0 -0.48322680628E+02  0.51048403917E+03  0.36041129489E+03  0.93955702600E+03  0.69995861871E+03 0.  0.
   -5000001    2    3    3    0    0 -0.22952638807E+02  0.68006273656E+02  0.14203410987E+03  0.23662117762E+03  0.17511201115E+03 0.  0.
     200001    1    1    2    0    0  0.48322680628E+02 -0.51048403917E+03 -0.11472655559E+03  0.87526636989E+03  0.70000000000E+03 0.  1.
         11    1    4    4    0    0 -0.24701055940E+02  0.10823696383E+03  0.31793367655E+02  0.11548246937E+03  0.51100000000E-03 0.  1.
    -200002    1    4    4    0    0  0.17484171330E+01 -0.40230690174E+02  0.11024074221E+03  0.12113870825E+03  0.30000000000E+02 0.  1.
    -200000    1    3    3    0    0 -0.25370041820E+02  0.44247776551E+03  0.21837718503E+03  0.70293584838E+03  0.50000000000E+03 0.  1.
<mgrwt>
<rscale>  0 0.17981165E+04</rscale>
<asrwt>0</asrwt>
<pdfrwt beam="1">  1        2 0.11208133E+00 0.17981165E+04</pdfrwt>
<pdfrwt beam="2">  1       -2 0.14717915E+00 0.17981165E+04</pdfrwt>
<totfact> 0.11626771E+01</totfact>
</mgrwt>
</event>
<event>
 8    2  0.2588871E-009  0.1675092E+04  0.7818608E-02  0.8775699E-01
          2   -1    0    0  501    0  0.00000000000E+00  0.00000000000E+00  0.35123661525E+04  0.35123661525E+04  0.25500000000E-02 0.  1.
         -2   -1    0    0    0  501 -0.00000000000E+00 -0.00000000000E+00 -0.19971807531E+03  0.19971807532E+03  0.25500000000E-02 0. -1.
    -200001    2    1    2    0    0 -0.34795918253E+03  0.30023332500E+03  0.16887217634E+04  0.18849683818E+04  0.70007782716E+03 0.  0.
   -5000001    2    3    3    0    0 -0.20150509817E+03  0.12182603834E+03  0.64899864794E+03  0.70840469225E+03  0.15872011457E+03 0.  0.
     200001    1    1    2    0    0  0.34795918253E+03 -0.30023332500E+03  0.16239263138E+04  0.18271158461E+04  0.70000000000E+03 0. -1.
         11    1    4    4    0    0 -0.17675214064E+03  0.13081313349E+03  0.62324622332E+03  0.66090033287E+03  0.51100000000E-03 0.  1.
    -200002    1    4    4    0    0 -0.24752957529E+02 -0.89870951500E+01  0.25752424620E+02  0.47504359374E+02  0.30000000000E+02 0.  1.
    -200000    1    3    3    0    0 -0.14645408436E+03  0.17840728666E+03  0.10397231154E+04  0.11765636895E+04  0.50000000000E+03 0. -1.
<mgrwt>
<rscale>  0 0.16750916E+04</rscale>
<asrwt>0</asrwt>
<pdfrwt beam="1">  1        2 0.50176648E+00 0.16750916E+04</pdfrwt>
<pdfrwt beam="2">  1       -2 0.28531160E-01 0.16750916E+04</pdfrwt>
<totfact> 0.12800242E+01</totfact>
</mgrwt>
</event>
<event>
 8    2  0.2588871E-009  0.2645794E+04  0.7818608E-02  0.8352810E-01
         -2   -1    0    0    0  501 -0.00000000000E+00  0.00000000000E+00  0.72872656213E+03  0.72872656213E+03  0.25500000000E-02 0. -1.
          2   -1    0    0  501    0  0.00000000000E+00 -0.00000000000E+00 -0.24015276220E+04  0.24015276220E+04  0.25500000000E-02 0.  1.
    -200001    2    1    2    0    0  0.10360426979E+04  0.43204085605E+03 -0.81293795228E+03  0.15524682870E+04  0.69946114597E+03 0.  0.
   -5000001    2    3    3    0    0  0.23615364161E+03  0.77362264682E+02 -0.18797638849E+03  0.36663678052E+03  0.19321993623E+03 0.  0.
     200001    1    1    2    0    0 -0.10360426979E+04 -0.43204085605E+03 -0.85986310758E+03  0.15777858971E+04  0.70000000000E+03 0.  1.
         11    1    4    4    0    0  0.63627091352E+02  0.11584380053E+03 -0.53808338515E+02  0.14270084151E+03  0.51100000000E-03 0.  1.
    -200002    1    4    4    0    0  0.17252655025E+03 -0.38481535846E+02 -0.13416804997E+03  0.22393593900E+03  0.30000000000E+02 0.  1.
    -200000    1    3    3    0    0  0.79988905634E+03  0.35467859137E+03 -0.62496156379E+03  0.11858315065E+04  0.50000000000E+03 0. -1.
<mgrwt>
<rscale>  0 0.26457944E+04</rscale>
<asrwt>0</asrwt>
<pdfrwt beam="1">  1        2 0.34307537E+00 0.26457944E+04</pdfrwt>
<pdfrwt beam="2">  1       -2 0.10410380E+00 0.26457944E+04</pdfrwt>
<totfact> 0.33045701E+00</totfact>
</mgrwt>
</event>
<event>
 8    2  0.2588871E-009  0.1803237E+04  0.7818608E-02  0.8704580E-01
          2   -1    0    0  501    0  0.00000000000E+00  0.00000000000E+00  0.11084088065E+04  0.11084088065E+04  0.25500000000E-02 0.  1.
         -2   -1    0    0    0  501 -0.00000000000E+00 -0.00000000000E+00 -0.73340786617E+03  0.73340786618E+03  0.25500000000E-02 0. -1.
    -200001    2    1    2    0    0 -0.17929546116E+03 -0.53697387656E+03  0.13336177738E+03  0.90968079658E+03  0.69946120801E+03 0.  0.
   -5000001    2    3    3    0    0 -0.13220981181E+01 -0.31574608307E+03  0.85153938324E+02  0.33267104770E+03  0.61004064162E+02 0.  0.
     200001    1    1    2    0    0  0.17929546116E+03  0.53697387656E+03  0.24163916299E+03  0.93213587614E+03  0.70000000000E+03 0.  1.
         11    1    4    4    0    0  0.13200284941E+01 -0.16321940197E+03  0.21344256879E+02  0.16461437652E+03  0.51100000000E-03 0.  1.
    -200002    1    4    4    0    0 -0.26421266122E+01 -0.15252668110E+03  0.63809681444E+02  0.16805667117E+03  0.30000000000E+02 0.  1.
    -200000    1    3    3    0    0 -0.17797336305E+03 -0.22122779349E+03  0.48207839059E+02  0.57700974889E+03  0.50000000000E+03 0. -1.
<mgrwt>
<rscale>  0 0.18032368E+04</rscale>
<asrwt>0</asrwt>
<pdfrwt beam="1">  1        2 0.15834411E+00 0.18032368E+04</pdfrwt>
<pdfrwt beam="2">  1       -2 0.10477255E+00 0.18032368E+04</pdfrwt>
<totfact> 0.16901246E+01</totfact>
</mgrwt>
</event>
<event>
 8    2  0.2588871E-009  0.1426838E+04  0.7818608E-02  0.8934618E-01
          2   -1    0    0  501    0  0.00000000000E+00  0.00000000000E+00  0.13625928593E+04  0.13625928593E+04  0.25500000000E-02 0.  1.
         -2   -1    0    0    0  501 -0.00000000000E+00 -0.00000000000E+00 -0.37352784255E+03  0.37352784256E+03  0.25500000000E-02 0. -1.
    -200001    2    1    2    0    0 -0.35214126080E+02 -0.32519245564E+02  0.34265214027E+03  0.78210437973E+03  0.70141231494E+03 0.  0.
   -5000001    2    3    3    0    0  0.21642907766E+02 -0.61035959101E+02  0.10038556265E+03  0.22287364034E+03  0.18815311480E+03 0.  0.
     200001    1    1    2    0    0  0.35214126080E+02  0.32519245564E+02  0.64641287644E+03  0.95401632210E+03  0.70000000000E+03 0.  1.
         11    1    4    4    0    0 -0.31009163342E+01  0.57067506346E+02  0.77739798189E+02  0.96487264369E+02  0.51100000000E-03 0.  1.
    -200002    1    4    4    0    0  0.24743824100E+02 -0.11810346545E+03  0.22645764458E+02  0.12638637597E+03  0.30000000000E+02 0.  1.
    -200000    1    3    3    0    0 -0.56857033847E+02  0.28516713537E+02  0.24226657762E+03  0.55923073939E+03  0.50000000000E+03 0. -1.
<mgrwt>
<rscale>  0 0.14268376E+04</rscale>
<asrwt>0</asrwt>
<pdfrwt beam="1">  1        2 0.19465613E+00 0.14268376E+04</pdfrwt>
<pdfrwt beam="2">  1       -2 0.53361119E-01 0.14268376E+04</pdfrwt>
<totfact> 0.55820851E+01</totfact>
</mgrwt>
</event>
<event>
 8    2  0.2588871E-009  0.2459725E+04  0.7818608E-02  0.8417476E-01
          2   -1    0    0  501    0  0.00000000000E+00  0.00000000000E+00  0.17830162714E+04  0.17830162714E+04  0.25500000000E-02 0.  1.
         -2   -1    0    0    0  501 -0.00000000000E+00 -0.00000000000E+00 -0.84831624095E+03  0.84831624096E+03  0.25500000000E-02 0. -1.
    -200001    2    1    2    0    0 -0.19845098021E+02  0.65721869134E+03  0.12891419748E+04  0.16076336660E+04  0.70019192861E+03 0.  0.
   -5000001    2    3    3    0    0 -0.65739232209E+02  0.29441182264E+03  0.41905998933E+03  0.53956168489E+03  0.15657448444E+03 0.  0.
     200001    1    1    2    0    0  0.19845098021E+02 -0.65721869134E+03 -0.35444194430E+03  0.10236988464E+04  0.70000000000E+03 0. -1.
         11    1    4    4    0    0 -0.26848594441E+02 -0.97865701319E+00  0.93262640224E+02  0.97055267012E+02  0.51100000000E-03 0.  1.
    -200002    1    4    4    0    0 -0.38890637768E+02  0.29539047965E+03  0.32579734911E+03  0.44250641787E+03  0.30000000000E+02 0.  1.
    -200000    1    3    3    0    0  0.45894134188E+02  0.36280686870E+03  0.87008198545E+03  0.10680719812E+04  0.50000000000E+03 0.  1.
<mgrwt>
<rscale>  0 0.24597249E+04</rscale>
<asrwt>0</asrwt>
<pdfrwt beam="1">  1        2 0.25471660E+00 0.24597249E+04</pdfrwt>
<pdfrwt beam="2">  1       -2 0.12118804E+00 0.24597249E+04</pdfrwt>
<totfact> 0.48443862E+00</totfact>
</mgrwt>
</event>
<event>
 8    2  0.2588871E-009  0.1731691E+04  0.7818608E-02  0.8743494E-01
          2   -1    0    0  501    0  0.00000000000E+00  0.00000000000E+00  0.26374060663E+04  0.26374060663E+04  0.25500000000E-02 0.  1.
         -2   -1    0    0    0  501 -0.00000000000E+00 -0.00000000000E+00 -0.28425206167E+03  0.28425206168E+03  0.25500000000E-02 0. -1.
    -200001    2    1    2    0    0  0.24278911168E+03  0.15924675345E+03  0.47049213683E+03  0.89219470389E+03  0.70024456984E+03 0.  0.
   -5000001    2    3    3    0    0  0.79679956397E+02  0.12139177015E+02  0.12085500449E+03  0.24374165247E+03  0.19572380021E+03 0.  0.
     200001    1    1    2    0    0 -0.24278911168E+03 -0.15924675345E+03  0.18826618678E+04  0.20294634241E+04  0.70000000000E+03 0.  1.
         11    1    4    4    0    0  0.98242422835E+02 -0.61304784986E+02  0.25974752059E+02  0.11867829646E+03  0.51100000000E-03 0.  1.
    -200002    1    4    4    0    0 -0.18562466438E+02  0.73443962001E+02  0.94880252430E+02  0.12506335601E+03  0.30000000000E+02 0.  1.
    -200000    1    3    3    0    0  0.16310915529E+03  0.14710757644E+03  0.34963713234E+03  0.64845305142E+03  0.50000000000E+03 0. -1.
<mgrwt>
<rscale>  0 0.17316906E+04</rscale>
<asrwt>0</asrwt>
<pdfrwt beam="1">  1        2 0.37677229E+00 0.17316906E+04</pdfrwt>
<pdfrwt beam="2">  1       -2 0.40607438E-01 0.17316906E+04</pdfrwt>
<totfact> 0.20375549E+01</totfact>
</mgrwt>
</event>
<event>
 8    2  0.2588871E-009  0.1873031E+04  0.7818608E-02  0.8668398E-01
         -2   -1    0    0    0  501 -0.00000000000E+00  0.00000000000E+00  0.59217037134E+03  0.59217037135E+03  0.25500000000E-02 0. -1.
          2   -1    0    0  501    0  0.00000000000E+00 -0.00000000000E+00 -0.14810964107E+04  0.14810964107E+04  0.25500000000E-02 0.  1.
    -200001    2    1    2    0    0 -0.67755745455E+02 -0.60063940673E+03 -0.61032579314E+03  0.11073596255E+04  0.69884850178E+03 0.  0.
   -5000001    2    3    3    0    0 -0.16509412022E+03 -0.14172525820E+03 -0.16324381039E+03  0.28884923813E+03  0.97176249138E+02 0.  0.
     200001    1    1    2    0    0  0.67755745455E+02  0.60063940673E+03 -0.27860024626E+03  0.96590715660E+03  0.70000000000E+03 0. -1.
         11    1    4    4    0    0 -0.97651398645E+01 -0.17802173659E+02  0.10802551040E+02  0.22999357660E+02  0.51100000000E-03 0.  1.
    -200002    1    4    4    0    0 -0.15532898035E+03 -0.12392308454E+03 -0.17404636143E+03  0.26584988047E+03  0.30000000000E+02 0.  1.
    -200000    1    3    3    0    0  0.97338374760E+02 -0.45891414853E+03 -0.44708198275E+03  0.81851038736E+03  0.50000000000E+03 0.  1.
<mgrwt>
<rscale>  0 0.18730311E+04</rscale>
<asrwt>0</asrwt>
<pdfrwt beam="1">  1        2 0.21158520E+00 0.18730311E+04</pdfrwt>
<pdfrwt beam="2">  1       -2 0.84595768E-01 0.18730311E+04</pdfrwt>
<totfact> 0.17165411E+01</totfact>
</mgrwt>
</event>
<event>
 8    2  0.2588871E-009  0.1827408E+04  0.7818608E-02  0.8691859E-01
         -2   -1    0    0    0  501 -0.00000000000E+00  0.00000000000E+00  0.44953498799E+03  0.44953498799E+03  0.25500000000E-02 0. -1.
          2   -1    0    0  501    0  0.00000000000E+00 -0.00000000000E+00 -0.18571517502E+04  0.18571517502E+04  0.25500000000E-02 0.  1.
    -200001    2    1    2    0    0 -0.28669336858E+03  0.22819790553E+02 -0.13506344150E+04  0.15477659134E+04  0.69903660077E+03 0.  0.
   -5000001    2    3    3    0    0 -0.13127669657E+03 -0.79193460080E+01 -0.31813090024E+03  0.38968010290E+03  0.18261168035E+03 0.  0.
     200001    1    1    2    0    0  0.28669336858E+03 -0.22819790553E+02 -0.56982347194E+02  0.75892082480E+03  0.70000000000E+03 0. -1.
         11    1    4    4    0    0 -0.13481170109E+03 -0.41164839086E+02 -0.31446494113E+03  0.34461128526E+03  0.51100000000E-03 0.  1.
    -200002    1    4    4    0    0  0.35350045210E+01  0.33245493078E+02 -0.36659591113E+01  0.45068817637E+02  0.30000000000E+02 0.  1.
    -200000    1    3    3    0    0 -0.15541667201E+03  0.30739136561E+02 -0.10325035148E+04  0.11580858105E+04  0.50000000000E+03 0.  1.
<mgrwt>
<rscale>  0 0.18274077E+04</rscale>
<asrwt>0</asrwt>
<pdfrwt beam="1">  1        2 0.26530739E+00 0.18274077E+04</pdfrwt>
<pdfrwt beam="2">  1       -2 0.64219285E-01 0.18274077E+04</pdfrwt>
<totfact> 0.20125626E+01</totfact>
</mgrwt>
</event>
<event>
 8    2  0.2588871E-009  0.2007004E+04  0.7818608E-02  0.8603353E-01
         -2   -1    0    0    0  501 -0.00000000000E+00  0.00000000000E+00  0.45733137707E+03  0.45733137707E+03  0.25500000000E-02 0. -1.
          2   -1    0    0  501    0  0.00000000000E+00 -0.00000000000E+00 -0.22019407791E+04  0.22019407791E+04  0.25500000000E-02 0.  1.
    -200001    2    1    2    0    0 -0.34903204253E+03 -0.23305280498E+03 -0.16459312068E+04  0.18371563719E+04  0.69994072657E+03 0.  0.
   -5000001    2    3    3    0    0 -0.11174043856E+02 -0.81312894384E+02 -0.41549375126E+03  0.45833464314E+03  0.17521113468E+03 0.  0.
     200001    1    1    2    0    0  0.34903204253E+03  0.23305280498E+03 -0.98678195306E+02  0.82211578433E+03  0.70000000000E+03 0. -1.
         11    1    4    4    0    0 -0.30245638716E+01 -0.81350644641E+02 -0.41919635147E+03  0.42702769987E+03  0.51100000000E-03 0.  1.
    -200002    1    4    4    0    0 -0.81494799845E+01  0.37750257629E-01  0.37026002029E+01  0.31306943277E+02  0.30000000000E+02 0.  1.
    -200000    1    3    3    0    0 -0.33785799867E+03 -0.15173991060E+03 -0.12304374555E+04  0.13788217287E+04  0.50000000000E+03 0.  1.
<mgrwt>
<rscale>  0 0.20070043E+04</rscale>
<asrwt>0</asrwt>
<pdfrwt beam="1">  1        2 0.31456296E+00 0.20070043E+04</pdfrwt>
<pdfrwt beam="2">  1       -2 0.65333055E-01 0.20070043E+04</pdfrwt>
<totfact> 0.12697108E+01</totfact>
</mgrwt>
</event>
<event>
 8    2  0.2588871E-009  0.1544871E+04  0.7818608E-02  0.8855151E-01
          2   -1    0    0  501    0  0.00000000000E+00  0.00000000000E+00  0.12716739638E+04  0.12716739638E+04  0.25500000000E-02 0.  1.
         -2   -1    0    0    0  501 -0.00000000000E+00 -0.00000000000E+00 -0.46918989126E+03  0.46918989127E+03  0.25500000000E-02 0. -1.
    -200001    2    1    2    0    0 -0.12419877148E+03 -0.11092552739E+03  0.83973782967E+02  0.72401241868E+03  0.69958028753E+03 0.  0.
   -5000001    2    3    3    0    0 -0.81278990755E+02 -0.76495757570E+02  0.89781325151E+01  0.21543414130E+03  0.18404724152E+03 0.  0.
     200001    1    1    2    0    0  0.12419877148E+03  0.11092552739E+03  0.71851028955E+03  0.10168514364E+04  0.70000000000E+03 0.  1.
         11    1    4    4    0    0  0.63963607736E+01 -0.69964600658E+02 -0.65740992539E+02  0.96217653664E+02  0.51100000000E-03 0.  1.
    -200002    1    4    4    0    0 -0.87675351528E+02 -0.65311569124E+01  0.74719125054E+02  0.11921648764E+03  0.30000000000E+02 0.  1.
    -200000    1    3    3    0    0 -0.42919780729E+02 -0.34429769819E+02  0.74995650452E+02  0.50857827737E+03  0.50000000000E+03 0. -1.
<mgrwt>
<rscale>  0 0.15448710E+04</rscale>
<asrwt>0</asrwt>
<pdfrwt beam="1">  1        2 0.18166771E+00 0.15448710E+04</pdfrwt>
<pdfrwt beam="2">  1       -2 0.67027127E-01 0.15448710E+04</pdfrwt>
<totfact> 0.38374480E+01</totfact>
</mgrwt>
</event>
<event>
 8    2  0.2588871E-009  0.1498063E+04  0.7818608E-02  0.8885742E-01
          2   -1    0    0  501    0  0.00000000000E+00  0.00000000000E+00  0.14045985518E+04  0.14045985518E+04  0.25500000000E-02 0.  1.
         -2   -1    0    0    0  501 -0.00000000000E+00 -0.00000000000E+00 -0.39943689494E+03  0.39943689495E+03  0.25500000000E-02 0. -1.
    -200001    2    1    2    0    0 -0.53409936702E+02  0.26136601433E+03  0.48155290511E+03  0.89007103843E+03  0.69940577511E+03 0.  0.
   -5000001    2    3    3    0    0 -0.42184002862E+02 -0.39240285658E+02  0.13281994511E+03  0.21028809765E+03  0.15251444548E+03 0.  0.
     200001    1    1    2    0    0  0.53409936702E+02 -0.26136601433E+03  0.52360875178E+03  0.91396440835E+03  0.70000000000E+03 0. -1.
         11    1    4    4    0    0  0.50952437578E+02 -0.83900423105E+01  0.79138930240E+02  0.94496105660E+02  0.51100000000E-03 0.  1.
    -200002    1    4    4    0    0 -0.93136440440E+02 -0.30850243347E+02  0.53681014873E+02  0.11579199200E+03  0.30000000000E+02 0.  1.
    -200000    1    3    3    0    0 -0.11225933839E+02  0.30060629999E+03  0.34873296000E+03  0.67978294078E+03  0.50000000000E+03 0. -1.
<mgrwt>
<rscale>  0 0.14980634E+04</rscale>
<asrwt>0</asrwt>
<pdfrwt beam="1">  1        2 0.20065694E+00 0.14980634E+04</pdfrwt>
<pdfrwt beam="2">  1       -2 0.57062413E-01 0.14980634E+04</pdfrwt>
<totfact> 0.45830360E+01</totfact>
</mgrwt>
</event>
<event>
 8    2  0.2588871E-009  0.1547560E+04  0.7818608E-02  0.8853428E-01
         -2   -1    0    0    0  501 -0.00000000000E+00  0.00000000000E+00  0.63717431101E+03  0.63717431102E+03  0.25500000000E-02 0. -1.
          2   -1    0    0  501    0  0.00000000000E+00 -0.00000000000E+00 -0.93967345177E+03  0.93967345177E+03  0.25500000000E-02 0.  1.
    -200001    2    1    2    0    0 -0.67372117778E+02 -0.26981497598E+03  0.29233459706E+02  0.75381335176E+03  0.70002917840E+03 0.  0.
   -5000001    2    3    3    0    0 -0.25577738843E+02 -0.22205892883E+02 -0.31932037393E+02  0.19096501857E+03  0.18520437603E+03 0.  0.
     200001    1    1    2    0    0  0.67372117778E+02  0.26981497598E+03 -0.33173260046E+03  0.82303441102E+03  0.70000000000E+03 0. -1.
         11    1    4    4    0    0 -0.67314483594E+02 -0.48759266001E+01 -0.89351209848E+02  0.11197612720E+03  0.51100000000E-03 0.  1.
    -200002    1    4    4    0    0  0.41736744751E+02 -0.17329966283E+02  0.57419172455E+02  0.78988891365E+02  0.30000000000E+02 0.  1.
    -200000    1    3    3    0    0 -0.41794378935E+02 -0.24760908310E+03  0.61165497099E+02  0.56284833319E+03  0.50000000000E+03 0. -1.
<mgrwt>
<rscale>  0 0.15475604E+04</rscale>
<asrwt>0</asrwt>
<pdfrwt beam="1">  1        2 0.13423906E+00 0.15475604E+04</pdfrwt>
<pdfrwt beam="2">  1       -2 0.91024902E-01 0.15475604E+04</pdfrwt>
<totfact> 0.30450602E+01</totfact>
</mgrwt>
</event>
<event>
 8    2  0.2588871E-009  0.2602017E+04  0.7818608E-02  0.8367516E-01
          2   -1    0    0  501    0  0.00000000000E+00  0.00000000000E+00  0.12792845488E+04  0.12792845488E+04  0.25500000000E-02 0.  1.
         -2   -1    0    0    0  501 -0.00000000000E+00 -0.00000000000E+00 -0.13231014422E+04  0.13231014422E+04  0.25500000000E-02 0. -1.
    -200001    2    1    2    0    0 -0.10172869331E+04 -0.20839327839E+03  0.33057905823E+03  0.12953003812E+04  0.70015719737E+03 0.  0.
   -5000001    2    3    3    0    0 -0.20697708018E+03  0.53394786111E+02  0.12402432427E+03  0.28643968388E+03  0.14482798274E+03 0.  0.
     200001    1    1    2    0    0  0.10172869331E+04  0.20839327839E+03 -0.37439595165E+03  0.13070856098E+04  0.70000000000E+03 0. -1.
         11    1    4    4    0    0 -0.13460898681E+03 -0.21298161708E+02  0.11410542893E+03  0.17774487316E+03  0.51100000000E-03 0.  1.
    -200002    1    4    4    0    0 -0.72368093373E+02  0.74692947819E+02  0.99188953341E+01  0.10869481072E+03  0.30000000000E+02 0.  1.
    -200000    1    3    3    0    0 -0.81030985294E+03 -0.26178806451E+03  0.20655473396E+03  0.10088606973E+04  0.50000000000E+03 0.  1.
<mgrwt>
<rscale>  0 0.26020171E+04</rscale>
<asrwt>0</asrwt>
<pdfrwt beam="1">  1        2 0.18275494E+00 0.26020171E+04</pdfrwt>
<pdfrwt beam="2">  1       -2 0.18901449E+00 0.26020171E+04</pdfrwt>
<totfact> 0.26998917E+00</totfact>
</mgrwt>
</event>
<event>
 8    2  0.2588871E-009  0.1677055E+04  0.7818608E-02  0.8774560E-01
         -2   -1    0    0    0  501 -0.00000000000E+00  0.00000000000E+00  0.71298842900E+03  0.71298842900E+03  0.25500000000E-02 0. -1.
          2   -1    0    0  501    0  0.00000000000E+00 -0.00000000000E+00 -0.98617045869E+03  0.98617045869E+03  0.25500000000E-02 0.  1.
    -200001    2    1    2    0    0 -0.42914381813E+03 -0.13744415622E+03 -0.23362856445E+03  0.86572035407E+03  0.70130885679E+03 0.  0.
   -5000001    2    3    3    0    0 -0.20638803032E+03 -0.83754653016E+02  0.61006747152E+01  0.26574301128E+03  0.14481460165E+03 0.  0.
     200001    1    1    2    0    0  0.42914381813E+03  0.13744415622E+03 -0.39553465243E+02  0.83343853362E+03  0.70000000000E+03 0. -1.
         11    1    4    4    0    0 -0.17803886854E+03 -0.14205730011E+02  0.30669301205E+02  0.18121878356E+03  0.51100000000E-03 0.  1.
    -200002    1    4    4    0    0 -0.28349161777E+02 -0.69548923005E+02 -0.24568626489E+02  0.84524227723E+02  0.30000000000E+02 0.  1.
    -200000    1    3    3    0    0 -0.22275578781E+03 -0.53689503207E+02 -0.23972923916E+03  0.59997734279E+03  0.50000000000E+03 0.  1.
<mgrwt>
<rscale>  0 0.16770547E+04</rscale>
<asrwt>0</asrwt>
<pdfrwt beam="1">  1        2 0.14088149E+00 0.16770547E+04</pdfrwt>
<pdfrwt beam="2">  1       -2 0.10185549E+00 0.16770547E+04</pdfrwt>
<totfact> 0.21650452E+01</totfact>
</mgrwt>
</event>
<event>
 8    2  0.2588871E-009  0.1682452E+04  0.7818608E-02  0.8771437E-01
          2   -1    0    0  501    0  0.00000000000E+00  0.00000000000E+00  0.14255226322E+04  0.14255226322E+04  0.25500000000E-02 0.  1.
         -2   -1    0    0    0  501 -0.00000000000E+00 -0.00000000000E+00 -0.49642202986E+03  0.49642202986E+03  0.25500000000E-02 0. -1.
    -200001    2    1    2    0    0 -0.22297892917E+03 -0.18839048769E+03  0.49870807819E+02  0.76080056665E+03  0.70079941927E+03 0.  0.
   -5000001    2    3    3    0    0 -0.33154814321E+02 -0.14361739939E+02 -0.24208659497E+02  0.19352024168E+03  0.18856967800E+03 0.  0.
     200001    1    1    2    0    0  0.22297892917E+03  0.18839048769E+03  0.87922979448E+03  0.11611440954E+04  0.70000000000E+03 0. -1.
         11    1    4    4    0    0  0.36058802597E+02  0.61889759852E+02  0.24521477847E+02  0.75709196901E+02  0.51100000000E-03 0.  1.
    -200002    1    4    4    0    0 -0.69213616918E+02 -0.76251499791E+02 -0.48730137344E+02  0.11781104478E+03  0.30000000000E+02 0.  1.
    -200000    1    3    3    0    0 -0.18982411485E+03 -0.17402874775E+03  0.74079467316E+02  0.56728032497E+03  0.50000000000E+03 0.  1.
<mgrwt>
<rscale>  0 0.16824516E+04</rscale>
<asrwt>0</asrwt>
<pdfrwt beam="1">  1        2 0.20364609E+00 0.16824516E+04</pdfrwt>
<pdfrwt beam="2">  1       -2 0.70917433E-01 0.16824516E+04</pdfrwt>
<totfact> 0.27660183E+01</totfact>
</mgrwt>
</event>
<event>
 8    2  0.2588871E-009  0.1513182E+04  0.7818608E-02  0.8875734E-01
          2   -1    0    0  501    0  0.00000000000E+00  0.00000000000E+00  0.27731732746E+04  0.27731732746E+04  0.25500000000E-02 0.  1.
         -2   -1    0    0    0  501 -0.00000000000E+00 -0.00000000000E+00 -0.20641681164E+03  0.20641681166E+03  0.25500000000E-02 0. -1.
    -200001    2    1    2    0    0  0.21068146813E+03 -0.17587018089E+03  0.11220364876E+04  0.13509302664E+04  0.70052102302E+03 0.  0.
   -5000001    2    3    3    0    0  0.22799213800E+02 -0.27716120320E+01  0.36039363740E+02  0.12837040733E+03  0.12104808861E+03 0.  0.
     200001    1    1    2    0    0 -0.21068146813E+03  0.17587018089E+03  0.14447199753E+04  0.16286598198E+04  0.70000000000E+03 0.  1.
         11    1    4    4    0    0 -0.78022309571E+01 -0.70328471669E+01  0.71694992254E+02  0.72460386845E+02  0.51100000000E-03 0.  1.
    -200002    1    4    4    0    0  0.30601444757E+02  0.42612351349E+01 -0.35655628513E+02  0.55910020486E+02  0.30000000000E+02 0.  1.
    -200000    1    3    3    0    0  0.18788225433E+03 -0.17309856885E+03  0.10859971239E+04  0.12225598591E+04  0.50000000000E+03 0. -1.
<mgrwt>
<rscale>  0 0.15131815E+04</rscale>
<asrwt>0</asrwt>
<pdfrwt beam="1">  1        2 0.39616762E+00 0.15131815E+04</pdfrwt>
<pdfrwt beam="2">  1       -2 0.29488115E-01 0.15131815E+04</pdfrwt>
<totfact> 0.32313548E+01</totfact>
</mgrwt>
</event>
<event>
 8    2  0.2588871E-009  0.1502921E+04  0.7818608E-02  0.8882513E-01
          2   -1    0    0  501    0  0.00000000000E+00  0.00000000000E+00  0.18318554626E+04  0.18318554626E+04  0.25500000000E-02 0.  1.
         -2   -1    0    0    0  501 -0.00000000000E+00 -0.00000000000E+00 -0.30826282315E+03  0.30826282316E+03  0.25500000000E-02 0. -1.
    -200001    2    1    2    0    0  0.28958846174E+02  0.21733541288E+03  0.98925811067E+03  0.12326015173E+04  0.70185582164E+03 0.  0.
   -5000001    2    3    3    0    0 -0.28108607374E+02  0.11569532523E+03  0.23906155771E+03  0.32354581504E+03  0.18263615186E+03 0.  0.
     200001    1    1    2    0    0 -0.28958846174E+02 -0.21733541288E+03  0.53433452880E+03  0.90751676851E+03  0.70000000000E+03 0.  1.
         11    1    4    4    0    0  0.68099600444E+02  0.58155248922E+02  0.52412828535E+02  0.10376267707E+03  0.51100000000E-03 0.  1.
    -200002    1    4    4    0    0 -0.96208207818E+02  0.57540076308E+02  0.18664872917E+03  0.21978313797E+03  0.30000000000E+02 0.  1.
    -200000    1    3    3    0    0  0.57067453548E+02  0.10164008765E+03  0.75019655297E+03  0.90905570223E+03  0.50000000000E+03 0.  1.
<mgrwt>
<rscale>  0 0.15029211E+04</rscale>
<asrwt>0</asrwt>
<pdfrwt beam="1">  1        2 0.26169365E+00 0.15029211E+04</pdfrwt>
<pdfrwt beam="2">  1       -2 0.44037545E-01 0.15029211E+04</pdfrwt>
<totfact> 0.46340704E+01</totfact>
</mgrwt>
</event>
<event>
 8    2  0.2588871E-009  0.1504090E+04  0.7818608E-02  0.8881738E-01
          2   -1    0    0  501    0  0.00000000000E+00  0.00000000000E+00  0.11800316803E+04  0.11800316803E+04  0.25500000000E-02 0.  1.
         -2   -1    0    0    0  501 -0.00000000000E+00 -0.00000000000E+00 -0.47928526452E+03  0.47928526453E+03  0.25500000000E-02 0. -1.
    -200001    2    1    2    0    0  0.32723339991E+01  0.27140495551E+03  0.39335841993E+03  0.84804711423E+03  0.70055813704E+03 0.  0.
   -5000001    2    3    3    0    0 -0.81526805366E+02  0.75008446039E+02  0.17810969200E+03  0.26315866516E+03  0.15892304332E+03 0.  0.
     200001    1    1    2    0    0 -0.32723339991E+01 -0.27140495551E+03  0.30738799584E+03  0.81126983059E+03  0.70000000000E+03 0.  1.
         11    1    4    4    0    0  0.11250067411E+02  0.40650626195E+02  0.15029239934E+03  0.15609882359E+03  0.51100000000E-03 0.  1.
    -200002    1    4    4    0    0 -0.92776872777E+02  0.34357819844E+02  0.27817292656E+02  0.10705984157E+03  0.30000000000E+02 0.  1.
    -200000    1    3    3    0    0  0.84799139365E+02  0.19639650947E+03  0.21524872793E+03  0.58488844906E+03  0.50000000000E+03 0. -1.
<mgrwt>
<rscale>  0 0.15040902E+04</rscale>
<asrwt>0</asrwt>
<pdfrwt beam="1">  1        2 0.16857595E+00 0.15040902E+04</pdfrwt>
<pdfrwt beam="2">  1       -2 0.68469324E-01 0.15040902E+04</pdfrwt>
<totfact> 0.41419349E+01</totfact>
</mgrwt>
</event>
<event>
 8    2  0.2588871E-009  0.2774632E+04  0.7818608E-02  0.8311188E-01
         -2   -1    0    0    0  501 -0.00000000000E+00  0.00000000000E+00  0.67720309247E+03  0.67720309247E+03  0.25500000000E-02 0. -1.
          2   -1    0    0  501    0  0.00000000000E+00 -0.00000000000E+00 -0.28420511285E+04  0.28420511285E+04  0.25500000000E-02 0.  1.
    -200001    2    1    2    0    0 -0.16251968128E+03  0.37125647202E+03 -0.25119460115E+04  0.26390718424E+04  0.70041659732E+03 0.  0.
   -5000001    2    3    3    0    0 -0.10986840369E+03  0.20599075152E+03 -0.90549774104E+03  0.94769342197E+03  0.15392662922E+03 0.  0.
     200001    1    1    2    0    0  0.16251968128E+03 -0.37125647202E+03  0.34709797554E+03  0.88018237851E+03  0.70000000000E+03 0. -1.
         11    1    4    4    0    0 -0.34662588279E+02  0.19253341798E+03 -0.58455551631E+03  0.61642174176E+03  0.51100000000E-03 0.  1.
    -200002    1    4    4    0    0 -0.75205815408E+02  0.13457333541E+02 -0.32094222473E+03  0.33127168021E+03  0.30000000000E+02 0.  1.
    -200000    1    3    3    0    0 -0.52651277596E+02  0.16526572051E+03 -0.16064482705E+04  0.16913784204E+04  0.50000000000E+03 0.  1.
<mgrwt>
<rscale>  0 0.27746321E+04</rscale>
<asrwt>0</asrwt>
<pdfrwt beam="1">  1        2 0.40600730E+00 0.27746321E+04</pdfrwt>
<pdfrwt beam="2">  1       -2 0.96743301E-01 0.27746321E+04</pdfrwt>
<totfact> 0.22611959E+00</totfact>
</mgrwt>
</event>
<event>
 8    2  0.2588871E-009  0.1604578E+04  0.7818608E-02  0.8817740E-01
          2   -1    0    0  501    0  0.00000000000E+00  0.00000000000E+00  0.10883665639E+04  0.10883665639E+04  0.25500000000E-02 0.  1.
         -2   -1    0    0    0  501 -0.00000000000E+00 -0.00000000000E+00 -0.59140732946E+03  0.59140732947E+03  0.25500000000E-02 0. -1.
    -200001    2    1    2    0    0 -0.68582054786E+02 -0.34666552539E+03  0.42580975202E+03  0.89240947100E+03  0.70014300987E+03 0.  0.
   -5000001    2    3    3    0    0 -0.73059745366E+02 -0.11265721099E+03  0.13125807963E+03  0.26667739683E+03  0.18936413846E+03 0.  0.
     200001    1    1    2    0    0  0.68582054786E+02  0.34666552539E+03  0.71149482395E+02  0.78736442235E+03  0.70000000000E+03 0. -1.
         11    1    4    4    0    0 -0.91657901509E+02 -0.50896767436E+02 -0.13186001347E+02  0.10566703590E+03  0.51100000000E-03 0.  1.
    -200002    1    4    4    0    0  0.18598156143E+02 -0.61760443552E+02  0.14444408097E+03  0.16101036093E+03  0.30000000000E+02 0.  1.
    -200000    1    3    3    0    0  0.44776905804E+01 -0.23400831441E+03  0.29455167240E+03  0.62573207416E+03  0.50000000000E+03 0. -1.
<mgrwt>
<rscale>  0 0.16045784E+04</rscale>
<asrwt>0</asrwt>
<pdfrwt beam="1">  1        2 0.15548094E+00 0.16045784E+04</pdfrwt>
<pdfrwt beam="2">  1       -2 0.84486761E-01 0.16045784E+04</pdfrwt>
<totfact> 0.29141730E+01</totfact>
</mgrwt>
</event>
<event>
 8    2  0.2588871E-009  0.1682718E+04  0.7818608E-02  0.8771283E-01
          2   -1    0    0  501    0  0.00000000000E+00  0.00000000000E+00  0.31276694323E+03  0.31276694324E+03  0.25500000000E-02 0.  1.
         -2   -1    0    0    0  501 -0.00000000000E+00 -0.00000000000E+00 -0.22632994346E+04  0.22632994346E+04  0.25500000000E-02 0. -1.
    -200001    2    1    2    0    0  0.38160573689E+02 -0.46346469203E+03 -0.90901852748E+03  0.12377812486E+04  0.69966562443E+03 0.  0.
   -5000001    2    3    3    0    0 -0.43674181053E+01 -0.19049311066E+03 -0.13796164563E+03  0.27817152099E+03  0.14845632313E+03 0.  0.
     200001    1    1    2    0    0 -0.38160573689E+02  0.46346469203E+03 -0.10415139639E+04  0.13382851293E+04  0.70000000000E+03 0.  1.
         11    1    4    4    0    0 -0.55951456783E+02 -0.85405488292E+02 -0.11739844794E+03  0.15558617717E+03  0.51100000000E-03 0.  1.
    -200002    1    4    4    0    0  0.51584038677E+02 -0.10508762237E+03 -0.20563197686E+02  0.12258534382E+03  0.30000000000E+02 0.  1.
    -200000    1    3    3    0    0  0.42527991794E+02 -0.27297158137E+03 -0.77105688185E+03  0.95960972764E+03  0.50000000000E+03 0.  1.
<mgrwt>
<rscale>  0 0.16827183E+04</rscale>
<asrwt>0</asrwt>
<pdfrwt beam="1">  1        2 0.44680993E-01 0.16827183E+04</pdfrwt>
<pdfrwt beam="2">  1       -2 0.32332848E+00 0.16827183E+04</pdfrwt>
<totfact> 0.24920435E+00</totfact>
</mgrwt>
</event>
<event>
 8    2  0.2588871E-009  0.2395579E+04  0.7818608E-02  0.8441161E-01
         -2   -1    0    0    0  501 -0.00000000000E+00  0.00000000000E+00  0.97432147594E+03  0.97432147595E+03  0.25500000000E-02 0. -1.
          2   -1    0    0  501    0  0.00000000000E+00 -0.00000000000E+00 -0.14725112521E+04  0.14725112521E+04  0.25500000000E-02 0.  1.
    -200001    2    1    2    0    0 -0.29337933028E+03 -0.51965245306E+03 -0.10327204748E+04  0.13829562450E+04  0.69996163699E+03 0.  0.
   -5000001    2    3    3    0    0 -0.98423409045E+02 -0.10587314202E+03 -0.26264326538E+03  0.35716872421E+03  0.19414356299E+03 0.  0.
     200001    1    1    2    0    0  0.29337933028E+03  0.51965245306E+03  0.53453069860E+03  0.10638764830E+04  0.70000000000E+03 0. -1.
         11    1    4    4    0    0 -0.75704040464E+02  0.25885286685E+02 -0.18042351779E+03  0.19736715932E+03  0.51100000000E-03 0.  1.
    -200002    1    4    4    0    0 -0.22719368581E+02 -0.13175842870E+03 -0.82219747599E+02  0.15980156488E+03  0.30000000000E+02 0.  1.
    -200000    1    3    3    0    0 -0.19495592124E+03 -0.41377931104E+03 -0.77007720940E+03  0.10257875208E+04  0.50000000000E+03 0.  1.
<mgrwt>
<rscale>  0 0.23955787E+04</rscale>
<asrwt>0</asrwt>
<pdfrwt beam="1">  1        2 0.21035875E+00 0.23955787E+04</pdfrwt>
<pdfrwt beam="2">  1       -2 0.13918878E+00 0.23955787E+04</pdfrwt>
<totfact> 0.49886059E+00</totfact>
</mgrwt>
</event>
<event>
 8    2  0.2588871E-009  0.1493925E+04  0.7818608E-02  0.8888503E-01
          2   -1    0    0  501    0  0.00000000000E+00  0.00000000000E+00  0.35491098231E+03  0.35491098232E+03  0.25500000000E-02 0.  1.
         -2   -1    0    0    0  501 -0.00000000000E+00 -0.00000000000E+00 -0.15720936413E+04  0.15720936413E+04  0.25500000000E-02 0. -1.
    -200001    2    1    2    0    0 -0.99917103591E+02  0.23927543062E+03 -0.59087670356E+03  0.95258412450E+03  0.70074608536E+03 0.  0.
   -5000001    2    3    3    0    0 -0.57762176636E+02  0.16147353569E+03 -0.25671623888E+03  0.34472444589E+03  0.15336735152E+03 0.  0.
     200001    1    1    2    0    0  0.99917103591E+02 -0.23927543062E+03 -0.62630595541E+03  0.97442049910E+03  0.70000000000E+03 0. -1.
         11    1    4    4    0    0 -0.78556901248E+02  0.12625825902E+03 -0.97974718630E+02  0.17807689405E+03  0.51100000000E-03 0.  1.
    -200002    1    4    4    0    0  0.20794724613E+02  0.35215276666E+02 -0.15874152025E+03  0.16664755184E+03  0.30000000000E+02 0.  1.
    -200000    1    3    3    0    0 -0.42154926955E+02  0.77801894932E+02 -0.33416046468E+03  0.60785967861E+03  0.50000000000E+03 0. -1.
<mgrwt>
<rscale>  0 0.14939254E+04</rscale>
<asrwt>0</asrwt>
<pdfrwt beam="1">  1        2 0.50701570E-01 0.14939254E+04</pdfrwt>
<pdfrwt beam="2">  1       -2 0.22458480E+00 0.14939254E+04</pdfrwt>
<totfact> 0.88507124E+00</totfact>
</mgrwt>
</event>
<event>
 8    2  0.2588871E-009  0.1578347E+04  0.7818608E-02  0.8833962E-01
          2   -1    0    0  501    0  0.00000000000E+00  0.00000000000E+00  0.10392638861E+04  0.10392638861E+04  0.25500000000E-02 0.  1.
         -2   -1    0    0    0  501 -0.00000000000E+00 -0.00000000000E+00 -0.59926508649E+03  0.59926508649E+03  0.25500000000E-02 0. -1.
    -200001    2    1    2    0    0 -0.34413471277E+03 -0.11473203256E+03  0.24362364788E+03  0.82602953256E+03  0.70098514037E+03 0.  0.
   -5000001    2    3    3    0    0 -0.78660988760E+02  0.11979208500E+02  0.97965594176E+02  0.22790888807E+03  0.18977394719E+03 0.  0.
     200001    1    1    2    0    0  0.34413471277E+03  0.11473203256E+03  0.19637515172E+03  0.81249944003E+03  0.70000000000E+03 0.  1.
         11    1    4    4    0    0  0.37162669667E+02 -0.51824220422E+02  0.58870877832E+02  0.86790518469E+02  0.51100000000E-03 0.  1.
    -200002    1    4    4    0    0 -0.11582365843E+03  0.63803428922E+02  0.39094716345E+02  0.14111836960E+03  0.30000000000E+02 0.  1.
    -200000    1    3    3    0    0 -0.26547372401E+03 -0.12671124106E+03  0.14565805370E+03  0.59812064448E+03  0.50000000000E+03 0. -1.
<mgrwt>
<rscale>  0 0.15783467E+04</rscale>
<asrwt>0</asrwt>
<pdfrwt beam="1">  1        2 0.14846627E+00 0.15783467E+04</pdfrwt>
<pdfrwt beam="2">  1       -2 0.85609297E-01 0.15783467E+04</pdfrwt>
<totfact> 0.30325495E+01</totfact>
</mgrwt>
</event>
<event>
 8    2  0.2588871E-009  0.1533905E+04  0.7818608E-02  0.8862214E-01
          2   -1    0    0  501    0  0.00000000000E+00  0.00000000000E+00  0.84974794631E+03  0.84974794632E+03  0.25500000000E-02 0.  1.
         -2   -1    0    0    0  501 -0.00000000000E+00 -0.00000000000E+00 -0.69222423214E+03  0.69222423214E+03  0.25500000000E-02 0. -1.
    -200001    2    1    2    0    0 -0.18297546654E+03  0.30160962699E+02 -0.17448590746E+03  0.74534171590E+03  0.70049927661E+03 0.  0.
   -5000001    2    3    3    0    0 -0.12756121682E+03 -0.35910961181E+02 -0.48416681065E+02  0.22253229743E+03  0.17209005556E+03 0.  0.
     200001    1    1    2    0    0  0.18297546654E+03 -0.30160962699E+02  0.33200962163E+03  0.79663046256E+03  0.70000000000E+03 0. -1.
         11    1    4    4    0    0 -0.12569277511E+03 -0.75938722089E+02  0.80505076548E+01  0.14707200244E+03  0.51100000000E-03 0.  1.
    -200002    1    4    4    0    0 -0.18684417104E+01  0.40027760908E+02 -0.56467188720E+02  0.75460294988E+02  0.30000000000E+02 0.  1.
    -200000    1    3    3    0    0 -0.55414249715E+02  0.66071923881E+02 -0.12606922639E+03  0.52280941847E+03  0.50000000000E+03 0. -1.
<mgrwt>
<rscale>  0 0.15339050E+04</rscale>
<asrwt>0</asrwt>
<pdfrwt beam="1">  1        2 0.12139256E+00 0.15339050E+04</pdfrwt>
<pdfrwt beam="2">  1       -2 0.98889176E-01 0.15339050E+04</pdfrwt>
<totfact> 0.28774943E+01</totfact>
</mgrwt>
</event>
<event>
 8    2  0.2588871E-009  0.1500305E+04  0.7818608E-02  0.8884250E-01
          2   -1    0    0  501    0  0.00000000000E+00  0.00000000000E+00  0.88142370603E+03  0.88142370604E+03  0.25500000000E-02 0.  1.
         -2   -1    0    0    0  501 -0.00000000000E+00 -0.00000000000E+00 -0.63843149659E+03  0.63843149660E+03  0.25500000000E-02 0. -1.
    -200001    2    1    2    0    0  0.23508990570E+03 -0.12681173730E+03  0.77802892306E+02  0.75262903587E+03  0.69932016638E+03 0.  0.
   -5000001    2    3    3    0    0  0.13656612563E+03  0.15562962603E+02  0.14142255782E+03  0.21968912157E+03  0.96801124999E+02 0.  0.
     200001    1    1    2    0    0 -0.23508990570E+03  0.12681173730E+03  0.16518931714E+03  0.76722616677E+03  0.70000000000E+03 0.  1.
         11    1    4    4    0    0  0.95422172597E+02  0.95642130616E+01  0.35954271661E+02  0.10241862548E+03  0.51100000000E-03 0.  1.
    -200002    1    4    4    0    0  0.41143953032E+02  0.59987495419E+01  0.10546828616E+03  0.11727049609E+03  0.30000000000E+02 0.  1.
    -200000    1    3    3    0    0  0.98523780066E+02 -0.14237469991E+03 -0.63619665514E+02  0.53293991430E+03  0.50000000000E+03 0. -1.
<mgrwt>
<rscale>  0 0.15003048E+04</rscale>
<asrwt>0</asrwt>
<pdfrwt beam="1">  1        2 0.12591767E+00 0.15003048E+04</pdfrwt>
<pdfrwt beam="2">  1       -2 0.91204499E-01 0.15003048E+04</pdfrwt>
<totfact> 0.33190400E+01</totfact>
</mgrwt>
</event>
<event>
 8    2  0.2588871E-009  0.1561756E+04  0.7818608E-02  0.8844393E-01
          2   -1    0    0  501    0  0.00000000000E+00  0.00000000000E+00  0.17062443390E+04  0.17062443390E+04  0.25500000000E-02 0.  1.
         -2   -1    0    0    0  501 -0.00000000000E+00 -0.00000000000E+00 -0.35737576856E+03  0.35737576857E+03  0.25500000000E-02 0. -1.
    -200001    2    1    2    0    0 -0.20262918176E+03  0.57382660814E+02  0.10364636508E+04  0.12686684179E+04  0.70065062625E+03 0.  0.
   -5000001    2    3    3    0    0 -0.48176444113E+02 -0.52091118332E+02  0.25845744282E+03  0.32466957460E+03  0.18323653714E+03 0.  0.
     200001    1    1    2    0    0  0.20262918176E+03 -0.57382660814E+02  0.31240491957E+03  0.79495168962E+03  0.70000000000E+03 0. -1.
         11    1    4    4    0    0 -0.71672387447E+02 -0.58405416193E+02  0.36538388465E+02  0.99414172003E+02  0.51100000000E-03 0.  1.
    -200002    1    4    4    0    0  0.23495943334E+02  0.63142978608E+01  0.22191905436E+03  0.22525540259E+03  0.30000000000E+02 0.  1.
    -200000    1    3    3    0    0 -0.15445273765E+03  0.10947377915E+03  0.77800620802E+03  0.94399884333E+03  0.50000000000E+03 0.  1.
<mgrwt>
<rscale>  0 0.15617559E+04</rscale>
<asrwt>0</asrwt>
<pdfrwt beam="1">  1        2 0.24374919E+00 0.15617559E+04</pdfrwt>
<pdfrwt beam="2">  1       -2 0.51053682E-01 0.15617559E+04</pdfrwt>
<totfact> 0.39765145E+01</totfact>
</mgrwt>
</event>
<event>
 8    2  0.2588871E-009  0.1938243E+04  0.7818608E-02  0.8636051E-01
         -2   -1    0    0    0  501 -0.00000000000E+00  0.00000000000E+00  0.29838888987E+03  0.29838888988E+03  0.25500000000E-02 0. -1.
          2   -1    0    0  501    0  0.00000000000E+00 -0.00000000000E+00 -0.31475598391E+04  0.31475598391E+04  0.25500000000E-02 0.  1.
    -200001    2    1    2    0    0  0.32755822699E+03 -0.41044703745E+03 -0.68297082531E+03  0.11096730305E+04  0.69940254766E+03 0.  0.
   -5000001    2    3    3    0    0  0.13369918823E+03 -0.44690559909E+02 -0.20108275781E+03  0.30123302813E+03  0.17445441429E+03 0.  0.
     200001    1    1    2    0    0 -0.32755822699E+03  0.41044703745E+03 -0.21662001239E+04  0.23362756985E+04  0.70000000000E+03 0.  1.
         11    1    4    4    0    0 -0.15410791699E+02 -0.29944353604E+02 -0.12704100936E+03  0.13142897273E+03  0.51100000000E-03 0.  1.
    -200002    1    4    4    0    0  0.14910997993E+03 -0.14746206305E+02 -0.74041748452E+02  0.16980405539E+03  0.30000000000E+02 0.  1.
    -200000    1    3    3    0    0  0.19385903876E+03 -0.36575647754E+03 -0.48188806750E+03  0.80844000233E+03  0.50000000000E+03 0. -1.
<mgrwt>
<rscale>  0 0.19382434E+04</rscale>
<asrwt>0</asrwt>
<pdfrwt beam="1">  1        2 0.44965139E+00 0.19382434E+04</pdfrwt>
<pdfrwt beam="2">  1       -2 0.42626986E-01 0.19382434E+04</pdfrwt>
<totfact> 0.95241673E+00</totfact>
</mgrwt>
</event>
<event>
 8    2  0.2588871E-009  0.1425936E+04  0.7818608E-02  0.8935256E-01
          2   -1    0    0  501    0  0.00000000000E+00  0.00000000000E+00  0.20927581708E+04  0.20927581708E+04  0.25500000000E-02 0.  1.
         -2   -1    0    0    0  501 -0.00000000000E+00 -0.00000000000E+00 -0.24289630035E+03  0.24289630037E+03  0.25500000000E-02 0. -1.
    -200001    2    1    2    0    0  0.81943477765E+02 -0.88418346057E+02  0.82293646661E+03  0.10870118792E+04  0.69988417610E+03 0.  0.
   -5000001    2    3    3    0    0  0.10382473506E+03 -0.19514741747E+02  0.30445614661E+03  0.36310004870E+03  0.16729524619E+03 0.  0.
     200001    1    1    2    0    0 -0.81943477765E+02  0.88418346057E+02  0.10269254039E+04  0.12486425920E+04  0.70000000000E+03 0. -1.
         11    1    4    4    0    0  0.98770788277E+02 -0.72259980273E+02  0.13102048041E+03  0.17928619482E+03  0.51100000000E-03 0.  1.
    -200002    1    4    4    0    0  0.50539467797E+01  0.52745238526E+02  0.17343566621E+03  0.18381385388E+03  0.30000000000E+02 0.  1.
    -200000    1    3    3    0    0 -0.21881257291E+02 -0.68903604310E+02  0.51848032000E+03  0.72391183050E+03  0.50000000000E+03 0. -1.
<mgrwt>
<rscale>  0 0.14259358E+04</rscale>
<asrwt>0</asrwt>
<pdfrwt beam="1">  1        2 0.29896548E+00 0.14259358E+04</pdfrwt>
<pdfrwt beam="2">  1       -2 0.34699468E-01 0.14259358E+04</pdfrwt>
<totfact> 0.54442999E+01</totfact>
</mgrwt>
</event>
<event>
 8    2  0.2588871E-009  0.1680381E+04  0.7818608E-02  0.8772633E-01
          2   -1    0    0  501    0  0.00000000000E+00  0.00000000000E+00  0.48665414161E+03  0.48665414161E+03  0.25500000000E-02 0.  1.
         -2   -1    0    0    0  501 -0.00000000000E+00 -0.00000000000E+00 -0.14505583408E+04  0.14505583408E+04  0.25500000000E-02 0. -1.
    -200001    2    1    2    0    0 -0.14716898625E+03  0.38978925430E+03 -0.24114802342E+03  0.84818958878E+03  0.69834005759E+03 0.  0.
   -5000001    2    3    3    0    0  0.37063206508E+02  0.63867858821E+02 -0.13901819242E+03  0.21526245296E+03  0.14683010986E+03 0.  0.
     200001    1    1    2    0    0  0.14716898625E+03 -0.38978925430E+03 -0.72275617580E+03  0.10890228937E+04  0.70000000000E+03 0.  1.
         11    1    4    4    0    0  0.66169658499E+02  0.19242028714E+02 -0.13784110871E+03  0.15410662097E+03  0.51100000000E-03 0.  1.
    -200002    1    4    4    0    0 -0.29106451991E+02  0.44625830107E+02 -0.11770837068E+01  0.61155831989E+02  0.30000000000E+02 0.  1.
    -200000    1    3    3    0    0 -0.18423219276E+03  0.32592139548E+03 -0.10212983100E+03  0.63292713582E+03  0.50000000000E+03 0.  1.
<mgrwt>
<rscale>  0 0.16803812E+04</rscale>
<asrwt>0</asrwt>
<pdfrwt beam="1">  1        2 0.69522021E-01 0.16803812E+04</pdfrwt>
<pdfrwt beam="2">  1       -2 0.20722262E+00 0.16803812E+04</pdfrwt>
<totfact> 0.78896440E+00</totfact>
</mgrwt>
</event>
<event>
 8    2  0.2588871E-009  0.1750978E+04  0.7818608E-02  0.8732812E-01
          2   -1    0    0  501    0  0.00000000000E+00  0.00000000000E+00  0.28595941467E+04  0.28595941467E+04  0.25500000000E-02 0.  1.
         -2   -1    0    0    0  501 -0.00000000000E+00 -0.00000000000E+00 -0.26803848231E+03  0.26803848232E+03  0.25500000000E-02 0. -1.
    -200001    2    1    2    0    0  0.46819913610E+03  0.20817600847E+03  0.14890189120E+04  0.17247302903E+04  0.70354073975E+03 0.  0.
   -5000001    2    3    3    0    0  0.16412945015E+03 -0.15487031218E+01  0.52188658258E+03  0.57503999672E+03  0.17710030454E+03 0.  0.
     200001    1    1    2    0    0 -0.46819913610E+03 -0.20817600847E+03  0.11025367524E+04  0.14029023387E+04  0.70000000000E+03 0. -1.
         11    1    4    4    0    0  0.60782711581E+02  0.39222114302E+02  0.40352368152E+03  0.40995642918E+03  0.51100000000E-03 0.  1.
    -200002    1    4    4    0    0  0.10334673857E+03 -0.40770817423E+02  0.11836290106E+03  0.16508356754E+03  0.30000000000E+02 0.  1.
    -200000    1    3    3    0    0  0.30406968595E+03  0.20972471159E+03  0.96713232944E+03  0.11496902936E+04  0.50000000000E+03 0. -1.
<mgrwt>
<rscale>  0 0.17509783E+04</rscale>
<asrwt>0</asrwt>
<pdfrwt beam="1">  1        2 0.40851344E+00 0.17509783E+04</pdfrwt>
<pdfrwt beam="2">  1       -2 0.38291213E-01 0.17509783E+04</pdfrwt>
<totfact> 0.17304723E+01</totfact>
</mgrwt>
</event>
<event>
 8    2  0.2588871E-009  0.1549167E+04  0.7818608E-02  0.8852400E-01
         -2   -1    0    0    0  501 -0.00000000000E+00  0.00000000000E+00  0.26443918708E+03  0.26443918709E+03  0.25500000000E-02 0. -1.
          2   -1    0    0  501    0  0.00000000000E+00 -0.00000000000E+00 -0.22688749350E+04  0.22688749350E+04  0.25500000000E-02 0.  1.
    -200001    2    1    2    0    0 -0.18277012866E+03  0.27426400094E+03 -0.92230208737E+03  0.12030363611E+04  0.69859121349E+03 0.  0.
   -5000001    2    3    3    0    0 -0.19537843507E+02  0.92050125874E+01 -0.29259194264E+03  0.34080906356E+03  0.17341947214E+03 0.  0.
     200001    1    1    2    0    0  0.18277012866E+03 -0.27426400094E+03 -0.10821336605E+04  0.13302777610E+04  0.70000000000E+03 0. -1.
         11    1    4    4    0    0 -0.66349776228E+02 -0.12371442852E+02 -0.26788084079E+03  0.27625258418E+03  0.51100000000E-03 0.  1.
    -200002    1    4    4    0    0  0.46811932721E+02  0.21576455439E+02 -0.24711101852E+02  0.64556479374E+02  0.30000000000E+02 0.  1.
    -200000    1    3    3    0    0 -0.16323228515E+03  0.26505898836E+03 -0.62971014472E+03  0.86222729752E+03  0.50000000000E+03 0.  1.
<mgrwt>
<rscale>  0 0.15491668E+04</rscale>
<asrwt>0</asrwt>
<pdfrwt beam="1">  1        2 0.32412498E+00 0.15491668E+04</pdfrwt>
<pdfrwt beam="2">  1       -2 0.37777028E-01 0.15491668E+04</pdfrwt>
<totfact> 0.37155179E+01</totfact>
</mgrwt>
</event>
<event>
 8    2  0.2588871E-009  0.1643711E+04  0.7818608E-02  0.8794136E-01
          2   -1    0    0  501    0  0.00000000000E+00  0.00000000000E+00  0.36489051564E+03  0.36489051565E+03  0.25500000000E-02 0.  1.
         -2   -1    0    0    0  501 -0.00000000000E+00 -0.00000000000E+00 -0.18510928680E+04  0.18510928680E+04  0.25500000000E-02 0. -1.
    -200001    2    1    2    0    0  0.24234595117E+02 -0.99266898543E+02 -0.13069167928E+04  0.14861994809E+04  0.70022579292E+03 0.  0.
   -5000001    2    3    3    0    0 -0.11853396136E+03  0.39063880231E+02 -0.37746325656E+03  0.41223386644E+03  0.10900442126E+03 0.  0.
     200001    1    1    2    0    0 -0.24234595117E+02  0.99266898543E+02 -0.17928555951E+03  0.72978390267E+03  0.70000000000E+03 0.  1.
         11    1    4    4    0    0 -0.29797823974E+02  0.38476850986E+02 -0.43134371764E+02  0.65030395994E+02  0.51100000000E-03 0.  1.
    -200002    1    4    4    0    0 -0.88736137389E+02  0.58702924433E+00 -0.33432888480E+03  0.34720347045E+03  0.30000000000E+02 0.  1.
    -200000    1    3    3    0    0  0.14276855648E+03 -0.13833077877E+03 -0.92945353625E+03  0.10739656145E+04  0.50000000000E+03 0. -1.
<mgrwt>
<rscale>  0 0.16437107E+04</rscale>
<asrwt>0</asrwt>
<pdfrwt beam="1">  1        2 0.52127218E-01 0.16437107E+04</pdfrwt>
<pdfrwt beam="2">  1       -2 0.26444183E+00 0.16437107E+04</pdfrwt>
<totfact> 0.48166957E+00</totfact>
</mgrwt>
</event>
<event>
 8    2  0.2588871E-009  0.1494086E+04  0.7818608E-02  0.8888395E-01
          2   -1    0    0  501    0  0.00000000000E+00  0.00000000000E+00  0.14734758905E+04  0.14734758905E+04  0.25500000000E-02 0.  1.
         -2   -1    0    0    0  501 -0.00000000000E+00 -0.00000000000E+00 -0.37874622501E+03  0.37874622502E+03  0.25500000000E-02 0. -1.
    -200001    2    1    2    0    0  0.20673695549E+03  0.86974134979E+02  0.71099957278E+03  0.10230336852E+04  0.70055182511E+03 0.  0.
   -5000001    2    3    3    0    0  0.14813201113E+03  0.14316902559E+02  0.27719490445E+03  0.35452781149E+03  0.16341630166E+03 0.  0.
     200001    1    1    2    0    0 -0.20673695549E+03 -0.86974134979E+02  0.38373009273E+03  0.82918843033E+03  0.70000000000E+03 0.  1.
         11    1    4    4    0    0  0.11310974102E+03 -0.58705855639E+02  0.20768044363E+03  0.24366238459E+03  0.51100000000E-03 0.  1.
    -200002    1    4    4    0    0  0.35022270115E+02  0.73022758198E+02  0.69514460818E+02  0.11086542690E+03  0.30000000000E+02 0.  1.
    -200000    1    3    3    0    0  0.58604944358E+02  0.72657232419E+02  0.43380466833E+03  0.66850587372E+03  0.50000000000E+03 0.  1.
<mgrwt>
<rscale>  0 0.14940863E+04</rscale>
<asrwt>0</asrwt>
<pdfrwt beam="1">  1        2 0.21049656E+00 0.14940863E+04</pdfrwt>
<pdfrwt beam="2">  1       -2 0.54106602E-01 0.14940863E+04</pdfrwt>
<totfact> 0.47023071E+01</totfact>
</mgrwt>
</event>
<event>
 8    2  0.2588871E-009  0.1659950E+04  0.7818608E-02  0.8784542E-01
          2   -1    0    0  501    0  0.00000000000E+00  0.00000000000E+00  0.16679095146E+04  0.16679095146E+04  0.25500000000E-02 0. -1.
         -2   -1    0    0    0  501 -0.00000000000E+00 -0.00000000000E+00 -0.41300691788E+03  0.41300691789E+03  0.25500000000E-02 0.  1.
    -200001    2    1    2    0    0 -0.24809641594E+03  0.21744749351E+03  0.25195311706E+03  0.81413195880E+03  0.70035364575E+03 0.  0.
   -5000001    2    3    3    0    0 -0.12297734512E+03  0.21697356539E+02  0.59485693073E+02  0.23016568640E+03  0.18396600996E+03 0.  0.
     200001    1    1    2    0    0  0.24809641594E+03 -0.21744749351E+03  0.10029494797E+04  0.12667844737E+04  0.70000000000E+03 0. -1.
         11    1    4    4    0    0 -0.13267925680E+02 -0.71214773332E+02  0.20452454054E+01  0.72469061134E+02  0.51100000000E-03 0.  1.
    -200002    1    4    4    0    0 -0.10970941944E+03  0.92912129872E+02  0.57440447667E+02  0.15769662527E+03  0.30000000000E+02 0.  1.
    -200000    1    3    3    0    0 -0.12511907082E+03  0.19575013697E+03  0.19246742398E+03  0.58396627240E+03  0.50000000000E+03 0.  1.
<mgrwt>
<rscale>  0 0.16599496E+04</rscale>
<asrwt>0</asrwt>
<pdfrwt beam="1">  1        2 0.23827278E+00 0.16599496E+04</pdfrwt>
<pdfrwt beam="2">  1       -2 0.59000989E-01 0.16599496E+04</pdfrwt>
<totfact> 0.30602719E+01</totfact>
</mgrwt>
</event>
<event>
 8    2  0.2588871E-009  0.1638571E+04  0.7818608E-02  0.8797196E-01
         -2   -1    0    0    0  501 -0.00000000000E+00  0.00000000000E+00  0.37186164266E+03  0.37186164267E+03  0.25500000000E-02 0. -1.
          2   -1    0    0  501    0  0.00000000000E+00 -0.00000000000E+00 -0.18050507175E+04  0.18050507175E+04  0.25500000000E-02 0.  1.
    -200001    2    1    2    0    0  0.87283250272E+02 -0.13593358452E+03 -0.19333046000E+03  0.74396236453E+03  0.70000501991E+03 0.  0.
   -5000001    2    3    3    0    0 -0.15567614510E+02 -0.91693654579E+02  0.67627086629E+02  0.16895426639E+03  0.12378224579E+03 0.  0.
     200001    1    1    2    0    0 -0.87283250272E+02  0.13593358452E+03 -0.12398586148E+04  0.14329499956E+04  0.70000000000E+03 0.  1.
         11    1    4    4    0    0  0.18428455722E+02 -0.20231540311E+02 -0.29425280924E+02  0.40184205372E+02  0.51100000000E-03 0.  1.
    -200002    1    4    4    0    0 -0.33996070232E+02 -0.71462114268E+02  0.97052367554E+02  0.12877006102E+03  0.30000000000E+02 0.  1.
    -200000    1    3    3    0    0  0.10285086478E+03 -0.44239929936E+02 -0.26095754663E+03  0.57500809814E+03  0.50000000000E+03 0. -1.
<mgrwt>
<rscale>  0 0.16385715E+04</rscale>
<asrwt>0</asrwt>
<pdfrwt beam="1">  1        2 0.25786438E+00 0.16385715E+04</pdfrwt>
<pdfrwt beam="2">  1       -2 0.53123093E-01 0.16385715E+04</pdfrwt>
<totfact> 0.32380142E+01</totfact>
</mgrwt>
</event>
<event>
 8    2  0.2588871E-009  0.2011205E+04  0.7818608E-02  0.8601400E-01
         -2   -1    0    0    0  501 -0.00000000000E+00  0.00000000000E+00  0.68575286096E+03  0.68575286096E+03  0.25500000000E-02 0. -1.
          2   -1    0    0  501    0  0.00000000000E+00 -0.00000000000E+00 -0.14746374260E+04  0.14746374260E+04  0.25500000000E-02 0.  1.
    -200001    2    1    2    0    0 -0.16783175209E+03  0.57831745763E+03 -0.82179062114E+03  0.12364306627E+04  0.70057289403E+03 0.  0.
   -5000001    2    3    3    0    0 -0.85233977346E+02  0.17829513725E+03 -0.20468572531E+03  0.34331325627E+03  0.19212953684E+03 0.  0.
     200001    1    1    2    0    0  0.16783175209E+03 -0.57831745763E+03  0.32906056068E+02  0.92395962430E+03  0.70000000000E+03 0. -1.
         11    1    4    4    0    0 -0.59659488883E+02  0.18304239923E+03 -0.73205034316E+02  0.20596784113E+03  0.51100000000E-03 0.  1.
    -200002    1    4    4    0    0 -0.25574488463E+02 -0.47472619825E+01 -0.13148069099E+03  0.13734541514E+03  0.30000000000E+02 0.  1.
    -200000    1    3    3    0    0 -0.82597774744E+02  0.40002232038E+03 -0.61710489583E+03  0.89311740642E+03  0.50000000000E+03 0.  1.
<mgrwt>
<rscale>  0 0.20112054E+04</rscale>
<asrwt>0</asrwt>
<pdfrwt beam="1">  1        2 0.21066249E+00 0.20112054E+04</pdfrwt>
<pdfrwt beam="2">  1       -2 0.97964695E-01 0.20112054E+04</pdfrwt>
<totfact> 0.12190086E+01</totfact>
</mgrwt>
</event>
<event>
 8    2  0.2588871E-009  0.2262431E+04  0.7818608E-02  0.8492883E-01
          2   -1    0    0  501    0  0.00000000000E+00  0.00000000000E+00  0.74478226019E+03  0.74478226019E+03  0.25500000000E-02 0.  1.
         -2   -1    0    0    0  501 -0.00000000000E+00 -0.00000000000E+00 -0.17181511242E+04  0.17181511242E+04  0.25500000000E-02 0. -1.
    -200001    2    1    2    0    0  0.66424009186E+03  0.19258938537E+02  0.15762506736E+03  0.97607996892E+03  0.69735259197E+03 0.  0.
   -5000001    2    3    3    0    0  0.12615539693E+03  0.55178423645E+02  0.23659690723E+02  0.22856938675E+03  0.18089870365E+03 0.  0.
     200001    1    1    2    0    0 -0.66424009186E+03 -0.19258938537E+02 -0.11309939314E+04  0.14868534155E+04  0.70000000000E+03 0. -1.
         11    1    4    4    0    0  0.54176633012E+02  0.11296894910E+03  0.36903075434E+02  0.13060983118E+03  0.51100000000E-03 0.  1.
    -200002    1    4    4    0    0  0.71978763920E+02 -0.57790525453E+02 -0.13243384711E+02  0.97959555564E+02  0.30000000000E+02 0.  1.
    -200000    1    3    3    0    0  0.53808469492E+03 -0.35919485108E+02  0.13396537663E+03  0.74751058217E+03  0.50000000000E+03 0.  1.
<mgrwt>
<rscale>  0 0.22624310E+04</rscale>
<asrwt>0</asrwt>
<pdfrwt beam="1">  1        2 0.10639747E+00 0.22624310E+04</pdfrwt>
<pdfrwt beam="2">  1       -2 0.24545016E+00 0.22624310E+04</pdfrwt>
<totfact> 0.26068247E+00</totfact>
</mgrwt>
</event>
<event>
 8    2  0.2588871E-009  0.3704454E+04  0.7818608E-02  0.8066976E-01
         -2   -1    0    0    0  501 -0.00000000000E+00  0.00000000000E+00  0.16232322517E+04  0.16232322517E+04  0.25500000000E-02 0. -1.
          2   -1    0    0  501    0  0.00000000000E+00 -0.00000000000E+00 -0.21135266252E+04  0.21135266252E+04  0.25500000000E-02 0.  1.
    -200001    2    1    2    0    0  0.65887771723E+03 -0.42049602020E+03  0.12946219529E+04  0.16662847665E+04  0.69965861178E+03 0.  0.
   -5000001    2    3    3    0    0  0.12777296248E+03 -0.80776968605E+02  0.35802584030E+03  0.43149993806E+03  0.18750692153E+03 0.  0.
     200001    1    1    2    0    0 -0.65887771723E+03  0.42049602020E+03 -0.17849163265E+04  0.20704741104E+04  0.70000000000E+03 0.  1.
         11    1    4    4    0    0  0.10208755773E+03 -0.29881320735E+01  0.54658097728E+02  0.11583741203E+03  0.51100000000E-03 0.  1.
    -200002    1    4    4    0    0  0.25685404745E+02 -0.77788836531E+02  0.30336774258E+03  0.31566252603E+03  0.30000000000E+02 0.  1.
    -200000    1    3    3    0    0  0.53110475475E+03 -0.33971905159E+03  0.93659611257E+03  0.12347848285E+04  0.50000000000E+03 0. -1.
<mgrwt>
<rscale>  0 0.37044539E+04</rscale>
<asrwt>0</asrwt>
<pdfrwt beam="1">  1        2 0.30193237E+00 0.37044539E+04</pdfrwt>
<pdfrwt beam="2">  1       -2 0.23189032E+00 0.37044539E+04</pdfrwt>
<totfact> 0.47630841E-01</totfact>
</mgrwt>
</event>
<event>
 8    2  0.2588871E-009  0.1499287E+04  0.7818608E-02  0.8884927E-01
         -2   -1    0    0    0  501 -0.00000000000E+00  0.00000000000E+00  0.66742696411E+03  0.66742696411E+03  0.25500000000E-02 0. -1.
          2   -1    0    0  501    0  0.00000000000E+00 -0.00000000000E+00 -0.84198738321E+03  0.84198738321E+03  0.25500000000E-02 0.  1.
    -200001    2    1    2    0    0 -0.16401712359E+03  0.12241394770E+03  0.86642813922E+02  0.73474414630E+03  0.70032506159E+03 0.  0.
   -5000001    2    3    3    0    0  0.20305648364E+02 -0.13549099797E+02 -0.86081665234E+02  0.15829416560E+03  0.13057983119E+03 0.  0.
     200001    1    1    2    0    0  0.16401712359E+03 -0.12241394770E+03 -0.26120323302E+03  0.77467020103E+03  0.70000000000E+03 0.  1.
         11    1    4    4    0    0 -0.33627068884E+02 -0.39328613022E+02 -0.74049798382E+02  0.90337656626E+02  0.51100000000E-03 0.  1.
    -200002    1    4    4    0    0  0.53932717249E+02  0.25779513225E+02 -0.12031866852E+02  0.67956508974E+02  0.30000000000E+02 0.  1.
    -200000    1    3    3    0    0 -0.18432277196E+03  0.13596304749E+03  0.17272447916E+03  0.57644998070E+03  0.50000000000E+03 0. -1.
<mgrwt>
<rscale>  0 0.14992866E+04</rscale>
<asrwt>0</asrwt>
<pdfrwt beam="1">  1        2 0.12028391E+00 0.14992866E+04</pdfrwt>
<pdfrwt beam="2">  1       -2 0.95346710E-01 0.14992866E+04</pdfrwt>
<totfact> 0.31814224E+01</totfact>
</mgrwt>
</event>
<event>
 8    2  0.2588871E-009  0.1454285E+04  0.7818608E-02  0.8915435E-01
          2   -1    0    0  501    0  0.00000000000E+00  0.00000000000E+00  0.24926939659E+04  0.24926939659E+04  0.25500000000E-02 0.  1.
         -2   -1    0    0    0  501 -0.00000000000E+00 -0.00000000000E+00 -0.21211432626E+03  0.21211432627E+03  0.25500000000E-02 0. -1.
    -200001    2    1    2    0    0 -0.10866688324E+03  0.73331226022E+02  0.86105813877E+03  0.11166561421E+04  0.69879457726E+03 0.  0.
   -5000001    2    3    3    0    0 -0.26473598339E+02  0.16703744240E+03  0.26699366338E+03  0.33024073538E+03  0.95765173429E+02 0.  0.
     200001    1    1    2    0    0  0.10866688324E+03 -0.73331226022E+02  0.14195215009E+04  0.15881521500E+04  0.70000000000E+03 0.  1.
         11    1    4    4    0    0  0.26286092944E+02  0.69283875070E+02  0.14316118383E+03  0.16120278714E+03  0.51100000000E-03 0.  1.
    -200002    1    4    4    0    0 -0.52759691283E+02  0.97753567332E+02  0.12383247955E+03  0.16903794823E+03  0.30000000000E+02 0.  1.
    -200000    1    3    3    0    0 -0.82193284905E+02 -0.93706216381E+02  0.59406447539E+03  0.78641540676E+03  0.50000000000E+03 0. -1.
<mgrwt>
<rscale>  0 0.14542848E+04</rscale>
<asrwt>0</asrwt>
<pdfrwt beam="1">  1        2 0.35609910E+00 0.14542848E+04</pdfrwt>
<pdfrwt beam="2">  1       -2 0.30302050E-01 0.14542848E+04</pdfrwt>
<totfact> 0.43525782E+01</totfact>
</mgrwt>
</event>
<event>
 8    2  0.2588871E-009  0.1929915E+04  0.7818608E-02  0.8640107E-01
         -2   -1    0    0    0  501 -0.00000000000E+00  0.00000000000E+00  0.48287982544E+03  0.48287982544E+03  0.25500000000E-02 0. -1.
          2   -1    0    0  501    0  0.00000000000E+00 -0.00000000000E+00 -0.19283129496E+04  0.19283129496E+04  0.25500000000E-02 0.  1.
    -200001    2    1    2    0    0 -0.54591115847E+03  0.23389056383E+03 -0.10934785224E+04  0.14280367190E+04  0.70062101256E+03 0.  0.
   -5000001    2    3    3    0    0 -0.10281536001E+02 -0.29580387489E+02 -0.22938760986E+03  0.26486470264E+03  0.12866206060E+03 0.  0.
     200001    1    1    2    0    0  0.54591115847E+03 -0.23389056383E+03 -0.35195460183E+03  0.98315605604E+03  0.70000000000E+03 0. -1.
         11    1    4    4    0    0  0.47365267999E+02  0.16471632979E+02 -0.64083272956E+02  0.81372287534E+02  0.51100000000E-03 0.  1.
    -200002    1    4    4    0    0 -0.57646804000E+02 -0.46052020468E+02 -0.16530433691E+03  0.18349241510E+03  0.30000000000E+02 0.  1.
    -200000    1    3    3    0    0 -0.53562962247E+03  0.26347095132E+03 -0.86409091252E+03  0.11631720164E+04  0.50000000000E+03 0.  1.
<mgrwt>
<rscale>  0 0.19299155E+04</rscale>
<asrwt>0</asrwt>
<pdfrwt beam="1">  1        2 0.27547327E+00 0.19299155E+04</pdfrwt>
<pdfrwt beam="2">  1       -2 0.68982833E-01 0.19299155E+04</pdfrwt>
<totfact> 0.15719076E+01</totfact>
</mgrwt>
</event>
<event>
 8    2  0.2588871E-009  0.1719528E+04  0.7818608E-02  0.8750304E-01
          2   -1    0    0  501    0  0.00000000000E+00  0.00000000000E+00  0.20283196108E+04  0.20283196108E+04  0.25500000000E-02 0.  1.
         -2   -1    0    0    0  501 -0.00000000000E+00 -0.00000000000E+00 -0.36443677937E+03  0.36443677938E+03  0.25500000000E-02 0. -1.
    -200001    2    1    2    0    0 -0.46229886177E+03  0.16115699730E+03  0.96780482826E+03  0.12908415106E+04  0.69995271592E+03 0.  0.
   -5000001    2    3    3    0    0 -0.14949434821E+03  0.38028405929E+02  0.34887940880E+03  0.42708460697E+03  0.19206691496E+03 0.  0.
     200001    1    1    2    0    0  0.46229886177E+03 -0.16115699730E+03  0.69607800319E+03  0.11019148796E+04  0.70000000000E+03 0.  1.
         11    1    4    4    0    0 -0.99049900516E+02  0.11350073241E+03  0.20770773618E+03  0.25658488405E+03  0.51100000000E-03 0.  1.
    -200002    1    4    4    0    0 -0.50444447696E+02 -0.75472326485E+02  0.14117167262E+03  0.17049972293E+03  0.30000000000E+02 0.  1.
    -200000    1    3    3    0    0 -0.31280451356E+03  0.12312859137E+03  0.61892541946E+03  0.86375690363E+03  0.50000000000E+03 0. -1.
<mgrwt>
<rscale>  0 0.17195282E+04</rscale>
<asrwt>0</asrwt>
<pdfrwt beam="1">  1        2 0.28975995E+00 0.17195282E+04</pdfrwt>
<pdfrwt beam="2">  1       -2 0.52062397E-01 0.17195282E+04</pdfrwt>
<totfact> 0.25734479E+01</totfact>
</mgrwt>
</event>
<event>
 8    2  0.2588871E-009  0.1776852E+04  0.7818608E-02  0.8718707E-01
         -2   -1    0    0    0  501 -0.00000000000E+00  0.00000000000E+00  0.22082101511E+03  0.22082101513E+03  0.25500000000E-02 0. -1.
          2   -1    0    0  501    0  0.00000000000E+00 -0.00000000000E+00 -0.35743907795E+04  0.35743907795E+04  0.25500000000E-02 0.  1.
    -200001    2    1    2    0    0 -0.48590850564E+03 -0.23516334361E+03 -0.14914895099E+04  0.17339617496E+04  0.70048091828E+03 0.  0.
   -5000001    2    3    3    0    0 -0.10686522176E+03 -0.41069714091E+02 -0.48437193287E+03  0.53161738875E+03  0.18679930844E+03 0.  0.
     200001    1    1    2    0    0  0.48590850564E+03  0.23516334361E+03 -0.18620802545E+04  0.20612500451E+04  0.70000000000E+03 0.  1.
         11    1    4    4    0    0 -0.10082529984E+01 -0.95228305385E+02 -0.23990972670E+03  0.25812036666E+03  0.51100000000E-03 0.  1.
    -200002    1    4    4    0    0 -0.10585696876E+03  0.54158591295E+02 -0.24446220618E+03  0.27349702209E+03  0.30000000000E+02 0.  1.
    -200000    1    3    3    0    0 -0.37904328388E+03 -0.19409362952E+03 -0.10071175770E+04  0.12023443608E+04  0.50000000000E+03 0.  1.
<mgrwt>
<rscale>  0 0.17768518E+04</rscale>
<asrwt>0</asrwt>
<pdfrwt beam="1">  1        2 0.51062722E+00 0.17768518E+04</pdfrwt>
<pdfrwt beam="2">  1       -2 0.31545862E-01 0.17768518E+04</pdfrwt>
<totfact> 0.96301395E+00</totfact>
</mgrwt>
</event>
<event>
 8    2  0.2588871E-009  0.1414247E+04  0.7818608E-02  0.8943570E-01
          2   -1    0    0  501    0  0.00000000000E+00  0.00000000000E+00  0.21495297233E+04  0.21495297233E+04  0.25500000000E-02 0.  1.
         -2   -1    0    0    0  501 -0.00000000000E+00 -0.00000000000E+00 -0.23262006187E+03  0.23262006189E+03  0.25500000000E-02 0. -1.
    -200001    2    1    2    0    0 -0.93027611105E+02 -0.11894746619E+02  0.10140515883E+04  0.12358739364E+04  0.70020578501E+03 0.  0.
   -5000001    2    3    3    0    0 -0.40383579275E+02 -0.11723342356E+03  0.21900015250E+03  0.28931468488E+03  0.14271443873E+03 0.  0.
     200001    1    1    2    0    0  0.93027611105E+02  0.11894746619E+02  0.90285807307E+03  0.11462758488E+04  0.70000000000E+03 0. -1.
         11    1    4    4    0    0 -0.21445614485E+02  0.29461428259E+02  0.59148270362E+02  0.69472354377E+02  0.51100000000E-03 0.  1.
    -200002    1    4    4    0    0 -0.18937964790E+02 -0.14669485182E+03  0.15985188214E+03  0.21984233051E+03  0.30000000000E+02 0.  1.
    -200000    1    3    3    0    0 -0.52644031830E+02  0.10533867694E+03  0.79505143584E+03  0.94655925149E+03  0.50000000000E+03 0.  1.
<mgrwt>
<rscale>  0 0.14142471E+04</rscale>
<asrwt>0</asrwt>
<pdfrwt beam="1">  1        2 0.30707567E+00 0.14142471E+04</pdfrwt>
<pdfrwt beam="2">  1       -2 0.33231438E-01 0.14142471E+04</pdfrwt>
<totfact> 0.55313088E+01</totfact>
</mgrwt>
</event>
<event>
 8    2  0.2588871E-009  0.2036212E+04  0.7818608E-02  0.8589875E-01
          2   -1    0    0  501    0  0.00000000000E+00  0.00000000000E+00  0.23623399536E+04  0.23623399536E+04  0.25500000000E-02 0.  1.
         -2   -1    0    0    0  501 -0.00000000000E+00 -0.00000000000E+00 -0.43877669179E+03  0.43877669180E+03  0.25500000000E-02 0. -1.
    -200001    2    1    2    0    0  0.77951117962E+02  0.68527833218E+03  0.59752811833E+03  0.11506464181E+04  0.70090267372E+03 0.  0.
   -5000001    2    3    3    0    0  0.13011259042E+03  0.19885483480E+03  0.17411300436E+03  0.33296127289E+03  0.15516230034E+03 0.  0.
     200001    1    1    2    0    0 -0.77951117962E+02 -0.68527833218E+03  0.13260351435E+04  0.16504702272E+04  0.70000000000E+03 0.  1.
         11    1    4    4    0    0  0.56658590873E+02  0.17649747318E+03  0.16821700176E+03  0.25031682652E+03  0.51100000000E-03 0.  1.
    -200002    1    4    4    0    0  0.73453999550E+02  0.22357361617E+02  0.58960025977E+01  0.82644446366E+02  0.30000000000E+02 0.  1.
    -200000    1    3    3    0    0 -0.52161472461E+02  0.48642349738E+03  0.42341511398E+03  0.81768514524E+03  0.50000000000E+03 0. -1.
<mgrwt>
<rscale>  0 0.20362119E+04</rscale>
<asrwt>0</asrwt>
<pdfrwt beam="1">  1        2 0.33747713E+00 0.20362119E+04</pdfrwt>
<pdfrwt beam="2">  1       -2 0.62682386E-01 0.20362119E+04</pdfrwt>
<totfact> 0.11425605E+01</totfact>
</mgrwt>
</event>
<event>
 8    2  0.2588871E-009  0.1558251E+04  0.7818608E-02  0.8846615E-01
         -2   -1    0    0    0  501 -0.00000000000E+00  0.00000000000E+00  0.12302482904E+04  0.12302482904E+04  0.25500000000E-02 0. -1.
          2   -1    0    0  501    0  0.00000000000E+00 -0.00000000000E+00 -0.49342574426E+03  0.49342574427E+03  0.25500000000E-02 0.  1.
    -200001    2    1    2    0    0  0.49751750961E+02  0.32427534084E+03  0.48008319059E+03  0.90909142373E+03  0.69881157217E+03 0.  0.
   -5000001    2    3    3    0    0 -0.36681005115E+02  0.16490308205E+03  0.13516685353E+03  0.27518494974E+03  0.17005339062E+03 0.  0.
     200001    1    1    2    0    0 -0.49751750961E+02 -0.32427534084E+03  0.25673935557E+03  0.81458261097E+03  0.70000000000E+03 0.  1.
         11    1    4    4    0    0  0.19422496067E+02  0.15124106023E+01 -0.29033977267E+02  0.34964161301E+02  0.51100000000E-03 0.  1.
    -200002    1    4    4    0    0 -0.56103501182E+02  0.16339067144E+03  0.16420083080E+03  0.24022078843E+03  0.30000000000E+02 0.  1.
    -200000    1    3    3    0    0  0.86432756076E+02  0.15937225879E+03  0.34491633706E+03  0.63390647399E+03  0.50000000000E+03 0.  1.
<mgrwt>
<rscale>  0 0.15582505E+04</rscale>
<asrwt>0</asrwt>
<pdfrwt beam="1">  1        2 0.70489393E-01 0.15582505E+04</pdfrwt>
<pdfrwt beam="2">  1       -2 0.17574975E+00 0.15582505E+04</pdfrwt>
<totfact> 0.12744631E+01</totfact>
</mgrwt>
</event>
<event>
 8    2  0.2588871E-009  0.2408973E+04  0.7818608E-02  0.8436152E-01
          2   -1    0    0  501    0  0.00000000000E+00  0.00000000000E+00  0.10921523676E+04  0.10921523676E+04  0.25500000000E-02 0.  1.
         -2   -1    0    0    0  501 -0.00000000000E+00 -0.00000000000E+00 -0.13283744617E+04  0.13283744617E+04  0.25500000000E-02 0. -1.
    -200001    2    1    2    0    0 -0.45401974106E+03  0.86875223370E+03 -0.13187766576E+03  0.12114974134E+04  0.69962125116E+03 0.  0.
   -5000001    2    3    3    0    0 -0.32131872686E+02  0.11619786948E+03 -0.24041697445E+02  0.20852381420E+03  0.16843329765E+03 0.  0.
     200001    1    1    2    0    0  0.45401974106E+03 -0.86875223370E+03 -0.10434442835E+03  0.12090294159E+04  0.70000000000E+03 0. -1.
         11    1    4    4    0    0 -0.49380333739E+02  0.28757745303E+02  0.59672965626E+02  0.82621353789E+02  0.51100000000E-03 0.  1.
    -200002    1    4    4    0    0  0.17248461053E+02  0.87440124177E+02 -0.83714663070E+02  0.12590246041E+03  0.30000000000E+02 0.  1.
    -200000    1    3    3    0    0 -0.42188786837E+03  0.75255436422E+03 -0.10783596831E+03  0.10029735992E+04  0.50000000000E+03 0.  1.
<mgrwt>
<rscale>  0 0.24089727E+04</rscale>
<asrwt>0</asrwt>
<pdfrwt beam="1">  1        2 0.15602177E+00 0.24089727E+04</pdfrwt>
<pdfrwt beam="2">  1       -2 0.18976778E+00 0.24089727E+04</pdfrwt>
<totfact> 0.34696197E+00</totfact>
</mgrwt>
</event>
<event>
 8    2  0.2588871E-009  0.2184597E+04  0.7818608E-02  0.8524867E-01
          2   -1    0    0  501    0  0.00000000000E+00  0.00000000000E+00  0.33405599174E+04  0.33405599174E+04  0.25500000000E-02 0.  1.
         -2   -1    0    0    0  501 -0.00000000000E+00 -0.00000000000E+00 -0.35716054085E+03  0.35716054086E+03  0.25500000000E-02 0. -1.
    -200001    2    1    2    0    0  0.80252041359E+02  0.82692851795E+03  0.13034841167E+04  0.16971289347E+04  0.70066012769E+03 0.  0.
   -5000001    2    3    3    0    0  0.14072415566E+03  0.18680963969E+03  0.37588879760E+03  0.46268892767E+03  0.13448987382E+03 0.  0.
     200001    1    1    2    0    0 -0.80252041359E+02 -0.82692851795E+03  0.16799152598E+04  0.20005915236E+04  0.70000000000E+03 0.  1.
         11    1    4    4    0    0  0.14932277553E+03  0.13204983583E+03  0.32681609973E+03  0.38280963086E+03  0.51100000000E-03 0.  1.
    -200002    1    4    4    0    0 -0.85986198749E+01  0.54759803864E+02  0.49072697871E+02  0.79879296813E+02  0.30000000000E+02 0.  1.
    -200000    1    3    3    0    0 -0.60472114299E+02  0.64011887826E+03  0.92759531911E+03  0.12344400070E+04  0.50000000000E+03 0.  1.
<mgrwt>
<rscale>  0 0.21845972E+04</rscale>
<asrwt>0</asrwt>
<pdfrwt beam="1">  1        2 0.47722286E+00 0.21845972E+04</pdfrwt>
<pdfrwt beam="2">  1       -2 0.51022932E-01 0.21845972E+04</pdfrwt>
<totfact> 0.50122975E+00</totfact>
</mgrwt>
</event>
<event>
 8    2  0.2588871E-009  0.1561913E+04  0.7818608E-02  0.8844294E-01
          2   -1    0    0  501    0  0.00000000000E+00  0.00000000000E+00  0.13683504421E+04  0.13683504421E+04  0.25500000000E-02 0.  1.
         -2   -1    0    0    0  501 -0.00000000000E+00 -0.00000000000E+00 -0.44571425755E+03  0.44571425755E+03  0.25500000000E-02 0. -1.
    -200001    2    1    2    0    0 -0.32842279998E+03 -0.10269279694E+03  0.41709996258E+03  0.88456256528E+03  0.70005086032E+03 0.  0.
   -5000001    2    3    3    0    0 -0.61078311285E+02 -0.19103171855E+00  0.19600591175E+03  0.26742217054E+03  0.17136424147E+03 0.  0.
     200001    1    1    2    0    0  0.32842279998E+03  0.10269279694E+03  0.50553622200E+03  0.92950213439E+03  0.70000000000E+03 0.  1.
         11    1    4    4    0    0 -0.23360075073E+02  0.70714851576E+02  0.29429097728E+02  0.80077182357E+02  0.51100000000E-03 0.  1.
    -200002    1    4    4    0    0 -0.37718236212E+02 -0.70905883295E+02  0.16657681402E+03  0.18734498819E+03  0.30000000000E+02 0.  1.
    -200000    1    3    3    0    0 -0.26734448870E+03 -0.10250176522E+03  0.22109405083E+03  0.61714039474E+03  0.50000000000E+03 0. -1.
<mgrwt>
<rscale>  0 0.15619133E+04</rscale>
<asrwt>0</asrwt>
<pdfrwt beam="1">  1        2 0.19547864E+00 0.15619133E+04</pdfrwt>
<pdfrwt beam="2">  1       -2 0.63673464E-01 0.15619133E+04</pdfrwt>
<totfact> 0.37852146E+01</totfact>
</mgrwt>
</event>
<event>
 8    2  0.2588871E-009  0.1458267E+04  0.7818608E-02  0.8912689E-01
          2   -1    0    0  501    0  0.00000000000E+00  0.00000000000E+00  0.11672952302E+04  0.11672952302E+04  0.25500000000E-02 0.  1.
         -2   -1    0    0    0  501 -0.00000000000E+00 -0.00000000000E+00 -0.45544222734E+03  0.45544222735E+03  0.25500000000E-02 0. -1.
    -200001    2    1    2    0    0 -0.66931310047E+01  0.88433626944E+02  0.16658480348E+03  0.73100727772E+03  0.70622647851E+03 0.  0.
   -5000001    2    3    3    0    0 -0.18749336323E+02 -0.11325722897E+02  0.11475030719E+03  0.21838256609E+03  0.18450881431E+03 0.  0.
     200001    1    1    2    0    0  0.66931310047E+01 -0.88433626944E+02  0.54526819938E+03  0.89173017983E+03  0.70000000000E+03 0.  1.
         11    1    4    4    0    0 -0.90738593509E+02  0.19195162965E+02  0.94101519942E+02  0.13212510242E+03  0.51100000000E-03 0.  1.
    -200002    1    4    4    0    0  0.71989257186E+02 -0.30520885861E+02  0.20648787248E+02  0.86257463670E+02  0.30000000000E+02 0.  1.
    -200000    1    3    3    0    0  0.12056205318E+02  0.99759349841E+02  0.51834496290E+02  0.51262471163E+03  0.50000000000E+03 0. -1.
<mgrwt>
<rscale>  0 0.14582668E+04</rscale>
<asrwt>0</asrwt>
<pdfrwt beam="1">  1        2 0.16675646E+00 0.14582668E+04</pdfrwt>
<pdfrwt beam="2">  1       -2 0.65063177E-01 0.14582668E+04</pdfrwt>
<totfact> 0.47193379E+01</totfact>
</mgrwt>
</event>
<event>
 8    2  0.2588871E-009  0.2714771E+04  0.7818608E-02  0.8330228E-01
          2   -1    0    0  501    0  0.00000000000E+00  0.00000000000E+00  0.33056431737E+04  0.33056431737E+04  0.25500000000E-02 0. -1.
         -2   -1    0    0    0  501 -0.00000000000E+00 -0.00000000000E+00 -0.55737883458E+03  0.55737883459E+03  0.25500000000E-02 0.  1.
    -200001    2    1    2    0    0  0.14548396604E+03  0.37503603488E+03 -0.17809557318E+03  0.82733428586E+03  0.70067565645E+03 0.  0.
   -5000001    2    3    3    0    0 -0.55507390535E+00  0.15037507011E+03 -0.94425907626E+01  0.23552031276E+03  0.18101846698E+03 0.  0.
     200001    1    1    2    0    0 -0.14548396604E+03 -0.37503603488E+03  0.29263599122E+04  0.30356877224E+04  0.70000000000E+03 0. -1.
         11    1    4    4    0    0  0.20927012646E+02  0.56249036004E+02 -0.88672631261E+02  0.10707347685E+03  0.51100000000E-03 0.  1.
    -200002    1    4    4    0    0 -0.21482086551E+02  0.94126034101E+02  0.79230040498E+02  0.12844683591E+03  0.30000000000E+02 0.  1.
    -200000    1    3    3    0    0  0.14603903994E+03  0.22466096477E+03 -0.16865298241E+03  0.59181397310E+03  0.50000000000E+03 0.  1.
<mgrwt>
<rscale>  0 0.27147711E+04</rscale>
<asrwt>0</asrwt>
<pdfrwt beam="1">  1        2 0.47223473E+00 0.27147711E+04</pdfrwt>
<pdfrwt beam="2">  1       -2 0.79625549E-01 0.27147711E+04</pdfrwt>
<totfact> 0.19366750E+00</totfact>
</mgrwt>
</event>
<event>
 8    2  0.2588871E-009  0.1604321E+04  0.7818608E-02  0.8817898E-01
          2   -1    0    0  501    0  0.00000000000E+00  0.00000000000E+00  0.87027561090E+03  0.87027561091E+03  0.25500000000E-02 0.  1.
         -2   -1    0    0    0  501 -0.00000000000E+00 -0.00000000000E+00 -0.73937710834E+03  0.73937710834E+03  0.25500000000E-02 0. -1.
    -200001    2    1    2    0    0 -0.31725962290E+03  0.20283353379E+03  0.17549692222E+03  0.81354711709E+03  0.69947453940E+03 0.  0.
   -5000001    2    3    3    0    0 -0.12723998319E+02  0.14321041572E+02 -0.38485299432E+02  0.16234261961E+03  0.15654716703E+03 0.  0.
     200001    1    1    2    0    0  0.31725962290E+03 -0.20283353379E+03 -0.44598419655E+02  0.79610560216E+03  0.70000000000E+03 0. -1.
         11    1    4    4    0    0  0.12577195288E+02 -0.52241512138E+02 -0.61548002407E+02  0.81703843437E+02  0.51100000000E-03 0.  1.
    -200002    1    4    4    0    0 -0.25301193608E+02  0.66562553711E+02  0.23062702975E+02  0.80638776175E+02  0.30000000000E+02 0.  1.
    -200000    1    3    3    0    0 -0.30453562458E+03  0.18851249221E+03  0.21398222165E+03  0.65120449748E+03  0.50000000000E+03 0.  1.
<mgrwt>
<rscale>  0 0.16043215E+04</rscale>
<asrwt>0</asrwt>
<pdfrwt beam="1">  1        2 0.12432509E+00 0.16043215E+04</pdfrwt>
<pdfrwt beam="2">  1       -2 0.10562530E+00 0.16043215E+04</pdfrwt>
<totfact> 0.23695055E+01</totfact>
</mgrwt>
</event>
<event>
 8    2  0.2588871E-009  0.1448717E+04  0.7818608E-02  0.8919290E-01
          2   -1    0    0  501    0  0.00000000000E+00  0.00000000000E+00  0.11613517368E+04  0.11613517368E+04  0.25500000000E-02 0.  1.
         -2   -1    0    0    0  501 -0.00000000000E+00 -0.00000000000E+00 -0.45179725943E+03  0.45179725944E+03  0.25500000000E-02 0. -1.
    -200001    2    1    2    0    0 -0.16119155948E+03  0.28066671833E+02  0.45228735763E+03  0.84963290093E+03  0.70038686135E+03 0.  0.
   -5000001    2    3    3    0    0 -0.10578658610E+03  0.50503015362E+02  0.12352183542E+03  0.24825126737E+03  0.18063690533E+03 0.  0.
     200001    1    1    2    0    0  0.16119155948E+03 -0.28066671833E+02  0.25726711976E+03  0.76351609533E+03  0.70000000000E+03 0.  1.
         11    1    4    4    0    0  0.31464328688E+02 -0.18794295651E+02 -0.14553398233E+02  0.39433880474E+02  0.51100000000E-03 0.  1.
    -200002    1    4    4    0    0 -0.13725091479E+03  0.69297311013E+02  0.13807523365E+03  0.20881738690E+03  0.30000000000E+02 0.  1.
    -200000    1    3    3    0    0 -0.55404973385E+02 -0.22436343529E+02  0.32876552221E+03  0.60138163356E+03  0.50000000000E+03 0.  1.
<mgrwt>
<rscale>  0 0.14487174E+04</rscale>
<asrwt>0</asrwt>
<pdfrwt beam="1">  1        2 0.16590739E+00 0.14487174E+04</pdfrwt>
<pdfrwt beam="2">  1       -2 0.64542467E-01 0.14487174E+04</pdfrwt>
<totfact> 0.48429329E+01</totfact>
</mgrwt>
</event>
<event>
 8    2  0.2588871E-009  0.2333436E+04  0.7818608E-02  0.8464853E-01
         -2   -1    0    0    0  501 -0.00000000000E+00  0.00000000000E+00  0.71280348390E+03  0.71280348390E+03  0.25500000000E-02 0. -1.
          2   -1    0    0  501    0  0.00000000000E+00 -0.00000000000E+00 -0.19096862683E+04  0.19096862683E+04  0.25500000000E-02 0.  1.
    -200001    2    1    2    0    0  0.68320521023E+03  0.15702284406E+03  0.94350929651E+02  0.99500394977E+03  0.69978941782E+03 0.  0.
   -5000001    2    3    3    0    0  0.23308817508E+03  0.87884660480E+02  0.29222075638E+02  0.31557242166E+03  0.19151556777E+03 0.  0.
     200001    1    1    2    0    0 -0.68320521023E+03 -0.15702284406E+03 -0.12912337140E+04  0.16274858024E+04  0.70000000000E+03 0.  1.
         11    1    4    4    0    0  0.13224643227E+03  0.11516053985E+03  0.83340574039E+02  0.19415643195E+03  0.51100000000E-03 0.  1.
    -200002    1    4    4    0    0  0.10084174282E+03 -0.27275879367E+02 -0.54118498401E+02  0.12141598972E+03  0.30000000000E+02 0.  1.
    -200000    1    3    3    0    0  0.45011703515E+03  0.69138183578E+02  0.65128854013E+02  0.67943152811E+03  0.50000000000E+03 0.  1.
<mgrwt>
<rscale>  0 0.23334361E+04</rscale>
<asrwt>0</asrwt>
<pdfrwt beam="1">  1        2 0.27281232E+00 0.23334361E+04</pdfrwt>
<pdfrwt beam="2">  1       -2 0.10182907E+00 0.23334361E+04</pdfrwt>
<totfact> 0.64228751E+00</totfact>
</mgrwt>
</event>
<event>
 8    2  0.2588871E-009  0.1458880E+04  0.7818608E-02  0.8912267E-01
          2   -1    0    0  501    0  0.00000000000E+00  0.00000000000E+00  0.13490001115E+04  0.13490001115E+04  0.25500000000E-02 0.  1.
         -2   -1    0    0    0  501 -0.00000000000E+00 -0.00000000000E+00 -0.39442752199E+03  0.39442752200E+03  0.25500000000E-02 0. -1.
    -200001    2    1    2    0    0  0.41422431563E+02  0.70441538192E+02  0.25207176523E+03  0.74834711602E+03  0.69986098840E+03 0.  0.
   -5000001    2    3    3    0    0  0.29548611463E+02 -0.31318030760E+02  0.70055474415E+01  0.18217271835E+03  0.17687250246E+03 0.  0.
     200001    1    1    2    0    0 -0.41422431563E+02 -0.70441538192E+02  0.70250082423E+03  0.99508051744E+03  0.70000000000E+03 0.  1.
         11    1    4    4    0    0 -0.51638142965E+02 -0.25486691497E+02 -0.51731560682E+02  0.77409454353E+02  0.51100000000E-03 0.  1.
    -200002    1    4    4    0    0  0.81186754428E+02 -0.58313392631E+01  0.58737108124E+02  0.10476326400E+03  0.30000000000E+02 0.  1.
    -200000    1    3    3    0    0  0.11873820100E+02  0.10175956895E+03  0.24506621779E+03  0.56617439767E+03  0.50000000000E+03 0.  1.
<mgrwt>
<rscale>  0 0.14588801E+04</rscale>
<asrwt>0</asrwt>
<pdfrwt beam="1">  1        2 0.19271430E+00 0.14588801E+04</pdfrwt>
<pdfrwt beam="2">  1       -2 0.56346789E-01 0.14588801E+04</pdfrwt>
<totfact> 0.50598411E+01</totfact>
</mgrwt>
</event>
<event>
 8    2  0.2588871E-009  0.1584713E+04  0.7818608E-02  0.8829995E-01
          2   -1    0    0  501    0  0.00000000000E+00  0.00000000000E+00  0.89826647860E+03  0.89826647860E+03  0.25500000000E-02 0.  1.
         -2   -1    0    0    0  501 -0.00000000000E+00 -0.00000000000E+00 -0.69893346945E+03  0.69893346945E+03  0.25500000000E-02 0. -1.
    -200001    2    1    2    0    0 -0.75614766486E+02 -0.36387537806E+03  0.10836009561E+03  0.79945377623E+03  0.69947233422E+03 0.  0.
   -5000001    2    3    3    0    0 -0.52823946755E+02 -0.46111675534E+02 -0.11470488719E+02  0.19459630455E+03  0.18116151264E+03 0.  0.
     200001    1    1    2    0    0  0.75614766486E+02  0.36387537806E+03  0.90972913536E+02  0.79774617183E+03  0.70000000000E+03 0.  1.
         11    1    4    4    0    0  0.45471460681E+02 -0.64574796519E+02  0.26778348230E+02  0.83394472335E+02  0.51100000000E-03 0.  1.
    -200002    1    4    4    0    0 -0.98295407436E+02  0.18463120985E+02 -0.38248836949E+02  0.11120183221E+03  0.30000000000E+02 0.  1.
    -200000    1    3    3    0    0 -0.22790819731E+02 -0.31776370253E+03  0.11983058433E+03  0.60485747168E+03  0.50000000000E+03 0.  1.
<mgrwt>
<rscale>  0 0.15847126E+04</rscale>
<asrwt>0</asrwt>
<pdfrwt beam="1">  1        2 0.12832378E+00 0.15847126E+04</pdfrwt>
<pdfrwt beam="2">  1       -2 0.99847639E-01 0.15847126E+04</pdfrwt>
<totfact> 0.26012573E+01</totfact>
</mgrwt>
</event>
<event>
 8    2  0.2588871E-009  0.1565974E+04  0.7818608E-02  0.8841729E-01
          2   -1    0    0  501    0  0.00000000000E+00  0.00000000000E+00  0.24692847775E+04  0.24692847775E+04  0.25500000000E-02 0.  1.
         -2   -1    0    0    0  501 -0.00000000000E+00 -0.00000000000E+00 -0.24827780418E+03  0.24827780419E+03  0.25500000000E-02 0. -1.
    -200001    2    1    2    0    0 -0.31558897142E+03  0.15660591944E+03  0.10559810732E+04  0.13134945061E+04  0.69717284638E+03 0.  0.
   -5000001    2    3    3    0    0 -0.19658414174E+03  0.33613208103E+02  0.37500691498E+03  0.45151123441E+03  0.15315689984E+03 0.  0.
     200001    1    1    2    0    0  0.31558897142E+03 -0.15660591944E+03  0.11650259001E+04  0.14040680755E+04  0.70000000000E+03 0.  1.
         11    1    4    4    0    0 -0.26625840600E+02  0.36440029830E+02  0.20253458063E+03  0.20750196990E+03  0.51100000000E-03 0.  1.
    -200002    1    4    4    0    0 -0.16995830114E+03 -0.28268217274E+01  0.17247233435E+03  0.24400926451E+03  0.30000000000E+02 0.  1.
    -200000    1    3    3    0    0 -0.11900482968E+03  0.12299271133E+03  0.68097415820E+03  0.86198327169E+03  0.50000000000E+03 0.  1.
<mgrwt>
<rscale>  0 0.15659739E+04</rscale>
<asrwt>0</asrwt>
<pdfrwt beam="1">  1        2 0.35275498E+00 0.15659739E+04</pdfrwt>
<pdfrwt beam="2">  1       -2 0.35468256E-01 0.15659739E+04</pdfrwt>
<totfact> 0.32946572E+01</totfact>
</mgrwt>
</event>
<event>
 8    2  0.2588871E-009  0.2625062E+04  0.7818608E-02  0.8359738E-01
          2   -1    0    0  501    0  0.00000000000E+00  0.00000000000E+00  0.15575662357E+04  0.15575662357E+04  0.25500000000E-02 0.  1.
         -2   -1    0    0    0  501 -0.00000000000E+00 -0.00000000000E+00 -0.11060446734E+04  0.11060446734E+04  0.25500000000E-02 0. -1.
    -200001    2    1    2    0    0 -0.13515011261E+03 -0.11033492801E+04  0.23528680156E+03  0.13322947715E+04  0.69570417008E+03 0.  0.
   -5000001    2    3    3    0    0  0.86093319149E+01 -0.23078938656E+03  0.61345371619E+02  0.30162355001E+03  0.18405338833E+03 0.  0.
     200001    1    1    2    0    0  0.13515011261E+03  0.11033492801E+04  0.21623476075E+03  0.13313161377E+04  0.70000000000E+03 0. -1.
         11    1    4    4    0    0 -0.40492903658E+02  0.60462253681E+01 -0.18809622818E+02  0.45055898600E+02  0.51100000000E-03 0.  1.
    -200002    1    4    4    0    0  0.49102235572E+02 -0.23683561193E+03  0.80154994437E+02  0.25656765141E+03  0.30000000000E+02 0.  1.
    -200000    1    3    3    0    0 -0.14375944452E+03 -0.87255989352E+03  0.17394142994E+03  0.10306712214E+04  0.50000000000E+03 0.  1.
<mgrwt>
<rscale>  0 0.26250622E+04</rscale>
<asrwt>0</asrwt>
<pdfrwt beam="1">  1        2 0.22250946E+00 0.26250622E+04</pdfrwt>
<pdfrwt beam="2">  1       -2 0.15800638E+00 0.26250622E+04</pdfrwt>
<totfact> 0.31555518E+00</totfact>
</mgrwt>
</event>
<event>
 8    2  0.2588871E-009  0.3008814E+04  0.7818608E-02  0.8241218E-01
          2   -1    0    0  501    0  0.00000000000E+00  0.00000000000E+00  0.18064033190E+04  0.18064033190E+04  0.25500000000E-02 0.  1.
         -2   -1    0    0    0  501 -0.00000000000E+00 -0.00000000000E+00 -0.12528988208E+04  0.12528988208E+04  0.25500000000E-02 0. -1.
    -200001    2    1    2    0    0 -0.16730612774E+03 -0.87319991982E+03 -0.73123665251E+03  0.13472772379E+04  0.69998533796E+03 0.  0.
   -5000001    2    3    3    0    0 -0.72272548936E+02 -0.44755596102E+03 -0.32209175785E+03  0.56778785014E+03  0.11450014286E+03 0.  0.
     200001    1    1    2    0    0  0.16730612774E+03  0.87319991982E+03  0.12847411507E+04  0.17120249019E+04  0.70000000000E+03 0.  1.
         11    1    4    4    0    0 -0.10195740214E+02 -0.27297188307E+03 -0.23721382270E+03  0.36178446587E+03  0.51100000000E-03 0.  1.
    -200002    1    4    4    0    0 -0.62076808721E+02 -0.17458407795E+03 -0.84877935153E+02  0.20600338427E+03  0.30000000000E+02 0.  1.
    -200000    1    3    3    0    0 -0.95033578807E+02 -0.42564395880E+03 -0.40914489465E+03  0.77948938773E+03  0.50000000000E+03 0. -1.
<mgrwt>
<rscale>  0 0.30088141E+04</rscale>
<asrwt>0</asrwt>
<pdfrwt beam="1">  1        2 0.25805761E+00 0.30088141E+04</pdfrwt>
<pdfrwt beam="2">  1       -2 0.17898555E+00 0.30088141E+04</pdfrwt>
<totfact> 0.16050271E+00</totfact>
</mgrwt>
</event>
<event>
 8    2  0.2588871E-009  0.1414298E+04  0.7818608E-02  0.8943534E-01
          2   -1    0    0  501    0  0.00000000000E+00  0.00000000000E+00  0.15827172409E+04  0.15827172409E+04  0.25500000000E-02 0.  1.
         -2   -1    0    0    0  501 -0.00000000000E+00 -0.00000000000E+00 -0.31594992800E+03  0.31594992801E+03  0.25500000000E-02 0. -1.
    -200001    2    1    2    0    0  0.75362615870E+02  0.12339064145E+02  0.54669198971E+03  0.89152256786E+03  0.70007755357E+03 0.  0.
   -5000001    2    3    3    0    0  0.73942026170E+02  0.14644368938E+02  0.57961552353E+02  0.19233391456E+03  0.16718526359E+03 0.  0.
     200001    1    1    2    0    0 -0.75362615870E+02 -0.12339064145E+02  0.72007532323E+03  0.10071446011E+04  0.70000000000E+03 0.  1.
         11    1    4    4    0    0  0.10336330615E+00 -0.20557036097E+02 -0.49729379610E+02  0.53810906085E+02  0.51100000000E-03 0.  1.
    -200002    1    4    4    0    0  0.73838662864E+02  0.35201405035E+02  0.10769093196E+03  0.13852300848E+03  0.30000000000E+02 0.  1.
    -200000    1    3    3    0    0  0.14205897001E+01 -0.23053047920E+01  0.48873043736E+03  0.69918865330E+03  0.50000000000E+03 0.  1.
<mgrwt>
<rscale>  0 0.14142976E+04</rscale>
<asrwt>0</asrwt>
<pdfrwt beam="1">  1        2 0.22610246E+00 0.14142976E+04</pdfrwt>
<pdfrwt beam="2">  1       -2 0.45135704E-01 0.14142976E+04</pdfrwt>
<totfact> 0.59852622E+01</totfact>
</mgrwt>
</event>
<event>
 8    2  0.2588871E-009  0.1834849E+04  0.7818608E-02  0.8687984E-01
          2   -1    0    0  501    0  0.00000000000E+00  0.00000000000E+00  0.95845002363E+03  0.95845002363E+03  0.25500000000E-02 0.  1.
         -2   -1    0    0    0  501 -0.00000000000E+00 -0.00000000000E+00 -0.87815501816E+03  0.87815501816E+03  0.25500000000E-02 0. -1.
    -200001    2    1    2    0    0  0.43144790167E+00 -0.58910578620E+03 -0.26224429086E+02  0.91552295891E+03  0.70032046530E+03 0.  0.
   -5000001    2    3    3    0    0 -0.90841864881E+02 -0.21724837467E+03  0.16180316363E+02  0.28432812799E+03  0.15852943266E+03 0.  0.
     200001    1    1    2    0    0 -0.43144790167E+00  0.58910578620E+03  0.10651943456E+03  0.92108208289E+03  0.70000000000E+03 0.  1.
         11    1    4    4    0    0  0.28329064096E+02 -0.96014288885E+02 -0.32015620936E+02  0.10510128223E+03  0.51100000000E-03 0.  1.
    -200002    1    4    4    0    0 -0.11917092898E+03 -0.12123408578E+03  0.48195937299E+02  0.17922684576E+03  0.30000000000E+02 0.  1.
    -200000    1    3    3    0    0  0.91273312783E+02 -0.37185741153E+03 -0.42404745449E+02  0.63119483091E+03  0.50000000000E+03 0. -1.
<mgrwt>
<rscale>  0 0.18348490E+04</rscale>
<asrwt>0</asrwt>
<pdfrwt beam="1">  1        2 0.13692143E+00 0.18348490E+04</pdfrwt>
<pdfrwt beam="2">  1       -2 0.12545072E+00 0.18348490E+04</pdfrwt>
<totfact> 0.13383036E+01</totfact>
</mgrwt>
</event>
<event>
 8    2  0.2588871E-009  0.2401746E+04  0.7818608E-02  0.8438850E-01
         -2   -1    0    0    0  501 -0.00000000000E+00  0.00000000000E+00  0.11645312439E+04  0.11645312439E+04  0.25500000000E-02 0. -1.
          2   -1    0    0  501    0  0.00000000000E+00 -0.00000000000E+00 -0.12383490645E+04  0.12383490645E+04  0.25500000000E-02 0.  1.
    -200001    2    1    2    0    0 -0.70460190349E+03 -0.13941152562E+03 -0.69797662718E+03  0.12215786400E+04  0.69941660388E+03 0.  0.
   -5000001    2    3    3    0    0 -0.25210236061E+03  0.61149194716E+02 -0.23179805073E+03  0.37759824689E+03  0.14681714985E+03 0.  0.
     200001    1    1    2    0    0  0.70460190349E+03  0.13941152562E+03  0.62415880662E+03  0.11813016684E+04  0.70000000000E+03 0. -1.
         11    1    4    4    0    0 -0.24220872757E+03  0.29491534100E+02 -0.15604496806E+03  0.28962881478E+03  0.51100000000E-03 0.  1.
    -200002    1    4    4    0    0 -0.98936330355E+01  0.31657660616E+02 -0.75753082674E+02  0.87969432106E+02  0.30000000000E+02 0.  1.
    -200000    1    3    3    0    0 -0.45249954288E+03 -0.20056072034E+03 -0.46617857645E+03  0.84398039313E+03  0.50000000000E+03 0.  1.
<mgrwt>
<rscale>  0 0.24017462E+04</rscale>
<asrwt>0</asrwt>
<pdfrwt beam="1">  1        2 0.17690701E+00 0.24017462E+04</pdfrwt>
<pdfrwt beam="2">  1       -2 0.16636161E+00 0.24017462E+04</pdfrwt>
<totfact> 0.41587598E+00</totfact>
</mgrwt>
</event>
<event>
 8    2  0.2588871E-009  0.2246702E+04  0.7818608E-02  0.8499237E-01
          2   -1    0    0  501    0  0.00000000000E+00  0.00000000000E+00  0.25523534919E+04  0.25523534919E+04  0.25500000000E-02 0.  1.
         -2   -1    0    0    0  501 -0.00000000000E+00 -0.00000000000E+00 -0.49441327549E+03  0.49441327550E+03  0.25500000000E-02 0. -1.
    -200001    2    1    2    0    0 -0.59292602429E+03 -0.28816016527E+03  0.24106167799E+03  0.99112935422E+03  0.69973503061E+03 0.  0.
   -5000001    2    3    3    0    0 -0.13983436997E+03 -0.77159147058E+02  0.57962300748E+02  0.26082882783E+03  0.19790114734E+03 0.  0.
     200001    1    1    2    0    0  0.59292602429E+03  0.28816016527E+03  0.18168785384E+04  0.20556374132E+04  0.70000000000E+03 0.  1.
         11    1    4    4    0    0 -0.72243436296E+02 -0.10069994045E+03  0.11136936918E+03  0.16662151268E+03  0.51100000000E-03 0.  1.
    -200002    1    4    4    0    0 -0.67590933674E+02  0.23540793397E+02 -0.53407068434E+02  0.94207315148E+02  0.30000000000E+02 0.  1.
    -200000    1    3    3    0    0 -0.45309165432E+03 -0.21100101821E+03  0.18309937725E+03  0.73030052639E+03  0.50000000000E+03 0. -1.
<mgrwt>
<rscale>  0 0.22467020E+04</rscale>
<asrwt>0</asrwt>
<pdfrwt beam="1">  1        2 0.36462193E+00 0.22467020E+04</pdfrwt>
<pdfrwt beam="2">  1       -2 0.70630467E-01 0.22467020E+04</pdfrwt>
<totfact> 0.68945320E+00</totfact>
</mgrwt>
</event>
<event>
 8    2  0.2588871E-009  0.1465879E+04  0.7818608E-02  0.8907465E-01
          2   -1    0    0  501    0  0.00000000000E+00  0.00000000000E+00  0.23441242585E+04  0.23441242585E+04  0.25500000000E-02 0.  1.
         -2   -1    0    0    0  501 -0.00000000000E+00 -0.00000000000E+00 -0.22916902320E+03  0.22916902322E+03  0.25500000000E-02 0. -1.
    -200001    2    1    2    0    0 -0.13502514506E+03  0.50749818382E+02  0.13412619234E+04  0.15200085743E+04  0.70045355672E+03 0.  0.
   -5000001    2    3    3    0    0 -0.18544278303E+01  0.95762580338E+02  0.43905929528E+03  0.47898495751E+03  0.16576976218E+03 0.  0.
     200001    1    1    2    0    0  0.13502514506E+03 -0.50749818382E+02  0.77369331192E+03  0.10532847074E+04  0.70000000000E+03 0. -1.
         11    1    4    4    0    0  0.66127179164E+02  0.67181826616E+02  0.33471945213E+03  0.34774029575E+03  0.51100000000E-03 0.  1.
    -200002    1    4    4    0    0 -0.67981606994E+02  0.28580753722E+02  0.10433984315E+03  0.13124466176E+03  0.30000000000E+02 0.  1.
    -200000    1    3    3    0    0 -0.13317071723E+03 -0.45012761956E+02  0.90220262808E+03  0.10410236168E+04  0.50000000000E+03 0.  1.
<mgrwt>
<rscale>  0 0.14658795E+04</rscale>
<asrwt>0</asrwt>
<pdfrwt beam="1">  1        2 0.33487488E+00 0.14658795E+04</pdfrwt>
<pdfrwt beam="2">  1       -2 0.32738433E-01 0.14658795E+04</pdfrwt>
<totfact> 0.44957555E+01</totfact>
</mgrwt>
</event>
<event>
 8    2  0.2588871E-009  0.1715664E+04  0.7818608E-02  0.8752481E-01
          2   -1    0    0  501    0  0.00000000000E+00  0.00000000000E+00  0.46819316409E+04  0.46819316409E+04  0.25500000000E-02 0.  1.
         -2   -1    0    0    0  501 -0.00000000000E+00 -0.00000000000E+00 -0.15717350051E+03  0.15717350053E+03  0.25500000000E-02 0. -1.
    -200001    2    1    2    0    0  0.14127744927E+03  0.27160450197E+03  0.11580612683E+04  0.13868050166E+04  0.69885186544E+03 0.  0.
   -5000001    2    3    3    0    0  0.10201717511E+02 -0.43465031135E+02  0.25197280332E+03  0.29710507420E+03  0.15095644249E+03 0.  0.
     200001    1    1    2    0    0 -0.14127744927E+03 -0.27160450197E+03  0.33666968721E+04  0.34523001249E+04  0.70000000000E+03 0.  1.
         11    1    4    4    0    0  0.25525994769E+02 -0.13089832011E+02 -0.10645614296E+02  0.30598189735E+02  0.51100000000E-03 0.  1.
    -200002    1    4    4    0    0 -0.15324277258E+02 -0.30375199124E+02  0.26261841762E+03  0.26650688447E+03  0.30000000000E+02 0.  1.
    -200000    1    3    3    0    0  0.13107573176E+03  0.31506953311E+03  0.90608846497E+03  0.10896999424E+04  0.50000000000E+03 0. -1.
<mgrwt>
<rscale>  0 0.17156638E+04</rscale>
<asrwt>0</asrwt>
<pdfrwt beam="1">  1        2 0.66884740E+00 0.17156638E+04</pdfrwt>
<pdfrwt beam="2">  1       -2 0.22453356E-01 0.17156638E+04</pdfrwt>
<totfact> 0.29119798E+00</totfact>
</mgrwt>
</event>
<event>
 8    2  0.2588871E-009  0.1910923E+04  0.7818608E-02  0.8649438E-01
         -2   -1    0    0    0  501 -0.00000000000E+00  0.00000000000E+00  0.47220888572E+03  0.47220888572E+03  0.25500000000E-02 0. -1.
          2   -1    0    0  501    0  0.00000000000E+00 -0.00000000000E+00 -0.19332689485E+04  0.19332689485E+04  0.25500000000E-02 0.  1.
    -200001    2    1    2    0    0 -0.50801090090E+03 -0.12805817613E+03 -0.12166835972E+04  0.14976266191E+04  0.69863620186E+03 0.  0.
   -5000001    2    3    3    0    0 -0.15949425140E+03  0.39264583304E+02 -0.28209871633E+03  0.36939363765E+03  0.17289259688E+03 0.  0.
     200001    1    1    2    0    0  0.50801090090E+03  0.12805817613E+03 -0.24437646557E+03  0.90785121514E+03  0.70000000000E+03 0. -1.
         11    1    4    4    0    0 -0.27824043067E+02  0.82087299956E+02 -0.16173211608E+03  0.18349326843E+03  0.51100000000E-03 0.  1.
    -200002    1    4    4    0    0 -0.13167020833E+03 -0.42822716652E+02 -0.12036660025E+03  0.18590036923E+03  0.30000000000E+02 0.  1.
    -200000    1    3    3    0    0 -0.34851664950E+03 -0.16732275943E+03 -0.93458488088E+03  0.11282329814E+04  0.50000000000E+03 0.  1.
<mgrwt>
<rscale>  0 0.19109231E+04</rscale>
<asrwt>0</asrwt>
<pdfrwt beam="1">  1        2 0.27618127E+00 0.19109231E+04</pdfrwt>
<pdfrwt beam="2">  1       -2 0.67458414E-01 0.19109231E+04</pdfrwt>
<totfact> 0.16428340E+01</totfact>
</mgrwt>
</event>
<event>
 8    2  0.2588871E-009  0.2270018E+04  0.7818608E-02  0.8489837E-01
          2   -1    0    0  501    0  0.00000000000E+00  0.00000000000E+00  0.10107951950E+04  0.10107951950E+04  0.25500000000E-02 0.  1.
         -2   -1    0    0    0  501 -0.00000000000E+00 -0.00000000000E+00 -0.12744867894E+04  0.12744867894E+04  0.25500000000E-02 0. -1.
    -200001    2    1    2    0    0 -0.59890034879E+03 -0.19520390086E+03 -0.76891990695E+03  0.12166184085E+04  0.70152429611E+03 0.  0.
   -5000001    2    3    3    0    0 -0.19332062422E+03 -0.94705180723E+02 -0.14252929717E+03  0.31275995627E+03  0.17652833963E+03 0.  0.
     200001    1    1    2    0    0  0.59890034879E+03  0.19520390086E+03  0.50522831256E+03  0.10686635759E+04  0.70000000000E+03 0.  1.
         11    1    4    4    0    0 -0.16173874696E+03 -0.20110550197E+02 -0.21984598972E+02  0.16446026599E+03  0.51100000000E-03 0.  1.
    -200002    1    4    4    0    0 -0.31581877262E+02 -0.74594630526E+02 -0.12054469820E+03  0.14829969028E+03  0.30000000000E+02 0.  1.
    -200000    1    3    3    0    0 -0.40557972457E+03 -0.10049872014E+03 -0.62639060978E+03  0.90385845228E+03  0.50000000000E+03 0. -1.
<mgrwt>
<rscale>  0 0.22700177E+04</rscale>
<asrwt>0</asrwt>
<pdfrwt beam="1">  1        2 0.14439932E+00 0.22700177E+04</pdfrwt>
<pdfrwt beam="2">  1       -2 0.18206954E+00 0.22700177E+04</pdfrwt>
<totfact> 0.44306128E+00</totfact>
</mgrwt>
</event>
<event>
 8    2  0.2588871E-009  0.1509872E+04  0.7818608E-02  0.8877915E-01
         -2   -1    0    0    0  501 -0.00000000000E+00  0.00000000000E+00  0.25214143736E+03  0.25214143738E+03  0.25500000000E-02 0. -1.
          2   -1    0    0  501    0  0.00000000000E+00 -0.00000000000E+00 -0.22603514260E+04  0.22603514260E+04  0.25500000000E-02 0.  1.
    -200001    2    1    2    0    0  0.21398183822E+03  0.15799188419E+03 -0.11625365895E+04  0.13829296024E+04  0.70018090571E+03 0.  0.
   -5000001    2    3    3    0    0  0.13667299652E+03  0.66092182851E+02 -0.42312389749E+03  0.48228908521E+03  0.17470330412E+03 0.  0.
     200001    1    1    2    0    0 -0.21398183822E+03 -0.15799188419E+03 -0.84567339920E+03  0.11295632610E+04  0.70000000000E+03 0. -1.
         11    1    4    4    0    0  0.10102122786E+03  0.69458253157E+02 -0.10697236903E+03  0.16270471765E+03  0.51100000000E-03 0.  1.
    -200002    1    4    4    0    0  0.35651768662E+02 -0.33660703060E+01 -0.31615152846E+03  0.31958436756E+03  0.30000000000E+02 0.  1.
    -200000    1    3    3    0    0  0.77308841699E+02  0.91899701339E+02 -0.73941269197E+03  0.90064051716E+03  0.50000000000E+03 0.  1.
<mgrwt>
<rscale>  0 0.15098719E+04</rscale>
<asrwt>0</asrwt>
<pdfrwt beam="1">  1        2 0.32290733E+00 0.15098719E+04</pdfrwt>
<pdfrwt beam="2">  1       -2 0.36020207E-01 0.15098719E+04</pdfrwt>
<totfact> 0.41272169E+01</totfact>
</mgrwt>
</event>
<event>
 8    2  0.2588871E-009  0.1950276E+04  0.7818608E-02  0.8630227E-01
          2   -1    0    0  501    0  0.00000000000E+00  0.00000000000E+00  0.23087596095E+04  0.23087596095E+04  0.25500000000E-02 0.  1.
         -2   -1    0    0    0  501 -0.00000000000E+00 -0.00000000000E+00 -0.41186383640E+03  0.41186383641E+03  0.25500000000E-02 0. -1.
    -200001    2    1    2    0    0 -0.47785222561E+03  0.11089371462E+03  0.16034128468E+04  0.18168688368E+04  0.69959949064E+03 0.  0.
   -5000001    2    3    3    0    0 -0.71758710305E+02  0.86205596569E+01  0.28082987771E+03  0.34221719943E+03  0.18172386970E+03 0.  0.
     200001    1    1    2    0    0  0.47785222561E+03 -0.11089371462E+03  0.29348292626E+03  0.90375460910E+03  0.70000000000E+03 0. -1.
         11    1    4    4    0    0  0.37851076574E+02  0.20727774041E+02  0.19385758671E+03  0.19860289157E+03  0.51100000000E-03 0.  1.
    -200002    1    4    4    0    0 -0.10960978688E+03 -0.12107214384E+02  0.86972290994E+02  0.14361430785E+03  0.30000000000E+02 0.  1.
    -200000    1    3    3    0    0 -0.40609351531E+03  0.10227315496E+03  0.13225829691E+04  0.14746516374E+04  0.50000000000E+03 0.  1.
<mgrwt>
<rscale>  0 0.19502765E+04</rscale>
<asrwt>0</asrwt>
<pdfrwt beam="1">  1        2 0.32982281E+00 0.19502765E+04</pdfrwt>
<pdfrwt beam="2">  1       -2 0.58837690E-01 0.19502765E+04</pdfrwt>
<totfact> 0.14030023E+01</totfact>
</mgrwt>
</event>
<event>
 8    2  0.2588871E-009  0.1459938E+04  0.7818608E-02  0.8911540E-01
         -2   -1    0    0    0  501 -0.00000000000E+00  0.00000000000E+00  0.11309011569E+04  0.11309011569E+04  0.25500000000E-02 0. -1.
          2   -1    0    0  501    0  0.00000000000E+00 -0.00000000000E+00 -0.47117692540E+03  0.47117692541E+03  0.25500000000E-02 0.  1.
    -200001    2    1    2    0    0  0.90110164189E+02  0.10932540303E+03  0.16205176865E+03  0.73158984822E+03  0.69920744051E+03 0.  0.
   -5000001    2    3    3    0    0  0.26459563137E+02  0.15733366694E+03 -0.26419216042E+02  0.19133296072E+03  0.10225622548E+03 0.  0.
     200001    1    1    2    0    0 -0.90110164189E+02 -0.10932540303E+03  0.49767246288E+03  0.87048823412E+03  0.70000000000E+03 0. -1.
         11    1    4    4    0    0  0.11324459661E+02  0.63165340181E+02 -0.57980542765E+02  0.86486108285E+02  0.51100000000E-03 0.  1.
    -200002    1    4    4    0    0  0.15135103476E+02  0.94168326759E+02  0.31561326723E+02  0.10484685244E+03  0.30000000000E+02 0.  1.
    -200000    1    3    3    0    0  0.63650601052E+02 -0.48008263911E+02  0.18847098469E+03  0.54025688750E+03  0.50000000000E+03 0.  1.
<mgrwt>
<rscale>  0 0.14599377E+04</rscale>
<asrwt>0</asrwt>
<pdfrwt beam="1">  1        2 0.67310990E-01 0.14599377E+04</pdfrwt>
<pdfrwt beam="2">  1       -2 0.16155731E+00 0.14599377E+04</pdfrwt>
<totfact> 0.17100004E+01</totfact>
</mgrwt>
</event>
<event>
 8    2  0.2588871E-009  0.1825268E+04  0.7818608E-02  0.8692976E-01
          2   -1    0    0  501    0  0.00000000000E+00  0.00000000000E+00  0.55665776493E+03  0.55665776494E+03  0.25500000000E-02 0.  1.
         -2   -1    0    0    0  501 -0.00000000000E+00 -0.00000000000E+00 -0.14962533109E+04  0.14962533109E+04  0.25500000000E-02 0. -1.
    -200001    2    1    2    0    0  0.42588935616E+03 -0.17140347550E+03 -0.60837705550E+02  0.83924875164E+03  0.69991166986E+03 0.  0.
   -5000001    2    3    3    0    0  0.11218519697E+03  0.55726907835E+01  0.35459406305E+00  0.21999487765E+03  0.18915878820E+03 0.  0.
     200001    1    1    2    0    0 -0.42588935616E+03  0.17140347550E+03 -0.87875784045E+03  0.12136623242E+04  0.70000000000E+03 0.  1.
         11    1    4    4    0    0  0.13268260149E+03  0.61656989404E+02 -0.25175627846E+02  0.14845898194E+03  0.51100000000E-03 0.  1.
    -200002    1    4    4    0    0 -0.20497404522E+02 -0.56084298620E+02  0.25530221909E+02  0.71535895707E+02  0.30000000000E+02 0. -1.
    -200000    1    3    3    0    0  0.31370415919E+03 -0.17697616628E+03 -0.61192299613E+02  0.61925387399E+03  0.50000000000E+03 0.  1.
<mgrwt>
<rscale>  0 0.18252682E+04</rscale>
<asrwt>0</asrwt>
<pdfrwt beam="1">  1        2 0.79522538E-01 0.18252682E+04</pdfrwt>
<pdfrwt beam="2">  1       -2 0.21375047E+00 0.18252682E+04</pdfrwt>
<totfact> 0.60640323E+00</totfact>
</mgrwt>
</event>
<event>
 8    2  0.2588871E-009  0.1530656E+04  0.7818608E-02  0.8864319E-01
         -2   -1    0    0    0  501 -0.00000000000E+00  0.00000000000E+00  0.13061373100E+03  0.13061373103E+03  0.25500000000E-02 0. -1.
          2   -1    0    0  501    0  0.00000000000E+00 -0.00000000000E+00 -0.44844234389E+04  0.44844234389E+04  0.25500000000E-02 0.  1.
    -200001    2    1    2    0    0 -0.14438539390E+03 -0.19317946246E+03 -0.15897081914E+04  0.17534951660E+04  0.69957681259E+03 0.  0.
   -5000001    2    3    3    0    0 -0.47018473449E+02 -0.30977687506E+02 -0.15602796924E+03  0.22338774742E+03  0.14962287440E+03 0.  0.
     200001    1    1    2    0    0  0.14438539390E+03  0.19317946246E+03 -0.27641015165E+04  0.28615420039E+04  0.70000000000E+03 0.  1.
         11    1    4    4    0    0 -0.81633025027E+02 -0.21026742749E+02 -0.15507265918E+03  0.17650383654E+03  0.51100000000E-03 0.  1.
    -200002    1    4    4    0    0  0.34614551578E+02 -0.99509447573E+01 -0.95531005594E+00  0.46883910884E+02  0.30000000000E+02 0.  1.
    -200000    1    3    3    0    0 -0.97366920455E+02 -0.16220177496E+03 -0.14336802221E+04  0.15301074186E+04  0.50000000000E+03 0. -1.
<mgrwt>
<rscale>  0 0.15306564E+04</rscale>
<asrwt>0</asrwt>
<pdfrwt beam="1">  1        2 0.64063182E+00 0.15306564E+04</pdfrwt>
<pdfrwt beam="2">  1       -2 0.18659107E-01 0.15306564E+04</pdfrwt>
<totfact> 0.59736299E+00</totfact>
</mgrwt>
</event>
<event>
 8    2  0.2588871E-009  0.1440690E+04  0.7818608E-02  0.8924880E-01
          2   -1    0    0  501    0  0.00000000000E+00  0.00000000000E+00  0.33733536239E+04  0.33733536239E+04  0.25500000000E-02 0.  1.
         -2   -1    0    0    0  501 -0.00000000000E+00 -0.00000000000E+00 -0.15382227680E+03  0.15382227682E+03  0.25500000000E-02 0. -1.
    -200001    2    1    2    0    0  0.14199143709E+03 -0.17275070557E+02  0.18306076225E+04  0.19652638964E+04  0.70048406045E+03 0.  0.
   -5000001    2    3    3    0    0  0.14592571575E+02  0.57254447689E+02  0.68269937553E+03  0.70451869482E+03  0.16363721788E+03 0.  0.
     200001    1    1    2    0    0 -0.14199143709E+03  0.17275070557E+02  0.13889237247E+04  0.15619120043E+04  0.70000000000E+03 0. -1.
         11    1    4    4    0    0  0.58901202856E+02  0.19754998345E+02  0.97023905790E+02  0.11520959141E+03  0.51100000000E-03 0.  1.
    -200002    1    4    4    0    0 -0.44308631280E+02  0.37499449343E+02  0.58567546974E+03  0.58930910341E+03  0.30000000000E+02 0.  1.
    -200000    1    3    3    0    0  0.12739886551E+03 -0.74529518246E+02  0.11479082469E+04  0.12607452016E+04  0.50000000000E+03 0.  1.
<mgrwt>
<rscale>  0 0.14406900E+04</rscale>
<asrwt>0</asrwt>
<pdfrwt beam="1">  1        2 0.48190766E+00 0.14406900E+04</pdfrwt>
<pdfrwt beam="2">  1       -2 0.21974611E-01 0.14406900E+04</pdfrwt>
<totfact> 0.25472105E+01</totfact>
</mgrwt>
</event>
<event>
 8    2  0.2588871E-009  0.2468889E+04  0.7818608E-02  0.8414154E-01
          2   -1    0    0  501    0  0.00000000000E+00  0.00000000000E+00  0.28662305096E+03  0.28662305097E+03  0.25500000000E-02 0.  1.
         -2   -1    0    0    0  501 -0.00000000000E+00 -0.00000000000E+00 -0.53165755250E+04  0.53165755250E+04  0.25500000000E-02 0. -1.
    -200001    2    1    2    0    0  0.18895396539E+03  0.86029999996E+03 -0.36676029293E+04  0.38363324313E+04  0.70022538217E+03 0.  0.
   -5000001    2    3    3    0    0  0.80608742265E+02  0.13284053894E+03 -0.85192532967E+03  0.88354115869E+03  0.17528215442E+03 0.  0.
     200001    1    1    2    0    0 -0.18895396539E+03 -0.86029999996E+03 -0.13623495447E+04  0.17668661446E+04  0.70000000000E+03 0.  1.
         11    1    4    4    0    0 -0.51700523924E+02  0.63010357699E+02 -0.28177178106E+03  0.29332334710E+03  0.51100000000E-03 0.  1.
    -200002    1    4    4    0    0  0.13230926619E+03  0.69830181238E+02 -0.57015354861E+03  0.59021781159E+03  0.30000000000E+02 0.  1.
    -200000    1    3    3    0    0  0.10834522313E+03  0.72745946102E+03 -0.28156775996E+04  0.29527912726E+04  0.50000000000E+03 0. -1.
<mgrwt>
<rscale>  0 0.24688889E+04</rscale>
<asrwt>0</asrwt>
<pdfrwt beam="1">  1        2 0.40946153E-01 0.24688889E+04</pdfrwt>
<pdfrwt beam="2">  1       -2 0.75951073E+00 0.24688889E+04</pdfrwt>
<totfact> 0.14618333E-02</totfact>
</mgrwt>
</event>
<event>
 8    2  0.3170205E-009  0.1582163E+04  0.7818608E-02  0.8831581E-01
         -2   -1    0    0    0  501 -0.00000000000E+00  0.00000000000E+00  0.40629298077E+03  0.40629298078E+03  0.25500000000E-02 0. -1.
          2   -1    0    0  501    0  0.00000000000E+00 -0.00000000000E+00 -0.15402926628E+04  0.15402926628E+04  0.25500000000E-02 0.  1.
    -200001    2    1    2    0    0 -0.33578665138E+03  0.11619962268E+03 -0.64712646143E+03  0.10228429519E+04  0.70794068927E+03 0.  0.
   -5000001    2    3    3    0    0 -0.14709183974E+03  0.15836464142E+02 -0.17979644340E+03  0.30585212815E+03  0.19832286887E+03 0.  0.
     200001    1    1    2    0    0  0.33578665138E+03 -0.11619962268E+03 -0.48687322057E+03  0.92374269170E+03  0.70000000000E+03 0.  1.
         11    1    4    4    0    0 -0.12399038866E+03 -0.41971726515E+02 -0.20874353112E+02  0.13255557674E+03  0.51100000000E-03 0.  1.
    -200002    1    4    4    0    0 -0.23101451085E+02  0.57808190657E+02 -0.15892209028E+03  0.17329655141E+03  0.30000000000E+02 0.  1.
    -200000    1    3    3    0    0 -0.18869481163E+03  0.10036315854E+03 -0.46733001803E+03  0.71699082371E+03  0.50000000000E+03 0. -1.
<mgrwt>
<rscale>  0 0.15821632E+04</rscale>
<asrwt>0</asrwt>
<pdfrwt beam="1">  1        2 0.22004181E+00 0.15821632E+04</pdfrwt>
<pdfrwt beam="2">  1       -2 0.58041855E-01 0.15821632E+04</pdfrwt>
<totfact> 0.37182761E+01</totfact>
</mgrwt>
</event>
<event>
 8    2  0.2588871E-009  0.1948701E+04  0.7818608E-02  0.8630987E-01
         -2   -1    0    0    0  501 -0.00000000000E+00  0.00000000000E+00  0.41587764838E+03  0.41587764839E+03  0.25500000000E-02 0. -1.
          2   -1    0    0  501    0  0.00000000000E+00 -0.00000000000E+00 -0.22827852219E+04  0.22827852219E+04  0.25500000000E-02 0.  1.
    -200001    2    1    2    0    0  0.62506658870E+03  0.26115234243E+03 -0.91886494798E+03  0.13393639311E+04  0.70048137808E+03 0.  0.
   -5000001    2    3    3    0    0  0.29904967989E+03  0.83567852586E+02 -0.39710659868E+03  0.52692620983E+03  0.15343820538E+03 0.  0.
     200001    1    1    2    0    0 -0.62506658870E+03 -0.26115234243E+03 -0.94804262558E+03  0.13592989392E+04  0.70000000000E+03 0.  1.
         11    1    4    4    0    0  0.15129678074E+03  0.11716826252E+03 -0.23403813229E+03  0.30231269403E+03  0.51100000000E-03 0.  1.
    -200002    1    4    4    0    0  0.14775289914E+03 -0.33600409932E+02 -0.16306846639E+03  0.22461351580E+03  0.30000000000E+02 0.  1.
    -200000    1    3    3    0    0  0.32601690882E+03  0.17758448985E+03 -0.52175834930E+03  0.81243772126E+03  0.50000000000E+03 0.  1.
<mgrwt>
<rscale>  0 0.19487015E+04</rscale>
<asrwt>0</asrwt>
<pdfrwt beam="1">  1        2 0.32611217E+00 0.19487015E+04</pdfrwt>
<pdfrwt beam="2">  1       -2 0.59411094E-01 0.19487015E+04</pdfrwt>
<totfact> 0.14181943E+01</totfact>
</mgrwt>
</event>
<event>
 8    2  0.2588871E-009  0.1475973E+04  0.7818608E-02  0.8900590E-01
         -2   -1    0    0    0  501 -0.00000000000E+00  0.00000000000E+00  0.39082967869E+03  0.39082967870E+03  0.25500000000E-02 0. -1.
          2   -1    0    0  501    0  0.00000000000E+00 -0.00000000000E+00 -0.13935069702E+04  0.13935069702E+04  0.25500000000E-02 0.  1.
    -200001    2    1    2    0    0 -0.10872280216E+03  0.30705014448E+02 -0.74864789191E+03  0.10311471764E+04  0.70001956235E+03 0.  0.
   -5000001    2    3    3    0    0 -0.16801887850E+02 -0.20315816536E+01 -0.22244744454E+03  0.29874834376E+03  0.19869895963E+03 0.  0.
     200001    1    1    2    0    0  0.10872280216E+03 -0.30705014448E+02 -0.25402939958E+03  0.75318947249E+03  0.70000000000E+03 0. -1.
         11    1    4    4    0    0 -0.56546820867E+02 -0.42754746055E+02 -0.22343684227E+03  0.23441316888E+03  0.51100000000E-03 0.  1.
    -200002    1    4    4    0    0  0.39744933018E+02  0.40723164402E+02  0.98939772875E+00  0.64335174884E+02  0.30000000000E+02 0.  1.
    -200000    1    3    3    0    0 -0.91920914313E+02  0.32736596102E+02 -0.52620044737E+03  0.73239883262E+03  0.50000000000E+03 0.  1.
<mgrwt>
<rscale>  0 0.14759727E+04</rscale>
<asrwt>0</asrwt>
<pdfrwt beam="1">  1        2 0.19907242E+00 0.14759727E+04</pdfrwt>
<pdfrwt beam="2">  1       -2 0.55832812E-01 0.14759727E+04</pdfrwt>
<totfact> 0.48711097E+01</totfact>
</mgrwt>
</event>
<event>
 8    2  0.2588871E-009  0.2121559E+04  0.7818608E-02  0.8551805E-01
         -2   -1    0    0    0  501 -0.00000000000E+00  0.00000000000E+00  0.14456296582E+04  0.14456296582E+04  0.25500000000E-02 0. -1.
          2   -1    0    0  501    0  0.00000000000E+00 -0.00000000000E+00 -0.77838303901E+03  0.77838303902E+03  0.25500000000E-02 0.  1.
    -200001    2    1    2    0    0 -0.42389981262E+03 -0.21080869400E+03  0.10066458438E+04  0.13133408627E+04  0.69813824570E+03 0.  0.
   -5000001    2    3    3    0    0 -0.10838573321E+03 -0.64576514291E+02  0.30941449319E+03  0.38756305943E+03  0.19634205632E+03 0.  0.
     200001    1    1    2    0    0  0.42389981262E+03  0.21080869400E+03 -0.33939922460E+03  0.91067183456E+03  0.70000000000E+03 0.  1.
         11    1    4    4    0    0 -0.16096570353E+03 -0.30515245765E+02  0.21232593987E+03  0.26818546321E+03  0.51100000000E-03 0.  1.
    -200002    1    4    4    0    0  0.52579970323E+02 -0.34061268526E+02  0.97088553317E+02  0.11937759621E+03  0.30000000000E+02 0.  1.
    -200000    1    3    3    0    0 -0.31551407941E+03 -0.14623217971E+03  0.69723135061E+03  0.92577780323E+03  0.50000000000E+03 0. -1.
<mgrwt>
<rscale>  0 0.21215594E+04</rscale>
<asrwt>0</asrwt>
<pdfrwt beam="1">  1        2 0.11119758E+00 0.21215594E+04</pdfrwt>
<pdfrwt beam="2">  1       -2 0.20651852E+00 0.21215594E+04</pdfrwt>
<totfact> 0.43836699E+00</totfact>
</mgrwt>
</event>
<event>
 8    2  0.2588871E-009  0.1814729E+04  0.7818608E-02  0.8698506E-01
         -2   -1    0    0    0  501 -0.00000000000E+00  0.00000000000E+00  0.42860460802E+03  0.42860460803E+03  0.25500000000E-02 0. -1.
          2   -1    0    0  501    0  0.00000000000E+00 -0.00000000000E+00 -0.19209085518E+04  0.19209085518E+04  0.25500000000E-02 0.  1.
    -200001    2    1    2    0    0  0.56106056557E+03 -0.87456891719E+02 -0.88448139857E+03  0.12623673956E+04  0.69916123389E+03 0.  0.
   -5000001    2    3    3    0    0  0.25219650266E+03  0.64762592633E+02 -0.30149669487E+03  0.42067924344E+03  0.13517950838E+03 0.  0.
     200001    1    1    2    0    0 -0.56106056557E+03  0.87456891719E+02 -0.60782254518E+03  0.10871457642E+04  0.70000000000E+03 0. -1.
         11    1    4    4    0    0  0.12360623073E+03 -0.12503476660E+02 -0.20528747248E+03  0.23995371129E+03  0.51100000000E-03 0.  1.
    -200002    1    4    4    0    0  0.12859027193E+03  0.77266069293E+02 -0.96209222386E+02  0.18072553215E+03  0.30000000000E+02 0.  1.
    -200000    1    3    3    0    0  0.30886406290E+03 -0.15221948435E+03 -0.58298470370E+03  0.84168815218E+03  0.50000000000E+03 0. -1.
<mgrwt>
<rscale>  0 0.18147289E+04</rscale>
<asrwt>0</asrwt>
<pdfrwt beam="1">  1        2 0.27441550E+00 0.18147289E+04</pdfrwt>
<pdfrwt beam="2">  1       -2 0.61229231E-01 0.18147289E+04</pdfrwt>
<totfact> 0.20676004E+01</totfact>
</mgrwt>
</event>
<event>
 8    2  0.2588871E-009  0.2257994E+04  0.7818608E-02  0.8494670E-01
          2   -1    0    0  501    0  0.00000000000E+00  0.00000000000E+00  0.14656210445E+04  0.14656210445E+04  0.25500000000E-02 0.  1.
         -2   -1    0    0    0  501 -0.00000000000E+00 -0.00000000000E+00 -0.86968865050E+03  0.86968865051E+03  0.25500000000E-02 0. -1.
    -200001    2    1    2    0    0 -0.73356428538E+03  0.22944109245E+03 -0.15442320870E+03  0.10532046657E+04  0.70330204376E+03 0.  0.
   -5000001    2    3    3    0    0 -0.17805848227E+03  0.98159015742E+02 -0.65955406334E+01  0.28011042797E+03  0.19255735567E+03 0.  0.
     200001    1    1    2    0    0  0.73356428538E+03 -0.22944109245E+03  0.75035560269E+03  0.12821050293E+04  0.70000000000E+03 0.  1.
         11    1    4    4    0    0  0.21786640572E+02 -0.27911160604E+02 -0.21562424668E+02  0.41456347542E+02  0.51100000000E-03 0.  1.
    -200002    1    4    4    0    0 -0.19984512284E+03  0.12607017635E+03  0.14966884035E+02  0.23865408043E+03  0.30000000000E+02 0.  1.
    -200000    1    3    3    0    0 -0.55550580311E+03  0.13128207671E+03 -0.14782766807E+03  0.77309423772E+03  0.50000000000E+03 0. -1.
<mgrwt>
<rscale>  0 0.22579938E+04</rscale>
<asrwt>0</asrwt>
<pdfrwt beam="1">  1        2 0.20937443E+00 0.22579938E+04</pdfrwt>
<pdfrwt beam="2">  1       -2 0.12424124E+00 0.22579938E+04</pdfrwt>
<totfact> 0.67903115E+00</totfact>
</mgrwt>
</event>
<event>
 8    2  0.2588871E-009  0.2207257E+04  0.7818608E-02  0.8515414E-01
         -2   -1    0    0    0  501 -0.00000000000E+00  0.00000000000E+00  0.44445496493E+03  0.44445496494E+03  0.25500000000E-02 0. -1.
          2   -1    0    0  501    0  0.00000000000E+00 -0.00000000000E+00 -0.27404256171E+04  0.27404256171E+04  0.25500000000E-02 0.  1.
    -200001    2    1    2    0    0  0.34149901196E+03 -0.40098514487E+03 -0.17930955130E+03  0.89410235674E+03  0.69989745503E+03 0.  0.
   -5000001    2    3    3    0    0  0.10317602486E+03  0.24502802238E+02 -0.66267165134E+02  0.18655983478E+03  0.13844694057E+03 0.  0.
     200001    1    1    2    0    0 -0.34149901196E+03  0.40098514487E+03 -0.21166611008E+04  0.22907782253E+04  0.70000000000E+03 0.  1.
         11    1    4    4    0    0 -0.93911850785E+01  0.20149937829E+01  0.31430672058E+02  0.32865509328E+02  0.51100000000E-03 0.  1.
    -200002    1    4    4    0    0  0.11256720994E+03  0.22487808455E+02 -0.97697837192E+02  0.15369432545E+03  0.30000000000E+02 0.  1.
    -200000    1    3    3    0    0  0.23832298709E+03 -0.42548794711E+03 -0.11304238617E+03  0.70754252196E+03  0.50000000000E+03 0. -1.
<mgrwt>
<rscale>  0 0.22072569E+04</rscale>
<asrwt>0</asrwt>
<pdfrwt beam="1">  1        2 0.39148937E+00 0.22072569E+04</pdfrwt>
<pdfrwt beam="2">  1       -2 0.63493568E-01 0.22072569E+04</pdfrwt>
<totfact> 0.69063853E+00</totfact>
</mgrwt>
</event>
<event>
 8    2  0.2588871E-009  0.1598877E+04  0.7818608E-02  0.8821238E-01
          2   -1    0    0  501    0  0.00000000000E+00  0.00000000000E+00  0.66021214111E+03  0.66021214112E+03  0.25500000000E-02 0.  1.
         -2   -1    0    0    0  501 -0.00000000000E+00 -0.00000000000E+00 -0.96802506130E+03  0.96802506131E+03  0.25500000000E-02 0. -1.
    -200001    2    1    2    0    0 -0.31665529699E+03  0.17980070730E+03 -0.16893029668E+02  0.78726558925E+03  0.69778425184E+03 0.  0.
   -5000001    2    3    3    0    0 -0.19386837260E+03 -0.50680279370E+02 -0.11628351409E+02  0.22315050272E+03  0.97506367457E+02 0.  0.
     200001    1    1    2    0    0  0.31665529699E+03 -0.17980070730E+03 -0.29091989053E+03  0.84097161317E+03  0.70000000000E+03 0. -1.
         11    1    4    4    0    0 -0.10627940700E+03 -0.62066777112E+02 -0.33060006155E+02  0.12743846037E+03  0.51100000000E-03 0.  1.
    -200002    1    4    4    0    0 -0.87588965602E+02  0.11386497742E+02  0.21431654747E+02  0.95712042352E+02  0.30000000000E+02 0.  1.
    -200000    1    3    3    0    0 -0.12278692439E+03  0.23048098667E+03 -0.52646782600E+01  0.56411508653E+03  0.50000000000E+03 0.  1.
<mgrwt>
<rscale>  0 0.15988770E+04</rscale>
<asrwt>0</asrwt>
<pdfrwt beam="1">  1        2 0.94316020E-01 0.15988770E+04</pdfrwt>
<pdfrwt beam="2">  1       -2 0.13828929E+00 0.15988770E+04</pdfrwt>
<totfact> 0.17231907E+01</totfact>
</mgrwt>
</event>
<event>
 8    2  0.2729478E-009  0.1629010E+04  0.7818608E-02  0.8802922E-01
         -2   -1    0    0    0  501 -0.00000000000E+00  0.00000000000E+00  0.37341475732E+03  0.37341475733E+03  0.25500000000E-02 0. -1.
          2   -1    0    0  501    0  0.00000000000E+00 -0.00000000000E+00 -0.17766250675E+04  0.17766250675E+04  0.25500000000E-02 0.  1.
    -200001    2    1    2    0    0 -0.29801959396E+03 -0.27982120709E+03 -0.62087113621E+03  0.10234652958E+04  0.70348038893E+03 0.  0.
   -5000001    2    3    3    0    0 -0.12179949379E+03 -0.13932784185E+03 -0.17819006553E+03  0.31865437101E+03  0.18852465225E+03 0.  0.
     200001    1    1    2    0    0  0.29801959396E+03  0.27982120709E+03 -0.78233917399E+03  0.11265745290E+04  0.70000000000E+03 0.  1.
         11    1    4    4    0    0 -0.77019798504E+02 -0.21007226003E+02  0.19369127694E+02  0.82149351877E+02  0.51100000000E-03 0.  1.
    -200002    1    4    4    0    0 -0.44779695281E+02 -0.11832061585E+03 -0.19755919323E+03  0.23650501913E+03  0.30000000000E+02 0.  1.
    -200000    1    3    3    0    0 -0.17622010018E+03 -0.14049336524E+03 -0.44268107068E+03  0.70481092480E+03  0.50000000000E+03 0. -1.
<mgrwt>
<rscale>  0 0.16290095E+04</rscale>
<asrwt>0</asrwt>
<pdfrwt beam="1">  1        2 0.25380358E+00 0.16290095E+04</pdfrwt>
<pdfrwt beam="2">  1       -2 0.53344966E-01 0.16290095E+04</pdfrwt>
<totfact> 0.33232831E+01</totfact>
</mgrwt>
</event>
<event>
 8    2  0.2588871E-009  0.1789872E+04  0.7818608E-02  0.8711704E-01
         -2   -1    0    0    0  501 -0.00000000000E+00  0.00000000000E+00  0.49012132516E+03  0.49012132517E+03  0.25500000000E-02 0.  1.
          2   -1    0    0  501    0  0.00000000000E+00 -0.00000000000E+00 -0.16341062303E+04  0.16341062303E+04  0.25500000000E-02 0. -1.
    -200001    2    1    2    0    0 -0.75493125663E+02 -0.41692439870E+03 -0.14206934731E+03  0.83064340619E+03  0.70018540584E+03 0.  0.
   -5000001    2    3    3    0    0  0.49894459536E+02 -0.11753720449E+03 -0.28898279969E+02  0.22387950725E+03  0.18161076964E+03 0.  0.
     200001    1    1    2    0    0  0.75493125663E+02  0.41692439870E+03 -0.10019155579E+04  0.12935841493E+04  0.70000000000E+03 0. -1.
         11    1    4    4    0    0 -0.26439729978E+02 -0.83884257042E+02 -0.82243065249E+02  0.12041407593E+03  0.51100000000E-03 0.  1.
    -200002    1    4    4    0    0  0.76334189514E+02 -0.33652947452E+02  0.53344785280E+02  0.10346543132E+03  0.30000000000E+02 0.  1.
    -200000    1    3    3    0    0 -0.12538758520E+03 -0.29938719421E+03 -0.11317106734E+03  0.60676389894E+03  0.50000000000E+03 0.  1.
<mgrwt>
<rscale>  0 0.17898719E+04</rscale>
<asrwt>0</asrwt>
<pdfrwt beam="1">  1        2 0.23344374E+00 0.17898719E+04</pdfrwt>
<pdfrwt beam="2">  1       -2 0.70017333E-01 0.17898719E+04</pdfrwt>
<totfact> 0.21860832E+01</totfact>
</mgrwt>
</event>
<event>
 8    2  0.2588871E-009  0.1528758E+04  0.7818608E-02  0.8865551E-01
          2   -1    0    0  501    0  0.00000000000E+00  0.00000000000E+00  0.72131225341E+03  0.72131225341E+03  0.25500000000E-02 0.  1.
         -2   -1    0    0    0  501 -0.00000000000E+00 -0.00000000000E+00 -0.81001723076E+03  0.81001723077E+03  0.25500000000E-02 0. -1.
    -200001    2    1    2    0    0 -0.70630052319E+02 -0.19324706343E+03 -0.26939998161E+03  0.77967549704E+03  0.70212854861E+03 0.  0.
   -5000001    2    3    3    0    0 -0.65660694858E+01  0.95510447132E+02 -0.42044865991E+02  0.15583622094E+03  0.11554998149E+03 0.  0.
     200001    1    1    2    0    0  0.70630052319E+02  0.19324706343E+03  0.18069500425E+03  0.75165398714E+03  0.70000000000E+03 0. -1.
         11    1    4    4    0    0  0.15191028019E+02  0.30875321907E+02 -0.68594606191E+02  0.76741597806E+02  0.51100000000E-03 0.  1.
    -200002    1    4    4    0    0 -0.21757097505E+02  0.64635125225E+02  0.26549740199E+02  0.79094623138E+02  0.30000000000E+02 0.  1.
    -200000    1    3    3    0    0 -0.64063982834E+02 -0.28875751056E+03 -0.22735511562E+03  0.62383927610E+03  0.50000000000E+03 0. -1.
<mgrwt>
<rscale>  0 0.15287581E+04</rscale>
<asrwt>0</asrwt>
<pdfrwt beam="1">  1        2 0.10304461E+00 0.15287581E+04</pdfrwt>
<pdfrwt beam="2">  1       -2 0.11571675E+00 0.15287581E+04</pdfrwt>
<totfact> 0.24328871E+01</totfact>
</mgrwt>
</event>
<event>
 8    2  0.2588871E-009  0.1624305E+04  0.7818608E-02  0.8805754E-01
         -2   -1    0    0    0  501 -0.00000000000E+00  0.00000000000E+00  0.42061560884E+03  0.42061560885E+03  0.25500000000E-02 0. -1.
          2   -1    0    0  501    0  0.00000000000E+00 -0.00000000000E+00 -0.15681586303E+04  0.15681586303E+04  0.25500000000E-02 0.  1.
    -200001    2    1    2    0    0  0.62355433443E+02 -0.31464310209E+03 -0.25803504742E+03  0.81229095509E+03  0.70024711941E+03 0.  0.
   -5000001    2    3    3    0    0  0.58878991379E+02 -0.13498743843E+03 -0.11702775588E+03  0.26258985503E+03  0.18322006484E+03 0.  0.
     200001    1    1    2    0    0 -0.62355433443E+02  0.31464310209E+03 -0.88950797400E+03  0.11764832840E+04  0.70000000000E+03 0.  1.
         11    1    4    4    0    0  0.69091655233E+01  0.41796956403E+02 -0.21365579526E+00  0.42364699713E+02  0.51100000000E-03 0.  1.
    -200002    1    4    4    0    0  0.51969825855E+02 -0.17678439483E+03 -0.11681410008E+03  0.22022515532E+03  0.30000000000E+02 0.  1.
    -200000    1    3    3    0    0  0.34764420640E+01 -0.17965566367E+03 -0.14100729155E+03  0.54970110006E+03  0.50000000000E+03 0. -1.
<mgrwt>
<rscale>  0 0.16243054E+04</rscale>
<asrwt>0</asrwt>
<pdfrwt beam="1">  1        2 0.22402266E+00 0.16243054E+04</pdfrwt>
<pdfrwt beam="2">  1       -2 0.60087945E-01 0.16243054E+04</pdfrwt>
<totfact> 0.33307353E+01</totfact>
</mgrwt>
</event>
<event>
 8    2  0.2588871E-009  0.1537892E+04  0.7818608E-02  0.8859639E-01
         -2   -1    0    0    0  501 -0.00000000000E+00  0.00000000000E+00  0.33201095020E+03  0.33201095021E+03  0.25500000000E-02 0. -1.
          2   -1    0    0  501    0  0.00000000000E+00 -0.00000000000E+00 -0.17808988190E+04  0.17808988190E+04  0.25500000000E-02 0.  1.
    -200001    2    1    2    0    0  0.30898786850E+03 -0.78692770931E+02 -0.75432158690E+03  0.10765274194E+04  0.69874471241E+03 0.  0.
   -5000001    2    3    3    0    0  0.18287413981E+03  0.40524066523E+02 -0.14842718747E+03  0.27202424962E+03  0.12992848578E+03 0.  0.
     200001    1    1    2    0    0 -0.30898786850E+03  0.78692770931E+02 -0.69456628186E+03  0.10363823498E+04  0.70000000000E+03 0. -1.
         11    1    4    4    0    0  0.18803995671E+03  0.17084625206E+02 -0.11486036864E+03  0.22100636648E+03  0.51100000000E-03 0.  1.
    -200002    1    4    4    0    0 -0.51658168992E+01  0.23439441317E+02 -0.33566818836E+02  0.51017883141E+02  0.30000000000E+02 0.  1.
    -200000    1    3    3    0    0  0.12611372869E+03 -0.11921683745E+03 -0.60589439943E+03  0.80450316976E+03  0.50000000000E+03 0.  1.
<mgrwt>
<rscale>  0 0.15378919E+04</rscale>
<asrwt>0</asrwt>
<pdfrwt beam="1">  1        2 0.25441411E+00 0.15378919E+04</pdfrwt>
<pdfrwt beam="2">  1       -2 0.47430137E-01 0.15378919E+04</pdfrwt>
<totfact> 0.42320107E+01</totfact>
</mgrwt>
</event>
<event>
 8    2  0.2588871E-009  0.2245887E+04  0.7818608E-02  0.8499568E-01
          2   -1    0    0  501    0  0.00000000000E+00  0.00000000000E+00  0.15344286515E+04  0.15344286515E+04  0.25500000000E-02 0.  1.
         -2   -1    0    0    0  501 -0.00000000000E+00 -0.00000000000E+00 -0.82180526580E+03  0.82180526580E+03  0.25500000000E-02 0. -1.
    -200001    2    1    2    0    0  0.55750154117E+03  0.62909926503E+03  0.62291430613E+03  0.12586813798E+04  0.69977334137E+03 0.  0.
   -5000001    2    3    3    0    0  0.70149718850E+02  0.78928235307E+02  0.17589238356E+02  0.18321943327E+03  0.14869206447E+03 0.  0.
     200001    1    1    2    0    0 -0.55750154117E+03 -0.62909926503E+03  0.89709079540E+02  0.10975525375E+04  0.70000000000E+03 0.  1.
         11    1    4    4    0    0  0.88286084716E+01 -0.30289506989E+02  0.41592111040E+02  0.52204427611E+02  0.51100000000E-03 0.  1.
    -200002    1    4    4    0    0  0.61321110378E+02  0.10921774230E+03 -0.24002872684E+02  0.13101500566E+03  0.30000000000E+02 0.  1.
    -200000    1    3    3    0    0  0.48735182232E+03  0.55017102972E+03  0.60532506778E+03  0.10754619465E+04  0.50000000000E+03 0.  1.
<mgrwt>
<rscale>  0 0.22458865E+04</rscale>
<asrwt>0</asrwt>
<pdfrwt beam="1">  1        2 0.21920409E+00 0.22458865E+04</pdfrwt>
<pdfrwt beam="2">  1       -2 0.11740075E+00 0.22458865E+04</pdfrwt>
<totfact> 0.71914198E+00</totfact>
</mgrwt>
</event>
<event>
 8    2  0.2588871E-009  0.1417370E+04  0.7818608E-02  0.8941340E-01
          2   -1    0    0  501    0  0.00000000000E+00  0.00000000000E+00  0.61362047025E+03  0.61362047026E+03  0.25500000000E-02 0.  1.
         -2   -1    0    0    0  501 -0.00000000000E+00 -0.00000000000E+00 -0.81847766416E+03  0.81847766417E+03  0.25500000000E-02 0. -1.
    -200001    2    1    2    0    0  0.44338319542E+02 -0.98373731487E+01 -0.17161827745E+03  0.72983928894E+03  0.70791941211E+03 0.  0.
   -5000001    2    3    3    0    0  0.21614406105E+02  0.49023325900E+02  0.87602941800E+02  0.16311484211E+03  0.12673479108E+03 0.  0.
     200001    1    1    2    0    0 -0.44338319542E+02  0.98373731487E+01 -0.33238916464E+02  0.70225884548E+03  0.70000000000E+03 0.  1.
         11    1    4    4    0    0 -0.17898830614E+02  0.50955642836E+02 -0.87598795822E+01  0.54713628693E+02  0.51100000000E-03 0.  1.
    -200002    1    4    4    0    0  0.39513236719E+02 -0.19323169361E+01  0.96362821382E+02  0.10840121341E+03  0.30000000000E+02 0.  1.
    -200000    1    3    3    0    0  0.22723913437E+02 -0.58860699049E+02 -0.25922121925E+03  0.56672444684E+03  0.50000000000E+03 0.  1.
<mgrwt>
<rscale>  0 0.14173703E+04</rscale>
<asrwt>0</asrwt>
<pdfrwt beam="1">  1        2 0.87660067E-01 0.14173703E+04</pdfrwt>
<pdfrwt beam="2">  1       -2 0.11692538E+00 0.14173703E+04</pdfrwt>
<totfact> 0.29122229E+01</totfact>
</mgrwt>
</event>
<event>
 8    2  0.2588871E-009  0.2140073E+04  0.7818608E-02  0.8543793E-01
          2   -1    0    0  501    0  0.00000000000E+00  0.00000000000E+00  0.19256979744E+04  0.19256979744E+04  0.25500000000E-02 0.  1.
         -2   -1    0    0    0  501 -0.00000000000E+00 -0.00000000000E+00 -0.59457850438E+03  0.59457850439E+03  0.25500000000E-02 0. -1.
    -200001    2    1    2    0    0  0.47201264810E+03  0.19224600795E+03  0.14059454180E+04  0.16511657897E+04  0.69993676786E+03 0.  0.
   -5000001    2    3    3    0    0  0.19308515139E+03  0.21583747119E+02  0.41497804669E+03  0.49403896571E+03  0.18471596190E+03 0.  0.
     200001    1    1    2    0    0 -0.47201264810E+03 -0.19224600795E+03 -0.74825947952E+02  0.86911068917E+03  0.70000000000E+03 0. -1.
         11    1    4    4    0    0  0.93827100324E+02 -0.47115113889E+02  0.67125134908E+02  0.12461597991E+03  0.51100000000E-03 0.  1.
    -200002    1    4    4    0    0  0.99258051063E+02  0.68698861008E+02  0.34785291178E+03  0.36942298580E+03  0.30000000000E+02 0.  1.
    -200000    1    3    3    0    0  0.27892749671E+03  0.17066226083E+03  0.99096737132E+03  0.11571268240E+04  0.50000000000E+03 0.  1.
<mgrwt>
<rscale>  0 0.21400735E+04</rscale>
<asrwt>0</asrwt>
<pdfrwt beam="1">  1        2 0.27509971E+00 0.21400735E+04</pdfrwt>
<pdfrwt beam="2">  1       -2 0.84939786E-01 0.21400735E+04</pdfrwt>
<totfact> 0.97575456E+00</totfact>
</mgrwt>
</event>
<event>
 8    2  0.2588871E-009  0.2599877E+04  0.7818608E-02  0.8368243E-01
          2   -1    0    0  501    0  0.00000000000E+00  0.00000000000E+00  0.14850695435E+04  0.14850695435E+04  0.25500000000E-02 0.  1.
         -2   -1    0    0    0  501 -0.00000000000E+00 -0.00000000000E+00 -0.11378860650E+04  0.11378860650E+04  0.25500000000E-02 0. -1.
    -200001    2    1    2    0    0 -0.16667754769E+03  0.10422224418E+04  0.46871000183E+03  0.13506436503E+04  0.70038573739E+03 0.  0.
   -5000001    2    3    3    0    0 -0.75868586404E+02  0.32355488234E+03  0.87559371103E+02  0.39147467050E+03  0.18746191584E+03 0.  0.
     200001    1    1    2    0    0  0.16667754769E+03 -0.10422224418E+04 -0.12152652327E+03  0.12723119582E+04  0.70000000000E+03 0. -1.
         11    1    4    4    0    0  0.15284660977E+02 -0.19309277498E+02 -0.77930298156E+00  0.24638919864E+02  0.51100000000E-03 0.  1.
    -200002    1    4    4    0    0 -0.91153247381E+02  0.34286415983E+03  0.88338674085E+02  0.36683575064E+03  0.30000000000E+02 0.  1.
    -200000    1    3    3    0    0 -0.90808961289E+02  0.71866755948E+03  0.38115063073E+03  0.95916897980E+03  0.50000000000E+03 0.  1.
<mgrwt>
<rscale>  0 0.25998769E+04</rscale>
<asrwt>0</asrwt>
<pdfrwt beam="1">  1        2 0.21215279E+00 0.25998769E+04</pdfrwt>
<pdfrwt beam="2">  1       -2 0.16255515E+00 0.25998769E+04</pdfrwt>
<totfact> 0.31976392E+00</totfact>
</mgrwt>
</event>
<event>
 8    2  0.2588871E-009  0.1469768E+04  0.7818608E-02  0.8904810E-01
         -2   -1    0    0    0  501 -0.00000000000E+00  0.00000000000E+00  0.21475849721E+03  0.21475849722E+03  0.25500000000E-02 0. -1.
          2   -1    0    0  501    0  0.00000000000E+00 -0.00000000000E+00 -0.25147054345E+04  0.25147054345E+04  0.25500000000E-02 0.  1.
    -200001    2    1    2    0    0  0.22975239400E+02  0.21941001693E+03 -0.10685339290E+04  0.12959205546E+04  0.69926869601E+03 0.  0.
   -5000001    2    3    3    0    0 -0.24730442449E+02  0.15980005588E+02 -0.23891447507E+03  0.30499773219E+03  0.18728730572E+03 0.  0.
     200001    1    1    2    0    0 -0.22975239400E+02 -0.21941001693E+03 -0.12314130083E+04  0.14335433772E+04  0.70000000000E+03 0.  1.
         11    1    4    4    0    0 -0.62074848878E+02  0.77835499693E+02 -0.18467108514E+03  0.20979766815E+03  0.51100000000E-03 0.  1.
    -200002    1    4    4    0    0  0.37344406430E+02 -0.61855494105E+02 -0.54243389929E+02  0.95200064042E+02  0.30000000000E+02 0.  1.
    -200000    1    3    3    0    0  0.47705681849E+02  0.20343001134E+03 -0.82961945390E+03  0.99092282237E+03  0.50000000000E+03 0.  1.
<mgrwt>
<rscale>  0 0.14697678E+04</rscale>
<asrwt>0</asrwt>
<pdfrwt beam="1">  1        2 0.35924362E+00 0.14697678E+04</pdfrwt>
<pdfrwt beam="2">  1       -2 0.30679787E-01 0.14697678E+04</pdfrwt>
<totfact> 0.41359710E+01</totfact>
</mgrwt>
</event>
<event>
 8    2  0.2588871E-009  0.1421491E+04  0.7818608E-02  0.8938407E-01
         -2   -1    0    0    0  501 -0.00000000000E+00  0.00000000000E+00  0.36178272445E+03  0.36178272446E+03  0.25500000000E-02 0. -1.
          2   -1    0    0  501    0  0.00000000000E+00 -0.00000000000E+00 -0.13963062464E+04  0.13963062464E+04  0.25500000000E-02 0.  1.
    -200001    2    1    2    0    0  0.11419544292E+03 -0.45429692840E+02 -0.50108153774E+03  0.86945811009E+03  0.69983586758E+03 0.  0.
   -5000001    2    3    3    0    0 -0.15097907090E+02  0.12362355813E+01 -0.14851447307E+03  0.24240307716E+03  0.19097965344E+03 0.  0.
     200001    1    1    2    0    0 -0.11419544292E+03  0.45429692840E+02 -0.53344198417E+03  0.88863086073E+03  0.70000000000E+03 0.  1.
         11    1    4    4    0    0 -0.98594825196E+02  0.17098338544E+02 -0.92600890273E+02  0.13633861381E+03  0.51100000000E-03 0.  1.
    -200002    1    4    4    0    0  0.83496918106E+02 -0.15862102963E+02 -0.55913582798E+02  0.10606446335E+03  0.30000000000E+02 0.  1.
    -200000    1    3    3    0    0  0.12929335001E+03 -0.46665928421E+02 -0.35256706467E+03  0.62705503293E+03  0.50000000000E+03 0.  1.
<mgrwt>
<rscale>  0 0.14214914E+04</rscale>
<asrwt>0</asrwt>
<pdfrwt beam="1">  1        2 0.19947232E+00 0.14214914E+04</pdfrwt>
<pdfrwt beam="2">  1       -2 0.51683247E-01 0.14214914E+04</pdfrwt>
<totfact> 0.57170939E+01</totfact>
</mgrwt>
</event>
<event>
 8    2  0.2588871E-009  0.1572615E+04  0.7818608E-02  0.8837550E-01
         -2   -1    0    0    0  501 -0.00000000000E+00  0.00000000000E+00  0.14448244128E+04  0.14448244128E+04  0.25500000000E-02 0. -1.
          2   -1    0    0  501    0  0.00000000000E+00 -0.00000000000E+00 -0.42792724479E+03  0.42792724480E+03  0.25500000000E-02 0.  1.
    -200001    2    1    2    0    0 -0.28502149374E+03  0.18843484360E+03  0.63765701011E+03  0.10063983581E+04  0.69963293986E+03 0.  0.
   -5000001    2    3    3    0    0 -0.39689387423E+02 -0.53225195285E+02  0.68552982561E+02  0.17425245088E+03  0.14579518625E+03 0.  0.
     200001    1    1    2    0    0  0.28502149374E+03 -0.18843484360E+03  0.37924015793E+03  0.86635329950E+03  0.70000000000E+03 0.  1.
         11    1    4    4    0    0 -0.85447450838E+02 -0.32220600728E+02  0.70875783016E+02  0.11559762361E+03  0.51100000000E-03 0.  1.
    -200002    1    4    4    0    0  0.45758063416E+02 -0.21004594558E+02 -0.23228004548E+01  0.58654827270E+02  0.30000000000E+02 0.  1.
    -200000    1    3    3    0    0 -0.24533210632E+03  0.24166003889E+03  0.56910402755E+03  0.83214590725E+03  0.50000000000E+03 0. -1.
<mgrwt>
<rscale>  0 0.15726153E+04</rscale>
<asrwt>0</asrwt>
<pdfrwt beam="1">  1        2 0.61132463E-01 0.15726153E+04</pdfrwt>
<pdfrwt beam="2">  1       -2 0.20640349E+00 0.15726153E+04</pdfrwt>
<totfact> 0.93166071E+00</totfact>
</mgrwt>
</event>
<event>
 8    2  0.2588871E-009  0.1662504E+04  0.7818608E-02  0.8783044E-01
         -2   -1    0    0    0  501 -0.00000000000E+00  0.00000000000E+00  0.56121172638E+03  0.56121172639E+03  0.25500000000E-02 0. -1.
          2   -1    0    0  501    0  0.00000000000E+00 -0.00000000000E+00 -0.12312279193E+04  0.12312279193E+04  0.25500000000E-02 0.  1.
    -200001    2    1    2    0    0  0.29698782063E+03  0.14281875906E+03 -0.65889614232E+03  0.10186679616E+04  0.70352066501E+03 0.  0.
   -5000001    2    3    3    0    0  0.12268180405E+03  0.65887038155E+01 -0.76370687619E+02  0.21974548681E+03  0.16541269897E+03 0.  0.
     200001    1    1    2    0    0 -0.29698782063E+03 -0.14281875906E+03 -0.11120050588E+02  0.77377168407E+03  0.70000000000E+03 0. -1.
         11    1    4    4    0    0  0.13192979283E+03  0.50304440461E+02 -0.21387405079E+02  0.14280556034E+03  0.51100000000E-03 0.  1.
    -200002    1    4    4    0    0 -0.92479887778E+01 -0.43715736645E+02 -0.54983282540E+02  0.76939926474E+02  0.30000000000E+02 0.  1.
    -200000    1    3    3    0    0  0.17430601658E+03  0.13623005525E+03 -0.58252545470E+03  0.79892247480E+03  0.50000000000E+03 0.  1.
<mgrwt>
<rscale>  0 0.16625036E+04</rscale>
<asrwt>0</asrwt>
<pdfrwt beam="1">  1        2 0.17588970E+00 0.16625036E+04</pdfrwt>
<pdfrwt beam="2">  1       -2 0.80173104E-01 0.16625036E+04</pdfrwt>
<totfact> 0.27001900E+01</totfact>
</mgrwt>
</event>
<event>
 8    2  0.2588871E-009  0.1980684E+04  0.7818608E-02  0.8615705E-01
          2   -1    0    0  501    0  0.00000000000E+00  0.00000000000E+00  0.19533619523E+04  0.19533619523E+04  0.25500000000E-02 0.  1.
         -2   -1    0    0    0  501 -0.00000000000E+00 -0.00000000000E+00 -0.50209686125E+03  0.50209686125E+03  0.25500000000E-02 0. -1.
    -200001    2    1    2    0    0 -0.69378731761E+03 -0.95407949430E+02  0.70788398488E+03  0.12172912207E+04  0.70018187719E+03 0.  0.
   -5000001    2    3    3    0    0 -0.18162040103E+03 -0.12202785040E+02  0.74609851513E+02  0.25798200166E+03  0.16689279554E+03 0.  0.
     200001    1    1    2    0    0  0.69378731761E+03  0.95407949430E+02  0.74338110618E+03  0.12381675928E+04  0.70000000000E+03 0.  1.
         11    1    4    4    0    0 -0.17619177124E+03  0.22416374087E+02  0.90801203537E+01  0.17784398405E+03  0.51100000000E-03 0.  1.
    -200002    1    4    4    0    0 -0.54286297972E+01 -0.34619159127E+02  0.65529731159E+02  0.80138017607E+02  0.30000000000E+02 0.  1.
    -200000    1    3    3    0    0 -0.51216691658E+03 -0.83205164391E+02  0.63327413336E+03  0.95930921908E+03  0.50000000000E+03 0. -1.
<mgrwt>
<rscale>  0 0.19806836E+04</rscale>
<asrwt>0</asrwt>
<pdfrwt beam="1">  1        2 0.27905171E+00 0.19806836E+04</pdfrwt>
<pdfrwt beam="2">  1       -2 0.71728121E-01 0.19806836E+04</pdfrwt>
<totfact> 0.13955045E+01</totfact>
</mgrwt>
</event>
<event>
 8    2  0.2588871E-009  0.1675118E+04  0.7818608E-02  0.8775684E-01
         -2   -1    0    0    0  501 -0.00000000000E+00  0.00000000000E+00  0.40416313150E+03  0.40416313151E+03  0.25500000000E-02 0. -1.
          2   -1    0    0  501    0  0.00000000000E+00 -0.00000000000E+00 -0.17356974075E+04  0.17356974075E+04  0.25500000000E-02 0.  1.
    -200001    2    1    2    0    0  0.20553081580E+03  0.35449484434E+03 -0.39901970584E+03  0.90394268798E+03  0.69999010464E+03 0.  0.
   -5000001    2    3    3    0    0  0.49726879070E+02  0.30595425714E+02 -0.23263183495E+03  0.26607857732E+03  0.11520154557E+03 0.  0.
     200001    1    1    2    0    0 -0.20553081580E+03 -0.35449484434E+03 -0.93251457011E+03  0.12359178510E+04  0.70000000000E+03 0. -1.
         11    1    4    4    0    0 -0.16486819870E+02  0.15501678665E+02 -0.16210469232E+03  0.16367665852E+03  0.51100000000E-03 0.  1.
    -200002    1    4    4    0    0  0.66213698940E+02  0.15093747050E+02 -0.70527142628E+02  0.10240191880E+03  0.30000000000E+02 0.  1.
    -200000    1    3    3    0    0  0.15580393673E+03  0.32389941862E+03 -0.16638787089E+03  0.63786411066E+03  0.50000000000E+03 0. -1.
<mgrwt>
<rscale>  0 0.16751178E+04</rscale>
<asrwt>0</asrwt>
<pdfrwt beam="1">  1        2 0.24795677E+00 0.16751178E+04</pdfrwt>
<pdfrwt beam="2">  1       -2 0.57737591E-01 0.16751178E+04</pdfrwt>
<totfact> 0.29493371E+01</totfact>
</mgrwt>
</event>
<event>
 8    2  0.2588871E-009  0.2341113E+04  0.7818608E-02  0.8461885E-01
         -2   -1    0    0    0  501 -0.00000000000E+00  0.00000000000E+00  0.13776551228E+04  0.13776551229E+04  0.25500000000E-02 0. -1.
          2   -1    0    0  501    0  0.00000000000E+00 -0.00000000000E+00 -0.99459034678E+03  0.99459034678E+03  0.25500000000E-02 0.  1.
    -200001    2    1    2    0    0  0.17440856882E+03 -0.22783723133E+03  0.10967209192E+04  0.13322294873E+04  0.69979316907E+03 0.  0.
   -5000001    2    3    3    0    0  0.58106170419E+02  0.24888254002E+02  0.36321071717E+03  0.40194263089E+03  0.16012526730E+03 0.  0.
     200001    1    1    2    0    0 -0.17440856882E+03  0.22783723133E+03 -0.71365614311E+03  0.10400159823E+04  0.70000000000E+03 0.  1.
         11    1    4    4    0    0  0.65340532335E+02  0.82768730436E+02  0.24550598005E+03  0.26719512373E+03  0.51100000000E-03 0.  1.
    -200002    1    4    4    0    0 -0.72343619160E+01 -0.57880476434E+02  0.11770473712E+03  0.13474750715E+03  0.30000000000E+02 0.  1.
    -200000    1    3    3    0    0  0.11630239840E+03 -0.25272548534E+03  0.73351020201E+03  0.93028685644E+03  0.50000000000E+03 0. -1.
<mgrwt>
<rscale>  0 0.23411130E+04</rscale>
<asrwt>0</asrwt>
<pdfrwt beam="1">  1        2 0.14208434E+00 0.23411130E+04</pdfrwt>
<pdfrwt beam="2">  1       -2 0.19680787E+00 0.23411130E+04</pdfrwt>
<totfact> 0.35870648E+00</totfact>
</mgrwt>
</event>
<event>
 8    2  0.2588871E-009  0.3523837E+04  0.7818608E-02  0.8108164E-01
         -2   -1    0    0    0  501 -0.00000000000E+00  0.00000000000E+00  0.13316564985E+04  0.13316564985E+04  0.25500000000E-02 0. -1.
          2   -1    0    0  501    0  0.00000000000E+00 -0.00000000000E+00 -0.23311991912E+04  0.23311991912E+04  0.25500000000E-02 0.  1.
    -200001    2    1    2    0    0 -0.65182818796E+03 -0.98706774201E+03  0.64560579186E+03  0.15190981823E+04  0.70119165360E+03 0.  0.
   -5000001    2    3    3    0    0 -0.11052195524E+03 -0.21260599078E+03 -0.66173519832E+01  0.26682086835E+03  0.11718863654E+03 0.  0.
     200001    1    1    2    0    0  0.65182818796E+03  0.98706774201E+03 -0.16451484846E+04  0.21437575073E+04  0.70000000000E+03 0.  1.
         11    1    4    4    0    0  0.53137489404E+01 -0.30350885494E+02  0.33084624311E+02  0.45210668477E+02  0.51100000000E-03 0.  1.
    -200002    1    4    4    0    0 -0.11583570418E+03 -0.18225510528E+03 -0.39701976294E+02  0.22161019987E+03  0.30000000000E+02 0.  1.
    -200000    1    3    3    0    0 -0.54130623272E+03 -0.77446175124E+03  0.65222314384E+03  0.12522773140E+04  0.50000000000E+03 0. -1.
<mgrwt>
<rscale>  0 0.35238369E+04</rscale>
<asrwt>0</asrwt>
<pdfrwt beam="1">  1        2 0.33302846E+00 0.35238369E+04</pdfrwt>
<pdfrwt beam="2">  1       -2 0.19023664E+00 0.35238369E+04</pdfrwt>
<totfact> 0.69140884E-01</totfact>
</mgrwt>
</event>
<event>
 8    2  0.2588871E-009  0.1959680E+04  0.7818608E-02  0.8625707E-01
          2   -1    0    0  501    0  0.00000000000E+00  0.00000000000E+00  0.23317125866E+04  0.23317125866E+04  0.25500000000E-02 0.  1.
         -2   -1    0    0    0  501 -0.00000000000E+00 -0.00000000000E+00 -0.41175169423E+03  0.41175169423E+03  0.25500000000E-02 0. -1.
    -200001    2    1    2    0    0  0.55770450054E+03  0.86329419832E+02  0.40876836023E+03  0.98500189913E+03  0.69616814802E+03 0.  0.
   -5000001    2    3    3    0    0  0.19863837080E+03  0.73684215355E+02  0.15658693252E+03  0.31965698166E+03  0.18103743409E+03 0.  0.
     200001    1    1    2    0    0 -0.55770450054E+03 -0.86329419832E+02  0.15111925321E+04  0.17584623817E+04  0.70000000000E+03 0.  1.
         11    1    4    4    0    0  0.98357647521E+02  0.12123840436E+03  0.12618375119E+03  0.20073693378E+03  0.51100000000E-03 0.  1.
    -200002    1    4    4    0    0  0.10028072328E+03 -0.47554189010E+02  0.30403181326E+02  0.11892004788E+03  0.30000000000E+02 0.  1.
    -200000    1    3    3    0    0  0.35906612974E+03  0.12645204478E+02  0.25218142771E+03  0.66534491747E+03  0.50000000000E+03 0. -1.
<mgrwt>
<rscale>  0 0.19596802E+04</rscale>
<asrwt>0</asrwt>
<pdfrwt beam="1">  1        2 0.33310180E+00 0.19596802E+04</pdfrwt>
<pdfrwt beam="2">  1       -2 0.58821670E-01 0.19596802E+04</pdfrwt>
<totfact> 0.13646874E+01</totfact>
</mgrwt>
</event>
<event>
 8    2  0.2588871E-009  0.1643379E+04  0.7818608E-02  0.8794333E-01
         -2   -1    0    0    0  501 -0.00000000000E+00  0.00000000000E+00  0.50288669703E+03  0.50288669704E+03  0.25500000000E-02 0.  1.
          2   -1    0    0  501    0  0.00000000000E+00 -0.00000000000E+00 -0.13425961091E+04  0.13425961091E+04  0.25500000000E-02 0. -1.
    -200001    2    1    2    0    0 -0.72923779021E+02 -0.20381815123E+03 -0.33058522941E+01  0.73353378252E+03  0.70085744993E+03 0.  0.
   -5000001    2    3    3    0    0 -0.50921174321E+02 -0.17131832437E+03  0.32207577821E+02  0.23074003050E+03  0.14234008341E+03 0.  0.
     200001    1    1    2    0    0  0.72923779021E+02  0.20381815123E+03 -0.83640355980E+03  0.11119490236E+04  0.70000000000E+03 0. -1.
         11    1    4    4    0    0  0.10604173745E+02 -0.87864165076E+02  0.73633818466E+02  0.11512818607E+03  0.51100000000E-03 0.  1.
    -200002    1    4    4    0    0 -0.61525348067E+02 -0.83454159293E+02 -0.41426240645E+02  0.11561184443E+03  0.30000000000E+02 0.  1.
    -200000    1    3    3    0    0 -0.22002604700E+02 -0.32499826860E+02 -0.35513430115E+02  0.50279375203E+03  0.50000000000E+03 0.  1.
<mgrwt>
<rscale>  0 0.16433791E+04</rscale>
<asrwt>0</asrwt>
<pdfrwt beam="1">  1        2 0.19179944E+00 0.16433791E+04</pdfrwt>
<pdfrwt beam="2">  1       -2 0.71840957E-01 0.16433791E+04</pdfrwt>
<totfact> 0.29918163E+01</totfact>
</mgrwt>
</event>
<event>
 8    2  0.2588871E-009  0.1618055E+04  0.7818608E-02  0.8809533E-01
          2   -1    0    0  501    0  0.00000000000E+00  0.00000000000E+00  0.19029293328E+04  0.19029293328E+04  0.25500000000E-02 0.  1.
         -2   -1    0    0    0  501 -0.00000000000E+00 -0.00000000000E+00 -0.34395662199E+03  0.34395662200E+03  0.25500000000E-02 0. -1.
    -200001    2    1    2    0    0 -0.23918073101E+03 -0.20533019900E+03  0.42483501299E+03  0.87734726227E+03  0.69991822211E+03 0.  0.
   -5000001    2    3    3    0    0 -0.66861024161E+02 -0.35438140337E+02  0.56042631005E+02  0.21059002461E+03  0.18836433747E+03 0.  0.
     200001    1    1    2    0    0  0.23918073101E+03  0.20533019900E+03  0.11341376978E+04  0.13695386925E+04  0.70000000000E+03 0.  1.
         11    1    4    4    0    0  0.64717653072E+02 -0.12525106492E+02  0.22510720048E+02  0.69656194478E+02  0.51100000000E-03 0.  1.
    -200002    1    4    4    0    0 -0.13157867723E+03 -0.22913033845E+02  0.33531910957E+02  0.14093383013E+03  0.30000000000E+02 0.  1.
    -200000    1    3    3    0    0 -0.17231970685E+03 -0.16989205867E+03  0.36879238198E+03  0.66675723766E+03  0.50000000000E+03 0. -1.
<mgrwt>
<rscale>  0 0.16180546E+04</rscale>
<asrwt>0</asrwt>
<pdfrwt beam="1">  1        2 0.27184705E+00 0.16180546E+04</pdfrwt>
<pdfrwt beam="2">  1       -2 0.49136660E-01 0.16180546E+04</pdfrwt>
<totfact> 0.33871191E+01</totfact>
</mgrwt>
</event>
<event>
 8    2  0.2588871E-009  0.1725649E+04  0.7818608E-02  0.8746870E-01
          2   -1    0    0  501    0  0.00000000000E+00  0.00000000000E+00  0.37039124821E+04  0.37039124821E+04  0.25500000000E-02 0.  1.
         -2   -1    0    0    0  501 -0.00000000000E+00 -0.00000000000E+00 -0.20099442486E+03  0.20099442488E+03  0.25500000000E-02 0. -1.
    -200001    2    1    2    0    0 -0.59564637480E+02 -0.43431690340E+03  0.23154036975E+04  0.24584044102E+04  0.70034194724E+03 0.  0.
   -5000001    2    3    3    0    0 -0.37776698311E+02 -0.85886629855E+02  0.81323577600E+03  0.83717437279E+03  0.17522816829E+03 0.  0.
     200001    1    1    2    0    0  0.59564637480E+02  0.43431690340E+03  0.11875143598E+04  0.14465024968E+04  0.70000000000E+03 0.  1.
         11    1    4    4    0    0 -0.38831980800E+02 -0.51050185827E+02  0.80184047470E+02  0.10268167156E+03  0.51100000000E-03 0.  1.
    -200002    1    4    4    0    0  0.10552824893E+01 -0.34836444028E+02  0.73305172853E+03  0.73449270123E+03  0.30000000000E+02 0.  1.
    -200000    1    3    3    0    0 -0.21787939169E+02 -0.34843027355E+03  0.15021679215E+04  0.16212300374E+04  0.50000000000E+03 0. -1.
<mgrwt>
<rscale>  0 0.17256486E+04</rscale>
<asrwt>0</asrwt>
<pdfrwt beam="1">  1        2 0.52913035E+00 0.17256486E+04</pdfrwt>
<pdfrwt beam="2">  1       -2 0.28713489E-01 0.17256486E+04</pdfrwt>
<totfact> 0.95664199E+00</totfact>
</mgrwt>
</event>
<event>
 8    2  0.2588871E-009  0.2024300E+04  0.7818608E-02  0.8595343E-01
         -2   -1    0    0    0  501 -0.00000000000E+00  0.00000000000E+00  0.38875261445E+03  0.38875261446E+03  0.25500000000E-02 0. -1.
          2   -1    0    0  501    0  0.00000000000E+00 -0.00000000000E+00 -0.26352174584E+04  0.26352174584E+04  0.25500000000E-02 0.  1.
    -200001    2    1    2    0    0 -0.13643354173E+02  0.67976430449E+03 -0.71859348843E+03  0.12110562498E+04  0.69858069529E+03 0.  0.
   -5000001    2    3    3    0    0  0.20457969752E+01  0.10652100896E+03 -0.23151518811E+03  0.30767410699E+03  0.17237506535E+03 0.  0.
     200001    1    1    2    0    0  0.13643354173E+02 -0.67976430449E+03 -0.15278713555E+04  0.18129138230E+04  0.70000000000E+03 0.  1.
         11    1    4    4    0    0  0.65177768058E+02 -0.95880641398E+01 -0.92165682996E+02  0.11328982984E+03  0.51100000000E-03 0.  1.
    -200002    1    4    4    0    0 -0.63131971083E+02  0.11610907310E+03 -0.13934950511E+03  0.19438427715E+03  0.30000000000E+02 0.  1.
    -200000    1    3    3    0    0 -0.15689151149E+02  0.57324329552E+03 -0.48707830033E+03  0.90338214283E+03  0.50000000000E+03 0. -1.
<mgrwt>
<rscale>  0 0.20243001E+04</rscale>
<asrwt>0</asrwt>
<pdfrwt beam="1">  1        2 0.37645963E+00 0.20243001E+04</pdfrwt>
<pdfrwt beam="2">  1       -2 0.55536089E-01 0.20243001E+04</pdfrwt>
<totfact> 0.10594511E+01</totfact>
</mgrwt>
</event>
<event>
 8    2  0.2588871E-009  0.1471987E+04  0.7818608E-02  0.8903298E-01
         -2   -1    0    0    0  501 -0.00000000000E+00  0.00000000000E+00  0.55657678308E+03  0.55657678309E+03  0.25500000000E-02 0.  1.
          2   -1    0    0  501    0  0.00000000000E+00 -0.00000000000E+00 -0.97324710171E+03  0.97324710171E+03  0.25500000000E-02 0. -1.
    -200001    2    1    2    0    0  0.15046536864E+01  0.68152458620E+02  0.17872053980E+02  0.70309896369E+03  0.69955823262E+03 0.  0.
   -5000001    2    3    3    0    0  0.63858681794E+01 -0.22001554853E+02  0.37923467460E+02  0.19461727121E+03  0.18950684721E+03 0.  0.
     200001    1    1    2    0    0 -0.15046536864E+01 -0.68152458620E+02 -0.43454237261E+03  0.82672492111E+03  0.70000000000E+03 0. -1.
         11    1    4    4    0    0 -0.55286682431E+02 -0.82529752331E+02  0.16968916106E+02  0.10077559917E+03  0.51100000000E-03 0.  1.
    -200002    1    4    4    0    0  0.61672550611E+02  0.60528197478E+02  0.20954551355E+02  0.93841672040E+02  0.30000000000E+02 0.  1.
    -200000    1    3    3    0    0 -0.48812144930E+01  0.90154013473E+02 -0.20051413480E+02  0.50848169248E+03  0.50000000000E+03 0. -1.
<mgrwt>
<rscale>  0 0.14719874E+04</rscale>
<asrwt>0</asrwt>
<pdfrwt beam="1">  1        2 0.13903530E+00 0.14719874E+04</pdfrwt>
<pdfrwt beam="2">  1       -2 0.79510969E-01 0.14719874E+04</pdfrwt>
<totfact> 0.39681283E+01</totfact>
</mgrwt>
</event>
<event>
 8    2  0.2588871E-009  0.1963585E+04  0.7818608E-02  0.8623838E-01
         -2   -1    0    0    0  501 -0.00000000000E+00  0.00000000000E+00  0.53652905100E+03  0.53652905101E+03  0.25500000000E-02 0. -1.
          2   -1    0    0  501    0  0.00000000000E+00 -0.00000000000E+00 -0.17965783465E+04  0.17965783465E+04  0.25500000000E-02 0.  1.
    -200001    2    1    2    0    0 -0.30811846718E+03 -0.52145254871E+03 -0.24146413596E+03  0.95674789593E+03  0.70015131010E+03 0.  0.
   -5000001    2    3    3    0    0 -0.38218743471E+02 -0.73719116404E+02 -0.83736412601E+02  0.21634994754E+03  0.18138448812E+03 0.  0.
     200001    1    1    2    0    0  0.30811846718E+03  0.52145254871E+03 -0.10185851595E+04  0.13763595016E+04  0.70000000000E+03 0.  1.
         11    1    4    4    0    0 -0.59065368752E+02  0.43930546632E+02 -0.14466313963E+02  0.75019230556E+02  0.51100000000E-03 0.  1.
    -200002    1    4    4    0    0  0.20846625281E+02 -0.11764966304E+03 -0.69270098638E+02  0.14133071698E+03  0.30000000000E+02 0.  1.
    -200000    1    3    3    0    0 -0.26989972371E+03 -0.44773343231E+03 -0.15772772336E+03  0.74039794839E+03  0.50000000000E+03 0. -1.
<mgrwt>
<rscale>  0 0.19635850E+04</rscale>
<asrwt>0</asrwt>
<pdfrwt beam="1">  1        2 0.25665405E+00 0.19635850E+04</pdfrwt>
<pdfrwt beam="2">  1       -2 0.76647008E-01 0.19635850E+04</pdfrwt>
<totfact> 0.14540572E+01</totfact>
</mgrwt>
</event>
<event>
 8    2  0.2588871E-009  0.1821275E+04  0.7818608E-02  0.8695067E-01
          2   -1    0    0  501    0  0.00000000000E+00  0.00000000000E+00  0.80357682515E+03  0.80357682516E+03  0.25500000000E-02 0.  1.
         -2   -1    0    0    0  501 -0.00000000000E+00 -0.00000000000E+00 -0.10319622174E+04  0.10319622174E+04  0.25500000000E-02 0. -1.
    -200001    2    1    2    0    0  0.45725843368E+03 -0.27306703398E+03 -0.35168242624E+03  0.94736505129E+03  0.70012079762E+03 0.  0.
   -5000001    2    3    3    0    0  0.15378913785E+03 -0.12539340450E+03 -0.73468579322E+02  0.28305784903E+03  0.18801465086E+03 0.  0.
     200001    1    1    2    0    0 -0.45725843368E+03  0.27306703398E+03  0.12329703397E+03  0.88817399129E+03  0.70000000000E+03 0.  1.
         11    1    4    4    0    0  0.45708531678E+01 -0.64399655237E+02 -0.97905729985E+02  0.11727634142E+03  0.51100000000E-03 0.  1.
    -200002    1    4    4    0    0  0.14921828468E+03 -0.60993749264E+02  0.24437150662E+02  0.16578150761E+03  0.30000000000E+02 0.  1.
    -200000    1    3    3    0    0  0.30346929584E+03 -0.14767362948E+03 -0.27821384691E+03  0.66430720226E+03  0.50000000000E+03 0. -1.
<mgrwt>
<rscale>  0 0.18212753E+04</rscale>
<asrwt>0</asrwt>
<pdfrwt beam="1">  1        2 0.11479669E+00 0.18212753E+04</pdfrwt>
<pdfrwt beam="2">  1       -2 0.14742317E+00 0.18212753E+04</pdfrwt>
<totfact> 0.11204289E+01</totfact>
</mgrwt>
</event>
<event>
 8    2  0.2588871E-009  0.1668413E+04  0.7818608E-02  0.8779588E-01
          2   -1    0    0  501    0  0.00000000000E+00  0.00000000000E+00  0.27545551512E+04  0.27545551512E+04  0.25500000000E-02 0.  1.
         -2   -1    0    0    0  501 -0.00000000000E+00 -0.00000000000E+00 -0.25263613704E+03  0.25263613705E+03  0.25500000000E-02 0. -1.
    -200001    2    1    2    0    0  0.22913938200E+03  0.22642814351E+03  0.70998602800E+03  0.10566020472E+04  0.71312913667E+03 0.  0.
   -5000001    2    3    3    0    0  0.22961476136E+02  0.10033116987E+03  0.11712309828E+03  0.24426207581E+03  0.18802278717E+03 0.  0.
     200001    1    1    2    0    0 -0.22913938200E+03 -0.22642814351E+03  0.17919329862E+04  0.19505892411E+04  0.70000000000E+03 0.  1.
         11    1    4    4    0    0  0.50233199434E+02  0.94486000100E+02 -0.13044516940E+02  0.10780138201E+03  0.51100000000E-03 0.  1.
    -200002    1    4    4    0    0 -0.27271723297E+02  0.58451697660E+01  0.13016761522E+03  0.13646069380E+03  0.30000000000E+02 0.  1.
    -200000    1    3    3    0    0  0.20617790587E+03  0.12609697364E+03  0.59286292972E+03  0.81233997136E+03  0.50000000000E+03 0. -1.
<mgrwt>
<rscale>  0 0.16684126E+04</rscale>
<asrwt>0</asrwt>
<pdfrwt beam="1">  1        2 0.39350786E+00 0.16684126E+04</pdfrwt>
<pdfrwt beam="2">  1       -2 0.36090879E-01 0.16684126E+04</pdfrwt>
<totfact> 0.22281865E+01</totfact>
</mgrwt>
</event>
<event>
 8    2  0.2588871E-009  0.1925274E+04  0.7818608E-02  0.8642377E-01
         -2   -1    0    0    0  501 -0.00000000000E+00  0.00000000000E+00  0.36535686160E+03  0.36535686161E+03  0.25500000000E-02 0. -1.
          2   -1    0    0  501    0  0.00000000000E+00 -0.00000000000E+00 -0.25363422104E+04  0.25363422104E+04  0.25500000000E-02 0.  1.
    -200001    2    1    2    0    0  0.42824512616E+03 -0.39990284486E+03 -0.62440539597E+03  0.11058077268E+04  0.69972312858E+03 0.  0.
   -5000001    2    3    3    0    0  0.13665363937E+03 -0.67368387840E+02 -0.16064289545E+03  0.29298522637E+03  0.19188925499E+03 0.  0.
     200001    1    1    2    0    0 -0.42824512616E+03  0.39990284486E+03 -0.15465799528E+04  0.17958913452E+04  0.70000000000E+03 0.  1.
         11    1    4    4    0    0 -0.23363583034E+02 -0.67083672271E+02 -0.92167945859E+02  0.11636582979E+03  0.51100000000E-03 0.  1.
    -200002    1    4    4    0    0  0.16001722241E+03 -0.28471556859E+00 -0.68474949589E+02  0.17661939659E+03  0.30000000000E+02 0.  1.
    -200000    1    3    3    0    0  0.29159148679E+03 -0.33253445702E+03 -0.46376250052E+03  0.81282250040E+03  0.50000000000E+03 0.  1.
<mgrwt>
<rscale>  0 0.19252740E+04</rscale>
<asrwt>0</asrwt>
<pdfrwt beam="1">  1        2 0.36233459E+00 0.19252740E+04</pdfrwt>
<pdfrwt beam="2">  1       -2 0.52193839E-01 0.19252740E+04</pdfrwt>
<totfact> 0.13707022E+01</totfact>
</mgrwt>
</event>
<event>
 8    2  0.2588871E-009  0.1514296E+04  0.7818608E-02  0.8875002E-01
          2   -1    0    0  501    0  0.00000000000E+00  0.00000000000E+00  0.14672041687E+04  0.14672041687E+04  0.25500000000E-02 0.  1.
         -2   -1    0    0    0  501 -0.00000000000E+00 -0.00000000000E+00 -0.39072459455E+03  0.39072459456E+03  0.25500000000E-02 0. -1.
    -200001    2    1    2    0    0  0.54377318615E+02 -0.28274687259E+03  0.51616490004E+03  0.91619885466E+03  0.70006531874E+03 0.  0.
   -5000001    2    3    3    0    0 -0.10102484147E+03 -0.73587057034E+02  0.75764613464E+02  0.20076187475E+03  0.13763713213E+03 0.  0.
     200001    1    1    2    0    0 -0.54377318615E+02  0.28274687259E+03  0.56031467413E+03  0.94172990861E+03  0.70000000000E+03 0.  1.
         11    1    4    4    0    0 -0.47411029860E+02  0.35678625570E+02  0.13754052064E+02  0.60909309825E+02  0.51100000000E-03 0.  1.
    -200002    1    4    4    0    0 -0.53613811612E+02 -0.10926568260E+03  0.62010561400E+02  0.13985256492E+03  0.30000000000E+02 0.  1.
    -200000    1    3    3    0    0  0.15540216009E+03 -0.20915981555E+03  0.44040028658E+03  0.71543697991E+03  0.50000000000E+03 0. -1.
<mgrwt>
<rscale>  0 0.15142956E+04</rscale>
<asrwt>0</asrwt>
<pdfrwt beam="1">  1        2 0.20960059E+00 0.15142956E+04</pdfrwt>
<pdfrwt beam="2">  1       -2 0.55817800E-01 0.15142956E+04</pdfrwt>
<totfact> 0.44353581E+01</totfact>
</mgrwt>
</event>
<event>
 8    2  0.2588871E-009  0.2054330E+04  0.7818608E-02  0.8581633E-01
          2   -1    0    0  501    0  0.00000000000E+00  0.00000000000E+00  0.22372615412E+04  0.22372615412E+04  0.25500000000E-02 0.  1.
         -2   -1    0    0    0  501 -0.00000000000E+00 -0.00000000000E+00 -0.47158885772E+03  0.47158885772E+03  0.25500000000E-02 0. -1.
    -200001    2    1    2    0    0  0.14536013496E+03  0.33780275510E+03  0.15858951600E+02  0.78867114519E+03  0.69750297398E+03 0.  0.
   -5000001    2    3    3    0    0 -0.47975136810E+02  0.14947131915E+03 -0.21078475816E+02  0.21927529815E+03  0.15163794128E+03 0.  0.
     200001    1    1    2    0    0 -0.14536013496E+03 -0.33780275510E+03  0.17498137319E+04  0.19201792537E+04  0.70000000000E+03 0.  1.
         11    1    4    4    0    0 -0.38133841603E+02  0.11451093283E+03  0.52734571834E+02  0.13171134605E+03  0.51100000000E-03 0.  1.
    -200002    1    4    4    0    0 -0.98412952079E+01  0.34960386325E+02 -0.73813047650E+02  0.87563952097E+02  0.30000000000E+02 0.  1.
    -200000    1    3    3    0    0  0.19333527177E+03  0.18833143595E+03  0.36937427416E+02  0.56939584704E+03  0.50000000000E+03 0. -1.
<mgrwt>
<rscale>  0 0.20543297E+04</rscale>
<asrwt>0</asrwt>
<pdfrwt beam="1">  1        2 0.31960879E+00 0.20543297E+04</pdfrwt>
<pdfrwt beam="2">  1       -2 0.67369838E-01 0.20543297E+04</pdfrwt>
<totfact> 0.11349662E+01</totfact>
</mgrwt>
</event>
<event>
 8    2  0.2588871E-009  0.1475952E+04  0.7818608E-02  0.8900604E-01
         -2   -1    0    0    0  501 -0.00000000000E+00  0.00000000000E+00  0.15509198250E+04  0.15509198250E+04  0.25500000000E-02 0. -1.
          2   -1    0    0  501    0  0.00000000000E+00 -0.00000000000E+00 -0.35115178535E+03  0.35115178536E+03  0.25500000000E-02 0.  1.
    -200001    2    1    2    0    0  0.13888705354E+03  0.16450398685E+03  0.48857063256E+03  0.88121269396E+03  0.70105875193E+03 0.  0.
   -5000001    2    3    3    0    0  0.14685336440E+02  0.13478728093E+03  0.75766375852E+02  0.22036739928E+03  0.15632650686E+03 0.  0.
     200001    1    1    2    0    0 -0.13888705354E+03 -0.16450398685E+03  0.71119740706E+03  0.10208589164E+04  0.70000000000E+03 0.  1.
         11    1    4    4    0    0  0.46468106445E+02 -0.80205322560E+01 -0.99183487701E+01  0.48187005477E+02  0.51100000000E-03 0.  1.
    -200002    1    4    4    0    0 -0.31782770004E+02  0.14280781319E+03  0.85684724622E+02  0.17218039380E+03  0.30000000000E+02 0.  1.
    -200000    1    3    3    0    0  0.12420171710E+03  0.29716705923E+02  0.41280425671E+03  0.66084529468E+03  0.50000000000E+03 0. -1.
<mgrwt>
<rscale>  0 0.14759516E+04</rscale>
<asrwt>0</asrwt>
<pdfrwt beam="1">  1        2 0.50164540E-01 0.14759516E+04</pdfrwt>
<pdfrwt beam="2">  1       -2 0.22155998E+00 0.14759516E+04</pdfrwt>
<totfact> 0.93704676E+00</totfact>
</mgrwt>
</event>
<event>
 8    2  0.2588871E-009  0.1414951E+04  0.7818608E-02  0.8943067E-01
          2   -1    0    0  501    0  0.00000000000E+00  0.00000000000E+00  0.45999439476E+04  0.45999439476E+04  0.25500000000E-02 0.  1.
         -2   -1    0    0    0  501 -0.00000000000E+00 -0.00000000000E+00 -0.10881032552E+03  0.10881032555E+03  0.25500000000E-02 0. -1.
    -200001    2    1    2    0    0 -0.55186424749E+02 -0.16689301751E+02  0.19692767734E+04  0.20909143163E+04  0.70039102914E+03 0.  0.
   -5000001    2    3    3    0    0 -0.50092464698E+02  0.45977970511E+02  0.59533740787E+03  0.62747230668E+03  0.18620321600E+03 0.  0.
     200001    1    1    2    0    0  0.55186424749E+02  0.16689301751E+02  0.25218568487E+04  0.26178399568E+04  0.70000000000E+03 0.  1.
         11    1    4    4    0    0 -0.90066336539E+02  0.74956205997E+02  0.51713578000E+03  0.53024503086E+03  0.51100000000E-03 0.  1.
    -200002    1    4    4    0    0  0.39973871841E+02 -0.28978235487E+02  0.78201627868E+02  0.97227275819E+02  0.30000000000E+02 0.  1.
    -200000    1    3    3    0    0 -0.50939600509E+01 -0.62667272262E+02  0.13739393655E+04  0.14634420096E+04  0.50000000000E+03 0. -1.
<mgrwt>
<rscale>  0 0.14149507E+04</rscale>
<asrwt>0</asrwt>
<pdfrwt beam="1">  1        2 0.65713491E+00 0.14149507E+04</pdfrwt>
<pdfrwt beam="2">  1       -2 0.15544331E-01 0.14149507E+04</pdfrwt>
<totfact> 0.67055392E+00</totfact>
</mgrwt>
</event>
<event>
 8    2  0.2588871E-009  0.1534678E+04  0.7818608E-02  0.8861714E-01
         -2   -1    0    0    0  501 -0.00000000000E+00  0.00000000000E+00  0.96497875091E+03  0.96497875091E+03  0.25500000000E-02 0. -1.
          2   -1    0    0  501    0  0.00000000000E+00 -0.00000000000E+00 -0.61017833388E+03  0.61017833388E+03  0.25500000000E-02 0.  1.
    -200001    2    1    2    0    0 -0.19999364266E+03  0.23294944335E+03  0.11091688246E+03  0.77282169439E+03  0.70049119641E+03 0.  0.
   -5000001    2    3    3    0    0 -0.11880773780E+02  0.11075291192E+03  0.79899113843E+02  0.22393140872E+03  0.17707074048E+03 0.  0.
     200001    1    1    2    0    0  0.19999364266E+03 -0.23294944335E+03  0.24388353457E+03  0.80233539041E+03  0.70000000000E+03 0. -1.
         11    1    4    4    0    0  0.53523635851E+02 -0.93690947218E+01  0.62518244896E+02  0.82831699703E+02  0.51100000000E-03 0.  1.
    -200002    1    4    4    0    0 -0.65404409631E+02  0.12012200664E+03  0.17380868947E+02  0.14109970902E+03  0.30000000000E+02 0.  1.
    -200000    1    3    3    0    0 -0.18811286889E+03  0.12219653143E+03  0.31017768616E+02  0.54889028567E+03  0.50000000000E+03 0.  1.
<mgrwt>
<rscale>  0 0.15346780E+04</rscale>
<asrwt>0</asrwt>
<pdfrwt beam="1">  1        2 0.87168334E-01 0.15346780E+04</pdfrwt>
<pdfrwt beam="2">  1       -2 0.13785411E+00 0.15346780E+04</pdfrwt>
<totfact> 0.19193077E+01</totfact>
</mgrwt>
</event>
<event>
 8    2  0.2588871E-009  0.1569197E+04  0.7818608E-02  0.8839698E-01
         -2   -1    0    0    0  501 -0.00000000000E+00  0.00000000000E+00  0.16492419217E+03  0.16492419219E+03  0.25500000000E-02 0. -1.
          2   -1    0    0  501    0  0.00000000000E+00 -0.00000000000E+00 -0.37325928924E+04  0.37325928924E+04  0.25500000000E-02 0.  1.
    -200001    2    1    2    0    0  0.30272978997E+03  0.18032348721E+03 -0.16893413802E+04  0.18622590157E+04  0.69998032609E+03 0.  0.
   -5000001    2    3    3    0    0  0.15225278982E+03  0.16285423572E+03 -0.74122527936E+03  0.77972834962E+03  0.94122103366E+02 0.  0.
     200001    1    1    2    0    0 -0.30272978997E+03 -0.18032348721E+03 -0.18783273201E+04  0.20352580689E+04  0.70000000000E+03 0.  1.
         11    1    4    4    0    0  0.68816661359E+02  0.17469449538E+02 -0.19185211239E+03  0.20456819786E+03  0.51100000000E-03 0.  1.
    -200002    1    4    4    0    0  0.83436128460E+02  0.14538478618E+03 -0.54937316697E+03  0.57516015176E+03  0.30000000000E+02 0.  1.
    -200000    1    3    3    0    0  0.15047700015E+03  0.17469251493E+02 -0.94811610080E+03  0.10825306660E+04  0.50000000000E+03 0. -1.
<mgrwt>
<rscale>  0 0.15691971E+04</rscale>
<asrwt>0</asrwt>
<pdfrwt beam="1">  1        2 0.53322750E+00 0.15691971E+04</pdfrwt>
<pdfrwt beam="2">  1       -2 0.23560601E-01 0.15691971E+04</pdfrwt>
<totfact> 0.13358511E+01</totfact>
</mgrwt>
</event>
<event>
 8    2  0.2588871E-009  0.1811455E+04  0.7818608E-02  0.8700231E-01
         -2   -1    0    0    0  501 -0.00000000000E+00  0.00000000000E+00  0.18336069479E+04  0.18336069479E+04  0.25500000000E-02 0. -1.
          2   -1    0    0  501    0  0.00000000000E+00 -0.00000000000E+00 -0.44739267280E+03  0.44739267281E+03  0.25500000000E-02 0.  1.
    -200001    2    1    2    0    0  0.25494749192E+01 -0.11188050260E+02 -0.14375178593E+02  0.71518274443E+03  0.71494617970E+03 0.  0.
   -5000001    2    3    3    0    0 -0.48415114552E+02  0.33708387061E+02  0.92467929752E+01  0.21003813443E+03  0.20137089179E+03 0.  0.
     200001    1    1    2    0    0 -0.25494749192E+01  0.11188050260E+02  0.14005894537E+04  0.15658168763E+04  0.70000000000E+03 0. -1.
         11    1    4    4    0    0 -0.92597908842E+02  0.59565428406E+02  0.65636303600E+02  0.12818165756E+03  0.51100000000E-03 0.  1.
    -200002    1    4    4    0    0  0.44182794290E+02 -0.25857041344E+02 -0.56389510625E+02  0.81856476878E+02  0.30000000000E+02 0.  1.
    -200000    1    3    3    0    0  0.50964589472E+02 -0.44896437321E+02 -0.23621971568E+02  0.50514460999E+03  0.50000000000E+03 0.  1.
<mgrwt>
<rscale>  0 0.18114550E+04</rscale>
<asrwt>0</asrwt>
<pdfrwt beam="1">  1        2 0.63913239E-01 0.18114550E+04</pdfrwt>
<pdfrwt beam="2">  1       -2 0.26194385E+00 0.18114550E+04</pdfrwt>
<totfact> 0.39149545E+00</totfact>
</mgrwt>
</event>
<event>
 8    2  0.2588871E-009  0.1484835E+04  0.7818608E-02  0.8894600E-01
          2   -1    0    0  501    0  0.00000000000E+00  0.00000000000E+00  0.66966021010E+03  0.66966021010E+03  0.25500000000E-02 0.  1.
         -2   -1    0    0    0  501 -0.00000000000E+00 -0.00000000000E+00 -0.82307994271E+03  0.82307994271E+03  0.25500000000E-02 0. -1.
    -200001    2    1    2    0    0  0.17322388984E+03  0.17416011265E+03 -0.48443396674E+02  0.74350167812E+03  0.70007836836E+03 0.  0.
   -5000001    2    3    3    0    0 -0.49894555680E+02 -0.63431381584E+01  0.27293169396E+02  0.16203861676E+03  0.15159780387E+03 0.  0.
     200001    1    1    2    0    0 -0.17322388984E+03 -0.17416011265E+03 -0.10497633594E+03  0.74923847469E+03  0.70000000000E+03 0. -1.
         11    1    4    4    0    0  0.38775518640E+02  0.25954659422E+02 -0.21814289227E+02  0.51507750934E+02  0.51100000000E-03 0.  1.
    -200002    1    4    4    0    0 -0.88670074321E+02 -0.32297797580E+02  0.49107458623E+02  0.11053086583E+03  0.30000000000E+02 0.  1.
    -200000    1    3    3    0    0  0.22311844552E+03  0.18050325081E+03 -0.75736566070E+02  0.58146306136E+03  0.50000000000E+03 0. -1.
<mgrwt>
<rscale>  0 0.14848352E+04</rscale>
<asrwt>0</asrwt>
<pdfrwt beam="1">  1        2 0.95665745E-01 0.14848352E+04</pdfrwt>
<pdfrwt beam="2">  1       -2 0.11758285E+00 0.14848352E+04</pdfrwt>
<totfact> 0.25722935E+01</totfact>
</mgrwt>
</event>
<event>
 8    2  0.2588871E-009  0.1460014E+04  0.7818608E-02  0.8911487E-01
          2   -1    0    0  501    0  0.00000000000E+00  0.00000000000E+00  0.16291349874E+04  0.16291349874E+04  0.25500000000E-02 0.  1.
         -2   -1    0    0    0  501 -0.00000000000E+00 -0.00000000000E+00 -0.32711230688E+03  0.32711230689E+03  0.25500000000E-02 0. -1.
    -200001    2    1    2    0    0 -0.20143174465E+03 -0.34999139588E+02  0.61680097983E+03  0.95558328145E+03  0.70063990148E+03 0.  0.
   -5000001    2    3    3    0    0  0.32726115849E+02 -0.26794998118E+02  0.62214669885E+02  0.17298300880E+03  0.15576740867E+03 0.  0.
     200001    1    1    2    0    0  0.20143174465E+03  0.34999139588E+02  0.68522170071E+03  0.10006640129E+04  0.70000000000E+03 0.  1.
         11    1    4    4    0    0  0.31995097735E+02 -0.86894377355E+02  0.48084288853E+02  0.10433799849E+03  0.51100000000E-03 0.  1.
    -200002    1    4    4    0    0  0.73101811315E+00  0.60099379237E+02  0.14130381032E+02  0.68645010309E+02  0.30000000000E+02 0.  1.
    -200000    1    3    3    0    0 -0.23415786050E+03 -0.82041414705E+01  0.55458630995E+03  0.78260027265E+03  0.50000000000E+03 0. -1.
<mgrwt>
<rscale>  0 0.14600138E+04</rscale>
<asrwt>0</asrwt>
<pdfrwt beam="1">  1        2 0.23273357E+00 0.14600138E+04</pdfrwt>
<pdfrwt beam="2">  1       -2 0.46730330E-01 0.14600138E+04</pdfrwt>
<totfact> 0.52604984E+01</totfact>
</mgrwt>
</event>
<event>
 8    2  0.2588871E-009  0.1992855E+04  0.7818608E-02  0.8609968E-01
         -2   -1    0    0    0  501 -0.00000000000E+00  0.00000000000E+00  0.57669372798E+03  0.57669372799E+03  0.25500000000E-02 0.  1.
          2   -1    0    0  501    0  0.00000000000E+00 -0.00000000000E+00 -0.17216552465E+04  0.17216552465E+04  0.25500000000E-02 0. -1.
    -200001    2    1    2    0    0  0.36852366342E+03 -0.45885369325E+03 -0.11728737160E+03  0.92267802743E+03  0.70087232251E+03 0.  0.
   -5000001    2    3    3    0    0  0.11957646025E+03 -0.77203532879E+02  0.22216835468E+02  0.23195885247E+03  0.18180320713E+03 0.  0.
     200001    1    1    2    0    0 -0.36852366342E+03  0.45885369325E+03 -0.10276741469E+04  0.13756709470E+04  0.70000000000E+03 0. -1.
         11    1    4    4    0    0  0.59947650381E+02 -0.12783699491E+03 -0.11466616008E+02  0.14165980847E+03  0.51100000000E-03 0.  1.
    -200002    1    4    4    0    0  0.59628809872E+02  0.50633462026E+02  0.33683451476E+02  0.90299043998E+02  0.30000000000E+02 0.  1.
    -200000    1    3    3    0    0  0.24894720317E+03 -0.38165016038E+03 -0.13950420706E+03  0.69071917497E+03  0.50000000000E+03 0. -1.
<mgrwt>
<rscale>  0 0.19928550E+04</rscale>
<asrwt>0</asrwt>
<pdfrwt beam="1">  1        2 0.24595075E+00 0.19928550E+04</pdfrwt>
<pdfrwt beam="2">  1       -2 0.82384819E-01 0.19928550E+04</pdfrwt>
<totfact> 0.13492030E+01</totfact>
</mgrwt>
</event>
<event>
 8    2  0.2588871E-009  0.1665705E+04  0.7818608E-02  0.8781169E-01
         -2   -1    0    0    0  501 -0.00000000000E+00  0.00000000000E+00  0.20329318390E+04  0.20329318390E+04  0.25500000000E-02 0. -1.
          2   -1    0    0  501    0  0.00000000000E+00 -0.00000000000E+00 -0.34120341911E+03  0.34120341912E+03  0.25500000000E-02 0.  1.
    -200001    2    1    2    0    0  0.96833785926E+02  0.19217534405E+02  0.21820108673E+03  0.73980698716E+03  0.69996897665E+03 0.  0.
   -5000001    2    3    3    0    0  0.11184407952E+02 -0.87793861924E+02  0.10440973005E+03  0.20901915031E+03  0.15797075772E+03 0.  0.
     200001    1    1    2    0    0 -0.96833785926E+02 -0.19217534405E+02  0.14735273332E+04  0.16343282710E+04  0.70000000000E+03 0. -1.
         11    1    4    4    0    0  0.95101375595E+01  0.40648209343E+02  0.15995857270E+01  0.41776528265E+02  0.51100000000E-03 0.  1.
    -200002    1    4    4    0    0  0.16742703929E+01 -0.12844207127E+03  0.10281014433E+03  0.16724262205E+03  0.30000000000E+02 0.  1.
    -200000    1    3    3    0    0  0.85649377974E+02  0.10701139633E+03  0.11379135668E+03  0.53078783685E+03  0.50000000000E+03 0.  1.
<mgrwt>
<rscale>  0 0.16657050E+04</rscale>
<asrwt>0</asrwt>
<pdfrwt beam="1">  1        2 0.48743346E-01 0.16657050E+04</pdfrwt>
<pdfrwt beam="2">  1       -2 0.29041883E+00 0.16657050E+04</pdfrwt>
<totfact> 0.36014453E+00</totfact>
</mgrwt>
</event>
<event>
 8    2  0.2588871E-009  0.1406163E+04  0.7818608E-02  0.8949370E-01
          2   -1    0    0  501    0  0.00000000000E+00  0.00000000000E+00  0.13094767334E+04  0.13094767334E+04  0.25500000000E-02 0.  1.
         -2   -1    0    0    0  501 -0.00000000000E+00 -0.00000000000E+00 -0.37749694245E+03  0.37749694246E+03  0.25500000000E-02 0. -1.
    -200001    2    1    2    0    0  0.70992712050E+02 -0.34155808546E+01  0.50032531655E+03  0.86151791290E+03  0.69773638325E+03 0.  0.
   -5000001    2    3    3    0    0 -0.80089264607E+02  0.20710043070E+02  0.15055833200E+03  0.23243544384E+03  0.15657339502E+03 0.  0.
     200001    1    1    2    0    0 -0.70992712050E+02  0.34155808546E+01  0.43165447443E+03  0.82545576299E+03  0.70000000000E+03 0. -1.
         11    1    4    4    0    0  0.18817435867E+02 -0.29879121493E+02 -0.83045210290E+01  0.36274272750E+02  0.51100000000E-03 0.  1.
    -200002    1    4    4    0    0 -0.98906700474E+02  0.50589164562E+02  0.15886285303E+03  0.19616117109E+03  0.30000000000E+02 0.  1.
    -200000    1    3    3    0    0  0.15108197666E+03 -0.24125623924E+02  0.34976698455E+03  0.62908246906E+03  0.50000000000E+03 0.  1.
<mgrwt>
<rscale>  0 0.14061628E+04</rscale>
<asrwt>0</asrwt>
<pdfrwt beam="1">  1        2 0.18706810E+00 0.14061628E+04</pdfrwt>
<pdfrwt beam="2">  1       -2 0.53928135E-01 0.14061628E+04</pdfrwt>
<totfact> 0.58498239E+01</totfact>
</mgrwt>
</event>
<event>
 8    2  0.2588871E-009  0.1539375E+04  0.7818608E-02  0.8858683E-01
         -2   -1    0    0    0  501 -0.00000000000E+00  0.00000000000E+00  0.16264520932E+04  0.16264520932E+04  0.25500000000E-02 0. -1.
          2   -1    0    0  501    0  0.00000000000E+00 -0.00000000000E+00 -0.36423985787E+03  0.36423985788E+03  0.25500000000E-02 0.  1.
    -200001    2    1    2    0    0 -0.74723063658E+01 -0.29654220091E+03  0.47577938370E+03  0.89685935768E+03  0.69999826659E+03 0.  0.
   -5000001    2    3    3    0    0  0.17376438374E+02 -0.10400066766E+03  0.63216923098E+02  0.22017812842E+03  0.18265801210E+03 0.  0.
     200001    1    1    2    0    0  0.74723063658E+01  0.29654220091E+03  0.78643285165E+03  0.10938325934E+04  0.70000000000E+03 0. -1.
         11    1    4    4    0    0 -0.17707415493E+02 -0.26548417956E+00  0.99434609980E+02  0.10099933023E+03  0.51100000000E-03 0.  1.
    -200002    1    4    4    0    0  0.35083853866E+02 -0.10373518348E+03 -0.36217686882E+02  0.11917879819E+03  0.30000000000E+02 0.  1.
    -200000    1    3    3    0    0 -0.24848744739E+02 -0.19254153324E+03  0.41256246060E+03  0.67668122926E+03  0.50000000000E+03 0. -1.
<mgrwt>
<rscale>  0 0.15393748E+04</rscale>
<asrwt>0</asrwt>
<pdfrwt beam="1">  1        2 0.52034266E-01 0.15393748E+04</pdfrwt>
<pdfrwt beam="2">  1       -2 0.23235030E+00 0.15393748E+04</pdfrwt>
<totfact> 0.76620799E+00</totfact>
</mgrwt>
</event>
<event>
 8    2  0.2588871E-009  0.1521826E+04  0.7818608E-02  0.8870067E-01
         -2   -1    0    0    0  501 -0.00000000000E+00  0.00000000000E+00  0.39290827100E+03  0.39290827101E+03  0.25500000000E-02 0. -1.
          2   -1    0    0  501    0  0.00000000000E+00 -0.00000000000E+00 -0.14735975587E+04  0.14735975587E+04  0.25500000000E-02 0.  1.
    -200001    2    1    2    0    0 -0.11754620187E+02 -0.24132754995E+03 -0.32612807256E+03  0.80927369587E+03  0.70013372841E+03 0.  0.
   -5000001    2    3    3    0    0  0.21678961752E+02 -0.11443480059E+03 -0.98900478999E+02  0.24460392200E+03  0.19100909126E+03 0.  0.
     200001    1    1    2    0    0  0.11754620187E+02  0.24132754995E+03 -0.75456121517E+03  0.10572321339E+04  0.70000000000E+03 0.  1.
         11    1    4    4    0    0 -0.15472648596E+02 -0.58691395753E+02  0.49971409829E+02  0.78620764372E+02  0.51100000000E-03 0.  1.
    -200002    1    4    4    0    0  0.37151610348E+02 -0.55743404834E+02 -0.14887188883E+03  0.16598315763E+03  0.30000000000E+02 0.  1.
    -200000    1    3    3    0    0 -0.33433581939E+02 -0.12689274936E+03 -0.22722759356E+03  0.56466977387E+03  0.50000000000E+03 0. -1.
<mgrwt>
<rscale>  0 0.15218261E+04</rscale>
<asrwt>0</asrwt>
<pdfrwt beam="1">  1        2 0.21051393E+00 0.15218261E+04</pdfrwt>
<pdfrwt beam="2">  1       -2 0.56129754E-01 0.15218261E+04</pdfrwt>
<totfact> 0.43472895E+01</totfact>
</mgrwt>
</event>
<event>
 8    2  0.2588871E-009  0.2354909E+04  0.7818608E-02  0.8456581E-01
          2   -1    0    0  501    0  0.00000000000E+00  0.00000000000E+00  0.13265240524E+04  0.13265240524E+04  0.25500000000E-02 0.  1.
         -2   -1    0    0    0  501 -0.00000000000E+00 -0.00000000000E+00 -0.10451364669E+04  0.10451364669E+04  0.25500000000E-02 0. -1.
    -200001    2    1    2    0    0  0.33321985628E+03  0.73261383089E+03  0.63393426766E+03  0.12482515728E+04  0.71309244530E+03 0.  0.
   -5000001    2    3    3    0    0  0.23762949959E+03  0.29341993908E+03  0.27593241157E+03  0.48654682698E+03  0.13426123552E+03 0.  0.
     200001    1    1    2    0    0 -0.33321985628E+03 -0.73261383089E+03 -0.35254668223E+03  0.11234089465E+04  0.70000000000E+03 0. -1.
         11    1    4    4    0    0  0.20545933857E+03  0.26964617880E+03  0.27503178156E+03  0.43653760710E+03  0.51100000000E-03 0.  1.
    -200002    1    4    4    0    0  0.32170161021E+02  0.23773760281E+02  0.90063000373E+00  0.50009219874E+02  0.30000000000E+02 0. -1.
    -200000    1    3    3    0    0  0.95590356685E+02  0.43919389181E+03  0.35800185609E+03  0.76170474585E+03  0.50000000000E+03 0.  1.
<mgrwt>
<rscale>  0 0.23549086E+04</rscale>
<asrwt>0</asrwt>
<pdfrwt beam="1">  1        2 0.18950344E+00 0.23549086E+04</pdfrwt>
<pdfrwt beam="2">  1       -2 0.14930521E+00 0.23549086E+04</pdfrwt>
<totfact> 0.49961629E+00</totfact>
</mgrwt>
</event>
<event>
 8    2  0.2588871E-009  0.1426294E+04  0.7818608E-02  0.8935002E-01
          2   -1    0    0  501    0  0.00000000000E+00  0.00000000000E+00  0.16183104241E+04  0.16183104241E+04  0.25500000000E-02 0.  1.
         -2   -1    0    0    0  501 -0.00000000000E+00 -0.00000000000E+00 -0.31426533048E+03  0.31426533049E+03  0.25500000000E-02 0. -1.
    -200001    2    1    2    0    0 -0.10954757788E+03 -0.78046267494E+02  0.62239619386E+03  0.94630139406E+03  0.70001243887E+03 0.  0.
   -5000001    2    3    3    0    0  0.22642669651E+02 -0.11684520637E+01  0.30260971689E+03  0.33340021858E+03  0.13809058341E+03 0.  0.
     200001    1    1    2    0    0  0.10954757788E+03  0.78046267494E+02  0.68164889974E+03  0.98627436051E+03  0.70000000000E+03 0. -1.
         11    1    4    4    0    0 -0.14770073164E+02  0.49332629654E+02  0.51567256343E+02  0.72876919095E+02  0.51100000000E-03 0.  1.
    -200002    1    4    4    0    0  0.37412742815E+02 -0.50501081717E+02  0.25104246054E+03  0.26052329949E+03  0.30000000000E+02 0.  1.
    -200000    1    3    3    0    0 -0.13219024753E+03 -0.76877815431E+02  0.31978647698E+03  0.61290117548E+03  0.50000000000E+03 0. -1.
<mgrwt>
<rscale>  0 0.14262943E+04</rscale>
<asrwt>0</asrwt>
<pdfrwt beam="1">  1        2 0.23118720E+00 0.14262943E+04</pdfrwt>
<pdfrwt beam="2">  1       -2 0.44895047E-01 0.14262943E+04</pdfrwt>
<totfact> 0.57896724E+01</totfact>
</mgrwt>
</event>
<event>
 8    2  0.2588871E-009  0.1529000E+04  0.7818608E-02  0.8865394E-01
          2   -1    0    0  501    0  0.00000000000E+00  0.00000000000E+00  0.12746851551E+04  0.12746851551E+04  0.25500000000E-02 0.  1.
         -2   -1    0    0    0  501 -0.00000000000E+00 -0.00000000000E+00 -0.45851371907E+03  0.45851371908E+03  0.25500000000E-02 0. -1.
    -200001    2    1    2    0    0 -0.48109757908E+01  0.31000925548E+02  0.62095288418E+02  0.70382283052E+03  0.70037600548E+03 0.  0.
   -5000001    2    3    3    0    0  0.10265006648E+03  0.15312164865E+02 -0.14705783581E+02  0.18643282533E+03  0.15417340804E+03 0.  0.
     200001    1    1    2    0    0  0.48109757908E+01 -0.31000925548E+02  0.75407614764E+03  0.10293760437E+04  0.70000000000E+03 0.  1.
         11    1    4    4    0    0  0.55071095155E+02 -0.63392366440E+02  0.14861271702E+02  0.85277635059E+02  0.51100000000E-03 0.  1.
    -200002    1    4    4    0    0  0.47578971323E+02  0.78704531305E+02 -0.29567055283E+02  0.10115519027E+03  0.30000000000E+02 0.  1.
    -200000    1    3    3    0    0 -0.10746104227E+03  0.15688760683E+02  0.76801071999E+02  0.51739000520E+03  0.50000000000E+03 0. -1.
<mgrwt>
<rscale>  0 0.15290005E+04</rscale>
<asrwt>0</asrwt>
<pdfrwt beam="1">  1        2 0.18209788E+00 0.15290005E+04</pdfrwt>
<pdfrwt beam="2">  1       -2 0.65501958E-01 0.15290005E+04</pdfrwt>
<totfact> 0.40219641E+01</totfact>
</mgrwt>
</event>
<event>
 8    2  0.2588871E-009  0.1650757E+04  0.7818608E-02  0.8789959E-01
         -2   -1    0    0    0  501 -0.00000000000E+00  0.00000000000E+00  0.41882134468E+03  0.41882134469E+03  0.25500000000E-02 0. -1.
          2   -1    0    0  501    0  0.00000000000E+00 -0.00000000000E+00 -0.16265881881E+04  0.16265881882E+04  0.25500000000E-02 0.  1.
    -200001    2    1    2    0    0  0.10992318084E+02  0.33280143723E+03 -0.25364128732E+03  0.81608727868E+03  0.70056185745E+03 0.  0.
   -5000001    2    3    3    0    0  0.11967325204E+02  0.66209748042E+02 -0.33275836515E+02  0.20811276335E+03  0.19410485147E+03 0.  0.
     200001    1    1    2    0    0 -0.10992318084E+02 -0.33280143723E+03 -0.95412555615E+03  0.12293222542E+04  0.70000000000E+03 0.  1.
         11    1    4    4    0    0 -0.46446811115E+01  0.96836964273E+01  0.77968467078E+02  0.78704694256E+02  0.51100000000E-03 0.  1.
    -200002    1    4    4    0    0  0.16612006316E+02  0.56526051614E+02 -0.11124430359E+03  0.12940806909E+03  0.30000000000E+02 0.  1.
    -200000    1    3    3    0    0 -0.97500712003E+00  0.26659168919E+03 -0.22036545081E+03  0.60797451533E+03  0.50000000000E+03 0. -1.
<mgrwt>
<rscale>  0 0.16507572E+04</rscale>
<asrwt>0</asrwt>
<pdfrwt beam="1">  1        2 0.23236974E+00 0.16507572E+04</pdfrwt>
<pdfrwt beam="2">  1       -2 0.59831621E-01 0.16507572E+04</pdfrwt>
<totfact> 0.31251431E+01</totfact>
</mgrwt>
</event>
<event>
 8    2  0.2588871E-009  0.1953610E+04  0.7818608E-02  0.8628622E-01
          2   -1    0    0  501    0  0.00000000000E+00  0.00000000000E+00  0.14536875476E+04  0.14536875476E+04  0.25500000000E-02 0.  1.
         -2   -1    0    0    0  501 -0.00000000000E+00 -0.00000000000E+00 -0.65636420942E+03  0.65636420942E+03  0.25500000000E-02 0. -1.
    -200001    2    1    2    0    0 -0.42576747611E+03  0.52986746330E+03  0.44722846170E+03  0.10734207258E+04  0.70012947747E+03 0.  0.
   -5000001    2    3    3    0    0 -0.18153847147E+03  0.15510055343E+03  0.21130144034E+03  0.36225295174E+03  0.17194913218E+03 0.  0.
     200001    1    1    2    0    0  0.42576747611E+03 -0.52986746330E+03  0.35009487648E+03  0.10366310312E+04  0.70000000000E+03 0.  1.
         11    1    4    4    0    0 -0.17540588708E+02  0.25604003960E+02 -0.28942914997E+02  0.42437360896E+02  0.51100000000E-03 0.  1.
    -200002    1    4    4    0    0 -0.16399788276E+03  0.12949654947E+03  0.24024435534E+03  0.31981559084E+03  0.30000000000E+02 0.  1.
    -200000    1    3    3    0    0 -0.24422900464E+03  0.37476690987E+03  0.23592702136E+03  0.71116777405E+03  0.50000000000E+03 0. -1.
<mgrwt>
<rscale>  0 0.19536105E+04</rscale>
<asrwt>0</asrwt>
<pdfrwt beam="1">  1        2 0.20766965E+00 0.19536105E+04</pdfrwt>
<pdfrwt beam="2">  1       -2 0.93766316E-01 0.19536105E+04</pdfrwt>
<totfact> 0.13923138E+01</totfact>
</mgrwt>
</event>
<event>
 8    2  0.2588871E-009  0.1845601E+04  0.7818608E-02  0.8682418E-01
         -2   -1    0    0    0  501 -0.00000000000E+00  0.00000000000E+00  0.28601422084E+03  0.28601422085E+03  0.25500000000E-02 0.  1.
          2   -1    0    0  501    0  0.00000000000E+00 -0.00000000000E+00 -0.29773368930E+04  0.29773368930E+04  0.25500000000E-02 0. -1.
    -200001    2    1    2    0    0 -0.14880355585E+03  0.39943311367E+02 -0.23735868781E+04  0.24793268788E+04  0.69957782812E+03 0.  0.
   -5000001    2    3    3    0    0 -0.65742233012E+02  0.21252528943E+01 -0.86477741529E+03  0.88721024236E+03  0.18701732073E+03 0.  0.
     200001    1    1    2    0    0  0.14880355585E+03 -0.39943311367E+02 -0.31773579405E+03  0.78402423507E+03  0.70000000000E+03 0.  1.
         11    1    4    4    0    0 -0.10116711600E+03  0.60746243694E+02 -0.42309025104E+03  0.43923826337E+03  0.51100000000E-03 0.  1.
    -200002    1    4    4    0    0  0.35424882992E+02 -0.58620990799E+02 -0.44168716425E+03  0.44797197899E+03  0.30000000000E+02 0.  1.
    -200000    1    3    3    0    0 -0.83061322840E+02  0.37818058473E+02 -0.15088094628E+04  0.15921166364E+04  0.50000000000E+03 0. -1.
<mgrwt>
<rscale>  0 0.18456009E+04</rscale>
<asrwt>0</asrwt>
<pdfrwt beam="1">  1        2 0.42533382E+00 0.18456009E+04</pdfrwt>
<pdfrwt beam="2">  1       -2 0.40859176E-01 0.18456009E+04</pdfrwt>
<totfact> 0.13019121E+01</totfact>
</mgrwt>
</event>
<event>
 8    2  0.2588871E-009  0.2120029E+04  0.7818608E-02  0.8552472E-01
         -2   -1    0    0    0  501 -0.00000000000E+00  0.00000000000E+00  0.57236808471E+03  0.57236808472E+03  0.25500000000E-02 0. -1.
          2   -1    0    0  501    0  0.00000000000E+00 -0.00000000000E+00 -0.19631255619E+04  0.19631255619E+04  0.25500000000E-02 0.  1.
    -200001    2    1    2    0    0  0.36884161686E+03  0.69374756624E+03 -0.84768895876E+03  0.13513259053E+04  0.70012520842E+03 0.  0.
   -5000001    2    3    3    0    0  0.96802334991E+02  0.26781549563E+03 -0.29138588236E+03  0.44860966389E+03  0.18774734708E+03 0.  0.
     200001    1    1    2    0    0 -0.36884161686E+03 -0.69374756624E+03 -0.54306851846E+03  0.11841677414E+04  0.70000000000E+03 0. -1.
         11    1    4    4    0    0  0.36479735948E+02 -0.10792436972E+02 -0.91687418283E+02  0.99266462122E+02  0.51100000000E-03 0.  1.
    -200002    1    4    4    0    0  0.60322599043E+02  0.27860793260E+03 -0.19969846407E+03  0.34934320176E+03  0.30000000000E+02 0.  1.
    -200000    1    3    3    0    0  0.27203928187E+03  0.42593207061E+03 -0.55630307640E+03  0.90271624139E+03  0.50000000000E+03 0.  1.
<mgrwt>
<rscale>  0 0.21200287E+04</rscale>
<asrwt>0</asrwt>
<pdfrwt beam="1">  1        2 0.28044651E+00 0.21200287E+04</pdfrwt>
<pdfrwt beam="2">  1       -2 0.81766870E-01 0.21200287E+04</pdfrwt>
<totfact> 0.10191132E+01</totfact>
</mgrwt>
</event>
<event>
 8    2  0.2588871E-009  0.1431419E+04  0.7818608E-02  0.8931385E-01
         -2   -1    0    0    0  501 -0.00000000000E+00  0.00000000000E+00  0.60287029532E+03  0.60287029533E+03  0.25500000000E-02 0. -1.
          2   -1    0    0  501    0  0.00000000000E+00 -0.00000000000E+00 -0.84966849416E+03  0.84966849416E+03  0.25500000000E-02 0.  1.
    -200001    2    1    2    0    0  0.26936274643E+01  0.20638558196E+01 -0.27495839364E+03  0.75196437395E+03  0.69988340910E+03 0.  0.
   -5000001    2    3    3    0    0 -0.11679156105E+02  0.45744823332E+02 -0.74953618494E+02  0.21148633193E+03  0.19204018360E+03 0.  0.
     200001    1    1    2    0    0 -0.26936274643E+01 -0.20638558196E+01  0.28160194804E+02  0.70057441553E+03  0.70000000000E+03 0. -1.
         11    1    4    4    0    0  0.20988180330E+02  0.79061267419E+02 -0.11638089302E+03  0.14225224068E+03  0.51100000000E-03 0.  1.
    -200002    1    4    4    0    0 -0.32667336435E+02 -0.33316444087E+02  0.41427274524E+02  0.69234091247E+02  0.30000000000E+02 0.  1.
    -200000    1    3    3    0    0  0.14372783569E+02 -0.43680967512E+02 -0.20000477514E+03  0.54047804202E+03  0.50000000000E+03 0. -1.
<mgrwt>
<rscale>  0 0.14314187E+04</rscale>
<asrwt>0</asrwt>
<pdfrwt beam="1">  1        2 0.12138121E+00 0.14314187E+04</pdfrwt>
<pdfrwt beam="2">  1       -2 0.86124329E-01 0.14314187E+04</pdfrwt>
<totfact> 0.39965367E+01</totfact>
</mgrwt>
</event>
<event>
 8    2  0.2588871E-009  0.1520584E+04  0.7818608E-02  0.8870879E-01
         -2   -1    0    0    0  501 -0.00000000000E+00  0.00000000000E+00  0.53972218645E+03  0.53972218645E+03  0.25500000000E-02 0. -1.
          2   -1    0    0  501    0  0.00000000000E+00 -0.00000000000E+00 -0.10710031301E+04  0.10710031301E+04  0.25500000000E-02 0.  1.
    -200001    2    1    2    0    0 -0.53726439785E+02 -0.28254451222E+03 -0.18689597002E+03  0.77926939962E+03  0.69972334666E+03 0.  0.
   -5000001    2    3    3    0    0 -0.12304637684E+03 -0.13014602402E+03 -0.22856606707E+02  0.22705615675E+03  0.13767234810E+03 0.  0.
     200001    1    1    2    0    0  0.53726439785E+02  0.28254451222E+03 -0.34438497360E+03  0.83145591691E+03  0.70000000000E+03 0.  1.
         11    1    4    4    0    0 -0.20821452965E+02 -0.45838423544E+02  0.51633447956E+02  0.72115926983E+02  0.51100000000E-03 0.  1.
    -200002    1    4    4    0    0 -0.10222492387E+03 -0.84307600472E+02 -0.74490054663E+02  0.15494022977E+03  0.30000000000E+02 0.  1.
    -200000    1    3    3    0    0  0.69319937051E+02 -0.15239848820E+03 -0.16403936331E+03  0.55221324286E+03  0.50000000000E+03 0. -1.
<mgrwt>
<rscale>  0 0.15205843E+04</rscale>
<asrwt>0</asrwt>
<pdfrwt beam="1">  1        2 0.15300045E+00 0.15205843E+04</pdfrwt>
<pdfrwt beam="2">  1       -2 0.77103170E-01 0.15205843E+04</pdfrwt>
<totfact> 0.36901538E+01</totfact>
</mgrwt>
</event>
<event>
 8    2  0.2588871E-009  0.2563861E+04  0.7818608E-02  0.8380581E-01
          2   -1    0    0  501    0  0.00000000000E+00  0.00000000000E+00  0.42747945866E+04  0.42747945866E+04  0.25500000000E-02 0. -1.
         -2   -1    0    0    0  501 -0.00000000000E+00 -0.00000000000E+00 -0.38442697753E+03  0.38442697754E+03  0.25500000000E-02 0.  1.
    -200001    2    1    2    0    0  0.81615802021E+03  0.17746058963E+03  0.72014553994E+03  0.13069217353E+04  0.70130496125E+03 0.  0.
   -5000001    2    3    3    0    0  0.29733678448E+03  0.77642010780E+02  0.22787765773E+03  0.42858985544E+03  0.19319314700E+03 0.  0.
     200001    1    1    2    0    0 -0.81615802021E+03 -0.17746058963E+03  0.31702220691E+04  0.33522998288E+04  0.70000000000E+03 0.  1.
         11    1    4    4    0    0  0.16657436960E+03  0.30446114154E+02  0.11585598296E+02  0.16972982226E+03  0.51100000000E-03 0.  1.
    -200002    1    4    4    0    0  0.13076241488E+03  0.47195896626E+02  0.21629205943E+03  0.25886003318E+03  0.30000000000E+02 0.  1.
    -200000    1    3    3    0    0  0.51882123573E+03  0.99818578846E+02  0.49226788221E+03  0.87833187986E+03  0.50000000000E+03 0.  1.
<mgrwt>
<rscale>  0 0.25638614E+04</rscale>
<asrwt>0</asrwt>
<pdfrwt beam="1">  1        2 0.61068496E+00 0.25638614E+04</pdfrwt>
<pdfrwt beam="2">  1       -2 0.54918138E-01 0.25638614E+04</pdfrwt>
<totfact> 0.10089297E+00</totfact>
</mgrwt>
</event>
<event>
 8    2  0.2588871E-009  0.2374254E+04  0.7818608E-02  0.8449206E-01
         -2   -1    0    0    0  501 -0.00000000000E+00  0.00000000000E+00  0.50601432351E+03  0.50601432352E+03  0.25500000000E-02 0. -1.
          2   -1    0    0  501    0  0.00000000000E+00 -0.00000000000E+00 -0.27850409911E+04  0.27850409911E+04  0.25500000000E-02 0.  1.
    -200001    2    1    2    0    0  0.43598373772E+03  0.60415091792E+03 -0.30196872097E+03  0.10653333474E+04  0.69904926967E+03 0.  0.
   -5000001    2    3    3    0    0  0.14402586643E+03  0.88207929607E+02 -0.16765502472E+03  0.27826490385E+03  0.14421879335E+03 0.  0.
     200001    1    1    2    0    0 -0.43598373772E+03 -0.60415091792E+03 -0.19770579466E+04  0.22257219673E+04  0.70000000000E+03 0.  1.
         11    1    4    4    0    0  0.15269813055E+03  0.68858679211E+02 -0.17338691168E+03  0.24108350819E+03  0.51100000000E-03 0.  1.
    -200002    1    4    4    0    0 -0.86722641173E+01  0.19349250396E+02  0.57318869600E+01  0.37181395669E+02  0.30000000000E+02 0.  1.
    -200000    1    3    3    0    0  0.29195787129E+03  0.51594298832E+03 -0.13431369625E+03  0.78706844353E+03  0.50000000000E+03 0. -1.
<mgrwt>
<rscale>  0 0.23742541E+04</rscale>
<asrwt>0</asrwt>
<pdfrwt beam="1">  1        2 0.39786299E+00 0.23742541E+04</pdfrwt>
<pdfrwt beam="2">  1       -2 0.72287762E-01 0.23742541E+04</pdfrwt>
<totfact> 0.48635232E+00</totfact>
</mgrwt>
</event>
<event>
 8    2  0.2588871E-009  0.2401143E+04  0.7818608E-02  0.8439076E-01
         -2   -1    0    0    0  501 -0.00000000000E+00  0.00000000000E+00  0.89467040965E+03  0.89467040965E+03  0.25500000000E-02 0. -1.
          2   -1    0    0  501    0  0.00000000000E+00 -0.00000000000E+00 -0.16110642958E+04  0.16110642958E+04  0.25500000000E-02 0.  1.
    -200001    2    1    2    0    0 -0.13254250272E+02 -0.32829425692E+03 -0.13174117192E+04  0.15263597875E+04  0.69731468430E+03 0.  0.
   -5000001    2    3    3    0    0 -0.87285751374E+00 -0.18735205321E+03 -0.64958429252E+03  0.68018517467E+03  0.74770081175E+02 0.  0.
     200001    1    1    2    0    0  0.13254250272E+02  0.32829425692E+03  0.60101783300E+03  0.97937491793E+03  0.70000000000E+03 0. -1.
         11    1    4    4    0    0  0.14165118074E+02 -0.97852032425E+02 -0.42034074169E+03  0.43181247081E+03  0.51100000000E-03 0.  1.
    -200002    1    4    4    0    0 -0.15037975588E+02 -0.89500020783E+02 -0.22924355082E+03  0.24837270386E+03  0.30000000000E+02 0.  1.
    -200000    1    3    3    0    0 -0.12381392758E+02 -0.14094220371E+03 -0.66782742666E+03  0.84617461288E+03  0.50000000000E+03 0.  1.
<mgrwt>
<rscale>  0 0.24011427E+04</rscale>
<asrwt>0</asrwt>
<pdfrwt beam="1">  1        2 0.23015204E+00 0.24011427E+04</pdfrwt>
<pdfrwt beam="2">  1       -2 0.12781006E+00 0.24011427E+04</pdfrwt>
<totfact> 0.52354329E+00</totfact>
</mgrwt>
</event>
<event>
 8    2  0.2588871E-009  0.1514470E+04  0.7818608E-02  0.8874887E-01
          2   -1    0    0  501    0  0.00000000000E+00  0.00000000000E+00  0.25352980336E+04  0.25352980336E+04  0.25500000000E-02 0.  1.
         -2   -1    0    0    0  501 -0.00000000000E+00 -0.00000000000E+00 -0.22616847709E+03  0.22616847711E+03  0.25500000000E-02 0. -1.
    -200001    2    1    2    0    0  0.17452834447E+03  0.22642823634E+03  0.12212612211E+04  0.14366316514E+04  0.70050099389E+03 0.  0.
   -5000001    2    3    3    0    0  0.83422012159E+02  0.63511497348E+02  0.40763658547E+03  0.46358115152E+03  0.19428575816E+03 0.  0.
     200001    1    1    2    0    0 -0.17452834447E+03 -0.22642823634E+03  0.10878683354E+04  0.13248348593E+04  0.70000000000E+03 0.  1.
         11    1    4    4    0    0 -0.20449924203E+02 -0.26405893515E+02  0.11065222466E+01  0.33416986758E+02  0.51100000000E-03 0.  1.
    -200002    1    4    4    0    0  0.10387193636E+03  0.89917390863E+02  0.40653006322E+03  0.43016416476E+03  0.30000000000E+02 0.  1.
    -200000    1    3    3    0    0  0.91106332309E+02  0.16291673899E+03  0.81362463561E+03  0.97305049987E+03  0.50000000000E+03 0.  1.
<mgrwt>
<rscale>  0 0.15144695E+04</rscale>
<asrwt>0</asrwt>
<pdfrwt beam="1">  1        2 0.36218543E+00 0.15144695E+04</pdfrwt>
<pdfrwt beam="2">  1       -2 0.32309782E-01 0.15144695E+04</pdfrwt>
<totfact> 0.36467693E+01</totfact>
</mgrwt>
</event>
<event>
 8    2  0.2588871E-009  0.2255983E+04  0.7818608E-02  0.8495481E-01
          2   -1    0    0  501    0  0.00000000000E+00  0.00000000000E+00  0.38586653858E+04  0.38586653858E+04  0.25500000000E-02 0.  1.
         -2   -1    0    0    0  501 -0.00000000000E+00 -0.00000000000E+00 -0.32974222011E+03  0.32974222012E+03  0.25500000000E-02 0. -1.
    -200001    2    1    2    0    0 -0.40240463539E+03 -0.64386430334E+03  0.26070374914E+04  0.28040796361E+04  0.69980525297E+03 0.  0.
   -5000001    2    3    3    0    0 -0.26800623711E+02 -0.22220395614E+03  0.40303517875E+03  0.47459428171E+03  0.11273644201E+03 0.  0.
     200001    1    1    2    0    0  0.40240463539E+03  0.64386430334E+03  0.92188567428E+03  0.13843279699E+04  0.70000000000E+03 0. -1.
         11    1    4    4    0    0 -0.47664157997E+02 -0.37231598999E+02  0.76352670680E+02  0.97405309104E+02  0.51100000000E-03 0.  1.
    -200002    1    4    4    0    0  0.20863534286E+02 -0.18497235714E+03  0.32668250807E+03  0.37718897260E+03  0.30000000000E+02 0.  1.
    -200000    1    3    3    0    0 -0.37560401168E+03 -0.42166034719E+03  0.22040023127E+04  0.23294853544E+04  0.50000000000E+03 0.  1.
<mgrwt>
<rscale>  0 0.22559831E+04</rscale>
<asrwt>0</asrwt>
<pdfrwt beam="1">  1        2 0.55123791E+00 0.22559831E+04</pdfrwt>
<pdfrwt beam="2">  1       -2 0.47106032E-01 0.22559831E+04</pdfrwt>
<totfact> 0.27790089E+00</totfact>
</mgrwt>
</event>
<event>
 8    2  0.2588871E-009  0.1878033E+04  0.7818608E-02  0.8665869E-01
          2   -1    0    0  501    0  0.00000000000E+00  0.00000000000E+00  0.11887456285E+04  0.11887456285E+04  0.25500000000E-02 0.  1.
         -2   -1    0    0    0  501 -0.00000000000E+00 -0.00000000000E+00 -0.74174961328E+03  0.74174961329E+03  0.25500000000E-02 0. -1.
    -200001    2    1    2    0    0 -0.29535814648E+03  0.54745879799E+02 -0.34029367898E+03  0.83502337606E+03  0.70087852340E+03 0.  0.
   -5000001    2    3    3    0    0 -0.73691041314E+02 -0.79397773874E+02 -0.14882365152E+03  0.24021954558E+03  0.15434563408E+03 0.  0.
     200001    1    1    2    0    0  0.29535814648E+03 -0.54745879799E+02  0.78728969421E+03  0.10954718658E+04  0.70000000000E+03 0.  1.
         11    1    4    4    0    0 -0.63616329252E+02 -0.11171927311E+03 -0.14651957876E+03  0.19492619191E+03  0.51100000000E-03 0.  1.
    -200002    1    4    4    0    0 -0.10074712062E+02  0.32321499231E+02 -0.23040727619E+01  0.45293353673E+02  0.30000000000E+02 0.  1.
    -200000    1    3    3    0    0 -0.22166710517E+03  0.13414365367E+03 -0.19147002745E+03  0.59480383048E+03  0.50000000000E+03 0. -1.
<mgrwt>
<rscale>  0 0.18780326E+04</rscale>
<asrwt>0</asrwt>
<pdfrwt beam="1">  1        2 0.16982081E+00 0.18780326E+04</pdfrwt>
<pdfrwt beam="2">  1       -2 0.10596423E+00 0.18780326E+04</pdfrwt>
<totfact> 0.14687234E+01</totfact>
</mgrwt>
</event>
<event>
 8    2  0.2588871E-009  0.1479355E+04  0.7818608E-02  0.8898299E-01
          2   -1    0    0  501    0  0.00000000000E+00  0.00000000000E+00  0.13729474313E+04  0.13729474313E+04  0.25500000000E-02 0.  1.
         -2   -1    0    0    0  501 -0.00000000000E+00 -0.00000000000E+00 -0.39850250107E+03  0.39850250108E+03  0.25500000000E-02 0. -1.
    -200001    2    1    2    0    0  0.16727159102E+03 -0.17233963043E+03  0.49493583788E+03  0.88962812326E+03  0.69913945727E+03 0.  0.
   -5000001    2    3    3    0    0 -0.26874475740E+01 -0.19846064132E+02  0.20110421079E+03  0.26634858113E+03  0.17348652524E+03 0.  0.
     200001    1    1    2    0    0 -0.16727159102E+03  0.17233963043E+03  0.47950909236E+03  0.88182180911E+03  0.70000000000E+03 0. -1.
         11    1    4    4    0    0 -0.75814560185E+02 -0.47327281955E+02  0.12167423676E+03  0.15097131861E+03  0.51100000000E-03 0.  1.
    -200002    1    4    4    0    0  0.73127112611E+02  0.27481217823E+02  0.79429974030E+02  0.11537726252E+03  0.30000000000E+02 0.  1.
    -200000    1    3    3    0    0  0.16995903859E+03 -0.15249356630E+03  0.29383162709E+03  0.62327954213E+03  0.50000000000E+03 0.  1.
<mgrwt>
<rscale>  0 0.14793552E+04</rscale>
<asrwt>0</asrwt>
<pdfrwt beam="1">  1        2 0.19613535E+00 0.14793552E+04</pdfrwt>
<pdfrwt beam="2">  1       -2 0.56928928E-01 0.14793552E+04</pdfrwt>
<totfact> 0.47981434E+01</totfact>
</mgrwt>
</event>
<event>
 8    2  0.2588871E-009  0.1869617E+04  0.7818608E-02  0.8670129E-01
          2   -1    0    0  501    0  0.00000000000E+00  0.00000000000E+00  0.17524621245E+04  0.17524621245E+04  0.25500000000E-02 0.  1.
         -2   -1    0    0    0  501 -0.00000000000E+00 -0.00000000000E+00 -0.49865097942E+03  0.49865097943E+03  0.25500000000E-02 0. -1.
    -200001    2    1    2    0    0  0.29965016843E+03 -0.46052416649E+03  0.96871109730E+03  0.13166855955E+04  0.70241514499E+03 0.  0.
   -5000001    2    3    3    0    0  0.47959114709E+01 -0.14093791797E+03  0.19162103848E+03  0.29543961011E+03  0.17515548334E+03 0.  0.
     200001    1    1    2    0    0 -0.29965016843E+03  0.46052416649E+03  0.28510004780E+03  0.93442750849E+03  0.70000000000E+03 0.  1.
         11    1    4    4    0    0 -0.54562546490E+02  0.94275774862E+01  0.23093678155E+02  0.59993905255E+02  0.51100000000E-03 0.  1.
    -200002    1    4    4    0    0  0.59358457961E+02 -0.15036549546E+03  0.16852736033E+03  0.23544570486E+03  0.30000000000E+02 0.  1.
    -200000    1    3    3    0    0  0.29485425696E+03 -0.31958624852E+03  0.77709005882E+03  0.10212459854E+04  0.50000000000E+03 0.  1.
<mgrwt>
<rscale>  0 0.18696170E+04</rscale>
<asrwt>0</asrwt>
<pdfrwt beam="1">  1        2 0.25035174E+00 0.18696170E+04</pdfrwt>
<pdfrwt beam="2">  1       -2 0.71235852E-01 0.18696170E+04</pdfrwt>
<totfact> 0.18150395E+01</totfact>
</mgrwt>
</event>
<event>
 8    2  0.2588871E-009  0.1791248E+04  0.7818608E-02  0.8710968E-01
          2   -1    0    0  501    0  0.00000000000E+00  0.00000000000E+00  0.37355878337E+03  0.37355878338E+03  0.25500000000E-02 0.  1.
         -2   -1    0    0    0  501 -0.00000000000E+00 -0.00000000000E+00 -0.21472988365E+04  0.21472988365E+04  0.25500000000E-02 0. -1.
    -200001    2    1    2    0    0  0.33190397795E+03  0.17173822878E+02 -0.25137527108E+03  0.81262762354E+03  0.69765244704E+03 0.  0.
   -5000001    2    3    3    0    0  0.14006243651E+03  0.82221970473E+02 -0.54153186709E+02  0.23823142831E+03  0.16566142356E+03 0.  0.
     200001    1    1    2    0    0 -0.33190397795E+03 -0.17173822878E+02 -0.15223647820E+04  0.17082299963E+04  0.70000000000E+03 0. -1.
         11    1    4    4    0    0  0.14458196613E+03  0.69997053082E+02 -0.94438948144E+02  0.18633906541E+03  0.51100000000E-03 0.  1.
    -200002    1    4    4    0    0 -0.45195296213E+01  0.12224917391E+02  0.40285761435E+02  0.51892362903E+02  0.30000000000E+02 0. -1.
    -200000    1    3    3    0    0  0.19184154144E+03 -0.65048147595E+02 -0.19722208438E+03  0.57439619523E+03  0.50000000000E+03 0.  1.
<mgrwt>
<rscale>  0 0.17912480E+04</rscale>
<asrwt>0</asrwt>
<pdfrwt beam="1">  1        2 0.53365542E-01 0.17912480E+04</pdfrwt>
<pdfrwt beam="2">  1       -2 0.30675697E+00 0.17912480E+04</pdfrwt>
<totfact> 0.25607249E+00</totfact>
</mgrwt>
</event>
<event>
 8    2  0.2588871E-009  0.1505173E+04  0.7818608E-02  0.8881020E-01
         -2   -1    0    0    0  501 -0.00000000000E+00  0.00000000000E+00  0.32851866602E+03  0.32851866603E+03  0.25500000000E-02 0. -1.
          2   -1    0    0  501    0  0.00000000000E+00 -0.00000000000E+00 -0.17240617236E+04  0.17240617236E+04  0.25500000000E-02 0.  1.
    -200001    2    1    2    0    0  0.32267966142E+02 -0.20556277337E+03 -0.45077650066E+03  0.85847774644E+03  0.70034799360E+03 0.  0.
   -5000001    2    3    3    0    0 -0.40493698456E+02 -0.12418974832E+03 -0.15398207043E+03  0.26686743309E+03  0.17448471459E+03 0.  0.
     200001    1    1    2    0    0 -0.32267966142E+02  0.20556277337E+03 -0.94476655696E+03  0.11941026432E+04  0.70000000000E+03 0.  1.
         11    1    4    4    0    0 -0.45919467592E+02 -0.10415515255E+03 -0.54908487963E+01  0.11396070694E+03  0.51100000000E-03 0.  1.
    -200002    1    4    4    0    0  0.54257691364E+01 -0.20034595773E+02 -0.14849122163E+03  0.15290672614E+03  0.30000000000E+02 0.  1.
    -200000    1    3    3    0    0  0.72761664598E+02 -0.81373025052E+02 -0.29679443024E+03  0.59161031335E+03  0.50000000000E+03 0. -1.
<mgrwt>
<rscale>  0 0.15051730E+04</rscale>
<asrwt>0</asrwt>
<pdfrwt beam="1">  1        2 0.24629453E+00 0.15051730E+04</pdfrwt>
<pdfrwt beam="2">  1       -2 0.46931239E-01 0.15051730E+04</pdfrwt>
<totfact> 0.46380293E+01</totfact>
</mgrwt>
</event>
<event>
 8    2  0.2588871E-009  0.2394848E+04  0.7818608E-02  0.8441435E-01
          2   -1    0    0  501    0  0.00000000000E+00  0.00000000000E+00  0.32172011273E+04  0.32172011273E+04  0.25500000000E-02 0.  1.
         -2   -1    0    0    0  501 -0.00000000000E+00 -0.00000000000E+00 -0.44567447895E+03  0.44567447896E+03  0.25500000000E-02 0. -1.
    -200001    2    1    2    0    0  0.57563313780E+03  0.78236292153E+03  0.14583627090E+04  0.18858430287E+04  0.69723517362E+03 0.  0.
   -5000001    2    3    3    0    0  0.25999953342E+03  0.14657556082E+03  0.46536033283E+03  0.56678887534E+03  0.12492092470E+03 0.  0.
     200001    1    1    2    0    0 -0.57563313780E+03 -0.78236292153E+03  0.13131639393E+04  0.17770325776E+04  0.70000000000E+03 0. -1.
         11    1    4    4    0    0  0.25626865279E+03  0.13612254445E+03  0.43338357656E+03  0.52155948265E+03  0.51100000000E-03 0.  1.
    -200002    1    4    4    0    0  0.37308806309E+01  0.10453016378E+02  0.31976756274E+02  0.45229392694E+02  0.30000000000E+02 0.  1.
    -200000    1    3    3    0    0  0.31563360438E+03  0.63578736071E+03  0.99300237620E+03  0.13190541533E+04  0.50000000000E+03 0.  1.
<mgrwt>
<rscale>  0 0.23948482E+04</rscale>
<asrwt>0</asrwt>
<pdfrwt beam="1">  1        2 0.45960014E+00 0.23948482E+04</pdfrwt>
<pdfrwt beam="2">  1       -2 0.63667785E-01 0.23948482E+04</pdfrwt>
<totfact> 0.36587855E+00</totfact>
</mgrwt>
</event>
<event>
 8    2  0.2588871E-009  0.1442939E+04  0.7818608E-02  0.8923310E-01
         -2   -1    0    0    0  501 -0.00000000000E+00  0.00000000000E+00  0.21584075483E+03  0.21584075485E+03  0.25500000000E-02 0. -1.
          2   -1    0    0  501    0  0.00000000000E+00 -0.00000000000E+00 -0.24115843155E+04  0.24115843155E+04  0.25500000000E-02 0.  1.
    -200001    2    1    2    0    0  0.13251165852E+03  0.49255227787E+02 -0.12817133883E+04  0.14674955151E+04  0.70054868497E+03 0.  0.
   -5000001    2    3    3    0    0 -0.85955518405E+02  0.21747763569E+02 -0.13138984983E+03  0.19402434891E+03  0.11189655476E+03 0.  0.
     200001    1    1    2    0    0 -0.13251165852E+03 -0.49255227787E+02 -0.91403017235E+03  0.11599295552E+04  0.70000000000E+03 0.  1.
         11    1    4    4    0    0 -0.34983539518E+02 -0.38423464663E+02 -0.23418368619E+02  0.56996760109E+02  0.51100000000E-03 0.  1.
    -200002    1    4    4    0    0 -0.50971978887E+02  0.60171228231E+02 -0.10797148121E+03  0.13702758880E+03  0.30000000000E+02 0.  1.
    -200000    1    3    3    0    0  0.21846717693E+03  0.27507464218E+02 -0.11503235385E+04  0.12734711662E+04  0.50000000000E+03 0.  1.
<mgrwt>
<rscale>  0 0.14429389E+04</rscale>
<asrwt>0</asrwt>
<pdfrwt beam="1">  1        2 0.34451203E+00 0.14429389E+04</pdfrwt>
<pdfrwt beam="2">  1       -2 0.30834395E-01 0.14429389E+04</pdfrwt>
<totfact> 0.46498701E+01</totfact>
</mgrwt>
</event>
<event>
 8    2  0.2588871E-009  0.1437180E+04  0.7818608E-02  0.8927337E-01
         -2   -1    0    0    0  501 -0.00000000000E+00  0.00000000000E+00  0.29537681998E+03  0.29537681999E+03  0.25500000000E-02 0. -1.
          2   -1    0    0  501    0  0.00000000000E+00 -0.00000000000E+00 -0.17481779928E+04  0.17481779928E+04  0.25500000000E-02 0.  1.
    -200001    2    1    2    0    0  0.15629302820E+03 -0.38195103805E+02 -0.70030271804E+03  0.10032950851E+04  0.70020765081E+03 0.  0.
   -5000001    2    3    3    0    0 -0.83397055136E+02 -0.22662072678E+02 -0.18534035197E+03  0.24640747812E+03  0.13746621717E+03 0.  0.
     200001    1    1    2    0    0 -0.15629302820E+03  0.38195103805E+02 -0.75249845474E+03  0.10402597277E+04  0.70000000000E+03 0.  1.
         11    1    4    4    0    0 -0.43200019573E+02 -0.47335441137E+02 -0.17903034260E+03  0.19015454044E+03  0.51100000000E-03 0.  1.
    -200002    1    4    4    0    0 -0.40197035563E+02  0.24673368459E+02 -0.63100093647E+01  0.56252937678E+02  0.30000000000E+02 0.  1.
    -200000    1    3    3    0    0  0.23969008334E+03 -0.15533031127E+02 -0.51496236608E+03  0.75688760697E+03  0.50000000000E+03 0. -1.
<mgrwt>
<rscale>  0 0.14371795E+04</rscale>
<asrwt>0</asrwt>
<pdfrwt beam="1">  1        2 0.24973971E+00 0.14371795E+04</pdfrwt>
<pdfrwt beam="2">  1       -2 0.42196689E-01 0.14371795E+04</pdfrwt>
<totfact> 0.55991627E+01</totfact>
</mgrwt>
</event>
<event>
 8    2  0.2588871E-009  0.1540984E+04  0.7818608E-02  0.8857647E-01
          2   -1    0    0  501    0  0.00000000000E+00  0.00000000000E+00  0.14033300814E+04  0.14033300814E+04  0.25500000000E-02 0.  1.
         -2   -1    0    0    0  501 -0.00000000000E+00 -0.00000000000E+00 -0.42303498409E+03  0.42303498409E+03  0.25500000000E-02 0. -1.
    -200001    2    1    2    0    0 -0.46166630171E+02 -0.11646895413E+03  0.84148303136E+03  0.11018202672E+04  0.70015557856E+03 0.  0.
   -5000001    2    3    3    0    0 -0.34078842249E+02 -0.71428629295E+01  0.33616279503E+03  0.38248248143E+03  0.17909504699E+03 0.  0.
     200001    1    1    2    0    0  0.46166630171E+02  0.11646895413E+03  0.13881206593E+03  0.72454479824E+03  0.70000000000E+03 0. -1.
         11    1    4    4    0    0  0.64655795085E+02  0.14847951261E+02  0.71352207464E+02  0.97426746866E+02  0.51100000000E-03 0.  1.
    -200002    1    4    4    0    0 -0.98734637334E+02 -0.21990814191E+02  0.26481058757E+03  0.28505573456E+03  0.30000000000E+02 0.  1.
    -200000    1    3    3    0    0 -0.12087787922E+02 -0.10932609120E+03  0.50532023632E+03  0.71933778579E+03  0.50000000000E+03 0.  1.
<mgrwt>
<rscale>  0 0.15409837E+04</rscale>
<asrwt>0</asrwt>
<pdfrwt beam="1">  1        2 0.20047572E+00 0.15409837E+04</pdfrwt>
<pdfrwt beam="2">  1       -2 0.60433570E-01 0.15409837E+04</pdfrwt>
<totfact> 0.40551815E+01</totfact>
</mgrwt>
</event>
<event>
 8    2  0.2588871E-009  0.1470649E+04  0.7818608E-02  0.8904209E-01
          2   -1    0    0  501    0  0.00000000000E+00  0.00000000000E+00  0.81467209288E+03  0.81467209289E+03  0.25500000000E-02 0.  1.
         -2   -1    0    0    0  501 -0.00000000000E+00 -0.00000000000E+00 -0.66370501948E+03  0.66370501948E+03  0.25500000000E-02 0. -1.
    -200001    2    1    2    0    0 -0.78277935520E+02 -0.11174895788E+03  0.25473760616E+03  0.75769438867E+03  0.70042435269E+03 0.  0.
   -5000001    2    3    3    0    0 -0.15027049879E+01 -0.40823297763E+02  0.10479937036E+03  0.22533514920E+03  0.19525424880E+03 0.  0.
     200001    1    1    2    0    0  0.78277935520E+02  0.11174895788E+03 -0.10377053276E+03  0.72068272370E+03  0.70000000000E+03 0. -1.
         11    1    4    4    0    0 -0.18358973975E+02 -0.98880239560E+02  0.11957774956E+03  0.15624721403E+03  0.51100000000E-03 0.  1.
    -200002    1    4    4    0    0  0.16856268988E+02  0.58056941797E+02 -0.14778379197E+02  0.69087935175E+02  0.30000000000E+02 0.  1.
    -200000    1    3    3    0    0 -0.76775230532E+02 -0.70925660121E+02  0.14993823580E+03  0.53235923946E+03  0.50000000000E+03 0.  1.
<mgrwt>
<rscale>  0 0.14706488E+04</rscale>
<asrwt>0</asrwt>
<pdfrwt beam="1">  1        2 0.11638173E+00 0.14706488E+04</pdfrwt>
<pdfrwt beam="2">  1       -2 0.94815003E-01 0.14706488E+04</pdfrwt>
<totfact> 0.33727057E+01</totfact>
</mgrwt>
</event>
<event>
 8    2  0.2588871E-009  0.1527957E+04  0.7818608E-02  0.8866072E-01
          2   -1    0    0  501    0  0.00000000000E+00  0.00000000000E+00  0.94407047055E+03  0.94407047055E+03  0.25500000000E-02 0.  1.
         -2   -1    0    0    0  501 -0.00000000000E+00 -0.00000000000E+00 -0.61824076086E+03  0.61824076086E+03  0.25500000000E-02 0. -1.
    -200001    2    1    2    0    0 -0.26427550774E+03  0.69383268284E+02  0.31143243018E+03  0.81073763983E+03  0.69688577269E+03 0.  0.
   -5000001    2    3    3    0    0  0.17260418243E+02  0.68447585192E+02  0.11712193047E+03  0.20491594708E+03  0.15261063139E+03 0.  0.
     200001    1    1    2    0    0  0.26427550774E+03 -0.69383268284E+02  0.14397279515E+02  0.75157359158E+03  0.70000000000E+03 0. -1.
         11    1    4    4    0    0  0.64129689934E+02  0.59217981876E+02  0.12005209094E+03  0.14843143551E+03  0.51100000000E-03 0.  1.
    -200002    1    4    4    0    0 -0.46869271691E+02  0.92296033157E+01 -0.29301604743E+01  0.56484511564E+02  0.30000000000E+02 0.  1.
    -200000    1    3    3    0    0 -0.28153592598E+03  0.93568309198E+00  0.19431049971E+03  0.60582169276E+03  0.50000000000E+03 0. -1.
<mgrwt>
<rscale>  0 0.15279566E+04</rscale>
<asrwt>0</asrwt>
<pdfrwt beam="1">  1        2 0.13486721E+00 0.15279566E+04</pdfrwt>
<pdfrwt beam="2">  1       -2 0.88320109E-01 0.15279566E+04</pdfrwt>
<totfact> 0.32480510E+01</totfact>
</mgrwt>
</event>
<event>
 8    2  0.2588871E-009  0.2119491E+04  0.7818608E-02  0.8552706E-01
          2   -1    0    0  501    0  0.00000000000E+00  0.00000000000E+00  0.92652550310E+03  0.92652550311E+03  0.25500000000E-02 0.  1.
         -2   -1    0    0    0  501 -0.00000000000E+00 -0.00000000000E+00 -0.12121207793E+04  0.12121207793E+04  0.25500000000E-02 0. -1.
    -200001    2    1    2    0    0 -0.30807283973E+03 -0.38146478779E+03 -0.77456092971E+03  0.11540084458E+04  0.70097546344E+03 0.  0.
   -5000001    2    3    3    0    0 -0.29742054627E+02 -0.80134458209E+02 -0.24416437385E+03  0.31759437380E+03  0.18423849652E+03 0.  0.
     200001    1    1    2    0    0  0.30807283973E+03  0.38146478779E+03  0.48896565351E+03  0.98463783657E+03  0.70000000000E+03 0.  1.
         11    1    4    4    0    0  0.35178230671E+02 -0.77587902575E+02 -0.22915145692E+03  0.24447449918E+03  0.51100000000E-03 0.  1.
    -200002    1    4    4    0    0 -0.64920285299E+02 -0.25465556341E+01 -0.15012916929E+02  0.73119874614E+02  0.30000000000E+02 0.  1.
    -200000    1    3    3    0    0 -0.27833078510E+03 -0.30133032958E+03 -0.53039655586E+03  0.83641407205E+03  0.50000000000E+03 0. -1.
<mgrwt>
<rscale>  0 0.21194913E+04</rscale>
<asrwt>0</asrwt>
<pdfrwt beam="1">  1        2 0.13236079E+00 0.21194913E+04</pdfrwt>
<pdfrwt beam="2">  1       -2 0.17316011E+00 0.21194913E+04</pdfrwt>
<totfact> 0.58436839E+00</totfact>
</mgrwt>
</event>
<event>
 8    2  0.2588871E-009  0.1619588E+04  0.7818608E-02  0.8808604E-01
         -2   -1    0    0    0  501 -0.00000000000E+00  0.00000000000E+00  0.72683463928E+03  0.72683463929E+03  0.25500000000E-02 0. -1.
          2   -1    0    0  501    0  0.00000000000E+00 -0.00000000000E+00 -0.90222188163E+03  0.90222188163E+03  0.25500000000E-02 0.  1.
    -200001    2    1    2    0    0 -0.15149814946E+02  0.26894774646E+03  0.22249831291E+03  0.78001275155E+03  0.69738940780E+03 0.  0.
   -5000001    2    3    3    0    0  0.12992757069E+01  0.15579146693E+03  0.18943024077E+03  0.26603958729E+03  0.10305618179E+03 0.  0.
     200001    1    1    2    0    0  0.15149814946E+02 -0.26894774646E+03 -0.39788555526E+03  0.84904376937E+03  0.70000000000E+03 0.  1.
         11    1    4    4    0    0  0.33969713069E+02  0.12037703230E+03  0.10009506404E+03  0.16019860535E+03  0.51100000000E-03 0.  1.
    -200002    1    4    4    0    0 -0.32670437362E+02  0.35414434629E+02  0.89335176727E+02  0.10584098194E+03  0.30000000000E+02 0.  1.
    -200000    1    3    3    0    0 -0.16449090653E+02  0.11315627954E+03  0.33068072146E+02  0.51397316426E+03  0.50000000000E+03 0. -1.
<mgrwt>
<rscale>  0 0.16195877E+04</rscale>
<asrwt>0</asrwt>
<pdfrwt beam="1">  1        2 0.12888884E+00 0.16195877E+04</pdfrwt>
<pdfrwt beam="2">  1       -2 0.10383352E+00 0.16195877E+04</pdfrwt>
<totfact> 0.23491268E+01</totfact>
</mgrwt>
</event>
<event>
 8    2  0.2588871E-009  0.1510302E+04  0.7818608E-02  0.8877631E-01
          2   -1    0    0  501    0  0.00000000000E+00  0.00000000000E+00  0.16418846197E+04  0.16418846197E+04  0.25500000000E-02 0.  1.
         -2   -1    0    0    0  501 -0.00000000000E+00 -0.00000000000E+00 -0.34731606628E+03  0.34731606629E+03  0.25500000000E-02 0. -1.
    -200001    2    1    2    0    0  0.55633668494E+02 -0.26470718066E+03  0.75993234628E+03  0.10677882536E+04  0.69964961734E+03 0.  0.
   -5000001    2    3    3    0    0  0.16193019268E+02 -0.11269006809E+03  0.11772522277E+03  0.23887646287E+03  0.17390075077E+03 0.  0.
     200001    1    1    2    0    0 -0.55633668494E+02  0.26470718066E+03  0.53463620713E+03  0.92141243237E+03  0.70000000000E+03 0.  1.
         11    1    4    4    0    0 -0.48020902510E+02 -0.98514386555E+02  0.12498869763E+03  0.16623256592E+03  0.51100000000E-03 0.  1.
    -200002    1    4    4    0    0  0.64213921778E+02 -0.14175681537E+02 -0.72634748652E+01  0.72643896951E+02  0.30000000000E+02 0.  1.
    -200000    1    3    3    0    0  0.39440649226E+02 -0.15201711256E+03  0.64220712351E+03  0.82891179073E+03  0.50000000000E+03 0.  1.
<mgrwt>
<rscale>  0 0.15103018E+04</rscale>
<asrwt>0</asrwt>
<pdfrwt beam="1">  1        2 0.23455495E+00 0.15103018E+04</pdfrwt>
<pdfrwt beam="2">  1       -2 0.49616580E-01 0.15103018E+04</pdfrwt>
<totfact> 0.45714384E+01</totfact>
</mgrwt>
</event>
<event>
 8    2  0.2588871E-009  0.1557636E+04  0.7818608E-02  0.8847005E-01
          2   -1    0    0  501    0  0.00000000000E+00  0.00000000000E+00  0.26027330945E+04  0.26027330945E+04  0.25500000000E-02 0.  1.
         -2   -1    0    0    0  501 -0.00000000000E+00 -0.00000000000E+00 -0.23304622173E+03  0.23304622174E+03  0.25500000000E-02 0. -1.
    -200001    2    1    2    0    0  0.32282856752E+03 -0.58585308481E+02  0.10354467215E+04  0.12937523049E+04  0.70284748775E+03 0.  0.
   -5000001    2    3    3    0    0  0.19959090428E+03  0.23341780607E+02  0.24035995584E+03  0.34293027399E+03  0.13945213033E+03 0.  0.
     200001    1    1    2    0    0 -0.32282856752E+03  0.58585308481E+02  0.13342401512E+04  0.15420270113E+04  0.70000000000E+03 0. -1.
         11    1    4    4    0    0  0.26010654218E+02 -0.42383296068E+02  0.20891490149E+02  0.53938411910E+02  0.51100000000E-03 0.  1.
    -200002    1    4    4    0    0  0.17358025006E+03  0.65725076675E+02  0.21946846569E+03  0.28899186208E+03  0.30000000000E+02 0.  1.
    -200000    1    3    3    0    0  0.12323766325E+03 -0.81927089088E+02  0.79508676569E+03  0.95082203095E+03  0.50000000000E+03 0. -1.
<mgrwt>
<rscale>  0 0.15576355E+04</rscale>
<asrwt>0</asrwt>
<pdfrwt beam="1">  1        2 0.37181900E+00 0.15576355E+04</pdfrwt>
<pdfrwt beam="2">  1       -2 0.33292318E-01 0.15576355E+04</pdfrwt>
<totfact> 0.31630428E+01</totfact>
</mgrwt>
</event>
<event>
 8    2  0.2588871E-009  0.1549008E+04  0.7818608E-02  0.8852502E-01
          2   -1    0    0  501    0  0.00000000000E+00  0.00000000000E+00  0.44495513681E+03  0.44495513682E+03  0.25500000000E-02 0.  1.
         -2   -1    0    0    0  501 -0.00000000000E+00 -0.00000000000E+00 -0.13481281063E+04  0.13481281063E+04  0.25500000000E-02 0. -1.
    -200001    2    1    2    0    0 -0.29946382076E+02  0.36585437650E+01 -0.69176138033E+02  0.70383538996E+03  0.69977764135E+03 0.  0.
   -5000001    2    3    3    0    0 -0.12902998172E+03  0.25800571695E+02 -0.39410379046E+02  0.19276413316E+03  0.13524210651E+03 0.  0.
     200001    1    1    2    0    0  0.29946382076E+02 -0.36585437650E+01 -0.83399683145E+03  0.10892478532E+04  0.70000000000E+03 0. -1.
         11    1    4    4    0    0 -0.82773445677E+02 -0.36861501640E+02 -0.57563785925E+02  0.10734897793E+03  0.51100000000E-03 0.  1.
    -200002    1    4    4    0    0 -0.46256536040E+02  0.62662073335E+02  0.18153406879E+02  0.85415155226E+02  0.30000000000E+02 0.  1.
    -200000    1    3    3    0    0  0.99083599641E+02 -0.22142027930E+02 -0.29765758987E+02  0.51107125680E+03  0.50000000000E+03 0.  1.
<mgrwt>
<rscale>  0 0.15490081E+04</rscale>
<asrwt>0</asrwt>
<pdfrwt beam="1">  1        2 0.63565020E-01 0.15490081E+04</pdfrwt>
<pdfrwt beam="2">  1       -2 0.19258973E+00 0.15490081E+04</pdfrwt>
<totfact> 0.11008000E+01</totfact>
</mgrwt>
</event>
<event>
 8    2  0.2588871E-009  0.1952214E+04  0.7818608E-02  0.8629294E-01
         -2   -1    0    0    0  501 -0.00000000000E+00  0.00000000000E+00  0.22430994210E+04  0.22430994210E+04  0.25500000000E-02 0. -1.
          2   -1    0    0  501    0  0.00000000000E+00 -0.00000000000E+00 -0.42476272811E+03  0.42476272811E+03  0.25500000000E-02 0.  1.
    -200001    2    1    2    0    0  0.24357646605E+03 -0.62365759214E+03  0.10747093872E+04  0.14466906391E+04  0.69973941670E+03 0.  0.
   -5000001    2    3    3    0    0  0.29352854099E+02 -0.13139124459E+03  0.19303793495E+03  0.29971092587E+03  0.18557409722E+03 0.  0.
     200001    1    1    2    0    0 -0.24357646605E+03  0.62365759214E+03  0.74362730565E+03  0.12211715100E+04  0.70000000000E+03 0. -1.
         11    1    4    4    0    0  0.13719293057E+02 -0.15808153845E+03  0.20080002458E+03  0.25592702412E+03  0.51100000000E-03 0.  1.
    -200002    1    4    4    0    0  0.15633561042E+02  0.26690293866E+02 -0.77620896284E+01  0.43783901755E+02  0.30000000000E+02 0.  1.
    -200000    1    3    3    0    0  0.21422361195E+03 -0.49226634756E+03  0.88167145225E+03  0.11469797132E+04  0.50000000000E+03 0.  1.
<mgrwt>
<rscale>  0 0.19522142E+04</rscale>
<asrwt>0</asrwt>
<pdfrwt beam="1">  1        2 0.60680389E-01 0.19522142E+04</pdfrwt>
<pdfrwt beam="2">  1       -2 0.32044278E+00 0.19522142E+04</pdfrwt>
<totfact> 0.18025773E+00</totfact>
</mgrwt>
</event>
<event>
 8    2  0.2588871E-009  0.1539515E+04  0.7818608E-02  0.8858593E-01
         -2   -1    0    0    0  501 -0.00000000000E+00  0.00000000000E+00  0.19536548752E+03  0.19536548754E+03  0.25500000000E-02 0. -1.
          2   -1    0    0  501    0  0.00000000000E+00 -0.00000000000E+00 -0.30329128882E+04  0.30329128882E+04  0.25500000000E-02 0.  1.
    -200001    2    1    2    0    0 -0.64520488202E+02 -0.18739026395E+03 -0.19461740235E+04  0.20777026495E+04  0.69998354640E+03 0.  0.
   -5000001    2    3    3    0    0 -0.13484531591E+02 -0.68891429658E+02 -0.58752442441E+03  0.62423253424E+03  0.19888048134E+03 0.  0.
     200001    1    1    2    0    0  0.64520488202E+02  0.18739026395E+03 -0.89137337713E+03  0.11505757263E+04  0.70000000000E+03 0.  1.
         11    1    4    4    0    0  0.17605888125E+02 -0.32694374676E+01 -0.52093360644E+03  0.52124128658E+03  0.51100000000E-03 0.  1.
    -200002    1    4    4    0    0 -0.31090419716E+02 -0.65621992190E+02 -0.66590817964E+02  0.10299124766E+03  0.30000000000E+02 0.  1.
    -200000    1    3    3    0    0 -0.51035956610E+02 -0.11849883429E+03 -0.13586495991E+04  0.14534701152E+04  0.50000000000E+03 0.  1.
<mgrwt>
<rscale>  0 0.15395149E+04</rscale>
<asrwt>0</asrwt>
<pdfrwt beam="1">  1        2 0.43327324E+00 0.15395149E+04</pdfrwt>
<pdfrwt beam="2">  1       -2 0.27909357E-01 0.15395149E+04</pdfrwt>
<totfact> 0.25696323E+01</totfact>
</mgrwt>
</event>
<event>
 8    2  0.2588871E-009  0.1848738E+04  0.7818608E-02  0.8680802E-01
         -2   -1    0    0    0  501 -0.00000000000E+00  0.00000000000E+00  0.54868931687E+03  0.54868931687E+03  0.25500000000E-02 0.  1.
          2   -1    0    0  501    0  0.00000000000E+00 -0.00000000000E+00 -0.15572703862E+04  0.15572703862E+04  0.25500000000E-02 0. -1.
    -200001    2    1    2    0    0 -0.48839665351E+03  0.10632262105E+03 -0.11785068481E+03  0.86772046575E+03  0.69943851186E+03 0.  0.
   -5000001    2    3    3    0    0 -0.70394845772E+02  0.57838500958E+02 -0.16741923772E+02  0.20643444387E+03  0.18448349818E+03 0.  0.
     200001    1    1    2    0    0  0.48839665351E+03 -0.10632262105E+03 -0.89073038450E+03  0.12382392373E+04  0.70000000000E+03 0. -1.
         11    1    4    4    0    0 -0.13208204763E+02 -0.36742978945E+02  0.57825611648E+02  0.69773236542E+02  0.51100000000E-03 0.  1.
    -200002    1    4    4    0    0 -0.57186641009E+02  0.94581479903E+02 -0.74567535420E+02  0.13666120733E+03  0.30000000000E+02 0.  1.
    -200000    1    3    3    0    0 -0.41800180774E+03  0.48484120094E+02 -0.10110876104E+03  0.66128602188E+03  0.50000000000E+03 0.  1.
<mgrwt>
<rscale>  0 0.18487375E+04</rscale>
<asrwt>0</asrwt>
<pdfrwt beam="1">  1        2 0.22246720E+00 0.18487375E+04</pdfrwt>
<pdfrwt beam="2">  1       -2 0.78384189E-01 0.18487375E+04</pdfrwt>
<totfact> 0.18609460E+01</totfact>
</mgrwt>
</event>
<event>
 8    2  0.2588871E-009  0.1969339E+04  0.7818608E-02  0.8621091E-01
         -2   -1    0    0    0  501 -0.00000000000E+00  0.00000000000E+00  0.90567748776E+03  0.90567748777E+03  0.25500000000E-02 0. -1.
          2   -1    0    0  501    0  0.00000000000E+00 -0.00000000000E+00 -0.10705508775E+04  0.10705508775E+04  0.25500000000E-02 0.  1.
    -200001    2    1    2    0    0  0.19555036161E+03 -0.40758453123E+03  0.44440622094E+03  0.94395575688E+03  0.69942153792E+03 0.  0.
   -5000001    2    3    3    0    0  0.18328989923E+02 -0.14425879465E+03 -0.23239274387E+02  0.18934316261E+03  0.11901351876E+03 0.  0.
     200001    1    1    2    0    0 -0.19555036161E+03  0.40758453123E+03 -0.60927961065E+03  0.10322726084E+04  0.70000000000E+03 0.  1.
         11    1    4    4    0    0  0.64021654496E+02 -0.66331144896E+02 -0.42840031708E+01  0.92287299837E+02  0.51100000000E-03 0.  1.
    -200002    1    4    4    0    0 -0.45692664573E+02 -0.77927649758E+02 -0.18955271216E+02  0.97055862777E+02  0.30000000000E+02 0. -1.
    -200000    1    3    3    0    0  0.17722137169E+03 -0.26332573658E+03  0.46764549532E+03  0.75461259427E+03  0.50000000000E+03 0. -1.
<mgrwt>
<rscale>  0 0.19693388E+04</rscale>
<asrwt>0</asrwt>
<pdfrwt beam="1">  1        2 0.15293584E+00 0.19693388E+04</pdfrwt>
<pdfrwt beam="2">  1       -2 0.12938250E+00 0.19693388E+04</pdfrwt>
<totfact> 0.10455100E+01</totfact>
</mgrwt>
</event>
<event>
 8    2  0.2588871E-009  0.3494006E+04  0.7818608E-02  0.8115212E-01
         -2   -1    0    0    0  501 -0.00000000000E+00  0.00000000000E+00  0.61699449120E+03  0.61699449121E+03  0.25500000000E-02 0. -1.
          2   -1    0    0  501    0  0.00000000000E+00 -0.00000000000E+00 -0.49465900116E+04  0.49465900116E+04  0.25500000000E-02 0.  1.
    -200001    2    1    2    0    0  0.55792883823E+03  0.93562126809E+03 -0.29723901490E+03  0.13284256235E+04  0.69977986487E+03 0.  0.
   -5000001    2    3    3    0    0  0.20104487321E+03  0.15155631719E+03 -0.17707292794E+02  0.29389094769E+03  0.15056554251E+03 0.  0.
     200001    1    1    2    0    0 -0.55792883823E+03 -0.93562126809E+03 -0.40323565055E+04  0.42351588794E+04  0.70000000000E+03 0.  1.
         11    1    4    4    0    0  0.19164259304E+03  0.67483363740E+02 -0.50130581288E+01  0.20323882158E+03  0.51100000000E-03 0.  1.
    -200002    1    4    4    0    0  0.94022801785E+01  0.84072953446E+02 -0.12694234665E+02  0.90652126105E+02  0.30000000000E+02 0.  1.
    -200000    1    3    3    0    0  0.35688396501E+03  0.78406495090E+03 -0.27953172211E+03  0.10345346758E+04  0.50000000000E+03 0. -1.
<mgrwt>
<rscale>  0 0.34940056E+04</rscale>
<asrwt>0</asrwt>
<pdfrwt beam="1">  1        2 0.70665570E+00 0.34940056E+04</pdfrwt>
<pdfrwt beam="2">  1       -2 0.88142073E-01 0.34940056E+04</pdfrwt>
<totfact> 0.90677694E-02</totfact>
</mgrwt>
</event>
<event>
 8    2  0.2588871E-009  0.1569442E+04  0.7818608E-02  0.8839544E-01
         -2   -1    0    0    0  501 -0.00000000000E+00  0.00000000000E+00  0.13148372572E+04  0.13148372572E+04  0.25500000000E-02 0. -1.
          2   -1    0    0  501    0  0.00000000000E+00 -0.00000000000E+00 -0.46833710526E+03  0.46833710527E+03  0.25500000000E-02 0.  1.
    -200001    2    1    2    0    0 -0.17751098685E+03 -0.30601775708E+03  0.39235353410E+03  0.87685975451E+03  0.69984620830E+03 0.  0.
   -5000001    2    3    3    0    0  0.20242465048E+02 -0.11144045757E+03  0.48718972148E+02  0.20973797748E+03  0.16966952578E+03 0.  0.
     200001    1    1    2    0    0  0.17751098685E+03  0.30601775708E+03  0.45414661782E+03  0.90631460795E+03  0.70000000000E+03 0. -1.
         11    1    4    4    0    0 -0.13762777605E+02 -0.14578843485E+03  0.42689759871E+02  0.15253228308E+03  0.51100000000E-03 0.  1.
    -200002    1    4    4    0    0  0.34005242653E+02  0.34347977282E+02  0.60292122765E+01  0.57205694401E+02  0.30000000000E+02 0.  1.
    -200000    1    3    3    0    0 -0.19775345190E+03 -0.19457729951E+03  0.34363456195E+03  0.66712177703E+03  0.50000000000E+03 0.  1.
<mgrwt>
<rscale>  0 0.15694420E+04</rscale>
<asrwt>0</asrwt>
<pdfrwt beam="1">  1        2 0.66905300E-01 0.15694420E+04</pdfrwt>
<pdfrwt beam="2">  1       -2 0.18783389E+00 0.15694420E+04</pdfrwt>
<totfact> 0.11161999E+01</totfact>
</mgrwt>
</event>
<event>
 8    2  0.2588871E-009  0.1587478E+04  0.7818608E-02  0.8828278E-01
          2   -1    0    0  501    0  0.00000000000E+00  0.00000000000E+00  0.32125803194E+04  0.32125803194E+04  0.25500000000E-02 0.  1.
         -2   -1    0    0    0  501 -0.00000000000E+00 -0.00000000000E+00 -0.19611075032E+03  0.19611075034E+03  0.25500000000E-02 0. -1.
    -200001    2    1    2    0    0 -0.21940843272E+03  0.15752073215E+03  0.20628387548E+04  0.21952807635E+04  0.70071467861E+03 0.  0.
   -5000001    2    3    3    0    0 -0.50875300907E+02  0.15371155071E+03  0.74343803186E+03  0.77428245452E+03  0.14351890154E+03 0.  0.
     200001    1    1    2    0    0  0.21940843272E+03 -0.15752073215E+03  0.95363081429E+03  0.12134103063E+04  0.70000000000E+03 0. -1.
         11    1    4    4    0    0 -0.17201364685E+02  0.57512054709E+02  0.55269288544E+03  0.55594329657E+03  0.51100000000E-03 0.  1.
    -200002    1    4    4    0    0 -0.33673936222E+02  0.96199496006E+02  0.19074514642E+03  0.21833915795E+03  0.30000000000E+02 0.  1.
    -200000    1    3    3    0    0 -0.16853313181E+03  0.38091814336E+01  0.13194007229E+04  0.14209983089E+04  0.50000000000E+03 0.  1.
<mgrwt>
<rscale>  0 0.15874779E+04</rscale>
<asrwt>0</asrwt>
<pdfrwt beam="1">  1        2 0.45893998E+00 0.15874779E+04</pdfrwt>
<pdfrwt beam="2">  1       -2 0.28015825E-01 0.15874779E+04</pdfrwt>
<totfact> 0.20088992E+01</totfact>
</mgrwt>
</event>
<event>
 8    2  0.2588871E-009  0.2280139E+04  0.7818608E-02  0.8485793E-01
         -2   -1    0    0    0  501 -0.00000000000E+00  0.00000000000E+00  0.13613826792E+04  0.13613826792E+04  0.25500000000E-02 0.  1.
          2   -1    0    0  501    0  0.00000000000E+00 -0.00000000000E+00 -0.95473444550E+03  0.95473444550E+03  0.25500000000E-02 0. -1.
    -200001    2    1    2    0    0  0.79423223162E+03 -0.36968350309E+03  0.41346899284E+03  0.11947263574E+04  0.69924511504E+03 0.  0.
   -5000001    2    3    3    0    0  0.40311466136E+03 -0.17292620057E+03  0.20487634804E+03  0.49816531824E+03  0.11742855386E+03 0.  0.
     200001    1    1    2    0    0 -0.79423223162E+03  0.36968350309E+03 -0.68207591128E+01  0.11213907673E+04  0.70000000000E+03 0.  1.
         11    1    4    4    0    0  0.16286282843E+03 -0.83684467580E+02  0.27783804849E+02  0.18520078512E+03  0.51100000000E-03 0.  1.
    -200002    1    4    4    0    0  0.24025183293E+03 -0.89241732994E+02  0.17709254319E+03  0.31296453312E+03  0.30000000000E+02 0.  1.
    -200000    1    3    3    0    0  0.39111757026E+03 -0.19675730252E+03  0.20859264480E+03  0.69656103920E+03  0.50000000000E+03 0. -1.
<mgrwt>
<rscale>  0 0.22801394E+04</rscale>
<asrwt>0</asrwt>
<pdfrwt beam="1">  1        2 0.13639064E+00 0.22801394E+04</pdfrwt>
<pdfrwt beam="2">  1       -2 0.19448324E+00 0.22801394E+04</pdfrwt>
<totfact> 0.39558123E+00</totfact>
</mgrwt>
</event>
<event>
 8    2  0.2588871E-009  0.1589993E+04  0.7818608E-02  0.8826719E-01
          2   -1    0    0  501    0  0.00000000000E+00  0.00000000000E+00  0.44409707197E+03  0.44409707198E+03  0.25500000000E-02 0.  1.
         -2   -1    0    0    0  501 -0.00000000000E+00 -0.00000000000E+00 -0.14231565601E+04  0.14231565601E+04  0.25500000000E-02 0. -1.
    -200001    2    1    2    0    0  0.26099221951E+03 -0.23976721529E+03 -0.33958196424E+03  0.85505959942E+03  0.70014695025E+03 0.  0.
   -5000001    2    3    3    0    0  0.22453117740E+02  0.35802222023E+02 -0.13400011501E+03  0.20306012504E+03  0.14659959741E+03 0.  0.
     200001    1    1    2    0    0 -0.26099221951E+03  0.23976721529E+03 -0.63947752388E+03  0.10121940326E+04  0.70000000000E+03 0. -1.
         11    1    4    4    0    0 -0.12647494573E+02 -0.39163454028E+02  0.18243095638E+01  0.41195428824E+02  0.51100000000E-03 0.  1.
    -200002    1    4    4    0    0  0.35100612314E+02  0.74965676051E+02 -0.13582442458E+03  0.16186469622E+03  0.30000000000E+02 0.  1.
    -200000    1    3    3    0    0  0.23853910177E+03 -0.27556943732E+03 -0.20558184922E+03  0.65199947437E+03  0.50000000000E+03 0.  1.
<mgrwt>
<rscale>  0 0.15899933E+04</rscale>
<asrwt>0</asrwt>
<pdfrwt beam="1">  1        2 0.63442440E-01 0.15899933E+04</pdfrwt>
<pdfrwt beam="2">  1       -2 0.20330808E+00 0.15899933E+04</pdfrwt>
<totfact> 0.93456697E+00</totfact>
</mgrwt>
</event>
<event>
 8    2  0.2588871E-009  0.1519183E+04  0.7818608E-02  0.8871796E-01
          2   -1    0    0  501    0  0.00000000000E+00  0.00000000000E+00  0.41072575837E+04  0.41072575837E+04  0.25500000000E-02 0.  1.
         -2   -1    0    0    0  501 -0.00000000000E+00 -0.00000000000E+00 -0.14047796406E+03  0.14047796408E+03  0.25500000000E-02 0. -1.
    -200001    2    1    2    0    0 -0.15067122317E+03 -0.23153657874E+03  0.16926105094E+04  0.18522906733E+04  0.69981383028E+03 0.  0.
   -5000001    2    3    3    0    0 -0.52526844672E+02 -0.52975798939E+02  0.64917262194E+03  0.67743796078E+03  0.17869413237E+03 0.  0.
     200001    1    1    2    0    0  0.15067122317E+03  0.23153657874E+03  0.22741691103E+04  0.23954448745E+04  0.70000000000E+03 0.  1.
         11    1    4    4    0    0 -0.12394837988E+02 -0.51844324995E+02  0.41117847942E+02  0.67321196236E+02  0.51100000000E-03 0.  1.
    -200002    1    4    4    0    0 -0.40132006684E+02 -0.11314739440E+01  0.60805477400E+03  0.61011676454E+03  0.30000000000E+02 0.  1.
    -200000    1    3    3    0    0 -0.98144378493E+02 -0.17856077980E+03  0.10434378875E+04  0.11748527125E+04  0.50000000000E+03 0.  1.
<mgrwt>
<rscale>  0 0.15191829E+04</rscale>
<asrwt>0</asrwt>
<pdfrwt beam="1">  1        2 0.58675102E+00 0.15191829E+04</pdfrwt>
<pdfrwt beam="2">  1       -2 0.20068283E-01 0.15191829E+04</pdfrwt>
<totfact> 0.10030963E+01</totfact>
</mgrwt>
</event>
<event>
 8    2  0.2588871E-009  0.2218215E+04  0.7818608E-02  0.8510884E-01
         -2   -1    0    0    0  501 -0.00000000000E+00  0.00000000000E+00  0.12904498529E+04  0.12904498529E+04  0.25500000000E-02 0. -1.
          2   -1    0    0  501    0  0.00000000000E+00 -0.00000000000E+00 -0.95324894110E+03  0.95324894111E+03  0.25500000000E-02 0.  1.
    -200001    2    1    2    0    0  0.37910251158E+03 -0.75806342577E+03  0.18855381975E+02  0.10992676043E+04  0.69975343413E+03 0.  0.
   -5000001    2    3    3    0    0  0.28586721844E+01 -0.60884798688E+02  0.97006357145E+02  0.15920109615E+03  0.11054241255E+03 0.  0.
     200001    1    1    2    0    0 -0.37910251158E+03  0.75806342577E+03  0.31834552984E+03  0.11444311898E+04  0.70000000000E+03 0.  1.
         11    1    4    4    0    0 -0.17119223895E+01 -0.49575946899E+02  0.11275913140E+03  0.12318817680E+03  0.51100000000E-03 0.  1.
    -200002    1    4    4    0    0  0.45705945739E+01 -0.11308851789E+02 -0.15752774256E+02  0.36012919353E+02  0.30000000000E+02 0.  1.
    -200000    1    3    3    0    0  0.37624383939E+03 -0.69717862708E+03 -0.78150975170E+02  0.94006650810E+03  0.50000000000E+03 0. -1.
<mgrwt>
<rscale>  0 0.22182155E+04</rscale>
<asrwt>0</asrwt>
<pdfrwt beam="1">  1        2 0.13617842E+00 0.22182155E+04</pdfrwt>
<pdfrwt beam="2">  1       -2 0.18434998E+00 0.22182155E+04</pdfrwt>
<totfact> 0.46615929E+00</totfact>
</mgrwt>
</event>
<event>
 8    2  0.2588871E-009  0.1910619E+04  0.7818608E-02  0.8649589E-01
         -2   -1    0    0    0  501 -0.00000000000E+00  0.00000000000E+00  0.22945913737E+03  0.22945913738E+03  0.25500000000E-02 0. -1.
          2   -1    0    0  501    0  0.00000000000E+00 -0.00000000000E+00 -0.39772496451E+04  0.39772496451E+04  0.25500000000E-02 0.  1.
    -200001    2    1    2    0    0  0.26194951913E+03 -0.55224696027E+03 -0.23630422258E+04  0.25390391329E+04  0.69939752784E+03 0.  0.
   -5000001    2    3    3    0    0  0.13995059814E+03 -0.17555577429E+03 -0.79366765075E+03  0.84501536004E+03  0.18367530876E+03 0.  0.
     200001    1    1    2    0    0 -0.26194951913E+03  0.55224696027E+03 -0.13847482819E+04  0.16676696495E+04  0.70000000000E+03 0. -1.
         11    1    4    4    0    0  0.82627492287E+02 -0.19768596655E+03 -0.67344279967E+03  0.70670520607E+03  0.51100000000E-03 0.  1.
    -200002    1    4    4    0    0  0.57323105855E+02  0.22130192264E+02 -0.12022485107E+03  0.13831015396E+03  0.30000000000E+02 0.  1.
    -200000    1    3    3    0    0  0.12199892099E+03 -0.37669118598E+03 -0.15693745750E+04  0.16940237729E+04  0.50000000000E+03 0.  1.
<mgrwt>
<rscale>  0 0.19106190E+04</rscale>
<asrwt>0</asrwt>
<pdfrwt beam="1">  1        2 0.56817848E+00 0.19106190E+04</pdfrwt>
<pdfrwt beam="2">  1       -2 0.32779879E-01 0.19106190E+04</pdfrwt>
<totfact> 0.48489096E+00</totfact>
</mgrwt>
</event>
<event>
 8    2  0.2588871E-009  0.1470665E+04  0.7818608E-02  0.8904198E-01
          2   -1    0    0  501    0  0.00000000000E+00  0.00000000000E+00  0.68080954567E+03  0.68080954568E+03  0.25500000000E-02 0.  1.
         -2   -1    0    0    0  501 -0.00000000000E+00 -0.00000000000E+00 -0.79422160185E+03  0.79422160186E+03  0.25500000000E-02 0. -1.
    -200001    2    1    2    0    0  0.10335019684E+03 -0.11468393195E+03  0.10942235606E+03  0.72437220853E+03  0.69921969155E+03 0.  0.
   -5000001    2    3    3    0    0 -0.25316507415E+02 -0.32621717716E+02  0.27802606264E+02  0.19526814377E+03  0.18881620969E+03 0.  0.
     200001    1    1    2    0    0 -0.10335019684E+03  0.11468393195E+03 -0.22283441224E+03  0.75065893901E+03  0.70000000000E+03 0. -1.
         11    1    4    4    0    0 -0.67699822671E+02 -0.89352337770E+02  0.36441238766E+02  0.11787735210E+03  0.51100000000E-03 0.  1.
    -200002    1    4    4    0    0  0.42383315256E+02  0.56730620054E+02 -0.86386325017E+01  0.77390791670E+02  0.30000000000E+02 0.  1.
    -200000    1    3    3    0    0  0.12866670426E+03 -0.82062214230E+02  0.81619749794E+02  0.52910406476E+03  0.50000000000E+03 0.  1.
<mgrwt>
<rscale>  0 0.14706647E+04</rscale>
<asrwt>0</asrwt>
<pdfrwt beam="1">  1        2 0.97258507E-01 0.14706647E+04</pdfrwt>
<pdfrwt beam="2">  1       -2 0.11346023E+00 0.14706647E+04</pdfrwt>
<totfact> 0.27536824E+01</totfact>
</mgrwt>
</event>
<event>
 8    2  0.2588871E-009  0.1896008E+04  0.7818608E-02  0.8656846E-01
          2   -1    0    0  501    0  0.00000000000E+00  0.00000000000E+00  0.16287514136E+04  0.16287514136E+04  0.25500000000E-02 0.  1.
         -2   -1    0    0    0  501 -0.00000000000E+00 -0.00000000000E+00 -0.55177920929E+03  0.55177920930E+03  0.25500000000E-02 0. -1.
    -200001    2    1    2    0    0 -0.37567881273E+03  0.51444203740E+03  0.60039255442E+03  0.11208545673E+04  0.70004182831E+03 0.  0.
   -5000001    2    3    3    0    0 -0.71310208464E+02  0.27648901863E+03  0.21459516664E+03  0.38051578615E+03  0.13118633584E+03 0.  0.
     200001    1    1    2    0    0  0.37567881273E+03 -0.51444203740E+03  0.47657964987E+03  0.10596760556E+04  0.70000000000E+03 0.  1.
         11    1    4    4    0    0 -0.52975054731E+02  0.26624792609E+03  0.16104638336E+03  0.31564260195E+03  0.51100000000E-03 0.  1.
    -200002    1    4    4    0    0 -0.18335153733E+02  0.10241092549E+02  0.53548783277E+02  0.64873184209E+02  0.30000000000E+02 0.  1.
    -200000    1    3    3    0    0 -0.30436860427E+03  0.23795301876E+03  0.38579738778E+03  0.74033878111E+03  0.50000000000E+03 0.  1.
<mgrwt>
<rscale>  0 0.18960076E+04</rscale>
<asrwt>0</asrwt>
<pdfrwt beam="1">  1        2 0.23267878E+00 0.18960076E+04</pdfrwt>
<pdfrwt beam="2">  1       -2 0.78825599E-01 0.18960076E+04</pdfrwt>
<totfact> 0.16790264E+01</totfact>
</mgrwt>
</event>
<event>
 8    2  0.2588871E-009  0.1537674E+04  0.7818608E-02  0.8859780E-01
          2   -1    0    0  501    0  0.00000000000E+00  0.00000000000E+00  0.77506747031E+03  0.77506747031E+03  0.25500000000E-02 0.  1.
         -2   -1    0    0    0  501 -0.00000000000E+00 -0.00000000000E+00 -0.76265656202E+03  0.76265656202E+03  0.25500000000E-02 0. -1.
    -200001    2    1    2    0    0  0.15506156161E+03  0.13478876825E+03 -0.23465836044E+03  0.76749333736E+03  0.70126270172E+03 0.  0.
   -5000001    2    3    3    0    0 -0.23845439978E+02  0.74556449580E+02  0.36598882786E+02  0.16814691046E+03  0.14424505570E+03 0.  0.
     200001    1    1    2    0    0 -0.15506156161E+03 -0.13478876825E+03  0.24706926873E+03  0.77023069498E+03  0.70000000000E+03 0.  1.
         11    1    4    4    0    0 -0.76252312219E+02  0.65123489091E+02  0.37396526551E+02  0.10702328788E+03  0.51100000000E-03 0.  1.
    -200002    1    4    4    0    0  0.52406872241E+02  0.94329604890E+01 -0.79764376566E+00  0.61123622579E+02  0.30000000000E+02 0.  1.
    -200000    1    3    3    0    0  0.17890700159E+03  0.60232318674E+02 -0.27125724323E+03  0.59934642690E+03  0.50000000000E+03 0. -1.
<mgrwt>
<rscale>  0 0.15376739E+04</rscale>
<asrwt>0</asrwt>
<pdfrwt beam="1">  1        2 0.11072393E+00 0.15376739E+04</pdfrwt>
<pdfrwt beam="2">  1       -2 0.10895094E+00 0.15376739E+04</pdfrwt>
<totfact> 0.25708265E+01</totfact>
</mgrwt>
</event>
<event>
 8    2  0.2588871E-009  0.1521901E+04  0.7818608E-02  0.8870018E-01
          2   -1    0    0  501    0  0.00000000000E+00  0.00000000000E+00  0.57447164472E+03  0.57447164473E+03  0.25500000000E-02 0.  1.
         -2   -1    0    0    0  501 -0.00000000000E+00 -0.00000000000E+00 -0.10079624159E+04  0.10079624159E+04  0.25500000000E-02 0. -1.
    -200001    2    1    2    0    0 -0.22416280630E+03  0.78404438912E+02 -0.29296385458E+02  0.73995597711E+03  0.70020022143E+03 0.  0.
   -5000001    2    3    3    0    0 -0.14093595067E+03  0.59027729937E+02  0.51998156738E+02  0.22623331951E+03  0.15852599616E+03 0.  0.
     200001    1    1    2    0    0  0.22416280630E+03 -0.78404438912E+02 -0.40419438573E+03  0.84247808353E+03  0.70000000000E+03 0. -1.
         11    1    4    4    0    0 -0.43571529328E+02  0.68956683936E+02  0.85845356401E+02  0.11841844300E+03  0.51100000000E-03 0.  1.
    -200002    1    4    4    0    0 -0.97364421339E+02 -0.99289539989E+01 -0.33847199662E+02  0.10781487650E+03  0.30000000000E+02 0.  1.
    -200000    1    3    3    0    0 -0.83226855630E+02  0.19376708975E+02 -0.81294542197E+02  0.51372265761E+03  0.50000000000E+03 0.  1.
<mgrwt>
<rscale>  0 0.15219012E+04</rscale>
<asrwt>0</asrwt>
<pdfrwt beam="1">  1        2 0.82067378E-01 0.15219012E+04</pdfrwt>
<pdfrwt beam="2">  1       -2 0.14399463E+00 0.15219012E+04</pdfrwt>
<totfact> 0.18417331E+01</totfact>
</mgrwt>
</event>
<event>
 8    2  0.2588871E-009  0.1461642E+04  0.7818608E-02  0.8910369E-01
          2   -1    0    0  501    0  0.00000000000E+00  0.00000000000E+00  0.79923941369E+03  0.79923941370E+03  0.25500000000E-02 0.  1.
         -2   -1    0    0    0  501 -0.00000000000E+00 -0.00000000000E+00 -0.66825923972E+03  0.66825923973E+03  0.25500000000E-02 0. -1.
    -200001    2    1    2    0    0  0.20895881735E+03 -0.12034003838E+02  0.12326097888E+02  0.72730449351E+03  0.69642751884E+03 0.  0.
   -5000001    2    3    3    0    0  0.84804676412E+02 -0.11686642026E+03 -0.63820466334E+02  0.19607724883E+03  0.11629119598E+03 0.  0.
     200001    1    1    2    0    0 -0.20895881735E+03  0.12034003838E+02  0.11865407608E+03  0.74019415991E+03  0.70000000000E+03 0.  1.
         11    1    4    4    0    0  0.47427459229E+02 -0.85697795846E+02 -0.90164769958E+02  0.13312836604E+03  0.51100000000E-03 0.  1.
    -200002    1    4    4    0    0  0.37377217184E+02 -0.31168624412E+02  0.26344303623E+02  0.62948882798E+02  0.30000000000E+02 0.  1.
    -200000    1    3    3    0    0  0.12415414094E+03  0.10483241642E+03  0.76146564223E+02  0.53122724468E+03  0.50000000000E+03 0.  1.
<mgrwt>
<rscale>  0 0.14616417E+04</rscale>
<asrwt>0</asrwt>
<pdfrwt beam="1">  1        2 0.11417706E+00 0.14616417E+04</pdfrwt>
<pdfrwt beam="2">  1       -2 0.95465606E-01 0.14616417E+04</pdfrwt>
<totfact> 0.34048056E+01</totfact>
</mgrwt>
</event>
<event>
 8    2  0.2588871E-009  0.1545936E+04  0.7818608E-02  0.8854468E-01
          2   -1    0    0  501    0  0.00000000000E+00  0.00000000000E+00  0.22101126287E+04  0.22101126287E+04  0.25500000000E-02 0.  1.
         -2   -1    0    0    0  501 -0.00000000000E+00 -0.00000000000E+00 -0.27033909317E+03  0.27033909318E+03  0.25500000000E-02 0. -1.
    -200001    2    1    2    0    0 -0.31712993758E+03 -0.12608796366E+02  0.84281849734E+03  0.11410336636E+04  0.70063144587E+03 0.  0.
   -5000001    2    3    3    0    0 -0.15008211384E+03 -0.31087611589E+02  0.19833656711E+03  0.30820510955E+03  0.17933743394E+03 0.  0.
     200001    1    1    2    0    0  0.31712993758E+03  0.12608796366E+02  0.10969550382E+04  0.13394180583E+04  0.70000000000E+03 0. -1.
         11    1    4    4    0    0  0.31623643748E+02  0.29493435905E+01  0.81487065315E+02  0.87457962962E+02  0.51100000000E-03 0.  1.
    -200002    1    4    4    0    0 -0.18170575759E+03 -0.34036955179E+02  0.11684950179E+03  0.22074714659E+03  0.30000000000E+02 0.  1.
    -200000    1    3    3    0    0 -0.16704782374E+03  0.18478815223E+02  0.64448193024E+03  0.83282855404E+03  0.50000000000E+03 0. -1.
<mgrwt>
<rscale>  0 0.15459364E+04</rscale>
<asrwt>0</asrwt>
<pdfrwt beam="1">  1        2 0.31573036E+00 0.15459364E+04</pdfrwt>
<pdfrwt beam="2">  1       -2 0.38619873E-01 0.15459364E+04</pdfrwt>
<totfact> 0.38187060E+01</totfact>
</mgrwt>
</event>
<event>
 8    2  0.2588871E-009  0.2120008E+04  0.7818608E-02  0.8552481E-01
         -2   -1    0    0    0  501 -0.00000000000E+00  0.00000000000E+00  0.26108550235E+03  0.26108550237E+03  0.25500000000E-02 0. -1.
          2   -1    0    0  501    0  0.00000000000E+00 -0.00000000000E+00 -0.43036035213E+04  0.43036035213E+04  0.25500000000E-02 0.  1.
    -200001    2    1    2    0    0 -0.27050598103E+03  0.73903299504E+03 -0.17663256225E+04  0.20566230200E+04  0.70032048937E+03 0.  0.
   -5000001    2    3    3    0    0 -0.24754844900E+02  0.28732525668E+03 -0.32267428407E+03  0.44461722316E+03  0.10196654386E+03 0.  0.
     200001    1    1    2    0    0  0.27050598103E+03 -0.73903299504E+03 -0.22761923964E+04  0.25080660037E+04  0.70000000000E+03 0. -1.
         11    1    4    4    0    0 -0.19996605098E+02  0.90895692874E+02 -0.45646908561E+02  0.10366065531E+03  0.51100000000E-03 0.  1.
    -200002    1    4    4    0    0 -0.47582398019E+01  0.19642956380E+03 -0.27702737551E+03  0.34095656785E+03  0.30000000000E+02 0.  1.
    -200000    1    3    3    0    0 -0.24575113613E+03  0.45170773836E+03 -0.14436513385E+04  0.16120057968E+04  0.50000000000E+03 0.  1.
<mgrwt>
<rscale>  0 0.21200080E+04</rscale>
<asrwt>0</asrwt>
<pdfrwt beam="1">  1        2 0.61480046E+00 0.21200080E+04</pdfrwt>
<pdfrwt beam="2">  1       -2 0.37297931E-01 0.21200080E+04</pdfrwt>
<totfact> 0.21729751E+00</totfact>
</mgrwt>
</event>
<event>
 8    2  0.2588871E-009  0.1761332E+04  0.7818608E-02  0.8727137E-01
          2   -1    0    0  501    0  0.00000000000E+00  0.00000000000E+00  0.36482393770E+04  0.36482393770E+04  0.25500000000E-02 0.  1.
         -2   -1    0    0    0  501 -0.00000000000E+00 -0.00000000000E+00 -0.21258814857E+03  0.21258814858E+03  0.25500000000E-02 0. -1.
    -200001    2    1    2    0    0 -0.18943916280E+03 -0.49930997555E+03  0.17939855949E+04  0.19979631450E+04  0.69876660338E+03 0.  0.
   -5000001    2    3    3    0    0  0.49414688523E+02 -0.82079702076E+02  0.25324820003E+03  0.30828744141E+03  0.14740287234E+03 0.  0.
     200001    1    1    2    0    0  0.18943916280E+03  0.49930997555E+03  0.16416656335E+04  0.18628643806E+04  0.70000000000E+03 0.  1.
         11    1    4    4    0    0  0.61377838931E+01 -0.44462816690E+02  0.23747400251E+03  0.24167853924E+03  0.51100000000E-03 0.  1.
    -200002    1    4    4    0    0  0.43276904630E+02 -0.37616885386E+02  0.15774197522E+02  0.66608902167E+02  0.30000000000E+02 0.  1.
    -200000    1    3    3    0    0 -0.23885385132E+03 -0.41723027348E+03  0.15407373948E+04  0.16896757036E+04  0.50000000000E+03 0. -1.
<mgrwt>
<rscale>  0 0.17613318E+04</rscale>
<asrwt>0</asrwt>
<pdfrwt beam="1">  1        2 0.52117704E+00 0.17613318E+04</pdfrwt>
<pdfrwt beam="2">  1       -2 0.30369736E-01 0.17613318E+04</pdfrwt>
<totfact> 0.93144105E+00</totfact>
</mgrwt>
</event>
<event>
 8    2  0.2588871E-009  0.1919189E+04  0.7818608E-02  0.8645363E-01
          2   -1    0    0  501    0  0.00000000000E+00  0.00000000000E+00  0.11261376378E+04  0.11261376378E+04  0.25500000000E-02 0. -1.
         -2   -1    0    0    0  501 -0.00000000000E+00 -0.00000000000E+00 -0.81768105430E+03  0.81768105430E+03  0.25500000000E-02 0.  1.
    -200001    2    1    2    0    0 -0.28621253207E+03  0.31519056658E+03  0.65997844724E+03  0.10522861198E+04  0.70033693341E+03 0.  0.
   -5000001    2    3    3    0    0 -0.16595567137E+03  0.64778006138E+02  0.18147493868E+03  0.30654234966E+03  0.17116536983E+03 0.  0.
     200001    1    1    2    0    0  0.28621253207E+03 -0.31519056658E+03 -0.35152186376E+03  0.89153257230E+03  0.70000000000E+03 0.  1.
         11    1    4    4    0    0 -0.16213419495E+03 -0.42489791595E+01  0.81988998352E+02  0.18173537588E+03  0.51100000000E-03 0.  1.
    -200002    1    4    4    0    0 -0.38214764240E+01  0.69026985297E+02  0.99485940329E+02  0.12480697378E+03  0.30000000000E+02 0.  1.
    -200000    1    3    3    0    0 -0.12025686070E+03  0.25041256044E+03  0.47850350856E+03  0.74574377013E+03  0.50000000000E+03 0. -1.
<mgrwt>
<rscale>  0 0.19191888E+04</rscale>
<asrwt>0</asrwt>
<pdfrwt beam="1">  1        2 0.16087681E+00 0.19191888E+04</pdfrwt>
<pdfrwt beam="2">  1       -2 0.11681158E+00 0.19191888E+04</pdfrwt>
<totfact> 0.12561491E+01</totfact>
</mgrwt>
</event>
<event>
 8    2  0.2588871E-009  0.1474361E+04  0.7818608E-02  0.8901684E-01
          2   -1    0    0  501    0  0.00000000000E+00  0.00000000000E+00  0.55702529632E+03  0.55702529633E+03  0.25500000000E-02 0.  1.
         -2   -1    0    0    0  501 -0.00000000000E+00 -0.00000000000E+00 -0.97560203345E+03  0.97560203346E+03  0.25500000000E-02 0. -1.
    -200001    2    1    2    0    0  0.79159969314E+02  0.52094399967E+02  0.85068322415E+01  0.70716957648E+03  0.70073983508E+03 0.  0.
   -5000001    2    3    3    0    0 -0.24645793622E+02  0.87773585047E+02 -0.34695204205E+02  0.19344294040E+03  0.16704728858E+03 0.  0.
     200001    1    1    2    0    0 -0.79159969314E+02 -0.52094399967E+02 -0.42708356938E+03  0.82545775330E+03  0.70000000000E+03 0. -1.
         11    1    4    4    0    0  0.48957443839E+02  0.66262140704E+02 -0.65783763711E+02  0.10542772959E+03  0.51100000000E-03 0.  1.
    -200002    1    4    4    0    0 -0.73603237461E+02  0.21511444343E+02  0.31088559506E+02  0.88015210814E+02  0.30000000000E+02 0.  1.
    -200000    1    3    3    0    0  0.10380576294E+03 -0.35679185080E+02  0.43202036447E+02  0.51372663608E+03  0.50000000000E+03 0.  1.
<mgrwt>
<rscale>  0 0.14743609E+04</rscale>
<asrwt>0</asrwt>
<pdfrwt beam="1">  1        2 0.79575042E-01 0.14743609E+04</pdfrwt>
<pdfrwt beam="2">  1       -2 0.13937172E+00 0.14743609E+04</pdfrwt>
<totfact> 0.20866108E+01</totfact>
</mgrwt>
</event>
<event>
 8    2  0.2588871E-009  0.1577031E+04  0.7818608E-02  0.8834784E-01
          2   -1    0    0  501    0  0.00000000000E+00  0.00000000000E+00  0.32215894688E+03  0.32215894689E+03  0.25500000000E-02 0.  1.
         -2   -1    0    0    0  501 -0.00000000000E+00 -0.00000000000E+00 -0.19299693377E+04  0.19299693377E+04  0.25500000000E-02 0. -1.
    -200001    2    1    2    0    0 -0.42334468179E+02 -0.11949432022E+03 -0.12902304645E+04  0.14730723756E+04  0.69941151859E+03 0.  0.
   -5000001    2    3    3    0    0 -0.95668715415E+02 -0.12837092427E+03 -0.41112157706E+03  0.46027635858E+03  0.13115554823E+03 0.  0.
     200001    1    1    2    0    0  0.42334468179E+02  0.11949432022E+03 -0.31757992628E+03  0.77905590899E+03  0.70000000000E+03 0.  1.
         11    1    4    4    0    0  0.28372862470E+02 -0.42835297281E+02 -0.77550301777E+02  0.93026508715E+02  0.51100000000E-03 0.  1.
    -200002    1    4    4    0    0 -0.12404157789E+03 -0.85535626991E+02 -0.33357127528E+03  0.36724984986E+03  0.30000000000E+02 0.  1.
    -200000    1    3    3    0    0  0.53334247236E+02  0.88766040475E+01 -0.87910888745E+03  0.10127960170E+04  0.50000000000E+03 0. -1.
<mgrwt>
<rscale>  0 0.15770312E+04</rscale>
<asrwt>0</asrwt>
<pdfrwt beam="1">  1        2 0.46022708E-01 0.15770312E+04</pdfrwt>
<pdfrwt beam="2">  1       -2 0.27570990E+00 0.15770312E+04</pdfrwt>
<totfact> 0.47512411E+00</totfact>
</mgrwt>
</event>
<event>
 8    2  0.2588871E-009  0.1459353E+04  0.7818608E-02  0.8911942E-01
          2   -1    0    0  501    0  0.00000000000E+00  0.00000000000E+00  0.29935569996E+03  0.29935569997E+03  0.25500000000E-02 0.  1.
         -2   -1    0    0    0  501 -0.00000000000E+00 -0.00000000000E+00 -0.17785779593E+04  0.17785779593E+04  0.25500000000E-02 0. -1.
    -200001    2    1    2    0    0  0.95546226212E+02  0.15027643194E+03 -0.58979637073E+03  0.93216295854E+03  0.69953980231E+03 0.  0.
   -5000001    2    3    3    0    0 -0.26086519332E+02 -0.72937964126E+00 -0.16884798024E+03  0.25040433016E+03  0.18306187382E+03 0.  0.
     200001    1    1    2    0    0 -0.95546226212E+02 -0.15027643194E+03 -0.88942588864E+03  0.11457707008E+04  0.70000000000E+03 0. -1.
         11    1    4    4    0    0  0.32759567212E+02  0.50134524069E+01  0.27562829770E+02  0.43104913109E+02  0.51100000000E-03 0.  1.
    -200002    1    4    4    0    0 -0.58846086545E+02 -0.57428320481E+01 -0.19641081001E+03  0.20729941705E+03  0.30000000000E+02 0.  1.
    -200000    1    3    3    0    0  0.12163274554E+03  0.15100581158E+03 -0.42094839049E+03  0.68175862839E+03  0.50000000000E+03 0.  1.
<mgrwt>
<rscale>  0 0.14593525E+04</rscale>
<asrwt>0</asrwt>
<pdfrwt beam="1">  1        2 0.42765101E-01 0.14593525E+04</pdfrwt>
<pdfrwt beam="2">  1       -2 0.25408256E+00 0.14593525E+04</pdfrwt>
<totfact> 0.70480067E+00</totfact>
</mgrwt>
</event>
<event>
 8    2  0.2588871E-009  0.1715310E+04  0.7818608E-02  0.8752680E-01
         -2   -1    0    0    0  501 -0.00000000000E+00  0.00000000000E+00  0.28835662996E+03  0.28835662997E+03  0.25500000000E-02 0.  1.
          2   -1    0    0  501    0  0.00000000000E+00 -0.00000000000E+00 -0.25509114128E+04  0.25509114128E+04  0.25500000000E-02 0. -1.
    -200001    2    1    2    0    0  0.24212283723E+03  0.29315394953E+03 -0.60186395556E+03  0.99740574330E+03  0.69858091108E+03 0.  0.
   -5000001    2    3    3    0    0 -0.81638520853E+01  0.53371675785E+02 -0.12484600948E+03  0.22430478835E+03  0.17835618223E+03 0.  0.
     200001    1    1    2    0    0 -0.24212283723E+03 -0.29315394953E+03 -0.16606908273E+04  0.18418622995E+04  0.70000000000E+03 0. -1.
         11    1    4    4    0    0  0.78036685855E+02 -0.46843716565E+01 -0.52022961812E+02  0.93904505925E+02  0.51100000000E-03 0.  1.
    -200002    1    4    4    0    0 -0.86200537941E+02  0.58056047441E+02 -0.72823047667E+02  0.13040028243E+03  0.30000000000E+02 0.  1.
    -200000    1    3    3    0    0  0.25028668931E+03  0.23978227374E+03 -0.47701794608E+03  0.77310095494E+03  0.50000000000E+03 0.  1.
<mgrwt>
<rscale>  0 0.17153101E+04</rscale>
<asrwt>0</asrwt>
<pdfrwt beam="1">  1        2 0.36441590E+00 0.17153101E+04</pdfrwt>
<pdfrwt beam="2">  1       -2 0.41193806E-01 0.17153101E+04</pdfrwt>
<totfact> 0.22049753E+01</totfact>
</mgrwt>
</event>
<event>
 8    2  0.2588871E-009  0.1628324E+04  0.7818608E-02  0.8803334E-01
         -2   -1    0    0    0  501 -0.00000000000E+00  0.00000000000E+00  0.20293210425E+04  0.20293210425E+04  0.25500000000E-02 0. -1.
          2   -1    0    0  501    0  0.00000000000E+00 -0.00000000000E+00 -0.32664121422E+03  0.32664121423E+03  0.25500000000E-02 0.  1.
    -200001    2    1    2    0    0  0.23072905189E+03  0.34550111309E+03  0.84345036898E+03  0.11723735705E+04  0.70031732038E+03 0.  0.
   -5000001    2    3    3    0    0  0.79052732423E+02  0.97288486991E+02  0.92930902244E+02  0.22480052124E+03  0.16181698784E+03 0.  0.
     200001    1    1    2    0    0 -0.23072905189E+03 -0.34550111309E+03  0.85922945927E+03  0.11835886862E+04  0.70000000000E+03 0.  1.
         11    1    4    4    0    0 -0.47272370899E+02  0.27673323818E+02  0.41628087897E+02  0.68799619212E+02  0.51100000000E-03 0.  1.
    -200002    1    4    4    0    0  0.12632510332E+03  0.69615163173E+02  0.51302814347E+02  0.15600090203E+03  0.30000000000E+02 0.  1.
    -200000    1    3    3    0    0  0.15167631947E+03  0.24821262610E+03  0.75051946674E+03  0.94757304922E+03  0.50000000000E+03 0. -1.
<mgrwt>
<rscale>  0 0.16283242E+04</rscale>
<asrwt>0</asrwt>
<pdfrwt beam="1">  1        2 0.46663030E-01 0.16283242E+04</pdfrwt>
<pdfrwt beam="2">  1       -2 0.28990301E+00 0.16283242E+04</pdfrwt>
<totfact> 0.38198923E+00</totfact>
</mgrwt>
</event>
<event>
 8    2  0.2588871E-009  0.1419506E+04  0.7818608E-02  0.8939819E-01
         -2   -1    0    0    0  501 -0.00000000000E+00  0.00000000000E+00  0.36987777156E+03  0.36987777157E+03  0.25500000000E-02 0. -1.
          2   -1    0    0  501    0  0.00000000000E+00 -0.00000000000E+00 -0.13619345246E+04  0.13619345246E+04  0.25500000000E-02 0.  1.
    -200001    2    1    2    0    0 -0.34818099777E+02 -0.91267832203E+02 -0.40974778306E+03  0.81604712223E+03  0.69892599230E+03 0.  0.
   -5000001    2    3    3    0    0  0.26769837612E+02 -0.15199997465E+02 -0.18682399389E+03  0.25992267097E+03  0.17807000327E+03 0.  0.
     200001    1    1    2    0    0  0.34818099777E+02  0.91267832203E+02 -0.58230896997E+03  0.91576517393E+03  0.70000000000E+03 0.  1.
         11    1    4    4    0    0 -0.47541491879E+02 -0.37095847868E+02 -0.16254751111E+03  0.17337239904E+03  0.51100000000E-03 0.  1.
    -200002    1    4    4    0    0  0.74311329491E+02  0.21895850403E+02 -0.24276482774E+02  0.86550271932E+02  0.30000000000E+02 0.  1.
    -200000    1    3    3    0    0 -0.61587937388E+02 -0.76067834738E+02 -0.22292378917E+03  0.55612445126E+03  0.50000000000E+03 0. -1.
<mgrwt>
<rscale>  0 0.14195060E+04</rscale>
<asrwt>0</asrwt>
<pdfrwt beam="1">  1        2 0.19456207E+00 0.14195060E+04</pdfrwt>
<pdfrwt beam="2">  1       -2 0.52839682E-01 0.14195060E+04</pdfrwt>
<totfact> 0.57040356E+01</totfact>
</mgrwt>
</event>
<event>
 8    2  0.2588871E-009  0.1444893E+04  0.7818608E-02  0.8921949E-01
          2   -1    0    0  501    0  0.00000000000E+00  0.00000000000E+00  0.20369640616E+04  0.20369640616E+04  0.25500000000E-02 0.  1.
         -2   -1    0    0    0  501 -0.00000000000E+00 -0.00000000000E+00 -0.25622890122E+03  0.25622890123E+03  0.25500000000E-02 0. -1.
    -200001    2    1    2    0    0  0.16565069404E+03  0.59745889802E+02  0.96076288383E+03  0.12007808345E+04  0.69842649565E+03 0.  0.
   -5000001    2    3    3    0    0  0.67850101015E+02  0.24178269173E+02  0.37313670454E+03  0.42223440802E+03  0.18401812447E+03 0.  0.
     200001    1    1    2    0    0 -0.16565069404E+03 -0.59745889802E+02  0.81997227656E+03  0.10924121283E+04  0.70000000000E+03 0. -1.
         11    1    4    4    0    0  0.58652292221E+02 -0.69360249551E+02  0.11964394227E+03  0.15021853588E+03  0.51100000000E-03 0.  1.
    -200002    1    4    4    0    0  0.91978087941E+01  0.93538518724E+02  0.25349276227E+03  0.27201587214E+03  0.30000000000E+02 0.  1.
    -200000    1    3    3    0    0  0.97800593022E+02  0.35567620629E+02  0.58762617929E+03  0.77854642651E+03  0.50000000000E+03 0. -1.
<mgrwt>
<rscale>  0 0.14448932E+04</rscale>
<asrwt>0</asrwt>
<pdfrwt beam="1">  1        2 0.29099487E+00 0.14448932E+04</pdfrwt>
<pdfrwt beam="2">  1       -2 0.36604128E-01 0.14448932E+04</pdfrwt>
<totfact> 0.52420909E+01</totfact>
</mgrwt>
</event>
<event>
 8    2  0.2588871E-009  0.1536409E+04  0.7818608E-02  0.8860596E-01
         -2   -1    0    0    0  501 -0.00000000000E+00  0.00000000000E+00  0.58402054885E+03  0.58402054886E+03  0.25500000000E-02 0. -1.
          2   -1    0    0  501    0  0.00000000000E+00 -0.00000000000E+00 -0.10104750320E+04  0.10104750320E+04  0.25500000000E-02 0.  1.
    -200001    2    1    2    0    0  0.22271399946E+03  0.22220439781E+03 -0.23482751130E+03  0.80348533042E+03  0.70104806980E+03 0.  0.
   -5000001    2    3    3    0    0  0.55641363480E+02  0.51341823968E+02 -0.11258506570E+03  0.23599039622E+03  0.19309097822E+03 0.  0.
     200001    1    1    2    0    0 -0.22271399946E+03 -0.22220439781E+03 -0.19162697185E+03  0.79101025044E+03  0.70000000000E+03 0. -1.
         11    1    4    4    0    0  0.73705508078E+02  0.11127655344E+02  0.32573573282E+02  0.81347183794E+02  0.51100000000E-03 0.  1.
    -200002    1    4    4    0    0 -0.18064144599E+02  0.40214168623E+02 -0.14515863898E+03  0.15464321243E+03  0.30000000000E+02 0.  1.
    -200000    1    3    3    0    0  0.16707263598E+03  0.17086257385E+03 -0.12224244560E+03  0.56749493420E+03  0.50000000000E+03 0. -1.
<mgrwt>
<rscale>  0 0.15364090E+04</rscale>
<asrwt>0</asrwt>
<pdfrwt beam="1">  1        2 0.14435358E+00 0.15364090E+04</pdfrwt>
<pdfrwt beam="2">  1       -2 0.83431507E-01 0.15364090E+04</pdfrwt>
<totfact> 0.33589942E+01</totfact>
</mgrwt>
</event>
<event>
 8    2  0.2588871E-009  0.1577396E+04  0.7818608E-02  0.8834556E-01
         -2   -1    0    0    0  501 -0.00000000000E+00  0.00000000000E+00  0.23733781333E+03  0.23733781334E+03  0.25500000000E-02 0.  1.
          2   -1    0    0  501    0  0.00000000000E+00 -0.00000000000E+00 -0.26209242581E+04  0.26209242581E+04  0.25500000000E-02 0. -1.
    -200001    2    1    2    0    0  0.14006827189E+03  0.17282958210E+03 -0.17148924246E+04  0.18649640911E+04  0.69838803523E+03 0.  0.
   -5000001    2    3    3    0    0  0.16306308257E+03  0.19597984052E+02 -0.51212243781E+03  0.55322313909E+03  0.12966418332E+03 0.  0.
     200001    1    1    2    0    0 -0.14006827189E+03 -0.17282958210E+03 -0.66869402018E+03  0.99329798040E+03  0.70000000000E+03 0.  1.
         11    1    4    4    0    0  0.95977807527E+02  0.69832430675E+02 -0.25893579402E+03  0.28484391048E+03  0.51100000000E-03 0.  1.
    -200002    1    4    4    0    0  0.67085275040E+02 -0.50234446623E+02 -0.25318664378E+03  0.26837922860E+03  0.30000000000E+02 0.  1.
    -200000    1    3    3    0    0 -0.22994810677E+02  0.15323159805E+03 -0.12027699868E+04  0.13117409520E+04  0.50000000000E+03 0. -1.
<mgrwt>
<rscale>  0 0.15773959E+04</rscale>
<asrwt>0</asrwt>
<pdfrwt beam="1">  1        2 0.37441773E+00 0.15773959E+04</pdfrwt>
<pdfrwt beam="2">  1       -2 0.33905403E-01 0.15773959E+04</pdfrwt>
<totfact> 0.29832609E+01</totfact>
</mgrwt>
</event>
<event>
 8    2  0.2588871E-009  0.2277473E+04  0.7818608E-02  0.8486856E-01
          2   -1    0    0  501    0  0.00000000000E+00  0.00000000000E+00  0.21455733920E+04  0.21455733920E+04  0.25500000000E-02 0.  1.
         -2   -1    0    0    0  501 -0.00000000000E+00 -0.00000000000E+00 -0.60437042154E+03  0.60437042154E+03  0.25500000000E-02 0. -1.
    -200001    2    1    2    0    0 -0.18656315430E+03 -0.35049877317E+03  0.17434153738E+04  0.19201576624E+04  0.69989505077E+03 0.  0.
   -5000001    2    3    3    0    0 -0.30151467229E+02 -0.11508136968E+03  0.26027095685E+03  0.32968498692E+03  0.16370212887E+03 0.  0.
     200001    1    1    2    0    0  0.18656315430E+03  0.35049877317E+03 -0.20221240341E+03  0.82978615114E+03  0.70000000000E+03 0. -1.
         11    1    4    4    0    0 -0.24663629717E+02 -0.11951108417E+03  0.78002365814E+02  0.14482942706E+03  0.51100000000E-03 0.  1.
    -200002    1    4    4    0    0 -0.54878375123E+01  0.44297144962E+01  0.18226859104E+03  0.18485555986E+03  0.30000000000E+02 0.  1.
    -200000    1    3    3    0    0 -0.15641168708E+03 -0.23541740349E+03  0.14831444170E+04  0.15904726754E+04  0.50000000000E+03 0.  1.
<mgrwt>
<rscale>  0 0.22774732E+04</rscale>
<asrwt>0</asrwt>
<pdfrwt beam="1">  1        2 0.30651049E+00 0.22774732E+04</pdfrwt>
<pdfrwt beam="2">  1       -2 0.86338631E-01 0.22774732E+04</pdfrwt>
<totfact> 0.71610518E+00</totfact>
</mgrwt>
</event>
<event>
 8    2  0.2588871E-009  0.1461339E+04  0.7818608E-02  0.8910577E-01
          2   -1    0    0  501    0  0.00000000000E+00  0.00000000000E+00  0.85351493669E+03  0.85351493669E+03  0.25500000000E-02 0.  1.
         -2   -1    0    0    0  501 -0.00000000000E+00 -0.00000000000E+00 -0.62550541570E+03  0.62550541570E+03  0.25500000000E-02 0. -1.
    -200001    2    1    2    0    0 -0.14387399248E+03  0.45830664603E+02  0.25766701899E+03  0.76230580481E+03  0.70136842804E+03 0.  0.
   -5000001    2    3    3    0    0 -0.16432753958E+03 -0.84737808714E+01  0.51654498498E+02  0.21842302426E+03  0.13403389528E+03 0.  0.
     200001    1    1    2    0    0  0.14387399248E+03 -0.45830664603E+02 -0.29657498001E+02  0.71671454758E+03  0.70000000000E+03 0. -1.
         11    1    4    4    0    0 -0.10758391722E+03 -0.49108477275E+02 -0.12592682775E+02  0.11893072540E+03  0.51100000000E-03 0.  1.
    -200002    1    4    4    0    0 -0.56743622362E+02  0.40634696404E+02  0.64247181273E+02  0.99492298858E+02  0.30000000000E+02 0.  1.
    -200000    1    3    3    0    0  0.20453547099E+02  0.54304445475E+02  0.20601252049E+03  0.54388278056E+03  0.50000000000E+03 0.  1.
<mgrwt>
<rscale>  0 0.14613394E+04</rscale>
<asrwt>0</asrwt>
<pdfrwt beam="1">  1        2 0.12193071E+00 0.14613394E+04</pdfrwt>
<pdfrwt beam="2">  1       -2 0.89357917E-01 0.14613394E+04</pdfrwt>
<totfact> 0.36426939E+01</totfact>
</mgrwt>
</event>
<event>
 8    2  0.2588871E-009  0.1619847E+04  0.7818608E-02  0.8808447E-01
          2   -1    0    0  501    0  0.00000000000E+00  0.00000000000E+00  0.14154596812E+04  0.14154596812E+04  0.25500000000E-02 0.  1.
         -2   -1    0    0    0  501 -0.00000000000E+00 -0.00000000000E+00 -0.46343682639E+03  0.46343682639E+03  0.25500000000E-02 0. -1.
    -200001    2    1    2    0    0  0.36312336171E+03  0.17633341843E+03  0.40775580691E+03  0.90463849779E+03  0.69939542702E+03 0.  0.
   -5000001    2    3    3    0    0  0.12992286587E+03  0.12363974662E+03  0.48810223493E+02  0.24433475998E+03  0.15858845795E+03 0.  0.
     200001    1    1    2    0    0 -0.36312336171E+03 -0.17633341843E+03  0.54426704793E+03  0.97425800984E+03  0.70000000000E+03 0.  1.
         11    1    4    4    0    0  0.54478502570E+02 -0.17654371985E+02 -0.28498787157E+02  0.63966905210E+02  0.51100000000E-03 0.  1.
    -200002    1    4    4    0    0  0.75444363305E+02  0.14129411860E+03  0.77309010650E+02  0.18036785477E+03  0.30000000000E+02 0.  1.
    -200000    1    3    3    0    0  0.23320049583E+03  0.52693671814E+02  0.35894558342E+03  0.66030373781E+03  0.50000000000E+03 0. -1.
<mgrwt>
<rscale>  0 0.16198471E+04</rscale>
<asrwt>0</asrwt>
<pdfrwt beam="1">  1        2 0.20220852E+00 0.16198471E+04</pdfrwt>
<pdfrwt beam="2">  1       -2 0.66205261E-01 0.16198471E+04</pdfrwt>
<totfact> 0.32677221E+01</totfact>
</mgrwt>
</event>
<event>
 8    2  0.2588871E-009  0.1423935E+04  0.7818608E-02  0.8936673E-01
         -2   -1    0    0    0  501 -0.00000000000E+00  0.00000000000E+00  0.14399840491E+04  0.14399840491E+04  0.25500000000E-02 0. -1.
          2   -1    0    0  501    0  0.00000000000E+00 -0.00000000000E+00 -0.35201644137E+03  0.35201644138E+03  0.25500000000E-02 0.  1.
    -200001    2    1    2    0    0  0.20244831490E+01 -0.35659506632E+02  0.43814474559E+03  0.83620477430E+03  0.71133108151E+03 0.  0.
   -5000001    2    3    3    0    0  0.35723599875E+02  0.10575989250E+02  0.70578597332E+02  0.21300478642E+03  0.19748841358E+03 0.  0.
     200001    1    1    2    0    0 -0.20244831490E+01  0.35659506632E+02  0.64982286216E+03  0.95579571621E+03  0.70000000000E+03 0. -1.
         11    1    4    4    0    0  0.15158457347E+02 -0.38688823936E+02 -0.57556706689E+02  0.70988579447E+02  0.51100000000E-03 0.  1.
    -200002    1    4    4    0    0  0.20565142528E+02  0.49264813186E+02  0.12813530402E+03  0.14201620697E+03  0.30000000000E+02 0.  1.
    -200000    1    3    3    0    0 -0.33699116726E+02 -0.46235495882E+02  0.36756614826E+03  0.62319998788E+03  0.50000000000E+03 0.  1.
<mgrwt>
<rscale>  0 0.14239355E+04</rscale>
<asrwt>0</asrwt>
<pdfrwt beam="1">  1        2 0.50288064E-01 0.14239355E+04</pdfrwt>
<pdfrwt beam="2">  1       -2 0.20571200E+00 0.14239355E+04</pdfrwt>
<totfact> 0.11844627E+01</totfact>
</mgrwt>
</event>
<event>
 8    2  0.2588871E-009  0.1551132E+04  0.7818608E-02  0.8851145E-01
          2   -1    0    0  501    0  0.00000000000E+00  0.00000000000E+00  0.15224893062E+04  0.15224893062E+04  0.25500000000E-02 0.  1.
         -2   -1    0    0    0  501 -0.00000000000E+00 -0.00000000000E+00 -0.39507863534E+03  0.39507863534E+03  0.25500000000E-02 0. -1.
    -200001    2    1    2    0    0  0.26012793749E+03  0.21897228314E+02  0.82866535948E+03  0.11129594693E+04  0.69559073446E+03 0.  0.
   -5000001    2    3    3    0    0  0.89240632400E+02 -0.33116831931E+02  0.79615087140E+02  0.19464289626E+03  0.14995559321E+03 0.  0.
     200001    1    1    2    0    0 -0.26012793749E+03 -0.21897228314E+02  0.29874531135E+03  0.80460847219E+03  0.70000000000E+03 0. -1.
         11    1    4    4    0    0 -0.40130722344E+02 -0.97107759192E+01  0.29653844475E+02  0.50834285057E+02  0.51100000000E-03 0.  1.
    -200002    1    4    4    0    0  0.12937135474E+03 -0.23406056012E+02  0.49961242665E+02  0.14380861120E+03  0.30000000000E+02 0.  1.
    -200000    1    3    3    0    0  0.17088730509E+03  0.55014060245E+02  0.74905027234E+03  0.91831657307E+03  0.50000000000E+03 0.  1.
<mgrwt>
<rscale>  0 0.15511325E+04</rscale>
<asrwt>0</asrwt>
<pdfrwt beam="1">  1        2 0.21749847E+00 0.15511325E+04</pdfrwt>
<pdfrwt beam="2">  1       -2 0.56439805E-01 0.15511325E+04</pdfrwt>
<totfact> 0.40386526E+01</totfact>
</mgrwt>
</event>
<event>
 8    2  0.2588871E-009  0.2449150E+04  0.7818608E-02  0.8421328E-01
          2   -1    0    0  501    0  0.00000000000E+00  0.00000000000E+00  0.69538101884E+03  0.69538101885E+03  0.25500000000E-02 0.  1.
         -2   -1    0    0    0  501 -0.00000000000E+00 -0.00000000000E+00 -0.21564931849E+04  0.21564931849E+04  0.25500000000E-02 0. -1.
    -200001    2    1    2    0    0 -0.64296354832E+03  0.67819321834E+03 -0.11602714555E+04  0.16461158121E+04  0.70008517381E+03 0.  0.
   -5000001    2    3    3    0    0 -0.16131787914E+03  0.21900690750E+03 -0.31810718010E+03  0.46202321208E+03  0.19566754153E+03 0.  0.
     200001    1    1    2    0    0  0.64296354832E+03 -0.67819321834E+03 -0.30084071056E+03  0.12057583916E+04  0.70000000000E+03 0.  1.
         11    1    4    4    0    0  0.13616558635E+01  0.47504239977E+01  0.24723641138E+02  0.25212676698E+02  0.51100000000E-03 0.  1.
    -200002    1    4    4    0    0 -0.16267953500E+03  0.21425648350E+03 -0.34283082124E+03  0.43681053538E+03  0.30000000000E+02 0.  1.
    -200000    1    3    3    0    0 -0.48164566919E+03  0.45918631085E+03 -0.84216427543E+03  0.11840926001E+04  0.50000000000E+03 0. -1.
<mgrwt>
<rscale>  0 0.24491504E+04</rscale>
<asrwt>0</asrwt>
<pdfrwt beam="1">  1        2 0.99340146E-01 0.24491504E+04</pdfrwt>
<pdfrwt beam="2">  1       -2 0.30807045E+00 0.24491504E+04</pdfrwt>
<totfact> 0.11582413E+00</totfact>
</mgrwt>
</event>
<event>
 8    2  0.2588871E-009  0.2510742E+04  0.7818608E-02  0.8399169E-01
          2   -1    0    0  501    0  0.00000000000E+00  0.00000000000E+00  0.17742888597E+04  0.17742888597E+04  0.25500000000E-02 0.  1.
         -2   -1    0    0    0  501 -0.00000000000E+00 -0.00000000000E+00 -0.88821859574E+03  0.88821859575E+03  0.25500000000E-02 0. -1.
    -200001    2    1    2    0    0 -0.26453119312E+03 -0.67652057396E+03  0.12357548266E+04  0.15948295394E+04  0.69909543635E+03 0.  0.
   -5000001    2    3    3    0    0 -0.16760183361E+02 -0.16714166702E+03  0.40756201176E+03  0.47377615856E+03  0.17360822098E+03 0.  0.
     200001    1    1    2    0    0  0.26453119312E+03  0.67652057396E+03 -0.34968456262E+03  0.10676779161E+04  0.70000000000E+03 0. -1.
         11    1    4    4    0    0  0.59160954448E+02 -0.20770634253E+02  0.18385569252E+03  0.19425332288E+03  0.51100000000E-03 0.  1.
    -200002    1    4    4    0    0 -0.75921137809E+02 -0.14637103277E+03  0.22370631924E+03  0.27952283568E+03  0.30000000000E+02 0.  1.
    -200000    1    3    3    0    0 -0.24777100976E+03 -0.50937890694E+03  0.82819281480E+03  0.11210533808E+04  0.50000000000E+03 0.  1.
<mgrwt>
<rscale>  0 0.25107420E+04</rscale>
<asrwt>0</asrwt>
<pdfrwt beam="1">  1        2 0.25346984E+00 0.25107420E+04</pdfrwt>
<pdfrwt beam="2">  1       -2 0.12688837E+00 0.25107420E+04</pdfrwt>
<totfact> 0.43449564E+00</totfact>
</mgrwt>
</event>
<event>
 8    2  0.2588871E-009  0.1916179E+04  0.7818608E-02  0.8646845E-01
         -2   -1    0    0    0  501 -0.00000000000E+00  0.00000000000E+00  0.22848720899E+03  0.22848720901E+03  0.25500000000E-02 0. -1.
          2   -1    0    0  501    0  0.00000000000E+00 -0.00000000000E+00 -0.40174471323E+04  0.40174471323E+04  0.25500000000E-02 0.  1.
    -200001    2    1    2    0    0  0.21938123832E+03  0.28924803827E+03 -0.30995045216E+04  0.31984892085E+04  0.70115075551E+03 0.  0.
   -5000001    2    3    3    0    0  0.11875360580E+02  0.16186677951E+03 -0.94091026288E+03  0.96940557430E+03  0.16761016136E+03 0.  0.
     200001    1    1    2    0    0 -0.21938123832E+03 -0.28924803827E+03 -0.68945540172E+03  0.10474451328E+04  0.70000000000E+03 0. -1.
         11    1    4    4    0    0  0.60929830883E+01  0.16451583568E+03 -0.91368317445E+03  0.92839621278E+03  0.51100000000E-03 0.  1.
    -200002    1    4    4    0    0  0.57823774916E+01 -0.26490561621E+01 -0.27227088434E+02  0.41009361524E+02  0.30000000000E+02 0.  1.
    -200000    1    3    3    0    0  0.20750587774E+03  0.12738125875E+03 -0.21585942587E+04  0.22290836342E+04  0.50000000000E+03 0.  1.
<mgrwt>
<rscale>  0 0.19161788E+04</rscale>
<asrwt>0</asrwt>
<pdfrwt beam="1">  1        2 0.57392098E+00 0.19161788E+04</pdfrwt>
<pdfrwt beam="2">  1       -2 0.32641032E-01 0.19161788E+04</pdfrwt>
<totfact> 0.45856057E+00</totfact>
</mgrwt>
</event>
<event>
 8    2  0.2588871E-009  0.1616583E+04  0.7818608E-02  0.8810425E-01
         -2   -1    0    0    0  501 -0.00000000000E+00  0.00000000000E+00  0.81116287929E+03  0.81116287930E+03  0.25500000000E-02 0. -1.
          2   -1    0    0  501    0  0.00000000000E+00 -0.00000000000E+00 -0.80542992274E+03  0.80542992275E+03  0.25500000000E-02 0.  1.
    -200001    2    1    2    0    0  0.20288577896E+03 -0.46966801961E+02 -0.34312256314E+03  0.80722966142E+03  0.70036998305E+03 0.  0.
   -5000001    2    3    3    0    0  0.83611102499E+01  0.94423323454E+02 -0.76072052518E+02  0.19148053270E+03  0.14796001166E+03 0.  0.
     200001    1    1    2    0    0 -0.20288577896E+03  0.46966801961E+02  0.34885551969E+03  0.80936314063E+03  0.70000000000E+03 0. -1.
         11    1    4    4    0    0 -0.27946839645E+02  0.10255237934E+03 -0.57418618939E+01  0.10644710110E+03  0.51100000000E-03 0.  1.
    -200002    1    4    4    0    0  0.36307949895E+02 -0.81290558904E+01 -0.70330190624E+02  0.85033431593E+02  0.30000000000E+02 0.  1.
    -200000    1    3    3    0    0  0.19452466871E+03 -0.14139012542E+03 -0.26705051062E+03  0.61574912872E+03  0.50000000000E+03 0.  1.
<mgrwt>
<rscale>  0 0.16165826E+04</rscale>
<asrwt>0</asrwt>
<pdfrwt beam="1">  1        2 0.11506142E+00 0.16165826E+04</pdfrwt>
<pdfrwt beam="2">  1       -2 0.11588041E+00 0.16165826E+04</pdfrwt>
<totfact> 0.20935740E+01</totfact>
</mgrwt>
</event>
<event>
 8    2  0.2588871E-009  0.1977638E+04  0.7818608E-02  0.8617148E-01
          2   -1    0    0  501    0  0.00000000000E+00  0.00000000000E+00  0.66222593299E+03  0.66222593299E+03  0.25500000000E-02 0.  1.
         -2   -1    0    0    0  501 -0.00000000000E+00 -0.00000000000E+00 -0.14764796343E+04  0.14764796343E+04  0.25500000000E-02 0. -1.
    -200001    2    1    2    0    0  0.59339151518E+03 -0.37258499546E+03 -0.38814411645E+03  0.10605114997E+04  0.69505087346E+03 0.  0.
   -5000001    2    3    3    0    0  0.77566795173E+02  0.78860443511E+02 -0.36629415291E+02  0.14212121703E+03  0.81370443050E+02 0.  0.
     200001    1    1    2    0    0 -0.59339151518E+03  0.37258499546E+03 -0.42610958487E+03  0.10781940676E+04  0.70000000000E+03 0.  1.
         11    1    4    4    0    0  0.50996092850E+01 -0.27234616107E+01 -0.28035609638E+02  0.28625489796E+02  0.51100000000E-03 0.  1.
    -200002    1    4    4    0    0  0.72467185888E+02  0.81583905121E+02 -0.85938056529E+01  0.11349572724E+03  0.30000000000E+02 0.  1.
    -200000    1    3    3    0    0  0.51582472001E+03 -0.45144543897E+03 -0.35151470116E+03  0.91839028265E+03  0.50000000000E+03 0. -1.
<mgrwt>
<rscale>  0 0.19776381E+04</rscale>
<asrwt>0</asrwt>
<pdfrwt beam="1">  1        2 0.94603705E-01 0.19776381E+04</pdfrwt>
<pdfrwt beam="2">  1       -2 0.21092566E+00 0.19776381E+04</pdfrwt>
<totfact> 0.50798388E+00</totfact>
</mgrwt>
</event>
<event>
 8    2  0.2588871E-009  0.1728238E+04  0.7818608E-02  0.8745421E-01
         -2   -1    0    0    0  501 -0.00000000000E+00  0.00000000000E+00  0.18052461010E+03  0.18052461012E+03  0.25500000000E-02 0. -1.
          2   -1    0    0  501    0  0.00000000000E+00 -0.00000000000E+00 -0.41362859818E+04  0.41362859818E+04  0.25500000000E-02 0.  1.
    -200001    2    1    2    0    0 -0.10214760212E+03  0.49633574742E+03 -0.19351580294E+04  0.21191706820E+04  0.69947442691E+03 0.  0.
   -5000001    2    3    3    0    0 -0.10630022478E+03  0.35316631081E+02 -0.25246808686E+03  0.30423230491E+03  0.12755453049E+03 0.  0.
     200001    1    1    2    0    0  0.10214760212E+03 -0.49633574742E+03 -0.20206033423E+04  0.21976399099E+04  0.70000000000E+03 0. -1.
         11    1    4    4    0    0 -0.17451208886E+02  0.63218987349E+02 -0.14355278399E+03  0.15782454449E+03  0.51100000000E-03 0.  1.
    -200002    1    4    4    0    0 -0.88849015896E+02 -0.27902356269E+02 -0.10891530288E+03  0.14640776042E+03  0.30000000000E+02 0.  1.
    -200000    1    3    3    0    0  0.41526226613E+01  0.46101911634E+03 -0.16826899425E+04  0.18149383771E+04  0.50000000000E+03 0. -1.
<mgrwt>
<rscale>  0 0.17282377E+04</rscale>
<asrwt>0</asrwt>
<pdfrwt beam="1">  1        2 0.59089794E+00 0.17282377E+04</pdfrwt>
<pdfrwt beam="2">  1       -2 0.25789233E-01 0.17282377E+04</pdfrwt>
<totfact> 0.59758994E+00</totfact>
</mgrwt>
</event>
<event>
 8    2  0.2588871E-009  0.1444786E+04  0.7818608E-02  0.8922023E-01
          2   -1    0    0  501    0  0.00000000000E+00  0.00000000000E+00  0.24143536529E+04  0.24143536529E+04  0.25500000000E-02 0.  1.
         -2   -1    0    0    0  501 -0.00000000000E+00 -0.00000000000E+00 -0.21614552893E+03  0.21614552895E+03  0.25500000000E-02 0. -1.
    -200001    2    1    2    0    0 -0.16611166698E+03  0.52707494642E+02  0.11707856393E+04  0.13751234899E+04  0.69989601615E+03 0.  0.
   -5000001    2    3    3    0    0 -0.14681908970E+02  0.31709007159E+02  0.54281534179E+03  0.55798298630E+03  0.12440055521E+03 0.  0.
     200001    1    1    2    0    0  0.16611166698E+03 -0.52707494642E+02  0.10274224846E+04  0.12553756919E+04  0.70000000000E+03 0.  1.
         11    1    4    4    0    0 -0.18235333884E+02  0.63244886512E+02  0.16487667170E+03  0.17752960300E+03  0.51100000000E-03 0.  1.
    -200002    1    4    4    0    0  0.35534249139E+01 -0.31535879353E+02  0.37793867009E+03  0.38045338330E+03  0.30000000000E+02 0.  1.
    -200000    1    3    3    0    0 -0.15142975801E+03  0.20998487483E+02  0.62797029752E+03  0.81714050362E+03  0.50000000000E+03 0. -1.
<mgrwt>
<rscale>  0 0.14447861E+04</rscale>
<asrwt>0</asrwt>
<pdfrwt beam="1">  1        2 0.34490765E+00 0.14447861E+04</pdfrwt>
<pdfrwt beam="2">  1       -2 0.30877934E-01 0.14447861E+04</pdfrwt>
<totfact> 0.46215166E+01</totfact>
</mgrwt>
</event>
<event>
 8    2  0.2588871E-009  0.1565389E+04  0.7818608E-02  0.8842097E-01
          2   -1    0    0  501    0  0.00000000000E+00  0.00000000000E+00  0.21360925981E+04  0.21360925981E+04  0.25500000000E-02 0.  1.
         -2   -1    0    0    0  501 -0.00000000000E+00 -0.00000000000E+00 -0.28679043380E+03  0.28679043381E+03  0.25500000000E-02 0. -1.
    -200001    2    1    2    0    0  0.66934057360E+02  0.27359756053E+03  0.12460396472E+04  0.14568284487E+04  0.70028460887E+03 0.  0.
   -5000001    2    3    3    0    0  0.49507488474E+02  0.12461485552E+03  0.52647632749E+03  0.56785662533E+03  0.16523912942E+03 0.  0.
     200001    1    1    2    0    0 -0.66934057360E+02 -0.27359756053E+03  0.60326251710E+03  0.96605458319E+03  0.70000000000E+03 0. -1.
         11    1    4    4    0    0 -0.38188838274E+02  0.44521830773E+02  0.53894515176E+02  0.79656760858E+02  0.51100000000E-03 0.  1.
    -200002    1    4    4    0    0  0.87696326748E+02  0.80093024746E+02  0.47258181232E+03  0.48819986447E+03  0.30000000000E+02 0.  1.
    -200000    1    3    3    0    0  0.17426568885E+02  0.14898270502E+03  0.71956331968E+03  0.88897182336E+03  0.50000000000E+03 0.  1.
<mgrwt>
<rscale>  0 0.15653893E+04</rscale>
<asrwt>0</asrwt>
<pdfrwt beam="1">  1        2 0.30515609E+00 0.15653893E+04</pdfrwt>
<pdfrwt beam="2">  1       -2 0.40970062E-01 0.15653893E+04</pdfrwt>
<totfact> 0.37093408E+01</totfact>
</mgrwt>
</event>
<event>
 8    2  0.2588871E-009  0.1727382E+04  0.7818608E-02  0.8745900E-01
          2   -1    0    0  501    0  0.00000000000E+00  0.00000000000E+00  0.16899026287E+04  0.16899026287E+04  0.25500000000E-02 0.  1.
         -2   -1    0    0    0  501 -0.00000000000E+00 -0.00000000000E+00 -0.44142307125E+03  0.44142307126E+03  0.25500000000E-02 0. -1.
    -200001    2    1    2    0    0 -0.23097633108E+03  0.40708183212E+03  0.86054496103E+03  0.12042016874E+04  0.70035590269E+03 0.  0.
   -5000001    2    3    3    0    0 -0.93518817941E+02  0.18230409410E+03  0.10819809342E+03  0.26322059906E+03  0.12489076952E+03 0.  0.
     200001    1    1    2    0    0  0.23097633108E+03 -0.40708183212E+03  0.38793459643E+03  0.92712401256E+03  0.70000000000E+03 0.  1.
         11    1    4    4    0    0 -0.72040155499E+02  0.23235118743E+02  0.45425387791E+02  0.88278653159E+02  0.51100000000E-03 0.  1.
    -200002    1    4    4    0    0 -0.21478662442E+02  0.15906897536E+03  0.62772705625E+02  0.17494194590E+03  0.30000000000E+02 0.  1.
    -200000    1    3    3    0    0 -0.13745751313E+03  0.22477773802E+03  0.75234686761E+03  0.94098108835E+03  0.50000000000E+03 0.  1.
<mgrwt>
<rscale>  0 0.17273818E+04</rscale>
<asrwt>0</asrwt>
<pdfrwt beam="1">  1        2 0.24141466E+00 0.17273818E+04</pdfrwt>
<pdfrwt beam="2">  1       -2 0.63060439E-01 0.17273818E+04</pdfrwt>
<totfact> 0.25748620E+01</totfact>
</mgrwt>
</event>
<event>
 8    2  0.2588871E-009  0.2163911E+04  0.7818608E-02  0.8533601E-01
         -2   -1    0    0    0  501 -0.00000000000E+00  0.00000000000E+00  0.24698106792E+04  0.24698106792E+04  0.25500000000E-02 0. -1.
          2   -1    0    0  501    0  0.00000000000E+00 -0.00000000000E+00 -0.47397481736E+03  0.47397481736E+03  0.25500000000E-02 0.  1.
    -200001    2    1    2    0    0 -0.28835271578E+03  0.47280088980E+03  0.16982964187E+03  0.91130260968E+03  0.70352140626E+03 0.  0.
   -5000001    2    3    3    0    0 -0.13573651526E+03  0.16285441308E+03  0.33965188867E+02  0.28855252122E+03  0.19277697480E+03 0.  0.
     200001    1    1    2    0    0  0.28835271578E+03 -0.47280088980E+03  0.18260062200E+04  0.20324828869E+04  0.70000000000E+03 0. -1.
         11    1    4    4    0    0 -0.52832105213E+02  0.17695810712E+03 -0.17486282738E+02  0.18550248812E+03  0.51100000000E-03 0.  1.
    -200002    1    4    4    0    0 -0.82904410045E+02 -0.14103694041E+02  0.51451471604E+02  0.10305003309E+03  0.30000000000E+02 0.  1.
    -200000    1    3    3    0    0 -0.15261620052E+03  0.30994647672E+03  0.13586445301E+03  0.62275008847E+03  0.50000000000E+03 0.  1.
<mgrwt>
<rscale>  0 0.21639113E+04</rscale>
<asrwt>0</asrwt>
<pdfrwt beam="1">  1        2 0.67710687E-01 0.21639113E+04</pdfrwt>
<pdfrwt beam="2">  1       -2 0.35283010E+00 0.21639113E+04</pdfrwt>
<totfact> 0.98219494E-01</totfact>
</mgrwt>
</event>
<event>
 8    2  0.2588871E-009  0.1539106E+04  0.7818608E-02  0.8858856E-01
          2   -1    0    0  501    0  0.00000000000E+00  0.00000000000E+00  0.38542544647E+04  0.38542544647E+04  0.25500000000E-02 0.  1.
         -2   -1    0    0    0  501 -0.00000000000E+00 -0.00000000000E+00 -0.15365148823E+03  0.15365148826E+03  0.25500000000E-02 0. -1.
    -200001    2    1    2    0    0  0.29804604657E+03  0.10224463615E+03  0.19936785427E+04  0.21363086581E+04  0.69983936699E+03 0.  0.
   -5000001    2    3    3    0    0  0.66676000742E+02  0.63368557496E+02  0.51777919199E+03  0.56045259202E+03  0.19377965087E+03 0.  0.
     200001    1    1    2    0    0 -0.29804604657E+03 -0.10224463615E+03  0.17069244337E+04  0.18715972948E+04  0.70000000000E+03 0. -1.
         11    1    4    4    0    0  0.40836635069E+02  0.75467859332E+02  0.69931421371E+02  0.11069522235E+03  0.51100000000E-03 0.  1.
    -200002    1    4    4    0    0  0.25839365673E+02 -0.12099301836E+02  0.44784777062E+03  0.44975736967E+03  0.30000000000E+02 0.  1.
    -200000    1    3    3    0    0  0.23137004583E+03  0.38876078649E+02  0.14758993507E+04  0.15758560661E+04  0.50000000000E+03 0.  1.
<mgrwt>
<rscale>  0 0.15391061E+04</rscale>
<asrwt>0</asrwt>
<pdfrwt beam="1">  1        2 0.55060776E+00 0.15391061E+04</pdfrwt>
<pdfrwt beam="2">  1       -2 0.21950213E-01 0.15391061E+04</pdfrwt>
<totfact> 0.12683612E+01</totfact>
</mgrwt>
</event>
<event>
 8    2  0.2588871E-009  0.2024939E+04  0.7818608E-02  0.8595049E-01
         -2   -1    0    0    0  501 -0.00000000000E+00  0.00000000000E+00  0.16175336723E+04  0.16175336723E+04  0.25500000000E-02 0. -1.
          2   -1    0    0  501    0  0.00000000000E+00 -0.00000000000E+00 -0.63373897218E+03  0.63373897218E+03  0.25500000000E-02 0.  1.
    -200001    2    1    2    0    0 -0.48723330585E+03 -0.49308399816E+03  0.23373759000E+03  0.10130829207E+04  0.70083922533E+03 0.  0.
   -5000001    2    3    3    0    0 -0.58020768596E+02 -0.14173603056E+03 -0.18566410181E+02  0.22484050564E+03  0.16356353334E+03 0.  0.
     200001    1    1    2    0    0  0.48723330585E+03  0.49308399816E+03  0.75005711016E+03  0.12381897238E+04  0.70000000000E+03 0. -1.
         11    1    4    4    0    0 -0.53849825841E+02 -0.16307744393E+03  0.18129040045E+02  0.17269255501E+03  0.51100000000E-03 0.  1.
    -200002    1    4    4    0    0 -0.41709427551E+01  0.21341413365E+02 -0.36695450226E+02  0.52147950632E+02  0.30000000000E+02 0.  1.
    -200000    1    3    3    0    0 -0.42921253725E+03 -0.35134796760E+03  0.25230400018E+03  0.78824241511E+03  0.50000000000E+03 0.  1.
<mgrwt>
<rscale>  0 0.20249386E+04</rscale>
<asrwt>0</asrwt>
<pdfrwt beam="1">  1        2 0.90534140E-01 0.20249386E+04</pdfrwt>
<pdfrwt beam="2">  1       -2 0.23107624E+00 0.20249386E+04</pdfrwt>
<totfact> 0.39791190E+00</totfact>
</mgrwt>
</event>
<event>
 8    2  0.2588871E-009  0.2210671E+04  0.7818608E-02  0.8514000E-01
         -2   -1    0    0    0  501 -0.00000000000E+00  0.00000000000E+00  0.12102344990E+04  0.12102344990E+04  0.25500000000E-02 0.  1.
          2   -1    0    0  501    0  0.00000000000E+00 -0.00000000000E+00 -0.10095285156E+04  0.10095285156E+04  0.25500000000E-02 0. -1.
    -200001    2    1    2    0    0  0.37894790977E+03 -0.39566253798E+03  0.75982736664E+03  0.11696358396E+04  0.70039989149E+03 0.  0.
   -5000001    2    3    3    0    0  0.13458500770E+03 -0.26766326702E+03  0.32219668722E+03  0.45017934142E+03  0.95362389704E+02 0.  0.
     200001    1    1    2    0    0 -0.37894790977E+03  0.39566253798E+03 -0.55912138324E+03  0.10501271749E+04  0.70000000000E+03 0. -1.
         11    1    4    4    0    0  0.12642035854E+03 -0.23376102009E+03  0.25189821466E+03  0.36616803808E+03  0.51100000000E-03 0.  1.
    -200002    1    4    4    0    0  0.81646491660E+01 -0.33902246937E+02  0.70298472561E+02  0.84011303333E+02  0.30000000000E+02 0.  1.
    -200000    1    3    3    0    0  0.24436290206E+03 -0.12799927095E+03  0.43763067942E+03  0.71945649822E+03  0.50000000000E+03 0.  1.
<mgrwt>
<rscale>  0 0.22106707E+04</rscale>
<asrwt>0</asrwt>
<pdfrwt beam="1">  1        2 0.14421836E+00 0.22106707E+04</pdfrwt>
<pdfrwt beam="2">  1       -2 0.17289064E+00 0.22106707E+04</pdfrwt>
<totfact> 0.51671835E+00</totfact>
</mgrwt>
</event>
<event>
 8    2  0.2588871E-009  0.1739138E+04  0.7818608E-02  0.8739352E-01
         -2   -1    0    0    0  501 -0.00000000000E+00  0.00000000000E+00  0.65840898155E+03  0.65840898155E+03  0.25500000000E-02 0. -1.
          2   -1    0    0  501    0  0.00000000000E+00 -0.00000000000E+00 -0.11484501742E+04  0.11484501742E+04  0.25500000000E-02 0.  1.
    -200001    2    1    2    0    0  0.35837997746E+03 -0.32040253950E+03 -0.43922848287E+03  0.95616771518E+03  0.70017215300E+03 0.  0.
   -5000001    2    3    3    0    0  0.51288030806E+02 -0.34391635734E+02 -0.47432640627E+02  0.19484539003E+03  0.17861025701E+03 0.  0.
     200001    1    1    2    0    0 -0.35837997746E+03  0.32040253950E+03 -0.50812709767E+02  0.85069144056E+03  0.70000000000E+03 0.  1.
         11    1    4    4    0    0 -0.14578340138E+02  0.61151227933E+01 -0.96961380971E+02  0.98241702591E+02  0.51100000000E-03 0.  1.
    -200002    1    4    4    0    0  0.65866370944E+02 -0.40506758527E+02  0.49528740344E+02  0.96603687444E+02  0.30000000000E+02 0.  1.
    -200000    1    3    3    0    0  0.30709194665E+03 -0.28601090377E+03 -0.39179584224E+03  0.76132232515E+03  0.50000000000E+03 0.  1.
<mgrwt>
<rscale>  0 0.17391376E+04</rscale>
<asrwt>0</asrwt>
<pdfrwt beam="1">  1        2 0.16406431E+00 0.17391376E+04</pdfrwt>
<pdfrwt beam="2">  1       -2 0.94058426E-01 0.17391376E+04</pdfrwt>
<totfact> 0.20771986E+01</totfact>
</mgrwt>
</event>
<event>
 8    2  0.2588871E-009  0.1626158E+04  0.7818608E-02  0.8804637E-01
          2   -1    0    0  501    0  0.00000000000E+00  0.00000000000E+00  0.12051578327E+04  0.12051578327E+04  0.25500000000E-02 0.  1.
         -2   -1    0    0    0  501 -0.00000000000E+00 -0.00000000000E+00 -0.54855664827E+03  0.54855664828E+03  0.25500000000E-02 0. -1.
    -200001    2    1    2    0    0  0.19808030256E+03 -0.36373928955E+03  0.32177759618E+03  0.87414133890E+03  0.69931407962E+03 0.  0.
   -5000001    2    3    3    0    0  0.20580467307E+02 -0.12654733234E+03 -0.37712086218E+02  0.19076805304E+03  0.13613399890E+03 0.  0.
     200001    1    1    2    0    0 -0.19808030256E+03  0.36373928955E+03  0.33482358825E+03  0.87957314208E+03  0.70000000000E+03 0. -1.
         11    1    4    4    0    0  0.28497631099E+02 -0.14115915815E+03 -0.61164976812E+01  0.14413686015E+03  0.51100000000E-03 0.  1.
    -200002    1    4    4    0    0 -0.79171637917E+01  0.14611825808E+02 -0.31595588537E+02  0.46631192896E+02  0.30000000000E+02 0.  1.
    -200000    1    3    3    0    0  0.17749983525E+03 -0.23719195721E+03  0.35948968240E+03  0.68337328586E+03  0.50000000000E+03 0.  1.
<mgrwt>
<rscale>  0 0.16261579E+04</rscale>
<asrwt>0</asrwt>
<pdfrwt beam="1">  1        2 0.17216540E+00 0.16261579E+04</pdfrwt>
<pdfrwt beam="2">  1       -2 0.78365236E-01 0.16261579E+04</pdfrwt>
<totfact> 0.29485263E+01</totfact>
</mgrwt>
</event>
<event>
 8    2  0.2588871E-009  0.1638788E+04  0.7818608E-02  0.8797067E-01
          2   -1    0    0  501    0  0.00000000000E+00  0.00000000000E+00  0.69548305376E+03  0.69548305376E+03  0.25500000000E-02 0.  1.
         -2   -1    0    0    0  501 -0.00000000000E+00 -0.00000000000E+00 -0.96538191879E+03  0.96538191880E+03  0.25500000000E-02 0. -1.
    -200001    2    1    2    0    0 -0.16605805549E+03  0.16669265782E+03  0.22496669838E+03  0.77190285536E+03  0.69990162363E+03 0.  0.
   -5000001    2    3    3    0    0 -0.48093792670E+02  0.85846847585E+02  0.15751986573E+03  0.24749777570E+03  0.16358467759E+03 0.  0.
     200001    1    1    2    0    0  0.16605805549E+03 -0.16669265782E+03 -0.49486556342E+03  0.88896211720E+03  0.70000000000E+03 0. -1.
         11    1    4    4    0    0  0.33423954233E+02  0.87938153240E+02  0.12094598542E+03  0.15322601248E+03  0.51100000000E-03 0.  1.
    -200002    1    4    4    0    0 -0.81517746903E+02 -0.20913056551E+01  0.36573880310E+02  0.94271763219E+02  0.30000000000E+02 0.  1.
    -200000    1    3    3    0    0 -0.11796426282E+03  0.80845810234E+02  0.67446832651E+02  0.52440507966E+03  0.50000000000E+03 0.  1.
<mgrwt>
<rscale>  0 0.16387883E+04</rscale>
<asrwt>0</asrwt>
<pdfrwt beam="1">  1        2 0.99354722E-01 0.16387883E+04</pdfrwt>
<pdfrwt beam="2">  1       -2 0.13791170E+00 0.16387883E+04</pdfrwt>
<totfact> 0.16234017E+01</totfact>
</mgrwt>
</event>
<event>
 8    2  0.2588871E-009  0.2037255E+04  0.7818608E-02  0.8589398E-01
          2   -1    0    0  501    0  0.00000000000E+00  0.00000000000E+00  0.12558009622E+04  0.12558009622E+04  0.25500000000E-02 0.  1.
         -2   -1    0    0    0  501 -0.00000000000E+00 -0.00000000000E+00 -0.82624750646E+03  0.82624750647E+03  0.25500000000E-02 0. -1.
    -200001    2    1    2    0    0  0.18989403087E+03  0.32371803233E+03  0.86591701926E+03  0.11758110457E+04  0.70133174991E+03 0.  0.
   -5000001    2    3    3    0    0  0.45447496309E+02  0.13658332452E+03  0.24733406422E+03  0.34603452606E+03  0.19453861941E+03 0.  0.
     200001    1    1    2    0    0 -0.18989403087E+03 -0.32371803233E+03 -0.43636356348E+03  0.90623742306E+03  0.70000000000E+03 0. -1.
         11    1    4    4    0    0  0.10234416316E+03  0.26729741893E+02  0.15945046898E+03  0.19134591424E+03  0.51100000000E-03 0.  1.
    -200002    1    4    4    0    0 -0.56896666853E+02  0.10985358263E+03  0.87883595233E+02  0.15468861182E+03  0.30000000000E+02 0.  1.
    -200000    1    3    3    0    0  0.14444653456E+03  0.18713470781E+03  0.61858295504E+03  0.82977651960E+03  0.50000000000E+03 0.  1.
<mgrwt>
<rscale>  0 0.20372554E+04</rscale>
<asrwt>0</asrwt>
<pdfrwt beam="1">  1        2 0.17940014E+00 0.20372554E+04</pdfrwt>
<pdfrwt beam="2">  1       -2 0.11803536E+00 0.20372554E+04</pdfrwt>
<totfact> 0.10225712E+01</totfact>
</mgrwt>
</event>
<event>
 8    2  0.2588871E-009  0.2945816E+04  0.7818608E-02  0.8259375E-01
          2   -1    0    0  501    0  0.00000000000E+00  0.00000000000E+00  0.28930851569E+04  0.28930851569E+04  0.25500000000E-02 0.  1.
         -2   -1    0    0    0  501 -0.00000000000E+00 -0.00000000000E+00 -0.74987716315E+03  0.74987716315E+03  0.25500000000E-02 0. -1.
    -200001    2    1    2    0    0  0.11365745512E+04 -0.58694957697E+03  0.81398366146E+03  0.16698559261E+04  0.69966984801E+03 0.  0.
   -5000001    2    3    3    0    0  0.10204179145E+03 -0.13779142919E+03  0.49731308216E+02  0.21862102700E+03  0.12618615324E+03 0.  0.
     200001    1    1    2    0    0 -0.11365745512E+04  0.58694957697E+03  0.13292243322E+04  0.19731063940E+04  0.70000000000E+03 0. -1.
         11    1    4    4    0    0  0.71363076891E+02 -0.14331922975E+03  0.10878970239E+02  0.16047255950E+03  0.51100000000E-03 0.  1.
    -200002    1    4    4    0    0  0.30678714562E+02  0.55278005596E+01  0.38852337977E+02  0.58148467499E+02  0.30000000000E+02 0.  1.
    -200000    1    3    3    0    0  0.10345327598E+04 -0.44915814778E+03  0.76425235325E+03  0.14512348991E+04  0.50000000000E+03 0. -1.
<mgrwt>
<rscale>  0 0.29458163E+04</rscale>
<asrwt>0</asrwt>
<pdfrwt beam="1">  1        2 0.41329789E+00 0.29458163E+04</pdfrwt>
<pdfrwt beam="2">  1       -2 0.10712531E+00 0.29458163E+04</pdfrwt>
<totfact> 0.16401239E+00</totfact>
</mgrwt>
</event>
<event>
 8    2  0.2588871E-009  0.2042239E+04  0.7818608E-02  0.8587123E-01
          2   -1    0    0  501    0  0.00000000000E+00  0.00000000000E+00  0.92531637561E+03  0.92531637561E+03  0.25500000000E-02 0.  1.
         -2   -1    0    0    0  501 -0.00000000000E+00 -0.00000000000E+00 -0.11268418461E+04  0.11268418461E+04  0.25500000000E-02 0. -1.
    -200001    2    1    2    0    0 -0.68141229754E+03 -0.27992663095E+03 -0.20525681399E+03  0.10359419254E+04  0.69883021919E+03 0.  0.
   -5000001    2    3    3    0    0 -0.21862272158E+03 -0.97016058685E+02 -0.15283312808E+03  0.32856740519E+03  0.16550095069E+03 0.  0.
     200001    1    1    2    0    0  0.68141229754E+03  0.27992663095E+03  0.37313434640E+01  0.10162162963E+04  0.70000000000E+03 0. -1.
         11    1    4    4    0    0 -0.39602225952E+02  0.44936270002E+02 -0.23663825344E+02  0.64401718084E+02  0.51100000000E-03 0.  1.
    -200002    1    4    4    0    0 -0.17902049563E+03 -0.14195232869E+03 -0.12916930273E+03  0.26416568711E+03  0.30000000000E+02 0.  1.
    -200000    1    3    3    0    0 -0.46278957596E+03 -0.18291057226E+03 -0.52423685918E+02  0.70737452026E+03  0.50000000000E+03 0. -1.
<mgrwt>
<rscale>  0 0.20422392E+04</rscale>
<asrwt>0</asrwt>
<pdfrwt beam="1">  1        2 0.13218805E+00 0.20422392E+04</pdfrwt>
<pdfrwt beam="2">  1       -2 0.16097741E+00 0.20422392E+04</pdfrwt>
<totfact> 0.72083292E+00</totfact>
</mgrwt>
</event>
<event>
 8    2  0.2588871E-009  0.1984841E+04  0.7818608E-02  0.8613741E-01
          2   -1    0    0  501    0  0.00000000000E+00  0.00000000000E+00  0.15995279086E+04  0.15995279086E+04  0.25500000000E-02 0.  1.
         -2   -1    0    0    0  501 -0.00000000000E+00 -0.00000000000E+00 -0.61574346087E+03  0.61574346087E+03  0.25500000000E-02 0. -1.
    -200001    2    1    2    0    0  0.52873733608E+03 -0.26477708186E+03  0.91775919244E+03  0.12965606380E+04  0.69936934389E+03 0.  0.
   -5000001    2    3    3    0    0  0.14283620379E+03 -0.15899422687E+02  0.20321681025E+03  0.31094885388E+03  0.18637903586E+03 0.  0.
     200001    1    1    2    0    0 -0.52873733608E+03  0.26477708186E+03  0.66025255255E+02  0.91871073139E+03  0.70000000000E+03 0. -1.
         11    1    4    4    0    0 -0.10601154276E+02  0.45934303703E+02 -0.75400404712E-01  0.47141811741E+02  0.51100000000E-03 0.  1.
    -200002    1    4    4    0    0  0.15343735807E+03 -0.61833726391E+02  0.20329221065E+03  0.26380704214E+03  0.30000000000E+02 0.  1.
    -200000    1    3    3    0    0  0.38590113229E+03 -0.24887765918E+03  0.71454238220E+03  0.98561178417E+03  0.50000000000E+03 0.  1.
<mgrwt>
<rscale>  0 0.19848414E+04</rscale>
<asrwt>0</asrwt>
<pdfrwt beam="1">  1        2 0.22850399E+00 0.19848414E+04</pdfrwt>
<pdfrwt beam="2">  1       -2 0.87963350E-01 0.19848414E+04</pdfrwt>
<totfact> 0.13470507E+01</totfact>
</mgrwt>
</event>
<event>
 8    2  0.2588871E-009  0.1594567E+04  0.7818608E-02  0.8823892E-01
         -2   -1    0    0    0  501 -0.00000000000E+00  0.00000000000E+00  0.27848712616E+03  0.27848712617E+03  0.25500000000E-02 0. -1.
          2   -1    0    0  501    0  0.00000000000E+00 -0.00000000000E+00 -0.22825517143E+04  0.22825517143E+04  0.25500000000E-02 0.  1.
    -200001    2    1    2    0    0 -0.20872916433E+03  0.22643187432E+03 -0.13644487939E+04  0.15640696223E+04  0.69982427396E+03 0.  0.
   -5000001    2    3    3    0    0 -0.10309895964E+03  0.77511448121E+02 -0.40978913787E+03  0.47104167555E+03  0.19317272717E+03 0.  0.
     200001    1    1    2    0    0  0.20872916433E+03 -0.22643187432E+03 -0.63961579422E+03  0.99696921816E+03  0.70000000000E+03 0. -1.
         11    1    4    4    0    0 -0.14997762649E+03  0.72390567548E+02 -0.35802685951E+03  0.39486315965E+03  0.51100000000E-03 0.  1.
    -200002    1    4    4    0    0  0.46878666856E+02  0.51208805721E+01 -0.51762278359E+02  0.76178515901E+02  0.30000000000E+02 0.  1.
    -200000    1    3    3    0    0 -0.10563020469E+03  0.14892042620E+03 -0.95465965607E+03  0.10930279468E+04  0.50000000000E+03 0.  1.
<mgrwt>
<rscale>  0 0.15945674E+04</rscale>
<asrwt>0</asrwt>
<pdfrwt beam="1">  1        2 0.32607880E+00 0.15945674E+04</pdfrwt>
<pdfrwt beam="2">  1       -2 0.39783877E-01 0.15945674E+04</pdfrwt>
<totfact> 0.32934806E+01</totfact>
</mgrwt>
</event>
<event>
 8    2  0.2588871E-009  0.1613612E+04  0.7818608E-02  0.8812229E-01
         -2   -1    0    0    0  501 -0.00000000000E+00  0.00000000000E+00  0.80846095395E+03  0.80846095395E+03  0.25500000000E-02 0. -1.
          2   -1    0    0  501    0  0.00000000000E+00 -0.00000000000E+00 -0.80515493206E+03  0.80515493207E+03  0.25500000000E-02 0.  1.
    -200001    2    1    2    0    0 -0.38729338817E+03  0.10544352375E+03  0.21751190380E+02  0.80648843050E+03  0.69916805492E+03 0.  0.
   -5000001    2    3    3    0    0  0.25828594210E+02  0.23600178402E+02  0.97404601142E+01  0.15264413470E+03  0.14826081949E+03 0.  0.
     200001    1    1    2    0    0  0.38729338817E+03 -0.10544352375E+03 -0.18445168493E+02  0.80712745553E+03  0.70000000000E+03 0.  1.
         11    1    4    4    0    0  0.13672669234E+02 -0.15085503392E+01 -0.65524422990E+02  0.66952726729E+02  0.51100000000E-03 0.  1.
    -200002    1    4    4    0    0  0.12155924975E+02  0.25108728741E+02  0.75264883104E+02  0.85691407968E+02  0.30000000000E+02 0.  1.
    -200000    1    3    3    0    0 -0.41312198238E+03  0.81843345346E+02  0.12010730266E+02  0.65384429580E+03  0.50000000000E+03 0.  1.
<mgrwt>
<rscale>  0 0.16136125E+04</rscale>
<asrwt>0</asrwt>
<pdfrwt beam="1">  1        2 0.11502213E+00 0.16136125E+04</pdfrwt>
<pdfrwt beam="2">  1       -2 0.11549442E+00 0.16136125E+04</pdfrwt>
<totfact> 0.21121388E+01</totfact>
</mgrwt>
</event>
<event>
 8    2  0.2588871E-009  0.2792537E+04  0.7818608E-02  0.8305589E-01
         -2   -1    0    0    0  501 -0.00000000000E+00  0.00000000000E+00  0.91538944263E+03  0.91538944263E+03  0.25500000000E-02 0. -1.
          2   -1    0    0  501    0  0.00000000000E+00 -0.00000000000E+00 -0.21297657644E+04  0.21297657644E+04  0.25500000000E-02 0.  1.
    -200001    2    1    2    0    0  0.74654440724E+03 -0.40280493744E+03  0.32560464383E+03  0.11527700073E+04  0.70942225519E+03 0.  0.
   -5000001    2    3    3    0    0  0.14625097445E+03 -0.69190271860E+02 -0.13353970990E+02  0.23814227264E+03  0.17423194951E+03 0.  0.
     200001    1    1    2    0    0 -0.74654440724E+03  0.40280493744E+03 -0.15399809656E+04  0.18923851997E+04  0.70000000000E+03 0. -1.
         11    1    4    4    0    0 -0.31046476070E+02  0.18403190412E+02 -0.12276641401E+02  0.38121870600E+02  0.51100000000E-03 0.  1.
    -200002    1    4    4    0    0  0.17729745052E+03 -0.87593462272E+02 -0.10773295888E+01  0.20002040204E+03  0.30000000000E+02 0.  1.
    -200000    1    3    3    0    0  0.60029343279E+03 -0.33361466558E+03  0.33895861482E+03  0.91462773471E+03  0.50000000000E+03 0.  1.
<mgrwt>
<rscale>  0 0.27925366E+04</rscale>
<asrwt>0</asrwt>
<pdfrwt beam="1">  1        2 0.30425225E+00 0.27925366E+04</pdfrwt>
<pdfrwt beam="2">  1       -2 0.13076992E+00 0.27925366E+04</pdfrwt>
<totfact> 0.25800729E+00</totfact>
</mgrwt>
</event>
<event>
 8    2  0.2588871E-009  0.1829795E+04  0.7818608E-02  0.8690613E-01
          2   -1    0    0  501    0  0.00000000000E+00  0.00000000000E+00  0.76360391544E+03  0.76360391544E+03  0.25500000000E-02 0.  1.
         -2   -1    0    0    0  501 -0.00000000000E+00 -0.00000000000E+00 -0.10961676216E+04  0.10961676216E+04  0.25500000000E-02 0. -1.
    -200001    2    1    2    0    0  0.43151648237E+03 -0.32744205078E+03 -0.40127595162E+03  0.97199558339E+03  0.70023442761E+03 0.  0.
   -5000001    2    3    3    0    0  0.97523470742E+02 -0.94892960180E+02 -0.67242285462E+02  0.24590405922E+03  0.19347294423E+03 0.  0.
     200001    1    1    2    0    0 -0.43151648237E+03  0.32744205078E+03  0.68712245475E+02  0.88777595364E+03  0.70000000000E+03 0.  1.
         11    1    4    4    0    0 -0.17267633459E+01 -0.12669525640E+03 -0.23016451010E+02  0.12878053705E+03  0.51100000000E-03 0.  1.
    -200002    1    4    4    0    0  0.99250234088E+02  0.31802296219E+02 -0.44225834452E+02  0.11712352217E+03  0.30000000000E+02 0.  1.
    -200000    1    3    3    0    0  0.33399301163E+03 -0.23254909060E+03 -0.33403366616E+03  0.72609152418E+03  0.50000000000E+03 0. -1.
<mgrwt>
<rscale>  0 0.18297955E+04</rscale>
<asrwt>0</asrwt>
<pdfrwt beam="1">  1        2 0.10908627E+00 0.18297955E+04</pdfrwt>
<pdfrwt beam="2">  1       -2 0.15659537E+00 0.18297955E+04</pdfrwt>
<totfact> 0.10176478E+01</totfact>
</mgrwt>
</event>
<event>
 8    2  0.2588871E-009  0.2596150E+04  0.7818608E-02  0.8369510E-01
          2   -1    0    0  501    0  0.00000000000E+00  0.00000000000E+00  0.88028787189E+03  0.88028787189E+03  0.25500000000E-02 0.  1.
         -2   -1    0    0    0  501 -0.00000000000E+00 -0.00000000000E+00 -0.19141445646E+04  0.19141445646E+04  0.25500000000E-02 0. -1.
    -200001    2    1    2    0    0  0.24442928978E+03 -0.10302576093E+04 -0.79482543377E+03  0.15028007699E+04  0.71097557245E+03 0.  0.
   -5000001    2    3    3    0    0  0.93834649689E+02 -0.41106567863E+03 -0.36728304551E+03  0.58690236593E+03  0.17826277790E+03 0.  0.
     200001    1    1    2    0    0 -0.24442928978E+03  0.10302576093E+04 -0.23903125891E+03  0.12916316665E+04  0.70000000000E+03 0. -1.
         11    1    4    4    0    0  0.10533722180E+03 -0.11716141498E+03 -0.89371054444E+02  0.18113506792E+03  0.51100000000E-03 0.  1.
    -200002    1    4    4    0    0 -0.11502572116E+02 -0.29390426365E+03 -0.27791199107E+03  0.40576729801E+03  0.30000000000E+02 0.  1.
    -200000    1    3    3    0    0  0.15059464009E+03 -0.61919193069E+03 -0.42754238826E+03  0.91589840398E+03  0.50000000000E+03 0.  1.
<mgrwt>
<rscale>  0 0.25961496E+04</rscale>
<asrwt>0</asrwt>
<pdfrwt beam="1">  1        2 0.12575541E+00 0.25961496E+04</pdfrwt>
<pdfrwt beam="2">  1       -2 0.27344922E+00 0.25961496E+04</pdfrwt>
<totfact> 0.13760894E+00</totfact>
</mgrwt>
</event>
<event>
 8    2  0.2588871E-009  0.1849970E+04  0.7818608E-02  0.8680168E-01
          2   -1    0    0  501    0  0.00000000000E+00  0.00000000000E+00  0.53296584785E+03  0.53296584786E+03  0.25500000000E-02 0.  1.
         -2   -1    0    0    0  501 -0.00000000000E+00 -0.00000000000E+00 -0.16053517564E+04  0.16053517564E+04  0.25500000000E-02 0. -1.
    -200001    2    1    2    0    0 -0.87867006054E+02  0.50393793434E+03 -0.90897520104E+03  0.12560607756E+04  0.69984191318E+03 0.  0.
   -5000001    2    3    3    0    0  0.84752841532E+00  0.20489662457E+03 -0.30883080969E+03  0.41494885435E+03  0.18660851441E+03 0.  0.
     200001    1    1    2    0    0  0.87867006054E+02 -0.50393793434E+03 -0.16341070751E+03  0.88225682868E+03  0.70000000000E+03 0.  1.
         11    1    4    4    0    0 -0.20046969182E+02  0.18565118506E+03 -0.32144897083E+03  0.37174949137E+03  0.51100000000E-03 0.  1.
    -200002    1    4    4    0    0  0.20894497598E+02  0.19245439508E+02  0.12618161135E+02  0.43199362983E+02  0.30000000000E+02 0.  1.
    -200000    1    3    3    0    0 -0.88714534469E+02  0.29904130977E+03 -0.60014439135E+03  0.84111192124E+03  0.50000000000E+03 0.  1.
<mgrwt>
<rscale>  0 0.18499704E+04</rscale>
<asrwt>0</asrwt>
<pdfrwt beam="1">  1        2 0.76137979E-01 0.18499704E+04</pdfrwt>
<pdfrwt beam="2">  1       -2 0.22933596E+00 0.18499704E+04</pdfrwt>
<totfact> 0.50748240E+00</totfact>
</mgrwt>
</event>
<event>
 8    2  0.2588871E-009  0.1575841E+04  0.7818608E-02  0.8835529E-01
          2   -1    0    0  501    0  0.00000000000E+00  0.00000000000E+00  0.22100475129E+04  0.22100475129E+04  0.25500000000E-02 0.  1.
         -2   -1    0    0    0  501 -0.00000000000E+00 -0.00000000000E+00 -0.28090725175E+03  0.28090725176E+03  0.25500000000E-02 0. -1.
    -200001    2    1    2    0    0  0.50326999103E+02 -0.30420672033E+03  0.12591138376E+04  0.14740919697E+04  0.70178696451E+03 0.  0.
   -5000001    2    3    3    0    0  0.55807357783E+02 -0.65505935480E+02  0.47015634764E+03  0.51000586359E+03  0.17791430775E+03 0.  0.
     200001    1    1    2    0    0 -0.50326999103E+02  0.30420672033E+03  0.67002642359E+03  0.10168627950E+04  0.70000000000E+03 0. -1.
         11    1    4    4    0    0  0.21513865168E+02 -0.88870010434E+02  0.44242308802E+03  0.45177307795E+03  0.51100000000E-03 0.  1.
    -200002    1    4    4    0    0  0.34293492615E+02  0.23364074954E+02  0.27733259627E+02  0.58232785643E+02  0.30000000000E+02 0.  1.
    -200000    1    3    3    0    0 -0.54803586794E+01 -0.23870078485E+03  0.78895748991E+03  0.96408610606E+03  0.50000000000E+03 0.  1.
<mgrwt>
<rscale>  0 0.15758406E+04</rscale>
<asrwt>0</asrwt>
<pdfrwt beam="1">  1        2 0.31572106E+00 0.15758406E+04</pdfrwt>
<pdfrwt beam="2">  1       -2 0.40129609E-01 0.15758406E+04</pdfrwt>
<totfact> 0.35355035E+01</totfact>
</mgrwt>
</event>
<event>
 8    2  0.2588871E-009  0.1495904E+04  0.7818608E-02  0.8887181E-01
         -2   -1    0    0    0  501 -0.00000000000E+00  0.00000000000E+00  0.27489670030E+03  0.27489670031E+03  0.25500000000E-02 0. -1.
          2   -1    0    0  501    0  0.00000000000E+00 -0.00000000000E+00 -0.20350645359E+04  0.20350645359E+04  0.25500000000E-02 0.  1.
    -200001    2    1    2    0    0  0.13819013838E+03  0.16880515311E+03 -0.65504648406E+03  0.98373165741E+03  0.70074987224E+03 0.  0.
   -5000001    2    3    3    0    0  0.24210948814E+02 -0.81209098216E+02 -0.15509769589E+03  0.22514931362E+03  0.13948415851E+03 0.  0.
     200001    1    1    2    0    0 -0.13819013838E+03 -0.16880515311E+03 -0.11051213516E+04  0.13262295788E+04  0.70000000000E+03 0.  1.
         11    1    4    4    0    0  0.23026885269E+02 -0.75973761329E+02 -0.13768956931E+02  0.80571918376E+02  0.51100000000E-03 0.  1.
    -200002    1    4    4    0    0  0.11840635450E+01 -0.52353368869E+01 -0.14132873896E+03  0.14457739524E+03  0.30000000000E+02 0.  1.
    -200000    1    3    3    0    0  0.11397918957E+03  0.25001425133E+03 -0.49994878817E+03  0.75858234379E+03  0.50000000000E+03 0. -1.
<mgrwt>
<rscale>  0 0.14959044E+04</rscale>
<asrwt>0</asrwt>
<pdfrwt beam="1">  1        2 0.29072350E+00 0.14959044E+04</pdfrwt>
<pdfrwt beam="2">  1       -2 0.39270958E-01 0.14959044E+04</pdfrwt>
<totfact> 0.45668118E+01</totfact>
</mgrwt>
</event>
<event>
 8    2  0.2588871E-009  0.2020658E+04  0.7818608E-02  0.8597023E-01
         -2   -1    0    0    0  501 -0.00000000000E+00  0.00000000000E+00  0.10543905164E+04  0.10543905164E+04  0.25500000000E-02 0. -1.
          2   -1    0    0  501    0  0.00000000000E+00 -0.00000000000E+00 -0.96810874966E+03  0.96810874967E+03  0.25500000000E-02 0.  1.
    -200001    2    1    2    0    0 -0.13522638501E+03  0.71064402621E+03 -0.40828300654E+02  0.10078771312E+04  0.70060563395E+03 0.  0.
   -5000001    2    3    3    0    0 -0.11982408294E+03  0.47104935841E+02  0.59571332015E+02  0.17085775176E+03  0.95220491004E+02 0.  0.
     200001    1    1    2    0    0  0.13522638501E+03 -0.71064402621E+03  0.12711006734E+03  0.10146221348E+04  0.70000000000E+03 0. -1.
         11    1    4    4    0    0 -0.73272472368E+02  0.68290043378E+01  0.70030043884E+02  0.10158591218E+03  0.51100000000E-03 0.  1.
    -200002    1    4    4    0    0 -0.46551610569E+02  0.40275931503E+02 -0.10458711869E+02  0.69271839581E+02  0.30000000000E+02 0.  1.
    -200000    1    3    3    0    0 -0.15402302074E+02  0.66353909037E+03 -0.10039963267E+03  0.83701937946E+03  0.50000000000E+03 0.  1.
<mgrwt>
<rscale>  0 0.20206580E+04</rscale>
<asrwt>0</asrwt>
<pdfrwt beam="1">  1        2 0.13830125E+00 0.20206580E+04</pdfrwt>
<pdfrwt beam="2">  1       -2 0.15062722E+00 0.20206580E+04</pdfrwt>
<totfact> 0.81116864E+00</totfact>
</mgrwt>
</event>
<event>
 8    2  0.2588871E-009  0.2061354E+04  0.7818608E-02  0.8578461E-01
         -2   -1    0    0    0  501 -0.00000000000E+00  0.00000000000E+00  0.59590070754E+03  0.59590070755E+03  0.25500000000E-02 0. -1.
          2   -1    0    0  501    0  0.00000000000E+00 -0.00000000000E+00 -0.17826713490E+04  0.17826713490E+04  0.25500000000E-02 0.  1.
    -200001    2    1    2    0    0  0.42463812023E+03  0.59577741340E+03 -0.81319443312E+03  0.12993003378E+04  0.70116183746E+03 0.  0.
   -5000001    2    3    3    0    0  0.20865803478E+03  0.16811229336E+03 -0.31603263391E+03  0.44682470368E+03  0.16725959303E+03 0.  0.
     200001    1    1    2    0    0 -0.42463812023E+03 -0.59577741340E+03 -0.37357620837E+03  0.10792717188E+04  0.70000000000E+03 0. -1.
         11    1    4    4    0    0  0.38427454919E+02 -0.28878342021E+02 -0.84051884951E+02  0.96826377054E+02  0.51100000000E-03 0.  1.
    -200002    1    4    4    0    0  0.17023057986E+03  0.19699063539E+03 -0.23198074896E+03  0.34999832662E+03  0.30000000000E+02 0.  1.
    -200000    1    3    3    0    0  0.21598008545E+03  0.42766512004E+03 -0.49716179920E+03  0.85247563413E+03  0.50000000000E+03 0.  1.
<mgrwt>
<rscale>  0 0.20613540E+04</rscale>
<asrwt>0</asrwt>
<pdfrwt beam="1">  1        2 0.25466733E+00 0.20613540E+04</pdfrwt>
<pdfrwt beam="2">  1       -2 0.85128673E-01 0.20613540E+04</pdfrwt>
<totfact> 0.11581551E+01</totfact>
</mgrwt>
</event>
<event>
 8    2  0.2588871E-009  0.1536157E+04  0.7818608E-02  0.8860758E-01
         -2   -1    0    0    0  501 -0.00000000000E+00  0.00000000000E+00  0.82525487544E+03  0.82525487544E+03  0.25500000000E-02 0. -1.
          2   -1    0    0  501    0  0.00000000000E+00 -0.00000000000E+00 -0.71486381194E+03  0.71486381194E+03  0.25500000000E-02 0.  1.
    -200001    2    1    2    0    0 -0.22164838003E+03 -0.16668317239E+03 -0.98948543904E+02  0.75862373823E+03  0.69914796541E+03 0.  0.
   -5000001    2    3    3    0    0 -0.45108086275E+02 -0.70109572161E+02 -0.70399266595E+02  0.21889417927E+03  0.18975909313E+03 0.  0.
     200001    1    1    2    0    0  0.22164838003E+03  0.16668317239E+03  0.20933960740E+03  0.78149494916E+03  0.70000000000E+03 0. -1.
         11    1    4    4    0    0 -0.71174384524E+02 -0.11892684663E+03 -0.71461271681E+02  0.15593620879E+03  0.51100000000E-03 0.  1.
    -200002    1    4    4    0    0  0.26066298250E+02  0.48817274473E+02  0.10620050865E+01  0.62957970474E+02  0.30000000000E+02 0.  1.
    -200000    1    3    3    0    0 -0.17654029376E+03 -0.96573600231E+02 -0.28549277310E+02  0.53972955896E+03  0.50000000000E+03 0. -1.
<mgrwt>
<rscale>  0 0.15361573E+04</rscale>
<asrwt>0</asrwt>
<pdfrwt beam="1">  1        2 0.10212340E+00 0.15361573E+04</pdfrwt>
<pdfrwt beam="2">  1       -2 0.11789355E+00 0.15361573E+04</pdfrwt>
<totfact> 0.23491018E+01</totfact>
</mgrwt>
</event>
<event>
 8    2  0.2588871E-009  0.1570653E+04  0.7818608E-02  0.8838783E-01
          2   -1    0    0  501    0  0.00000000000E+00  0.00000000000E+00  0.22239330128E+04  0.22239330128E+04  0.25500000000E-02 0.  1.
         -2   -1    0    0    0  501 -0.00000000000E+00 -0.00000000000E+00 -0.27731846345E+03  0.27731846347E+03  0.25500000000E-02 0. -1.
    -200001    2    1    2    0    0 -0.95094594471E+02 -0.23967337140E+02  0.42834653511E+03  0.82651114470E+03  0.70001607340E+03 0.  0.
   -5000001    2    3    3    0    0 -0.15881043194E+03  0.59116464538E+02  0.13933895720E+03  0.23958013841E+03  0.96269351595E+02 0.  0.
     200001    1    1    2    0    0  0.95094594471E+02  0.23967337140E+02  0.15182680143E+04  0.16747403316E+04  0.70000000000E+03 0.  1.
         11    1    4    4    0    0 -0.34921603381E+02 -0.22474666820E+02  0.45025514101E+02  0.61252966881E+02  0.51100000000E-03 0.  1.
    -200002    1    4    4    0    0 -0.12388882856E+03  0.81591131358E+02  0.94313443100E+02  0.17832717153E+03  0.30000000000E+02 0.  1.
    -200000    1    3    3    0    0  0.63715837468E+02 -0.83083801678E+02  0.28900757791E+03  0.58693100628E+03  0.50000000000E+03 0. -1.
<mgrwt>
<rscale>  0 0.15706530E+04</rscale>
<asrwt>0</asrwt>
<pdfrwt beam="1">  1        2 0.31770471E+00 0.15706530E+04</pdfrwt>
<pdfrwt beam="2">  1       -2 0.39616924E-01 0.15706530E+04</pdfrwt>
<totfact> 0.35675660E+01</totfact>
</mgrwt>
</event>
<event>
 8    2  0.2588871E-009  0.2303894E+04  0.7818608E-02  0.8476387E-01
         -2   -1    0    0    0  501 -0.00000000000E+00  0.00000000000E+00  0.56492737418E+03  0.56492737418E+03  0.25500000000E-02 0. -1.
          2   -1    0    0  501    0  0.00000000000E+00 -0.00000000000E+00 -0.23489433850E+04  0.23489433850E+04  0.25500000000E-02 0.  1.
    -200001    2    1    2    0    0 -0.23169217279E+03  0.10010383321E+03  0.22403488622E+03  0.77238285460E+03  0.69475290822E+03 0.  0.
   -5000001    2    3    3    0    0 -0.96993651771E+02 -0.85155891293E+01  0.87599293338E+02  0.22597957727E+03  0.18415441729E+03 0.  0.
     200001    1    1    2    0    0  0.23169217279E+03 -0.10010383321E+03 -0.20080508970E+04  0.21414879045E+04  0.70000000000E+03 0.  1.
         11    1    4    4    0    0  0.27888945841E+02 -0.54058615393E+02  0.62874964811E+02  0.87483646464E+02  0.51100000000E-03 0.  1.
    -200002    1    4    4    0    0 -0.12488259761E+03  0.45543026264E+02  0.24724328527E+02  0.13849593080E+03  0.30000000000E+02 0. -1.
    -200000    1    3    3    0    0 -0.13469852102E+03  0.10861942233E+03  0.13643559289E+03  0.54640327733E+03  0.50000000000E+03 0. -1.
<mgrwt>
<rscale>  0 0.23038945E+04</rscale>
<asrwt>0</asrwt>
<pdfrwt beam="1">  1        2 0.33556334E+00 0.23038945E+04</pdfrwt>
<pdfrwt beam="2">  1       -2 0.80703912E-01 0.23038945E+04</pdfrwt>
<totfact> 0.65308328E+00</totfact>
</mgrwt>
</event>
<event>
 8    2  0.2588871E-009  0.1959781E+04  0.7818608E-02  0.8625659E-01
         -2   -1    0    0    0  501 -0.00000000000E+00  0.00000000000E+00  0.18267953601E+04  0.18267953601E+04  0.25500000000E-02 0. -1.
          2   -1    0    0  501    0  0.00000000000E+00 -0.00000000000E+00 -0.52561177244E+03  0.52561177245E+03  0.25500000000E-02 0.  1.
    -200001    2    1    2    0    0  0.54316166174E+03  0.31040201728E+03  0.33832576956E+03  0.10076137726E+04  0.71375569019E+03 0.  0.
   -5000001    2    3    3    0    0  0.84062194881E+02  0.46252709324E+02  0.11593379876E+02  0.20930228463E+03  0.18565364033E+03 0.  0.
     200001    1    1    2    0    0 -0.54316166174E+03 -0.31040201728E+03  0.96285781813E+03  0.13447933600E+04  0.70000000000E+03 0. -1.
         11    1    4    4    0    0  0.11764854393E+03  0.67482802824E+02  0.51925410454E+02  0.14522863636E+03  0.51100000000E-03 0.  1.
    -200002    1    4    4    0    0 -0.33586349052E+02 -0.21230093500E+02 -0.40332030578E+02  0.64073648274E+02  0.30000000000E+02 0.  1.
    -200000    1    3    3    0    0  0.45909946686E+03  0.26414930795E+03  0.32673238968E+03  0.79831148797E+03  0.50000000000E+03 0.  1.
<mgrwt>
<rscale>  0 0.19597808E+04</rscale>
<asrwt>0</asrwt>
<pdfrwt beam="1">  1        2 0.75087395E-01 0.19597808E+04</pdfrwt>
<pdfrwt beam="2">  1       -2 0.26097077E+00 0.19597808E+04</pdfrwt>
<totfact> 0.32620518E+00</totfact>
</mgrwt>
</event>
<event>
 8    2  0.2588871E-009  0.2341446E+04  0.7818608E-02  0.8461757E-01
          2   -1    0    0  501    0  0.00000000000E+00  0.00000000000E+00  0.17126504452E+04  0.17126504452E+04  0.25500000000E-02 0.  1.
         -2   -1    0    0    0  501 -0.00000000000E+00 -0.00000000000E+00 -0.80027533449E+03  0.80027533449E+03  0.25500000000E-02 0. -1.
    -200001    2    1    2    0    0  0.84751763919E+03  0.39731271533E+03  0.52687536365E+03  0.12821725154E+04  0.70016081580E+03 0.  0.
   -5000001    2    3    3    0    0  0.12499629301E+03  0.10337667879E+03  0.50899209923E+02  0.24054456448E+03  0.17017681083E+03 0.  0.
     200001    1    1    2    0    0 -0.84751763919E+03 -0.39731271533E+03  0.38549974705E+03  0.12307532643E+04  0.70000000000E+03 0. -1.
         11    1    4    4    0    0  0.14186965858E+03  0.12464879609E+03  0.61685384400E+02  0.19866909433E+03  0.51100000000E-03 0.  1.
    -200002    1    4    4    0    0 -0.16873365577E+02 -0.21272117297E+02 -0.10786174477E+02  0.41875470147E+02  0.30000000000E+02 0.  1.
    -200000    1    3    3    0    0  0.72252134618E+03  0.29393603653E+03  0.47597615373E+03  0.10416279509E+04  0.50000000000E+03 0.  1.
<mgrwt>
<rscale>  0 0.23414456E+04</rscale>
<asrwt>0</asrwt>
<pdfrwt beam="1">  1        2 0.24466434E+00 0.23414456E+04</pdfrwt>
<pdfrwt beam="2">  1       -2 0.11432505E+00 0.23414456E+04</pdfrwt>
<totfact> 0.61404348E+00</totfact>
</mgrwt>
</event>
<event>
 8    2  0.2588871E-009  0.1792846E+04  0.7818608E-02  0.8710113E-01
          2   -1    0    0  501    0  0.00000000000E+00  0.00000000000E+00  0.57038995921E+03  0.57038995922E+03  0.25500000000E-02 0.  1.
         -2   -1    0    0    0  501 -0.00000000000E+00 -0.00000000000E+00 -0.14088147060E+04  0.14088147060E+04  0.25500000000E-02 0. -1.
    -200001    2    1    2    0    0  0.18987831420E+03 -0.44652032963E+03 -0.11097915180E+03  0.85911035106E+03  0.70022856568E+03 0.  0.
   -5000001    2    3    3    0    0  0.32065298690E+02 -0.14765454701E+03  0.13901452231E+02  0.24281426220E+03  0.18956652374E+03 0.  0.
     200001    1    1    2    0    0 -0.18987831420E+03  0.44652032963E+03 -0.72744559503E+03  0.11200943142E+04  0.70000000000E+03 0. -1.
         11    1    4    4    0    0 -0.87459459347E+01 -0.16073001296E+03  0.61278494529E+02  0.17223728554E+03  0.51100000000E-03 0.  1.
    -200002    1    4    4    0    0  0.40811244625E+02  0.13075465956E+02 -0.47377042298E+02  0.70576976661E+02  0.30000000000E+02 0.  1.
    -200000    1    3    3    0    0  0.15781301551E+03 -0.29886578262E+03 -0.12488060404E+03  0.61629608886E+03  0.50000000000E+03 0.  1.
<mgrwt>
<rscale>  0 0.17928455E+04</rscale>
<asrwt>0</asrwt>
<pdfrwt beam="1">  1        2 0.81484281E-01 0.17928455E+04</pdfrwt>
<pdfrwt beam="2">  1       -2 0.20125924E+00 0.17928455E+04</pdfrwt>
<totfact> 0.71160278E+00</totfact>
</mgrwt>
</event>
<event>
 8    2  0.2588871E-009  0.1661683E+04  0.7818608E-02  0.8783525E-01
         -2   -1    0    0    0  501 -0.00000000000E+00  0.00000000000E+00  0.36094466426E+03  0.36094466427E+03  0.25500000000E-02 0. -1.
          2   -1    0    0  501    0  0.00000000000E+00 -0.00000000000E+00 -0.19124752935E+04  0.19124752935E+04  0.25500000000E-02 0.  1.
    -200001    2    1    2    0    0 -0.33578318279E+03  0.28644909311E+03 -0.87326833541E+03  0.12034465151E+04  0.70063007378E+03 0.  0.
   -5000001    2    3    3    0    0 -0.51807123399E+02  0.11050589085E+02 -0.34956871655E+03  0.37837195536E+03  0.13476258925E+03 0.  0.
     200001    1    1    2    0    0  0.33578318279E+03 -0.28644909311E+03 -0.67826229382E+03  0.10699734427E+04  0.70000000000E+03 0. -1.
         11    1    4    4    0    0 -0.74646086643E+02  0.50037114936E+02 -0.19959259573E+03  0.21889028163E+03  0.51100000000E-03 0.  1.
    -200002    1    4    4    0    0  0.22838963244E+02 -0.38986525850E+02 -0.14997612082E+03  0.15948167373E+03  0.30000000000E+02 0.  1.
    -200000    1    3    3    0    0 -0.28397605939E+03  0.27539850403E+03 -0.52369961886E+03  0.82507455973E+03  0.50000000000E+03 0.  1.
<mgrwt>
<rscale>  0 0.16616832E+04</rscale>
<asrwt>0</asrwt>
<pdfrwt beam="1">  1        2 0.27321075E+00 0.16616832E+04</pdfrwt>
<pdfrwt beam="2">  1       -2 0.51563524E-01 0.16616832E+04</pdfrwt>
<totfact> 0.30248488E+01</totfact>
</mgrwt>
</event>
<event>
 8    2  0.2588871E-009  0.2536515E+04  0.7818608E-02  0.8390091E-01
         -2   -1    0    0    0  501 -0.00000000000E+00  0.00000000000E+00  0.17785448080E+04  0.17785448080E+04  0.25500000000E-02 0. -1.
          2   -1    0    0  501    0  0.00000000000E+00 -0.00000000000E+00 -0.90437807174E+03  0.90437807174E+03  0.25500000000E-02 0.  1.
    -200001    2    1    2    0    0 -0.95572518717E+03  0.44640670270E+03  0.52400976982E+03  0.13694163215E+04  0.69858803668E+03 0.  0.
   -5000001    2    3    3    0    0 -0.91541462788E+02  0.17767629023E+03  0.97992955401E+02  0.25114986383E+03  0.11629673802E+03 0.  0.
     200001    1    1    2    0    0  0.95572518717E+03 -0.44640670270E+03  0.35015696648E+03  0.13135065583E+04  0.70000000000E+03 0. -1.
         11    1    4    4    0    0 -0.34879087263E+02  0.12756224761E+03  0.10585792852E+03  0.16939474246E+03  0.51100000000E-03 0.  1.
    -200002    1    4    4    0    0 -0.56662375525E+02  0.50114042623E+02 -0.78649731177E+01  0.81755121370E+02  0.30000000000E+02 0.  1.
    -200000    1    3    3    0    0 -0.86418372438E+03  0.26873041247E+03  0.42601681442E+03  0.11182664576E+04  0.50000000000E+03 0.  1.
<mgrwt>
<rscale>  0 0.25365149E+04</rscale>
<asrwt>0</asrwt>
<pdfrwt beam="1">  1        2 0.12919687E+00 0.25365149E+04</pdfrwt>
<pdfrwt beam="2">  1       -2 0.25407783E+00 0.25365149E+04</pdfrwt>
<totfact> 0.17512546E+00</totfact>
</mgrwt>
</event>
<event>
 8    2  0.2588871E-009  0.2062492E+04  0.7818608E-02  0.8577948E-01
         -2   -1    0    0    0  501 -0.00000000000E+00  0.00000000000E+00  0.43295806739E+03  0.43295806740E+03  0.25500000000E-02 0. -1.
          2   -1    0    0  501    0  0.00000000000E+00 -0.00000000000E+00 -0.24562842857E+04  0.24562842857E+04  0.25500000000E-02 0.  1.
    -200001    2    1    2    0    0 -0.22967166598E+03  0.29120715096E+03 -0.85432395263E+02  0.79568481906E+03  0.69875958541E+03 0.  0.
   -5000001    2    3    3    0    0 -0.56411735049E+02  0.98664300068E+02 -0.10973420057E+03  0.23205166635E+03  0.16996897693E+03 0.  0.
     200001    1    1    2    0    0  0.22967166598E+03 -0.29120715096E+03 -0.19378938230E+04  0.20935575340E+04  0.70000000000E+03 0.  1.
         11    1    4    4    0    0 -0.11208877324E+03  0.75225219669E+02 -0.57434493845E+02  0.14670190129E+03  0.51100000000E-03 0.  1.
    -200002    1    4    4    0    0  0.55677038186E+02  0.23439080399E+02 -0.52299706724E+02  0.85349765052E+02  0.30000000000E+02 0.  1.
    -200000    1    3    3    0    0 -0.17325993093E+03  0.19254285089E+03  0.24301805305E+02  0.56363315271E+03  0.50000000000E+03 0. -1.
<mgrwt>
<rscale>  0 0.20624918E+04</rscale>
<asrwt>0</asrwt>
<pdfrwt beam="1">  1        2 0.35089775E+00 0.20624918E+04</pdfrwt>
<pdfrwt beam="2">  1       -2 0.61851154E-01 0.20624918E+04</pdfrwt>
<totfact> 0.10473655E+01</totfact>
</mgrwt>
</event>
<event>
 8    2  0.2588871E-009  0.1757887E+04  0.7818608E-02  0.8729021E-01
         -2   -1    0    0    0  501 -0.00000000000E+00  0.00000000000E+00  0.55680961712E+03  0.55680961712E+03  0.25500000000E-02 0. -1.
          2   -1    0    0  501    0  0.00000000000E+00 -0.00000000000E+00 -0.13874431012E+04  0.13874431012E+04  0.25500000000E-02 0.  1.
    -200001    2    1    2    0    0 -0.24504200811E+03  0.11730012288E+03 -0.92123156311E+03  0.11879373632E+04  0.69908703417E+03 0.  0.
   -5000001    2    3    3    0    0 -0.91618805533E+02  0.41081445500E+02 -0.24398724562E+03  0.32886354127E+03  0.19631546567E+03 0.  0.
     200001    1    1    2    0    0  0.24504200811E+03 -0.11730012288E+03  0.90598079012E+02  0.75631535518E+03  0.70000000000E+03 0. -1.
         11    1    4    4    0    0  0.36406466731E+02 -0.44899528684E+02 -0.10129111917E+03  0.11662456567E+03  0.51100000000E-03 0.  1.
    -200002    1    4    4    0    0 -0.12802527226E+03  0.85980974184E+02 -0.14269612645E+03  0.21223897560E+03  0.30000000000E+02 0.  1.
    -200000    1    3    3    0    0 -0.15342320258E+03  0.76218677379E+02 -0.67724431750E+03  0.85907382189E+03  0.50000000000E+03 0.  1.
<mgrwt>
<rscale>  0 0.17578870E+04</rscale>
<asrwt>0</asrwt>
<pdfrwt beam="1">  1        2 0.19820616E+00 0.17578870E+04</pdfrwt>
<pdfrwt beam="2">  1       -2 0.79544232E-01 0.17578870E+04</pdfrwt>
<totfact> 0.22357571E+01</totfact>
</mgrwt>
</event>
<event>
 8    2  0.2588871E-009  0.1411114E+04  0.7818608E-02  0.8945813E-01
          2   -1    0    0  501    0  0.00000000000E+00  0.00000000000E+00  0.14728985137E+04  0.14728985137E+04  0.25500000000E-02 0.  1.
         -2   -1    0    0    0  501 -0.00000000000E+00 -0.00000000000E+00 -0.33798040462E+03  0.33798040463E+03  0.25500000000E-02 0. -1.
    -200001    2    1    2    0    0 -0.54420109969E+02 -0.32261275376E+02  0.48153292739E+03  0.85123599831E+03  0.69908971270E+03 0.  0.
   -5000001    2    3    3    0    0  0.20549576933E+02  0.76127582541E+02  0.17419043687E+03  0.24971458976E+03  0.16061560978E+03 0.  0.
     200001    1    1    2    0    0  0.54420109969E+02  0.32261275376E+02  0.65338518166E+03  0.95964291998E+03  0.70000000000E+03 0.  1.
         11    1    4    4    0    0 -0.20587967889E+02  0.95586313684E+02  0.16862736755E+03  0.19492510580E+03  0.51100000000E-03 0.  1.
    -200002    1    4    4    0    0  0.41137544821E+02 -0.19458731144E+02  0.55630693220E+01  0.54789483954E+02  0.30000000000E+02 0.  1.
    -200000    1    3    3    0    0 -0.74969686901E+02 -0.10838885792E+03  0.30734249051E+03  0.60152140856E+03  0.50000000000E+03 0.  1.
<mgrwt>
<rscale>  0 0.14111142E+04</rscale>
<asrwt>0</asrwt>
<pdfrwt beam="1">  1        2 0.21041407E+00 0.14111142E+04</pdfrwt>
<pdfrwt beam="2">  1       -2 0.48282915E-01 0.14111142E+04</pdfrwt>
<totfact> 0.59773665E+01</totfact>
</mgrwt>
</event>
<event>
 8    2  0.2588871E-009  0.1902665E+04  0.7818608E-02  0.8653531E-01
         -2   -1    0    0    0  501 -0.00000000000E+00  0.00000000000E+00  0.30805373921E+03  0.30805373922E+03  0.25500000000E-02 0. -1.
          2   -1    0    0  501    0  0.00000000000E+00 -0.00000000000E+00 -0.29379078189E+04  0.29379078189E+04  0.25500000000E-02 0.  1.
    -200001    2    1    2    0    0  0.41612969489E+03 -0.19628591106E+03 -0.54611202589E+03  0.10001492266E+04  0.70026284258E+03 0.  0.
   -5000001    2    3    3    0    0  0.17219619786E+03  0.18497685438E+02 -0.11932770540E+03  0.26681410499E+03  0.16418578021E+03 0.  0.
     200001    1    1    2    0    0 -0.41612969489E+03  0.19628591106E+03 -0.20837420538E+04  0.22458123316E+04  0.70000000000E+03 0.  1.
         11    1    4    4    0    0  0.42204879076E+02  0.80403493084E+02 -0.56010449568E+02  0.10669181777E+03  0.51100000000E-03 0.  1.
    -200002    1    4    4    0    0  0.12999131878E+03 -0.61905807646E+02 -0.63317255834E+02  0.16012228722E+03  0.30000000000E+02 0.  1.
    -200000    1    3    3    0    0  0.24393349704E+03 -0.21478359650E+03 -0.42678432049E+03  0.73333512156E+03  0.50000000000E+03 0. -1.
<mgrwt>
<rscale>  0 0.19026650E+04</rscale>
<asrwt>0</asrwt>
<pdfrwt beam="1">  1        2 0.41970110E+00 0.19026650E+04</pdfrwt>
<pdfrwt beam="2">  1       -2 0.44007679E-01 0.19026650E+04</pdfrwt>
<totfact> 0.11766173E+01</totfact>
</mgrwt>
</event>
<event>
 8    2  0.2588871E-009  0.1459584E+04  0.7818608E-02  0.8911783E-01
          2   -1    0    0  501    0  0.00000000000E+00  0.00000000000E+00  0.81698300376E+03  0.81698300376E+03  0.25500000000E-02 0.  1.
         -2   -1    0    0    0  501 -0.00000000000E+00 -0.00000000000E+00 -0.65190621369E+03  0.65190621370E+03  0.25500000000E-02 0. -1.
    -200001    2    1    2    0    0 -0.90782821334E+02  0.88663763259E+02  0.24727359071E+03  0.75274740357E+03  0.69955817582E+03 0.  0.
   -5000001    2    3    3    0    0 -0.33651506249E+02  0.49338507088E+02  0.11894003143E+03  0.23190197028E+03  0.18990808459E+03 0.  0.
     200001    1    1    2    0    0  0.90782821334E+02 -0.88663763259E+02 -0.82196800648E+02  0.71614181389E+03  0.70000000000E+03 0. -1.
         11    1    4    4    0    0 -0.47088385250E+02  0.95140785140E+02  0.67826778715E+01  0.10637241062E+03  0.51100000000E-03 0.  1.
    -200002    1    4    4    0    0  0.13436879001E+02 -0.45802278052E+02  0.11215735356E+03  0.12552955966E+03  0.30000000000E+02 0.  1.
    -200000    1    3    3    0    0 -0.57131315085E+02  0.39325256172E+02  0.12833355928E+03  0.52084543329E+03  0.50000000000E+03 0.  1.
<mgrwt>
<rscale>  0 0.14595839E+04</rscale>
<asrwt>0</asrwt>
<pdfrwt beam="1">  1        2 0.11671186E+00 0.14595839E+04</pdfrwt>
<pdfrwt beam="2">  1       -2 0.93129459E-01 0.14595839E+04</pdfrwt>
<totfact> 0.35066234E+01</totfact>
</mgrwt>
</event>
<event>
 8    2  0.2588871E-009  0.1797653E+04  0.7818608E-02  0.8707548E-01
          2   -1    0    0  501    0  0.00000000000E+00  0.00000000000E+00  0.26068334564E+04  0.26068334564E+04  0.25500000000E-02 0.  1.
         -2   -1    0    0    0  501 -0.00000000000E+00 -0.00000000000E+00 -0.30991220979E+03  0.30991220980E+03  0.25500000000E-02 0. -1.
    -200001    2    1    2    0    0  0.36672202933E+03  0.11406032338E+03  0.18186071573E+04  0.19860044712E+04  0.69956197911E+03 0.  0.
   -5000001    2    3    3    0    0  0.78568718865E+02  0.77743042938E+02  0.70776046054E+03  0.73367398005E+03  0.15854215589E+03 0.  0.
     200001    1    1    2    0    0 -0.36672202933E+03 -0.11406032338E+03  0.47831408929E+03  0.93074119506E+03  0.70000000000E+03 0. -1.
         11    1    4    4    0    0  0.18264666111E+02 -0.45164575170E+02  0.12172011123E+03  0.13110767466E+03  0.51100000000E-03 0.  1.
    -200002    1    4    4    0    0  0.60304052754E+02  0.12290761811E+03  0.58604034931E+03  0.60256630539E+03  0.30000000000E+02 0.  1.
    -200000    1    3    3    0    0  0.28815331046E+03  0.36317280439E+02  0.11108466968E+04  0.12523304911E+04  0.50000000000E+03 0.  1.
<mgrwt>
<rscale>  0 0.17976535E+04</rscale>
<asrwt>0</asrwt>
<pdfrwt beam="1">  1        2 0.37240476E+00 0.17976535E+04</pdfrwt>
<pdfrwt beam="2">  1       -2 0.44273175E-01 0.17976535E+04</pdfrwt>
<totfact> 0.17733656E+01</totfact>
</mgrwt>
</event>
<event>
 8    2  0.2588871E-009  0.1867486E+04  0.7818608E-02  0.8671212E-01
         -2   -1    0    0    0  501 -0.00000000000E+00  0.00000000000E+00  0.69090692678E+03  0.69090692679E+03  0.25500000000E-02 0. -1.
          2   -1    0    0  501    0  0.00000000000E+00 -0.00000000000E+00 -0.12619293068E+04  0.12619293068E+04  0.25500000000E-02 0.  1.
    -200001    2    1    2    0    0 -0.58595697302E+03 -0.17877891598E+03 -0.35352820476E+03  0.99752937645E+03  0.70340258053E+03 0.  0.
   -5000001    2    3    3    0    0 -0.16224777767E+03 -0.11936634698E+03 -0.12702728224E+03  0.30156816813E+03  0.18502638581E+03 0.  0.
     200001    1    1    2    0    0  0.58595697302E+03  0.17877891598E+03 -0.21749417525E+03  0.95530685714E+03  0.70000000000E+03 0. -1.
         11    1    4    4    0    0 -0.34403758240E+02  0.18219431954E+02  0.34516132097E+02  0.52028162153E+02  0.51100000000E-03 0.  1.
    -200002    1    4    4    0    0 -0.12784401943E+03 -0.13758577894E+03 -0.16154341433E+03  0.24954000598E+03  0.30000000000E+02 0.  1.
    -200000    1    3    3    0    0 -0.42370919535E+03 -0.59412568995E+02 -0.22650092252E+03  0.69596120832E+03  0.50000000000E+03 0.  1.
<mgrwt>
<rscale>  0 0.18674857E+04</rscale>
<asrwt>0</asrwt>
<pdfrwt beam="1">  1        2 0.18027562E+00 0.18674857E+04</pdfrwt>
<pdfrwt beam="2">  1       -2 0.98700990E-01 0.18674857E+04</pdfrwt>
<totfact> 0.15827937E+01</totfact>
</mgrwt>
</event>
<event>
 8    2  0.2588871E-009  0.1526039E+04  0.7818608E-02  0.8867320E-01
         -2   -1    0    0    0  501 -0.00000000000E+00  0.00000000000E+00  0.76432034870E+03  0.76432034870E+03  0.25500000000E-02 0. -1.
          2   -1    0    0  501    0  0.00000000000E+00 -0.00000000000E+00 -0.76172063109E+03  0.76172063110E+03  0.25500000000E-02 0.  1.
    -200001    2    1    2    0    0  0.90018394880E+02 -0.28292088022E+03  0.65113062065E+02  0.76311539096E+03  0.69996989448E+03 0.  0.
   -5000001    2    3    3    0    0  0.34835528283E+02 -0.83983934124E+02 -0.33317374283E+02  0.21328850175E+03  0.19003979144E+03 0.  0.
     200001    1    1    2    0    0 -0.90018394880E+02  0.28292088022E+03 -0.62513344460E+02  0.76292558885E+03  0.70000000000E+03 0. -1.
         11    1    4    4    0    0 -0.40925073444E+02 -0.81441210136E+02  0.43751267686E+02  0.10110245185E+03  0.51100000000E-03 0.  1.
    -200002    1    4    4    0    0  0.75760601726E+02 -0.25427239883E+01 -0.77068641970E+02  0.11218604991E+03  0.30000000000E+02 0.  1.
    -200000    1    3    3    0    0  0.55182866597E+02 -0.19893694610E+03  0.98430436349E+02  0.54982688920E+03  0.50000000000E+03 0.  1.
<mgrwt>
<rscale>  0 0.15260388E+04</rscale>
<asrwt>0</asrwt>
<pdfrwt beam="1">  1        2 0.10881723E+00 0.15260388E+04</pdfrwt>
<pdfrwt beam="2">  1       -2 0.10918862E+00 0.15260388E+04</pdfrwt>
<totfact> 0.26167919E+01</totfact>
</mgrwt>
</event>
<event>
 8    2  0.2588871E-009  0.2037746E+04  0.7818608E-02  0.8589174E-01
          2   -1    0    0  501    0  0.00000000000E+00  0.00000000000E+00  0.11477266089E+04  0.11477266089E+04  0.25500000000E-02 0.  1.
         -2   -1    0    0    0  501 -0.00000000000E+00 -0.00000000000E+00 -0.90448526996E+03  0.90448526996E+03  0.25500000000E-02 0. -1.
    -200001    2    1    2    0    0  0.58374959693E+03  0.33597576225E+03  0.43157128375E+03  0.10627112609E+04  0.69961285463E+03 0.  0.
   -5000001    2    3    3    0    0  0.21167518546E+03  0.30152297169E+02  0.13677916078E+03  0.30847671169E+03  0.17531057489E+03 0.  0.
     200001    1    1    2    0    0 -0.58374959693E+03 -0.33597576225E+03 -0.18832994485E+03  0.98950061792E+03  0.70000000000E+03 0. -1.
         11    1    4    4    0    0  0.23320429970E+03  0.91790928704E+01  0.12311060869E+03  0.26386497137E+03  0.51100000000E-03 0.  1.
    -200002    1    4    4    0    0 -0.21529114236E+02  0.20973204298E+02  0.13668552088E+02  0.44611740321E+02  0.30000000000E+02 0.  1.
    -200000    1    3    3    0    0  0.37207441146E+03  0.30582346508E+03  0.29479212296E+03  0.75423454921E+03  0.50000000000E+03 0. -1.
<mgrwt>
<rscale>  0 0.20377456E+04</rscale>
<asrwt>0</asrwt>
<pdfrwt beam="1">  1        2 0.16396094E+00 0.20377456E+04</pdfrwt>
<pdfrwt beam="2">  1       -2 0.12921218E+00 0.20377456E+04</pdfrwt>
<totfact> 0.93965662E+00</totfact>
</mgrwt>
</event>
<event>
 8    2  0.2588871E-009  0.1569868E+04  0.7818608E-02  0.8839276E-01
          2   -1    0    0  501    0  0.00000000000E+00  0.00000000000E+00  0.66120472384E+03  0.66120472385E+03  0.25500000000E-02 0.  1.
         -2   -1    0    0    0  501 -0.00000000000E+00 -0.00000000000E+00 -0.93181610367E+03  0.93181610368E+03  0.25500000000E-02 0. -1.
    -200001    2    1    2    0    0  0.18851741447E+02 -0.34963231024E+03 -0.19272105183E+03  0.80646819501E+03  0.70046513492E+03 0.  0.
   -5000001    2    3    3    0    0 -0.11671601113E+03 -0.12525625548E+03 -0.88495632580E+02  0.23237223831E+03  0.12982150576E+03 0.  0.
     200001    1    1    2    0    0 -0.18851741447E+02  0.34963231024E+03 -0.77890328002E+02  0.78655263251E+03  0.70000000000E+03 0.  1.
         11    1    4    4    0    0  0.10123290398E+02 -0.50585625088E+02  0.10266848908E+02  0.52600329474E+02  0.51100000000E-03 0.  1.
    -200002    1    4    4    0    0 -0.12683930153E+03 -0.74670630391E+02 -0.98762481488E+02  0.17977190883E+03  0.30000000000E+02 0.  1.
    -200000    1    3    3    0    0  0.13556775258E+03 -0.22437605476E+03 -0.10422541925E+03  0.57409595671E+03  0.50000000000E+03 0.  1.
<mgrwt>
<rscale>  0 0.15698678E+04</rscale>
<asrwt>0</asrwt>
<pdfrwt beam="1">  1        2 0.94457818E-01 0.15698678E+04</pdfrwt>
<pdfrwt beam="2">  1       -2 0.13311659E+00 0.15698678E+04</pdfrwt>
<totfact> 0.19009796E+01</totfact>
</mgrwt>
</event>
<event>
 8    2  0.2588871E-009  0.1994477E+04  0.7818608E-02  0.8609207E-01
         -2   -1    0    0    0  501 -0.00000000000E+00  0.00000000000E+00  0.84517208242E+03  0.84517208242E+03  0.25500000000E-02 0. -1.
          2   -1    0    0  501    0  0.00000000000E+00 -0.00000000000E+00 -0.11766649788E+04  0.11766649788E+04  0.25500000000E-02 0.  1.
    -200001    2    1    2    0    0 -0.37723384356E+03  0.55670350179E+03  0.65750722971E+02  0.97301550598E+03  0.70015130913E+03 0.  0.
   -5000001    2    3    3    0    0 -0.51101591999E+02  0.98315359476E+02  0.12209134877E+03  0.21825978349E+03  0.14301661802E+03 0.  0.
     200001    1    1    2    0    0  0.37723384356E+03 -0.55670350179E+03 -0.39724361935E+03  0.10488215552E+04  0.70000000000E+03 0.  1.
         11    1    4    4    0    0  0.21500047651E+02  0.23319211539E+02 -0.21428528585E+02  0.38278185868E+02  0.51100000000E-03 0.  1.
    -200002    1    4    4    0    0 -0.72601639650E+02  0.74996147938E+02  0.14351987736E+03  0.17998159762E+03  0.30000000000E+02 0.  1.
    -200000    1    3    3    0    0 -0.32613225156E+03  0.45838814232E+03 -0.56340625800E+02  0.75475572249E+03  0.50000000000E+03 0. -1.
<mgrwt>
<rscale>  0 0.19944768E+04</rscale>
<asrwt>0</asrwt>
<pdfrwt beam="1">  1        2 0.16809500E+00 0.19944768E+04</pdfrwt>
<pdfrwt beam="2">  1       -2 0.12073887E+00 0.19944768E+04</pdfrwt>
<totfact> 0.10756659E+01</totfact>
</mgrwt>
</event>
<event>
 8    2  0.2588871E-009  0.1633905E+04  0.7818608E-02  0.8799985E-01
          2   -1    0    0  501    0  0.00000000000E+00  0.00000000000E+00  0.80426466191E+03  0.80426466191E+03  0.25500000000E-02 0.  1.
         -2   -1    0    0    0  501 -0.00000000000E+00 -0.00000000000E+00 -0.82984078806E+03  0.82984078806E+03  0.25500000000E-02 0. -1.
    -200001    2    1    2    0    0 -0.39600093090E+03  0.14177719951E+03  0.38388191927E+02  0.81495409305E+03  0.69696413747E+03 0.  0.
   -5000001    2    3    3    0    0 -0.11882987422E+03  0.38193883727E+02 -0.10591504211E+02  0.23189980003E+03  0.19515641300E+03 0.  0.
     200001    1    1    2    0    0  0.39600093090E+03 -0.14177719951E+03 -0.63964318079E+02  0.81915135693E+03  0.70000000000E+03 0.  1.
         11    1    4    4    0    0 -0.12630721714E+03 -0.50530498519E+02  0.73781848187E+01  0.13623979593E+03  0.51100000000E-03 0.  1.
    -200002    1    4    4    0    0  0.74773429239E+01  0.88724382245E+02 -0.17969689030E+02  0.95660004107E+02  0.30000000000E+02 0.  1.
    -200000    1    3    3    0    0 -0.27717105668E+03  0.10358331578E+03  0.48979696138E+02  0.58305429301E+03  0.50000000000E+03 0.  1.
<mgrwt>
<rscale>  0 0.16339053E+04</rscale>
<asrwt>0</asrwt>
<pdfrwt beam="1">  1        2 0.11489495E+00 0.16339053E+04</pdfrwt>
<pdfrwt beam="2">  1       -2 0.11854868E+00 0.16339053E+04</pdfrwt>
<totfact> 0.19809290E+01</totfact>
</mgrwt>
</event>
<event>
 8    2  0.2588871E-009  0.1540087E+04  0.7818608E-02  0.8858225E-01
         -2   -1    0    0    0  501 -0.00000000000E+00  0.00000000000E+00  0.13026881158E+03  0.13026881161E+03  0.25500000000E-02 0. -1.
          2   -1    0    0  501    0  0.00000000000E+00 -0.00000000000E+00 -0.45518726260E+04  0.45518726260E+04  0.25500000000E-02 0.  1.
    -200001    2    1    2    0    0 -0.35884891814E+02  0.28065300129E+03 -0.26671784867E+04  0.27721513687E+04  0.70066275679E+03 0.  0.
   -5000001    2    3    3    0    0 -0.67224075870E+02  0.14238417248E+02 -0.61568357487E+03  0.64363304646E+03  0.17457212043E+03 0.  0.
     200001    1    1    2    0    0  0.35884891814E+02 -0.28065300129E+03 -0.17544253277E+04  0.19099900689E+04  0.70000000000E+03 0.  1.
         11    1    4    4    0    0 -0.12221202682E+03  0.54237142895E+01 -0.35902589376E+03  0.37929512067E+03  0.51100000000E-03 0.  1.
    -200002    1    4    4    0    0  0.54987950952E+02  0.88147029582E+01 -0.25665768111E+03  0.26433792579E+03  0.30000000000E+02 0.  1.
    -200000    1    3    3    0    0  0.31339184056E+02  0.26641458404E+03 -0.20514949118E+04  0.21285183223E+04  0.50000000000E+03 0.  1.
<mgrwt>
<rscale>  0 0.15400871E+04</rscale>
<asrwt>0</asrwt>
<pdfrwt beam="1">  1        2 0.65026742E+00 0.15400871E+04</pdfrwt>
<pdfrwt beam="2">  1       -2 0.18609833E-01 0.15400871E+04</pdfrwt>
<totfact> 0.52975750E+00</totfact>
</mgrwt>
</event>
<event>
 8    2  0.2588871E-009  0.1503120E+04  0.7818608E-02  0.8882381E-01
         -2   -1    0    0    0  501 -0.00000000000E+00  0.00000000000E+00  0.38513407825E+03  0.38513407826E+03  0.25500000000E-02 0. -1.
          2   -1    0    0  501    0  0.00000000000E+00 -0.00000000000E+00 -0.14666122496E+04  0.14666122496E+04  0.25500000000E-02 0.  1.
    -200001    2    1    2    0    0  0.19452456310E+03  0.18000674955E+03 -0.45873296724E+03  0.87806577206E+03  0.70022948331E+03 0.  0.
   -5000001    2    3    3    0    0  0.31777864807E+02  0.90342202063E+02 -0.73679708645E+02  0.22019630869E+03  0.18408196198E+03 0.  0.
     200001    1    1    2    0    0 -0.19452456310E+03 -0.18000674955E+03 -0.62274520413E+03  0.97368055583E+03  0.70000000000E+03 0. -1.
         11    1    4    4    0    0  0.59244351118E+02  0.30056743901E+02 -0.11772401613E+03  0.13517486811E+03  0.51100000000E-03 0.  1.
    -200002    1    4    4    0    0 -0.27466486310E+02  0.60285458163E+02  0.44044307486E+02  0.85021440579E+02  0.30000000000E+02 0.  1.
    -200000    1    3    3    0    0  0.16274669829E+03  0.89664547487E+02 -0.38505325860E+03  0.65786946337E+03  0.50000000000E+03 0. -1.
<mgrwt>
<rscale>  0 0.15031199E+04</rscale>
<asrwt>0</asrwt>
<pdfrwt beam="1">  1        2 0.20951603E+00 0.15031199E+04</pdfrwt>
<pdfrwt beam="2">  1       -2 0.55019155E-01 0.15031199E+04</pdfrwt>
<totfact> 0.45774927E+01</totfact>
</mgrwt>
</event>
<event>
 8    2  0.2588871E-009  0.1829576E+04  0.7818608E-02  0.8690727E-01
          2   -1    0    0  501    0  0.00000000000E+00  0.00000000000E+00  0.20777613125E+04  0.20777613125E+04  0.25500000000E-02 0. -1.
         -2   -1    0    0    0  501 -0.00000000000E+00 -0.00000000000E+00 -0.40275904754E+03  0.40275904755E+03  0.25500000000E-02 0.  1.
    -200001    2    1    2    0    0  0.27502774900E+03 -0.51833074881E+03  0.91544318829E+03  0.12925653866E+04  0.69884334430E+03 0.  0.
   -5000001    2    3    3    0    0  0.68067743897E+02 -0.10737208195E+03  0.17333536164E+03  0.28636287425E+03  0.18919980552E+03 0.  0.
     200001    1    1    2    0    0 -0.27502774900E+03  0.51833074881E+03  0.75955907661E+03  0.11879549734E+04  0.70000000000E+03 0. -1.
         11    1    4    4    0    0 -0.23658030350E+02  0.43078009884E+02  0.34820988644E+02  0.60232205555E+02  0.51100000000E-03 0.  1.
    -200002    1    4    4    0    0  0.91725774248E+02 -0.15045009184E+03  0.13851437300E+03  0.22613066869E+03  0.30000000000E+02 0.  1.
    -200000    1    3    3    0    0  0.20696000510E+03 -0.41095866685E+03  0.74210782665E+03  0.10062025124E+04  0.50000000000E+03 0.  1.
<mgrwt>
<rscale>  0 0.18295761E+04</rscale>
<asrwt>0</asrwt>
<pdfrwt beam="1">  1        2 0.29682305E+00 0.18295761E+04</pdfrwt>
<pdfrwt beam="2">  1       -2 0.57537005E-01 0.18295761E+04</pdfrwt>
<totfact> 0.19548827E+01</totfact>
</mgrwt>
</event>
<event>
 8    2  0.2588871E-009  0.2113525E+04  0.7818608E-02  0.8555309E-01
          2   -1    0    0  501    0  0.00000000000E+00  0.00000000000E+00  0.62846179972E+03  0.62846179972E+03  0.25500000000E-02 0.  1.
         -2   -1    0    0    0  501 -0.00000000000E+00 -0.00000000000E+00 -0.17769531975E+04  0.17769531975E+04  0.25500000000E-02 0. -1.
    -200001    2    1    2    0    0 -0.48673070076E+03  0.29991094236E+03  0.48544157474E+02  0.90549917660E+03  0.70051329409E+03 0.  0.
   -5000001    2    3    3    0    0 -0.93914929195E+02  0.11694549867E+03 -0.75133817444E+02  0.23238935981E+03  0.16082120646E+03 0.  0.
     200001    1    1    2    0    0  0.48673070076E+03 -0.29991094236E+03 -0.11970355553E+04  0.14999158206E+04  0.70000000000E+03 0. -1.
         11    1    4    4    0    0 -0.60020047270E+02 -0.63130367558E+01 -0.80929317238E+02  0.10095451895E+03  0.51100000000E-03 0.  1.
    -200002    1    4    4    0    0 -0.33894881925E+02  0.12325853542E+03  0.57954997943E+01  0.13143484086E+03  0.30000000000E+02 0.  1.
    -200000    1    3    3    0    0 -0.39281577156E+03  0.18296544369E+03  0.12367797492E+03  0.67310981679E+03  0.50000000000E+03 0.  1.
<mgrwt>
<rscale>  0 0.21135252E+04</rscale>
<asrwt>0</asrwt>
<pdfrwt beam="1">  1        2 0.89780257E-01 0.21135252E+04</pdfrwt>
<pdfrwt beam="2">  1       -2 0.25385046E+00 0.21135252E+04</pdfrwt>
<totfact> 0.28860361E+00</totfact>
</mgrwt>
</event>
<event>
 8    2  0.2588871E-009  0.1531000E+04  0.7818608E-02  0.8864096E-01
          2   -1    0    0  501    0  0.00000000000E+00  0.00000000000E+00  0.14121729907E+04  0.14121729907E+04  0.25500000000E-02 0.  1.
         -2   -1    0    0    0  501 -0.00000000000E+00 -0.00000000000E+00 -0.41495640046E+03  0.41495640047E+03  0.25500000000E-02 0. -1.
    -200001    2    1    2    0    0 -0.14723012303E+02  0.13634138875E+03  0.16831172539E+03  0.73356228469E+03  0.70069897049E+03 0.  0.
   -5000001    2    3    3    0    0  0.87534103811E+02  0.82164523801E+02  0.49877653122E+02  0.20685716799E+03  0.16090021555E+03 0.  0.
     200001    1    1    2    0    0  0.14723012303E+02 -0.13634138875E+03  0.82890486480E+03  0.10935671064E+04  0.70000000000E+03 0.  1.
         11    1    4    4    0    0 -0.23166889758E+02  0.82038311021E+02  0.30494657278E+02  0.90536806764E+02  0.51100000000E-03 0.  1.
    -200002    1    4    4    0    0  0.11070099357E+03  0.12621277947E+00  0.19382995843E+02  0.11632036122E+03  0.30000000000E+02 0.  1.
    -200000    1    3    3    0    0 -0.10225711611E+03  0.54176864954E+02  0.11843407227E+03  0.52670511671E+03  0.50000000000E+03 0. -1.
<mgrwt>
<rscale>  0 0.15310000E+04</rscale>
<asrwt>0</asrwt>
<pdfrwt beam="1">  1        2 0.20173900E+00 0.15310000E+04</pdfrwt>
<pdfrwt beam="2">  1       -2 0.59279485E-01 0.15310000E+04</pdfrwt>
<totfact> 0.41805388E+01</totfact>
</mgrwt>
</event>
<event>
 8    2  0.2588871E-009  0.1737673E+04  0.7818608E-02  0.8740165E-01
         -2   -1    0    0    0  501 -0.00000000000E+00  0.00000000000E+00  0.57631515073E+03  0.57631515073E+03  0.25500000000E-02 0. -1.
          2   -1    0    0  501    0  0.00000000000E+00 -0.00000000000E+00 -0.13098330513E+04  0.13098330513E+04  0.25500000000E-02 0.  1.
    -200001    2    1    2    0    0  0.13739214776E+03 -0.48469814272E+03 -0.25224130288E+03  0.89850653863E+03  0.69991387560E+03 0.  0.
   -5000001    2    3    3    0    0  0.97268304098E+01 -0.17135185534E+03 -0.24553627703E+02  0.25327324245E+03  0.18463040148E+03 0.  0.
     200001    1    1    2    0    0 -0.13739214776E+03  0.48469814272E+03 -0.48127659772E+03  0.98764166343E+03  0.70000000000E+03 0.  1.
         11    1    4    4    0    0 -0.72825753746E+02 -0.10973865273E+03 -0.53485637342E+02  0.14215089065E+03  0.51100000000E-03 0.  1.
    -200002    1    4    4    0    0  0.82552584156E+02 -0.61613202609E+02  0.28932009639E+02  0.11112235179E+03  0.30000000000E+02 0.  1.
    -200000    1    3    3    0    0  0.12766531735E+03 -0.31334628739E+03 -0.22768767517E+03  0.64523329618E+03  0.50000000000E+03 0. -1.
<mgrwt>
<rscale>  0 0.17376727E+04</rscale>
<asrwt>0</asrwt>
<pdfrwt beam="1">  1        2 0.18711901E+00 0.17376727E+04</pdfrwt>
<pdfrwt beam="2">  1       -2 0.82330736E-01 0.17376727E+04</pdfrwt>
<totfact> 0.22853005E+01</totfact>
</mgrwt>
</event>
<event>
 8    2  0.2588871E-009  0.1550384E+04  0.7818608E-02  0.8851622E-01
          2   -1    0    0  501    0  0.00000000000E+00  0.00000000000E+00  0.39349462828E+03  0.39349462829E+03  0.25500000000E-02 0.  1.
         -2   -1    0    0    0  501 -0.00000000000E+00 -0.00000000000E+00 -0.15271435135E+04  0.15271435135E+04  0.25500000000E-02 0. -1.
    -200001    2    1    2    0    0  0.12332868250E+03  0.67598537323E+02 -0.94253102314E+03  0.11815132786E+04  0.69844783042E+03 0.  0.
   -5000001    2    3    3    0    0  0.81923245329E+02  0.53582916993E+01 -0.33331980285E+03  0.38985263838E+03  0.18477786464E+03 0.  0.
     200001    1    1    2    0    0 -0.12332868250E+03 -0.67598537323E+02 -0.19111786212E+03  0.73912486320E+03  0.70000000000E+03 0.  1.
         11    1    4    4    0    0  0.13359432673E+03 -0.17280633433E+02 -0.18971756833E+03  0.23267750248E+03  0.51100000000E-03 0.  1.
    -200002    1    4    4    0    0 -0.51671081404E+02  0.22638925132E+02 -0.14360223452E+03  0.15717513590E+03  0.30000000000E+02 0.  1.
    -200000    1    3    3    0    0  0.41405437175E+02  0.62240245623E+02 -0.60921122028E+03  0.79166064025E+03  0.50000000000E+03 0. -1.
<mgrwt>
<rscale>  0 0.15503842E+04</rscale>
<asrwt>0</asrwt>
<pdfrwt beam="1">  1        2 0.56213519E-01 0.15503842E+04</pdfrwt>
<pdfrwt beam="2">  1       -2 0.21816336E+00 0.15503842E+04</pdfrwt>
<totfact> 0.86207158E+00</totfact>
</mgrwt>
</event>
<event>
 8    2  0.2588871E-009  0.1901238E+04  0.7818608E-02  0.8654241E-01
          2   -1    0    0  501    0  0.00000000000E+00  0.00000000000E+00  0.20831829632E+04  0.20831829632E+04  0.25500000000E-02 0.  1.
         -2   -1    0    0    0  501 -0.00000000000E+00 -0.00000000000E+00 -0.43379582486E+03  0.43379582487E+03  0.25500000000E-02 0. -1.
    -200001    2    1    2    0    0  0.43585571618E+03  0.62349005999E+02  0.20351609274E+03  0.85132555754E+03  0.69962761598E+03 0.  0.
   -5000001    2    3    3    0    0  0.12157712284E+03  0.17866751375E+02  0.93913104062E+02  0.24902785678E+03  0.19517936555E+03 0.  0.
     200001    1    1    2    0    0 -0.43585571618E+03 -0.62349005999E+02  0.14458710456E+04  0.16656532305E+04  0.70000000000E+03 0.  1.
         11    1    4    4    0    0  0.10373629290E+03 -0.41475735035E+02 -0.22326844983E+02  0.11392955309E+03  0.51100000000E-03 0.  1.
    -200002    1    4    4    0    0  0.17840829947E+02  0.59342486411E+02  0.11623994904E+03  0.13509830369E+03  0.30000000000E+02 0.  1.
    -200000    1    3    3    0    0  0.31427859334E+03  0.44482254623E+02  0.10960298868E+03  0.60229770076E+03  0.50000000000E+03 0. -1.
<mgrwt>
<rscale>  0 0.19012376E+04</rscale>
<asrwt>0</asrwt>
<pdfrwt beam="1">  1        2 0.29759756E+00 0.19012376E+04</pdfrwt>
<pdfrwt beam="2">  1       -2 0.61970833E-01 0.19012376E+04</pdfrwt>
<totfact> 0.16511405E+01</totfact>
</mgrwt>
</event>
<event>
 8    2  0.2588871E-009  0.2040125E+04  0.7818608E-02  0.8588087E-01
          2   -1    0    0  501    0  0.00000000000E+00  0.00000000000E+00  0.81549293579E+03  0.81549293580E+03  0.25500000000E-02 0.  1.
         -2   -1    0    0    0  501 -0.00000000000E+00 -0.00000000000E+00 -0.12759496010E+04  0.12759496010E+04  0.25500000000E-02 0. -1.
    -200001    2    1    2    0    0  0.40370932993E+02  0.49670135760E+03 -0.79347517729E+03  0.11698985171E+04  0.70051240702E+03 0.  0.
   -5000001    2    3    3    0    0 -0.26861440199E+00  0.18843071670E+03 -0.34446993160E+03  0.42943374984E+03  0.17391838480E+03 0.  0.
     200001    1    1    2    0    0 -0.40370932993E+02 -0.49670135760E+03  0.33301851209E+03  0.92154401972E+03  0.70000000000E+03 0.  1.
         11    1    4    4    0    0  0.38197385305E+01  0.16287603865E+03 -0.12219068882E+03  0.20365107121E+03  0.51100000000E-03 0.  1.
    -200002    1    4    4    0    0 -0.40883529325E+01  0.25554678053E+02 -0.22227924278E+03  0.22578267863E+03  0.30000000000E+02 0.  1.
    -200000    1    3    3    0    0  0.40639547395E+02  0.30827064090E+03 -0.44900524569E+03  0.74046476723E+03  0.50000000000E+03 0. -1.
<mgrwt>
<rscale>  0 0.20401254E+04</rscale>
<asrwt>0</asrwt>
<pdfrwt beam="1">  1        2 0.11649899E+00 0.20401254E+04</pdfrwt>
<pdfrwt beam="2">  1       -2 0.18227851E+00 0.20401254E+04</pdfrwt>
<totfact> 0.60248586E+00</totfact>
</mgrwt>
</event>
<event>
 8    2  0.2588871E-009  0.1836804E+04  0.7818608E-02  0.8686969E-01
         -2   -1    0    0    0  501 -0.00000000000E+00  0.00000000000E+00  0.41346018962E+03  0.41346018963E+03  0.25500000000E-02 0. -1.
          2   -1    0    0  501    0  0.00000000000E+00 -0.00000000000E+00 -0.20400074427E+04  0.20400074427E+04  0.25500000000E-02 0.  1.
    -200001    2    1    2    0    0 -0.50925899392E+03  0.17159357298E+03 -0.47145223434E+03  0.99983990162E+03  0.69901612459E+03 0.  0.
   -5000001    2    3    3    0    0 -0.36353914982E+02  0.14908285692E+03 -0.75845954966E+02  0.20570497965E+03  0.11408165674E+03 0.  0.
     200001    1    1    2    0    0  0.50925899392E+03 -0.17159357298E+03 -0.11550950187E+04  0.14536277307E+04  0.70000000000E+03 0.  1.
         11    1    4    4    0    0 -0.21323747738E+02  0.54477649180E+02  0.24815109598E+02  0.63547668269E+02  0.51100000000E-03 0.  1.
    -200002    1    4    4    0    0 -0.15030167243E+02  0.94605207741E+02 -0.10066106456E+03  0.14215731138E+03  0.30000000000E+02 0.  1.
    -200000    1    3    3    0    0 -0.47290507893E+03  0.22510716058E+02 -0.39560627937E+03  0.79413492197E+03  0.50000000000E+03 0. -1.
<mgrwt>
<rscale>  0 0.18368036E+04</rscale>
<asrwt>0</asrwt>
<pdfrwt beam="1">  1        2 0.29142963E+00 0.18368036E+04</pdfrwt>
<pdfrwt beam="2">  1       -2 0.59065742E-01 0.18368036E+04</pdfrwt>
<totfact> 0.19337142E+01</totfact>
</mgrwt>
</event>
<event>
 8    2  0.2588871E-009  0.1795504E+04  0.7818608E-02  0.8708694E-01
          2   -1    0    0  501    0  0.00000000000E+00  0.00000000000E+00  0.44028312360E+03  0.44028312361E+03  0.25500000000E-02 0.  1.
         -2   -1    0    0    0  501 -0.00000000000E+00 -0.00000000000E+00 -0.18305467630E+04  0.18305467630E+04  0.25500000000E-02 0. -1.
    -200001    2    1    2    0    0 -0.44750788256E+03 -0.17526729875E+03 -0.32623856183E+03  0.90953223487E+03  0.69988238732E+03 0.  0.
   -5000001    2    3    3    0    0 -0.18247756519E+02 -0.22596724637E+02 -0.50722335330E+02  0.17913388392E+03  0.16932985704E+03 0.  0.
     200001    1    1    2    0    0  0.44750788256E+03  0.17526729875E+03 -0.10640250776E+04  0.13612976518E+04  0.70000000000E+03 0. -1.
         11    1    4    4    0    0  0.45442798598E+02  0.43642808127E+02  0.11675971542E+02  0.64078631051E+02  0.51100000000E-03 0.  1.
    -200002    1    4    4    0    0 -0.63690555117E+02 -0.66239532764E+02 -0.62398306872E+02  0.11505525287E+03  0.30000000000E+02 0.  1.
    -200000    1    3    3    0    0 -0.42926012604E+03 -0.15267057412E+03 -0.27551622650E+03  0.73039835095E+03  0.50000000000E+03 0.  1.
<mgrwt>
<rscale>  0 0.17955042E+04</rscale>
<asrwt>0</asrwt>
<pdfrwt beam="1">  1        2 0.62897590E-01 0.17955042E+04</pdfrwt>
<pdfrwt beam="2">  1       -2 0.26150668E+00 0.17955042E+04</pdfrwt>
<totfact> 0.40162296E+00</totfact>
</mgrwt>
</event>
<event>
 8    2  0.2588871E-009  0.1497915E+04  0.7818608E-02  0.8885841E-01
          2   -1    0    0  501    0  0.00000000000E+00  0.00000000000E+00  0.35712055919E+03  0.35712055920E+03  0.25500000000E-02 0.  1.
         -2   -1    0    0    0  501 -0.00000000000E+00 -0.00000000000E+00 -0.15707227041E+04  0.15707227041E+04  0.25500000000E-02 0. -1.
    -200001    2    1    2    0    0 -0.54284599529E+02  0.21291045729E+03 -0.80591801336E+03  0.10885077930E+04  0.69790235033E+03 0.  0.
   -5000001    2    3    3    0    0  0.19211235321E+02  0.14552505105E+03 -0.29634439502E+03  0.36766959810E+03  0.16066835676E+03 0.  0.
     200001    1    1    2    0    0  0.54284599529E+02 -0.21291045729E+03 -0.40768413153E+03  0.83933547028E+03  0.70000000000E+03 0.  1.
         11    1    4    4    0    0 -0.34092004608E+02  0.70025107852E+02 -0.28817858342E+02  0.83043660008E+02  0.51100000000E-03 0.  1.
    -200002    1    4    4    0    0  0.53303239930E+02  0.75499943195E+02 -0.26752653668E+03  0.28462593810E+03  0.30000000000E+02 0.  1.
    -200000    1    3    3    0    0 -0.73495834850E+02  0.67385406239E+02 -0.50957361834E+03  0.72083819490E+03  0.50000000000E+03 0.  1.
<mgrwt>
<rscale>  0 0.14979150E+04</rscale>
<asrwt>0</asrwt>
<pdfrwt beam="1">  1        2 0.51017223E-01 0.14979150E+04</pdfrwt>
<pdfrwt beam="2">  1       -2 0.22438895E+00 0.14979150E+04</pdfrwt>
<totfact> 0.88118972E+00</totfact>
</mgrwt>
</event>
<event>
 8    2  0.2588871E-009  0.1455762E+04  0.7818608E-02  0.8914415E-01
         -2   -1    0    0    0  501 -0.00000000000E+00  0.00000000000E+00  0.11140860883E+04  0.11140860883E+04  0.25500000000E-02 0. -1.
          2   -1    0    0  501    0  0.00000000000E+00 -0.00000000000E+00 -0.47555651838E+03  0.47555651839E+03  0.25500000000E-02 0.  1.
    -200001    2    1    2    0    0 -0.19072772316E+02  0.18742437273E+03  0.24566857405E+03  0.76512369955E+03  0.69969247616E+03 0.  0.
   -5000001    2    3    3    0    0 -0.57766446673E+02  0.10307622358E+03  0.10857055063E+03  0.23842864667E+03  0.17634904270E+03 0.  0.
     200001    1    1    2    0    0  0.19072772316E+02 -0.18742437273E+03  0.39286099585E+03  0.82451890712E+03  0.70000000000E+03 0. -1.
         11    1    4    4    0    0  0.43136497991E+02  0.97359931066E+02  0.61530873340E+02  0.12298683674E+03  0.51100000000E-03 0.  1.
    -200002    1    4    4    0    0 -0.10090294466E+03  0.57162925126E+01  0.47039677291E+02  0.11544180994E+03  0.30000000000E+02 0.  1.
    -200000    1    3    3    0    0  0.38693674357E+02  0.84348149149E+02  0.13709802342E+03  0.52669505288E+03  0.50000000000E+03 0.  1.
<mgrwt>
<rscale>  0 0.14557622E+04</rscale>
<asrwt>0</asrwt>
<pdfrwt beam="1">  1        2 0.67936646E-01 0.14557622E+04</pdfrwt>
<pdfrwt beam="2">  1       -2 0.15915515E+00 0.14557622E+04</pdfrwt>
<totfact> 0.17631893E+01</totfact>
</mgrwt>
</event>
<event>
 8    2  0.2588871E-009  0.2284835E+04  0.7818608E-02  0.8483924E-01
          2   -1    0    0  501    0  0.00000000000E+00  0.00000000000E+00  0.50030358369E+03  0.50030358369E+03  0.25500000000E-02 0.  1.
         -2   -1    0    0    0  501 -0.00000000000E+00 -0.00000000000E+00 -0.26086525516E+04  0.26086525516E+04  0.25500000000E-02 0. -1.
    -200001    2    1    2    0    0 -0.21579523518E+02 -0.32382722330E+03 -0.22005518325E+04  0.23318904272E+04  0.69996774977E+03 0.  0.
   -5000001    2    3    3    0    0 -0.85451214652E+02 -0.88920053633E+02 -0.68374607207E+03  0.71635315247E+03  0.17448341455E+03 0.  0.
     200001    1    1    2    0    0  0.21579523518E+02  0.32382722330E+03  0.92202864596E+02  0.77706570805E+03  0.70000000000E+03 0.  1.
         11    1    4    4    0    0  0.38446749795E+02 -0.76340629292E+02 -0.28406912363E+03  0.29665014959E+03  0.51100000000E-03 0.  1.
    -200002    1    4    4    0    0 -0.12389796445E+03 -0.12579424341E+02 -0.39967694844E+03  0.41970300288E+03  0.30000000000E+02 0.  1.
    -200000    1    3    3    0    0  0.63871691133E+02 -0.23490716967E+03 -0.15168057604E+04  0.16155372748E+04  0.50000000000E+03 0. -1.
<mgrwt>
<rscale>  0 0.22848354E+04</rscale>
<asrwt>0</asrwt>
<pdfrwt beam="1">  1        2 0.71471942E-01 0.22848354E+04</pdfrwt>
<pdfrwt beam="2">  1       -2 0.37266464E+00 0.22848354E+04</pdfrwt>
<totfact> 0.68334285E-01</totfact>
</mgrwt>
</event>
<event>
 8    2  0.2588871E-009  0.1519774E+04  0.7818608E-02  0.8871409E-01
         -2   -1    0    0    0  501 -0.00000000000E+00  0.00000000000E+00  0.69209860258E+03  0.69209860258E+03  0.25500000000E-02 0. -1.
          2   -1    0    0  501    0  0.00000000000E+00 -0.00000000000E+00 -0.83431510773E+03  0.83431510774E+03  0.25500000000E-02 0.  1.
    -200001    2    1    2    0    0 -0.23118077628E+03  0.72647581374E+02  0.97734669251E+02  0.74776180574E+03  0.70062360091E+03 0.  0.
   -5000001    2    3    3    0    0  0.32341001445E+01 -0.11334771997E+02  0.13443105945E+03  0.18798506898E+03  0.13087299169E+03 0.  0.
     200001    1    1    2    0    0  0.23118077628E+03 -0.72647581374E+02 -0.23995117441E+03  0.77865190458E+03  0.70000000000E+03 0.  1.
         11    1    4    4    0    0  0.34381049029E+02  0.41007578102E+02  0.24680143548E+02  0.58930361274E+02  0.51100000000E-03 0.  1.
    -200002    1    4    4    0    0 -0.31146948884E+02 -0.52342350099E+02  0.10975091590E+03  0.12905470770E+03  0.30000000000E+02 0.  1.
    -200000    1    3    3    0    0 -0.23441487642E+03  0.83982353371E+02 -0.36696390200E+02  0.55977673676E+03  0.50000000000E+03 0.  1.
<mgrwt>
<rscale>  0 0.15197741E+04</rscale>
<asrwt>0</asrwt>
<pdfrwt beam="1">  1        2 0.11918787E+00 0.15197741E+04</pdfrwt>
<pdfrwt beam="2">  1       -2 0.98871229E-01 0.15197741E+04</pdfrwt>
<totfact> 0.29522507E+01</totfact>
</mgrwt>
</event>
<event>
 8    2  0.2588871E-009  0.2060209E+04  0.7818608E-02  0.8578977E-01
          2   -1    0    0  501    0  0.00000000000E+00  0.00000000000E+00  0.81159889392E+03  0.81159889393E+03  0.25500000000E-02 0.  1.
         -2   -1    0    0    0  501 -0.00000000000E+00 -0.00000000000E+00 -0.13074384152E+04  0.13074384152E+04  0.25500000000E-02 0. -1.
    -200001    2    1    2    0    0  0.14895338538E+03  0.73890387179E+03 -0.30275846933E+03  0.10724015867E+04  0.70015457557E+03 0.  0.
   -5000001    2    3    3    0    0 -0.51482551214E+02  0.15859215594E+03 -0.10185935859E+03  0.25551927884E+03  0.16465979450E+03 0.  0.
     200001    1    1    2    0    0 -0.14895338538E+03 -0.73890387179E+03 -0.19308105193E+03  0.10466357224E+04  0.70000000000E+03 0.  1.
         11    1    4    4    0    0 -0.10038566175E+02  0.16156793452E+03 -0.11961925376E+03  0.20128024281E+03  0.51100000000E-03 0.  1.
    -200002    1    4    4    0    0 -0.41443985038E+02 -0.29757785761E+01  0.17759895167E+02  0.54239036038E+02  0.30000000000E+02 0.  1.
    -200000    1    3    3    0    0  0.20043593659E+03  0.58031171585E+03 -0.20089911074E+03  0.81688230788E+03  0.50000000000E+03 0.  1.
<mgrwt>
<rscale>  0 0.20602093E+04</rscale>
<asrwt>0</asrwt>
<pdfrwt beam="1">  1        2 0.11594270E+00 0.20602093E+04</pdfrwt>
<pdfrwt beam="2">  1       -2 0.18677692E+00 0.20602093E+04</pdfrwt>
<totfact> 0.56400098E+00</totfact>
</mgrwt>
</event>
<event>
 8    2  0.2588871E-009  0.2086785E+04  0.7818608E-02  0.8567087E-01
         -2   -1    0    0    0  501 -0.00000000000E+00  0.00000000000E+00  0.67615916036E+03  0.67615916036E+03  0.25500000000E-02 0. -1.
          2   -1    0    0  501    0  0.00000000000E+00 -0.00000000000E+00 -0.16100758112E+04  0.16100758112E+04  0.25500000000E-02 0.  1.
    -200001    2    1    2    0    0  0.17265503747E+03  0.54665330294E+03  0.10607752695E+03  0.90774758121E+03  0.69578274906E+03 0.  0.
   -5000001    2    3    3    0    0  0.50912698241E+01  0.24245714055E+03  0.90717481326E+02  0.29877397551E+03  0.14907998186E+03 0.  0.
     200001    1    1    2    0    0 -0.17265503747E+03 -0.54665330294E+03 -0.10399941778E+04  0.13784873904E+04  0.70000000000E+03 0.  1.
         11    1    4    4    0    0 -0.24395738822E+02  0.16022569253E+03 -0.96676677750E+01  0.16236036591E+03  0.51100000000E-03 0.  1.
    -200002    1    4    4    0    0  0.29487008646E+02  0.82231448025E+02  0.10038514910E+03  0.13641360960E+03  0.30000000000E+02 0.  1.
    -200000    1    3    3    0    0  0.16756376765E+03  0.30419616238E+03  0.15360045623E+02  0.60897360570E+03  0.50000000000E+03 0.  1.
<mgrwt>
<rscale>  0 0.20867846E+04</rscale>
<asrwt>0</asrwt>
<pdfrwt beam="1">  1        2 0.23001083E+00 0.20867846E+04</pdfrwt>
<pdfrwt beam="2">  1       -2 0.96594166E-01 0.20867846E+04</pdfrwt>
<totfact> 0.10618141E+01</totfact>
</mgrwt>
</event>
<event>
 8    2  0.2588871E-009  0.1832411E+04  0.7818608E-02  0.8689251E-01
         -2   -1    0    0    0  501 -0.00000000000E+00  0.00000000000E+00  0.49390885533E+03  0.49390885534E+03  0.25500000000E-02 0. -1.
          2   -1    0    0  501    0  0.00000000000E+00 -0.00000000000E+00 -0.16995704470E+04  0.16995704470E+04  0.25500000000E-02 0.  1.
    -200001    2    1    2    0    0  0.39586352809E+03  0.31043671281E+03 -0.23139751732E+03  0.89260675974E+03  0.70008794518E+03 0.  0.
   -5000001    2    3    3    0    0  0.74577984473E+02  0.18450136786E+02  0.30958777000E+02  0.18034881048E+03  0.16020288466E+03 0.  0.
     200001    1    1    2    0    0 -0.39586352809E+03 -0.31043671281E+03 -0.97426407434E+03  0.13008725426E+04  0.70000000000E+03 0.  1.
         11    1    4    4    0    0  0.11257924664E+03  0.75203016996E+01 -0.13601070783E+02  0.11364695702E+03  0.51100000000E-03 0.  1.
    -200002    1    4    4    0    0 -0.38001262169E+02  0.10929835087E+02  0.44559847783E+02  0.66701853467E+02  0.30000000000E+02 0.  1.
    -200000    1    3    3    0    0  0.32128554361E+03  0.29198657602E+03 -0.26235629432E+03  0.71225794926E+03  0.50000000000E+03 0.  1.
<mgrwt>
<rscale>  0 0.18324114E+04</rscale>
<asrwt>0</asrwt>
<pdfrwt beam="1">  1        2 0.24279578E+00 0.18324114E+04</pdfrwt>
<pdfrwt beam="2">  1       -2 0.70558409E-01 0.18324114E+04</pdfrwt>
<totfact> 0.19802814E+01</totfact>
</mgrwt>
</event>
<event>
 8    2  0.2588871E-009  0.1571074E+04  0.7818608E-02  0.8838518E-01
         -2   -1    0    0    0  501 -0.00000000000E+00  0.00000000000E+00  0.33868150238E+03  0.33868150239E+03  0.25500000000E-02 0. -1.
          2   -1    0    0  501    0  0.00000000000E+00 -0.00000000000E+00 -0.18219727936E+04  0.18219727936E+04  0.25500000000E-02 0.  1.
    -200001    2    1    2    0    0  0.30928926106E+02  0.18069599148E+03 -0.32179999067E+03  0.79219907895E+03  0.70029744172E+03 0.  0.
   -5000001    2    3    3    0    0 -0.53988077285E+02  0.18585088612E+03 -0.12649061831E+03  0.24870738505E+03  0.91652727709E+02 0.  0.
     200001    1    1    2    0    0 -0.30928926106E+02 -0.18069599148E+03 -0.11614913006E+04  0.13684552171E+04  0.70000000000E+03 0.  1.
         11    1    4    4    0    0 -0.39366250175E+02  0.19105481293E+02 -0.31566302531E+02  0.53955097294E+02  0.51100000000E-03 0.  1.
    -200002    1    4    4    0    0 -0.14621827110E+02  0.16674540483E+03 -0.94924315780E+02  0.19475228776E+03  0.30000000000E+02 0.  1.
    -200000    1    3    3    0    0  0.84917003392E+02 -0.51548946455E+01 -0.19530937236E+03  0.54349169390E+03  0.50000000000E+03 0. -1.
<mgrwt>
<rscale>  0 0.15710741E+04</rscale>
<asrwt>0</asrwt>
<pdfrwt beam="1">  1        2 0.26028182E+00 0.15710741E+04</pdfrwt>
<pdfrwt beam="2">  1       -2 0.48383073E-01 0.15710741E+04</pdfrwt>
<totfact> 0.38615170E+01</totfact>
</mgrwt>
</event>
<event>
 8    2  0.2588871E-009  0.1780784E+04  0.7818608E-02  0.8716586E-01
          2   -1    0    0  501    0  0.00000000000E+00  0.00000000000E+00  0.25501116501E+04  0.25501116501E+04  0.25500000000E-02 0.  1.
         -2   -1    0    0    0  501 -0.00000000000E+00 -0.00000000000E+00 -0.31088742593E+03  0.31088742594E+03  0.25500000000E-02 0. -1.
    -200001    2    1    2    0    0 -0.13753578593E+02 -0.52393049830E+03  0.13896853903E+04  0.16418155138E+04  0.69974307404E+03 0.  0.
   -5000001    2    3    3    0    0  0.17710572839E+02 -0.11762157818E+03  0.30365594810E+03  0.37866988463E+03  0.19244595778E+03 0.  0.
     200001    1    1    2    0    0  0.13753578593E+02  0.52393049830E+03  0.84953883390E+03  0.12191835622E+04  0.70000000000E+03 0. -1.
         11    1    4    4    0    0 -0.53129423656E+02 -0.81533493110E+02  0.27047065071E+03  0.28744533229E+03  0.51100000000E-03 0.  1.
    -200002    1    4    4    0    0  0.70839996496E+02 -0.36088085068E+02  0.33185297389E+02  0.91224552343E+02  0.30000000000E+02 0.  1.
    -200000    1    3    3    0    0 -0.31464151432E+02 -0.40630892012E+03  0.10860294422E+04  0.12631456292E+04  0.50000000000E+03 0. -1.
<mgrwt>
<rscale>  0 0.17807837E+04</rscale>
<asrwt>0</asrwt>
<pdfrwt beam="1">  1        2 0.36430168E+00 0.17807837E+04</pdfrwt>
<pdfrwt beam="2">  1       -2 0.44412487E-01 0.17807837E+04</pdfrwt>
<totfact> 0.18913772E+01</totfact>
</mgrwt>
</event>
<event>
 8    2  0.2588871E-009  0.1757417E+04  0.7818608E-02  0.8729278E-01
          2   -1    0    0  501    0  0.00000000000E+00  0.00000000000E+00  0.42775426102E+04  0.42775426102E+04  0.25500000000E-02 0.  1.
         -2   -1    0    0    0  501 -0.00000000000E+00 -0.00000000000E+00 -0.18050761412E+03  0.18050761414E+03  0.25500000000E-02 0. -1.
    -200001    2    1    2    0    0  0.10639936738E+03  0.32130270553E+03  0.10090696688E+04  0.12737000368E+04  0.69966701614E+03 0.  0.
   -5000001    2    3    3    0    0  0.39892531423E+01  0.79137767292E+02  0.41203493867E+03  0.45176198702E+03  0.16744372750E+03 0.  0.
     200001    1    1    2    0    0 -0.10639936738E+03 -0.32130270553E+03  0.30879653273E+04  0.31843501875E+04  0.70000000000E+03 0.  1.
         11    1    4    4    0    0 -0.27623830963E+02  0.28384548269E+02  0.57695009827E+01  0.40025563823E+02  0.51100000000E-03 0.  1.
    -200002    1    4    4    0    0  0.31613084105E+02  0.50753219024E+02  0.40626543769E+03  0.41173642320E+03  0.30000000000E+02 0.  1.
    -200000    1    3    3    0    0  0.10241011423E+03  0.24216493823E+03  0.59703473009E+03  0.82193804982E+03  0.50000000000E+03 0. -1.
<mgrwt>
<rscale>  0 0.17574174E+04</rscale>
<asrwt>0</asrwt>
<pdfrwt beam="1">  1        2 0.61107743E+00 0.17574174E+04</pdfrwt>
<pdfrwt beam="2">  1       -2 0.25786806E-01 0.17574174E+04</pdfrwt>
<totfact> 0.47088111E+00</totfact>
</mgrwt>
</event>
<event>
 8    2  0.2588871E-009  0.2035261E+04  0.7818608E-02  0.8590310E-01
         -2   -1    0    0    0  501 -0.00000000000E+00  0.00000000000E+00  0.62937295511E+03  0.62937295511E+03  0.25500000000E-02 0. -1.
          2   -1    0    0  501    0  0.00000000000E+00 -0.00000000000E+00 -0.16454021990E+04  0.16454021990E+04  0.25500000000E-02 0.  1.
    -200001    2    1    2    0    0  0.71984524354E+03 -0.16346800414E+03 -0.51990637646E+03  0.11429461641E+04  0.70080263327E+03 0.  0.
   -5000001    2    3    3    0    0  0.20286691441E+03 -0.35766881444E+02 -0.17599770951E+03  0.33557553008E+03  0.19799365613E+03 0.  0.
     200001    1    1    2    0    0 -0.71984524354E+03  0.16346800414E+03 -0.49612286746E+03  0.11318289900E+04  0.70000000000E+03 0. -1.
         11    1    4    4    0    0 -0.25952770407E+02 -0.41025874237E+02 -0.60408940881E+01  0.48919945323E+02  0.51100000000E-03 0.  1.
    -200002    1    4    4    0    0  0.22881968482E+03  0.52589927934E+01 -0.16995681542E+03  0.28665558476E+03  0.30000000000E+02 0.  1.
    -200000    1    3    3    0    0  0.51697832913E+03 -0.12770112269E+03 -0.34390866695E+03  0.80737063405E+03  0.50000000000E+03 0. -1.
<mgrwt>
<rscale>  0 0.20352608E+04</rscale>
<asrwt>0</asrwt>
<pdfrwt beam="1">  1        2 0.23505746E+00 0.20352608E+04</pdfrwt>
<pdfrwt beam="2">  1       -2 0.89910423E-01 0.20352608E+04</pdfrwt>
<totfact> 0.12070439E+01</totfact>
</mgrwt>
</event>
<event>
 8    2  0.2588871E-009  0.1498457E+04  0.7818608E-02  0.8885480E-01
         -2   -1    0    0    0  501 -0.00000000000E+00  0.00000000000E+00  0.35474773662E+03  0.35474773663E+03  0.25500000000E-02 0.  1.
          2   -1    0    0  501    0  0.00000000000E+00 -0.00000000000E+00 -0.15823724174E+04  0.15823724174E+04  0.25500000000E-02 0. -1.
    -200001    2    1    2    0    0 -0.10948228001E+03  0.68961117616E+02 -0.91644326862E+03  0.11602186952E+04  0.69964072980E+03 0.  0.
   -5000001    2    3    3    0    0 -0.71419076625E+00 -0.10149280977E+02 -0.13113112065E+03  0.21957842278E+03  0.17582887981E+03 0.  0.
     200001    1    1    2    0    0  0.10948228001E+03 -0.68961117616E+02 -0.31118141212E+03  0.77690145876E+03  0.70000000000E+03 0.  1.
         11    1    4    4    0    0  0.64297629188E+02 -0.54555005589E+02 -0.33795374718E+02  0.90843607957E+02  0.51100000000E-03 0.  1.
    -200002    1    4    4    0    0 -0.65011819955E+02  0.44405724613E+02 -0.97335745930E+02  0.12873481482E+03  0.30000000000E+02 0.  1.
    -200000    1    3    3    0    0 -0.10876808924E+03  0.79110398593E+02 -0.78531214798E+03  0.94064027245E+03  0.50000000000E+03 0. -1.
<mgrwt>
<rscale>  0 0.14984566E+04</rscale>
<asrwt>0</asrwt>
<pdfrwt beam="1">  1        2 0.22605320E+00 0.14984566E+04</pdfrwt>
<pdfrwt beam="2">  1       -2 0.50678249E-01 0.14984566E+04</pdfrwt>
<totfact> 0.47087220E+01</totfact>
</mgrwt>
</event>
<event>
 8    2  0.2588871E-009  0.1763838E+04  0.7818608E-02  0.8725770E-01
         -2   -1    0    0    0  501 -0.00000000000E+00  0.00000000000E+00  0.30206984184E+03  0.30206984185E+03  0.25500000000E-02 0. -1.
          2   -1    0    0  501    0  0.00000000000E+00 -0.00000000000E+00 -0.25748393396E+04  0.25748393396E+04  0.25500000000E-02 0.  1.
    -200001    2    1    2    0    0 -0.47818347456E+03  0.22463624027E+03 -0.98623772106E+03  0.13198976567E+04  0.70024574681E+03 0.  0.
   -5000001    2    3    3    0    0 -0.12218534958E+03  0.96220235867E+02 -0.17215116903E+03  0.29229741858E+03  0.17780371894E+03 0.  0.
     200001    1    1    2    0    0  0.47818347456E+03 -0.22463624027E+03 -0.12865317767E+04  0.15570115248E+04  0.70000000000E+03 0. -1.
         11    1    4    4    0    0 -0.53387094071E+02 -0.48815362414E+02 -0.43576208708E+02  0.84451213055E+02  0.51100000000E-03 0.  1.
    -200002    1    4    4    0    0 -0.68798255505E+02  0.14503559828E+03 -0.12857496032E+03  0.20784620552E+03  0.30000000000E+02 0.  1.
    -200000    1    3    3    0    0 -0.35599812499E+03  0.12841600440E+03 -0.81408655203E+03  0.10276002381E+04  0.50000000000E+03 0.  1.
<mgrwt>
<rscale>  0 0.17638382E+04</rscale>
<asrwt>0</asrwt>
<pdfrwt beam="1">  1        2 0.36783418E+00 0.17638382E+04</pdfrwt>
<pdfrwt beam="2">  1       -2 0.43152836E-01 0.17638382E+04</pdfrwt>
<totfact> 0.19459917E+01</totfact>
</mgrwt>
</event>
<event>
 8    2  0.2588871E-009  0.1551868E+04  0.7818608E-02  0.8850676E-01
          2   -1    0    0  501    0  0.00000000000E+00  0.00000000000E+00  0.79357157737E+03  0.79357157737E+03  0.25500000000E-02 0.  1.
         -2   -1    0    0    0  501 -0.00000000000E+00 -0.00000000000E+00 -0.75868798773E+03  0.75868798773E+03  0.25500000000E-02 0. -1.
    -200001    2    1    2    0    0  0.16286919969E+03  0.13492612045E+02  0.31003888192E+03  0.78257205601E+03  0.69970457177E+03 0.  0.
   -5000001    2    3    3    0    0  0.86614324676E+01  0.12702707244E+03  0.80040838878E+02  0.19984638387E+03  0.13160981618E+03 0.  0.
     200001    1    1    2    0    0 -0.16286919969E+03 -0.13492612045E+02 -0.27515529227E+03  0.76968750909E+03  0.70000000000E+03 0. -1.
         11    1    4    4    0    0  0.46103790799E+02  0.32217090674E+02 -0.13987777079E+02  0.57958246741E+02  0.51100000000E-03 0.  1.
    -200002    1    4    4    0    0 -0.37442358331E+02  0.94809981764E+02  0.94028615957E+02  0.14188813713E+03  0.30000000000E+02 0.  1.
    -200000    1    3    3    0    0  0.15420776722E+03 -0.11353446039E+03  0.22999804304E+03  0.58272567214E+03  0.50000000000E+03 0.  1.
<mgrwt>
<rscale>  0 0.15518675E+04</rscale>
<asrwt>0</asrwt>
<pdfrwt beam="1">  1        2 0.11336737E+00 0.15518675E+04</pdfrwt>
<pdfrwt beam="2">  1       -2 0.10838400E+00 0.15518675E+04</pdfrwt>
<totfact> 0.25231504E+01</totfact>
</mgrwt>
</event>
<event>
 8    2  0.2588871E-009  0.1583962E+04  0.7818608E-02  0.8830462E-01
          2   -1    0    0  501    0  0.00000000000E+00  0.00000000000E+00  0.15561223653E+04  0.15561223653E+04  0.25500000000E-02 0.  1.
         -2   -1    0    0    0  501 -0.00000000000E+00 -0.00000000000E+00 -0.40307509712E+03  0.40307509713E+03  0.25500000000E-02 0. -1.
    -200001    2    1    2    0    0  0.17135495920E+03  0.33381605952E+03  0.55565314815E+03  0.96537885811E+03  0.69455758221E+03 0.  0.
   -5000001    2    3    3    0    0  0.14029220460E+03  0.16308592308E+03  0.18999090815E+03  0.32208845093E+03  0.14616943615E+03 0.  0.
     200001    1    1    2    0    0 -0.17135495920E+03 -0.33381605952E+03  0.59739412003E+03  0.99381860432E+03  0.70000000000E+03 0. -1.
         11    1    4    4    0    0  0.25182103802E+02  0.77510968061E+01  0.10590579078E+03  0.10913411188E+03  0.51100000000E-03 0.  1.
    -200002    1    4    4    0    0  0.11511010080E+03  0.15533482627E+03  0.84085117371E+02  0.21295433905E+03  0.30000000000E+02 0.  1.
    -200000    1    3    3    0    0  0.31062754606E+02  0.17073013644E+03  0.36566224000E+03  0.64329040718E+03  0.50000000000E+03 0.  1.
<mgrwt>
<rscale>  0 0.15839623E+04</rscale>
<asrwt>0</asrwt>
<pdfrwt beam="1">  1        2 0.22230319E+00 0.15839623E+04</pdfrwt>
<pdfrwt beam="2">  1       -2 0.57582157E-01 0.15839623E+04</pdfrwt>
<totfact> 0.37081189E+01</totfact>
</mgrwt>
</event>
<event>
 8    2  0.2588871E-009  0.1979312E+04  0.7818608E-02  0.8616354E-01
         -2   -1    0    0    0  501 -0.00000000000E+00  0.00000000000E+00  0.81294218404E+03  0.81294218404E+03  0.25500000000E-02 0. -1.
          2   -1    0    0  501    0  0.00000000000E+00 -0.00000000000E+00 -0.12047832055E+04  0.12047832055E+04  0.25500000000E-02 0.  1.
    -200001    2    1    2    0    0  0.41796307870E+03  0.32142772153E+03 -0.66430642678E+03  0.10999856049E+04  0.70046869089E+03 0.  0.
   -5000001    2    3    3    0    0  0.39636885975E+02  0.64558425544E+02 -0.22682576334E+03  0.29344864091E+03  0.17006853002E+03 0.  0.
     200001    1    1    2    0    0 -0.41796307870E+03 -0.32142772153E+03  0.27246540530E+03  0.91773978469E+03  0.70000000000E+03 0. -1.
         11    1    4    4    0    0 -0.52461272259E+02  0.71321882640E+02 -0.97030650651E+02  0.13135426600E+03  0.51100000000E-03 0.  1.
    -200002    1    4    4    0    0  0.92098158234E+02 -0.67634570960E+01 -0.12979511268E+03  0.16209437491E+03  0.30000000000E+02 0.  1.
    -200000    1    3    3    0    0  0.37832619272E+03  0.25686929599E+03 -0.43748066344E+03  0.80653696394E+03  0.50000000000E+03 0.  1.
<mgrwt>
<rscale>  0 0.19793121E+04</rscale>
<asrwt>0</asrwt>
<pdfrwt beam="1">  1        2 0.17211189E+00 0.19793121E+04</pdfrwt>
<pdfrwt beam="2">  1       -2 0.11613460E+00 0.19793121E+04</pdfrwt>
<totfact> 0.11423175E+01</totfact>
</mgrwt>
</event>
<event>
 8    2  0.2588871E-009  0.1567419E+04  0.7818608E-02  0.8840818E-01
         -2   -1    0    0    0  501 -0.00000000000E+00  0.00000000000E+00  0.40317328007E+03  0.40317328008E+03  0.25500000000E-02 0. -1.
          2   -1    0    0  501    0  0.00000000000E+00 -0.00000000000E+00 -0.15234160250E+04  0.15234160250E+04  0.25500000000E-02 0.  1.
    -200001    2    1    2    0    0 -0.10771860537E+03 -0.33530591497E+03 -0.54143906433E+03  0.95239884362E+03  0.69990995307E+03 0.  0.
   -5000001    2    3    3    0    0  0.17004925293E+02 -0.89424670569E+02 -0.98024505019E+02  0.22946729994E+03  0.18644167712E+03 0.  0.
     200001    1    1    2    0    0  0.10771860537E+03  0.33530591497E+03 -0.57880368063E+03  0.97419046149E+03  0.70000000000E+03 0. -1.
         11    1    4    4    0    0  0.57133000859E+02  0.17617637623E+02  0.19407034032E+02  0.62858522992E+02  0.51100000000E-03 0.  1.
    -200002    1    4    4    0    0 -0.40128075566E+02 -0.10704230819E+03 -0.11743153905E+03  0.16660877695E+03  0.30000000000E+02 0.  1.
    -200000    1    3    3    0    0 -0.12472353066E+03 -0.24588124440E+03 -0.44341455931E+03  0.72293154368E+03  0.50000000000E+03 0.  1.
<mgrwt>
<rscale>  0 0.15674191E+04</rscale>
<asrwt>0</asrwt>
<pdfrwt beam="1">  1        2 0.21763086E+00 0.15674191E+04</pdfrwt>
<pdfrwt beam="2">  1       -2 0.57596183E-01 0.15674191E+04</pdfrwt>
<totfact> 0.38617848E+01</totfact>
</mgrwt>
</event>
<event>
 8    2  0.2588871E-009  0.1581207E+04  0.7818608E-02  0.8832177E-01
          2   -1    0    0  501    0  0.00000000000E+00  0.00000000000E+00  0.16788161933E+04  0.16788161933E+04  0.25500000000E-02 0.  1.
         -2   -1    0    0    0  501 -0.00000000000E+00 -0.00000000000E+00 -0.37231801020E+03  0.37231801020E+03  0.25500000000E-02 0. -1.
    -200001    2    1    2    0    0  0.19572633158E+02  0.36898559754E+02  0.11262642080E+04  0.13270976868E+04  0.70069437877E+03 0.  0.
   -5000001    2    3    3    0    0  0.23299843297E+02  0.10430028430E+03  0.15825823147E+03  0.23549681874E+03  0.13781020212E+03 0.  0.
     200001    1    1    2    0    0 -0.19572633158E+02 -0.36898559754E+02  0.18023397506E+03  0.72403651665E+03  0.70000000000E+03 0. -1.
         11    1    4    4    0    0  0.56255135521E+02  0.11544624409E+03  0.11855524649E+03  0.17477935238E+03  0.51100000000E-03 0.  1.
    -200002    1    4    4    0    0 -0.32955292223E+02 -0.11145959798E+02  0.39702984973E+02  0.60717466359E+02  0.30000000000E+02 0.  1.
    -200000    1    3    3    0    0 -0.37272101399E+01 -0.67401724541E+02  0.96800597657E+03  0.10916008681E+04  0.50000000000E+03 0.  1.
<mgrwt>
<rscale>  0 0.15812065E+04</rscale>
<asrwt>0</asrwt>
<pdfrwt beam="1">  1        2 0.23983089E+00 0.15812065E+04</pdfrwt>
<pdfrwt beam="2">  1       -2 0.53188287E-01 0.15812065E+04</pdfrwt>
<totfact> 0.37721168E+01</totfact>
</mgrwt>
</event>
<event>
 8    2  0.2588871E-009  0.1775614E+04  0.7818608E-02  0.8719376E-01
          2   -1    0    0  501    0  0.00000000000E+00  0.00000000000E+00  0.48557582126E+04  0.48557582126E+04  0.25500000000E-02 0.  1.
         -2   -1    0    0    0  501 -0.00000000000E+00 -0.00000000000E+00 -0.16232293437E+03  0.16232293439E+03  0.25500000000E-02 0. -1.
    -200001    2    1    2    0    0  0.13941706060E+03  0.27548108260E+03  0.10742266962E+04  0.13188923570E+04  0.70013363790E+03 0.  0.
   -5000001    2    3    3    0    0  0.88185923286E+01  0.47400235508E+02  0.36468269075E+03  0.41195822027E+03  0.18544961693E+03 0.  0.
     200001    1    1    2    0    0 -0.13941706060E+03 -0.27548108260E+03  0.36192085821E+04  0.36991887900E+04  0.70000000000E+03 0.  1.
         11    1    4    4    0    0  0.62681163932E+02  0.81806940796E+01  0.32027062619E+03  0.32644927028E+03  0.51100000000E-03 0.  1.
    -200002    1    4    4    0    0 -0.53862571604E+02  0.39219541428E+02  0.44412064554E+02  0.85508949985E+02  0.30000000000E+02 0.  1.
    -200000    1    3    3    0    0  0.13059846827E+03  0.22808084709E+03  0.70954400544E+03  0.90693413674E+03  0.50000000000E+03 0. -1.
<mgrwt>
<rscale>  0 0.17756136E+04</rscale>
<asrwt>0</asrwt>
<pdfrwt beam="1">  1        2 0.69367981E+00 0.17756136E+04</pdfrwt>
<pdfrwt beam="2">  1       -2 0.23188988E-01 0.17756136E+04</pdfrwt>
<totfact> 0.19235608E+00</totfact>
</mgrwt>
</event>
<event>
 8    2  0.2588871E-009  0.2162743E+04  0.7818608E-02  0.8534097E-01
         -2   -1    0    0    0  501 -0.00000000000E+00  0.00000000000E+00  0.76506903951E+03  0.76506903952E+03  0.25500000000E-02 0. -1.
          2   -1    0    0  501    0  0.00000000000E+00 -0.00000000000E+00 -0.15284424627E+04  0.15284424627E+04  0.25500000000E-02 0.  1.
    -200001    2    1    2    0    0  0.75519468581E+03 -0.32904646310E+03 -0.35771277687E+03  0.11388898550E+04  0.70037210300E+03 0.  0.
   -5000001    2    3    3    0    0  0.19703135420E+03 -0.16276973677E+03 -0.10436606994E+03  0.33057134820E+03  0.18185103231E+03 0.  0.
     200001    1    1    2    0    0 -0.75519468581E+03  0.32904646310E+03 -0.40566064634E+03  0.11546216473E+04  0.70000000000E+03 0.  1.
         11    1    4    4    0    0  0.93002659792E+02 -0.68855732756E+01  0.30073378847E+02  0.97986294772E+02  0.51100000000E-03 0.  1.
    -200002    1    4    4    0    0  0.10402869441E+03 -0.15588416349E+03 -0.13443944879E+03  0.23258505343E+03  0.30000000000E+02 0.  1.
    -200000    1    3    3    0    0  0.55816333161E+03 -0.16627672634E+03 -0.25334670693E+03  0.80831850677E+03  0.50000000000E+03 0. -1.
<mgrwt>
<rscale>  0 0.21627427E+04</rscale>
<asrwt>0</asrwt>
<pdfrwt beam="1">  1        2 0.21834892E+00 0.21627427E+04</pdfrwt>
<pdfrwt beam="2">  1       -2 0.10929558E+00 0.21627427E+04</pdfrwt>
<totfact> 0.86797414E+00</totfact>
</mgrwt>
</event>
<event>
 8    2  0.2588871E-009  0.1599573E+04  0.7818608E-02  0.8820810E-01
          2   -1    0    0  501    0  0.00000000000E+00  0.00000000000E+00  0.12109183958E+04  0.12109183958E+04  0.25500000000E-02 0.  1.
         -2   -1    0    0    0  501 -0.00000000000E+00 -0.00000000000E+00 -0.52824262377E+03  0.52824262378E+03  0.25500000000E-02 0. -1.
    -200001    2    1    2    0    0  0.36403814039E+03  0.83910225425E+02  0.44958964118E+03  0.91218227866E+03  0.70027206889E+03 0.  0.
   -5000001    2    3    3    0    0 -0.13633511723E+02  0.11914949923E+03  0.71289113973E+02  0.17938696474E+03  0.11276111714E+03 0.  0.
     200001    1    1    2    0    0 -0.36403814039E+03 -0.83910225425E+02  0.23308613089E+03  0.82697874096E+03  0.70000000000E+03 0.  1.
         11    1    4    4    0    0 -0.49061970672E+02  0.65846522973E+02  0.46570149729E+01  0.82246758857E+02  0.51100000000E-03 0.  1.
    -200002    1    4    4    0    0  0.35428458949E+02  0.53302976258E+02  0.66632099000E+02  0.97140205881E+02  0.30000000000E+02 0.  1.
    -200000    1    3    3    0    0  0.37767165211E+03 -0.35239273806E+02  0.37830052720E+03  0.73279531393E+03  0.50000000000E+03 0. -1.
<mgrwt>
<rscale>  0 0.15995733E+04</rscale>
<asrwt>0</asrwt>
<pdfrwt beam="1">  1        2 0.17298834E+00 0.15995733E+04</pdfrwt>
<pdfrwt beam="2">  1       -2 0.75463231E-01 0.15995733E+04</pdfrwt>
<totfact> 0.31894548E+01</totfact>
</mgrwt>
</event>
<event>
 8    2  0.2588871E-009  0.1739945E+04  0.7818608E-02  0.8738904E-01
          2   -1    0    0  501    0  0.00000000000E+00  0.00000000000E+00  0.19872541023E+04  0.19872541023E+04  0.25500000000E-02 0.  1.
         -2   -1    0    0    0  501 -0.00000000000E+00 -0.00000000000E+00 -0.38085333612E+03  0.38085333613E+03  0.25500000000E-02 0. -1.
    -200001    2    1    2    0    0  0.39954037633E+03 -0.10656171076E+03  0.38211638298E+03  0.89846116756E+03  0.70016542970E+03 0.  0.
   -5000001    2    3    3    0    0  0.65859245382E+02 -0.27156999258E+02  0.14651909118E+03  0.24795806283E+03  0.18692355130E+03 0.  0.
     200001    1    1    2    0    0 -0.39954037633E+03  0.10656171076E+03  0.12242843832E+04  0.14696462709E+04  0.70000000000E+03 0.  1.
         11    1    4    4    0    0 -0.20627021992E+01 -0.19980293380E+02  0.16888797728E+03  0.17007826355E+03  0.51100000000E-03 0.  1.
    -200002    1    4    4    0    0  0.67921947581E+02 -0.71767058778E+01 -0.22368886098E+02  0.77879799279E+02  0.30000000000E+02 0.  1.
    -200000    1    3    3    0    0  0.33368113095E+03 -0.79404711505E+02  0.23559729180E+03  0.65050310473E+03  0.50000000000E+03 0. -1.
<mgrwt>
<rscale>  0 0.17399452E+04</rscale>
<asrwt>0</asrwt>
<pdfrwt beam="1">  1        2 0.28389344E+00 0.17399452E+04</pdfrwt>
<pdfrwt beam="2">  1       -2 0.54407619E-01 0.17399452E+04</pdfrwt>
<totfact> 0.24629549E+01</totfact>
</mgrwt>
</event>
<event>
 8    2  0.2588871E-009  0.1609804E+04  0.7818608E-02  0.8814547E-01
         -2   -1    0    0    0  501 -0.00000000000E+00  0.00000000000E+00  0.19542414060E+03  0.19542414062E+03  0.25500000000E-02 0. -1.
          2   -1    0    0  501    0  0.00000000000E+00 -0.00000000000E+00 -0.33151860146E+04  0.33151860146E+04  0.25500000000E-02 0.  1.
    -200001    2    1    2    0    0  0.21759128248E+03  0.12762112148E+02 -0.22837725053E+04  0.23986807230E+04  0.70038811887E+03 0.  0.
   -5000001    2    3    3    0    0  0.26095280697E+02 -0.42565708877E+02 -0.75138639406E+03  0.77450737003E+03  0.18107277487E+03 0.  0.
     200001    1    1    2    0    0 -0.21759128248E+03 -0.12762112148E+02 -0.83598936868E+03  0.11119294322E+04  0.70000000000E+03 0. -1.
         11    1    4    4    0    0  0.94694401174E+02 -0.63964214372E+01 -0.27496913256E+03  0.29088823916E+03  0.51100000000E-03 0.  1.
    -200002    1    4    4    0    0 -0.68599120478E+02 -0.36169287440E+02 -0.47641726150E+03  0.48361913087E+03  0.30000000000E+02 0.  1.
    -200000    1    3    3    0    0  0.19149600178E+03  0.55327821026E+02 -0.15323861113E+04  0.16241733530E+04  0.50000000000E+03 0.  1.
<mgrwt>
<rscale>  0 0.16098042E+04</rscale>
<asrwt>0</asrwt>
<pdfrwt beam="1">  1        2 0.47359797E+00 0.16098042E+04</pdfrwt>
<pdfrwt beam="2">  1       -2 0.27917736E-01 0.16098042E+04</pdfrwt>
<totfact> 0.17588111E+01</totfact>
</mgrwt>
</event>
<event>
 8    2  0.2588871E-009  0.1495449E+04  0.7818608E-02  0.8887485E-01
          2   -1    0    0  501    0  0.00000000000E+00  0.00000000000E+00  0.12798602983E+04  0.12798602983E+04  0.25500000000E-02 0.  1.
         -2   -1    0    0    0  501 -0.00000000000E+00 -0.00000000000E+00 -0.43683848609E+03  0.43683848610E+03  0.25500000000E-02 0. -1.
    -200001    2    1    2    0    0  0.43682548832E+02  0.21438001455E+03  0.58916059255E+03  0.94061085476E+03  0.69983685282E+03 0.  0.
   -5000001    2    3    3    0    0  0.27998478325E+02  0.51654011807E+02  0.22511940184E+03  0.30088299811E+03  0.19078726829E+03 0.  0.
     200001    1    1    2    0    0 -0.43682548832E+02 -0.21438001455E+03  0.25386121969E+03  0.77608792966E+03  0.70000000000E+03 0. -1.
         11    1    4    4    0    0 -0.65489797419E+02  0.67510222947E+02  0.72664872872E+02  0.11885591074E+03  0.51100000000E-03 0.  1.
    -200002    1    4    4    0    0  0.93488275745E+02 -0.15856211140E+02  0.15245452897E+03  0.18202708737E+03  0.30000000000E+02 0.  1.
    -200000    1    3    3    0    0  0.15684070507E+02  0.16272600274E+03  0.36404119071E+03  0.63972785664E+03  0.50000000000E+03 0. -1.
<mgrwt>
<rscale>  0 0.14954494E+04</rscale>
<asrwt>0</asrwt>
<pdfrwt beam="1">  1        2 0.18283719E+00 0.14954494E+04</pdfrwt>
<pdfrwt beam="2">  1       -2 0.62405498E-01 0.14954494E+04</pdfrwt>
<totfact> 0.44428708E+01</totfact>
</mgrwt>
</event>
<event>
 8    2  0.2588871E-009  0.1713700E+04  0.7818608E-02  0.8753589E-01
          2   -1    0    0  501    0  0.00000000000E+00  0.00000000000E+00  0.18466659795E+04  0.18466659795E+04  0.25500000000E-02 0.  1.
         -2   -1    0    0    0  501 -0.00000000000E+00 -0.00000000000E+00 -0.39757703861E+03  0.39757703861E+03  0.25500000000E-02 0. -1.
    -200001    2    1    2    0    0  0.30709596734E+03  0.12470871160E+02  0.12314887782E+04  0.14493761824E+04  0.69975942401E+03 0.  0.
   -5000001    2    3    3    0    0  0.21857190512E+02  0.25590246560E+02  0.41174321763E+03  0.44761969408E+03  0.17233199287E+03 0.  0.
     200001    1    1    2    0    0 -0.30709596734E+03 -0.12470871160E+02  0.21760016275E+03  0.79486683577E+03  0.70000000000E+03 0. -1.
         11    1    4    4    0    0  0.31454969878E+01 -0.71850468344E+02  0.17110619102E+03  0.18560633760E+03  0.51100000000E-03 0.  1.
    -200002    1    4    4    0    0  0.18711693524E+02  0.97440714904E+02  0.24063702662E+03  0.26201335648E+03  0.30000000000E+02 0.  1.
    -200000    1    3    3    0    0  0.28523877683E+03 -0.13119375400E+02  0.81974556054E+03  0.10017564883E+04  0.50000000000E+03 0.  1.
<mgrwt>
<rscale>  0 0.17137001E+04</rscale>
<asrwt>0</asrwt>
<pdfrwt beam="1">  1        2 0.26380942E+00 0.17137001E+04</pdfrwt>
<pdfrwt beam="2">  1       -2 0.56796721E-01 0.17137001E+04</pdfrwt>
<totfact> 0.26664666E+01</totfact>
</mgrwt>
</event>
<event>
 8    2  0.2588871E-009  0.1814672E+04  0.7818608E-02  0.8698536E-01
          2   -1    0    0  501    0  0.00000000000E+00  0.00000000000E+00  0.27292989628E+04  0.27292989628E+04  0.25500000000E-02 0.  1.
         -2   -1    0    0    0  501 -0.00000000000E+00 -0.00000000000E+00 -0.30163724481E+03  0.30163724482E+03  0.25500000000E-02 0. -1.
    -200001    2    1    2    0    0  0.28431979300E+03  0.14148284170E+03  0.20196704268E+04  0.21606994393E+04  0.69906959237E+03 0.  0.
   -5000001    2    3    3    0    0  0.15534658730E+03  0.59753160899E+02  0.86200173576E+03  0.89045905785E+03  0.14888700016E+03 0.  0.
     200001    1    1    2    0    0 -0.28431979300E+03 -0.14148284170E+03  0.40799129115E+03  0.87023676826E+03  0.70000000000E+03 0. -1.
         11    1    4    4    0    0  0.86076352280E+02  0.96347067430E+02  0.64487965634E+03  0.65769420477E+03  0.51100000000E-03 0.  1.
    -200002    1    4    4    0    0  0.69270235019E+02 -0.36593906531E+02  0.21712207942E+03  0.23276485308E+03  0.30000000000E+02 0.  1.
    -200000    1    3    3    0    0  0.12897320570E+03  0.81729680798E+02  0.11576686911E+04  0.12702403815E+04  0.50000000000E+03 0.  1.
<mgrwt>
<rscale>  0 0.18146716E+04</rscale>
<asrwt>0</asrwt>
<pdfrwt beam="1">  1        2 0.38989986E+00 0.18146716E+04</pdfrwt>
<pdfrwt beam="2">  1       -2 0.43091034E-01 0.18146716E+04</pdfrwt>
<totfact> 0.16068269E+01</totfact>
</mgrwt>
</event>
<event>
 8    2  0.2588871E-009  0.1436966E+04  0.7818608E-02  0.8927487E-01
          2   -1    0    0  501    0  0.00000000000E+00  0.00000000000E+00  0.93474035422E+03  0.93474035422E+03  0.25500000000E-02 0.  1.
         -2   -1    0    0    0  501 -0.00000000000E+00 -0.00000000000E+00 -0.55225791174E+03  0.55225791175E+03  0.25500000000E-02 0. -1.
    -200001    2    1    2    0    0  0.59749022144E+02  0.13988357475E+03  0.13336634318E+03  0.72858136804E+03  0.69993347415E+03 0.  0.
   -5000001    2    3    3    0    0 -0.57929485331E+02  0.64807683865E+02  0.11344990675E+03  0.20908037194E+03  0.15260360228E+03 0.  0.
     200001    1    1    2    0    0 -0.59749022144E+02 -0.13988357475E+03  0.24911609929E+03  0.75841689792E+03  0.70000000000E+03 0. -1.
         11    1    4    4    0    0 -0.84845626238E+02  0.83053502460E+02  0.43767982003E+02  0.12653972029E+03  0.51100000000E-03 0.  1.
    -200002    1    4    4    0    0  0.26916140906E+02 -0.18245818595E+02  0.69681924746E+02  0.82540651644E+02  0.30000000000E+02 0.  1.
    -200000    1    3    3    0    0  0.11767850747E+03  0.75075890881E+02  0.19916436433E+02  0.51950099610E+03  0.50000000000E+03 0. -1.
<mgrwt>
<rscale>  0 0.14369659E+04</rscale>
<asrwt>0</asrwt>
<pdfrwt beam="1">  1        2 0.13353434E+00 0.14369659E+04</pdfrwt>
<pdfrwt beam="2">  1       -2 0.78893988E-01 0.14369659E+04</pdfrwt>
<totfact> 0.42824852E+01</totfact>
</mgrwt>
</event>
<event>
 8    2  0.2588871E-009  0.1500750E+04  0.7818608E-02  0.8883954E-01
          2   -1    0    0  501    0  0.00000000000E+00  0.00000000000E+00  0.40069063784E+03  0.40069063785E+03  0.25500000000E-02 0.  1.
         -2   -1    0    0    0  501 -0.00000000000E+00 -0.00000000000E+00 -0.14052302046E+04  0.14052302046E+04  0.25500000000E-02 0. -1.
    -200001    2    1    2    0    0 -0.26510720443E+02 -0.20692813252E+03 -0.29313328483E+03  0.78630279224E+03  0.69915870022E+03 0.  0.
   -5000001    2    3    3    0    0 -0.14753464918E+03  0.13469404164E+02 -0.43164289872E+02  0.17335388414E+03  0.78996934559E+02 0.  0.
     200001    1    1    2    0    0  0.26510720443E+02  0.20692813252E+03 -0.71140628192E+03  0.10196180502E+04  0.70000000000E+03 0. -1.
         11    1    4    4    0    0 -0.25858030473E+02 -0.18328801570E+02  0.10469041161E+02  0.33379387802E+02  0.51100000000E-03 0.  1.
    -200002    1    4    4    0    0 -0.12167661871E+03  0.31798205735E+02 -0.53633331033E+02  0.13997449634E+03  0.30000000000E+02 0.  1.
    -200000    1    3    3    0    0  0.12102392874E+03 -0.22039753668E+03 -0.24996899496E+03  0.61294890810E+03  0.50000000000E+03 0.  1.
<mgrwt>
<rscale>  0 0.15007499E+04</rscale>
<asrwt>0</asrwt>
<pdfrwt beam="1">  1        2 0.57241520E-01 0.15007499E+04</pdfrwt>
<pdfrwt beam="2">  1       -2 0.20074717E+00 0.15007499E+04</pdfrwt>
<totfact> 0.10977465E+01</totfact>
</mgrwt>
</event>
<event>
 8    2  0.2588871E-009  0.1622728E+04  0.7818608E-02  0.8806706E-01
         -2   -1    0    0    0  501 -0.00000000000E+00  0.00000000000E+00  0.56708574319E+03  0.56708574320E+03  0.25500000000E-02 0. -1.
          2   -1    0    0  501    0  0.00000000000E+00 -0.00000000000E+00 -0.11608670874E+04  0.11608670874E+04  0.25500000000E-02 0.  1.
    -200001    2    1    2    0    0 -0.16198041107E+03 -0.77077139676E+02  0.96041882173E+02  0.72893600258E+03  0.69996079440E+03 0.  0.
   -5000001    2    3    3    0    0  0.35254820965E+02 -0.23487630606E+02 -0.62176006131E+02  0.16608036175E+03  0.14806167508E+03 0.  0.
     200001    1    1    2    0    0  0.16198041107E+03  0.77077139676E+02 -0.68982322639E+03  0.99901682804E+03  0.70000000000E+03 0.  1.
         11    1    4    4    0    0 -0.35833973172E+02  0.35595156822E+02  0.37151326159E+00  0.50509670805E+02  0.51100000000E-03 0.  1.
    -200002    1    4    4    0    0  0.71088794137E+02 -0.59082787428E+02 -0.62547519392E+02  0.11557069094E+03  0.30000000000E+02 0.  1.
    -200000    1    3    3    0    0 -0.19723523203E+03 -0.53589509070E+02  0.15821788830E+03  0.56285564083E+03  0.50000000000E+03 0. -1.
<mgrwt>
<rscale>  0 0.16227275E+04</rscale>
<asrwt>0</asrwt>
<pdfrwt beam="1">  1        2 0.16583816E+00 0.16227275E+04</pdfrwt>
<pdfrwt beam="2">  1       -2 0.81012249E-01 0.16227275E+04</pdfrwt>
<totfact> 0.29022167E+01</totfact>
</mgrwt>
</event>
<event>
 8    2  0.2588871E-009  0.2016528E+04  0.7818608E-02  0.8598932E-01
          2   -1    0    0  501    0  0.00000000000E+00  0.00000000000E+00  0.12952397486E+04  0.12952397486E+04  0.25500000000E-02 0.  1.
         -2   -1    0    0    0  501 -0.00000000000E+00 -0.00000000000E+00 -0.78487121864E+03  0.78487121865E+03  0.25500000000E-02 0. -1.
    -200001    2    1    2    0    0 -0.43933371415E+03  0.47688597155E+03  0.58929788000E+03  0.11226851557E+04  0.70193705218E+03 0.  0.
   -5000001    2    3    3    0    0  0.53371752919E+00  0.10641236879E+03  0.18527240801E+03  0.26014783489E+03  0.14841547676E+03 0.  0.
     200001    1    1    2    0    0  0.43933371415E+03 -0.47688597155E+03 -0.78929350068E+02  0.95742581152E+03  0.70000000000E+03 0. -1.
         11    1    4    4    0    0  0.35654333982E+02  0.47835005107E+02  0.17494594820E+03  0.18483913016E+03  0.51100000000E-03 0.  1.
    -200002    1    4    4    0    0 -0.35120616453E+02  0.58577363682E+02  0.10326459808E+02  0.75308704731E+02  0.30000000000E+02 0.  1.
    -200000    1    3    3    0    0 -0.43986743168E+03  0.37047360276E+03  0.40402547200E+03  0.86253732083E+03  0.50000000000E+03 0.  1.
<mgrwt>
<rscale>  0 0.20165281E+04</rscale>
<asrwt>0</asrwt>
<pdfrwt beam="1">  1        2 0.18503425E+00 0.20165281E+04</pdfrwt>
<pdfrwt beam="2">  1       -2 0.11212446E+00 0.20165281E+04</pdfrwt>
<totfact> 0.11038112E+01</totfact>
</mgrwt>
</event>
<event>
 8    2  0.2588871E-009  0.2035774E+04  0.7818608E-02  0.8590075E-01
         -2   -1    0    0    0  501 -0.00000000000E+00  0.00000000000E+00  0.71354752400E+03  0.71354752400E+03  0.25500000000E-02 0. -1.
          2   -1    0    0  501    0  0.00000000000E+00 -0.00000000000E+00 -0.14520325657E+04  0.14520325657E+04  0.25500000000E-02 0.  1.
    -200001    2    1    2    0    0  0.17959400840E+03 -0.19454970579E+03 -0.11033384197E+04  0.13329807964E+04  0.69955595865E+03 0.  0.
   -5000001    2    3    3    0    0  0.53496550311E+02 -0.52722978555E+02 -0.43010439111E+03  0.47317881526E+03  0.18239191485E+03 0.  0.
     200001    1    1    2    0    0 -0.17959400840E+03  0.19454970579E+03  0.36485337796E+03  0.83259929335E+03  0.70000000000E+03 0. -1.
         11    1    4    4    0    0  0.76266862403E+02 -0.87478800398E+02 -0.39334675775E+03  0.41011077363E+03  0.51100000000E-03 0.  1.
    -200002    1    4    4    0    0 -0.22770312092E+02  0.34755821843E+02 -0.36757633360E+02  0.63068041630E+02  0.30000000000E+02 0.  1.
    -200000    1    3    3    0    0  0.12609745809E+03 -0.14182672724E+03 -0.67323402856E+03  0.85980198110E+03  0.50000000000E+03 0.  1.
<mgrwt>
<rscale>  0 0.20357743E+04</rscale>
<asrwt>0</asrwt>
<pdfrwt beam="1">  1        2 0.20743322E+00 0.20357743E+04</pdfrwt>
<pdfrwt beam="2">  1       -2 0.10193536E+00 0.20357743E+04</pdfrwt>
<totfact> 0.11386480E+01</totfact>
</mgrwt>
</event>
<event>
 8    2  0.2588871E-009  0.1736871E+04  0.7818608E-02  0.8740610E-01
          2   -1    0    0  501    0  0.00000000000E+00  0.00000000000E+00  0.17795061836E+04  0.17795061837E+04  0.25500000000E-02 0.  1.
         -2   -1    0    0    0  501 -0.00000000000E+00 -0.00000000000E+00 -0.42381450632E+03  0.42381450632E+03  0.25500000000E-02 0. -1.
    -200001    2    1    2    0    0  0.50363145318E+03  0.45911045476E+02  0.79164688197E+03  0.11718658941E+04  0.70058006204E+03 0.  0.
   -5000001    2    3    3    0    0  0.81853784807E+02  0.29245601170E+02  0.12402786911E+03  0.23704543814E+03  0.18235207746E+03 0.  0.
     200001    1    1    2    0    0 -0.50363145318E+03 -0.45911045476E+02  0.56404479536E+03  0.10314547959E+04  0.70000000000E+03 0. -1.
         11    1    4    4    0    0  0.53083551366E+02  0.25637142432E+00 -0.39292115008E+02  0.66043920644E+02  0.51100000000E-03 0.  1.
    -200002    1    4    4    0    0  0.28770233441E+02  0.28989229746E+02  0.16331998412E+03  0.17100151750E+03  0.30000000000E+02 0.  1.
    -200000    1    3    3    0    0  0.42177766838E+03  0.16665444305E+02  0.66761901286E+03  0.93482045597E+03  0.50000000000E+03 0.  1.
<mgrwt>
<rscale>  0 0.17368714E+04</rscale>
<asrwt>0</asrwt>
<pdfrwt beam="1">  1        2 0.25421517E+00 0.17368714E+04</pdfrwt>
<pdfrwt beam="2">  1       -2 0.60544930E-01 0.17368714E+04</pdfrwt>
<totfact> 0.25205027E+01</totfact>
</mgrwt>
</event>
<event>
 8    2  0.2588871E-009  0.1711545E+04  0.7818608E-02  0.8754807E-01
          2   -1    0    0  501    0  0.00000000000E+00  0.00000000000E+00  0.11122745338E+04  0.11122745338E+04  0.25500000000E-02 0.  1.
         -2   -1    0    0    0  501 -0.00000000000E+00 -0.00000000000E+00 -0.65842227754E+03  0.65842227754E+03  0.25500000000E-02 0. -1.
    -200001    2    1    2    0    0  0.40956057195E+03 -0.63977330036E+00 -0.58240996545E+02  0.81154105183E+03  0.69818807905E+03 0.  0.
   -5000001    2    3    3    0    0  0.10041602788E+03 -0.27174155162E+02 -0.19157685375E+02  0.22179370952E+03  0.19494517001E+03 0.  0.
     200001    1    1    2    0    0 -0.40956057195E+03  0.63977330036E+00  0.51209325277E+03  0.95915575948E+03  0.70000000000E+03 0.  1.
         11    1    4    4    0    0 -0.31389203972E+02  0.48600292364E+02  0.21269598958E+02  0.61641433987E+02  0.51100000000E-03 0.  1.
    -200002    1    4    4    0    0  0.13180523185E+03 -0.75774447526E+02 -0.40427284333E+02  0.16015227554E+03  0.30000000000E+02 0.  1.
    -200000    1    3    3    0    0  0.30914454407E+03  0.26534381862E+02 -0.39083311169E+02  0.58974734231E+03  0.50000000000E+03 0.  1.
<mgrwt>
<rscale>  0 0.17115447E+04</rscale>
<asrwt>0</asrwt>
<pdfrwt beam="1">  1        2 0.15889636E+00 0.17115447E+04</pdfrwt>
<pdfrwt beam="2">  1       -2 0.94060326E-01 0.17115447E+04</pdfrwt>
<totfact> 0.21853720E+01</totfact>
</mgrwt>
</event>
<event>
 8    2  0.2588871E-009  0.1521661E+04  0.7818608E-02  0.8870175E-01
          2   -1    0    0  501    0  0.00000000000E+00  0.00000000000E+00  0.70896122131E+03  0.70896122132E+03  0.25500000000E-02 0.  1.
         -2   -1    0    0    0  501 -0.00000000000E+00 -0.00000000000E+00 -0.81649434007E+03  0.81649434007E+03  0.25500000000E-02 0. -1.
    -200001    2    1    2    0    0 -0.20823099898E+03  0.19584609050E+03  0.20606043547E+02  0.75855564288E+03  0.70232913524E+03 0.  0.
   -5000001    2    3    3    0    0 -0.13026577547E+03  0.12152642306E+03 -0.44247173730E+02  0.24299000318E+03  0.15921207713E+03 0.  0.
     200001    1    1    2    0    0  0.20823099898E+03 -0.19584609050E+03 -0.12813916230E+03  0.76689991851E+03  0.70000000000E+03 0. -1.
         11    1    4    4    0    0 -0.16514370892E+02  0.84581351649E+02  0.38609150247E+02  0.94431964799E+02  0.51100000000E-03 0.  1.
    -200002    1    4    4    0    0 -0.11375140458E+03  0.36945071409E+02 -0.82856323977E+02  0.14855803838E+03  0.30000000000E+02 0.  1.
    -200000    1    3    3    0    0 -0.77965223514E+02  0.74319667439E+02  0.64853217277E+02  0.51556563970E+03  0.50000000000E+03 0.  1.
<mgrwt>
<rscale>  0 0.15216607E+04</rscale>
<asrwt>0</asrwt>
<pdfrwt beam="1">  1        2 0.10128017E+00 0.15216607E+04</pdfrwt>
<pdfrwt beam="2">  1       -2 0.11664205E+00 0.15216607E+04</pdfrwt>
<totfact> 0.24390208E+01</totfact>
</mgrwt>
</event>
<event>
 8    2  0.2588871E-009  0.1505087E+04  0.7818608E-02  0.8881077E-01
          2   -1    0    0  501    0  0.00000000000E+00  0.00000000000E+00  0.83415924479E+03  0.83415924480E+03  0.25500000000E-02 0.  1.
         -2   -1    0    0    0  501 -0.00000000000E+00 -0.00000000000E+00 -0.67891336170E+03  0.67891336171E+03  0.25500000000E-02 0. -1.
    -200001    2    1    2    0    0  0.57888409016E+02  0.12994211800E+03  0.31404826758E+03  0.78132523258E+03  0.70114676264E+03 0.  0.
   -5000001    2    3    3    0    0  0.59727802223E+02  0.97938795478E+02  0.94460162470E+02  0.23429092659E+03  0.18113557897E+03 0.  0.
     200001    1    1    2    0    0 -0.57888409016E+02 -0.12994211800E+03 -0.15880238450E+03  0.73174737393E+03  0.70000000000E+03 0. -1.
         11    1    4    4    0    0 -0.46154441696E+02  0.99069090979E+01  0.79648930120E+02  0.92586885712E+02  0.51100000000E-03 0.  1.
    -200002    1    4    4    0    0  0.10588224392E+03  0.88031886380E+02  0.14811232349E+02  0.14170404088E+03  0.30000000000E+02 0.  1.
    -200000    1    3    3    0    0 -0.18393932068E+01  0.32003322522E+02  0.21958810511E+03  0.54703430599E+03  0.50000000000E+03 0.  1.
<mgrwt>
<rscale>  0 0.15050872E+04</rscale>
<asrwt>0</asrwt>
<pdfrwt beam="1">  1        2 0.11916561E+00 0.15050872E+04</pdfrwt>
<pdfrwt beam="2">  1       -2 0.96987623E-01 0.15050872E+04</pdfrwt>
<totfact> 0.30931607E+01</totfact>
</mgrwt>
</event>
<event>
 8    2  0.2588871E-009  0.1686718E+04  0.7818608E-02  0.8768976E-01
         -2   -1    0    0    0  501 -0.00000000000E+00  0.00000000000E+00  0.29488039787E+03  0.29488039788E+03  0.25500000000E-02 0. -1.
          2   -1    0    0  501    0  0.00000000000E+00 -0.00000000000E+00 -0.24120097410E+04  0.24120097410E+04  0.25500000000E-02 0.  1.
    -200001    2    1    2    0    0  0.26592653520E+03 -0.38693960006E+03 -0.11249693934E+04  0.14050374045E+04  0.69866644092E+03 0.  0.
   -5000001    2    3    3    0    0  0.11505251517E+03 -0.91643495612E+01 -0.11533692076E+03  0.20719148799E+03  0.12768962706E+03 0.  0.
     200001    1    1    2    0    0 -0.26592653520E+03  0.38693960006E+03 -0.99215994969E+03  0.13018527344E+04  0.70000000000E+03 0. -1.
         11    1    4    4    0    0  0.22369505157E+02 -0.22253354227E+02  0.21883392465E+02  0.38399080735E+02  0.51100000000E-03 0.  1.
    -200002    1    4    4    0    0  0.92683010009E+02  0.13089004666E+02 -0.13722031322E+03  0.16879240726E+03  0.30000000000E+02 0.  1.
    -200000    1    3    3    0    0  0.15087402003E+03 -0.37777525050E+03 -0.10096324727E+04  0.11978459165E+04  0.50000000000E+03 0. -1.
<mgrwt>
<rscale>  0 0.16867180E+04</rscale>
<asrwt>0</asrwt>
<pdfrwt beam="1">  1        2 0.34457281E+00 0.16867180E+04</pdfrwt>
<pdfrwt beam="2">  1       -2 0.42125773E-01 0.16867180E+04</pdfrwt>
<totfact> 0.25019995E+01</totfact>
</mgrwt>
</event>
<event>
 8    2  0.2588871E-009  0.3270680E+04  0.7818608E-02  0.8170396E-01
         -2   -1    0    0    0  501 -0.00000000000E+00  0.00000000000E+00  0.14211887330E+04  0.14211887330E+04  0.25500000000E-02 0. -1.
          2   -1    0    0  501    0  0.00000000000E+00 -0.00000000000E+00 -0.18817605701E+04  0.18817605701E+04  0.25500000000E-02 0.  1.
    -200001    2    1    2    0    0 -0.26914094276E+03 -0.14411059691E+04 -0.42002917245E+03  0.16778748529E+04  0.69972584265E+03 0.  0.
   -5000001    2    3    3    0    0 -0.14072903564E+03 -0.38514853329E+03 -0.20687381893E+03  0.48331596821E+03  0.15051077704E+03 0.  0.
     200001    1    1    2    0    0  0.26914094276E+03  0.14411059691E+04 -0.40542664601E+02  0.16250744503E+04  0.70000000000E+03 0. -1.
         11    1    4    4    0    0 -0.11113129802E+03 -0.28058169766E+03 -0.21460294133E+03  0.37031159433E+03  0.51100000000E-03 0.  1.
    -200002    1    4    4    0    0 -0.29597737619E+02 -0.10456683563E+03  0.77291224001E+01  0.11300437389E+03  0.30000000000E+02 0.  1.
    -200000    1    3    3    0    0 -0.12841190712E+03 -0.10559574358E+04 -0.21315535352E+03  0.11945588846E+04  0.50000000000E+03 0. -1.
<mgrwt>
<rscale>  0 0.32706800E+04</rscale>
<asrwt>0</asrwt>
<pdfrwt beam="1">  1        2 0.26882294E+00 0.32706800E+04</pdfrwt>
<pdfrwt beam="2">  1       -2 0.20302696E+00 0.32706800E+04</pdfrwt>
<totfact> 0.99103428E-01</totfact>
</mgrwt>
</event>
<event>
 8    2  0.2588871E-009  0.2423874E+04  0.7818608E-02  0.8430619E-01
          2   -1    0    0  501    0  0.00000000000E+00  0.00000000000E+00  0.23773278283E+04  0.23773278283E+04  0.25500000000E-02 0.  1.
         -2   -1    0    0    0  501 -0.00000000000E+00 -0.00000000000E+00 -0.61783292473E+03  0.61783292474E+03  0.25500000000E-02 0. -1.
    -200001    2    1    2    0    0  0.24290279186E+03 -0.87367618776E+03  0.39018791351E+03  0.12098558826E+04  0.69942319201E+03 0.  0.
   -5000001    2    3    3    0    0 -0.14703347065E+02 -0.21554357767E+03  0.35708025146E+02  0.27435844995E+03  0.16529450600E+03 0.  0.
     200001    1    1    2    0    0 -0.24290279186E+03  0.87367618776E+03  0.13693069901E+04  0.17853048704E+04  0.70000000000E+03 0.  1.
         11    1    4    4    0    0 -0.18725368042E+02 -0.23446292303E+03  0.22439986870E+02  0.23627749511E+03  0.51100000000E-03 0.  1.
    -200002    1    4    4    0    0  0.40220209776E+01  0.18919345367E+02  0.13268038276E+02  0.38080954840E+02  0.30000000000E+02 0.  1.
    -200000    1    3    3    0    0  0.25760613892E+03 -0.65813261009E+03  0.35447988837E+03  0.93549743267E+03  0.50000000000E+03 0.  1.
<mgrwt>
<rscale>  0 0.24238741E+04</rscale>
<asrwt>0</asrwt>
<pdfrwt beam="1">  1        2 0.33961827E+00 0.24238741E+04</pdfrwt>
<pdfrwt beam="2">  1       -2 0.88261844E-01 0.24238741E+04</pdfrwt>
<totfact> 0.50999108E+00</totfact>
</mgrwt>
</event>
<event>
 8    2  0.2588871E-009  0.1709792E+04  0.7818608E-02  0.8755799E-01
          2   -1    0    0  501    0  0.00000000000E+00  0.00000000000E+00  0.43960713631E+03  0.43960713632E+03  0.25500000000E-02 0.  1.
         -2   -1    0    0    0  501 -0.00000000000E+00 -0.00000000000E+00 -0.16625003233E+04  0.16625003233E+04  0.25500000000E-02 0. -1.
    -200001    2    1    2    0    0  0.46904589960E+03  0.14417749813E+03 -0.57967966839E+03  0.10322874573E+04  0.69914066513E+03 0.  0.
   -5000001    2    3    3    0    0  0.94955714508E+02  0.65749846001E+01 -0.28040238575E+02  0.18778524957E+03  0.15942781074E+03 0.  0.
     200001    1    1    2    0    0 -0.46904589960E+03 -0.14417749813E+03 -0.64321351861E+03  0.10698200024E+04  0.70000000000E+03 0. -1.
         11    1    4    4    0    0  0.58759601204E+02  0.14867420492E+02  0.61478778286E+02  0.86332908590E+02  0.51100000000E-03 0.  1.
    -200002    1    4    4    0    0  0.36196113304E+02 -0.82924358921E+01 -0.89519016861E+02  0.10145234098E+03  0.30000000000E+02 0.  1.
    -200000    1    3    3    0    0  0.37409018509E+03  0.13760251353E+03 -0.55163942982E+03  0.84450220772E+03  0.50000000000E+03 0. -1.
<mgrwt>
<rscale>  0 0.17097918E+04</rscale>
<asrwt>0</asrwt>
<pdfrwt beam="1">  1        2 0.62801020E-01 0.17097918E+04</pdfrwt>
<pdfrwt beam="2">  1       -2 0.23750004E+00 0.17097918E+04</pdfrwt>
<totfact> 0.56883589E+00</totfact>
</mgrwt>
</event>
<event>
 8    2  0.2588871E-009  0.1705612E+04  0.7818608E-02  0.8758170E-01
          2   -1    0    0  501    0  0.00000000000E+00  0.00000000000E+00  0.16231901171E+04  0.16231901171E+04  0.25500000000E-02 0.  1.
         -2   -1    0    0    0  501 -0.00000000000E+00 -0.00000000000E+00 -0.44805471801E+03  0.44805471802E+03  0.25500000000E-02 0. -1.
    -200001    2    1    2    0    0  0.10002809846E+03 -0.10296354713E+03  0.11529601268E+04  0.13563330537E+04  0.69979653191E+03 0.  0.
   -5000001    2    3    3    0    0  0.36436189511E+02 -0.66759919056E+02  0.41374836114E+03  0.46090652514E+03  0.18831525661E+03 0.  0.
     200001    1    1    2    0    0 -0.10002809846E+03  0.10296354713E+03  0.22175272303E+02  0.71491178143E+03  0.70000000000E+03 0. -1.
         11    1    4    4    0    0  0.36443173318E+02 -0.58929360608E+02  0.29329892698E+02  0.75239730390E+02  0.51100000000E-03 0.  1.
    -200002    1    4    4    0    0 -0.69838069245E-02 -0.78305584480E+01  0.38441846844E+03  0.38566679475E+03  0.30000000000E+02 0.  1.
    -200000    1    3    3    0    0  0.63591908953E+02 -0.36203628074E+02  0.73921176566E+03  0.89542652856E+03  0.50000000000E+03 0.  1.
<mgrwt>
<rscale>  0 0.17056119E+04</rscale>
<asrwt>0</asrwt>
<pdfrwt beam="1">  1        2 0.23188431E+00 0.17056119E+04</pdfrwt>
<pdfrwt beam="2">  1       -2 0.64007816E-01 0.17056119E+04</pdfrwt>
<totfact> 0.27070750E+01</totfact>
</mgrwt>
</event>
<event>
 8    2  0.2588871E-009  0.1832087E+04  0.7818608E-02  0.8689420E-01
          2   -1    0    0  501    0  0.00000000000E+00  0.00000000000E+00  0.11063664098E+04  0.11063664098E+04  0.25500000000E-02 0.  1.
         -2   -1    0    0    0  501 -0.00000000000E+00 -0.00000000000E+00 -0.75846051661E+03  0.75846051661E+03  0.25500000000E-02 0. -1.
    -200001    2    1    2    0    0 -0.26602720384E+03 -0.17041796349E+03 -0.33402914381E+03  0.83776891920E+03  0.70033458975E+03 0.  0.
   -5000001    2    3    3    0    0 -0.96361025638E+02 -0.94589542680E+02  0.36541542880E+02  0.18826203297E+03  0.12599476122E+03 0.  0.
     200001    1    1    2    0    0  0.26602720384E+03  0.17041796349E+03  0.68193503696E+03  0.10270580072E+04  0.70000000000E+03 0.  1.
         11    1    4    4    0    0  0.24430904585E+02 -0.11186198910E+02 -0.13801767159E+02  0.30207431567E+02  0.51100000000E-03 0.  1.
    -200002    1    4    4    0    0 -0.12079193022E+03 -0.83403343770E+02  0.50343310039E+02  0.15805460140E+03  0.30000000000E+02 0.  1.
    -200000    1    3    3    0    0 -0.16966617820E+03 -0.75828420811E+02 -0.37057068669E+03  0.64950688623E+03  0.50000000000E+03 0. -1.
<mgrwt>
<rscale>  0 0.18320865E+04</rscale>
<asrwt>0</asrwt>
<pdfrwt beam="1">  1        2 0.15805234E+00 0.18320865E+04</pdfrwt>
<pdfrwt beam="2">  1       -2 0.10835150E+00 0.18320865E+04</pdfrwt>
<totfact> 0.15596427E+01</totfact>
</mgrwt>
</event>
<event>
 8    2  0.2588871E-009  0.1562797E+04  0.7818608E-02  0.8843735E-01
         -2   -1    0    0    0  501 -0.00000000000E+00  0.00000000000E+00  0.45409146427E+03  0.45409146428E+03  0.25500000000E-02 0. -1.
          2   -1    0    0  501    0  0.00000000000E+00 -0.00000000000E+00 -0.13446263371E+04  0.13446263371E+04  0.25500000000E-02 0.  1.
    -200001    2    1    2    0    0 -0.20169350506E+03 -0.15983174171E+02 -0.76997731465E+03  0.10601584899E+04  0.70009658384E+03 0.  0.
   -5000001    2    3    3    0    0 -0.30022806368E+02 -0.12991080229E+03 -0.12146760302E+03  0.21575622831E+03  0.11839842067E+03 0.  0.
     200001    1    1    2    0    0  0.20169350506E+03  0.15983174171E+02 -0.12055755821E+03  0.73855931155E+03  0.70000000000E+03 0. -1.
         11    1    4    4    0    0  0.32970484290E+02 -0.34624286621E+01 -0.15307046722E+02  0.36515023294E+02  0.51100000000E-03 0.  1.
    -200002    1    4    4    0    0 -0.62993290658E+02 -0.12644837363E+03 -0.10616055630E+03  0.17924120501E+03  0.30000000000E+02 0.  1.
    -200000    1    3    3    0    0 -0.17167069869E+03  0.11392762812E+03 -0.64850971162E+03  0.84440226155E+03  0.50000000000E+03 0.  1.
<mgrwt>
<rscale>  0 0.15627967E+04</rscale>
<asrwt>0</asrwt>
<pdfrwt beam="1">  1        2 0.19208948E+00 0.15627967E+04</pdfrwt>
<pdfrwt beam="2">  1       -2 0.64870210E-01 0.15627967E+04</pdfrwt>
<totfact> 0.37471840E+01</totfact>
</mgrwt>
</event>
<event>
 8    2  0.2588871E-009  0.2386173E+04  0.7818608E-02  0.8444699E-01
          2   -1    0    0  501    0  0.00000000000E+00  0.00000000000E+00  0.29230285642E+04  0.29230285642E+04  0.25500000000E-02 0.  1.
         -2   -1    0    0    0  501 -0.00000000000E+00 -0.00000000000E+00 -0.48697945090E+03  0.48697945090E+03  0.25500000000E-02 0. -1.
    -200001    2    1    2    0    0  0.19553761864E+02  0.50850224356E+02 -0.16035875482E+03  0.72034225286E+03  0.70014993829E+03 0.  0.
   -5000001    2    3    3    0    0  0.44456064223E+02  0.22917252399E+02 -0.15925785156E+03  0.21894262425E+03  0.14167310022E+03 0.  0.
     200001    1    1    2    0    0 -0.19553761864E+02 -0.50850224356E+02  0.25964078681E+04  0.26896657622E+04  0.70000000000E+03 0.  1.
         11    1    4    4    0    0  0.31458712858E+02 -0.55553932169E+02 -0.83222823192E+02  0.10489007720E+03  0.51100000000E-03 0.  1.
    -200002    1    4    4    0    0  0.12997351365E+02  0.78471184567E+02 -0.76035028367E+02  0.11405254705E+03  0.30000000000E+02 0.  1.
    -200000    1    3    3    0    0 -0.24902302360E+02  0.27932971957E+02 -0.11009032639E+01  0.50139962861E+03  0.50000000000E+03 0. -1.
<mgrwt>
<rscale>  0 0.23861725E+04</rscale>
<asrwt>0</asrwt>
<pdfrwt beam="1">  1        2 0.41757550E+00 0.23861725E+04</pdfrwt>
<pdfrwt beam="2">  1       -2 0.69568495E-01 0.23861725E+04</pdfrwt>
<totfact> 0.44382262E+00</totfact>
</mgrwt>
</event>
<event>
 8    2  0.2588871E-009  0.1650506E+04  0.7818608E-02  0.8790107E-01
         -2   -1    0    0    0  501 -0.00000000000E+00  0.00000000000E+00  0.36440068801E+03  0.36440068802E+03  0.25500000000E-02 0. -1.
          2   -1    0    0  501    0  0.00000000000E+00 -0.00000000000E+00 -0.18689378753E+04  0.18689378753E+04  0.25500000000E-02 0.  1.
    -200001    2    1    2    0    0  0.24258668755E+03 -0.14669080385E+03 -0.12021625068E+04  0.14198295343E+04  0.70025332625E+03 0.  0.
   -5000001    2    3    3    0    0  0.88540710439E+02 -0.42927435862E+02 -0.15895248419E+03  0.24817081660E+03  0.16321960613E+03 0.  0.
     200001    1    1    2    0    0 -0.24258668755E+03  0.14669080385E+03 -0.30237468057E+03  0.81350902906E+03  0.70000000000E+03 0. -1.
         11    1    4    4    0    0  0.76807883561E+02 -0.90145247422E+02 -0.57330483482E+02  0.13157659726E+03  0.51100000000E-03 0.  1.
    -200002    1    4    4    0    0  0.11732826878E+02  0.47217811560E+02 -0.10162200071E+03  0.11659421934E+03  0.30000000000E+02 0.  1.
    -200000    1    3    3    0    0  0.15404597711E+03 -0.10376336798E+03 -0.10432100226E+04  0.11716587177E+04  0.50000000000E+03 0.  1.
<mgrwt>
<rscale>  0 0.16505057E+04</rscale>
<asrwt>0</asrwt>
<pdfrwt beam="1">  1        2 0.26699112E+00 0.16505057E+04</pdfrwt>
<pdfrwt beam="2">  1       -2 0.52057242E-01 0.16505057E+04</pdfrwt>
<totfact> 0.31262217E+01</totfact>
</mgrwt>
</event>
<event>
 8    2  0.2588871E-009  0.1771157E+04  0.7818608E-02  0.8721790E-01
          2   -1    0    0  501    0  0.00000000000E+00  0.00000000000E+00  0.27433927096E+04  0.27433927096E+04  0.25500000000E-02 0.  1.
         -2   -1    0    0    0  501 -0.00000000000E+00 -0.00000000000E+00 -0.28586846264E+03  0.28586846266E+03  0.25500000000E-02 0. -1.
    -200001    2    1    2    0    0  0.88306736437E+02  0.50360490692E+03  0.15388635786E+04  0.17661881714E+04  0.69993111177E+03 0.  0.
   -5000001    2    3    3    0    0  0.79119412818E+02  0.97339286127E+02  0.36208360743E+03  0.42456703928E+03  0.18280539918E+03 0.  0.
     200001    1    1    2    0    0 -0.88306736437E+02 -0.50360490692E+03  0.91866066838E+03  0.12630730009E+04  0.70000000000E+03 0. -1.
         11    1    4    4    0    0  0.78731606830E+02  0.14487436949E+03  0.25586036623E+03  0.30438754222E+03  0.51100000000E-03 0.  1.
    -200002    1    4    4    0    0  0.38780598773E+00 -0.47535083365E+02  0.10622324120E+03  0.12017949707E+03  0.30000000000E+02 0.  1.
    -200000    1    3    3    0    0  0.91873236191E+01  0.40626562079E+03  0.11767799712E+04  0.13416211321E+04  0.50000000000E+03 0.  1.
<mgrwt>
<rscale>  0 0.17711572E+04</rscale>
<asrwt>0</asrwt>
<pdfrwt beam="1">  1        2 0.39191326E+00 0.17711572E+04</pdfrwt>
<pdfrwt beam="2">  1       -2 0.40838350E-01 0.17711572E+04</pdfrwt>
<totfact> 0.17618771E+01</totfact>
</mgrwt>
</event>
<event>
 8    2  0.2588871E-009  0.1468365E+04  0.7818608E-02  0.8905767E-01
          2   -1    0    0  501    0  0.00000000000E+00  0.00000000000E+00  0.33211310059E+04  0.33211310059E+04  0.25500000000E-02 0.  1.
         -2   -1    0    0    0  501 -0.00000000000E+00 -0.00000000000E+00 -0.16230129983E+03  0.16230129985E+03  0.25500000000E-02 0. -1.
    -200001    2    1    2    0    0 -0.20271378518E+03  0.75283147773E+02  0.14660961498E+04  0.16389520745E+04  0.69997539308E+03 0.  0.
   -5000001    2    3    3    0    0  0.19493947762E+02  0.59643267418E+01  0.49980617595E+03  0.52634356781E+03  0.16375515462E+03 0.  0.
     200001    1    1    2    0    0  0.20271378518E+03 -0.75283147773E+02  0.16927335563E+04  0.18444802313E+04  0.70000000000E+03 0. -1.
         11    1    4    4    0    0  0.59677750096E+02 -0.50010801041E+02  0.35223327228E+03  0.36073645806E+03  0.51100000000E-03 0.  1.
    -200002    1    4    4    0    0 -0.40183802334E+02  0.55975127783E+02  0.14757290367E+03  0.16560710975E+03  0.30000000000E+02 0.  1.
    -200000    1    3    3    0    0 -0.22220773294E+03  0.69318821031E+02  0.96628997387E+03  0.11126085067E+04  0.50000000000E+03 0. -1.
<mgrwt>
<rscale>  0 0.14683649E+04</rscale>
<asrwt>0</asrwt>
<pdfrwt beam="1">  1        2 0.47444727E+00 0.14683649E+04</pdfrwt>
<pdfrwt beam="2">  1       -2 0.23185901E-01 0.14683649E+04</pdfrwt>
<totfact> 0.24776800E+01</totfact>
</mgrwt>
</event>
<event>
 8    2  0.2588871E-009  0.1461139E+04  0.7818608E-02  0.8910714E-01
         -2   -1    0    0    0  501 -0.00000000000E+00  0.00000000000E+00  0.14183259403E+04  0.14183259403E+04  0.25500000000E-02 0. -1.
          2   -1    0    0  501    0  0.00000000000E+00 -0.00000000000E+00 -0.37631099885E+03  0.37631099886E+03  0.25500000000E-02 0.  1.
    -200001    2    1    2    0    0 -0.29483930895E+02 -0.15816230876E+03  0.67548022055E+03  0.98826709863E+03  0.70321668907E+03 0.  0.
   -5000001    2    3    3    0    0  0.42852301852E+02  0.72348008427E+02  0.21322134366E+03  0.26573626458E+03  0.13446883216E+03 0.  0.
     200001    1    1    2    0    0  0.29483930895E+02  0.15816230876E+03  0.36653472089E+03  0.80636984053E+03  0.70000000000E+03 0.  1.
         11    1    4    4    0    0  0.66803359928E+02  0.88535540359E+02  0.11876582261E+03  0.16250092746E+03  0.51100000000E-03 0.  1.
    -200002    1    4    4    0    0 -0.23951058076E+02 -0.16187531932E+02  0.94455521057E+02  0.10323533712E+03  0.30000000000E+02 0.  1.
    -200000    1    3    3    0    0 -0.72336232747E+02 -0.23051031718E+03  0.46225887689E+03  0.72253083405E+03  0.50000000000E+03 0. -1.
<mgrwt>
<rscale>  0 0.14611388E+04</rscale>
<asrwt>0</asrwt>
<pdfrwt beam="1">  1        2 0.53758714E-01 0.14611388E+04</pdfrwt>
<pdfrwt beam="2">  1       -2 0.20261799E+00 0.14611388E+04</pdfrwt>
<totfact> 0.11483677E+01</totfact>
</mgrwt>
</event>
<event>
 8    2  0.2588871E-009  0.1474663E+04  0.7818608E-02  0.8901479E-01
         -2   -1    0    0    0  501 -0.00000000000E+00  0.00000000000E+00  0.25443900526E+03  0.25443900528E+03  0.25500000000E-02 0. -1.
          2   -1    0    0  501    0  0.00000000000E+00 -0.00000000000E+00 -0.21366909943E+04  0.21366909943E+04  0.25500000000E-02 0.  1.
    -200001    2    1    2    0    0 -0.36902188518E+02  0.17143245681E+02 -0.57205864290E+03  0.90510770275E+03  0.70022367874E+03 0.  0.
   -5000001    2    3    3    0    0 -0.15907198604E+02  0.28735349726E+02 -0.84312719537E+02  0.20620051847E+03  0.18528696622E+03 0.  0.
     200001    1    1    2    0    0  0.36902188518E+02 -0.17143245681E+02 -0.13101933461E+04  0.14860222968E+04  0.70000000000E+03 0.  1.
         11    1    4    4    0    0 -0.86336244614E+02  0.51566923372E+02 -0.17534613110E+02  0.10208113135E+03  0.51100000000E-03 0.  1.
    -200002    1    4    4    0    0  0.70429046010E+02 -0.22831573647E+02 -0.66778106427E+02  0.10411938712E+03  0.30000000000E+02 0.  1.
    -200000    1    3    3    0    0 -0.20994989914E+02 -0.11592104045E+02 -0.48774592337E+03  0.69890718428E+03  0.50000000000E+03 0. -1.
<mgrwt>
<rscale>  0 0.14746627E+04</rscale>
<asrwt>0</asrwt>
<pdfrwt beam="1">  1        2 0.30524156E+00 0.14746627E+04</pdfrwt>
<pdfrwt beam="2">  1       -2 0.36348431E-01 0.14746627E+04</pdfrwt>
<totfact> 0.47106895E+01</totfact>
</mgrwt>
</event>
<event>
 8    2  0.2588871E-009  0.1570009E+04  0.7818608E-02  0.8839187E-01
         -2   -1    0    0    0  501 -0.00000000000E+00  0.00000000000E+00  0.41708605568E+03  0.41708605569E+03  0.25500000000E-02 0. -1.
          2   -1    0    0  501    0  0.00000000000E+00 -0.00000000000E+00 -0.14774706335E+04  0.14774706335E+04  0.25500000000E-02 0.  1.
    -200001    2    1    2    0    0 -0.20270909435E+03 -0.13831135352E+03 -0.22687425969E+03  0.77877872835E+03  0.70342261165E+03 0.  0.
   -5000001    2    3    3    0    0 -0.16714943859E+01 -0.98968171134E+02 -0.94589394105E+02  0.22248448223E+03  0.17537017582E+03 0.  0.
     200001    1    1    2    0    0  0.20270909435E+03  0.13831135352E+03 -0.83351031811E+03  0.11157779608E+04  0.70000000000E+03 0.  1.
         11    1    4    4    0    0  0.28892550204E+02  0.16043203002E+02  0.32119221191E+02  0.46084793480E+02  0.51100000000E-03 0.  1.
    -200002    1    4    4    0    0 -0.30564044590E+02 -0.11501137414E+03 -0.12670861530E+03  0.17639968875E+03  0.30000000000E+02 0.  1.
    -200000    1    3    3    0    0 -0.20103759997E+03 -0.39343182390E+02 -0.13228486558E+03  0.55629424612E+03  0.50000000000E+03 0. -1.
<mgrwt>
<rscale>  0 0.15700094E+04</rscale>
<asrwt>0</asrwt>
<pdfrwt beam="1">  1        2 0.21106723E+00 0.15700094E+04</pdfrwt>
<pdfrwt beam="2">  1       -2 0.59583723E-01 0.15700094E+04</pdfrwt>
<totfact> 0.38035230E+01</totfact>
</mgrwt>
</event>
<event>
 8    2  0.2588871E-009  0.1810478E+04  0.7818608E-02  0.8700747E-01
         -2   -1    0    0    0  501 -0.00000000000E+00  0.00000000000E+00  0.33054140144E+04  0.33054140144E+04  0.25500000000E-02 0. -1.
          2   -1    0    0  501    0  0.00000000000E+00 -0.00000000000E+00 -0.24791387615E+03  0.24791387616E+03  0.25500000000E-02 0.  1.
    -200001    2    1    2    0    0  0.63562671707E+02  0.29783181825E+03  0.57447498246E+03  0.95560621003E+03  0.70029830642E+03 0.  0.
   -5000001    2    3    3    0    0  0.27206564575E+02  0.17061742384E+03  0.11393357683E+03  0.26307198346E+03  0.16240537577E+03 0.  0.
     200001    1    1    2    0    0 -0.63562671707E+02 -0.29783181825E+03  0.24830251558E+04  0.25977216805E+04  0.70000000000E+03 0. -1.
         11    1    4    4    0    0 -0.82708765173E+01  0.29092598966E+02  0.10998034530E+03  0.11406341686E+03  0.51100000000E-03 0.  1.
    -200002    1    4    4    0    0  0.35477441092E+02  0.14152482488E+03  0.39532315357E+01  0.14900856661E+03  0.30000000000E+02 0.  1.
    -200000    1    3    3    0    0  0.36356107132E+02  0.12721439441E+03  0.46054140562E+03  0.69253422656E+03  0.50000000000E+03 0.  1.
<mgrwt>
<rscale>  0 0.18104784E+04</rscale>
<asrwt>0</asrwt>
<pdfrwt beam="1">  1        2 0.35416271E-01 0.18104784E+04</pdfrwt>
<pdfrwt beam="2">  1       -2 0.47220197E+00 0.18104784E+04</pdfrwt>
<totfact> 0.34695138E-01</totfact>
</mgrwt>
</event>
<event>
 8    2  0.2588871E-009  0.1529157E+04  0.7818608E-02  0.8865292E-01
         -2   -1    0    0    0  501 -0.00000000000E+00  0.00000000000E+00  0.10998759074E+03  0.10998759077E+03  0.25500000000E-02 0. -1.
          2   -1    0    0  501    0  0.00000000000E+00 -0.00000000000E+00 -0.53149682108E+04  0.53149682108E+04  0.25500000000E-02 0.  1.
    -200001    2    1    2    0    0 -0.23962072685E+03  0.12714051424E+03 -0.20826806000E+04  0.22136725349E+04  0.69943177462E+03 0.  0.
   -5000001    2    3    3    0    0 -0.34851287258E+02  0.78335976758E+02 -0.87230617366E+03  0.88727943403E+03  0.13782451149E+03 0.  0.
     200001    1    1    2    0    0  0.23962072685E+03 -0.12714051424E+03 -0.31223000201E+04  0.32112832667E+04  0.70000000000E+03 0.  1.
         11    1    4    4    0    0  0.85670862440E+00  0.31328749675E+02 -0.33540952066E+02  0.45904465704E+02  0.51100000000E-03 0.  1.
    -200002    1    4    4    0    0 -0.35707995882E+02  0.47007227083E+02 -0.83876522159E+03  0.84137496832E+03  0.30000000000E+02 0.  1.
    -200000    1    3    3    0    0 -0.20476943959E+03  0.48804537480E+02 -0.12103744263E+04  0.13263931009E+04  0.50000000000E+03 0.  1.
<mgrwt>
<rscale>  0 0.15291573E+04</rscale>
<asrwt>0</asrwt>
<pdfrwt beam="1">  1        2 0.75928101E+00 0.15291573E+04</pdfrwt>
<pdfrwt beam="2">  1       -2 0.15712516E-01 0.15291573E+04</pdfrwt>
<totfact> 0.13576794E+00</totfact>
</mgrwt>
</event>
<event>
 8    2  0.2588871E-009  0.1709271E+04  0.7818608E-02  0.8756094E-01
          2   -1    0    0  501    0  0.00000000000E+00  0.00000000000E+00  0.10067092331E+04  0.10067092331E+04  0.25500000000E-02 0.  1.
         -2   -1    0    0    0  501 -0.00000000000E+00 -0.00000000000E+00 -0.72553447754E+03  0.72553447754E+03  0.25500000000E-02 0. -1.
    -200001    2    1    2    0    0  0.64840160310E+01  0.48638872675E+03  0.87614138928E+02  0.85812601357E+03  0.70148983018E+03 0.  0.
   -5000001    2    3    3    0    0  0.68037170363E+02  0.16867598054E+03  0.65838930585E+01  0.25704691673E+03  0.18151894334E+03 0.  0.
     200001    1    1    2    0    0 -0.64840160310E+01 -0.48638872675E+03  0.19356061660E+03  0.87411769704E+03  0.70000000000E+03 0. -1.
         11    1    4    4    0    0 -0.46298816392E+02  0.10525882420E+03  0.34447706974E+02  0.12004018072E+03  0.51100000000E-03 0.  1.
    -200002    1    4    4    0    0  0.11433598676E+03  0.63417156334E+02 -0.27863813915E+02  0.13700673600E+03  0.30000000000E+02 0.  1.
    -200000    1    3    3    0    0 -0.61553154332E+02  0.31771274622E+03  0.81030245869E+02  0.60107909684E+03  0.50000000000E+03 0. -1.
<mgrwt>
<rscale>  0 0.17092715E+04</rscale>
<asrwt>0</asrwt>
<pdfrwt beam="1">  1        2 0.14381561E+00 0.17092715E+04</pdfrwt>
<pdfrwt beam="2">  1       -2 0.10364778E+00 0.17092715E+04</pdfrwt>
<totfact> 0.20116954E+01</totfact>
</mgrwt>
</event>
<event>
 8    2  0.2588871E-009  0.2173319E+04  0.7818608E-02  0.8529616E-01
          2   -1    0    0  501    0  0.00000000000E+00  0.00000000000E+00  0.15947538207E+04  0.15947538207E+04  0.25500000000E-02 0.  1.
         -2   -1    0    0    0  501 -0.00000000000E+00 -0.00000000000E+00 -0.74044586099E+03  0.74044586099E+03  0.25500000000E-02 0. -1.
    -200001    2    1    2    0    0 -0.13533910275E+03  0.67115631759E+03  0.93333608953E+03  0.13528489701E+04  0.70022610955E+03 0.  0.
   -5000001    2    3    3    0    0 -0.42074442751E+01  0.41803468974E+02  0.26653420987E+03  0.30027818072E+03  0.13176216522E+03 0.  0.
     200001    1    1    2    0    0  0.13533910275E+03 -0.67115631759E+03 -0.79028129771E+02  0.98235071164E+03  0.70000000000E+03 0.  1.
         11    1    4    4    0    0 -0.14141742294E+02  0.63196483135E+02  0.53926023554E+02  0.84272180299E+02  0.51100000000E-03 0.  1.
    -200002    1    4    4    0    0  0.99342980184E+01 -0.21393014161E+02  0.21260818631E+03  0.21600600043E+03  0.30000000000E+02 0.  1.
    -200000    1    3    3    0    0 -0.13113165847E+03  0.62935284861E+03  0.66680187966E+03  0.10525707894E+04  0.50000000000E+03 0.  1.
<mgrwt>
<rscale>  0 0.21733190E+04</rscale>
<asrwt>0</asrwt>
<pdfrwt beam="1">  1        2 0.22782198E+00 0.21733190E+04</pdfrwt>
<pdfrwt beam="2">  1       -2 0.10577798E+00 0.21733190E+04</pdfrwt>
<totfact> 0.86570405E+00</totfact>
</mgrwt>
</event>
<event>
 8    2  0.2588871E-009  0.2167416E+04  0.7818608E-02  0.8532114E-01
         -2   -1    0    0    0  501 -0.00000000000E+00  0.00000000000E+00  0.55926380519E+03  0.55926380520E+03  0.25500000000E-02 0.  1.
          2   -1    0    0  501    0  0.00000000000E+00 -0.00000000000E+00 -0.20999443130E+04  0.20999443130E+04  0.25500000000E-02 0. -1.
    -200001    2    1    2    0    0  0.68508578670E+03  0.38124897600E+03 -0.44569691807E+03  0.11414194707E+04  0.69964230031E+03 0.  0.
   -5000001    2    3    3    0    0  0.13662969871E+02  0.70381550313E+02 -0.71539499971E+02  0.17320413881E+03  0.14050457029E+03 0.  0.
     200001    1    1    2    0    0 -0.68508578670E+03 -0.38124897600E+03 -0.10949835897E+04  0.15177886476E+04  0.70000000000E+03 0. -1.
         11    1    4    4    0    0 -0.54439224343E+02  0.19442113965E+02 -0.58220526782E+02  0.82044223938E+02  0.51100000000E-03 0.  1.
    -200002    1    4    4    0    0  0.68102194214E+02  0.50939436348E+02 -0.13318973190E+02  0.91159914870E+02  0.30000000000E+02 0.  1.
    -200000    1    3    3    0    0  0.67142281683E+03  0.31086742569E+03 -0.37415741810E+03  0.96821533185E+03  0.50000000000E+03 0.  1.
<mgrwt>
<rscale>  0 0.21674158E+04</rscale>
<asrwt>0</asrwt>
<pdfrwt beam="1">  1        2 0.29999204E+00 0.21674158E+04</pdfrwt>
<pdfrwt beam="2">  1       -2 0.79894830E-01 0.21674158E+04</pdfrwt>
<totfact> 0.90926220E+00</totfact>
</mgrwt>
</event>
<event>
 8    2  0.2588871E-009  0.1558915E+04  0.7818608E-02  0.8846194E-01
          2   -1    0    0  501    0  0.00000000000E+00  0.00000000000E+00  0.22425444072E+04  0.22425444072E+04  0.25500000000E-02 0.  1.
         -2   -1    0    0    0  501 -0.00000000000E+00 -0.00000000000E+00 -0.27092157072E+03  0.27092157073E+03  0.25500000000E-02 0. -1.
    -200001    2    1    2    0    0 -0.24090941248E+03 -0.20919245093E+03  0.11908492990E+04  0.14173792371E+04  0.69931611048E+03 0.  0.
   -5000001    2    3    3    0    0 -0.12477091670E+03 -0.15812612194E+03  0.30017791781E+03  0.38811181346E+03  0.14125277099E+03 0.  0.
     200001    1    1    2    0    0  0.24090941248E+03  0.20919245093E+03  0.78077353748E+03  0.10960867408E+04  0.70000000000E+03 0. -1.
         11    1    4    4    0    0 -0.74745107603E+01 -0.99145444931E+02  0.18867169585E+03  0.21326672590E+03  0.51100000000E-03 0.  1.
    -200002    1    4    4    0    0 -0.11729640594E+03 -0.58980677010E+02  0.11150622196E+03  0.17484508756E+03  0.30000000000E+02 0.  1.
    -200000    1    3    3    0    0 -0.11613849578E+03 -0.51066328989E+02  0.89067138120E+03  0.10292674237E+04  0.50000000000E+03 0.  1.
<mgrwt>
<rscale>  0 0.15589146E+04</rscale>
<asrwt>0</asrwt>
<pdfrwt beam="1">  1        2 0.32036348E+00 0.15589146E+04</pdfrwt>
<pdfrwt beam="2">  1       -2 0.38703082E-01 0.15589146E+04</pdfrwt>
<totfact> 0.36551097E+01</totfact>
</mgrwt>
</event>
<event>
 8    2  0.2588871E-009  0.1571319E+04  0.7818608E-02  0.8838364E-01
         -2   -1    0    0    0  501 -0.00000000000E+00  0.00000000000E+00  0.79781760322E+03  0.79781760322E+03  0.25500000000E-02 0. -1.
          2   -1    0    0  501    0  0.00000000000E+00 -0.00000000000E+00 -0.77368715979E+03  0.77368715980E+03  0.25500000000E-02 0.  1.
    -200001    2    1    2    0    0  0.34995502051E+03  0.61053657826E+02  0.36691214471E+02  0.78642270458E+03  0.70065566403E+03 0.  0.
   -5000001    2    3    3    0    0  0.15839672880E+03 -0.94038126164E+02 -0.53262195412E+02  0.22176381947E+03  0.11139855160E+03 0.  0.
     200001    1    1    2    0    0 -0.34995502051E+03 -0.61053657826E+02 -0.12560771051E+02  0.78508205844E+03  0.70000000000E+03 0.  1.
         11    1    4    4    0    0  0.61849764053E+02 -0.91403937541E+02 -0.48406455589E+02  0.12051248091E+03  0.51100000000E-03 0.  1.
    -200002    1    4    4    0    0  0.96546964743E+02 -0.26341886223E+01 -0.48557398238E+01  0.10125133856E+03  0.30000000000E+02 0.  1.
    -200000    1    3    3    0    0  0.19155829171E+03  0.15509178399E+03  0.89953409884E+02  0.56465888511E+03  0.50000000000E+03 0. -1.
<mgrwt>
<rscale>  0 0.15713195E+04</rscale>
<asrwt>0</asrwt>
<pdfrwt beam="1">  1        2 0.11052674E+00 0.15713195E+04</pdfrwt>
<pdfrwt beam="2">  1       -2 0.11397394E+00 0.15713195E+04</pdfrwt>
<totfact> 0.23037011E+01</totfact>
</mgrwt>
</event>
<event>
 8    2  0.2588871E-009  0.1984547E+04  0.7818608E-02  0.8613880E-01
         -2   -1    0    0    0  501 -0.00000000000E+00  0.00000000000E+00  0.70815809657E+03  0.70815809657E+03  0.25500000000E-02 0. -1.
          2   -1    0    0  501    0  0.00000000000E+00 -0.00000000000E+00 -0.13903768035E+04  0.13903768035E+04  0.25500000000E-02 0.  1.
    -200001    2    1    2    0    0  0.62015101658E+01 -0.17422819799E+03  0.37967646225E+03  0.81478442820E+03  0.69951806606E+03 0.  0.
   -5000001    2    3    3    0    0 -0.52821777612E+02  0.24966192583E+02  0.15615501087E+03  0.22901656209E+03  0.15700556465E+03 0.  0.
     200001    1    1    2    0    0 -0.62015101658E+01  0.17422819799E+03 -0.10618951691E+04  0.12837504718E+04  0.70000000000E+03 0.  1.
         11    1    4    4    0    0  0.90302653179E+01  0.75181156104E+02  0.41923954802E+02  0.86552700197E+02  0.51100000000E-03 0.  1.
    -200002    1    4    4    0    0 -0.61852042930E+02 -0.50214963521E+02  0.11423105607E+03  0.14246386190E+03  0.30000000000E+02 0.  1.
    -200000    1    3    3    0    0  0.59023287778E+02 -0.19919439058E+03  0.22352145137E+03  0.58576786611E+03  0.50000000000E+03 0. -1.
<mgrwt>
<rscale>  0 0.19845469E+04</rscale>
<asrwt>0</asrwt>
<pdfrwt beam="1">  1        2 0.19862526E+00 0.19845469E+04</pdfrwt>
<pdfrwt beam="2">  1       -2 0.10116544E+00 0.19845469E+04</pdfrwt>
<totfact> 0.12568355E+01</totfact>
</mgrwt>
</event>
<event>
 8    2  0.2588871E-009  0.1486542E+04  0.7818608E-02  0.8893452E-01
         -2   -1    0    0    0  501 -0.00000000000E+00  0.00000000000E+00  0.87321525943E+03  0.87321525943E+03  0.25500000000E-02 0. -1.
          2   -1    0    0  501    0  0.00000000000E+00 -0.00000000000E+00 -0.63266402923E+03  0.63266402924E+03  0.25500000000E-02 0.  1.
    -200001    2    1    2    0    0 -0.10131619071E+03 -0.45755690194E+02  0.35545807760E+03  0.78785273118E+03  0.69426430659E+03 0.  0.
   -5000001    2    3    3    0    0 -0.25500691153E+02 -0.69001794660E+02  0.63251093902E+02  0.20332446611E+03  0.17868577090E+03 0.  0.
     200001    1    1    2    0    0  0.10131619071E+03  0.45755690194E+02 -0.11490684741E+03  0.71802655749E+03  0.70000000000E+03 0.  1.
         11    1    4    4    0    0 -0.42786999256E+02  0.29251122418E+02 -0.33038736129E+02  0.61464734225E+02  0.51100000000E-03 0.  1.
    -200002    1    4    4    0    0  0.17286308103E+02 -0.98252917078E+02  0.96289830031E+02  0.14185973188E+03  0.30000000000E+02 0.  1.
    -200000    1    3    3    0    0 -0.75815499554E+02  0.23246104466E+02  0.29220698370E+03  0.58452826507E+03  0.50000000000E+03 0. -1.
<mgrwt>
<rscale>  0 0.14865421E+04</rscale>
<asrwt>0</asrwt>
<pdfrwt beam="1">  1        2 0.90380576E-01 0.14865421E+04</pdfrwt>
<pdfrwt beam="2">  1       -2 0.12474504E+00 0.14865421E+04</pdfrwt>
<totfact> 0.23779015E+01</totfact>
</mgrwt>
</event>
<event>
 8    2  0.2588871E-009  0.2511384E+04  0.7818608E-02  0.8398941E-01
         -2   -1    0    0    0  501 -0.00000000000E+00  0.00000000000E+00  0.46078637604E+03  0.46078637604E+03  0.25500000000E-02 0. -1.
          2   -1    0    0  501    0  0.00000000000E+00 -0.00000000000E+00 -0.34218934065E+04  0.34218934065E+04  0.25500000000E-02 0.  1.
    -200001    2    1    2    0    0  0.89721809248E+03 -0.83397342779E+02 -0.22909187863E+04  0.25593855202E+04  0.70013565337E+03 0.  0.
   -5000001    2    3    3    0    0  0.24562078414E+03 -0.29847374246E+02 -0.74296318822E+03  0.80621319976E+03  0.19174198569E+03 0.  0.
     200001    1    1    2    0    0 -0.89721809248E+03  0.83397342779E+02 -0.67018824417E+03  0.13232942624E+04  0.70000000000E+03 0. -1.
         11    1    4    4    0    0  0.15040584243E+03  0.58452600667E+02 -0.53841979255E+03  0.56208050755E+03  0.51100000000E-03 0.  1.
    -200002    1    4    4    0    0  0.95214941711E+02 -0.88299974913E+02 -0.20454339567E+03  0.24413269221E+03  0.30000000000E+02 0.  1.
    -200000    1    3    3    0    0  0.65159730834E+03 -0.53549968533E+02 -0.15479555981E+04  0.17531723204E+04  0.50000000000E+03 0.  1.
<mgrwt>
<rscale>  0 0.25113836E+04</rscale>
<asrwt>0</asrwt>
<pdfrwt beam="1">  1        2 0.48884190E+00 0.25113836E+04</pdfrwt>
<pdfrwt beam="2">  1       -2 0.65826627E-01 0.25113836E+04</pdfrwt>
<totfact> 0.25524125E+00</totfact>
</mgrwt>
</event>
<event>
 8    2  0.2588871E-009  0.2023072E+04  0.7818608E-02  0.8595909E-01
          2   -1    0    0  501    0  0.00000000000E+00  0.00000000000E+00  0.10709208347E+04  0.10709208347E+04  0.25500000000E-02 0.  1.
         -2   -1    0    0    0  501 -0.00000000000E+00 -0.00000000000E+00 -0.95544408008E+03  0.95544408009E+03  0.25500000000E-02 0. -1.
    -200001    2    1    2    0    0  0.55258253029E+03 -0.45283611410E+03  0.20706800016E+03  0.10219760681E+04  0.70082089582E+03 0.  0.
   -5000001    2    3    3    0    0  0.91473607751E+02 -0.95759103051E+02 -0.68140785750E+01  0.22456088521E+03  0.18122895124E+03 0.  0.
     200001    1    1    2    0    0 -0.55258253029E+03  0.45283611410E+03 -0.91591245597E+02  0.10043888467E+04  0.70000000000E+03 0. -1.
         11    1    4    4    0    0 -0.10327524464E+02  0.28713954385E+02  0.43756999070E+02  0.53346264216E+02  0.51100000000E-03 0.  1.
    -200002    1    4    4    0    0  0.10180113221E+03 -0.12447305744E+03 -0.50571077645E+02  0.17121462099E+03  0.30000000000E+02 0.  1.
    -200000    1    3    3    0    0  0.46110892254E+03 -0.35707701105E+03  0.21388207874E+03  0.79741518287E+03  0.50000000000E+03 0. -1.
<mgrwt>
<rscale>  0 0.20230719E+04</rscale>
<asrwt>0</asrwt>
<pdfrwt beam="1">  1        2 0.15298869E+00 0.20230719E+04</pdfrwt>
<pdfrwt beam="2">  1       -2 0.13649201E+00 0.20230719E+04</pdfrwt>
<totfact> 0.90802240E+00</totfact>
</mgrwt>
</event>
<event>
 8    2  0.2588871E-009  0.1493167E+04  0.7818608E-02  0.8889010E-01
         -2   -1    0    0    0  501 -0.00000000000E+00  0.00000000000E+00  0.20147935706E+03  0.20147935707E+03  0.25500000000E-02 0. -1.
          2   -1    0    0  501    0  0.00000000000E+00 -0.00000000000E+00 -0.27664704180E+04  0.27664704180E+04  0.25500000000E-02 0.  1.
    -200001    2    1    2    0    0  0.11964300803E+03 -0.20981443157E+03 -0.14670819338E+04  0.16436609106E+04  0.70068198458E+03 0.  0.
   -5000001    2    3    3    0    0  0.42063882954E+02 -0.35493206028E+02 -0.81303016594E+02  0.15813419671E+03  0.12396413086E+03 0.  0.
     200001    1    1    2    0    0 -0.11964300803E+03  0.20981443157E+03 -0.10979091271E+04  0.13242888644E+04  0.70000000000E+03 0. -1.
         11    1    4    4    0    0 -0.25023910288E+02 -0.33376046452E+02  0.79850639216E+01  0.42472553596E+02  0.51100000000E-03 0.  1.
    -200002    1    4    4    0    0  0.67087793242E+02 -0.21171595758E+01 -0.89288080516E+02  0.11566164312E+03  0.30000000000E+02 0.  1.
    -200000    1    3    3    0    0  0.77579125078E+02 -0.17432122554E+03 -0.13857789172E+04  0.14855267139E+04  0.50000000000E+03 0.  1.
<mgrwt>
<rscale>  0 0.14931667E+04</rscale>
<asrwt>0</asrwt>
<pdfrwt beam="1">  1        2 0.39521004E+00 0.14931667E+04</pdfrwt>
<pdfrwt beam="2">  1       -2 0.28782767E-01 0.14931667E+04</pdfrwt>
<totfact> 0.34139728E+01</totfact>
</mgrwt>
</event>
<event>
 8    2  0.2588871E-009  0.1642635E+04  0.7818608E-02  0.8794776E-01
          2   -1    0    0  501    0  0.00000000000E+00  0.00000000000E+00  0.29307162424E+04  0.29307162424E+04  0.25500000000E-02 0.  1.
         -2   -1    0    0    0  501 -0.00000000000E+00 -0.00000000000E+00 -0.23016978194E+03  0.23016978196E+03  0.25500000000E-02 0. -1.
    -200001    2    1    2    0    0  0.21710992726E+03  0.31413306410E+03  0.17248920794E+04  0.19008392896E+04  0.70151337609E+03 0.  0.
   -5000001    2    3    3    0    0 -0.14659841611E+02  0.48624432960E+02  0.68072186122E+03  0.69067256410E+03  0.10520024726E+03 0.  0.
     200001    1    1    2    0    0 -0.21710992726E+03 -0.31413306410E+03  0.97565438099E+03  0.12600467347E+04  0.70000000000E+03 0.  1.
         11    1    4    4    0    0 -0.64052081015E+01 -0.28676499381E+02  0.10821088956E+03  0.11212923315E+03  0.51100000000E-03 0.  1.
    -200002    1    4    4    0    0 -0.82546335094E+01  0.77300932342E+02  0.57251097166E+03  0.57854333095E+03  0.30000000000E+02 0.  1.
    -200000    1    3    3    0    0  0.23176976887E+03  0.26550863114E+03  0.10441702182E+04  0.12101667255E+04  0.50000000000E+03 0. -1.
<mgrwt>
<rscale>  0 0.16426349E+04</rscale>
<asrwt>0</asrwt>
<pdfrwt beam="1">  1        2 0.41867375E+00 0.16426349E+04</pdfrwt>
<pdfrwt beam="2">  1       -2 0.32881397E-01 0.16426349E+04</pdfrwt>
<totfact> 0.21372158E+01</totfact>
</mgrwt>
</event>
<event>
 8    2  0.2588871E-009  0.1733450E+04  0.7818608E-02  0.8742513E-01
         -2   -1    0    0    0  501 -0.00000000000E+00  0.00000000000E+00  0.29020291847E+03  0.29020291848E+03  0.25500000000E-02 0. -1.
          2   -1    0    0  501    0  0.00000000000E+00 -0.00000000000E+00 -0.25885762046E+04  0.25885762046E+04  0.25500000000E-02 0.  1.
    -200001    2    1    2    0    0  0.30472413249E+03 -0.20203724093E+03 -0.55712475632E+03  0.96681095226E+03  0.70047096990E+03 0.  0.
   -5000001    2    3    3    0    0  0.17980123088E+03  0.28006390683E+02 -0.11064032322E+03  0.24717621659E+03  0.12546696927E+03 0.  0.
     200001    1    1    2    0    0 -0.30472413249E+03  0.20203724093E+03 -0.17412485298E+04  0.19119681708E+04  0.70000000000E+03 0.  1.
         11    1    4    4    0    0  0.12159297369E+03  0.59267878583E+02 -0.11041693340E+03  0.17461223286E+03  0.51100000000E-03 0.  1.
    -200002    1    4    4    0    0  0.58208257189E+02 -0.31261487901E+02 -0.22338981525E+00  0.72563983723E+02  0.30000000000E+02 0.  1.
    -200000    1    3    3    0    0  0.12492290161E+03 -0.23004363161E+03 -0.44648443310E+03  0.71963473568E+03  0.50000000000E+03 0. -1.
<mgrwt>
<rscale>  0 0.17334502E+04</rscale>
<asrwt>0</asrwt>
<pdfrwt beam="1">  1        2 0.36979659E+00 0.17334502E+04</pdfrwt>
<pdfrwt beam="2">  1       -2 0.41457561E-01 0.17334502E+04</pdfrwt>
<totfact> 0.20765537E+01</totfact>
</mgrwt>
</event>
<event>
 8    2  0.2588871E-009  0.1593545E+04  0.7818608E-02  0.8824523E-01
         -2   -1    0    0    0  501 -0.00000000000E+00  0.00000000000E+00  0.12989448968E+04  0.12989448968E+04  0.25500000000E-02 0. -1.
          2   -1    0    0  501    0  0.00000000000E+00 -0.00000000000E+00 -0.48874002664E+03  0.48874002664E+03  0.25500000000E-02 0.  1.
    -200001    2    1    2    0    0  0.26631121432E+03  0.23765760599E+03  0.55439296291E+03  0.96134205728E+03  0.69958858854E+03 0.  0.
   -5000001    2    3    3    0    0  0.97067573143E+02  0.60018345115E+02  0.24222681617E+02  0.19239495620E+03  0.15298616069E+03 0.  0.
     200001    1    1    2    0    0 -0.26631121432E+03 -0.23765760599E+03  0.25581190724E+03  0.82634286615E+03  0.70000000000E+03 0.  1.
         11    1    4    4    0    0 -0.12053284053E+02 -0.13911486770E+02 -0.39028435907E+02  0.43151244828E+02  0.51100000000E-03 0.  1.
    -200002    1    4    4    0    0  0.10912085720E+03  0.73929831885E+02  0.63251117524E+02  0.14924371138E+03  0.30000000000E+02 0.  1.
    -200000    1    3    3    0    0  0.16924364118E+03  0.17763926087E+03  0.53017028129E+03  0.76894710107E+03  0.50000000000E+03 0. -1.
<mgrwt>
<rscale>  0 0.15935449E+04</rscale>
<asrwt>0</asrwt>
<pdfrwt beam="1">  1        2 0.69820004E-01 0.15935449E+04</pdfrwt>
<pdfrwt beam="2">  1       -2 0.18556355E+00 0.15935449E+04</pdfrwt>
<totfact> 0.10995582E+01</totfact>
</mgrwt>
</event>
<event>
 8    2  0.2588871E-009  0.1570077E+04  0.7818608E-02  0.8839145E-01
         -2   -1    0    0    0  501 -0.00000000000E+00  0.00000000000E+00  0.58704878921E+03  0.58704878922E+03  0.25500000000E-02 0. -1.
          2   -1    0    0  501    0  0.00000000000E+00 -0.00000000000E+00 -0.10498023424E+04  0.10498023424E+04  0.25500000000E-02 0.  1.
    -200001    2    1    2    0    0  0.29500227102E+03  0.81755299096E+02 -0.41773100186E+03  0.87151636892E+03  0.70095029963E+03 0.  0.
   -5000001    2    3    3    0    0  0.11218286171E+03  0.53421591142E+02 -0.15123442950E+03  0.27549106870E+03  0.19386752025E+03 0.  0.
     200001    1    1    2    0    0 -0.29500227102E+03 -0.81755299096E+02 -0.45022551310E+02  0.76533476268E+03  0.70000000000E+03 0. -1.
         11    1    4    4    0    0  0.90541763127E+02  0.16627792648E+02  0.21934544767E+02  0.94633073568E+02  0.51100000000E-03 0.  1.
    -200002    1    4    4    0    0  0.21641098584E+02  0.36793798494E+02 -0.17316897426E+03  0.18085799513E+03  0.30000000000E+02 0.  1.
    -200000    1    3    3    0    0  0.18281940931E+03  0.28333707954E+02 -0.26649657236E+03  0.59602530022E+03  0.50000000000E+03 0.  1.
<mgrwt>
<rscale>  0 0.15700767E+04</rscale>
<asrwt>0</asrwt>
<pdfrwt beam="1">  1        2 0.14997176E+00 0.15700767E+04</pdfrwt>
<pdfrwt beam="2">  1       -2 0.83864114E-01 0.15700767E+04</pdfrwt>
<totfact> 0.31336068E+01</totfact>
</mgrwt>
</event>
<event>
 8    2  0.2588871E-009  0.2155879E+04  0.7818608E-02  0.8537020E-01
          2   -1    0    0  501    0  0.00000000000E+00  0.00000000000E+00  0.24838083241E+04  0.24838083241E+04  0.25500000000E-02 0.  1.
         -2   -1    0    0    0  501 -0.00000000000E+00 -0.00000000000E+00 -0.46781134841E+03  0.46781134842E+03  0.25500000000E-02 0. -1.
    -200001    2    1    2    0    0 -0.63569323659E+03  0.39891493152E+01  0.29802127445E+03  0.99060913854E+03  0.69883329985E+03 0.  0.
   -5000001    2    3    3    0    0 -0.19118624749E+03  0.90021209276E+00 -0.27910510004E+02  0.24641324161E+03  0.15292971412E+03 0.  0.
     200001    1    1    2    0    0  0.63569323659E+03 -0.39891493152E+01  0.17179757013E+04  0.19610105340E+04  0.70000000000E+03 0. -1.
         11    1    4    4    0    0 -0.43217430918E+02  0.66818448468E+02 -0.16692056012E+01  0.79594206061E+02  0.51100000000E-03 0.  1.
    -200002    1    4    4    0    0 -0.14796881657E+03 -0.65918236376E+02 -0.26241304403E+02  0.16681903555E+03  0.30000000000E+02 0.  1.
    -200000    1    3    3    0    0 -0.44450698910E+03  0.30889372224E+01  0.32593178446E+03  0.74419589693E+03  0.50000000000E+03 0.  1.
<mgrwt>
<rscale>  0 0.21558791E+04</rscale>
<asrwt>0</asrwt>
<pdfrwt beam="1">  1        2 0.35482977E+00 0.21558791E+04</pdfrwt>
<pdfrwt beam="2">  1       -2 0.66830192E-01 0.21558791E+04</pdfrwt>
<totfact> 0.85152653E+00</totfact>
</mgrwt>
</event>
<event>
 8    2  0.2588871E-009  0.2845404E+04  0.7818608E-02  0.8289309E-01
         -2   -1    0    0    0  501 -0.00000000000E+00  0.00000000000E+00  0.14483346093E+04  0.14483346093E+04  0.25500000000E-02 0. -1.
          2   -1    0    0  501    0  0.00000000000E+00 -0.00000000000E+00 -0.13975231193E+04  0.13975231193E+04  0.25500000000E-02 0.  1.
    -200001    2    1    2    0    0 -0.92495779135E+03  0.69122045811E+02  0.84632509667E+03  0.14376082225E+04  0.70009032215E+03 0.  0.
   -5000001    2    3    3    0    0 -0.25056274052E+03  0.10604961791E+03  0.18695661299E+03  0.36946070112E+03  0.16589221241E+03 0.  0.
     200001    1    1    2    0    0  0.92495779135E+03 -0.69122045811E+02 -0.79551360671E+03  0.14082495061E+04  0.70000000000E+03 0.  1.
         11    1    4    4    0    0  0.21755680387E+02  0.40975787782E+01 -0.59555940861E+00  0.22146206723E+02  0.51100000000E-03 0.  1.
    -200002    1    4    4    0    0 -0.27231842091E+03  0.10195203913E+03  0.18755217240E+03  0.34731449440E+03  0.30000000000E+02 0.  1.
    -200000    1    3    3    0    0 -0.67439505083E+03 -0.36927572097E+02  0.65936848368E+03  0.10681475214E+04  0.50000000000E+03 0. -1.
<mgrwt>
<rscale>  0 0.28454041E+04</rscale>
<asrwt>0</asrwt>
<pdfrwt beam="1">  1        2 0.19964616E+00 0.28454041E+04</pdfrwt>
<pdfrwt beam="2">  1       -2 0.20690494E+00 0.28454041E+04</pdfrwt>
<totfact> 0.17373062E+00</totfact>
</mgrwt>
</event>
<event>
 8    2  0.2588871E-009  0.1552624E+04  0.7818608E-02  0.8850193E-01
          2   -1    0    0  501    0  0.00000000000E+00  0.00000000000E+00  0.32129670734E+04  0.32129670734E+04  0.25500000000E-02 0.  1.
         -2   -1    0    0    0  501 -0.00000000000E+00 -0.00000000000E+00 -0.18757132082E+03  0.18757132084E+03  0.25500000000E-02 0. -1.
    -200001    2    1    2    0    0  0.44637051753E+02 -0.10735976797E+03  0.82384660322E+03  0.10874587927E+04  0.70023197152E+03 0.  0.
   -5000001    2    3    3    0    0 -0.32421224820E+02 -0.89978741015E+02  0.10716458094E+03  0.21003460839E+03  0.15324157289E+03 0.  0.
     200001    1    1    2    0    0 -0.44637051753E+02  0.10735976797E+03  0.22015491493E+04  0.23130796016E+04  0.70000000000E+03 0.  1.
         11    1    4    4    0    0 -0.14577393677E+02 -0.82693565353E+02 -0.12749673910E+02  0.84931032858E+02  0.51100000000E-03 0.  1.
    -200002    1    4    4    0    0 -0.17843831142E+02 -0.72851756614E+01  0.11991425486E+03  0.12510357554E+03  0.30000000000E+02 0.  1.
    -200000    1    3    3    0    0  0.77058276573E+02 -0.17381026956E+02  0.71668202227E+03  0.87742418427E+03  0.50000000000E+03 0. -1.
<mgrwt>
<rscale>  0 0.15526242E+04</rscale>
<asrwt>0</asrwt>
<pdfrwt beam="1">  1        2 0.45899527E+00 0.15526242E+04</pdfrwt>
<pdfrwt beam="2">  1       -2 0.26795905E-01 0.15526242E+04</pdfrwt>
<totfact> 0.21859263E+01</totfact>
</mgrwt>
</event>
<event>
 8    2  0.2588871E-009  0.1759992E+04  0.7818608E-02  0.8727869E-01
          2   -1    0    0  501    0  0.00000000000E+00  0.00000000000E+00  0.33650212979E+04  0.33650212979E+04  0.25500000000E-02 0.  1.
         -2   -1    0    0    0  501 -0.00000000000E+00 -0.00000000000E+00 -0.23013029648E+03  0.23013029649E+03  0.25500000000E-02 0. -1.
    -200001    2    1    2    0    0  0.37458119260E+03  0.15316917971E+03  0.85882006926E+03  0.11797280796E+04  0.70029605385E+03 0.  0.
   -5000001    2    3    3    0    0  0.49892152175E+02  0.88212017899E+02  0.24441447037E+03  0.32116145683E+03  0.18203203310E+03 0.  0.
     200001    1    1    2    0    0 -0.37458119260E+03 -0.15316917971E+03  0.22760709322E+04  0.24154235148E+04  0.70000000000E+03 0.  1.
         11    1    4    4    0    0  0.49880615501E+02  0.36677828917E+02  0.25340337518E+03  0.26085745052E+03  0.51100000000E-03 0.  1.
    -200002    1    4    4    0    0  0.11536673582E-01  0.51534188981E+02 -0.89889048147E+01  0.60304006308E+02  0.30000000000E+02 0.  1.
    -200000    1    3    3    0    0  0.32468904042E+03  0.64957161811E+02  0.61440559890E+03  0.85856662281E+03  0.50000000000E+03 0. -1.
<mgrwt>
<rscale>  0 0.17599924E+04</rscale>
<asrwt>0</asrwt>
<pdfrwt beam="1">  1        2 0.48071735E+00 0.17599924E+04</pdfrwt>
<pdfrwt beam="2">  1       -2 0.32875755E-01 0.17599924E+04</pdfrwt>
<totfact> 0.11947472E+01</totfact>
</mgrwt>
</event>
<event>
 8    2  0.2588871E-009  0.1598182E+04  0.7818608E-02  0.8821665E-01
          2   -1    0    0  501    0  0.00000000000E+00  0.00000000000E+00  0.75017283812E+03  0.75017283813E+03  0.25500000000E-02 0.  1.
         -2   -1    0    0    0  501 -0.00000000000E+00 -0.00000000000E+00 -0.85119948487E+03  0.85119948487E+03  0.25500000000E-02 0. -1.
    -200001    2    1    2    0    0 -0.31792739665E+03 -0.12729019835E+00  0.16781122847E+03  0.78690829746E+03  0.69999015313E+03 0.  0.
   -5000001    2    3    3    0    0 -0.74631852062E+02  0.51918636293E+02  0.19683397025E+02  0.20911650544E+03  0.18728806313E+03 0.  0.
     200001    1    1    2    0    0  0.31792739665E+03  0.12729019835E+00 -0.26883787521E+03  0.81446402554E+03  0.70000000000E+03 0. -1.
         11    1    4    4    0    0 -0.10977260836E+03  0.67473701405E+02 -0.37282457861E+02  0.13413689870E+03  0.51100000000E-03 0.  1.
    -200002    1    4    4    0    0  0.35140756303E+02 -0.15555065112E+02  0.56965854886E+02  0.74979606741E+02  0.30000000000E+02 0.  1.
    -200000    1    3    3    0    0 -0.24329554459E+03 -0.52045926492E+02  0.14812783145E+03  0.57779179202E+03  0.50000000000E+03 0.  1.
<mgrwt>
<rscale>  0 0.15981824E+04</rscale>
<asrwt>0</asrwt>
<pdfrwt beam="1">  1        2 0.10716755E+00 0.15981824E+04</pdfrwt>
<pdfrwt beam="2">  1       -2 0.12159993E+00 0.15981824E+04</pdfrwt>
<totfact> 0.20382224E+01</totfact>
</mgrwt>
</event>
<event>
 8    2  0.2588871E-009  0.1611298E+04  0.7818608E-02  0.8813637E-01
         -2   -1    0    0    0  501 -0.00000000000E+00  0.00000000000E+00  0.28726022293E+03  0.28726022294E+03  0.25500000000E-02 0. -1.
          2   -1    0    0  501    0  0.00000000000E+00 -0.00000000000E+00 -0.22595195040E+04  0.22595195040E+04  0.25500000000E-02 0.  1.
    -200001    2    1    2    0    0  0.33400997469E+03 -0.20663719553E+03 -0.11120563245E+04  0.13702548779E+04  0.69761563052E+03 0.  0.
   -5000001    2    3    3    0    0  0.85976493984E+02 -0.89220657284E+02 -0.42399210077E+03  0.47653253462E+03  0.17877827561E+03 0.  0.
     200001    1    1    2    0    0 -0.33400997469E+03  0.20663719553E+03 -0.86020295658E+03  0.11765248490E+04  0.70000000000E+03 0.  1.
         11    1    4    4    0    0  0.13420862296E+03 -0.68005301777E+02 -0.34931957211E+03  0.38034305436E+03  0.51100000000E-03 0.  1.
    -200002    1    4    4    0    0 -0.48232128975E+02 -0.21215355507E+02 -0.74672528666E+02  0.96189480257E+02  0.30000000000E+02 0.  1.
    -200000    1    3    3    0    0  0.24803348071E+03 -0.11741653825E+03 -0.68806422368E+03  0.89372234330E+03  0.50000000000E+03 0.  1.
<mgrwt>
<rscale>  0 0.16112977E+04</rscale>
<asrwt>0</asrwt>
<pdfrwt beam="1">  1        2 0.32278849E+00 0.16112977E+04</pdfrwt>
<pdfrwt beam="2">  1       -2 0.41037176E-01 0.16112977E+04</pdfrwt>
<totfact> 0.31813456E+01</totfact>
</mgrwt>
</event>
<event>
 8    2  0.2588871E-009  0.1777856E+04  0.7818608E-02  0.8718165E-01
          2   -1    0    0  501    0  0.00000000000E+00  0.00000000000E+00  0.85204955381E+03  0.85204955382E+03  0.25500000000E-02 0.  1.
         -2   -1    0    0    0  501 -0.00000000000E+00 -0.00000000000E+00 -0.92740242572E+03  0.92740242572E+03  0.25500000000E-02 0. -1.
    -200001    2    1    2    0    0  0.86264774441E+01  0.43179755884E+03 -0.37368891984E+03  0.90450744105E+03  0.70140341756E+03 0.  0.
   -5000001    2    3    3    0    0 -0.22362839735E+02  0.21849737473E+03 -0.13552130733E+03  0.31021700871E+03  0.17212602473E+03 0.  0.
     200001    1    1    2    0    0 -0.86264774441E+01 -0.43179755884E+03  0.29833604794E+03  0.87494453849E+03  0.70000000000E+03 0.  1.
         11    1    4    4    0    0 -0.13963041332E+02  0.15786417259E+03  0.40596699199E-01  0.15848048826E+03  0.51100000000E-03 0.  1.
    -200002    1    4    4    0    0 -0.83997984036E+01  0.60633202138E+02 -0.13556190403E+03  0.15173652045E+03  0.30000000000E+02 0.  1.
    -200000    1    3    3    0    0  0.30989317179E+02  0.21330018412E+03 -0.23816761251E+03  0.59429043234E+03  0.50000000000E+03 0. -1.
<mgrwt>
<rscale>  0 0.17778558E+04</rscale>
<asrwt>0</asrwt>
<pdfrwt beam="1">  1        2 0.12172137E+00 0.17778558E+04</pdfrwt>
<pdfrwt beam="2">  1       -2 0.13248606E+00 0.17778558E+04</pdfrwt>
<totfact> 0.13738905E+01</totfact>
</mgrwt>
</event>
<event>
 8    2  0.2588871E-009  0.2039226E+04  0.7818608E-02  0.8588498E-01
         -2   -1    0    0    0  501 -0.00000000000E+00  0.00000000000E+00  0.13434586890E+04  0.13434586890E+04  0.25500000000E-02 0. -1.
          2   -1    0    0  501    0  0.00000000000E+00 -0.00000000000E+00 -0.77383175712E+03  0.77383175713E+03  0.25500000000E-02 0.  1.
    -200001    2    1    2    0    0 -0.36273036335E+03 -0.64334507699E+03  0.40199084172E+03  0.10859960830E+04  0.68725879476E+03 0.  0.
   -5000001    2    3    3    0    0 -0.14333700433E+03 -0.14228706815E+03  0.16487634634E+03  0.30791134594E+03  0.16381111318E+03 0.  0.
     200001    1    1    2    0    0  0.36273036335E+03  0.64334507699E+03  0.16763609015E+03  0.10312943631E+04  0.70000000000E+03 0.  1.
         11    1    4    4    0    0 -0.18026015334E+02 -0.12619106436E+03  0.59471223771E+02  0.14066253379E+03  0.51100000000E-03 0.  1.
    -200002    1    4    4    0    0 -0.12531098900E+03 -0.16096003787E+02  0.10540512257E+03  0.16724881215E+03  0.30000000000E+02 0.  1.
    -200000    1    3    3    0    0 -0.21939335902E+03 -0.50105800884E+03  0.23711449538E+03  0.77808473711E+03  0.50000000000E+03 0. -1.
<mgrwt>
<rscale>  0 0.20392263E+04</rscale>
<asrwt>0</asrwt>
<pdfrwt beam="1">  1        2 0.11054739E+00 0.20392263E+04</pdfrwt>
<pdfrwt beam="2">  1       -2 0.19192267E+00 0.20392263E+04</pdfrwt>
<totfact> 0.55465739E+00</totfact>
</mgrwt>
</event>
<event>
 8    2  0.2588871E-009  0.1645278E+04  0.7818608E-02  0.8793205E-01
          2   -1    0    0  501    0  0.00000000000E+00  0.00000000000E+00  0.85870742067E+03  0.85870742067E+03  0.25500000000E-02 0.  1.
         -2   -1    0    0    0  501 -0.00000000000E+00 -0.00000000000E+00 -0.78808554521E+03  0.78808554522E+03  0.25500000000E-02 0. -1.
    -200001    2    1    2    0    0 -0.11617271811E+03 -0.41013737567E+03 -0.26299692614E+02  0.82150358773E+03  0.70176043167E+03 0.  0.
   -5000001    2    3    3    0    0 -0.73946925740E+02 -0.88338745414E+02 -0.51943123128E+02  0.22485045440E+03  0.18597784018E+03 0.  0.
     200001    1    1    2    0    0  0.11617271811E+03  0.41013737567E+03  0.96921568074E+02  0.82528937816E+03  0.70000000000E+03 0. -1.
         11    1    4    4    0    0  0.20999790272E+02  0.37281262899E+02 -0.48278395664E+02  0.64511140456E+02  0.51100000000E-03 0.  1.
    -200002    1    4    4    0    0 -0.94946716011E+02 -0.12562000831E+03 -0.36647274639E+01  0.16033931395E+03  0.30000000000E+02 0.  1.
    -200000    1    3    3    0    0 -0.42225792370E+02 -0.32179863025E+03  0.25643430514E+02  0.59665313332E+03  0.50000000000E+03 0.  1.
<mgrwt>
<rscale>  0 0.16452780E+04</rscale>
<asrwt>0</asrwt>
<pdfrwt beam="1">  1        2 0.12267249E+00 0.16452780E+04</pdfrwt>
<pdfrwt beam="2">  1       -2 0.11258365E+00 0.16452780E+04</pdfrwt>
<totfact> 0.20608053E+01</totfact>
</mgrwt>
</event>
<event>
 8    2  0.2588871E-009  0.1414795E+04  0.7818608E-02  0.8943178E-01
          2   -1    0    0  501    0  0.00000000000E+00  0.00000000000E+00  0.74517395153E+03  0.74517395153E+03  0.25500000000E-02 0.  1.
         -2   -1    0    0    0  501 -0.00000000000E+00 -0.00000000000E+00 -0.67153629371E+03  0.67153629371E+03  0.25500000000E-02 0. -1.
    -200001    2    1    2    0    0  0.31223426138E+02 -0.63043187629E+02  0.10872918916E+03  0.71230925049E+03  0.70043778161E+03 0.  0.
   -5000001    2    3    3    0    0 -0.68126923383E+02 -0.23219295390E+02  0.42123232506E+02  0.19666132040E+03  0.17810360708E+03 0.  0.
     200001    1    1    2    0    0 -0.31223426138E+02  0.63043187629E+02 -0.35091531340E+02  0.70440099476E+03  0.70000000000E+03 0. -1.
         11    1    4    4    0    0 -0.11824044475E+02 -0.32975710712E+01  0.10451318463E+03  0.10523159110E+03  0.51100000000E-03 0.  1.
    -200002    1    4    4    0    0 -0.56302878909E+02 -0.19921724319E+02 -0.62389952128E+02  0.91429729299E+02  0.30000000000E+02 0.  1.
    -200000    1    3    3    0    0  0.99350349521E+02 -0.39823892239E+02  0.66605956654E+02  0.51564793009E+03  0.50000000000E+03 0.  1.
<mgrwt>
<rscale>  0 0.14147952E+04</rscale>
<asrwt>0</asrwt>
<pdfrwt beam="1">  1        2 0.10645342E+00 0.14147952E+04</pdfrwt>
<pdfrwt beam="2">  1       -2 0.95933756E-01 0.14147952E+04</pdfrwt>
<totfact> 0.36933648E+01</totfact>
</mgrwt>
</event>
<event>
 8    2  0.2588871E-009  0.1957701E+04  0.7818608E-02  0.8626656E-01
         -2   -1    0    0    0  501 -0.00000000000E+00  0.00000000000E+00  0.36618635539E+03  0.36618635540E+03  0.25500000000E-02 0. -1.
          2   -1    0    0  501    0  0.00000000000E+00 -0.00000000000E+00 -0.26165587069E+04  0.26165587069E+04  0.25500000000E-02 0.  1.
    -200001    2    1    2    0    0 -0.32654636678E+02 -0.29529682845E+03 -0.18689094261E+03  0.78360385104E+03  0.70059990632E+03 0.  0.
   -5000001    2    3    3    0    0  0.17144315786E+02 -0.56988992572E+02 -0.58791974435E+02  0.21292013307E+03  0.19579789062E+03 0.  0.
     200001    1    1    2    0    0  0.32654636678E+02  0.29529682845E+03 -0.20634814089E+04  0.21991412112E+04  0.70000000000E+03 0.  1.
         11    1    4    4    0    0 -0.76140174833E+02  0.20982812785E+02 -0.29545628724E+02  0.84324070306E+02  0.51100000000E-03 0.  1.
    -200002    1    4    4    0    0  0.93284490619E+02 -0.77971805356E+02 -0.29246345711E+02  0.12859606276E+03  0.30000000000E+02 0.  1.
    -200000    1    3    3    0    0 -0.49798952463E+02 -0.23830783588E+03 -0.12809896817E+03  0.57068371797E+03  0.50000000000E+03 0. -1.
<mgrwt>
<rscale>  0 0.19577008E+04</rscale>
<asrwt>0</asrwt>
<pdfrwt beam="1">  1        2 0.37379409E+00 0.19577008E+04</pdfrwt>
<pdfrwt beam="2">  1       -2 0.52312338E-01 0.19577008E+04</pdfrwt>
<totfact> 0.12335993E+01</totfact>
</mgrwt>
</event>
<event>
 8    2  0.2588871E-009  0.1557487E+04  0.7818608E-02  0.8847100E-01
          2   -1    0    0  501    0  0.00000000000E+00  0.00000000000E+00  0.64785339249E+03  0.64785339250E+03  0.25500000000E-02 0.  1.
         -2   -1    0    0    0  501 -0.00000000000E+00 -0.00000000000E+00 -0.93607786053E+03  0.93607786053E+03  0.25500000000E-02 0. -1.
    -200001    2    1    2    0    0 -0.31164458908E+03 -0.12131249329E+03 -0.21189296860E+03  0.80440218447E+03  0.70023222812E+03 0.  0.
   -5000001    2    3    3    0    0 -0.12420603186E+03 -0.50226125629E+02 -0.14003824092E+03  0.26094143493E+03  0.17472813596E+03 0.  0.
     200001    1    1    2    0    0  0.31164458908E+03  0.12131249329E+03 -0.76331499428E+02  0.77952906856E+03  0.70000000000E+03 0.  1.
         11    1    4    4    0    0  0.15678082164E+02  0.14704787778E+02  0.25073488027E+02  0.33025942016E+02  0.51100000000E-03 0.  1.
    -200002    1    4    4    0    0 -0.13988411403E+03 -0.64930913407E+02 -0.16511172895E+03  0.22791549291E+03  0.30000000000E+02 0.  1.
    -200000    1    3    3    0    0 -0.18743855722E+03 -0.71086367660E+02 -0.71854727684E+02  0.54346074954E+03  0.50000000000E+03 0.  1.
<mgrwt>
<rscale>  0 0.15574867E+04</rscale>
<asrwt>0</asrwt>
<pdfrwt beam="1">  1        2 0.92550486E-01 0.15574867E+04</pdfrwt>
<pdfrwt beam="2">  1       -2 0.13372541E+00 0.15574867E+04</pdfrwt>
<totfact> 0.19278287E+01</totfact>
</mgrwt>
</event>
<event>
 8    2  0.2588871E-009  0.1921029E+04  0.7818608E-02  0.8644459E-01
          2   -1    0    0  501    0  0.00000000000E+00  0.00000000000E+00  0.46601316491E+03  0.46601316492E+03  0.25500000000E-02 0.  1.
         -2   -1    0    0    0  501 -0.00000000000E+00 -0.00000000000E+00 -0.19797478530E+04  0.19797478530E+04  0.25500000000E-02 0. -1.
    -200001    2    1    2    0    0  0.64617721886E+03 -0.81149722655E+02 -0.66797369845E+03  0.11692650613E+04  0.70488413664E+03 0.  0.
   -5000001    2    3    3    0    0  0.10548679324E+03 -0.10506211399E+02 -0.20019741750E+03  0.29396437521E+03  0.18734514644E+03 0.  0.
     200001    1    1    2    0    0 -0.64617721886E+03  0.81149722655E+02 -0.84576098960E+03  0.12764959566E+04  0.70000000000E+03 0. -1.
         11    1    4    4    0    0 -0.43120284582E+02 -0.41978305456E+02 -0.62384409983E+02  0.86679592065E+02  0.51100000000E-03 0.  1.
    -200002    1    4    4    0    0  0.14860707783E+03  0.31472094057E+02 -0.13781300752E+03  0.20728478315E+03  0.30000000000E+02 0.  1.
    -200000    1    3    3    0    0  0.54069042562E+03 -0.70643511257E+02 -0.46777628095E+03  0.87530068609E+03  0.50000000000E+03 0.  1.
<mgrwt>
<rscale>  0 0.19210295E+04</rscale>
<asrwt>0</asrwt>
<pdfrwt beam="1">  1        2 0.66573310E-01 0.19210295E+04</pdfrwt>
<pdfrwt beam="2">  1       -2 0.28282112E+00 0.19210295E+04</pdfrwt>
<totfact> 0.27646244E+00</totfact>
</mgrwt>
</event>
<event>
 8    2  0.2588871E-009  0.1495005E+04  0.7818608E-02  0.8887781E-01
         -2   -1    0    0    0  501 -0.00000000000E+00  0.00000000000E+00  0.19708977718E+03  0.19708977719E+03  0.25500000000E-02 0. -1.
          2   -1    0    0  501    0  0.00000000000E+00 -0.00000000000E+00 -0.28350528937E+04  0.28350528937E+04  0.25500000000E-02 0.  1.
    -200001    2    1    2    0    0  0.24840566036E+03 -0.70407149080E+02 -0.14282496965E+04  0.16108513224E+04  0.69877195750E+03 0.  0.
   -5000001    2    3    3    0    0  0.96822519367E+02 -0.75040096948E+02 -0.16074620654E+03  0.23987940076E+03  0.12921752044E+03 0.  0.
     200001    1    1    2    0    0 -0.24840566036E+03  0.70407149080E+02 -0.12097134200E+04  0.14212913485E+04  0.70000000000E+03 0. -1.
         11    1    4    4    0    0  0.59592737261E+02  0.13008422189E+01 -0.48162019829E+01  0.59801190009E+02  0.51100000000E-03 0.  1.
    -200002    1    4    4    0    0  0.37229782107E+02 -0.76340939167E+02 -0.15593000455E+03  0.18007821075E+03  0.30000000000E+02 0.  1.
    -200000    1    3    3    0    0  0.15158314099E+03  0.46329478678E+01 -0.12675034900E+04  0.13709719217E+04  0.50000000000E+03 0.  1.
<mgrwt>
<rscale>  0 0.14950049E+04</rscale>
<asrwt>0</asrwt>
<pdfrwt beam="1">  1        2 0.40500753E+00 0.14950049E+04</pdfrwt>
<pdfrwt beam="2">  1       -2 0.28155684E-01 0.14950049E+04</pdfrwt>
<totfact> 0.32636538E+01</totfact>
</mgrwt>
</event>
<event>
 8    2  0.2588871E-009  0.1697707E+04  0.7818608E-02  0.8762673E-01
          2   -1    0    0  501    0  0.00000000000E+00  0.00000000000E+00  0.49420123643E+04  0.49420123643E+04  0.25500000000E-02 0.  1.
         -2   -1    0    0    0  501 -0.00000000000E+00 -0.00000000000E+00 -0.14580139230E+03  0.14580139232E+03  0.25500000000E-02 0. -1.
    -200001    2    1    2    0    0  0.23745811705E+03 -0.32482247436E+03  0.31637600257E+04  0.32666075384E+04  0.70671869402E+03 0.  0.
   -5000001    2    3    3    0    0  0.27430754527E+02 -0.14203144174E+03  0.83314252303E+03  0.86675295981E+03  0.19028623943E+03 0.  0.
     200001    1    1    2    0    0 -0.23745811705E+03  0.32482247436E+03  0.16324509462E+04  0.18212062182E+04  0.70000000000E+03 0. -1.
         11    1    4    4    0    0  0.53800713805E+02 -0.30019663083E+02  0.65377643514E+02  0.89832807199E+02  0.51100000000E-03 0.  1.
    -200002    1    4    4    0    0 -0.26369959278E+02 -0.11201177866E+03  0.76776487952E+03  0.77692015261E+03  0.30000000000E+02 0.  1.
    -200000    1    3    3    0    0  0.21002736252E+03 -0.18279103261E+03  0.23306175027E+04  0.23998545786E+04  0.50000000000E+03 0.  1.
<mgrwt>
<rscale>  0 0.16977070E+04</rscale>
<asrwt>0</asrwt>
<pdfrwt beam="1">  1        2 0.70600156E+00 0.16977070E+04</pdfrwt>
<pdfrwt beam="2">  1       -2 0.20828777E-01 0.16977070E+04</pdfrwt>
<totfact> 0.19576578E+00</totfact>
</mgrwt>
</event>
<event>
 8    2  0.2588871E-009  0.1480188E+04  0.7818608E-02  0.8897736E-01
          2   -1    0    0  501    0  0.00000000000E+00  0.00000000000E+00  0.10985186685E+04  0.10985186685E+04  0.25500000000E-02 0. -1.
         -2   -1    0    0    0  501 -0.00000000000E+00 -0.00000000000E+00 -0.49861595258E+03  0.49861595259E+03  0.25500000000E-02 0.  1.
    -200001    2    1    2    0    0  0.26741519160E+01  0.14124100110E+03  0.90949615742E+02  0.72021419732E+03  0.70034312014E+03 0.  0.
   -5000001    2    3    3    0    0 -0.65742361610E+02  0.55293982912E+02 -0.17858188301E+02  0.19685309112E+03  0.17621788200E+03 0.  0.
     200001    1    1    2    0    0 -0.26741519160E+01 -0.14124100110E+03  0.50895310020E+03  0.87692042381E+03  0.70000000000E+03 0. -1.
         11    1    4    4    0    0 -0.37674414798E+02  0.78502182129E+02 -0.80394571234E+02  0.11851262048E+03  0.51100000000E-03 0.  1.
    -200002    1    4    4    0    0 -0.28067946812E+02 -0.23208199217E+02  0.62536382933E+02  0.78340470636E+02  0.30000000000E+02 0.  1.
    -200000    1    3    3    0    0  0.68416513526E+02  0.85947018191E+02  0.10880780404E+03  0.52336110620E+03  0.50000000000E+03 0.  1.
<mgrwt>
<rscale>  0 0.14801877E+04</rscale>
<asrwt>0</asrwt>
<pdfrwt beam="1">  1        2 0.15693124E+00 0.14801877E+04</pdfrwt>
<pdfrwt beam="2">  1       -2 0.71230850E-01 0.14801877E+04</pdfrwt>
<totfact> 0.42462931E+01</totfact>
</mgrwt>
</event>
<event>
 8    2  0.2588871E-009  0.1705888E+04  0.7818608E-02  0.8758014E-01
         -2   -1    0    0    0  501 -0.00000000000E+00  0.00000000000E+00  0.15501424420E+04  0.15501424420E+04  0.25500000000E-02 0. -1.
          2   -1    0    0  501    0  0.00000000000E+00 -0.00000000000E+00 -0.46932016866E+03  0.46932016867E+03  0.25500000000E-02 0.  1.
    -200001    2    1    2    0    0  0.43158582448E+03  0.15929782821E+03  0.72962675608E+03  0.11111782866E+04  0.70051399666E+03 0.  0.
   -5000001    2    3    3    0    0  0.18048315217E+03 -0.35056176940E+02  0.18550506623E+03  0.30688080141E+03  0.16112291245E+03 0.  0.
     200001    1    1    2    0    0 -0.43158582448E+03 -0.15929782821E+03  0.35119551727E+03  0.90828432405E+03  0.70000000000E+03 0.  1.
         11    1    4    4    0    0  0.65727740424E+02  0.29680703411E+02  0.15111956290E+03  0.16744611763E+03  0.51100000000E-03 0.  1.
    -200002    1    4    4    0    0  0.11475541174E+03 -0.64736880351E+02  0.34385503330E+02  0.13943468378E+03  0.30000000000E+02 0.  1.
    -200000    1    3    3    0    0  0.25110267232E+03  0.19435400515E+03  0.54412168985E+03  0.80429748522E+03  0.50000000000E+03 0. -1.
<mgrwt>
<rscale>  0 0.17058876E+04</rscale>
<asrwt>0</asrwt>
<pdfrwt beam="1">  1        2 0.67045740E-01 0.17058876E+04</pdfrwt>
<pdfrwt beam="2">  1       -2 0.22144892E+00 0.17058876E+04</pdfrwt>
<totfact> 0.66569351E+00</totfact>
</mgrwt>
</event>
<event>
 8    2  0.2588871E-009  0.1580759E+04  0.7818608E-02  0.8832456E-01
          2   -1    0    0  501    0  0.00000000000E+00  0.00000000000E+00  0.13006485404E+04  0.13006485404E+04  0.25500000000E-02 0.  1.
         -2   -1    0    0    0  501 -0.00000000000E+00 -0.00000000000E+00 -0.48029876095E+03  0.48029876095E+03  0.25500000000E-02 0. -1.
    -200001    2    1    2    0    0  0.13964118492E+03  0.48325728354E+01  0.79126785229E+03  0.10665463125E+04  0.70135098806E+03 0.  0.
   -5000001    2    3    3    0    0 -0.46836344854E+02  0.44607428188E+02  0.26683647916E+03  0.31729056625E+03  0.15902242286E+03 0.  0.
     200001    1    1    2    0    0 -0.13964118492E+03 -0.48325728354E+01  0.29081927135E+02  0.71440098878E+03  0.70000000000E+03 0. -1.
         11    1    4    4    0    0  0.25435275884E+02  0.67093514549E+02  0.19824668915E+03  0.21083226203E+03  0.51100000000E-03 0.  1.
    -200002    1    4    4    0    0 -0.72271620739E+02 -0.22486086361E+02  0.68589790009E+02  0.10645830422E+03  0.30000000000E+02 0.  1.
    -200000    1    3    3    0    0  0.18647752977E+03 -0.39774855352E+02  0.52443137313E+03  0.74925574629E+03  0.50000000000E+03 0.  1.
<mgrwt>
<rscale>  0 0.15807592E+04</rscale>
<asrwt>0</asrwt>
<pdfrwt beam="1">  1        2 0.18580693E+00 0.15807592E+04</pdfrwt>
<pdfrwt beam="2">  1       -2 0.68614108E-01 0.15807592E+04</pdfrwt>
<totfact> 0.35052678E+01</totfact>
</mgrwt>
</event>
<event>
 8    2  0.2588871E-009  0.1581111E+04  0.7818608E-02  0.8832237E-01
          2   -1    0    0  501    0  0.00000000000E+00  0.00000000000E+00  0.38483507604E+04  0.38483507604E+04  0.25500000000E-02 0.  1.
         -2   -1    0    0    0  501 -0.00000000000E+00 -0.00000000000E+00 -0.16240149568E+03  0.16240149570E+03  0.25500000000E-02 0. -1.
    -200001    2    1    2    0    0 -0.25489172782E+03  0.14166471187E+03  0.24115934881E+04  0.25278425053E+04  0.69940395797E+03 0.  0.
   -5000001    2    3    3    0    0 -0.47632299864E+02  0.16105481222E+02  0.94702788505E+03  0.96142174560E+03  0.15792952651E+03 0.  0.
     200001    1    1    2    0    0  0.25489172782E+03 -0.14166471187E+03  0.12743557766E+04  0.14829097508E+04  0.70000000000E+03 0. -1.
         11    1    4    4    0    0  0.43105889438E+02 -0.20208880151E+02  0.52636710975E+03  0.52851570532E+03  0.51100000000E-03 0.  1.
    -200002    1    4    4    0    0 -0.90738189303E+02  0.36314361372E+02  0.42066077529E+03  0.43290604028E+03  0.30000000000E+02 0.  1.
    -200000    1    3    3    0    0 -0.20725942796E+03  0.12555923065E+03  0.14645656031E+04  0.15664207597E+04  0.50000000000E+03 0. -1.
<mgrwt>
<rscale>  0 0.15811109E+04</rscale>
<asrwt>0</asrwt>
<pdfrwt beam="1">  1        2 0.54976431E+00 0.15811109E+04</pdfrwt>
<pdfrwt beam="2">  1       -2 0.23200217E-01 0.15811109E+04</pdfrwt>
<totfact> 0.11542489E+01</totfact>
</mgrwt>
</event>
<event>
 8    2  0.2588871E-009  0.2988331E+04  0.7818608E-02  0.8247071E-01
         -2   -1    0    0    0  501 -0.00000000000E+00  0.00000000000E+00  0.21194409099E+04  0.21194409099E+04  0.25500000000E-02 0. -1.
          2   -1    0    0  501    0  0.00000000000E+00 -0.00000000000E+00 -0.10533579958E+04  0.10533579959E+04  0.25500000000E-02 0.  1.
    -200001    2    1    2    0    0 -0.91202934481E+03  0.95379686683E+03  0.49230014689E+03  0.15725637190E+04  0.69933627590E+03 0.  0.
   -5000001    2    3    3    0    0 -0.17725437147E+03  0.20201425018E+03  0.17661628408E+03  0.36644280246E+03  0.17566486897E+03 0.  0.
     200001    1    1    2    0    0  0.91202934481E+03 -0.95379686683E+03  0.57378276716E+03  0.16002351867E+04  0.70000000000E+03 0.  1.
         11    1    4    4    0    0 -0.11234873362E+03  0.15420281324E+03  0.20090635896E+03  0.27706336934E+03  0.51100000000E-03 0.  1.
    -200002    1    4    4    0    0 -0.64905637851E+02  0.47811436938E+02 -0.24290074881E+02  0.89379433119E+02  0.30000000000E+02 0.  1.
    -200000    1    3    3    0    0 -0.73477497333E+03  0.75178261665E+03  0.31568386281E+03  0.12061209166E+04  0.50000000000E+03 0.  1.
<mgrwt>
<rscale>  0 0.29883307E+04</rscale>
<asrwt>0</asrwt>
<pdfrwt beam="1">  1        2 0.15047972E+00 0.29883307E+04</pdfrwt>
<pdfrwt beam="2">  1       -2 0.30277727E+00 0.29883307E+04</pdfrwt>
<totfact> 0.68665656E-01</totfact>
</mgrwt>
</event>
<event>
 8    2  0.2588871E-009  0.1617628E+04  0.7818608E-02  0.8809791E-01
          2   -1    0    0  501    0  0.00000000000E+00  0.00000000000E+00  0.84089403849E+03  0.84089403849E+03  0.25500000000E-02 0.  1.
         -2   -1    0    0    0  501 -0.00000000000E+00 -0.00000000000E+00 -0.77795752399E+03  0.77795752400E+03  0.25500000000E-02 0. -1.
    -200001    2    1    2    0    0  0.17836010996E+02  0.18363202573E+03  0.39137979838E+03  0.82392148073E+03  0.70116304500E+03 0.  0.
   -5000001    2    3    3    0    0 -0.49774497447E+02  0.97179209600E+02  0.16674778500E+03  0.26490018265E+03  0.17448777491E+03 0.  0.
     200001    1    1    2    0    0 -0.17836010996E+02 -0.18363202573E+03 -0.32844328388E+03  0.79493008176E+03  0.70000000000E+03 0. -1.
         11    1    4    4    0    0 -0.26563450840E+02  0.65871545709E+01 -0.32664620078E+02  0.42614374699E+02  0.51100000000E-03 0.  1.
    -200002    1    4    4    0    0 -0.23211046608E+02  0.90592055030E+02  0.19941240508E+03  0.22228580795E+03  0.30000000000E+02 0.  1.
    -200000    1    3    3    0    0  0.67610508443E+02  0.86452816128E+02  0.22463201338E+03  0.55902129808E+03  0.50000000000E+03 0.  1.
<mgrwt>
<rscale>  0 0.16176277E+04</rscale>
<asrwt>0</asrwt>
<pdfrwt beam="1">  1        2 0.12012772E+00 0.16176277E+04</pdfrwt>
<pdfrwt beam="2">  1       -2 0.11113679E+00 0.16176277E+04</pdfrwt>
<totfact> 0.21910189E+01</totfact>
</mgrwt>
</event>
<event>
 8    2  0.2796201E-009  0.1418692E+04  0.7818608E-02  0.8940398E-01
         -2   -1    0    0    0  501 -0.00000000000E+00  0.00000000000E+00  0.25023668751E+03  0.25023668753E+03  0.25500000000E-02 0. -1.
          2   -1    0    0  501    0  0.00000000000E+00 -0.00000000000E+00 -0.20107843319E+04  0.20107843319E+04  0.25500000000E-02 0.  1.
    -200001    2    1    2    0    0 -0.11223678155E+03  0.26107642214E+02 -0.92825434268E+03  0.11674073563E+04  0.69850204491E+03 0.  0.
   -5000001    2    3    3    0    0 -0.82102188487E+02 -0.24936305520E+02 -0.20255696254E+03  0.28414620250E+03  0.17985314184E+03 0.  0.
     200001    1    1    2    0    0  0.11223678155E+03 -0.26107642214E+02 -0.83229330175E+03  0.10936136632E+04  0.70000000000E+03 0. -1.
         11    1    4    4    0    0 -0.11710631121E+03 -0.62308848310E+02 -0.10180204650E+03  0.16721225247E+03  0.51100000000E-03 0.  1.
    -200002    1    4    4    0    0  0.35004122726E+02  0.37372542791E+02 -0.10075491604E+03  0.11693395002E+03  0.30000000000E+02 0.  1.
    -200000    1    3    3    0    0 -0.30134593064E+02  0.51043947734E+02 -0.72569738014E+03  0.88326115381E+03  0.50000000000E+03 0. -1.
<mgrwt>
<rscale>  0 0.14186924E+04</rscale>
<asrwt>0</asrwt>
<pdfrwt beam="1">  1        2 0.28725490E+00 0.14186924E+04</pdfrwt>
<pdfrwt beam="2">  1       -2 0.35748099E-01 0.14186924E+04</pdfrwt>
<totfact> 0.56697965E+01</totfact>
</mgrwt>
</event>
<event>
 8    2  0.2588871E-009  0.1541732E+04  0.7818608E-02  0.8857166E-01
          2   -1    0    0  501    0  0.00000000000E+00  0.00000000000E+00  0.37042336378E+03  0.37042336379E+03  0.25500000000E-02 0.  1.
         -2   -1    0    0    0  501 -0.00000000000E+00 -0.00000000000E+00 -0.16042029108E+04  0.16042029108E+04  0.25500000000E-02 0. -1.
    -200001    2    1    2    0    0  0.18802213170E+03 -0.19332881457E+03 -0.39001037955E+03  0.84561132318E+03  0.70015859716E+03 0.  0.
   -5000001    2    3    3    0    0  0.94171146779E+02 -0.51908457564E+01 -0.11470454078E+03  0.23733736554E+03  0.18513979486E+03 0.  0.
     200001    1    1    2    0    0 -0.18802213170E+03  0.19332881457E+03 -0.84376916748E+03  0.11290149514E+04  0.70000000000E+03 0. -1.
         11    1    4    4    0    0 -0.15251516874E+02 -0.30004762535E+02  0.34539125506E+02  0.48227022847E+02  0.51100000000E-03 0.  1.
    -200002    1    4    4    0    0  0.10942266365E+03  0.24813916778E+02 -0.14924366628E+03  0.18911034269E+03  0.30000000000E+02 0.  1.
    -200000    1    3    3    0    0  0.93850984925E+02 -0.18813796882E+03 -0.27530583877E+03  0.60827395764E+03  0.50000000000E+03 0.  1.
<mgrwt>
<rscale>  0 0.15417318E+04</rscale>
<asrwt>0</asrwt>
<pdfrwt beam="1">  1        2 0.52917625E-01 0.15417318E+04</pdfrwt>
<pdfrwt beam="2">  1       -2 0.22917184E+00 0.15417318E+04</pdfrwt>
<totfact> 0.78693225E+00</totfact>
</mgrwt>
</event>
<event>
 8    2  0.2588871E-009  0.2210475E+04  0.7818608E-02  0.8514081E-01
          2   -1    0    0  501    0  0.00000000000E+00  0.00000000000E+00  0.20343123540E+04  0.20343123540E+04  0.25500000000E-02 0.  1.
         -2   -1    0    0    0  501 -0.00000000000E+00 -0.00000000000E+00 -0.60047320556E+03  0.60047320557E+03  0.25500000000E-02 0. -1.
    -200001    2    1    2    0    0 -0.79258168377E+03  0.21851537334E+03  0.99886105489E+03  0.14706804803E+04  0.69945905829E+03 0.  0.
   -5000001    2    3    3    0    0 -0.29597249004E+03  0.85040295150E+02  0.46936794631E+03  0.57916534308E+03  0.14245932382E+03 0.  0.
     200001    1    1    2    0    0  0.79258168377E+03 -0.21851537334E+03  0.43497809357E+03  0.11641050793E+04  0.70000000000E+03 0. -1.
         11    1    4    4    0    0 -0.25679237030E+03  0.29728988884E+02  0.40767437409E+03  0.48272614339E+03  0.51100000000E-03 0.  1.
    -200002    1    4    4    0    0 -0.39180119743E+02  0.55311306265E+02  0.61693572222E+02  0.96439199693E+02  0.30000000000E+02 0.  1.
    -200000    1    3    3    0    0 -0.49660919373E+03  0.13347507819E+03  0.52949310859E+03  0.89151513719E+03  0.50000000000E+03 0.  1.
<mgrwt>
<rscale>  0 0.22104751E+04</rscale>
<asrwt>0</asrwt>
<pdfrwt beam="1">  1        2 0.29061605E+00 0.22104751E+04</pdfrwt>
<pdfrwt beam="2">  1       -2 0.85781888E-01 0.22104751E+04</pdfrwt>
<totfact> 0.83393568E+00</totfact>
</mgrwt>
</event>
<event>
 8    2  0.2588871E-009  0.2510559E+04  0.7818608E-02  0.8399233E-01
          2   -1    0    0  501    0  0.00000000000E+00  0.00000000000E+00  0.29706180738E+04  0.29706180738E+04  0.25500000000E-02 0.  1.
         -2   -1    0    0    0  501 -0.00000000000E+00 -0.00000000000E+00 -0.53043741870E+03  0.53043741870E+03  0.25500000000E-02 0. -1.
    -200001    2    1    2    0    0 -0.56398516705E+03  0.59843432521E+03  0.21123677526E+04  0.23724881665E+04  0.70028541868E+03 0.  0.
   -5000001    2    3    3    0    0 -0.22216745839E+03  0.26251730870E+03  0.65035612158E+03  0.75472502028E+03  0.16844303024E+03 0.  0.
     200001    1    1    2    0    0  0.56398516705E+03 -0.59843432521E+03  0.32781290244E+03  0.11285673260E+04  0.70000000000E+03 0. -1.
         11    1    4    4    0    0 -0.52311092271E+02  0.13336108739E+03  0.13804817755E+03  0.19894453832E+03  0.51100000000E-03 0.  1.
    -200002    1    4    4    0    0 -0.16985636612E+03  0.12915622131E+03  0.51230794403E+03  0.55578048196E+03  0.30000000000E+02 0.  1.
    -200000    1    3    3    0    0 -0.34181770866E+03  0.33591701651E+03  0.14620116311E+04  0.16177631462E+04  0.50000000000E+03 0.  1.
<mgrwt>
<rscale>  0 0.25105593E+04</rscale>
<asrwt>0</asrwt>
<pdfrwt beam="1">  1        2 0.42437400E+00 0.25105593E+04</pdfrwt>
<pdfrwt beam="2">  1       -2 0.75776776E-01 0.25105593E+04</pdfrwt>
<totfact> 0.34244077E+00</totfact>
</mgrwt>
</event>
<event>
 8    2  0.2588871E-009  0.2908284E+04  0.7818608E-02  0.8270417E-01
          2   -1    0    0  501    0  0.00000000000E+00  0.00000000000E+00  0.15851499237E+04  0.15851499237E+04  0.25500000000E-02 0.  1.
         -2   -1    0    0    0  501 -0.00000000000E+00 -0.00000000000E+00 -0.13339619007E+04  0.13339619007E+04  0.25500000000E-02 0. -1.
    -200001    2    1    2    0    0  0.72750654923E+03 -0.86708367645E+03  0.71366007923E+03  0.15102185411E+04  0.70024956405E+03 0.  0.
   -5000001    2    3    3    0    0  0.18334992626E+03 -0.32583099223E+03  0.18189896151E+03  0.45105340530E+03  0.17486826836E+03 0.  0.
     200001    1    1    2    0    0 -0.72750654923E+03  0.86708367645E+03 -0.46247205624E+03  0.14088932834E+04  0.70000000000E+03 0. -1.
         11    1    4    4    0    0 -0.25161421226E+02 -0.65684947366E+02  0.66993863374E+02  0.97137980001E+02  0.51100000000E-03 0.  1.
    -200002    1    4    4    0    0  0.20851134748E+03 -0.26014604486E+03  0.11490509814E+03  0.35391542530E+03  0.30000000000E+02 0.  1.
    -200000    1    3    3    0    0  0.54415662298E+03 -0.54125268422E+03  0.53176111771E+03  0.10591651358E+04  0.50000000000E+03 0.  1.
<mgrwt>
<rscale>  0 0.29082844E+04</rscale>
<asrwt>0</asrwt>
<pdfrwt beam="1">  1        2 0.22644999E+00 0.29082844E+04</pdfrwt>
<pdfrwt beam="2">  1       -2 0.19056599E+00 0.29082844E+04</pdfrwt>
<totfact> 0.17592541E+00</totfact>
</mgrwt>
</event>
<event>
 8    2  0.2588871E-009  0.1440650E+04  0.7818608E-02  0.8924908E-01
          2   -1    0    0  501    0  0.00000000000E+00  0.00000000000E+00  0.14888935881E+04  0.14888935881E+04  0.25500000000E-02 0.  1.
         -2   -1    0    0    0  501 -0.00000000000E+00 -0.00000000000E+00 -0.34849239059E+03  0.34849239060E+03  0.25500000000E-02 0. -1.
    -200001    2    1    2    0    0  0.35755385539E+02  0.14729794220E+03  0.48707074655E+03  0.86794500087E+03  0.70222181753E+03 0.  0.
   -5000001    2    3    3    0    0  0.83259301778E+02  0.11793361116E+03  0.15237134102E+03  0.26367471527E+03  0.15958346385E+03 0.  0.
     200001    1    1    2    0    0 -0.35755385539E+02 -0.14729794220E+03  0.65333045099E+03  0.96944097787E+03  0.70000000000E+03 0.  1.
         11    1    4    4    0    0  0.52474474203E+02  0.27870930154E+02  0.15272875976E+03  0.16387932527E+03  0.51100000000E-03 0.  1.
    -200002    1    4    4    0    0  0.30784827575E+02  0.90062681004E+02 -0.35741874166E+00  0.99795390007E+02  0.30000000000E+02 0.  1.
    -200000    1    3    3    0    0 -0.47503916239E+02  0.29364331041E+02  0.33469940553E+03  0.60427028560E+03  0.50000000000E+03 0. -1.
<mgrwt>
<rscale>  0 0.14406500E+04</rscale>
<asrwt>0</asrwt>
<pdfrwt beam="1">  1        2 0.21269909E+00 0.14406500E+04</pdfrwt>
<pdfrwt beam="2">  1       -2 0.49784627E-01 0.14406500E+04</pdfrwt>
<totfact> 0.54957717E+01</totfact>
</mgrwt>
</event>
<event>
 8    2  0.2588871E-009  0.1593301E+04  0.7818608E-02  0.8824674E-01
         -2   -1    0    0    0  501 -0.00000000000E+00  0.00000000000E+00  0.37017998483E+03  0.37017998484E+03  0.25500000000E-02 0. -1.
          2   -1    0    0  501    0  0.00000000000E+00 -0.00000000000E+00 -0.17144410707E+04  0.17144410707E+04  0.25500000000E-02 0.  1.
    -200001    2    1    2    0    0 -0.15365468131E+03  0.16696646450E+03 -0.27393279975E+03  0.78574069098E+03  0.70061522488E+03 0.  0.
   -5000001    2    3    3    0    0 -0.14725981525E+03  0.75955384810E+02 -0.97767547779E+02  0.24782052317E+03  0.15621089794E+03 0.  0.
     200001    1    1    2    0    0  0.15365468131E+03 -0.16696646450E+03 -0.10703282861E+04  0.12988803645E+04  0.70000000000E+03 0.  1.
         11    1    4    4    0    0 -0.70674190619E+02 -0.12662187793E+02 -0.10442907828E+03  0.12673044074E+03  0.51100000000E-03 0.  1.
    -200002    1    4    4    0    0 -0.76585624631E+02  0.88617572603E+02  0.66615304982E+01  0.12109008243E+03  0.30000000000E+02 0.  1.
    -200000    1    3    3    0    0 -0.63948660590E+01  0.91011079694E+02 -0.17616525197E+03  0.53792016781E+03  0.50000000000E+03 0. -1.
<mgrwt>
<rscale>  0 0.15933007E+04</rscale>
<asrwt>0</asrwt>
<pdfrwt beam="1">  1        2 0.24492015E+00 0.15933007E+04</pdfrwt>
<pdfrwt beam="2">  1       -2 0.52882856E-01 0.15933007E+04</pdfrwt>
<totfact> 0.36542759E+01</totfact>
</mgrwt>
</event>
<event>
 8    2  0.2588871E-009  0.2556550E+04  0.7818608E-02  0.8383112E-01
         -2   -1    0    0    0  501 -0.00000000000E+00  0.00000000000E+00  0.69607495178E+03  0.69607495179E+03  0.25500000000E-02 0. -1.
          2   -1    0    0  501    0  0.00000000000E+00 -0.00000000000E+00 -0.23474293105E+04  0.23474293105E+04  0.25500000000E-02 0.  1.
    -200001    2    1    2    0    0  0.77776867931E+03 -0.10296796087E+03 -0.16912844600E+04  0.19913061191E+04  0.69952156227E+03 0.  0.
   -5000001    2    3    3    0    0  0.16363632327E+03  0.31265680809E+02 -0.48887284771E+03  0.54528713357E+03  0.17489141696E+03 0.  0.
     200001    1    1    2    0    0 -0.77776867931E+03  0.10296796087E+03  0.39930101249E+02  0.10521981432E+04  0.70000000000E+03 0. -1.
         11    1    4    4    0    0  0.87724083560E+02  0.31023960444E+02 -0.64699714156E+02  0.11333161064E+03  0.51100000000E-03 0.  1.
    -200002    1    4    4    0    0  0.75912239714E+02  0.24172036525E+00 -0.42417313355E+03  0.43195552293E+03  0.30000000000E+02 0.  1.
    -200000    1    3    3    0    0  0.61413235604E+03 -0.13423364168E+03 -0.12024116123E+04  0.14460189856E+04  0.50000000000E+03 0.  1.
<mgrwt>
<rscale>  0 0.25565498E+04</rscale>
<asrwt>0</asrwt>
<pdfrwt beam="1">  1        2 0.33534704E+00 0.25565498E+04</pdfrwt>
<pdfrwt beam="2">  1       -2 0.99439280E-01 0.25565498E+04</pdfrwt>
<totfact> 0.39625501E+00</totfact>
</mgrwt>
</event>
<event>
 8    2  0.2588871E-009  0.1737905E+04  0.7818608E-02  0.8740036E-01
         -2   -1    0    0    0  501 -0.00000000000E+00  0.00000000000E+00  0.18949088905E+04  0.18949088905E+04  0.25500000000E-02 0. -1.
          2   -1    0    0  501    0  0.00000000000E+00 -0.00000000000E+00 -0.39847740332E+03  0.39847740333E+03  0.25500000000E-02 0.  1.
    -200001    2    1    2    0    0 -0.42746520022E+03 -0.25350215104E+03  0.93948105215E+03  0.12700663903E+04  0.69530867273E+03 0.  0.
   -5000001    2    3    3    0    0 -0.13253337326E+03 -0.18704053419E+02  0.20536259173E+03  0.30515974032E+03  0.18175185388E+03 0.  0.
     200001    1    1    2    0    0  0.42746520022E+03  0.25350215104E+03  0.55695043506E+03  0.10233199036E+04  0.70000000000E+03 0.  1.
         11    1    4    4    0    0 -0.14210342171E+02  0.57911825464E+02  0.71002845921E+01  0.60051039914E+02  0.51100000000E-03 0.  1.
    -200002    1    4    4    0    0 -0.11832303109E+03 -0.76615878883E+02  0.19826230714E+03  0.24510870040E+03  0.30000000000E+02 0.  1.
    -200000    1    3    3    0    0 -0.29493182696E+03 -0.23479809762E+03  0.73411846043E+03  0.96490664996E+03  0.50000000000E+03 0. -1.
<mgrwt>
<rscale>  0 0.17379049E+04</rscale>
<asrwt>0</asrwt>
<pdfrwt beam="1">  1        2 0.56925343E-01 0.17379049E+04</pdfrwt>
<pdfrwt beam="2">  1       -2 0.27070127E+00 0.17379049E+04</pdfrwt>
<totfact> 0.39677312E+00</totfact>
</mgrwt>
</event>
<event>
 8    2  0.2588871E-009  0.1985502E+04  0.7818608E-02  0.8613429E-01
          2   -1    0    0  501    0  0.00000000000E+00  0.00000000000E+00  0.18146705535E+04  0.18146705535E+04  0.25500000000E-02 0. -1.
         -2   -1    0    0    0  501 -0.00000000000E+00 -0.00000000000E+00 -0.54310394717E+03  0.54310394717E+03  0.25500000000E-02 0.  1.
    -200001    2    1    2    0    0 -0.23953734207E+03  0.12115444278E+03 -0.13689362086E+03  0.76221292278E+03  0.70012294561E+03 0.  0.
   -5000001    2    3    3    0    0 -0.88153210433E+01  0.89668092975E+02 -0.19337285271E+02  0.19825943777E+03  0.17554144036E+03 0.  0.
     200001    1    1    2    0    0  0.23953734207E+03 -0.12115444278E+03  0.14084602272E+04  0.15955615779E+04  0.70000000000E+03 0. -1.
         11    1    4    4    0    0  0.58302804692E+02  0.87150830915E+02  0.30744087624E+02  0.10926885781E+03  0.51100000000E-03 0.  1.
    -200002    1    4    4    0    0 -0.67118125735E+02  0.25172620605E+01 -0.50081372895E+02  0.88990579960E+02  0.30000000000E+02 0.  1.
    -200000    1    3    3    0    0 -0.23072202103E+03  0.31486349801E+02 -0.11755633559E+03  0.56395348500E+03  0.50000000000E+03 0.  1.
<mgrwt>
<rscale>  0 0.19855022E+04</rscale>
<asrwt>0</asrwt>
<pdfrwt beam="1">  1        2 0.25923865E+00 0.19855022E+04</pdfrwt>
<pdfrwt beam="2">  1       -2 0.77586278E-01 0.19855022E+04</pdfrwt>
<totfact> 0.13825262E+01</totfact>
</mgrwt>
</event>
<event>
 8    2  0.2588871E-009  0.1535335E+04  0.7818608E-02  0.8861290E-01
         -2   -1    0    0    0  501 -0.00000000000E+00  0.00000000000E+00  0.64552901552E+03  0.64552901553E+03  0.25500000000E-02 0. -1.
          2   -1    0    0  501    0  0.00000000000E+00 -0.00000000000E+00 -0.91291497795E+03  0.91291497795E+03  0.25500000000E-02 0.  1.
    -200001    2    1    2    0    0 -0.36264331278E+02  0.25795021842E+03 -0.30117377742E+03  0.81078428924E+03  0.70626631137E+03 0.  0.
   -5000001    2    3    3    0    0 -0.51447532094E+02 -0.15044703332E+02  0.55674506562E+02  0.13840236305E+03  0.11481451023E+03 0.  0.
     200001    1    1    2    0    0  0.36264331278E+02 -0.25795021842E+03  0.33787814988E+02  0.74765970424E+03  0.70000000000E+03 0. -1.
         11    1    4    4    0    0  0.30883954133E+02 -0.17741141561E+02  0.31281726671E+02  0.47403725070E+02  0.51100000000E-03 0.  1.
    -200002    1    4    4    0    0 -0.82331486227E+02  0.26964382295E+01  0.24392779891E+02  0.90998637980E+02  0.30000000000E+02 0.  1.
    -200000    1    3    3    0    0  0.15183200816E+02  0.27299492175E+03 -0.35684828398E+03  0.67238192619E+03  0.50000000000E+03 0.  1.
<mgrwt>
<rscale>  0 0.15353346E+04</rscale>
<asrwt>0</asrwt>
<pdfrwt beam="1">  1        2 0.13041643E+00 0.15353346E+04</pdfrwt>
<pdfrwt beam="2">  1       -2 0.92218431E-01 0.15353346E+04</pdfrwt>
<totfact> 0.30768946E+01</totfact>
</mgrwt>
</event>
<event>
 8    2  0.2588871E-009  0.1507211E+04  0.7818608E-02  0.8879672E-01
          2   -1    0    0  501    0  0.00000000000E+00  0.00000000000E+00  0.60213339690E+03  0.60213339690E+03  0.25500000000E-02 0.  1.
         -2   -1    0    0    0  501 -0.00000000000E+00 -0.00000000000E+00 -0.94318212125E+03  0.94318212126E+03  0.25500000000E-02 0. -1.
    -200001    2    1    2    0    0  0.35623278662E+02 -0.27314663228E+03 -0.13180538886E+03  0.76450768383E+03  0.70087176958E+03 0.  0.
   -5000001    2    3    3    0    0  0.26119045645E+02 -0.72947989134E+02 -0.80777063690E+02  0.22342200010E+03  0.19336194674E+03 0.  0.
     200001    1    1    2    0    0 -0.35623278662E+02  0.27314663228E+03 -0.20924333550E+03  0.78080783433E+03  0.70000000000E+03 0. -1.
         11    1    4    4    0    0  0.75727396288E+01 -0.37152229861E+02 -0.14040965080E+03  0.14543900648E+03  0.51100000000E-03 0.  1.
    -200002    1    4    4    0    0  0.18546306017E+02 -0.35795759274E+02  0.59632587107E+02  0.77982993620E+02  0.30000000000E+02 0.  1.
    -200000    1    3    3    0    0  0.95042330170E+01 -0.20019864314E+03 -0.51028325173E+02  0.54108568372E+03  0.50000000000E+03 0.  1.
<mgrwt>
<rscale>  0 0.15072113E+04</rscale>
<asrwt>0</asrwt>
<pdfrwt beam="1">  1        2 0.86019057E-01 0.15072113E+04</pdfrwt>
<pdfrwt beam="2">  1       -2 0.13474030E+00 0.15072113E+04</pdfrwt>
<totfact> 0.20720154E+01</totfact>
</mgrwt>
</event>
<event>
 8    2  0.2588871E-009  0.1659592E+04  0.7818608E-02  0.8784752E-01
         -2   -1    0    0    0  501 -0.00000000000E+00  0.00000000000E+00  0.16725826212E+04  0.16725826213E+04  0.25500000000E-02 0. -1.
          2   -1    0    0  501    0  0.00000000000E+00 -0.00000000000E+00 -0.41167536443E+03  0.41167536444E+03  0.25500000000E-02 0.  1.
    -200001    2    1    2    0    0 -0.14888232917E+03  0.41422227451E+03  0.54371194318E+03  0.98967351726E+03  0.70006067807E+03 0.  0.
   -5000001    2    3    3    0    0 -0.25116317784E+02  0.72413529720E+02  0.16957117629E+03  0.26708611283E+03  0.19158825417E+03 0.  0.
     200001    1    1    2    0    0  0.14888232917E+03 -0.41422227451E+03  0.71719531364E+03  0.10945844684E+04  0.70000000000E+03 0. -1.
         11    1    4    4    0    0 -0.32423077033E+02  0.89422409566E+02  0.19938861547E+03  0.22091501361E+03  0.51100000000E-03 0.  1.
    -200002    1    4    4    0    0  0.73067592492E+01 -0.17008879846E+02 -0.29817439182E+02  0.46171099226E+02  0.30000000000E+02 0.  1.
    -200000    1    3    3    0    0 -0.12376601139E+03  0.34180874479E+03  0.37414076689E+03  0.72258740443E+03  0.50000000000E+03 0.  1.
<mgrwt>
<rscale>  0 0.16595916E+04</rscale>
<asrwt>0</asrwt>
<pdfrwt beam="1">  1        2 0.58810766E-01 0.16595916E+04</pdfrwt>
<pdfrwt beam="2">  1       -2 0.23894038E+00 0.16595916E+04</pdfrwt>
<totfact> 0.60239290E+00</totfact>
</mgrwt>
</event>
<event>
 8    2  0.2588871E-009  0.2243004E+04  0.7818608E-02  0.8500739E-01
         -2   -1    0    0    0  501 -0.00000000000E+00  0.00000000000E+00  0.18468732373E+04  0.18468732373E+04  0.25500000000E-02 0. -1.
          2   -1    0    0  501    0  0.00000000000E+00 -0.00000000000E+00 -0.68102477260E+03  0.68102477260E+03  0.25500000000E-02 0.  1.
    -200001    2    1    2    0    0 -0.32977493445E+03  0.67408134037E+03  0.10928563962E+04  0.14990807264E+04  0.69983623857E+03 0.  0.
   -5000001    2    3    3    0    0 -0.13532733766E+02  0.22960759358E+03  0.27438120209E+03  0.39569154557E+03  0.16847543814E+03 0.  0.
     200001    1    1    2    0    0  0.32977493445E+03 -0.67408134037E+03  0.72992068571E+02  0.10288172835E+04  0.70000000000E+03 0.  1.
         11    1    4    4    0    0 -0.59924331206E+02  0.16731099914E+03  0.10364335763E+03  0.20573245122E+03  0.51100000000E-03 0.  1.
    -200002    1    4    4    0    0  0.46391597441E+02  0.62296594439E+02  0.17073784446E+03  0.18995909434E+03  0.30000000000E+02 0.  1.
    -200000    1    3    3    0    0 -0.31624220069E+03  0.44447374679E+03  0.81847519408E+03  0.11033891808E+04  0.50000000000E+03 0. -1.
<mgrwt>
<rscale>  0 0.22430037E+04</rscale>
<asrwt>0</asrwt>
<pdfrwt beam="1">  1        2 0.97289256E-01 0.22430037E+04</pdfrwt>
<pdfrwt beam="2">  1       -2 0.26383903E+00 0.22430037E+04</pdfrwt>
<totfact> 0.22507455E+00</totfact>
</mgrwt>
</event>
<event>
 8    2  0.2588871E-009  0.1901300E+04  0.7818608E-02  0.8654210E-01
         -2   -1    0    0    0  501 -0.00000000000E+00  0.00000000000E+00  0.36701465842E+03  0.36701465843E+03  0.25500000000E-02 0. -1.
          2   -1    0    0  501    0  0.00000000000E+00 -0.00000000000E+00 -0.24623953626E+04  0.24623953626E+04  0.25500000000E-02 0.  1.
    -200001    2    1    2    0    0 -0.55711127278E+03  0.31728428920E+03 -0.10750601613E+04  0.14358188684E+04  0.70340541798E+03 0.  0.
   -5000001    2    3    3    0    0 -0.22701544558E+03  0.14123115435E+03 -0.27908481606E+03  0.42411994498E+03  0.17466293737E+03 0.  0.
     200001    1    1    2    0    0  0.55711127278E+03 -0.31728428920E+03 -0.10203205428E+04  0.13935911526E+04  0.70000000000E+03 0. -1.
         11    1    4    4    0    0 -0.32903646419E+02 -0.38376938651E+02 -0.26000281703E+02  0.56845879506E+02  0.51100000000E-03 0.  1.
    -200002    1    4    4    0    0 -0.19411179916E+03  0.17960809300E+03 -0.25308453436E+03  0.36727406548E+03  0.30000000000E+02 0.  1.
    -200000    1    3    3    0    0 -0.33009582721E+03  0.17605313485E+03 -0.79597534528E+03  0.10116989235E+04  0.50000000000E+03 0. -1.
<mgrwt>
<rscale>  0 0.19012998E+04</rscale>
<asrwt>0</asrwt>
<pdfrwt beam="1">  1        2 0.35177076E+00 0.19012998E+04</pdfrwt>
<pdfrwt beam="2">  1       -2 0.52430667E-01 0.19012998E+04</pdfrwt>
<totfact> 0.14884204E+01</totfact>
</mgrwt>
</event>
<event>
 8    2  0.2588871E-009  0.1489940E+04  0.7818608E-02  0.8891170E-01
          2   -1    0    0  501    0  0.00000000000E+00  0.00000000000E+00  0.14168835285E+04  0.14168835285E+04  0.25500000000E-02 0.  1.
         -2   -1    0    0    0  501 -0.00000000000E+00 -0.00000000000E+00 -0.39169102564E+03  0.39169102565E+03  0.25500000000E-02 0. -1.
    -200001    2    1    2    0    0  0.30031978794E+01  0.10905428799E+03  0.23465376042E+03  0.74704105951E+03  0.70078962634E+03 0.  0.
   -5000001    2    3    3    0    0 -0.28918781900E+02  0.29362683076E+02  0.50491741609E+02  0.20733242157E+03  0.19682188385E+03 0.  0.
     200001    1    1    2    0    0 -0.30031978794E+01 -0.10905428799E+03  0.79053874241E+03  0.10615334946E+04  0.70000000000E+03 0.  1.
         11    1    4    4    0    0  0.23862248777E+02  0.28707773298E+02 -0.66080989914E+02  0.75896247554E+02  0.51100000000E-03 0.  1.
    -200002    1    4    4    0    0 -0.52781030677E+02  0.65490977731E+00  0.11657273152E+03  0.13143617402E+03  0.30000000000E+02 0.  1.
    -200000    1    3    3    0    0  0.31921979779E+02  0.79691604916E+02  0.18416201881E+03  0.53970863793E+03  0.50000000000E+03 0. -1.
<mgrwt>
<rscale>  0 0.14899404E+04</rscale>
<asrwt>0</asrwt>
<pdfrwt beam="1">  1        2 0.20241193E+00 0.14899404E+04</pdfrwt>
<pdfrwt beam="2">  1       -2 0.55955862E-01 0.14899404E+04</pdfrwt>
<totfact> 0.47047125E+01</totfact>
</mgrwt>
</event>
<event>
 8    2  0.2588871E-009  0.2388242E+04  0.7818608E-02  0.8443919E-01
          2   -1    0    0  501    0  0.00000000000E+00  0.00000000000E+00  0.33924300966E+04  0.33924300966E+04  0.25500000000E-02 0.  1.
         -2   -1    0    0    0  501 -0.00000000000E+00 -0.00000000000E+00 -0.42032547419E+03  0.42032547420E+03  0.25500000000E-02 0. -1.
    -200001    2    1    2    0    0 -0.25724982414E+03 -0.45886747063E+03  0.27820488992E+04  0.29167321305E+04  0.70056649642E+03 0.  0.
   -5000001    2    3    3    0    0  0.17395150068E+02 -0.21895151196E+03  0.59850906948E+03  0.64718686392E+03  0.11133451730E+03 0.  0.
     200001    1    1    2    0    0  0.25724982414E+03  0.45886747063E+03  0.19005572319E+03  0.89602344028E+03  0.70000000000E+03 0. -1.
         11    1    4    4    0    0 -0.42700791043E+01 -0.49866219309E+01  0.13688809297E+03  0.13704543032E+03  0.51100000000E-03 0.  1.
    -200002    1    4    4    0    0  0.21665229172E+02 -0.21396489003E+03  0.46162097650E+03  0.51014143359E+03  0.30000000000E+02 0.  1.
    -200000    1    3    3    0    0 -0.27464497421E+03 -0.23991595867E+03  0.21835398297E+04  0.22695452666E+04  0.50000000000E+03 0.  1.
<mgrwt>
<rscale>  0 0.23882419E+04</rscale>
<asrwt>0</asrwt>
<pdfrwt beam="1">  1        2 0.48463285E+00 0.23882419E+04</pdfrwt>
<pdfrwt beam="2">  1       -2 0.60046499E-01 0.23882419E+04</pdfrwt>
<totfact> 0.32688732E+00</totfact>
</mgrwt>
</event>
<event>
 8    2  0.2588871E-009  0.1803396E+04  0.7818608E-02  0.8704495E-01
         -2   -1    0    0    0  501 -0.00000000000E+00  0.00000000000E+00  0.72670342086E+03  0.72670342087E+03  0.25500000000E-02 0. -1.
          2   -1    0    0  501    0  0.00000000000E+00 -0.00000000000E+00 -0.11188326746E+04  0.11188326747E+04  0.25500000000E-02 0.  1.
    -200001    2    1    2    0    0  0.18865761119E+03  0.67908370313E+02  0.34696525140E+03  0.80800829897E+03  0.70163329775E+03 0.  0.
   -5000001    2    3    3    0    0  0.58606945333E+02 -0.57128628720E+02  0.12354783438E+03  0.23141245347E+03  0.17773351395E+03 0.  0.
     200001    1    1    2    0    0 -0.18865761119E+03 -0.67908370313E+02 -0.73909450518E+03  0.10375277965E+04  0.70000000000E+03 0.  1.
         11    1    4    4    0    0 -0.19505800100E+02 -0.94386767447E+02  0.95345677679E+02  0.13557336154E+03  0.51100000000E-03 0.  1.
    -200002    1    4    4    0    0  0.78112745433E+02  0.37258138727E+02  0.28202156700E+02  0.95839091936E+02  0.30000000000E+02 0.  1.
    -200000    1    3    3    0    0  0.13005066586E+03  0.12503699903E+03  0.22341741702E+03  0.57659584550E+03  0.50000000000E+03 0. -1.
<mgrwt>
<rscale>  0 0.18033963E+04</rscale>
<asrwt>0</asrwt>
<pdfrwt beam="1">  1        2 0.15983324E+00 0.18033963E+04</pdfrwt>
<pdfrwt beam="2">  1       -2 0.10381477E+00 0.18033963E+04</pdfrwt>
<totfact> 0.17035083E+01</totfact>
</mgrwt>
</event>
<event>
 8    2  0.2588871E-009  0.1629264E+04  0.7818608E-02  0.8802769E-01
         -2   -1    0    0    0  501 -0.00000000000E+00  0.00000000000E+00  0.63082808673E+03  0.63082808674E+03  0.25500000000E-02 0. -1.
          2   -1    0    0  501    0  0.00000000000E+00 -0.00000000000E+00 -0.10519911969E+04  0.10519911969E+04  0.25500000000E-02 0.  1.
    -200001    2    1    2    0    0 -0.26509026501E+03  0.10507447237E+03 -0.52606515580E+03  0.91972169321E+03  0.69844824537E+03 0.  0.
   -5000001    2    3    3    0    0 -0.39969654505E+02 -0.36588198750E+02  0.18090482908E+02  0.13432182002E+03  0.12156815451E+03 0.  0.
     200001    1    1    2    0    0  0.26509026501E+03 -0.10507447237E+03  0.10490204564E+03  0.76309759044E+03  0.70000000000E+03 0. -1.
         11    1    4    4    0    0 -0.39544187055E+02  0.30603565991E+02 -0.16977690296E+02  0.52806845667E+02  0.51100000000E-03 0.  1.
    -200002    1    4    4    0    0 -0.42546744934E+00 -0.67191764740E+02  0.35068173204E+02  0.81514974350E+02  0.30000000000E+02 0.  1.
    -200000    1    3    3    0    0 -0.22512061051E+03  0.14166267112E+03 -0.54415563871E+03  0.78539987319E+03  0.50000000000E+03 0.  1.
<mgrwt>
<rscale>  0 0.16292644E+04</rscale>
<asrwt>0</asrwt>
<pdfrwt beam="1">  1        2 0.15028446E+00 0.16292644E+04</pdfrwt>
<pdfrwt beam="2">  1       -2 0.90118298E-01 0.16292644E+04</pdfrwt>
<totfact> 0.26381430E+01</totfact>
</mgrwt>
</event>
<event>
 8    2  0.2588871E-009  0.1608266E+04  0.7818608E-02  0.8815486E-01
         -2   -1    0    0    0  501 -0.00000000000E+00  0.00000000000E+00  0.60149553118E+03  0.60149553119E+03  0.25500000000E-02 0. -1.
          2   -1    0    0  501    0  0.00000000000E+00 -0.00000000000E+00 -0.10750363688E+04  0.10750363688E+04  0.25500000000E-02 0.  1.
    -200001    2    1    2    0    0 -0.19292500695E+03 -0.34039714593E+03 -0.29909877955E+03  0.85584907031E+03  0.69994805233E+03 0.  0.
   -5000001    2    3    3    0    0 -0.13568952649E+02 -0.81693309749E+02 -0.10645200985E+03  0.23439187392E+03  0.19170186964E+03 0.  0.
     200001    1    1    2    0    0  0.19292500695E+03  0.34039714593E+03 -0.17444205802E+03  0.82068282964E+03  0.70000000000E+03 0.  1.
         11    1    4    4    0    0 -0.67262310952E+02  0.34170877656E+02 -0.22810231082E+02  0.78817345785E+02  0.51100000000E-03 0.  1.
    -200002    1    4    4    0    0  0.53693358302E+02 -0.11586418741E+03 -0.83641778768E+02  0.15557452813E+03  0.30000000000E+02 0.  1.
    -200000    1    3    3    0    0 -0.17935605430E+03 -0.25870383618E+03 -0.19264676970E+03  0.62145719639E+03  0.50000000000E+03 0. -1.
<mgrwt>
<rscale>  0 0.16082656E+04</rscale>
<asrwt>0</asrwt>
<pdfrwt beam="1">  1        2 0.15357662E+00 0.16082656E+04</pdfrwt>
<pdfrwt beam="2">  1       -2 0.85927934E-01 0.16082656E+04</pdfrwt>
<totfact> 0.28549943E+01</totfact>
</mgrwt>
</event>
<event>
 8    2  0.2588871E-009  0.1660252E+04  0.7818608E-02  0.8784364E-01
         -2   -1    0    0    0  501 -0.00000000000E+00  0.00000000000E+00  0.24871896939E+03  0.24871896940E+03  0.25500000000E-02 0. -1.
          2   -1    0    0  501    0  0.00000000000E+00 -0.00000000000E+00 -0.27706341654E+04  0.27706341654E+04  0.25500000000E-02 0.  1.
    -200001    2    1    2    0    0  0.14816784726E+03 -0.35022900900E+03 -0.83735355999E+03  0.11559256543E+04  0.70027784774E+03 0.  0.
   -5000001    2    3    3    0    0  0.43693898547E+02 -0.12521759249E+03 -0.34677242298E+03  0.41281409096E+03  0.18048755667E+03 0.  0.
     200001    1    1    2    0    0 -0.14816784726E+03  0.35022900900E+03 -0.16845616360E+04  0.18634274806E+04  0.70000000000E+03 0.  1.
         11    1    4    4    0    0 -0.47851170034E+02 -0.46011885369E+02 -0.30921629534E+02  0.73232337407E+02  0.51100000000E-03 0.  1.
    -200002    1    4    4    0    0  0.91545068581E+02 -0.79205707121E+02 -0.31585079345E+03  0.33958175355E+03  0.30000000000E+02 0.  1.
    -200000    1    3    3    0    0  0.10447394871E+03 -0.22501141651E+03 -0.49058113701E+03  0.74311156330E+03  0.50000000000E+03 0. -1.
<mgrwt>
<rscale>  0 0.16602521E+04</rscale>
<asrwt>0</asrwt>
<pdfrwt beam="1">  1        2 0.39580486E+00 0.16602521E+04</pdfrwt>
<pdfrwt beam="2">  1       -2 0.35531283E-01 0.16602521E+04</pdfrwt>
<totfact> 0.22520702E+01</totfact>
</mgrwt>
</event>
<event>
 8    2  0.2588871E-009  0.1826717E+04  0.7818608E-02  0.8692219E-01
          2   -1    0    0  501    0  0.00000000000E+00  0.00000000000E+00  0.19039674561E+04  0.19039674561E+04  0.25500000000E-02 0.  1.
         -2   -1    0    0    0  501 -0.00000000000E+00 -0.00000000000E+00 -0.43815025346E+03  0.43815025347E+03  0.25500000000E-02 0. -1.
    -200001    2    1    2    0    0  0.34140816923E+03 -0.47478007532E+03  0.70573893032E+03  0.11548120884E+04  0.70252961777E+03 0.  0.
   -5000001    2    3    3    0    0  0.18695422956E+03 -0.18370874685E+03  0.19161026112E+03  0.36556762298E+03  0.16800121184E+03 0.  0.
     200001    1    1    2    0    0 -0.34140816923E+03  0.47478007532E+03  0.76007827230E+03  0.11873056211E+04  0.70000000000E+03 0. -1.
         11    1    4    4    0    0  0.99555894602E+02 -0.28722496324E+02  0.17376598291E+01  0.10363096741E+03  0.51100000000E-03 0.  1.
    -200002    1    4    4    0    0  0.87398334961E+02 -0.15498625053E+03  0.18987260129E+03  0.26193665556E+03  0.30000000000E+02 0.  1.
    -200000    1    3    3    0    0  0.15445393967E+03 -0.29107132847E+03  0.51412866920E+03  0.78924446544E+03  0.50000000000E+03 0.  1.
<mgrwt>
<rscale>  0 0.18267171E+04</rscale>
<asrwt>0</asrwt>
<pdfrwt beam="1">  1        2 0.27199535E+00 0.18267171E+04</pdfrwt>
<pdfrwt beam="2">  1       -2 0.62592893E-01 0.18267171E+04</pdfrwt>
<totfact> 0.20111201E+01</totfact>
</mgrwt>
</event>
<event>
 8    2  0.2588871E-009  0.1471251E+04  0.7818608E-02  0.8903799E-01
         -2   -1    0    0    0  501 -0.00000000000E+00  0.00000000000E+00  0.68258978389E+03  0.68258978390E+03  0.25500000000E-02 0. -1.
          2   -1    0    0  501    0  0.00000000000E+00 -0.00000000000E+00 -0.79278171065E+03  0.79278171066E+03  0.25500000000E-02 0.  1.
    -200001    2    1    2    0    0 -0.21819745015E+03  0.57192080300E+02 -0.55986082367E+02  0.73793042242E+03  0.70037547474E+03 0.  0.
   -5000001    2    3    3    0    0  0.22259255949E+02  0.24099297148E+02 -0.57011861383E+01  0.17985952138E+03  0.17675037004E+03 0.  0.
     200001    1    1    2    0    0  0.21819745015E+03 -0.57192080300E+02 -0.54205844396E+02  0.73744107213E+03  0.70000000000E+03 0.  1.
         11    1    4    4    0    0 -0.65852026961E+02 -0.21121852976E+02 -0.26943252407E+02  0.74219680534E+02  0.51100000000E-03 0.  1.
    -200002    1    4    4    0    0  0.88111282909E+02  0.45221150124E+02  0.21242066269E+02  0.10563984085E+03  0.30000000000E+02 0.  1.
    -200000    1    3    3    0    0 -0.24045670610E+03  0.33092783152E+02 -0.50284896229E+02  0.55807090104E+03  0.50000000000E+03 0.  1.
<mgrwt>
<rscale>  0 0.14712508E+04</rscale>
<asrwt>0</asrwt>
<pdfrwt beam="1">  1        2 0.11325453E+00 0.14712508E+04</pdfrwt>
<pdfrwt beam="2">  1       -2 0.97512826E-01 0.14712508E+04</pdfrwt>
<totfact> 0.32712421E+01</totfact>
</mgrwt>
</event>
<event>
 8    2  0.2588871E-009  0.1503040E+04  0.7818608E-02  0.8882434E-01
          2   -1    0    0  501    0  0.00000000000E+00  0.00000000000E+00  0.50143699327E+03  0.50143699327E+03  0.25500000000E-02 0.  1.
         -2   -1    0    0    0  501 -0.00000000000E+00 -0.00000000000E+00 -0.11263281826E+04  0.11263281826E+04  0.25500000000E-02 0. -1.
    -200001    2    1    2    0    0  0.15278290027E+03 -0.17962428468E+03 -0.16209468933E+03  0.75610692937E+03  0.69986820335E+03 0.  0.
   -5000001    2    3    3    0    0  0.13340844767E+03 -0.94405060567E+02 -0.39042485629E+02  0.23382393098E+03  0.16260130886E+03 0.  0.
     200001    1    1    2    0    0 -0.15278290027E+03  0.17962428468E+03 -0.46279649996E+03  0.87165824647E+03  0.70000000000E+03 0. -1.
         11    1    4    4    0    0 -0.10072933247E+02  0.20434123219E+02  0.27832351582E+02  0.35967445986E+02  0.51100000000E-03 0.  1.
    -200002    1    4    4    0    0  0.14348138091E+03 -0.11483918379E+03 -0.66874837210E+02  0.19785648499E+03  0.30000000000E+02 0.  1.
    -200000    1    3    3    0    0  0.19374452607E+02 -0.85219224108E+02 -0.12305220370E+03  0.52228299839E+03  0.50000000000E+03 0. -1.
<mgrwt>
<rscale>  0 0.15030404E+04</rscale>
<asrwt>0</asrwt>
<pdfrwt beam="1">  1        2 0.71633856E-01 0.15030404E+04</pdfrwt>
<pdfrwt beam="2">  1       -2 0.16090403E+00 0.15030404E+04</pdfrwt>
<totfact> 0.16052614E+01</totfact>
</mgrwt>
</event>
